Protein in INSANE! Membrane UpperLeaflet>POPC=1.0 LowerLeaflet>POPC=1.0
239078
    1AU     AUC    1  34.074   8.935   7.500
    1AU     AUC    2  34.318   8.931   7.334
    1AU     AUC    3  34.331   8.934   7.643
    1AU     AUC    4  33.817   8.936   7.354
    1AU     AUC    5  33.830   8.943   7.664
    1AU     AUC    6  33.923   9.186   7.501
    1AU     AUC    7  34.231   9.184   7.490
    1AU     AUC    8  33.915   8.684   7.510
    1AU     AUC    9  34.228   8.683   7.496
    1AU     AUC   10  34.084   8.784   7.753
    1AU     AUC   11  34.087   9.094   7.749
    1AU     AUC   12  34.063   8.778   7.249
    1AU     AUC   13  34.066   9.087   7.247
    1AU     AUC   14  34.554   8.928   7.173
    1AU     AUC   15  34.572   8.926   7.478
    1AU     AUC   16  34.582   8.930   7.781
    1AU     AUC   17  33.570   8.934   7.212
    1AU     AUC   18  33.575   8.948   7.513
    1AU     AUC   19  33.592   8.953   7.820
    1AU     AUC   20  33.778   9.431   7.502
    1AU     AUC   21  34.083   9.433   7.493
    1AU     AUC   22  34.382   9.425   7.482
    1AU     AUC   23  33.764   8.446   7.522
    1AU     AUC   24  34.065   8.438   7.518
    1AU     AUC   25  34.373   8.439   7.493
    1AU     AUC   26  34.090   8.637   7.995
    1AU     AUC   27  34.092   8.936   7.998
    1AU     AUC   28  34.101   9.244   7.989
    1AU     AUC   29  34.054   8.624   7.011
    1AU     AUC   30  34.057   8.924   7.001
    1AU     AUC   31  34.058   9.233   7.002
    1AU     AUC   32  34.337   8.779   7.893
    1AU     AUC   33  34.343   9.084   7.894
    1AU     AUC   34  34.304   8.775   7.088
    1AU     AUC   35  34.311   9.083   7.088
    1AU     AUC   36  33.832   8.793   7.911
    1AU     AUC   37  33.845   9.098   7.911
    1AU     AUC   38  33.813   8.775   7.107
    1AU     AUC   39  33.811   9.083   7.103
    1AU     AUC   40  34.474   9.177   7.329
    1AU     AUC   41  34.489   9.177   7.636
    1AU     AUC   42  33.666   9.186   7.352
    1AU     AUC   43  33.683   9.197   7.663
    1AU     AUC   44  34.463   8.675   7.327
    1AU     AUC   45  34.480   8.679   7.634
    1AU     AUC   46  33.667   8.685   7.361
    1AU     AUC   47  33.668   8.699   7.663
    1AU     AUC   48  33.941   9.345   7.751
    1AU     AUC   49  34.246   9.338   7.741
    1AU     AUC   50  33.918   8.542   7.760
    1AU     AUC   51  34.234   8.534   7.751
    1AU     AUC   52  33.917   9.336   7.245
    1AU     AUC   53  34.225   9.334   7.238
    1AU     AUC   54  33.909   8.527   7.269
    1AU     AUC   55  34.213   8.524   7.252
    1AU    AUSL   56  34.516   8.894   8.066
    1AU    AUSL   57  34.391   8.510   8.044
    1AU     AUL   58  34.793   8.706   8.184
    1AU       S   59  34.682   8.227   8.312
    1AU     LIG   60  34.626   7.828   8.516
    1AU     LIG   61  34.659   7.401   8.671
    1AU     LIG   62  34.919   7.191   8.975
    1AU     LIG   63  35.189   6.874   9.178
    1AU     LIG   64  35.401   6.810   9.575
    1AU     LIG   65  35.572   6.611   9.957
    1AU       S   66  34.567   8.772   8.656
    1AU     LIG   67  34.832   8.687   9.024
    1AU     LIG   68  34.982   8.424   9.389
    1AU     LIG   69  35.186   8.297   9.796
    1AU     LIG   70  35.476   8.390  10.147
    1AU     LIG   71  35.798   8.651  10.374
    1AU     LIG   72  36.093   8.823  10.694
    1AU    AUSL   73  34.237   8.759   8.207
    1AU    AUSL   74  33.956   9.089   8.192
    1AU     AUL   75  34.057   8.932   8.496
    1AU       S   76  34.419   8.596   8.582
    1AU     LIG   77  34.615   8.255   8.837
    1AU     LIG   78  34.630   8.068   9.268
    1AU     LIG   79  34.717   8.089   9.738
    1AU     LIG   80  34.882   8.051  10.194
    1AU     LIG   81  34.862   7.999  10.679
    1AU     LIG   82  34.700   8.129  11.121
    1AU       S   83  33.583   9.117   8.657
    1AU     LIG   84  33.442   9.098   9.115
    1AU     LIG   85  33.361   8.830   9.512
    1AU     LIG   86  33.304   8.712   9.970
    1AU     LIG   87  33.325   8.904  10.416
    1AU     LIG   88  33.271   9.185  10.810
    1AU     LIG   89  33.019   9.534  11.040
    1AU    AUSL   90  34.288   9.101   8.204
    1AU    AUSL   91  34.644   9.193   7.938
    1AU     AUL   92  34.691   9.032   8.255
    1AU       S   93  34.471   9.131   8.689
    1AU     LIG   94  34.583   9.519   8.968
    1AU     LIG   95  34.766   9.738   9.362
    1AU     LIG   96  34.847   9.846   9.826
    1AU     LIG   97  34.916   9.752  10.301
    1AU     LIG   98  34.955   9.888  10.759
    1AU     LIG   99  34.834   9.733  11.212
    1AU       S  100  35.037   9.366   8.131
    1AU     LIG  101  35.393   9.275   8.372
    1AU     LIG  102  35.542   9.416   8.775
    1AU     LIG  103  35.830   9.648   9.057
    1AU     LIG  104  36.034   9.856   9.423
    1AU     LIG  105  36.388   9.898   9.751
    1AU     LIG  106  36.824  10.073   9.824
    1AU    AUSL  107  34.493   8.976   6.887
    1AU    AUSL  108  34.343   9.331   6.932
    1AU     AUL  109  34.422   9.259   6.585
    1AU       S  110  34.585   8.814   6.357
    1AU     LIG  111  34.787   8.475   6.121
    1AU     LIG  112  34.952   8.307   5.718
    1AU     LIG  113  35.122   8.398   5.287
    1AU     LIG  114  35.528   8.437   5.016
    1AU     LIG  115  35.965   8.552   4.826
    1AU     LIG  116  36.306   8.767   4.569
    1AU       S  117  34.823   9.546   6.684
    1AU     LIG  118  35.144   9.627   6.350
    1AU     LIG  119  35.398   9.832   5.989
    1AU     LIG  120  35.649  10.035   5.618
    1AU     LIG  121  35.638  10.276   5.185
    1AU     LIG  122  35.680  10.564   4.795
    1AU     LIG  123  36.000  10.804   4.552
    1AU    AUSL  124  34.257   8.751   6.794
    1AU    AUSL  125  34.546   8.663   7.015
    1AU     AUL  126  34.750   8.804   6.823
    1AU       S  127  34.714   8.335   6.631
    1AU     LIG  128  34.928   8.020   6.348
    1AU     LIG  129  35.123   7.584   6.254
    1AU     LIG  130  35.408   7.272   6.028
    1AU     LIG  131  35.822   7.236   5.781
    1AU     LIG  132  36.186   7.338   5.474
    1AU     LIG  133  36.524   7.260   5.133
    1AU       S  134  34.335   8.593   6.420
    1AU     LIG  135  34.345   8.235   6.153
    1AU     LIG  136  34.448   8.189   5.701
    1AU     LIG  137  34.631   8.174   5.248
    1AU     LIG  138  34.614   7.991   4.786
    1AU     LIG  139  34.750   7.842   4.342
    1AU     LIG  140  35.022   7.803   3.943
    1AU    AUSL  141  34.184   9.072   6.803
    1AU    AUSL  142  33.913   8.760   6.783
    1AU     AUL  143  34.077   9.111   6.541
    1AU       S  144  33.857   8.525   6.405
    1AU     LIG  145  33.867   8.326   5.986
    1AU     LIG  146  33.623   8.236   5.588
    1AU     LIG  147  33.343   8.123   5.211
    1AU     LIG  148  33.071   7.990   4.830
    1AU     LIG  149  33.152   7.813   4.396
    1AU     LIG  150  33.109   7.853   3.934
    1AU       S  151  34.362   8.739   6.407
    1AU     LIG  152  34.358   8.683   5.910
    1AU     LIG  153  34.620   8.640   5.504
    1AU     LIG  154  34.730   8.657   5.037
    1AU     LIG  155  34.785   8.911   4.630
    1AU     LIG  156  34.847   8.995   4.163
    1AU     LIG  157  34.894   9.220   3.748
    1AU    AUSL  158  33.658   8.973   8.123
    1AU    AUSL  159  33.833   9.374   8.065
    1AU     AUL  160  33.962   9.292   8.383
    1AU       S  161  33.424   9.012   8.491
    1AU     LIG  162  33.112   8.850   8.816
    1AU     LIG  163  33.007   8.611   9.208
    1AU     LIG  164  32.936   8.500   9.658
    1AU     LIG  165  32.716   8.337  10.049
    1AU     LIG  166  32.404   8.380  10.417
    1AU     LIG  167  32.094   8.675  10.644
    1AU       S  168  33.527   9.540   8.416
    1AU     LIG  169  33.440   9.701   8.852
    1AU     LIG  170  33.290   9.932   9.244
    1AU     LIG  171  33.067  10.078   9.637
    1AU     LIG  172  32.984  10.411   9.966
    1AU     LIG  173  32.712  10.642  10.282
    1AU     LIG  174  32.413  10.976  10.452
    1AU    AUSL  175  33.904   8.754   8.209
    1AU    AUSL  176  33.537   8.701   7.960
    1AU     AUL  177  33.584   8.583   8.277
    1AU       S  178  33.252   8.207   8.117
    1AU     LIG  179  32.855   7.994   8.058
    1AU     LIG  180  32.469   7.802   8.245
    1AU     LIG  181  32.173   7.565   8.529
    1AU     LIG  182  31.972   7.319   8.880
    1AU     LIG  183  31.677   7.243   9.241
    1AU     LIG  184  31.398   7.338   9.621
    1AU       S  185  33.608   8.844   8.696
    1AU     LIG  186  33.505   8.576   9.069
    1AU     LIG  187  33.384   8.316   9.459
    1AU     LIG  188  33.263   8.186   9.908
    1AU     LIG  189  33.047   8.031  10.309
    1AU     LIG  190  32.989   7.895  10.768
    1AU     LIG  191  33.074   7.879  11.246
    1AU    AUSL  192  33.626   8.889   6.927
    1AU    AUSL  193  33.784   8.505   6.956
    1AU     AUL  194  33.495   8.647   6.760
    1AU       S  195  33.630   8.797   6.308
    1AU     LIG  196  33.406   8.569   5.947
    1AU     LIG  197  33.146   8.469   5.548
    1AU     LIG  198  32.911   8.394   5.132
    1AU     LIG  199  32.598   8.282   4.781
    1AU     LIG  200  32.234   8.458   4.511
    1AU     LIG  201  31.933   8.810   4.347
    1AU       S  202  33.424   8.133   6.791
    1AU     LIG  203  33.219   7.688   6.766
    1AU     LIG  204  32.792   7.517   6.592
    1AU     LIG  205  32.572   7.281   6.220
    1AU     LIG  206  32.503   7.103   5.769
    1AU     LIG  207  32.575   6.815   5.370
    1AU     LIG  208  32.527   6.638   4.925
    1AU    AUSL  209  33.853   9.091   6.807
    1AU    AUSL  210  33.531   9.188   7.053
    1AU     AUL  211  33.445   9.045   6.714
    1AU       S  212  33.306   9.519   6.684
    1AU     LIG  213  33.115   9.563   6.241
    1AU     LIG  214  32.879   9.659   5.831
    1AU     LIG  215  32.657   9.818   5.444
    1AU     LIG  216  32.284   9.983   5.207
    1AU     LIG  217  31.852  10.061   5.023
    1AU     LIG  218  31.482  10.337   4.971
    1AU       S  219  33.836   8.737   6.367
    1AU     LIG  220  33.855   8.815   5.865
    1AU     LIG  221  33.581   8.739   5.472
    1AU     LIG  222  33.405   8.653   5.026
    1AU     LIG  223  33.485   8.820   4.552
    1AU     LIG  224  33.493   9.042   4.101
    1AU     LIG  225  33.318   9.303   3.720
    1AU    AUSL  226  34.674   9.346   7.445
    1AU    AUSL  227  34.634   9.218   7.083
    1AU     AUL  228  34.744   9.657   7.314
    1AU       S  229  34.968   9.287   6.811
    1AU     LIG  230  35.395   9.266   6.633
    1AU     LIG  231  35.622   9.421   6.243
    1AU     LIG  232  35.877   9.661   5.922
    1AU     LIG  233  36.186   9.907   5.670
    1AU     LIG  234  36.600   9.937   5.421
    1AU     LIG  235  36.799  10.049   5.006
    1AU       S  236  35.212   9.428   7.373
    1AU     LIG  237  35.700   9.498   7.506
    1AU     LIG  238  36.211   9.508   7.540
    1AU     LIG  239  36.712   9.562   7.526
    1AU     LIG  240  37.102   9.886   7.511
    1AU     LIG  241  37.257  10.359   7.526
    1AU     LIG  242  37.376  10.801   7.723
    1AU    AUSL  243  34.792   9.048   7.317
    1AU    AUSL  244  34.784   8.779   7.606
    1AU     AUL  245  35.085   8.766   7.367
    1AU       S  246  35.202   9.240   7.249
    1AU     LIG  247  35.667   9.156   7.136
    1AU     LIG  248  36.165   9.097   7.231
    1AU     LIG  249  36.668   9.107   7.235
    1AU     LIG  250  37.130   9.153   7.094
    1AU     LIG  251  37.534   9.400   7.159
    1AU     LIG  252  37.720   9.717   6.853
    1AU       S  253  35.155   8.288   7.634
    1AU     LIG  254  35.553   8.091   7.798
    1AU     LIG  255  35.994   7.903   7.804
    1AU     LIG  256  36.437   7.731   7.811
    1AU     LIG  257  36.849   7.789   8.034
    1AU     LIG  258  37.330   7.810   8.030
    1AU     LIG  259  37.775   7.741   7.895
    1AU    AUSL  260  34.788   9.108   7.654
    1AU    AUSL  261  34.530   9.439   7.741
    1AU     AUL  262  34.818   9.517   7.691
    1AU       S  263  34.880   9.523   8.177
    1AU     LIG  264  35.225   9.766   8.421
    1AU     LIG  265  35.504   9.935   8.768
    1AU     LIG  266  35.827  10.180   9.015
    1AU     LIG  267  36.056  10.603   8.998
    1AU     LIG  268  36.196  11.065   9.039
    1AU     LIG  269  36.419  11.475   9.136
    1AU       S  270  35.227   9.215   7.620
    1AU     LIG  271  35.614   9.122   7.846
    1AU     LIG  272  36.068   9.054   7.742
    1AU     LIG  273  36.539   9.108   7.736
    1AU     LIG  274  36.941   9.210   7.962
    1AU     LIG  275  37.379   9.345   8.087
    1AU     LIG  276  37.649   9.733   8.097
    1AU    AUSL  277  33.483   9.394   7.527
    1AU    AUSL  278  33.547   9.229   7.935
    1AU     AUL  279  33.414   9.663   7.783
    1AU       S  280  33.268   9.371   8.221
    1AU     LIG  281  33.101   9.361   8.673
    1AU     LIG  282  32.924   9.669   8.994
    1AU     LIG  283  32.672   9.816   9.391
    1AU     LIG  284  32.270   9.926   9.673
    1AU     LIG  285  31.838  10.147   9.794
    1AU     LIG  286  31.586  10.455  10.074
    1AU       S  287  32.973   9.542   7.588
    1AU     LIG  288  32.603   9.832   7.590
    1AU     LIG  289  32.315  10.211   7.658
    1AU     LIG  290  32.021  10.575   7.774
    1AU     LIG  291  31.718  10.938   7.791
    1AU     LIG  292  31.250  10.959   7.859
    1AU     LIG  293  30.764  10.939   7.845
    1AU    AUSL  294  33.369   9.122   7.346
    1AU    AUSL  295  33.625   9.467   7.233
    1AU     AUL  296  33.291   9.431   7.199
    1AU       S  297  32.836   9.349   7.392
    1AU     LIG  298  32.612   9.643   7.095
    1AU     LIG  299  32.207   9.864   6.940
    1AU     LIG  300  31.750  10.015   6.895
    1AU     LIG  301  31.349  10.221   6.718
    1AU     LIG  302  30.883  10.154   6.729
    1AU     LIG  303  30.458   9.959   6.774
    1AU       S  304  33.358   9.750   6.809
    1AU     LIG  305  33.130  10.012   6.497
    1AU     LIG  306  33.080  10.320   6.143
    1AU     LIG  307  32.882  10.722   5.966
    1AU     LIG  308  32.542  11.066   5.906
    1AU     LIG  309  32.125  11.320   5.871
    1AU     LIG  310  31.715  11.588   5.853
    1AU    AUSL  311  33.371   9.114   7.688
    1AU    AUSL  312  33.338   8.792   7.349
    1AU     AUL  313  33.087   8.949   7.537
    1AU       S  314  32.929   8.446   7.333
    1AU     LIG  315  32.525   8.475   7.704
    1AU     LIG  316  32.045   8.449   7.793
    1AU     LIG  317  31.580   8.325   7.799
    1AU     LIG  318  31.257   8.178   7.471
    1AU     LIG  319  30.810   8.182   7.306
    1AU     LIG  320  30.423   7.989   7.066
    1AU       S  321  32.973   9.337   7.833
    1AU     LIG  322  32.687   9.638   8.088
    1AU     LIG  323  32.219   9.826   8.170
    1AU     LIG  324  31.726   9.804   8.277
    1AU     LIG  325  31.250   9.930   8.253
    1AU     LIG  326  30.832  10.199   8.344
    1AU     LIG  327  30.326  10.165   8.329
    1AU    AUSL  328  34.679   8.479   7.496
    1AU    AUSL  329  34.637   8.650   7.872
    1AU     AUL  330  34.977   8.704   7.820
    1AU       S  331  34.887   8.092   7.471
    1AU     LIG  332  35.153   7.776   7.705
    1AU     LIG  333  35.595   7.599   7.630
    1AU     LIG  334  36.056   7.453   7.552
    1AU     LIG  335  36.519   7.282   7.531
    1AU     LIG  336  36.823   6.902   7.627
    1AU     LIG  337  37.233   6.773   7.401
    1AU       S  338  34.848   8.233   8.088
    1AU     LIG  339  35.109   7.912   8.340
    1AU     LIG  340  35.156   7.500   8.583
    1AU     LIG  341  35.425   7.233   8.882
    1AU     LIG  342  35.684   7.127   9.268
    1AU     LIG  343  36.053   7.218   9.566
    1AU     LIG  344  36.448   7.272   9.833
    1AU    AUSL  345  34.732   8.726   7.282
    1AU    AUSL  346  34.502   8.390   7.215
    1AU     AUL  347  34.870   8.521   7.104
    1AU       S  348  34.996   8.259   7.497
    1AU     LIG  349  35.400   8.001   7.309
    1AU     LIG  350  35.875   7.896   7.305
    1AU     LIG  351  36.351   7.793   7.301
    1AU     LIG  352  36.784   7.689   7.153
    1AU     LIG  353  37.262   7.819   7.093
    1AU     LIG  354  37.715   7.935   7.014
    1AU       S  355  34.734   8.102   6.852
    1AU     LIG  356  34.865   7.657   6.717
    1AU     LIG  357  34.993   7.208   6.596
    1AU     LIG  358  35.267   6.897   6.396
    1AU     LIG  359  35.307   6.435   6.322
    1AU     LIG  360  35.577   6.053   6.198
    1AU     LIG  361  35.968   5.787   6.081
    1AU    AUSL  362  33.465   8.520   7.476
    1AU    AUSL  363  33.524   8.642   7.123
    1AU     AUL  364  33.229   8.768   7.074
    1AU       S  365  33.225   8.255   6.957
    1AU     LIG  366  32.928   8.079   6.657
    1AU     LIG  367  32.520   7.957   6.549
    1AU     LIG  368  32.265   7.614   6.449
    1AU     LIG  369  32.068   7.410   6.099
    1AU     LIG  370  31.705   7.372   5.802
    1AU     LIG  371  31.391   7.403   5.444
    1AU       S  372  33.119   8.338   7.427
    1AU     LIG  373  32.724   8.039   7.566
    1AU     LIG  374  32.323   8.009   7.797
    1AU     LIG  375  31.891   7.959   7.600
    1AU     LIG  376  31.474   7.708   7.546
    1AU     LIG  377  31.055   7.445   7.624
    1AU     LIG  378  30.670   7.322   7.897
    1AU    AUSL  379  33.393   8.784   7.673
    1AU    AUSL  380  33.596   8.417   7.769
    1AU     AUL  381  33.230   8.624   7.847
    1AU       S  382  33.334   8.086   7.785
    1AU     LIG  383  33.107   7.732   7.660
    1AU     LIG  384  32.714   7.546   7.849
    1AU     LIG  385  32.445   7.291   8.170
    1AU     LIG  386  32.198   7.034   8.509
    1AU     LIG  387  31.992   6.742   8.854
    1AU     LIG  388  31.712   6.404   9.085
    1AU       S  389  32.951   8.485   7.448
    1AU     LIG  390  32.478   8.641   7.241
    1AU     LIG  391  31.994   8.564   7.295
    1AU     LIG  392  31.521   8.636   7.412
    1AU     LIG  393  31.110   8.597   7.703
    1AU     LIG  394  30.689   8.395   7.827
    1AU     LIG  395  30.391   8.024   7.879
    1AU    AUSL  396  34.097   9.544   7.932
    1AU    AUSL  397  33.696   9.475   7.776
    1AU     AUL  398  33.781   9.748   7.981
    1AU       S  399  33.425   9.570   8.280
    1AU     LIG  400  33.097   9.839   8.487
    1AU     LIG  401  33.082  10.171   8.826
    1AU     LIG  402  33.030  10.640   8.962
    1AU     LIG  403  32.782  11.040   9.109
    1AU     LIG  404  32.468  11.358   9.311
    1AU     LIG  405  32.295  11.697   9.611
    1AU       S  406  34.148  10.082   8.042
    1AU     LIG  407  34.325  10.354   8.356
    1AU     LIG  408  34.207  10.755   8.563
    1AU     LIG  409  34.315  11.101   8.839
    1AU     LIG  410  34.421  11.210   9.283
    1AU     LIG  411  34.556  11.475   9.657
    1AU     LIG  412  34.457  11.885   9.882
    1AU    AUSL  413  33.941   9.653   7.645
    1AU    AUSL  414  34.227   9.666   7.330
    1AU     AUL  415  33.761   9.881   7.438
    1AU       S  416  34.041  10.157   7.764
    1AU     LIG  417  34.033  10.602   8.017
    1AU     LIG  418  34.124  11.059   8.166
    1AU     LIG  419  34.217  11.502   8.299
    1AU     LIG  420  33.939  11.858   8.444
    1AU     LIG  421  33.577  12.197   8.409
    1AU     LIG  422  33.445  12.660   8.462
    1AU       S  423  34.377  10.073   7.258
    1AU     LIG  424  34.644  10.411   7.124
    1AU     LIG  425  34.773  10.714   6.799
    1AU     LIG  426  34.749  11.136   6.601
    1AU     LIG  427  34.779  11.615   6.586
    1AU     LIG  428  35.012  12.050   6.535
    1AU     LIG  429  35.142  12.518   6.472
    1AU    AUSL  430  34.278   9.635   7.653
    1AU    AUSL  431  34.363   9.368   8.030
    1AU     AUL  432  34.455   9.702   7.953
    1AU       S  433  34.701   9.511   8.339
    1AU     LIG  434  34.999   9.408   8.696
    1AU     LIG  435  35.182   9.649   9.061
    1AU     LIG  436  35.477   9.918   9.316
    1AU     LIG  437  35.689  10.160   9.661
    1AU     LIG  438  35.772  10.540   9.935
    1AU     LIG  439  35.773  11.012  10.030
    1AU       S  440  34.275  10.105   7.730
    1AU     LIG  441  34.498  10.458   7.845
    1AU     LIG  442  34.549  10.775   8.160
    1AU     LIG  443  34.584  11.154   8.404
    1AU     LIG  444  34.715  11.607   8.405
    1AU     LIG  445  34.821  12.069   8.401
    1AU     LIG  446  34.827  12.498   8.596
    1AU    AUSL  447  34.097   8.357   7.977
    1AU    AUSL  448  34.495   8.370   7.749
    1AU     AUL  449  34.320   8.117   7.988
    1AU       S  450  33.931   7.808   8.090
    1AU     LIG  451  33.751   7.382   8.169
    1AU     LIG  452  33.804   6.937   8.259
    1AU     LIG  453  33.785   6.520   8.455
    1AU     LIG  454  33.732   6.147   8.727
    1AU     LIG  455  33.732   6.076   9.208
    1AU     LIG  456  33.833   6.071   9.684
    1AU       S  457  34.815   8.091   7.956
    1AU     LIG  458  34.786   7.627   8.064
    1AU     LIG  459  34.873   7.198   8.248
    1AU     LIG  460  35.117   6.962   8.561
    1AU     LIG  461  35.286   6.584   8.763
    1AU     LIG  462  35.546   6.247   8.946
    1AU     LIG  463  35.842   5.909   9.076
    1AU    AUSL  464  33.881   8.243   7.730
    1AU    AUSL  465  33.811   8.517   7.997
    1AU     AUL  466  33.811   8.290   8.158
    1AU       S  467  33.739   7.814   7.877
    1AU     LIG  468  33.543   7.453   7.715
    1AU     LIG  469  33.518   7.009   7.794
    1AU     LIG  470  33.514   6.582   8.015
    1AU     LIG  471  33.493   6.150   8.233
    1AU     LIG  472  33.464   5.671   8.274
    1AU     LIG  473  33.373   5.200   8.189
    1AU       S  474  33.394   8.138   7.950
    1AU     LIG  475  33.295   7.696   8.131
    1AU     LIG  476  32.900   7.523   8.337
    1AU     LIG  477  32.609   7.326   8.666
    1AU     LIG  478  32.398   7.049   8.994
    1AU     LIG  479  32.315   6.801   9.389
    1AU     LIG  480  32.402   6.540   9.785
    1AU    AUSL  481  34.199   8.260   7.670
    1AU    AUSL  482  33.909   8.197   7.398
    1AU     AUL  483  34.266   7.994   7.606
    1AU       S  484  33.617   7.855   7.409
    1AU     LIG  485  33.352   7.520   7.252
    1AU     LIG  486  33.411   7.053   7.245
    1AU     LIG  487  33.492   6.660   6.978
    1AU     LIG  488  33.579   6.238   6.749
    1AU     LIG  489  33.525   5.744   6.727
    1AU     LIG  490  33.438   5.260   6.681
    1AU       S  491  33.861   7.870   7.835
    1AU     LIG  492  34.062   7.429   7.756
    1AU     LIG  493  34.026   6.973   7.798
    1AU     LIG  494  34.086   6.552   8.027
    1AU     LIG  495  34.017   6.109   8.239
    1AU     LIG  496  34.116   5.642   8.354
    1AU     LIG  497  34.427   5.279   8.441
    1AU    AUSL  498  34.091   9.528   7.045
    1AU    AUSL  499  34.470   9.472   7.212
    1AU     AUL  500  34.387   9.672   6.930
    1AU       S  501  34.145  10.102   6.973
    1AU     LIG  502  34.324  10.442   6.718
    1AU     LIG  503  34.425  10.778   6.409
    1AU     LIG  504  34.436  10.987   5.979
    1AU     LIG  505  34.364  11.248   5.579
    1AU     LIG  506  34.306  11.592   5.250
    1AU     LIG  507  34.399  11.990   4.996
    1AU       S  508  34.888   9.446   6.902
    1AU     LIG  509  35.290   9.709   6.853
    1AU     LIG  510  35.581   9.872   6.492
    1AU     LIG  511  35.803  10.137   6.143
    1AU     LIG  512  36.033  10.564   6.052
    1AU     LIG  513  36.209  11.032   6.039
    1AU     LIG  514  36.352  11.507   5.993
    1AU    AUSL  515  33.911   9.602   7.320
    1AU    AUSL  516  33.806   9.379   6.960
    1AU     AUL  517  33.787   9.750   7.053
    1AU       S  518  34.174  10.063   7.248
    1AU     LIG  519  34.162  10.563   7.210
    1AU     LIG  520  34.314  10.922   6.915
    1AU     LIG  521  34.294  11.340   6.711
    1AU     LIG  522  34.004  11.672   6.611
    1AU     LIG  523  33.667  11.982   6.512
    1AU     LIG  524  33.535  12.418   6.396
    1AU       S  525  33.604   9.565   6.610
    1AU     LIG  526  33.543   9.845   6.244
    1AU     LIG  527  33.301   9.949   5.853
    1AU     LIG  528  33.098  10.094   5.437
    1AU     LIG  529  33.073  10.358   5.026
    1AU     LIG  530  32.959  10.676   4.687
    1AU     LIG  531  32.753  11.063   4.524
    1AU    AUSL  532  34.023   8.342   7.121
    1AU    AUSL  533  33.668   8.370   7.249
    1AU     AUL  534  33.898   8.166   6.945
    1AU       S  535  33.372   8.101   7.081
    1AU     LIG  536  32.968   7.880   7.163
    1AU     LIG  537  32.557   7.712   7.017
    1AU     LIG  538  32.321   7.339   6.863
    1AU     LIG  539  32.102   7.063   6.518
    1AU     LIG  540  31.846   6.627   6.414
    1AU     LIG  541  31.533   6.294   6.225
    1AU       S  542  33.777   7.859   7.307
    1AU     LIG  543  33.708   7.598   6.909
    1AU     LIG  544  33.682   7.144   6.809
    1AU     LIG  545  33.845   6.743   6.611
    1AU     LIG  546  33.863   6.381   6.315
    1AU     LIG  547  33.858   6.250   5.847
    1AU     LIG  548  34.065   5.974   5.528
    1AU    AUSL  549  34.242   8.231   7.347
    1AU    AUSL  550  34.283   8.457   6.956
    1AU     AUL  551  34.276   8.078   7.067
    1AU       S  552  33.930   7.772   7.330
    1AU     LIG  553  33.848   7.310   7.314
    1AU     LIG  554  33.921   6.869   7.180
    1AU     LIG  555  33.978   6.445   7.003
    1AU     LIG  556  34.231   6.143   6.751
    1AU     LIG  557  34.299   5.668   6.646
    1AU     LIG  558  34.464   5.208   6.601
    1AU       S  559  34.507   8.212   6.643
    1AU     LIG  560  34.467   7.816   6.428
    1AU     LIG  561  34.637   7.411   6.287
    1AU     LIG  562  34.917   7.104   6.066
    1AU     LIG  563  35.097   6.981   5.636
    1AU     LIG  564  35.096   6.819   5.170
    1AU     LIG  565  35.295   6.564   4.810
    2AU     AUC  566  16.391   6.159   7.512
    2AU     AUC  567  16.636   6.156   7.348
    2AU     AUC  568  16.648   6.153   7.658
    2AU     AUC  569  16.135   6.164   7.366
    2AU     AUC  570  16.146   6.166   7.675
    2AU     AUC  571  16.243   6.411   7.518
    2AU     AUC  572  16.550   6.407   7.508
    2AU     AUC  573  16.230   5.908   7.518
    2AU     AUC  574  16.543   5.906   7.506
    2AU     AUC  575  16.397   6.004   7.763
    2AU     AUC  576  16.404   6.313   7.764
    2AU     AUC  577  16.381   6.006   7.259
    2AU     AUC  578  16.385   6.316   7.262
    2AU     AUC  579  16.872   6.154   7.187
    2AU     AUC  580  16.889   6.146   7.492
    2AU     AUC  581  16.896   6.146   7.796
    2AU     AUC  582  15.889   6.167   7.223
    2AU     AUC  583  15.892   6.176   7.524
    2AU     AUC  584  15.908   6.175   7.831
    2AU     AUC  585  16.100   6.658   7.523
    2AU     AUC  586  16.405   6.657   7.515
    2AU     AUC  587  16.704   6.647   7.505
    2AU     AUC  588  16.079   5.671   7.524
    2AU     AUC  589  16.380   5.662   7.524
    2AU     AUC  590  16.688   5.662   7.501
    2AU     AUC  591  16.399   5.853   8.003
    2AU     AUC  592  16.405   6.152   8.010
    2AU     AUC  593  16.419   6.459   8.008
    2AU     AUC  594  16.371   5.857   7.018
    2AU     AUC  595  16.376   6.157   7.013
    2AU     AUC  596  16.379   6.466   7.020
    2AU     AUC  597  16.649   5.995   7.907
    2AU     AUC  598  16.660   6.300   7.909
    2AU     AUC  599  16.621   6.004   7.100
    2AU     AUC  600  16.630   6.312   7.103
    2AU     AUC  601  16.145   6.011   7.919
    2AU     AUC  602  16.161   6.316   7.926
    2AU     AUC  603  16.131   6.008   7.115
    2AU     AUC  604  16.130   6.317   7.118
    2AU     AUC  605  16.794   6.402   7.347
    2AU     AUC  606  16.808   6.394   7.653
    2AU     AUC  607  15.986   6.416   7.369
    2AU     AUC  608  16.002   6.421   7.680
    2AU     AUC  609  16.778   5.899   7.337
    2AU     AUC  610  16.795   5.899   7.647
    2AU     AUC  611  15.984   5.914   7.367
    2AU     AUC  612  15.983   5.922   7.669
    2AU     AUC  613  16.262   6.565   7.771
    2AU     AUC  614  16.568   6.556   7.761
    2AU     AUC  615  16.230   5.762   7.763
    2AU     AUC  616  16.548   5.754   7.759
    2AU     AUC  617  16.239   6.566   7.265
    2AU     AUC  618  16.545   6.562   7.259
    2AU     AUC  619  16.224   5.756   7.274
    2AU     AUC  620  16.528   5.751   7.259
    2AU    AUSL  621  16.824   6.117   8.087
    2AU    AUSL  622  16.688   5.724   8.047
    2AU     AUL  623  16.828   5.825   8.367
    2AU       S  624  17.071   5.400   8.250
    2AU     LIG  625  17.037   4.965   8.410
    2AU     LIG  626  17.059   4.602   8.704
    2AU     LIG  627  17.203   4.351   9.061
    2AU     LIG  628  17.372   4.007   9.320
    2AU     LIG  629  17.568   3.839   9.726
    2AU     LIG  630  17.494   3.639  10.168
    2AU       S  631  16.966   6.280   8.649
    2AU     LIG  632  17.276   6.078   8.960
    2AU     LIG  633  17.375   5.709   9.270
    2AU     LIG  634  17.536   5.469   9.664
    2AU     LIG  635  17.856   5.517  10.030
    2AU     LIG  636  18.259   5.593  10.289
    2AU     LIG  637  18.551   5.706  10.648
    2AU    AUSL  638  16.544   5.983   8.220
    2AU    AUSL  639  16.270   6.295   8.207
    2AU     AUL  640  16.368   6.077   8.519
    2AU       S  641  16.793   6.117   8.769
    2AU     LIG  642  16.905   5.712   9.020
    2AU     LIG  643  16.979   5.385   9.375
    2AU     LIG  644  17.072   5.203   9.810
    2AU     LIG  645  16.975   5.055  10.267
    2AU     LIG  646  16.935   5.092  10.750
    2AU     LIG  647  17.058   5.197  11.204
    2AU       S  648  15.856   6.333   8.655
    2AU     LIG  649  15.747   6.270   9.131
    2AU     LIG  650  15.762   5.990   9.527
    2AU     LIG  651  15.672   5.953   9.985
    2AU     LIG  652  15.703   6.212  10.382
    2AU     LIG  653  15.770   6.471  10.772
    2AU     LIG  654  15.561   6.716  11.117
    2AU    AUSL  655  16.605   6.317   8.220
    2AU    AUSL  656  16.968   6.396   7.955
    2AU     AUL  657  17.053   6.103   8.204
    2AU       S  658  16.730   6.481   8.607
    2AU     LIG  659  16.904   6.749   8.936
    2AU     LIG  660  16.942   6.909   9.383
    2AU     LIG  661  17.009   6.918   9.860
    2AU     LIG  662  17.214   7.099  10.242
    2AU     LIG  663  17.231   7.061  10.707
    2AU     LIG  664  17.260   6.901  11.161
    2AU       S  665  17.360   6.502   8.143
    2AU     LIG  666  17.739   6.400   8.362
    2AU     LIG  667  18.008   6.547   8.702
    2AU     LIG  668  18.183   6.856   9.022
    2AU     LIG  669  18.374   7.173   9.329
    2AU     LIG  670  18.726   7.267   9.642
    2AU     LIG  671  19.031   7.369  10.005
    2AU    AUSL  672  16.813   6.206   6.901
    2AU    AUSL  673  16.663   6.564   6.951
    2AU     AUL  674  16.743   6.497   6.605
    2AU       S  675  16.893   6.062   6.360
    2AU     LIG  676  17.135   5.777   6.094
    2AU     LIG  677  17.368   5.721   5.683
    2AU     LIG  678  17.530   5.770   5.240
    2AU     LIG  679  17.896   5.727   4.943
    2AU     LIG  680  18.347   5.729   4.768
    2AU     LIG  681  18.642   5.821   4.407
    2AU       S  682  17.148   6.774   6.710
    2AU     LIG  683  17.457   6.755   6.359
    2AU     LIG  684  17.692   6.913   5.970
    2AU     LIG  685  17.939   7.146   5.635
    2AU     LIG  686  17.949   7.502   5.300
    2AU     LIG  687  18.068   7.855   4.980
    2AU     LIG  688  18.041   8.178   4.612
    2AU    AUSL  689  16.575   5.984   6.804
    2AU    AUSL  690  16.863   5.890   7.027
    2AU     AUL  691  17.062   6.020   6.821
    2AU       S  692  17.042   5.535   6.658
    2AU     LIG  693  17.241   5.117   6.475
    2AU     LIG  694  17.409   4.689   6.320
    2AU     LIG  695  17.689   4.406   6.040
    2AU     LIG  696  18.089   4.321   5.759
    2AU     LIG  697  18.475   4.330   5.440
    2AU     LIG  698  18.896   4.363   5.182
    2AU       S  699  16.670   5.817   6.440
    2AU     LIG  700  16.725   5.471   6.162
    2AU     LIG  701  16.894   5.484   5.727
    2AU     LIG  702  17.063   5.546   5.287
    2AU     LIG  703  17.203   5.592   4.830
    2AU     LIG  704  17.234   5.400   4.381
    2AU     LIG  705  17.412   5.268   3.947
    2AU    AUSL  706  16.504   6.305   6.820
    2AU    AUSL  707  16.232   6.000   6.793
    2AU     AUL  708  16.400   6.353   6.560
    2AU       S  709  16.183   5.783   6.409
    2AU     LIG  710  16.218   5.559   6.014
    2AU     LIG  711  15.922   5.437   5.658
    2AU     LIG  712  15.684   5.460   5.238
    2AU     LIG  713  15.436   5.288   4.859
    2AU     LIG  714  15.352   5.068   4.421
    2AU     LIG  715  15.281   5.094   3.940
    2AU       S  716  16.669   5.976   6.413
    2AU     LIG  717  16.667   5.923   5.927
    2AU     LIG  718  16.945   5.984   5.547
    2AU     LIG  719  17.092   6.038   5.093
    2AU     LIG  720  17.147   6.205   4.649
    2AU     LIG  721  17.243   6.453   4.252
    2AU     LIG  722  17.368   6.703   3.883
    2AU    AUSL  723  15.967   6.185   8.132
    2AU    AUSL  724  16.156   6.590   8.087
    2AU     AUL  725  16.257   6.462   8.410
    2AU       S  726  15.696   6.213   8.481
    2AU     LIG  727  15.419   6.019   8.827
    2AU     LIG  728  15.377   5.804   9.254
    2AU     LIG  729  15.262   5.751   9.723
    2AU     LIG  730  14.930   5.725  10.087
    2AU     LIG  731  14.515   5.797  10.352
    2AU     LIG  732  14.120   5.970  10.602
    2AU       S  733  15.881   6.784   8.436
    2AU     LIG  734  15.998   7.077   8.757
    2AU     LIG  735  15.776   7.284   9.096
    2AU     LIG  736  15.452   7.397   9.395
    2AU     LIG  737  15.287   7.500   9.820
    2AU     LIG  738  15.114   7.716  10.200
    2AU     LIG  739  14.905   8.010  10.506
    2AU    AUSL  740  16.212   5.964   8.214
    2AU    AUSL  741  15.849   5.918   7.964
    2AU     AUL  742  15.900   5.791   8.285
    2AU       S  743  15.550   5.438   8.109
    2AU     LIG  744  15.134   5.249   8.093
    2AU     LIG  745  14.758   5.051   8.299
    2AU     LIG  746  14.496   4.804   8.607
    2AU     LIG  747  14.284   4.551   8.948
    2AU     LIG  748  14.000   4.578   9.331
    2AU     LIG  749  13.790   4.806   9.705
    2AU       S  750  15.896   6.085   8.682
    2AU     LIG  751  15.850   5.775   9.021
    2AU     LIG  752  15.789   5.494   9.379
    2AU     LIG  753  15.675   5.457   9.820
    2AU     LIG  754  15.367   5.390  10.174
    2AU     LIG  755  15.269   5.178  10.602
    2AU     LIG  756  15.270   5.082  11.075
    2AU    AUSL  757  15.945   6.127   6.938
    2AU    AUSL  758  16.101   5.741   6.960
    2AU     AUL  759  15.814   5.886   6.762
    2AU       S  760  15.959   6.072   6.324
    2AU     LIG  761  15.747   5.799   6.001
    2AU     LIG  762  15.466   5.717   5.628
    2AU     LIG  763  15.168   5.606   5.272
    2AU     LIG  764  14.740   5.703   5.072
    2AU     LIG  765  14.523   5.830   4.675
    2AU     LIG  766  14.298   5.966   4.285
    2AU       S  767  15.731   5.377   6.794
    2AU     LIG  768  15.508   4.961   6.791
    2AU     LIG  769  15.197   4.712   6.572
    2AU     LIG  770  14.863   4.643   6.246
    2AU     LIG  771  14.636   4.386   5.907
    2AU     LIG  772  14.740   4.132   5.493
    2AU     LIG  773  14.975   3.922   5.108
    2AU    AUSL  774  16.172   6.331   6.822
    2AU    AUSL  775  15.851   6.425   7.070
    2AU     AUL  776  15.754   6.285   6.737
    2AU       S  777  15.638   6.765   6.708
    2AU     LIG  778  15.420   6.870   6.293
    2AU     LIG  779  15.258   7.109   5.898
    2AU     LIG  780  15.007   7.177   5.477
    2AU     LIG  781  14.634   7.308   5.190
    2AU     LIG  782  14.202   7.367   4.980
    2AU     LIG  783  13.810   7.623   4.922
    2AU       S  784  16.154   5.986   6.376
    2AU     LIG  785  16.175   6.046   5.877
    2AU     LIG  786  15.926   5.921   5.490
    2AU     LIG  787  15.754   5.948   5.045
    2AU     LIG  788  15.776   6.179   4.613
    2AU     LIG  789  15.857   6.383   4.175
    2AU     LIG  790  15.769   6.498   3.718
    2AU    AUSL  791  16.997   6.569   7.463
    2AU    AUSL  792  16.951   6.445   7.099
    2AU     AUL  793  17.064   6.883   7.329
    2AU       S  794  17.290   6.499   6.825
    2AU     LIG  795  17.719   6.406   6.641
    2AU     LIG  796  17.925   6.531   6.241
    2AU     LIG  797  18.198   6.810   5.958
    2AU     LIG  798  18.489   6.958   5.608
    2AU     LIG  799  18.842   7.114   5.306
    2AU     LIG  800  19.083   7.506   5.183
    2AU       S  801  17.527   6.646   7.389
    2AU     LIG  802  18.006   6.664   7.541
    2AU     LIG  803  18.494   6.707   7.540
    2AU     LIG  804  18.976   6.806   7.537
    2AU     LIG  805  19.282   7.184   7.574
    2AU     LIG  806  19.527   7.598   7.545
    2AU     LIG  807  19.959   7.787   7.626
    2AU    AUSL  808  17.110   6.272   7.330
    2AU    AUSL  809  17.089   5.992   7.623
    2AU     AUL  810  17.393   5.997   7.386
    2AU       S  811  17.531   6.461   7.262
    2AU     LIG  812  17.985   6.406   7.100
    2AU     LIG  813  18.471   6.509   7.071
    2AU     LIG  814  18.928   6.400   7.203
    2AU     LIG  815  19.412   6.422   7.153
    2AU     LIG  816  19.870   6.555   7.057
    2AU     LIG  817  20.136   6.908   7.206
    2AU       S  818  17.468   5.523   7.642
    2AU     LIG  819  17.723   5.247   7.857
    2AU     LIG  820  18.190   5.236   7.810
    2AU     LIG  821  18.640   5.117   7.674
    2AU     LIG  822  19.118   5.155   7.739
    2AU     LIG  823  19.597   5.102   7.734
    2AU     LIG  824  19.942   4.875   7.979
    2AU    AUSL  825  17.107   6.323   7.666
    2AU    AUSL  826  16.857   6.651   7.762
    2AU     AUL  827  17.144   6.733   7.718
    2AU       S  828  17.215   6.671   8.197
    2AU     LIG  829  17.602   6.901   8.377
    2AU     LIG  830  17.975   7.072   8.598
    2AU     LIG  831  18.212   7.371   8.873
    2AU     LIG  832  18.358   7.790   9.043
    2AU     LIG  833  18.522   8.248   9.056
    2AU     LIG  834  18.756   8.648   9.182
    2AU       S  835  17.553   6.434   7.634
    2AU     LIG  836  17.922   6.256   7.859
    2AU     LIG  837  18.350   6.428   7.965
    2AU     LIG  838  18.795   6.402   7.816
    2AU     LIG  839  19.264   6.455   7.840
    2AU     LIG  840  19.616   6.699   8.023
    2AU     LIG  841  20.089   6.638   8.081
    2AU    AUSL  842  15.804   6.621   7.550
    2AU    AUSL  843  15.867   6.452   7.953
    2AU     AUL  844  15.740   6.888   7.808
    2AU       S  845  15.601   6.616   8.252
    2AU     LIG  846  15.475   6.671   8.726
    2AU     LIG  847  15.326   7.003   9.051
    2AU     LIG  848  15.002   7.141   9.406
    2AU     LIG  849  14.620   7.225   9.709
    2AU     LIG  850  14.227   7.377   9.963
    2AU     LIG  851  13.841   7.662  10.044
    2AU       S  852  15.298   6.756   7.629
    2AU     LIG  853  15.055   7.131   7.478
    2AU     LIG  854  14.889   7.583   7.531
    2AU     LIG  855  14.586   7.910   7.695
    2AU     LIG  856  14.184   8.113   7.553
    2AU     LIG  857  13.828   8.385   7.482
    2AU     LIG  858  13.399   8.325   7.584
    2AU    AUSL  859  15.690   6.354   7.362
    2AU    AUSL  860  15.946   6.699   7.256
    2AU     AUL  861  15.608   6.666   7.222
    2AU       S  862  15.159   6.593   7.432
    2AU     LIG  863  14.896   6.789   7.093
    2AU     LIG  864  14.479   6.798   6.851
    2AU     LIG  865  14.010   6.838   6.755
    2AU     LIG  866  13.536   6.886   6.731
    2AU     LIG  867  13.093   6.990   6.674
    2AU     LIG  868  12.767   7.354   6.641
    2AU       S  869  15.679   6.993   6.837
    2AU     LIG  870  15.530   7.316   6.526
    2AU     LIG  871  15.528   7.625   6.161
    2AU     LIG  872  15.360   8.031   5.961
    2AU     LIG  873  14.982   8.304   5.881
    2AU     LIG  874  14.822   8.745   5.867
    2AU     LIG  875  14.394   8.949   5.856
    2AU    AUSL  876  15.688   6.337   7.704
    2AU    AUSL  877  15.656   6.024   7.354
    2AU     AUL  878  15.402   6.175   7.528
    2AU       S  879  15.246   5.693   7.335
    2AU     LIG  880  14.799   5.774   7.631
    2AU     LIG  881  14.295   5.818   7.666
    2AU     LIG  882  13.830   5.934   7.530
    2AU     LIG  883  13.455   5.826   7.219
    2AU     LIG  884  13.045   5.615   7.034
    2AU     LIG  885  12.695   5.278   7.056
    2AU       S  886  15.310   6.534   7.866
    2AU     LIG  887  14.972   6.726   8.114
    2AU     LIG  888  14.499   6.751   8.224
    2AU     LIG  889  14.028   6.737   8.324
    2AU     LIG  890  13.640   6.960   8.427
    2AU     LIG  891  13.222   7.190   8.427
    2AU     LIG  892  12.810   7.063   8.235
    2AU    AUSL  893  16.994   5.699   7.500
    2AU    AUSL  894  16.957   5.873   7.903
    2AU     AUL  895  17.300   5.957   7.800
    2AU       S  896  17.204   5.328   7.473
    2AU     LIG  897  17.503   4.993   7.464
    2AU     LIG  898  17.921   4.850   7.582
    2AU     LIG  899  18.367   4.689   7.574
    2AU     LIG  900  18.762   4.404   7.541
    2AU     LIG  901  19.164   4.120   7.554
    2AU     LIG  902  19.586   3.880   7.516
    2AU       S  903  17.199   5.561   8.107
    2AU     LIG  904  17.514   5.207   8.319
    2AU     LIG  905  17.521   4.814   8.593
    2AU     LIG  906  17.680   4.516   8.930
    2AU     LIG  907  18.025   4.327   9.193
    2AU     LIG  908  18.436   4.364   9.447
    2AU     LIG  909  18.806   4.297   9.741
    2AU    AUSL  910  17.049   5.952   7.295
    2AU    AUSL  911  16.816   5.615   7.222
    2AU     AUL  912  17.187   5.760   7.112
    2AU       S  913  17.342   5.489   7.489
    2AU     LIG  914  17.852   5.364   7.374
    2AU     LIG  915  18.261   5.131   7.310
    2AU     LIG  916  18.706   5.189   7.174
    2AU     LIG  917  19.190   5.213   7.230
    2AU     LIG  918  19.673   5.113   7.211
    2AU     LIG  919  20.020   5.148   6.890
    2AU       S  920  17.055   5.318   6.908
    2AU     LIG  921  17.028   4.848   6.921
    2AU     LIG  922  17.072   4.476   6.667
    2AU     LIG  923  17.379   4.182   6.445
    2AU     LIG  924  17.714   3.911   6.214
    2AU     LIG  925  18.097   3.596   6.148
    2AU     LIG  926  18.516   3.375   6.000
    2AU    AUSL  927  15.780   5.749   7.477
    2AU    AUSL  928  15.843   5.876   7.127
    2AU     AUL  929  15.549   6.004   7.077
    2AU       S  930  15.544   5.490   6.963
    2AU     LIG  931  15.139   5.335   6.852
    2AU     LIG  932  14.836   5.084   6.602
    2AU     LIG  933  14.446   4.898   6.418
    2AU     LIG  934  14.162   4.684   6.117
    2AU     LIG  935  13.961   4.531   5.732
    2AU     LIG  936  13.871   4.683   5.284
    2AU       S  937  15.431   5.574   7.431
    2AU     LIG  938  14.996   5.298   7.570
    2AU     LIG  939  14.492   5.328   7.600
    2AU     LIG  940  13.995   5.243   7.718
    2AU     LIG  941  13.548   4.983   7.780
    2AU     LIG  942  13.104   4.727   7.764
    2AU     LIG  943  12.794   4.346   7.905
    2AU    AUSL  944  15.709   6.010   7.678
    2AU    AUSL  945  15.908   5.636   7.768
    2AU     AUL  946  15.544   5.857   7.849
    2AU       S  947  15.640   5.306   7.780
    2AU     LIG  948  15.355   4.970   7.729
    2AU     LIG  949  14.989   4.779   7.915
    2AU     LIG  950  14.750   4.530   8.239
    2AU     LIG  951  14.507   4.280   8.561
    2AU     LIG  952  14.321   3.956   8.855
    2AU     LIG  953  14.199   3.487   8.912
    2AU       S  954  15.270   5.699   7.456
    2AU     LIG  955  14.806   5.569   7.177
    2AU     LIG  956  14.330   5.617   7.193
    2AU     LIG  957  13.878   5.499   7.288
    2AU     LIG  958  13.510   5.480   7.606
    2AU     LIG  959  13.129   5.267   7.854
    2AU     LIG  960  12.658   5.303   7.932
    2AU    AUSL  961  16.421   6.760   7.958
    2AU    AUSL  962  16.021   6.697   7.797
    2AU     AUL  963  16.099   6.966   7.990
    2AU       S  964  15.763   6.790   8.309
    2AU     LIG  965  15.544   7.157   8.549
    2AU     LIG  966  15.662   7.596   8.705
    2AU     LIG  967  15.514   7.969   8.942
    2AU     LIG  968  15.303   8.380   9.058
    2AU     LIG  969  14.904   8.580   9.228
    2AU     LIG  970  14.545   8.893   9.301
    2AU       S  971  16.472   7.281   8.087
    2AU     LIG  972  16.490   7.516   8.463
    2AU     LIG  973  16.522   7.955   8.525
    2AU     LIG  974  16.537   8.296   8.818
    2AU     LIG  975  16.771   8.502   9.165
    2AU     LIG  976  16.863   8.865   9.453
    2AU     LIG  977  16.687   9.254   9.655
    2AU    AUSL  978  16.270   6.873   7.670
    2AU    AUSL  979  16.548   6.892   7.361
    2AU     AUL  980  16.078   7.099   7.481
    2AU       S  981  16.375   7.364   7.804
    2AU     LIG  982  16.237   7.749   8.089
    2AU     LIG  983  16.449   8.170   8.067
    2AU     LIG  984  16.440   8.524   8.360
    2AU     LIG  985  16.389   8.978   8.470
    2AU     LIG  986  16.134   9.364   8.361
    2AU     LIG  987  15.960   9.787   8.552
    2AU       S  988  16.682   7.304   7.298
    2AU     LIG  989  16.797   7.741   7.185
    2AU     LIG  990  16.905   8.085   6.867
    2AU     LIG  991  17.193   8.453   6.724
    2AU     LIG  992  17.513   8.832   6.679
    2AU     LIG  993  17.602   9.299   6.604
    2AU     LIG  994  17.492   9.757   6.592
    2AU    AUSL  995  16.608   6.854   7.684
    2AU    AUSL  996  16.688   6.577   8.043
    2AU     AUL  997  16.789   6.909   7.998
    2AU       S  998  17.070   6.622   8.305
    2AU     LIG  999  17.351   6.601   8.698
    2AU     LIG 1000  17.654   6.866   8.944
    2AU     LIG 1001  17.857   7.211   9.217
    2AU     LIG 1002  18.014   7.537   9.543
    2AU     LIG 1003  17.950   7.876   9.905
    2AU     LIG 1004  18.039   8.186  10.263
    2AU       S 1005  16.622   7.329   7.779
    2AU     LIG 1006  16.741   7.729   8.038
    2AU     LIG 1007  16.922   8.129   8.256
    2AU     LIG 1008  16.977   8.593   8.375
    2AU     LIG 1009  17.259   9.007   8.375
    2AU     LIG 1010  17.512   9.442   8.342
    2AU     LIG 1011  17.503   9.931   8.330
    2AU    AUSL 1012  16.403   5.567   7.980
    2AU    AUSL 1013  16.815   5.596   7.758
    2AU     AUL 1014  16.648   5.338   7.997
    2AU       S 1015  16.261   5.023   8.081
    2AU     LIG 1016  16.138   4.611   8.202
    2AU     LIG 1017  16.229   4.163   8.262
    2AU     LIG 1018  16.148   3.760   8.483
    2AU     LIG 1019  16.026   3.399   8.768
    2AU     LIG 1020  16.039   3.173   9.206
    2AU     LIG 1021  16.000   2.809   9.535
    2AU       S 1022  17.150   5.348   7.961
    2AU     LIG 1023  17.279   4.932   7.932
    2AU     LIG 1024  17.284   4.564   8.203
    2AU     LIG 1025  17.419   4.281   8.553
    2AU     LIG 1026  17.636   3.990   8.851
    2AU     LIG 1027  17.954   3.613   8.827
    2AU     LIG 1028  18.365   3.368   8.719
    2AU    AUSL 1029  16.196   5.464   7.728
    2AU    AUSL 1030  16.121   5.732   7.998
    2AU     AUL 1031  16.115   5.501   8.156
    2AU       S 1032  16.050   5.049   7.883
    2AU     LIG 1033  15.787   4.725   7.786
    2AU     LIG 1034  15.823   4.302   7.924
    2AU     LIG 1035  15.854   3.856   8.053
    2AU     LIG 1036  15.903   3.402   8.202
    2AU     LIG 1037  15.757   2.946   8.265
    2AU     LIG 1038  15.681   2.465   8.226
    2AU       S 1039  15.694   5.363   7.945
    2AU     LIG 1040  15.575   4.950   8.190
    2AU     LIG 1041  15.190   4.774   8.402
    2AU     LIG 1042  14.924   4.546   8.735
    2AU     LIG 1043  14.704   4.259   9.052
    2AU     LIG 1044  14.607   3.970   9.426
    2AU     LIG 1045  14.608   3.698   9.833
    2AU    AUSL 1046  16.519   5.480   7.677
    2AU    AUSL 1047  16.221   5.422   7.396
    2AU     AUL 1048  16.578   5.213   7.597
    2AU       S 1049  15.934   5.078   7.411
    2AU     LIG 1050  15.702   4.719   7.276
    2AU     LIG 1051  15.750   4.296   7.077
    2AU     LIG 1052  15.802   3.865   6.857
    2AU     LIG 1053  15.690   3.388   6.781
    2AU     LIG 1054  15.537   2.911   6.774
    2AU     LIG 1055  15.435   2.424   6.813
    2AU       S 1056  16.184   5.076   7.833
    2AU     LIG 1057  16.261   4.615   7.710
    2AU     LIG 1058  16.272   4.123   7.741
    2AU     LIG 1059  16.336   3.695   7.994
    2AU     LIG 1060  16.394   3.209   8.114
    2AU     LIG 1061  16.633   2.753   8.109
    2AU     LIG 1062  16.978   2.431   8.243
    2AU    AUSL 1063  16.415   6.762   7.070
    2AU    AUSL 1064  16.788   6.697   7.236
    2AU     AUL 1065  16.722   6.907   6.970
    2AU       S 1066  16.470   7.330   6.996
    2AU     LIG 1067  16.576   7.696   6.716
    2AU     LIG 1068  16.575   8.058   6.426
    2AU     LIG 1069  16.688   8.268   6.039
    2AU     LIG 1070  16.602   8.563   5.694
    2AU     LIG 1071  16.421   8.877   5.409
    2AU     LIG 1072  16.404   9.282   5.186
    2AU       S 1073  17.213   6.663   6.922
    2AU     LIG 1074  17.648   6.865   6.845
    2AU     LIG 1075  17.908   6.998   6.456
    2AU     LIG 1076  18.091   7.291   6.126
    2AU     LIG 1077  18.338   7.702   6.057
    2AU     LIG 1078  18.561   8.127   5.997
    2AU     LIG 1079  18.810   8.506   5.845
    2AU    AUSL 1080  16.231   6.832   7.343
    2AU    AUSL 1081  16.129   6.615   6.982
    2AU     AUL 1082  16.108   6.984   7.081
    2AU       S 1083  16.475   7.309   7.283
    2AU     LIG 1084  16.293   7.778   7.134
    2AU     LIG 1085  16.391   8.181   6.886
    2AU     LIG 1086  16.253   8.650   6.832
    2AU     LIG 1087  16.341   9.086   6.753
    2AU     LIG 1088  16.169   9.419   6.497
    2AU     LIG 1089  15.954   9.818   6.459
    2AU       S 1090  15.929   6.807   6.632
    2AU     LIG 1091  15.889   7.077   6.249
    2AU     LIG 1092  15.743   7.267   5.844
    2AU     LIG 1093  15.499   7.352   5.442
    2AU     LIG 1094  15.356   7.549   5.024
    2AU     LIG 1095  15.123   7.839   4.707
    2AU     LIG 1096  14.767   8.144   4.612
    2AU    AUSL 1097  16.337   5.573   7.124
    2AU    AUSL 1098  15.984   5.601   7.250
    2AU     AUL 1099  16.211   5.401   6.942
    2AU       S 1100  15.695   5.342   7.089
    2AU     LIG 1101  15.355   5.106   7.250
    2AU     LIG 1102  15.019   4.861   7.046
    2AU     LIG 1103  14.724   4.601   6.758
    2AU     LIG 1104  14.462   4.377   6.425
    2AU     LIG 1105  14.197   4.164   6.102
    2AU     LIG 1106  13.993   3.752   6.007
    2AU       S 1107  16.091   5.085   7.296
    2AU     LIG 1108  16.002   4.839   6.884
    2AU     LIG 1109  16.033   4.416   6.665
    2AU     LIG 1110  16.161   3.987   6.484
    2AU     LIG 1111  16.126   3.627   6.152
    2AU     LIG 1112  16.137   3.268   5.811
    2AU     LIG 1113  16.175   2.899   5.492
    2AU    AUSL 1114  16.554   5.458   7.351
    2AU    AUSL 1115  16.600   5.688   6.963
    2AU     AUL 1116  16.579   5.309   7.068
    2AU       S 1117  16.242   4.992   7.319
    2AU     LIG 1118  16.201   4.517   7.223
    2AU     LIG 1119  16.241   4.096   7.016
    2AU     LIG 1120  16.490   3.739   6.827
    2AU     LIG 1121  16.624   3.250   6.831
    2AU     LIG 1122  16.753   2.755   6.840
    2AU     LIG 1123  17.037   2.376   6.728
    2AU       S 1124  16.835   5.425   6.660
    2AU     LIG 1125  16.751   4.992   6.489
    2AU     LIG 1126  16.899   4.635   6.216
    2AU     LIG 1127  17.163   4.331   5.992
    2AU     LIG 1128  17.295   4.021   5.667
    2AU     LIG 1129  17.464   3.873   5.234
    2AU     LIG 1130  17.783   3.718   4.898
    3AU     AUC 1131  41.254  35.732   7.505
    3AU     AUC 1132  41.499  35.726   7.341
    3AU     AUC 1133  41.511  35.730   7.649
    3AU     AUC 1134  40.997  35.734   7.359
    3AU     AUC 1135  41.010  35.743   7.669
    3AU     AUC 1136  41.106  35.984   7.505
    3AU     AUC 1137  41.413  35.980   7.494
    3AU     AUC 1138  41.093  35.482   7.517
    3AU     AUC 1139  41.406  35.479   7.504
    3AU     AUC 1140  41.262  35.583   7.759
    3AU     AUC 1141  41.268  35.893   7.753
    3AU     AUC 1142  41.243  35.573   7.255
    3AU     AUC 1143  41.248  35.883   7.251
    3AU     AUC 1144  41.735  35.720   7.180
    3AU     AUC 1145  41.752  35.719   7.485
    3AU     AUC 1146  41.761  35.726   7.788
    3AU     AUC 1147  40.751  35.733   7.217
    3AU     AUC 1148  40.755  35.749   7.517
    3AU     AUC 1149  40.773  35.756   7.825
    3AU     AUC 1150  40.962  36.231   7.503
    3AU     AUC 1151  41.266  36.230   7.495
    3AU     AUC 1152  41.567  36.220   7.485
    3AU     AUC 1153  40.941  35.245   7.530
    3AU     AUC 1154  41.241  35.236   7.527
    3AU     AUC 1155  41.550  35.235   7.503
    3AU     AUC 1156  41.267  35.438   8.003
    3AU     AUC 1157  41.272  35.737   8.003
    3AU     AUC 1158  41.282  36.045   7.992
    3AU     AUC 1159  41.233  35.419   7.018
    3AU     AUC 1160  41.238  35.719   7.006
    3AU     AUC 1161  41.242  36.027   7.006
    3AU     AUC 1162  41.516  35.576   7.900
    3AU     AUC 1163  41.524  35.883   7.899
    3AU     AUC 1164  41.483  35.569   7.095
    3AU     AUC 1165  41.494  35.877   7.093
    3AU     AUC 1166  41.011  35.595   7.917
    3AU     AUC 1167  41.026  35.900   7.915
    3AU     AUC 1168  40.993  35.571   7.113
    3AU     AUC 1169  40.993  35.880   7.106
    3AU     AUC 1170  41.658  35.971   7.335
    3AU     AUC 1171  41.670  35.972   7.642
    3AU     AUC 1172  40.849  35.985   7.355
    3AU     AUC 1173  40.864  35.998   7.666
    3AU     AUC 1174  41.641  35.468   7.335
    3AU     AUC 1175  41.658  35.474   7.642
    3AU     AUC 1176  40.846  35.484   7.368
    3AU     AUC 1177  40.847  35.500   7.670
    3AU     AUC 1178  41.122  36.145   7.753
    3AU     AUC 1179  41.428  36.136   7.744
    3AU     AUC 1180  41.094  35.343   7.768
    3AU     AUC 1181  41.411  35.332   7.759
    3AU     AUC 1182  41.101  36.133   7.248
    3AU     AUC 1183  41.409  36.129   7.242
    3AU     AUC 1184  41.087  35.323   7.277
    3AU     AUC 1185  41.390  35.318   7.261
    3AU    AUSL 1186  41.697  35.692   8.074
    3AU    AUSL 1187  41.565  35.307   8.053
    3AU     AUL 1188  41.972  35.501   8.189
    3AU       S 1189  41.825  35.036   8.334
    3AU     LIG 1190  41.677  34.651   8.531
    3AU     LIG 1191  41.764  34.258   8.726
    3AU     LIG 1192  42.039  34.010   8.977
    3AU     LIG 1193  42.279  33.687   9.182
    3AU     LIG 1194  42.554  33.532   9.528
    3AU     LIG 1195  42.542  33.310   9.944
    3AU       S 1196  41.753  35.581   8.661
    3AU     LIG 1197  42.173  35.409   8.801
    3AU     LIG 1198  42.504  35.245   9.101
    3AU     LIG 1199  42.772  35.223   9.495
    3AU     LIG 1200  42.933  35.365   9.915
    3AU     LIG 1201  43.099  35.551  10.308
    3AU     LIG 1202  43.143  35.559  10.773
    3AU    AUSL 1203  41.416  35.561   8.214
    3AU    AUSL 1204  41.137  35.893   8.197
    3AU     AUL 1205  41.233  35.730   8.503
    3AU       S 1206  41.602  35.407   8.595
    3AU     LIG 1207  41.795  35.055   8.851
    3AU     LIG 1208  41.818  34.826   9.268
    3AU     LIG 1209  41.798  34.774   9.749
    3AU     LIG 1210  41.824  34.826  10.222
    3AU     LIG 1211  41.871  34.669  10.668
    3AU     LIG 1212  42.213  34.550  10.985
    3AU       S 1213  40.763  35.934   8.656
    3AU     LIG 1214  40.595  35.909   9.106
    3AU     LIG 1215  40.568  35.631   9.504
    3AU     LIG 1216  40.430  35.578   9.952
    3AU     LIG 1217  40.388  35.862  10.350
    3AU     LIG 1218  40.371  36.142  10.749
    3AU     LIG 1219  40.181  36.339  11.154
    3AU    AUSL 1220  41.471  35.902   8.207
    3AU    AUSL 1221  41.822  35.991   7.945
    3AU     AUL 1222  41.884  35.831   8.255
    3AU       S 1223  41.650  35.940   8.681
    3AU     LIG 1224  41.737  36.317   8.980
    3AU     LIG 1225  41.933  36.495   9.384
    3AU     LIG 1226  41.966  36.532   9.875
    3AU     LIG 1227  41.925  36.711  10.329
    3AU     LIG 1228  41.964  36.717  10.812
    3AU     LIG 1229  42.090  36.538  11.233
    3AU       S 1230  42.211  36.188   8.159
    3AU     LIG 1231  42.571  36.089   8.418
    3AU     LIG 1232  42.723  36.188   8.845
    3AU     LIG 1233  42.985  36.357   9.208
    3AU     LIG 1234  43.346  36.372   9.537
    3AU     LIG 1235  43.682  36.573   9.803
    3AU     LIG 1236  43.983  36.909   9.910
    3AU    AUSL 1237  41.676  35.769   6.893
    3AU    AUSL 1238  41.529  36.124   6.940
    3AU     AUL 1239  41.593  36.066   6.592
    3AU       S 1240  41.788  35.629   6.374
    3AU     LIG 1241  41.954  35.261   6.137
    3AU     LIG 1242  42.058  35.163   5.690
    3AU     LIG 1243  42.249  35.281   5.271
    3AU     LIG 1244  42.639  35.418   5.008
    3AU     LIG 1245  43.067  35.509   4.784
    3AU     LIG 1246  43.406  35.565   4.435
    3AU       S 1247  42.020  36.317   6.685
    3AU     LIG 1248  42.368  36.377   6.369
    3AU     LIG 1249  42.615  36.600   6.021
    3AU     LIG 1250  42.643  36.842   5.591
    3AU     LIG 1251  42.651  37.205   5.257
    3AU     LIG 1252  42.942  37.533   5.054
    3AU     LIG 1253  43.197  37.670   4.669
    3AU    AUSL 1254  41.438  35.545   6.801
    3AU    AUSL 1255  41.722  35.454   7.024
    3AU     AUL 1256  41.932  35.583   6.843
    3AU       S 1257  41.881  35.123   6.633
    3AU     LIG 1258  42.178  34.844   6.382
    3AU     LIG 1259  42.387  34.412   6.290
    3AU     LIG 1260  42.634  34.049   6.079
    3AU     LIG 1261  42.925  33.872   5.722
    3AU     LIG 1262  43.252  33.865   5.344
    3AU     LIG 1263  43.548  34.039   4.989
    3AU       S 1264  41.527  35.411   6.426
    3AU     LIG 1265  41.473  35.094   6.126
    3AU     LIG 1266  41.544  35.080   5.661
    3AU     LIG 1267  41.768  35.071   5.224
    3AU     LIG 1268  41.865  35.088   4.747
    3AU     LIG 1269  41.882  34.921   4.282
    3AU     LIG 1270  42.070  34.818   3.845
    3AU    AUSL 1271  41.369  35.867   6.807
    3AU    AUSL 1272  41.095  35.552   6.789
    3AU     AUL 1273  41.253  35.901   6.543
    3AU       S 1274  41.052  35.303   6.420
    3AU     LIG 1275  40.971  35.085   6.016
    3AU     LIG 1276  40.745  35.021   5.605
    3AU     LIG 1277  40.438  34.893   5.253
    3AU     LIG 1278  40.250  34.658   4.879
    3AU     LIG 1279  40.297  34.483   4.428
    3AU     LIG 1280  40.267  34.629   3.972
    3AU       S 1281  41.563  35.550   6.408
    3AU     LIG 1282  41.589  35.543   5.910
    3AU     LIG 1283  41.763  35.526   5.462
    3AU     LIG 1284  41.900  35.546   5.000
    3AU     LIG 1285  41.976  35.652   4.541
    3AU     LIG 1286  41.988  35.906   4.123
    3AU     LIG 1287  42.118  36.162   3.732
    3AU    AUSL 1288  40.839  35.777   8.128
    3AU    AUSL 1289  41.015  36.178   8.066
    3AU     AUL 1290  41.152  36.093   8.386
    3AU       S 1291  40.597  35.822   8.493
    3AU     LIG 1292  40.280  35.639   8.809
    3AU     LIG 1293  40.186  35.421   9.234
    3AU     LIG 1294  40.044  35.302   9.689
    3AU     LIG 1295  39.691  35.213  10.038
    3AU     LIG 1296  39.325  35.317  10.376
    3AU     LIG 1297  38.924  35.347  10.680
    3AU       S 1298  40.723  36.349   8.404
    3AU     LIG 1299  40.723  36.471   8.845
    3AU     LIG 1300  40.510  36.807   9.093
    3AU     LIG 1301  40.208  36.966   9.421
    3AU     LIG 1302  40.164  37.261   9.804
    3AU     LIG 1303  40.011  37.412  10.236
    3AU     LIG 1304  39.794  37.600  10.617
    3AU    AUSL 1305  41.083  35.558   8.215
    3AU    AUSL 1306  40.714  35.506   7.967
    3AU     AUL 1307  40.764  35.390   8.287
    3AU       S 1308  40.420  35.026   8.128
    3AU     LIG 1309  40.026  34.802   8.119
    3AU     LIG 1310  39.641  34.616   8.317
    3AU     LIG 1311  39.341  34.374   8.599
    3AU     LIG 1312  39.094  34.100   8.909
    3AU     LIG 1313  38.729  33.999   9.205
    3AU     LIG 1314  38.314  34.080   9.455
    3AU       S 1315  40.777  35.669   8.694
    3AU     LIG 1316  40.678  35.388   9.045
    3AU     LIG 1317  40.575  35.119   9.414
    3AU     LIG 1318  40.464  35.045   9.856
    3AU     LIG 1319  40.248  34.786  10.185
    3AU     LIG 1320  40.199  34.579  10.606
    3AU     LIG 1321  40.115  34.587  11.070
    3AU    AUSL 1322  40.807  35.685   6.932
    3AU    AUSL 1323  40.961  35.300   6.965
    3AU     AUL 1324  40.676  35.444   6.764
    3AU       S 1325  40.823  35.569   6.310
    3AU     LIG 1326  40.575  35.408   5.934
    3AU     LIG 1327  40.304  35.302   5.547
    3AU     LIG 1328  39.942  35.111   5.271
    3AU     LIG 1329  39.552  35.203   4.989
    3AU     LIG 1330  39.191  35.263   4.681
    3AU     LIG 1331  39.133  35.462   4.256
    3AU       S 1332  40.589  34.936   6.809
    3AU     LIG 1333  40.383  34.508   6.819
    3AU     LIG 1334  40.070  34.269   6.574
    3AU     LIG 1335  39.752  34.158   6.243
    3AU     LIG 1336  39.592  33.860   5.906
    3AU     LIG 1337  39.674  33.634   5.481
    3AU     LIG 1338  39.607  33.401   5.066
    3AU    AUSL 1339  41.038  35.883   6.813
    3AU    AUSL 1340  40.711  35.986   7.055
    3AU     AUL 1341  40.645  35.843   6.703
    3AU       S 1342  40.462  36.302   6.704
    3AU     LIG 1343  40.081  36.410   6.456
    3AU     LIG 1344  39.910  36.406   6.019
    3AU     LIG 1345  39.815  36.626   5.619
    3AU     LIG 1346  39.508  36.829   5.319
    3AU     LIG 1347  39.285  37.039   4.951
    3AU     LIG 1348  38.867  37.210   4.808
    3AU       S 1349  41.028  35.512   6.379
    3AU     LIG 1350  41.074  35.560   5.879
    3AU     LIG 1351  40.805  35.523   5.474
    3AU     LIG 1352  40.639  35.627   5.029
    3AU     LIG 1353  40.519  35.900   4.634
    3AU     LIG 1354  40.258  36.142   4.295
    3AU     LIG 1355  40.103  36.288   3.864
    3AU    AUSL 1356  41.860  36.139   7.453
    3AU    AUSL 1357  41.819  36.007   7.088
    3AU     AUL 1358  41.944  36.441   7.308
    3AU       S 1359  42.161  36.054   6.809
    3AU     LIG 1360  42.581  35.971   6.605
    3AU     LIG 1361  42.879  36.175   6.306
    3AU     LIG 1362  43.111  36.445   5.980
    3AU     LIG 1363  43.402  36.577   5.604
    3AU     LIG 1364  43.797  36.767   5.376
    3AU     LIG 1365  44.019  37.060   5.057
    3AU       S 1366  42.410  36.199   7.407
    3AU     LIG 1367  42.909  36.148   7.535
    3AU     LIG 1368  43.395  36.236   7.571
    3AU     LIG 1369  43.828  36.446   7.563
    3AU     LIG 1370  44.097  36.869   7.553
    3AU     LIG 1371  44.304  37.285   7.713
    3AU     LIG 1372  44.674  37.583   7.841
    3AU    AUSL 1373  41.973  35.839   7.327
    3AU    AUSL 1374  41.964  35.571   7.613
    3AU     AUL 1375  42.263  35.559   7.361
    3AU       S 1376  42.383  36.033   7.262
    3AU     LIG 1377  42.814  35.993   7.065
    3AU     LIG 1378  43.288  36.094   7.082
    3AU     LIG 1379  43.712  35.845   7.034
    3AU     LIG 1380  44.228  35.863   6.979
    3AU     LIG 1381  44.716  35.996   7.023
    3AU     LIG 1382  44.973  36.413   7.045
    3AU       S 1383  42.342  35.101   7.654
    3AU     LIG 1384  42.796  35.032   7.760
    3AU     LIG 1385  43.081  34.707   7.896
    3AU     LIG 1386  43.479  34.503   8.001
    3AU     LIG 1387  43.891  34.517   7.804
    3AU     LIG 1388  44.340  34.626   7.911
    3AU     LIG 1389  44.671  34.547   8.229
    3AU    AUSL 1390  41.969  35.900   7.664
    3AU    AUSL 1391  41.712  36.234   7.743
    3AU     AUL 1392  42.008  36.304   7.703
    3AU       S 1393  42.045  36.332   8.196
    3AU     LIG 1394  42.382  36.575   8.461
    3AU     LIG 1395  42.731  36.701   8.758
    3AU     LIG 1396  43.000  37.049   8.936
    3AU     LIG 1397  43.233  37.478   8.876
    3AU     LIG 1398  43.432  37.922   8.933
    3AU     LIG 1399  43.684  38.231   9.198
    3AU       S 1400  42.412  35.986   7.645
    3AU     LIG 1401  42.763  35.872   7.947
    3AU     LIG 1402  43.230  35.925   7.943
    3AU     LIG 1403  43.700  35.849   7.913
    3AU     LIG 1404  44.204  35.910   7.926
    3AU     LIG 1405  44.646  36.078   8.031
    3AU     LIG 1406   0.018  36.281   8.250
    3AU    AUSL 1407  40.666  36.195   7.527
    3AU    AUSL 1408  40.727  36.032   7.939
    3AU     AUL 1409  40.585  36.455   7.780
    3AU       S 1410  40.445  36.177   8.217
    3AU     LIG 1411  40.314  36.201   8.686
    3AU     LIG 1412  40.125  36.480   9.006
    3AU     LIG 1413  39.742  36.593   9.272
    3AU     LIG 1414  39.368  36.790   9.488
    3AU     LIG 1415  39.013  37.002   9.727
    3AU     LIG 1416  38.618  37.181   9.926
    3AU       S 1417  40.138  36.350   7.565
    3AU     LIG 1418  39.936  36.797   7.484
    3AU     LIG 1419  39.717  37.255   7.471
    3AU     LIG 1420  39.328  37.559   7.504
    3AU     LIG 1421  38.883  37.681   7.644
    3AU     LIG 1422  38.463  37.812   7.869
    3AU     LIG 1423  37.976  37.844   7.901
    3AU    AUSL 1424  40.549  35.922   7.347
    3AU    AUSL 1425  40.812  36.263   7.233
    3AU     AUL 1426  40.486  36.247   7.212
    3AU       S 1427  40.023  36.113   7.349
    3AU     LIG 1428  39.826  36.320   6.963
    3AU     LIG 1429  39.429  36.488   6.741
    3AU     LIG 1430  38.985  36.676   6.700
    3AU     LIG 1431  38.543  36.891   6.717
    3AU     LIG 1432  38.087  36.858   6.877
    3AU     LIG 1433  37.608  36.794   6.905
    3AU       S 1434  40.540  36.541   6.799
    3AU     LIG 1435  40.358  36.870   6.510
    3AU     LIG 1436  40.380  37.214   6.181
    3AU     LIG 1437  40.132  37.506   5.902
    3AU     LIG 1438  39.897  37.916   5.906
    3AU     LIG 1439  39.530  38.213   5.978
    3AU     LIG 1440  39.046  38.204   5.900
    3AU    AUSL 1441  40.553  35.917   7.690
    3AU    AUSL 1442  40.516  35.593   7.354
    3AU     AUL 1443  40.273  35.748   7.566
    3AU       S 1444  40.103  35.256   7.326
    3AU     LIG 1445  39.647  35.369   7.589
    3AU     LIG 1446  39.176  35.514   7.689
    3AU     LIG 1447  38.701  35.539   7.508
    3AU     LIG 1448  38.274  35.397   7.333
    3AU     LIG 1449  37.863  35.144   7.276
    3AU     LIG 1450  37.624  34.751   7.178
    3AU       S 1451  40.147  36.153   7.815
    3AU     LIG 1452  39.724  36.248   7.939
    3AU     LIG 1453  39.360  36.349   8.225
    3AU     LIG 1454  39.054  36.643   8.393
    3AU     LIG 1455  38.587  36.663   8.415
    3AU     LIG 1456  38.172  36.830   8.313
    3AU     LIG 1457  37.741  36.853   8.099
    3AU    AUSL 1458  41.856  35.272   7.506
    3AU    AUSL 1459  41.812  35.446   7.879
    3AU     AUL 1460  42.146  35.504   7.839
    3AU       S 1461  42.085  34.894   7.493
    3AU     LIG 1462  42.466  34.618   7.641
    3AU     LIG 1463  42.851  34.344   7.607
    3AU     LIG 1464  43.329  34.333   7.543
    3AU     LIG 1465  43.727  34.063   7.593
    3AU     LIG 1466  44.031  33.707   7.740
    3AU     LIG 1467  44.258  33.338   7.968
    3AU       S 1468  41.999  35.023   8.130
    3AU     LIG 1469  42.201  34.740   8.472
    3AU     LIG 1470  42.272  34.298   8.610
    3AU     LIG 1471  42.545  33.979   8.833
    3AU     LIG 1472  42.812  33.779   9.154
    3AU     LIG 1473  43.184  33.810   9.456
    3AU     LIG 1474  43.536  33.924   9.766
    3AU    AUSL 1475  41.911  35.518   7.289
    3AU    AUSL 1476  41.677  35.182   7.225
    3AU     AUL 1477  42.042  35.301   7.112
    3AU       S 1478  42.187  35.066   7.514
    3AU     LIG 1479  42.634  34.958   7.280
    3AU     LIG 1480  43.048  34.750   7.380
    3AU     LIG 1481  43.485  34.703   7.212
    3AU     LIG 1482  43.918  34.477   7.278
    3AU     LIG 1483  44.403  34.522   7.166
    3AU     LIG 1484  44.777  34.571   6.860
    3AU       S 1485  41.896  34.899   6.840
    3AU     LIG 1486  42.030  34.468   6.701
    3AU     LIG 1487  42.184  34.036   6.583
    3AU     LIG 1488  42.380  33.676   6.363
    3AU     LIG 1489  42.668  33.308   6.336
    3AU     LIG 1490  43.070  33.055   6.237
    3AU     LIG 1491  43.400  32.744   6.099
    3AU    AUSL 1492  40.643  35.322   7.482
    3AU    AUSL 1493  40.704  35.441   7.130
    3AU     AUL 1494  40.417  35.571   7.072
    3AU       S 1495  40.402  35.053   6.969
    3AU     LIG 1496  40.020  34.867   6.767
    3AU     LIG 1497  39.681  34.609   6.560
    3AU     LIG 1498  39.303  34.396   6.377
    3AU     LIG 1499  38.947  34.175   6.148
    3AU     LIG 1500  38.670  34.186   5.757
    3AU     LIG 1501  38.732  34.116   5.289
    3AU       S 1502  40.292  35.152   7.439
    3AU     LIG 1503  39.882  34.906   7.628
    3AU     LIG 1504  39.396  34.913   7.603
    3AU     LIG 1505  38.962  34.696   7.598
    3AU     LIG 1506  38.506  34.522   7.681
    3AU     LIG 1507  38.185  34.157   7.817
    3AU     LIG 1508  37.876  33.756   7.759
    3AU    AUSL 1509  40.578  35.587   7.678
    3AU    AUSL 1510  40.771  35.221   7.777
    3AU     AUL 1511  40.405  35.437   7.849
    3AU       S 1512  40.504  34.892   7.798
    3AU     LIG 1513  40.243  34.550   7.718
    3AU     LIG 1514  39.845  34.376   7.886
    3AU     LIG 1515  39.597  34.115   8.202
    3AU     LIG 1516  39.343  33.860   8.516
    3AU     LIG 1517  39.115  33.552   8.810
    3AU     LIG 1518  38.942  33.092   8.797
    3AU       S 1519  40.132  35.301   7.438
    3AU     LIG 1520  39.780  35.591   7.158
    3AU     LIG 1521  39.315  35.531   7.194
    3AU     LIG 1522  39.006  35.174   7.336
    3AU     LIG 1523  38.592  35.040   7.555
    3AU     LIG 1524  38.151  35.028   7.694
    3AU     LIG 1525  37.702  34.865   7.686
    3AU    AUSL 1526  41.280  36.346   7.935
    3AU    AUSL 1527  40.876  36.275   7.776
    3AU     AUL 1528  40.947  36.548   7.963
    3AU       S 1529  40.608  36.376   8.284
    3AU     LIG 1530  40.391  36.716   8.548
    3AU     LIG 1531  40.494  37.154   8.703
    3AU     LIG 1532  40.303  37.537   8.856
    3AU     LIG 1533  40.032  37.775   9.154
    3AU     LIG 1534  39.645  37.807   9.423
    3AU     LIG 1535  39.223  38.022   9.480
    3AU       S 1536  41.334  36.839   8.090
    3AU     LIG 1537  41.508  37.062   8.446
    3AU     LIG 1538  41.373  37.467   8.592
    3AU     LIG 1539  41.396  37.880   8.717
    3AU     LIG 1540  41.419  38.251   8.996
    3AU     LIG 1541  41.524  38.502   9.394
    3AU     LIG 1542  41.631  38.877   9.673
    3AU    AUSL 1543  41.124  36.451   7.647
    3AU    AUSL 1544  41.415  36.460   7.329
    3AU     AUL 1545  40.959  36.686   7.445
    3AU       S 1546  41.230  36.944   7.802
    3AU     LIG 1547  41.244  37.337   8.102
    3AU     LIG 1548  41.432  37.784   8.170
    3AU     LIG 1549  41.293  38.215   8.348
    3AU     LIG 1550  41.070  38.638   8.365
    3AU     LIG 1551  40.932  39.079   8.204
    3AU     LIG 1552  40.766  39.518   8.320
    3AU       S 1553  41.561  36.859   7.268
    3AU     LIG 1554  41.766  37.183   7.024
    3AU     LIG 1555  41.686  37.595   6.819
    3AU     LIG 1556  41.796  38.011   6.627
    3AU     LIG 1557  42.040  38.433   6.589
    3AU     LIG 1558  42.117  38.906   6.512
    3AU     LIG 1559  42.011  39.370   6.416
    3AU    AUSL 1560  41.460  36.431   7.653
    3AU    AUSL 1561  41.544  36.171   8.033
    3AU     AUL 1562  41.657  36.506   7.922
    3AU       S 1563  41.845  36.311   8.343
    3AU     LIG 1564  42.146  36.202   8.703
    3AU     LIG 1565  42.341  36.484   9.029
    3AU     LIG 1566  42.652  36.759   9.281
    3AU     LIG 1567  42.767  36.998   9.695
    3AU     LIG 1568  42.781  37.303  10.086
    3AU     LIG 1569  42.894  37.694  10.352
    3AU       S 1570  41.447  36.917   7.740
    3AU     LIG 1571  41.720  37.205   7.995
    3AU     LIG 1572  41.831  37.527   8.333
    3AU     LIG 1573  41.815  38.012   8.435
    3AU     LIG 1574  41.953  38.482   8.431
    3AU     LIG 1575  42.144  38.941   8.427
    3AU     LIG 1576  42.275  39.419   8.415
    3AU    AUSL 1577  41.272  35.156   7.987
    3AU    AUSL 1578  41.672  35.165   7.758
    3AU     AUL 1579  41.500  34.910   7.983
    3AU       S 1580  41.113  34.619   8.126
    3AU     LIG 1581  40.922  34.219   8.249
    3AU     LIG 1582  41.004  33.772   8.286
    3AU     LIG 1583  40.998  33.335   8.472
    3AU     LIG 1584  40.831  32.987   8.761
    3AU     LIG 1585  40.776  32.759   9.190
    3AU     LIG 1586  40.811  32.433   9.542
    3AU       S 1587  41.999  34.896   7.978
    3AU     LIG 1588  41.940  34.439   8.145
    3AU     LIG 1589  41.954  33.995   8.332
    3AU     LIG 1590  42.208  33.678   8.603
    3AU     LIG 1591  42.544  33.411   8.836
    3AU     LIG 1592  42.949  33.171   8.926
    3AU     LIG 1593  43.313  32.859   8.785
    3AU    AUSL 1594  41.055  35.044   7.741
    3AU    AUSL 1595  40.988  35.321   8.004
    3AU     AUL 1596  40.982  35.099   8.168
    3AU       S 1597  40.910  34.630   7.911
    3AU     LIG 1598  40.681  34.283   7.782
    3AU     LIG 1599  40.727  33.840   7.810
    3AU     LIG 1600  40.728  33.410   8.027
    3AU     LIG 1601  40.644  32.985   8.262
    3AU     LIG 1602  40.454  32.531   8.365
    3AU     LIG 1603  40.274  32.061   8.422
    3AU       S 1604  40.561  34.951   7.963
    3AU     LIG 1605  40.466  34.525   8.182
    3AU     LIG 1606  40.071  34.319   8.359
    3AU     LIG 1607  39.779  34.117   8.688
    3AU     LIG 1608  39.536  33.838   8.995
    3AU     LIG 1609  39.401  33.595   9.379
    3AU     LIG 1610  39.378  33.430   9.831
    3AU    AUSL 1611  41.373  35.060   7.680
    3AU    AUSL 1612  41.083  34.994   7.409
    3AU     AUL 1613  41.435  34.788   7.614
    3AU       S 1614  40.796  34.654   7.435
    3AU     LIG 1615  40.502  34.343   7.306
    3AU     LIG 1616  40.532  33.893   7.194
    3AU     LIG 1617  40.597  33.450   7.014
    3AU     LIG 1618  40.606  32.995   6.817
    3AU     LIG 1619  40.403  32.519   6.798
    3AU     LIG 1620  40.190  32.050   6.849
    3AU       S 1621  41.037  34.667   7.858
    3AU     LIG 1622  41.186  34.218   7.817
    3AU     LIG 1623  41.226  33.770   7.823
    3AU     LIG 1624  41.244  33.354   8.013
    3AU     LIG 1625  41.485  32.976   8.178
    3AU     LIG 1626  41.803  32.597   8.221
    3AU     LIG 1627  41.912  32.123   8.297
    3AU    AUSL 1628  41.276  36.323   7.045
    3AU    AUSL 1629  41.659  36.264   7.218
    3AU     AUL 1630  41.588  36.461   6.937
    3AU       S 1631  41.330  36.880   6.959
    3AU     LIG 1632  41.414  37.188   6.635
    3AU     LIG 1633  41.386  37.571   6.389
    3AU     LIG 1634  41.379  37.853   6.032
    3AU     LIG 1635  41.600  38.041   5.664
    3AU     LIG 1636  41.678  38.376   5.347
    3AU     LIG 1637  41.574  38.782   5.131
    3AU       S 1638  42.078  36.214   6.900
    3AU     LIG 1639  42.523  36.409   6.867
    3AU     LIG 1640  42.793  36.633   6.527
    3AU     LIG 1641  42.981  36.942   6.206
    3AU     LIG 1642  43.175  37.392   6.133
    3AU     LIG 1643  43.360  37.843   6.072
    3AU     LIG 1644  43.638  38.227   5.997
    3AU    AUSL 1645  41.096  36.402   7.321
    3AU    AUSL 1646  40.990  36.174   6.960
    3AU     AUL 1647  40.965  36.546   7.055
    3AU       S 1648  41.361  36.865   7.236
    3AU     LIG 1649  41.294  37.356   7.114
    3AU     LIG 1650  41.175  37.726   6.828
    3AU     LIG 1651  41.127  38.125   6.592
    3AU     LIG 1652  40.927  38.504   6.385
    3AU     LIG 1653  40.783  38.945   6.511
    3AU     LIG 1654  40.644  39.422   6.494
    3AU       S 1655  40.778  36.361   6.612
    3AU     LIG 1656  40.545  36.496   6.221
    3AU     LIG 1657  40.283  36.760   5.925
    3AU     LIG 1658  40.218  36.937   5.480
    3AU     LIG 1659  40.230  37.199   5.081
    3AU     LIG 1660  39.983  37.452   4.754
    3AU     LIG 1661  39.778  37.888   4.677
    3AU    AUSL 1662  41.199  35.135   7.131
    3AU    AUSL 1663  40.845  35.168   7.259
    3AU     AUL 1664  41.069  34.959   6.956
    3AU       S 1665  40.548  34.903   7.107
    3AU     LIG 1666  40.147  34.705   7.235
    3AU     LIG 1667  39.856  34.416   7.020
    3AU     LIG 1668  39.585  34.127   6.734
    3AU     LIG 1669  39.334  33.881   6.392
    3AU     LIG 1670  39.020  33.592   6.179
    3AU     LIG 1671  38.783  33.215   5.983
    3AU       S 1672  40.947  34.650   7.314
    3AU     LIG 1673  40.858  34.329   6.946
    3AU     LIG 1674  40.873  33.859   6.809
    3AU     LIG 1675  40.844  33.438   6.561
    3AU     LIG 1676  40.876  33.110   6.210
    3AU     LIG 1677  40.978  32.937   5.762
    3AU     LIG 1678  41.084  32.605   5.438
    3AU    AUSL 1679  41.417  35.026   7.357
    3AU    AUSL 1680  41.459  35.250   6.963
    3AU     AUL 1681  41.453  34.870   7.080
    3AU       S 1682  41.099  34.564   7.341
    3AU     LIG 1683  40.966  34.104   7.385
    3AU     LIG 1684  41.015  33.653   7.281
    3AU     LIG 1685  41.086  33.258   6.994
    3AU     LIG 1686  41.327  32.850   6.834
    3AU     LIG 1687  41.693  32.498   6.787
    3AU     LIG 1688  41.922  32.062   6.710
    3AU       S 1689  41.653  35.009   6.640
    3AU     LIG 1690  41.699  34.674   6.348
    3AU     LIG 1691  41.897  34.271   6.222
    3AU     LIG 1692  42.136  33.939   5.978
    3AU     LIG 1693  42.199  33.646   5.584
    3AU     LIG 1694  42.362  33.500   5.151
    3AU     LIG 1695  42.758  33.368   4.921
    4AU     AUC 1696  26.134  31.168   7.502
    4AU     AUC 1697  26.379  31.161   7.339
    4AU     AUC 1698  26.390  31.164   7.648
    4AU     AUC 1699  25.878  31.174   7.353
    4AU     AUC 1700  25.889  31.180   7.663
    4AU     AUC 1701  25.988  31.422   7.502
    4AU     AUC 1702  26.294  31.415   7.494
    4AU     AUC 1703  25.971  30.920   7.511
    4AU     AUC 1704  26.284  30.914   7.500
    4AU     AUC 1705  26.139  31.018   7.755
    4AU     AUC 1706  26.147  31.327   7.751
    4AU     AUC 1707  26.123  31.012   7.251
    4AU     AUC 1708  26.131  31.321   7.249
    4AU     AUC 1709  26.617  31.155   7.180
    4AU     AUC 1710  26.632  31.152   7.485
    4AU     AUC 1711  26.638  31.156   7.788
    4AU     AUC 1712  25.633  31.176   7.209
    4AU     AUC 1713  25.635  31.188   7.509
    4AU     AUC 1714  25.649  31.194   7.817
    4AU     AUC 1715  25.847  31.670   7.502
    4AU     AUC 1716  26.151  31.666   7.496
    4AU     AUC 1717  26.450  31.654   7.488
    4AU     AUC 1718  25.817  30.684   7.520
    4AU     AUC 1719  26.117  30.672   7.520
    4AU     AUC 1720  26.426  30.669   7.499
    4AU     AUC 1721  26.139  30.871   7.997
    4AU     AUC 1722  26.145  31.170   8.000
    4AU     AUC 1723  26.160  31.477   7.992
    4AU     AUC 1724  26.114  30.858   7.013
    4AU     AUC 1725  26.122  31.158   7.002
    4AU     AUC 1726  26.128  31.467   7.004
    4AU     AUC 1727  26.390  31.009   7.898
    4AU     AUC 1728  26.401  31.313   7.900
    4AU     AUC 1729  26.365  31.006   7.092
    4AU     AUC 1730  26.378  31.314   7.092
    4AU     AUC 1731  25.886  31.031   7.910
    4AU     AUC 1732  25.901  31.336   7.910
    4AU     AUC 1733  25.874  31.013   7.106
    4AU     AUC 1734  25.877  31.320   7.101
    4AU     AUC 1735  26.539  31.405   7.336
    4AU     AUC 1736  26.551  31.403   7.643
    4AU     AUC 1737  25.732  31.425   7.350
    4AU     AUC 1738  25.745  31.436   7.661
    4AU     AUC 1739  26.520  30.902   7.333
    4AU     AUC 1740  26.535  30.907   7.640
    4AU     AUC 1741  25.725  30.925   7.359
    4AU     AUC 1742  25.724  30.938   7.661
    4AU     AUC 1743  26.005  31.581   7.751
    4AU     AUC 1744  26.311  31.568   7.745
    4AU     AUC 1745  25.970  30.778   7.760
    4AU     AUC 1746  26.286  30.766   7.755
    4AU     AUC 1747  25.986  31.572   7.246
    4AU     AUC 1748  26.292  31.566   7.242
    4AU     AUC 1749  25.965  30.763   7.269
    4AU     AUC 1750  26.269  30.755   7.256
    4AU    AUSL 1751  26.565  31.122   8.074
    4AU    AUSL 1752  26.440  30.742   8.049
    4AU     AUL 1753  26.843  30.957   8.190
    4AU       S 1754  26.720  30.472   8.326
    4AU     LIG 1755  26.746  30.052   8.539
    4AU     LIG 1756  26.799  29.628   8.746
    4AU     LIG 1757  26.975  29.229   8.930
    4AU     LIG 1758  27.170  29.003   9.288
    4AU     LIG 1759  27.152  28.969   9.770
    4AU     LIG 1760  27.273  28.836  10.213
    4AU       S 1761  26.617  30.961   8.658
    4AU     LIG 1762  26.889  30.892   9.034
    4AU     LIG 1763  27.051  30.634   9.408
    4AU     LIG 1764  27.188  30.452   9.827
    4AU     LIG 1765  27.442  30.480  10.221
    4AU     LIG 1766  27.869  30.539  10.425
    4AU     LIG 1767  28.241  30.585  10.728
    4AU    AUSL 1768  26.283  30.989   8.212
    4AU    AUSL 1769  26.005  31.328   8.192
    4AU     AUL 1770  26.105  31.175   8.493
    4AU       S 1771  26.442  30.814   8.590
    4AU     LIG 1772  26.648  30.473   8.851
    4AU     LIG 1773  26.666  30.311   9.295
    4AU     LIG 1774  26.688  30.325   9.776
    4AU     LIG 1775  26.817  30.207  10.228
    4AU     LIG 1776  26.902  30.077  10.687
    4AU     LIG 1777  26.828  30.073  11.163
    4AU       S 1778  25.630  31.341   8.653
    4AU     LIG 1779  25.510  31.323   9.123
    4AU     LIG 1780  25.502  31.057   9.512
    4AU     LIG 1781  25.363  30.958   9.944
    4AU     LIG 1782  25.314  31.191  10.363
    4AU     LIG 1783  25.259  31.470  10.753
    4AU     LIG 1784  25.117  31.709  11.134
    4AU    AUSL 1785  26.335  31.331   8.211
    4AU    AUSL 1786  26.707  31.414   7.946
    4AU     AUL 1787  26.706  31.272   8.285
    4AU       S 1788  26.511  31.322   8.734
    4AU     LIG 1789  26.588  31.722   9.000
    4AU     LIG 1790  26.789  31.910   9.396
    4AU     LIG 1791  26.770  31.965   9.877
    4AU     LIG 1792  26.849  31.994  10.343
    4AU     LIG 1793  26.725  32.048  10.789
    4AU     LIG 1794  26.756  31.867  11.215
    4AU       S 1795  27.096  31.554   8.141
    4AU     LIG 1796  27.396  31.481   8.455
    4AU     LIG 1797  27.574  31.730   8.786
    4AU     LIG 1798  27.809  32.008   9.065
    4AU     LIG 1799  28.065  32.145   9.429
    4AU     LIG 1800  28.345  32.316   9.774
    4AU     LIG 1801  28.724  32.555   9.951
    4AU    AUSL 1802  26.562  31.204   6.894
    4AU    AUSL 1803  26.413  31.564   6.938
    4AU     AUL 1804  26.488  31.489   6.587
    4AU       S 1805  26.669  31.042   6.372
    4AU     LIG 1806  26.851  30.697   6.114
    4AU     LIG 1807  27.080  30.560   5.717
    4AU     LIG 1808  27.289  30.593   5.289
    4AU     LIG 1809  27.707  30.611   5.040
    4AU     LIG 1810  28.024  30.669   4.685
    4AU     LIG 1811  28.096  30.891   4.259
    4AU       S 1812  26.890  31.768   6.691
    4AU     LIG 1813  27.177  31.902   6.360
    4AU     LIG 1814  27.393  32.173   6.023
    4AU     LIG 1815  27.529  32.271   5.561
    4AU     LIG 1816  27.591  32.531   5.154
    4AU     LIG 1817  27.781  32.929   4.984
    4AU     LIG 1818  27.976  33.185   4.641
    4AU    AUSL 1819  26.322  30.983   6.799
    4AU    AUSL 1820  26.605  30.889   7.021
    4AU     AUL 1821  26.820  31.031   6.844
    4AU       S 1822  26.763  30.572   6.631
    4AU     LIG 1823  27.052  30.299   6.392
    4AU     LIG 1824  27.247  29.879   6.327
    4AU     LIG 1825  27.421  29.517   6.094
    4AU     LIG 1826  27.750  29.479   5.747
    4AU     LIG 1827  28.117  29.541   5.443
    4AU     LIG 1828  28.404  29.458   5.070
    4AU       S 1829  26.394  30.837   6.418
    4AU     LIG 1830  26.381  30.499   6.146
    4AU     LIG 1831  26.578  30.434   5.733
    4AU     LIG 1832  26.776  30.418   5.288
    4AU     LIG 1833  26.740  30.255   4.822
    4AU     LIG 1834  26.796  30.048   4.378
    4AU     LIG 1835  26.932  30.109   3.928
    4AU    AUSL 1836  26.259  31.306   6.805
    4AU    AUSL 1837  25.977  30.993   6.783
    4AU     AUL 1838  26.143  31.332   6.534
    4AU       S 1839  25.922  30.728   6.424
    4AU     LIG 1840  25.880  30.498   6.026
    4AU     LIG 1841  25.675  30.426   5.602
    4AU     LIG 1842  25.404  30.403   5.195
    4AU     LIG 1843  25.164  30.138   4.865
    4AU     LIG 1844  25.097  29.974   4.413
    4AU     LIG 1845  24.929  30.057   3.977
    4AU       S 1846  26.452  30.969   6.421
    4AU     LIG 1847  26.440  30.947   5.916
    4AU     LIG 1848  26.725  30.889   5.526
    4AU     LIG 1849  26.875  30.887   5.062
    4AU     LIG 1850  26.853  31.087   4.606
    4AU     LIG 1851  26.961  31.251   4.158
    4AU     LIG 1852  27.105  31.529   3.795
    4AU    AUSL 1853  25.707  31.215   8.118
    4AU    AUSL 1854  25.890  31.613   8.059
    4AU     AUL 1855  26.003  31.538   8.384
    4AU       S 1856  25.457  31.257   8.479
    4AU     LIG 1857  25.145  31.145   8.817
    4AU     LIG 1858  25.069  30.963   9.252
    4AU     LIG 1859  24.950  30.759   9.673
    4AU     LIG 1860  24.574  30.649   9.976
    4AU     LIG 1861  24.255  30.660  10.351
    4AU     LIG 1862  23.977  30.828  10.712
    4AU       S 1863  25.547  31.751   8.393
    4AU     LIG 1864  25.409  31.760   8.845
    4AU     LIG 1865  25.241  32.054   9.170
    4AU     LIG 1866  25.088  32.451   9.396
    4AU     LIG 1867  24.948  32.667   9.797
    4AU     LIG 1868  24.732  32.878  10.177
    4AU     LIG 1869  24.374  33.113  10.408
    4AU    AUSL 1870  25.951  30.993   8.208
    4AU    AUSL 1871  25.591  30.942   7.958
    4AU     AUL 1872  25.631  30.824   8.274
    4AU       S 1873  25.290  30.456   8.108
    4AU     LIG 1874  24.897  30.219   8.101
    4AU     LIG 1875  24.527  30.013   8.313
    4AU     LIG 1876  24.243  29.759   8.601
    4AU     LIG 1877  23.960  29.524   8.891
    4AU     LIG 1878  23.758  29.487   9.317
    4AU     LIG 1879  23.516  29.642   9.701
    4AU       S 1880  25.650  31.087   8.689
    4AU     LIG 1881  25.517  30.810   9.037
    4AU     LIG 1882  25.379  30.566   9.421
    4AU     LIG 1883  25.336  30.429   9.868
    4AU     LIG 1884  25.305  30.130  10.245
    4AU     LIG 1885  25.091  29.999  10.657
    4AU     LIG 1886  24.941  30.125  11.085
    4AU    AUSL 1887  25.691  31.131   6.925
    4AU    AUSL 1888  25.840  30.744   6.956
    4AU     AUL 1889  25.550  30.908   6.763
    4AU       S 1890  25.694  30.952   6.302
    4AU     LIG 1891  25.427  30.741   5.969
    4AU     LIG 1892  25.166  30.541   5.622
    4AU     LIG 1893  24.846  30.546   5.261
    4AU     LIG 1894  24.429  30.647   5.034
    4AU     LIG 1895  24.211  30.830   4.662
    4AU     LIG 1896  24.010  30.789   4.229
    4AU       S 1897  25.476  30.396   6.777
    4AU     LIG 1898  25.219  29.992   6.769
    4AU     LIG 1899  24.928  29.723   6.531
    4AU     LIG 1900  24.612  29.528   6.230
    4AU     LIG 1901  24.459  29.387   5.799
    4AU     LIG 1902  24.430  29.322   5.325
    4AU     LIG 1903  24.421  29.155   4.878
    4AU    AUSL 1904  25.930  31.325   6.808
    4AU    AUSL 1905  25.591  31.430   7.049
    4AU     AUL 1906  25.574  31.298   6.667
    4AU       S 1907  25.284  31.693   6.751
    4AU     LIG 1908  24.991  31.703   6.400
    4AU     LIG 1909  24.876  31.867   5.995
    4AU     LIG 1910  24.585  31.847   5.616
    4AU     LIG 1911  24.358  32.075   5.256
    4AU     LIG 1912  23.978  32.268   5.042
    4AU     LIG 1913  23.612  32.559   4.980
    4AU       S 1914  25.907  30.951   6.367
    4AU     LIG 1915  25.885  30.971   5.847
    4AU     LIG 1916  25.546  30.907   5.487
    4AU     LIG 1917  25.373  30.922   5.038
    4AU     LIG 1918  25.362  31.164   4.602
    4AU     LIG 1919  25.297  31.451   4.201
    4AU     LIG 1920  25.158  31.745   3.830
    4AU    AUSL 1921  26.740  31.571   7.452
    4AU    AUSL 1922  26.700  31.445   7.091
    4AU     AUL 1923  26.808  31.885   7.330
    4AU       S 1924  27.035  31.516   6.822
    4AU     LIG 1925  27.463  31.583   6.664
    4AU     LIG 1926  27.692  31.845   6.325
    4AU     LIG 1927  27.875  32.031   5.913
    4AU     LIG 1928  28.162  32.114   5.543
    4AU     LIG 1929  28.564  32.161   5.286
    4AU     LIG 1930  28.900  32.400   5.057
    4AU       S 1931  27.271  31.647   7.364
    4AU     LIG 1932  27.753  31.688   7.458
    4AU     LIG 1933  28.243  31.619   7.500
    4AU     LIG 1934  28.726  31.729   7.483
    4AU     LIG 1935  29.125  32.024   7.526
    4AU     LIG 1936  29.411  32.438   7.604
    4AU     LIG 1937  29.438  32.927   7.567
    4AU    AUSL 1938  26.855  31.270   7.325
    4AU    AUSL 1939  26.840  31.001   7.614
    4AU     AUL 1940  27.142  30.985   7.371
    4AU       S 1941  27.263  31.457   7.260
    4AU     LIG 1942  27.681  31.310   7.120
    4AU     LIG 1943  28.147  31.245   7.165
    4AU     LIG 1944  28.638  31.211   7.192
    4AU     LIG 1945  29.073  31.421   7.251
    4AU     LIG 1946  29.511  31.601   7.235
    4AU     LIG 1947  29.918  31.841   7.141
    4AU       S 1948  27.213  30.521   7.654
    4AU     LIG 1949  27.650  30.392   7.781
    4AU     LIG 1950  28.068  30.190   7.831
    4AU     LIG 1951  28.518  30.040   7.874
    4AU     LIG 1952  28.971  29.937   7.911
    4AU     LIG 1953  29.418  30.084   7.950
    4AU     LIG 1954  29.867  29.970   8.073
    4AU    AUSL 1955  26.849  31.330   7.661
    4AU    AUSL 1956  26.598  31.662   7.749
    4AU     AUL 1957  26.891  31.733   7.700
    4AU       S 1958  26.953  31.732   8.183
    4AU     LIG 1959  27.281  31.987   8.418
    4AU     LIG 1960  27.493  32.266   8.738
    4AU     LIG 1961  27.679  32.715   8.782
    4AU     LIG 1962  28.004  33.061   8.753
    4AU     LIG 1963  28.346  33.363   8.892
    4AU     LIG 1964  28.662  33.618   9.153
    4AU       S 1965  27.299  31.429   7.619
    4AU     LIG 1966  27.721  31.211   7.642
    4AU     LIG 1967  28.142  31.215   7.823
    4AU     LIG 1968  28.579  31.295   7.730
    4AU     LIG 1969  29.018  31.383   7.772
    4AU     LIG 1970  29.462  31.507   7.740
    4AU     LIG 1971  29.881  31.626   7.898
    4AU    AUSL 1972  25.554  31.627   7.526
    4AU    AUSL 1973  25.605  31.473   7.924
    4AU     AUL 1974  25.455  31.890   7.749
    4AU       S 1975  25.312  31.605   8.183
    4AU     LIG 1976  25.042  31.579   8.538
    4AU     LIG 1977  24.869  31.837   8.876
    4AU     LIG 1978  24.720  32.148   9.191
    4AU     LIG 1979  24.493  32.336   9.567
    4AU     LIG 1980  24.083  32.389   9.833
    4AU     LIG 1981  23.810  32.569  10.197
    4AU       S 1982  25.008  31.730   7.549
    4AU     LIG 1983  24.682  31.993   7.745
    4AU     LIG 1984  24.397  32.321   7.566
    4AU     LIG 1985  24.084  32.686   7.531
    4AU     LIG 1986  23.713  32.936   7.654
    4AU     LIG 1987  23.399  33.232   7.605
    4AU     LIG 1988  22.990  33.288   7.536
    4AU    AUSL 1989  25.430  31.367   7.337
    4AU    AUSL 1990  25.702  31.699   7.230
    4AU     AUL 1991  25.405  31.744   7.243
    4AU       S 1992  24.952  31.528   7.273
    4AU     LIG 1993  24.757  31.621   6.854
    4AU     LIG 1994  24.372  31.858   6.775
    4AU     LIG 1995  23.977  31.908   6.581
    4AU     LIG 1996  23.519  31.949   6.586
    4AU     LIG 1997  23.056  32.067   6.637
    4AU     LIG 1998  22.597  32.039   6.776
    4AU       S 1999  25.415  31.948   6.782
    4AU     LIG 2000  25.151  32.201   6.474
    4AU     LIG 2001  25.138  32.590   6.185
    4AU     LIG 2002  25.068  33.068   6.078
    4AU     LIG 2003  24.766  33.412   5.935
    4AU     LIG 2004  24.362  33.638   5.826
    4AU     LIG 2005  24.149  33.977   5.571
    4AU    AUSL 2006  25.429  31.352   7.680
    4AU    AUSL 2007  25.397  31.037   7.346
    4AU     AUL 2008  25.151  31.179   7.561
    4AU       S 2009  24.982  30.706   7.320
    4AU     LIG 2010  24.599  30.807   7.707
    4AU     LIG 2011  24.110  30.832   7.749
    4AU     LIG 2012  23.689  30.862   7.552
    4AU     LIG 2013  23.346  30.852   7.213
    4AU     LIG 2014  22.898  30.689   7.215
    4AU     LIG 2015  22.661  30.340   7.014
    4AU       S 2016  25.010  31.587   7.792
    4AU     LIG 2017  24.698  31.633   8.139
    4AU     LIG 2018  24.396  31.941   8.333
    4AU     LIG 2019  23.920  31.989   8.223
    4AU     LIG 2020  23.437  32.033   8.239
    4AU     LIG 2021  23.045  32.311   8.122
    4AU     LIG 2022  22.581  32.431   8.213
    4AU    AUSL 2023  26.732  30.703   7.504
    4AU    AUSL 2024  26.690  30.878   7.880
    4AU     AUL 2025  27.029  30.937   7.831
    4AU       S 2026  26.946  30.321   7.492
    4AU     LIG 2027  27.290  30.026   7.660
    4AU     LIG 2028  27.748  29.921   7.536
    4AU     LIG 2029  28.246  29.869   7.467
    4AU     LIG 2030  28.668  29.623   7.560
    4AU     LIG 2031  29.006  29.245   7.541
    4AU     LIG 2032  29.352  28.896   7.477
    4AU       S 2033  26.889  30.479   8.113
    4AU     LIG 2034  27.196  30.254   8.389
    4AU     LIG 2035  27.249  29.826   8.588
    4AU     LIG 2036  27.431  29.463   8.851
    4AU     LIG 2037  27.765  29.285   9.141
    4AU     LIG 2038  28.171  29.364   9.403
    4AU     LIG 2039  28.535  29.433   9.709
    4AU    AUSL 2040  26.790  30.950   7.289
    4AU    AUSL 2041  26.556  30.617   7.221
    4AU     AUL 2042  26.924  30.737   7.114
    4AU       S 2043  27.059  30.488   7.512
    4AU     LIG 2044  27.509  30.342   7.294
    4AU     LIG 2045  28.001  30.293   7.280
    4AU     LIG 2046  28.436  30.185   7.078
    4AU     LIG 2047  28.929  30.197   6.945
    4AU     LIG 2048  29.388  30.072   6.897
    4AU     LIG 2049  29.876  29.968   6.928
    4AU       S 2050  26.776  30.340   6.840
    4AU     LIG 2051  26.912  29.912   6.725
    4AU     LIG 2052  27.068  29.482   6.616
    4AU     LIG 2053  27.238  29.118   6.394
    4AU     LIG 2054  27.519  28.817   6.180
    4AU     LIG 2055  27.771  28.409   6.127
    4AU     LIG 2056  28.113  28.085   6.009
    4AU    AUSL 2057  25.520  30.761   7.470
    4AU    AUSL 2058  25.584  30.886   7.121
    4AU     AUL 2059  25.294  31.019   7.067
    4AU       S 2060  25.282  30.505   6.950
    4AU     LIG 2061  24.857  30.367   6.827
    4AU     LIG 2062  24.547  30.050   6.666
    4AU     LIG 2063  24.226  29.796   6.436
    4AU     LIG 2064  24.059  29.546   6.085
    4AU     LIG 2065  23.789  29.533   5.698
    4AU     LIG 2066  23.515  29.619   5.328
    4AU       S 2067  25.174  30.594   7.421
    4AU     LIG 2068  24.769  30.333   7.608
    4AU     LIG 2069  24.295  30.362   7.640
    4AU     LIG 2070  23.810  30.329   7.710
    4AU     LIG 2071  23.403  30.043   7.589
    4AU     LIG 2072  23.024  29.721   7.562
    4AU     LIG 2073  22.786  29.301   7.678
    4AU    AUSL 2074  25.456  31.023   7.670
    4AU    AUSL 2075  25.646  30.658   7.766
    4AU     AUL 2076  25.282  30.874   7.839
    4AU       S 2077  25.369  30.327   7.779
    4AU     LIG 2078  25.110  29.965   7.700
    4AU     LIG 2079  24.731  29.769   7.891
    4AU     LIG 2080  24.499  29.501   8.225
    4AU     LIG 2081  24.280  29.221   8.570
    4AU     LIG 2082  24.074  28.780   8.697
    4AU     LIG 2083  23.738  28.454   8.846
    4AU       S 2084  25.009  30.730   7.431
    4AU     LIG 2085  24.513  30.825   7.221
    4AU     LIG 2086  24.065  30.648   7.255
    4AU     LIG 2087  23.623  30.441   7.261
    4AU     LIG 2088  23.271  30.535   7.588
    4AU     LIG 2089  22.863  30.669   7.739
    4AU     LIG 2090  22.501  30.432   7.922
    4AU    AUSL 2091  26.165  31.775   7.936
    4AU    AUSL 2092  25.757  31.726   7.773
    4AU     AUL 2093  25.858  31.988   7.987
    4AU       S 2094  25.469  31.837   8.252
    4AU     LIG 2095  25.168  32.091   8.536
    4AU     LIG 2096  25.042  32.422   8.866
    4AU     LIG 2097  25.039  32.876   9.058
    4AU     LIG 2098  24.913  33.352   9.057
    4AU     LIG 2099  24.699  33.778   9.115
    4AU     LIG 2100  24.305  33.993   9.244
    4AU       S 2101  26.231  32.314   8.042
    4AU     LIG 2102  26.490  32.507   8.362
    4AU     LIG 2103  26.563  32.910   8.575
    4AU     LIG 2104  26.462  33.238   8.904
    4AU     LIG 2105  26.435  33.473   9.325
    4AU     LIG 2106  26.505  33.879   9.554
    4AU     LIG 2107  26.418  34.262   9.805
    4AU    AUSL 2108  26.016  31.887   7.647
    4AU    AUSL 2109  26.298  31.898   7.335
    4AU     AUL 2110  25.837  32.122   7.449
    4AU       S 2111  26.147  32.382   7.762
    4AU     LIG 2112  26.280  32.816   8.005
    4AU     LIG 2113  26.372  33.239   8.224
    4AU     LIG 2114  26.252  33.700   8.321
    4AU     LIG 2115  25.958  34.108   8.319
    4AU     LIG 2116  25.889  34.579   8.409
    4AU     LIG 2117  25.872  35.007   8.665
    4AU       S 2118  26.464  32.318   7.248
    4AU     LIG 2119  26.761  32.700   7.186
    4AU     LIG 2120  26.861  33.061   6.870
    4AU     LIG 2121  27.011  33.495   6.692
    4AU     LIG 2122  27.219  33.940   6.702
    4AU     LIG 2123  27.303  34.444   6.665
    4AU     LIG 2124  27.268  34.859   6.384
    4AU    AUSL 2125  26.353  31.864   7.658
    4AU    AUSL 2126  26.427  31.593   8.037
    4AU     AUL 2127  26.522  31.922   7.966
    4AU       S 2128  26.789  31.745   8.341
    4AU     LIG 2129  27.029  31.696   8.747
    4AU     LIG 2130  27.230  31.952   9.094
    4AU     LIG 2131  27.496  32.090   9.466
    4AU     LIG 2132  27.761  32.251   9.825
    4AU     LIG 2133  27.971  32.546  10.111
    4AU     LIG 2134  27.992  32.981  10.288
    4AU       S 2135  26.389  32.336   7.728
    4AU     LIG 2136  26.687  32.689   7.729
    4AU     LIG 2137  26.826  33.056   8.016
    4AU     LIG 2138  26.836  33.496   8.212
    4AU     LIG 2139  27.068  33.925   8.213
    4AU     LIG 2140  27.214  34.296   8.461
    4AU     LIG 2141  27.213  34.764   8.642
    4AU    AUSL 2142  26.146  30.589   7.979
    4AU    AUSL 2143  26.545  30.599   7.756
    4AU     AUL 2144  26.373  30.345   7.990
    4AU       S 2145  25.975  30.044   8.086
    4AU     LIG 2146  25.761  29.641   8.186
    4AU     LIG 2147  25.565  29.234   8.240
    4AU     LIG 2148  25.687  28.797   8.346
    4AU     LIG 2149  25.767  28.475   8.691
    4AU     LIG 2150  25.818  28.204   9.087
    4AU     LIG 2151  25.877  27.888   9.444
    4AU       S 2152  26.872  30.333   7.978
    4AU     LIG 2153  26.980  29.891   8.099
    4AU     LIG 2154  27.014  29.460   8.306
    4AU     LIG 2155  27.245  29.111   8.517
    4AU     LIG 2156  27.471  28.881   8.867
    4AU     LIG 2157  27.625  28.411   8.884
    4AU     LIG 2158  27.998  28.088   8.879
    4AU    AUSL 2159  25.929  30.480   7.730
    4AU    AUSL 2160  25.862  30.753   7.997
    4AU     AUL 2161  25.853  30.526   8.157
    4AU       S 2162  25.776  30.058   7.875
    4AU     LIG 2163  25.543  29.706   7.728
    4AU     LIG 2164  25.495  29.258   7.721
    4AU     LIG 2165  25.344  28.855   7.945
    4AU     LIG 2166  25.057  28.481   8.089
    4AU     LIG 2167  24.801  28.063   8.107
    4AU     LIG 2168  24.796  27.690   8.377
    4AU       S 2169  25.434  30.385   7.944
    4AU     LIG 2170  25.345  29.953   8.151
    4AU     LIG 2171  24.972  29.738   8.352
    4AU     LIG 2172  24.699  29.545   8.699
    4AU     LIG 2173  24.423  29.383   9.053
    4AU     LIG 2174  24.197  29.239   9.454
    4AU     LIG 2175  24.155  28.961   9.844
    4AU    AUSL 2176  26.249  30.491   7.674
    4AU    AUSL 2177  25.958  30.433   7.399
    4AU     AUL 2178  26.308  30.221   7.605
    4AU       S 2179  25.650  30.087   7.406
    4AU     LIG 2180  25.346  29.743   7.259
    4AU     LIG 2181  25.331  29.277   7.222
    4AU     LIG 2182  25.333  28.835   7.014
    4AU     LIG 2183  25.055  28.429   6.895
    4AU     LIG 2184  24.880  28.015   6.670
    4AU     LIG 2185  24.985  27.556   6.678
    4AU       S 2186  25.901  30.105   7.833
    4AU     LIG 2187  26.042  29.638   7.754
    4AU     LIG 2188  25.973  29.188   7.919
    4AU     LIG 2189  26.147  28.747   8.060
    4AU     LIG 2190  26.441  28.348   8.100
    4AU     LIG 2191  26.485  27.853   8.112
    4AU     LIG 2192  26.471  27.352   8.078
    4AU    AUSL 2193  26.159  31.762   7.048
    4AU    AUSL 2194  26.539  31.702   7.219
    4AU     AUL 2195  26.459  31.902   6.938
    4AU       S 2196  26.217  32.330   6.967
    4AU     LIG 2197  26.506  32.644   6.742
    4AU     LIG 2198  26.623  32.960   6.414
    4AU     LIG 2199  26.758  33.092   5.967
    4AU     LIG 2200  26.694  33.375   5.595
    4AU     LIG 2201  26.666  33.819   5.477
    4AU     LIG 2202  26.731  34.246   5.328
    4AU       S 2203  26.957  31.679   6.916
    4AU     LIG 2204  27.294  32.012   6.877
    4AU     LIG 2205  27.475  32.284   6.541
    4AU     LIG 2206  27.631  32.659   6.318
    4AU     LIG 2207  28.029  32.926   6.303
    4AU     LIG 2208  28.263  33.302   6.131
    4AU     LIG 2209  28.612  33.627   6.038
    4AU    AUSL 2210  25.980  31.844   7.321
    4AU    AUSL 2211  25.875  31.614   6.954
    4AU     AUL 2212  25.847  31.986   7.044
    4AU       S 2213  26.251  32.292   7.249
    4AU     LIG 2214  26.259  32.792   7.171
    4AU     LIG 2215  26.305  33.149   6.832
    4AU     LIG 2216  26.041  33.560   6.675
    4AU     LIG 2217  25.736  33.964   6.602
    4AU     LIG 2218  25.618  34.442   6.601
    4AU     LIG 2219  25.618  34.861   6.351
    4AU       S 2220  25.624  31.809   6.613
    4AU     LIG 2221  25.429  31.893   6.186
    4AU     LIG 2222  25.271  32.194   5.846
    4AU     LIG 2223  25.272  32.384   5.390
    4AU     LIG 2224  25.246  32.676   4.999
    4AU     LIG 2225  24.995  32.962   4.698
    4AU     LIG 2226  24.732  33.347   4.603
    4AU    AUSL 2227  26.077  30.576   7.123
    4AU    AUSL 2228  25.722  30.610   7.247
    4AU     AUL 2229  25.950  30.399   6.947
    4AU       S 2230  25.428  30.355   7.077
    4AU     LIG 2231  25.055  30.146   7.230
    4AU     LIG 2232  24.810  29.802   7.044
    4AU     LIG 2233  24.516  29.526   6.767
    4AU     LIG 2234  24.242  29.246   6.476
    4AU     LIG 2235  23.983  28.864   6.305
    4AU     LIG 2236  23.639  28.522   6.211
    4AU       S 2237  25.819  30.101   7.316
    4AU     LIG 2238  25.693  29.876   6.918
    4AU     LIG 2239  25.566  29.452   6.802
    4AU     LIG 2240  25.641  29.015   6.619
    4AU     LIG 2241  25.781  28.671   6.305
    4AU     LIG 2242  25.846  28.494   5.845
    4AU     LIG 2243  25.999  28.244   5.458
    4AU    AUSL 2244  26.291  30.462   7.350
    4AU    AUSL 2245  26.340  30.688   6.959
    4AU     AUL 2246  26.329  30.307   7.072
    4AU       S 2247  25.968  30.004   7.327
    4AU     LIG 2248  25.809  29.542   7.302
    4AU     LIG 2249  25.803  29.096   7.117
    4AU     LIG 2250  25.930  28.682   6.896
    4AU     LIG 2251  26.219  28.301   6.809
    4AU     LIG 2252  26.428  27.874   6.717
    4AU     LIG 2253  26.442  27.387   6.765
    4AU       S 2254  26.546  30.445   6.639
    4AU     LIG 2255  26.593  30.084   6.360
    4AU     LIG 2256  26.784  29.676   6.233
    4AU     LIG 2257  26.949  29.294   6.008
    4AU     LIG 2258  27.006  29.020   5.630
    4AU     LIG 2259  27.167  28.818   5.239
    4AU     LIG 2260  27.412  28.619   4.883
    5AU     AUC 2261  26.754   2.117   7.502
    5AU     AUC 2262  27.000   2.111   7.339
    5AU     AUC 2263  27.010   2.112   7.648
    5AU     AUC 2264  26.499   2.121   7.353
    5AU     AUC 2265  26.509   2.126   7.663
    5AU     AUC 2266  26.606   2.369   7.502
    5AU     AUC 2267  26.913   2.364   7.495
    5AU     AUC 2268  26.592   1.867   7.510
    5AU     AUC 2269  26.905   1.863   7.499
    5AU     AUC 2270  26.760   1.965   7.754
    5AU     AUC 2271  26.766   2.275   7.751
    5AU     AUC 2272  26.744   1.961   7.250
    5AU     AUC 2273  26.750   2.270   7.249
    5AU     AUC 2274  27.237   2.106   7.181
    5AU     AUC 2275  27.252   2.102   7.486
    5AU     AUC 2276  27.258   2.106   7.789
    5AU     AUC 2277  26.253   2.122   7.209
    5AU     AUC 2278  26.255   2.135   7.510
    5AU     AUC 2279  26.270   2.138   7.818
    5AU     AUC 2280  26.462   2.616   7.502
    5AU     AUC 2281  26.767   2.615   7.497
    5AU     AUC 2282  27.067   2.604   7.489
    5AU     AUC 2283  26.439   1.630   7.518
    5AU     AUC 2284  26.739   1.620   7.518
    5AU     AUC 2285  27.047   1.618   7.496
    5AU     AUC 2286  26.762   1.816   7.996
    5AU     AUC 2287  26.769   2.115   8.000
    5AU     AUC 2288  26.779   2.424   7.992
    5AU     AUC 2289  26.736   1.809   7.011
    5AU     AUC 2290  26.742   2.109   7.002
    5AU     AUC 2291  26.747   2.417   7.005
    5AU     AUC 2292  27.012   1.956   7.897
    5AU     AUC 2293  27.021   2.263   7.899
    5AU     AUC 2294  26.986   1.957   7.092
    5AU     AUC 2295  26.997   2.265   7.093
    5AU     AUC 2296  26.508   1.976   7.910
    5AU     AUC 2297  26.523   2.280   7.912
    5AU     AUC 2298  26.495   1.961   7.105
    5AU     AUC 2299  26.496   2.270   7.102
    5AU     AUC 2300  27.159   2.356   7.338
    5AU     AUC 2301  27.169   2.354   7.644
    5AU     AUC 2302  26.350   2.372   7.351
    5AU     AUC 2303  26.363   2.381   7.662
    5AU     AUC 2304  27.142   1.853   7.331
    5AU     AUC 2305  27.156   1.855   7.639
    5AU     AUC 2306  26.346   1.872   7.358
    5AU     AUC 2307  26.345   1.884   7.660
    5AU     AUC 2308  26.620   2.526   7.753
    5AU     AUC 2309  26.926   2.518   7.745
    5AU     AUC 2310  26.591   1.724   7.759
    5AU     AUC 2311  26.907   1.713   7.752
    5AU     AUC 2312  26.604   2.521   7.247
    5AU     AUC 2313  26.912   2.515   7.243
    5AU     AUC 2314  26.587   1.711   7.267
    5AU     AUC 2315  26.891   1.705   7.253
    5AU    AUSL 2316  27.194   2.069   8.074
    5AU    AUSL 2317  27.059   1.683   8.048
    5AU     AUL 2318  27.464   1.867   8.191
    5AU       S 2319  27.331   1.393   8.328
    5AU     LIG 2320  27.330   0.937   8.447
    5AU     LIG 2321  27.384   0.497   8.613
    5AU     LIG 2322  27.596   0.323   8.980
    5AU     LIG 2323  27.875   0.271   9.353
    5AU     LIG 2324  28.130   0.143   9.733
    5AU     LIG 2325  28.066  44.964  10.176
    5AU       S 2326  27.241   1.966   8.653
    5AU     LIG 2327  27.497   1.857   9.022
    5AU     LIG 2328  27.652   1.570   9.371
    5AU     LIG 2329  27.903   1.402   9.741
    5AU     LIG 2330  28.299   1.421  10.015
    5AU     LIG 2331  28.639   1.590  10.309
    5AU     LIG 2332  28.912   1.643  10.693
    5AU    AUSL 2333  26.910   1.937   8.209
    5AU    AUSL 2334  26.635   2.269   8.195
    5AU     AUL 2335  26.728   2.105   8.499
    5AU       S 2336  27.096   1.777   8.590
    5AU     LIG 2337  27.278   1.419   8.853
    5AU     LIG 2338  27.301   1.203   9.287
    5AU     LIG 2339  27.425   1.150   9.754
    5AU     LIG 2340  27.433   1.018  10.229
    5AU     LIG 2341  27.566   1.111  10.692
    5AU     LIG 2342  27.657   1.073  11.169
    5AU       S 2343  26.257   2.298   8.656
    5AU     LIG 2344  26.084   2.276   9.103
    5AU     LIG 2345  26.058   1.996   9.502
    5AU     LIG 2346  25.992   1.883   9.956
    5AU     LIG 2347  25.960   2.115  10.373
    5AU     LIG 2348  25.829   2.476  10.660
    5AU     LIG 2349  25.667   2.712  11.040
    5AU    AUSL 2350  26.969   2.278   8.205
    5AU    AUSL 2351  27.317   2.372   7.948
    5AU     AUL 2352  27.399   2.205   8.244
    5AU       S 2353  27.150   2.310   8.669
    5AU     LIG 2354  27.166   2.684   8.968
    5AU     LIG 2355  27.335   2.884   9.368
    5AU     LIG 2356  27.334   2.963   9.844
    5AU     LIG 2357  27.320   2.998  10.310
    5AU     LIG 2358  27.514   2.963  10.735
    5AU     LIG 2359  27.686   2.875  11.156
    5AU       S 2360  27.690   2.598   8.201
    5AU     LIG 2361  28.058   2.576   8.484
    5AU     LIG 2362  28.275   2.629   8.889
    5AU     LIG 2363  28.587   2.903   9.100
    5AU     LIG 2364  28.928   3.000   9.421
    5AU     LIG 2365  29.259   3.105   9.759
    5AU     LIG 2366  29.478   3.476   9.990
    5AU    AUSL 2367  27.180   2.158   6.894
    5AU    AUSL 2368  27.035   2.513   6.940
    5AU     AUL 2369  27.111   2.446   6.592
    5AU       S 2370  27.281   2.000   6.368
    5AU     LIG 2371  27.489   1.670   6.116
    5AU     LIG 2372  27.709   1.605   5.697
    5AU     LIG 2373  27.925   1.646   5.268
    5AU     LIG 2374  28.334   1.611   4.994
    5AU     LIG 2375  28.640   1.532   4.615
    5AU     LIG 2376  28.928   1.662   4.247
    5AU       S 2377  27.522   2.716   6.697
    5AU     LIG 2378  27.791   2.829   6.336
    5AU     LIG 2379  28.028   3.035   5.975
    5AU     LIG 2380  28.292   3.239   5.629
    5AU     LIG 2381  28.227   3.376   5.179
    5AU     LIG 2382  28.393   3.697   4.882
    5AU     LIG 2383  28.606   4.113   4.813
    5AU    AUSL 2384  26.943   1.936   6.797
    5AU    AUSL 2385  27.226   1.843   7.021
    5AU     AUL 2386  27.436   1.982   6.837
    5AU       S 2387  27.395   1.518   6.630
    5AU     LIG 2388  27.613   1.186   6.363
    5AU     LIG 2389  27.812   0.735   6.298
    5AU     LIG 2390  28.086   0.408   6.062
    5AU     LIG 2391  28.344   0.250   5.682
    5AU     LIG 2392  28.768   0.230   5.448
    5AU     LIG 2393  29.196   0.251   5.221
    5AU       S 2394  27.021   1.785   6.422
    5AU     LIG 2395  27.034   1.443   6.145
    5AU     LIG 2396  27.217   1.431   5.715
    5AU     LIG 2397  27.422   1.463   5.279
    5AU     LIG 2398  27.459   1.453   4.805
    5AU     LIG 2399  27.474   1.275   4.354
    5AU     LIG 2400  27.606   1.317   3.901
    5AU    AUSL 2401  26.873   2.257   6.807
    5AU    AUSL 2402  26.599   1.948   6.782
    5AU     AUL 2403  26.767   2.297   6.543
    5AU       S 2404  26.543   1.716   6.406
    5AU     LIG 2405  26.525   1.499   6.009
    5AU     LIG 2406  26.264   1.414   5.623
    5AU     LIG 2407  26.054   1.404   5.195
    5AU     LIG 2408  25.781   1.225   4.840
    5AU     LIG 2409  25.688   1.149   4.376
    5AU     LIG 2410  25.782   1.249   3.917
    5AU       S 2411  27.058   1.927   6.414
    5AU     LIG 2412  27.064   1.902   5.918
    5AU     LIG 2413  27.324   1.909   5.519
    5AU     LIG 2414  27.520   1.947   5.084
    5AU     LIG 2415  27.500   2.273   4.727
    5AU     LIG 2416  27.562   2.603   4.385
    5AU     LIG 2417  27.583   2.626   3.911
    5AU    AUSL 2418  26.335   2.157   8.122
    5AU    AUSL 2419  26.510   2.554   8.066
    5AU     AUL 2420  26.640   2.472   8.386
    5AU       S 2421  26.099   2.199   8.485
    5AU     LIG 2422  25.776   2.025   8.784
    5AU     LIG 2423  25.694   1.804   9.193
    5AU     LIG 2424  25.629   1.680   9.646
    5AU     LIG 2425  25.314   1.673  10.013
    5AU     LIG 2426  24.913   1.650  10.300
    5AU     LIG 2427  24.645   1.846  10.659
    5AU       S 2428  26.201   2.713   8.407
    5AU     LIG 2429  26.158   2.777   8.862
    5AU     LIG 2430  26.013   3.142   9.127
    5AU     LIG 2431  25.827   3.353   9.508
    5AU     LIG 2432  25.818   3.536   9.950
    5AU     LIG 2433  25.627   3.819  10.273
    5AU     LIG 2434  25.267   4.054  10.467
    5AU    AUSL 2435  26.578   1.935   8.209
    5AU    AUSL 2436  26.210   1.888   7.957
    5AU     AUL 2437  26.257   1.766   8.276
    5AU       S 2438  25.906   1.410   8.110
    5AU     LIG 2439  25.481   1.227   8.038
    5AU     LIG 2440  25.109   1.012   8.249
    5AU     LIG 2441  24.849   0.760   8.561
    5AU     LIG 2442  24.624   0.498   8.878
    5AU     LIG 2443  24.285   0.358   9.171
    5AU     LIG 2444  23.955   0.351   9.510
    5AU       S 2445  26.275   2.034   8.690
    5AU     LIG 2446  26.186   1.757   9.048
    5AU     LIG 2447  26.060   1.483   9.418
    5AU     LIG 2448  25.989   1.325   9.861
    5AU     LIG 2449  26.046   1.066  10.270
    5AU     LIG 2450  25.999   1.105  10.751
    5AU     LIG 2451  25.855   0.912  11.165
    5AU    AUSL 2452  26.312   2.078   6.924
    5AU    AUSL 2453  26.465   1.693   6.952
    5AU     AUL 2454  26.178   1.844   6.754
    5AU       S 2455  26.323   1.997   6.306
    5AU     LIG 2456  26.085   1.789   5.942
    5AU     LIG 2457  25.820   1.710   5.539
    5AU     LIG 2458  25.570   1.610   5.131
    5AU     LIG 2459  25.185   1.540   4.827
    5AU     LIG 2460  24.784   1.704   4.590
    5AU     LIG 2461  24.615   1.988   4.224
    5AU       S 2462  26.101   1.336   6.775
    5AU     LIG 2463  25.794   0.979   6.717
    5AU     LIG 2464  25.433   0.722   6.565
    5AU     LIG 2465  25.201   0.466   6.230
    5AU     LIG 2466  25.125   0.409   5.753
    5AU     LIG 2467  25.165   0.129   5.369
    5AU     LIG 2468  25.218   0.068   4.898
    5AU    AUSL 2469  26.541   2.279   6.807
    5AU    AUSL 2470  26.220   2.378   7.051
    5AU     AUL 2471  26.130   2.239   6.713
    5AU       S 2472  26.014   2.717   6.673
    5AU     LIG 2473  25.796   2.797   6.247
    5AU     LIG 2474  25.569   2.869   5.822
    5AU     LIG 2475  25.220   2.992   5.512
    5AU     LIG 2476  24.953   3.218   5.193
    5AU     LIG 2477  24.524   3.393   5.140
    5AU     LIG 2478  24.238   3.675   4.896
    5AU       S 2479  26.525   1.925   6.366
    5AU     LIG 2480  26.556   1.982   5.863
    5AU     LIG 2481  26.295   1.901   5.458
    5AU     LIG 2482  26.006   1.922   5.063
    5AU     LIG 2483  25.916   2.166   4.633
    5AU     LIG 2484  25.864   2.406   4.196
    5AU     LIG 2485  25.704   2.581   3.757
    5AU    AUSL 2486  27.360   2.522   7.458
    5AU    AUSL 2487  27.322   2.395   7.094
    5AU     AUL 2488  27.427   2.835   7.335
    5AU       S 2489  27.657   2.462   6.828
    5AU     LIG 2490  28.033   2.434   6.568
    5AU     LIG 2491  28.236   2.592   6.176
    5AU     LIG 2492  28.506   2.847   5.892
    5AU     LIG 2493  28.801   3.094   5.624
    5AU     LIG 2494  29.191   3.184   5.363
    5AU     LIG 2495  29.576   3.350   5.139
    5AU       S 2496  27.891   2.607   7.369
    5AU     LIG 2497  28.366   2.731   7.436
    5AU     LIG 2498  28.861   2.745   7.515
    5AU     LIG 2499  29.347   2.826   7.481
    5AU     LIG 2500  29.731   3.103   7.418
    5AU     LIG 2501  29.973   3.528   7.483
    5AU     LIG 2502  30.312   3.780   7.687
    5AU    AUSL 2503  27.474   2.222   7.331
    5AU    AUSL 2504  27.461   1.950   7.615
    5AU     AUL 2505  27.764   1.933   7.382
    5AU       S 2506  27.874   2.409   7.272
    5AU     LIG 2507  28.261   2.405   7.055
    5AU     LIG 2508  28.703   2.365   7.197
    5AU     LIG 2509  29.170   2.395   7.269
    5AU     LIG 2510  29.573   2.573   7.070
    5AU     LIG 2511  30.027   2.771   7.040
    5AU     LIG 2512  30.499   2.898   6.959
    5AU       S 2513  27.825   1.443   7.633
    5AU     LIG 2514  28.088   1.140   7.878
    5AU     LIG 2515  28.554   0.984   7.856
    5AU     LIG 2516  29.026   0.878   7.796
    5AU     LIG 2517  29.489   0.899   7.924
    5AU     LIG 2518  29.931   0.838   8.116
    5AU     LIG 2519  30.375   1.054   8.133
    5AU    AUSL 2520  27.469   2.278   7.668
    5AU    AUSL 2521  27.211   2.619   7.748
    5AU     AUL 2522  27.520   2.670   7.721
    5AU       S 2523  27.520   2.724   8.214
    5AU     LIG 2524  27.814   3.031   8.442
    5AU     LIG 2525  28.215   3.089   8.675
    5AU     LIG 2526  28.445   3.389   8.941
    5AU     LIG 2527  28.600   3.837   8.936
    5AU     LIG 2528  28.713   4.224   9.159
    5AU     LIG 2529  28.773   4.672   9.089
    5AU       S 2530  27.926   2.380   7.617
    5AU     LIG 2531  28.382   2.248   7.593
    5AU     LIG 2532  28.859   2.257   7.684
    5AU     LIG 2533  29.301   2.410   7.790
    5AU     LIG 2534  29.734   2.414   8.029
    5AU     LIG 2535  30.208   2.510   8.050
    5AU     LIG 2536  30.573   2.789   7.937
    5AU    AUSL 2537  26.165   2.582   7.522
    5AU    AUSL 2538  26.223   2.412   7.934
    5AU     AUL 2539  26.096   2.846   7.782
    5AU       S 2540  25.941   2.550   8.208
    5AU     LIG 2541  25.755   2.546   8.637
    5AU     LIG 2542  25.648   2.803   9.012
    5AU     LIG 2543  25.444   2.993   9.406
    5AU     LIG 2544  25.058   3.098   9.680
    5AU     LIG 2545  24.607   3.234   9.804
    5AU     LIG 2546  24.198   3.425   9.969
    5AU       S 2547  25.659   2.765   7.558
    5AU     LIG 2548  25.491   3.233   7.494
    5AU     LIG 2549  25.347   3.724   7.471
    5AU     LIG 2550  24.996   4.072   7.428
    5AU     LIG 2551  24.547   4.247   7.479
    5AU     LIG 2552  24.099   4.405   7.486
    5AU     LIG 2553  23.671   4.495   7.630
    5AU    AUSL 2554  26.051   2.309   7.340
    5AU    AUSL 2555  26.314   2.655   7.232
    5AU     AUL 2556  25.980   2.617   7.187
    5AU       S 2557  25.527   2.536   7.382
    5AU     LIG 2558  25.256   2.745   7.058
    5AU     LIG 2559  24.855   2.783   6.793
    5AU     LIG 2560  24.395   2.810   6.655
    5AU     LIG 2561  23.997   3.035   6.576
    5AU     LIG 2562  23.545   3.014   6.660
    5AU     LIG 2563  23.297   3.279   6.956
    5AU       S 2564  26.056   2.943   6.805
    5AU     LIG 2565  25.903   3.246   6.487
    5AU     LIG 2566  25.952   3.634   6.227
    5AU     LIG 2567  25.807   4.083   6.157
    5AU     LIG 2568  25.439   4.295   5.940
    5AU     LIG 2569  25.039   4.508   5.937
    5AU     LIG 2570  24.748   4.855   5.897
    5AU    AUSL 2571  26.050   2.301   7.682
    5AU    AUSL 2572  26.019   1.980   7.344
    5AU     AUL 2573  25.765   2.131   7.534
    5AU       S 2574  25.616   1.642   7.325
    5AU     LIG 2575  25.235   1.650   7.714
    5AU     LIG 2576  24.768   1.652   7.797
    5AU     LIG 2577  24.321   1.589   7.663
    5AU     LIG 2578  23.959   1.417   7.417
    5AU     LIG 2579  23.502   1.252   7.392
    5AU     LIG 2580  23.130   1.295   7.096
    5AU       S 2581  25.655   2.534   7.811
    5AU     LIG 2582  25.422   2.690   8.199
    5AU     LIG 2583  24.949   2.779   8.321
    5AU     LIG 2584  24.453   2.833   8.332
    5AU     LIG 2585  23.989   2.967   8.419
    5AU     LIG 2586  23.524   3.050   8.390
    5AU     LIG 2587  23.073   3.074   8.260
    5AU    AUSL 2588  27.354   1.652   7.500
    5AU    AUSL 2589  27.308   1.824   7.879
    5AU     AUL 2590  27.652   1.857   7.829
    5AU       S 2591  27.552   1.265   7.475
    5AU     LIG 2592  27.806   0.885   7.533
    5AU     LIG 2593  28.246   0.703   7.558
    5AU     LIG 2594  28.711   0.529   7.584
    5AU     LIG 2595  29.179   0.348   7.628
    5AU     LIG 2596  29.514   0.031   7.825
    5AU     LIG 2597  29.935  44.765   7.892
    5AU       S 2598  27.497   1.392   8.116
    5AU     LIG 2599  27.803   1.113   8.362
    5AU     LIG 2600  27.860   0.695   8.611
    5AU     LIG 2601  28.101   0.368   8.888
    5AU     LIG 2602  28.384   0.245   9.257
    5AU     LIG 2603  28.774   0.256   9.535
    5AU     LIG 2604  29.231   0.197   9.684
    5AU    AUSL 2605  27.412   1.902   7.289
    5AU    AUSL 2606  27.178   1.569   7.218
    5AU     AUL 2607  27.547   1.699   7.109
    5AU       S 2608  27.688   1.421   7.485
    5AU     LIG 2609  28.172   1.200   7.367
    5AU     LIG 2610  28.642   0.986   7.344
    5AU     LIG 2611  29.100   0.751   7.297
    5AU     LIG 2612  29.566   0.586   7.177
    5AU     LIG 2613  29.957   0.663   6.887
    5AU     LIG 2614  30.304   0.732   6.547
    5AU       S 2615  27.409   1.284   6.853
    5AU     LIG 2616  27.522   0.833   6.737
    5AU     LIG 2617  27.622   0.370   6.640
    5AU     LIG 2618  27.846   0.061   6.386
    5AU     LIG 2619  28.005  44.794   6.046
    5AU     LIG 2620  28.279  44.407   5.967
    5AU     LIG 2621  28.738  44.287   5.850
    5AU    AUSL 2622  26.143   1.707   7.470
    5AU    AUSL 2623  26.206   1.832   7.117
    5AU     AUL 2624  25.913   1.962   7.067
    5AU       S 2625  25.902   1.449   6.946
    5AU     LIG 2626  25.445   1.338   6.927
    5AU     LIG 2627  25.109   1.110   6.681
    5AU     LIG 2628  24.913   0.864   6.345
    5AU     LIG 2629  24.717   0.587   6.026
    5AU     LIG 2630  24.496   0.533   5.609
    5AU     LIG 2631  24.183   0.767   5.334
    5AU       S 2632  25.797   1.523   7.418
    5AU     LIG 2633  25.355   1.233   7.464
    5AU     LIG 2634  24.887   1.293   7.461
    5AU     LIG 2635  24.476   1.109   7.608
    5AU     LIG 2636  24.016   0.973   7.668
    5AU     LIG 2637  23.619   0.726   7.571
    5AU     LIG 2638  23.326   0.359   7.470
    5AU    AUSL 2639  26.074   1.971   7.668
    5AU    AUSL 2640  26.268   1.603   7.765
    5AU     AUL 2641  25.903   1.821   7.835
    5AU       S 2642  25.994   1.275   7.785
    5AU     LIG 2643  25.713   0.935   7.696
    5AU     LIG 2644  25.324   0.752   7.853
    5AU     LIG 2645  25.057   0.493   8.168
    5AU     LIG 2646  24.833   0.198   8.503
    5AU     LIG 2647  24.605  44.790   8.713
    5AU     LIG 2648  24.282  44.407   8.813
    5AU       S 2649  25.637   1.660   7.436
    5AU     LIG 2650  25.141   1.656   7.213
    5AU     LIG 2651  24.667   1.743   7.287
    5AU     LIG 2652  24.194   1.886   7.273
    5AU     LIG 2653  23.781   1.911   7.516
    5AU     LIG 2654  23.432   1.656   7.727
    5AU     LIG 2655  23.120   1.321   7.875
    5AU    AUSL 2656  26.774   2.726   7.936
    5AU    AUSL 2657  26.376   2.656   7.775
    5AU     AUL 2658  26.449   2.926   7.977
    5AU       S 2659  26.094   2.756   8.281
    5AU     LIG 2660  25.845   3.063   8.574
    5AU     LIG 2661  25.797   3.497   8.800
    5AU     LIG 2662  25.704   3.973   8.892
    5AU     LIG 2663  25.419   4.294   9.101
    5AU     LIG 2664  25.024   4.331   9.363
    5AU     LIG 2665  24.594   4.489   9.507
    5AU       S 2666  26.827   3.235   8.077
    5AU     LIG 2667  27.058   3.401   8.413
    5AU     LIG 2668  27.152   3.821   8.534
    5AU     LIG 2669  27.102   4.225   8.766
    5AU     LIG 2670  27.092   4.483   9.168
    5AU     LIG 2671  27.000   4.829   9.485
    5AU     LIG 2672  26.806   5.233   9.654
    5AU    AUSL 2673  26.622   2.836   7.650
    5AU    AUSL 2674  26.918   2.848   7.334
    5AU     AUL 2675  26.462   3.074   7.441
    5AU       S 2676  26.731   3.328   7.798
    5AU     LIG 2677  26.776   3.735   8.103
    5AU     LIG 2678  26.845   4.170   8.298
    5AU     LIG 2679  26.669   4.611   8.403
    5AU     LIG 2680  26.436   5.040   8.330
    5AU     LIG 2681  26.568   5.504   8.391
    5AU     LIG 2682  26.423   5.831   8.693
    5AU       S 2683  27.072   3.259   7.262
    5AU     LIG 2684  27.333   3.596   7.062
    5AU     LIG 2685  27.396   4.023   6.838
    5AU     LIG 2686  27.689   4.419   6.730
    5AU     LIG 2687  27.849   4.882   6.635
    5AU     LIG 2688  27.975   5.351   6.647
    5AU     LIG 2689  27.780   5.766   6.497
    5AU    AUSL 2690  26.958   2.813   7.658
    5AU    AUSL 2691  27.038   2.550   8.035
    5AU     AUL 2692  27.144   2.886   7.930
    5AU       S 2693  27.319   2.684   8.356
    5AU     LIG 2694  27.615   2.658   8.731
    5AU     LIG 2695  27.870   2.927   9.025
    5AU     LIG 2696  28.185   3.124   9.335
    5AU     LIG 2697  28.342   3.250   9.782
    5AU     LIG 2698  28.350   3.588  10.133
    5AU     LIG 2699  28.364   4.037  10.306
    5AU       S 2700  26.963   3.305   7.741
    5AU     LIG 2701  27.253   3.610   7.981
    5AU     LIG 2702  27.446   4.025   8.157
    5AU     LIG 2703  27.783   4.386   8.223
    5AU     LIG 2704  27.835   4.858   8.259
    5AU     LIG 2705  27.811   5.346   8.247
    5AU     LIG 2706  27.775   5.829   8.246
    5AU    AUSL 2707  26.765   1.534   7.975
    5AU    AUSL 2708  27.167   1.546   7.752
    5AU     AUL 2709  26.990   1.288   7.980
    5AU       S 2710  26.596   0.986   8.082
    5AU     LIG 2711  26.364   0.593   8.195
    5AU     LIG 2712  26.194   0.163   8.233
    5AU     LIG 2713  26.267  44.718   8.385
    5AU     LIG 2714  26.454  44.374   8.675
    5AU     LIG 2715  26.651  44.062   9.000
    5AU     LIG 2716  26.684  43.735   9.351
    5AU       S 2717  27.489   1.286   7.962
    5AU     LIG 2718  27.573   0.852   7.989
    5AU     LIG 2719  27.661   0.447   8.175
    5AU     LIG 2720  27.803   0.180   8.510
    5AU     LIG 2721  28.033  44.855   8.700
    5AU     LIG 2722  28.368  44.587   8.850
    5AU     LIG 2723  28.663  44.245   8.726
    5AU    AUSL 2724  26.551   1.425   7.726
    5AU    AUSL 2725  26.482   1.700   7.996
    5AU     AUL 2726  26.478   1.470   8.154
    5AU       S 2727  26.398   1.009   7.875
    5AU     LIG 2728  26.145   0.679   7.749
    5AU     LIG 2729  26.126   0.238   7.703
    5AU     LIG 2730  26.106  44.786   7.879
    5AU     LIG 2731  25.828  44.379   7.959
    5AU     LIG 2732  25.625  43.961   8.111
    5AU     LIG 2733  25.411  43.539   8.264
    5AU       S 2734  26.054   1.334   7.949
    5AU     LIG 2735  25.929   0.911   8.157
    5AU     LIG 2736  25.534   0.711   8.324
    5AU     LIG 2737  25.268   0.475   8.644
    5AU     LIG 2738  25.050   0.220   8.979
    5AU     LIG 2739  24.988  44.982   9.383
    5AU     LIG 2740  24.999  44.774   9.810
    5AU    AUSL 2741  26.870   1.439   7.669
    5AU    AUSL 2742  26.581   1.381   7.394
    5AU     AUL 2743  26.929   1.168   7.598
    5AU       S 2744  26.267   1.028   7.402
    5AU     LIG 2745  25.992   0.611   7.281
    5AU     LIG 2746  26.019   0.131   7.202
    5AU     LIG 2747  26.087  44.677   7.000
    5AU     LIG 2748  25.915  44.203   6.867
    5AU     LIG 2749  25.900  43.728   6.699
    5AU     LIG 2750  25.912  43.243   6.766
    5AU       S 2751  26.522   1.049   7.825
    5AU     LIG 2752  26.638   0.576   7.753
    5AU     LIG 2753  26.584   0.123   7.897
    5AU     LIG 2754  26.630  44.662   8.014
    5AU     LIG 2755  26.886  44.251   8.089
    5AU     LIG 2756  26.895  43.835   8.293
    5AU     LIG 2757  27.150  43.473   8.401
    5AU    AUSL 2758  26.783   2.712   7.048
    5AU    AUSL 2759  27.159   2.650   7.222
    5AU     AUL 2760  27.088   2.850   6.942
    5AU       S 2761  26.843   3.276   6.957
    5AU     LIG 2762  27.012   3.610   6.665
    5AU     LIG 2763  27.131   3.963   6.384
    5AU     LIG 2764  27.159   4.180   5.957
    5AU     LIG 2765  27.227   4.424   5.549
    5AU     LIG 2766  27.158   4.785   5.244
    5AU     LIG 2767  27.024   5.200   5.065
    5AU       S 2768  27.582   2.628   6.922
    5AU     LIG 2769  28.002   2.853   6.850
    5AU     LIG 2770  28.254   3.020   6.466
    5AU     LIG 2771  28.425   3.328   6.135
    5AU     LIG 2772  28.529   3.793   6.042
    5AU     LIG 2773  28.711   4.241   6.080
    5AU     LIG 2774  28.910   4.648   5.926
    5AU    AUSL 2775  26.600   2.787   7.323
    5AU    AUSL 2776  26.497   2.567   6.961
    5AU     AUL 2777  26.479   2.939   7.060
    5AU       S 2778  26.874   3.247   7.245
    5AU     LIG 2779  26.849   3.742   7.142
    5AU     LIG 2780  26.835   4.107   6.822
    5AU     LIG 2781  26.584   4.533   6.737
    5AU     LIG 2782  26.642   5.010   6.689
    5AU     LIG 2783  26.771   5.462   6.529
    5AU     LIG 2784  26.580   5.873   6.393
    5AU       S 2785  26.310   2.758   6.608
    5AU     LIG 2786  26.262   3.009   6.215
    5AU     LIG 2787  25.978   3.198   5.877
    5AU     LIG 2788  25.906   3.319   5.395
    5AU     LIG 2789  25.876   3.598   4.983
    5AU     LIG 2790  25.668   3.924   4.679
    5AU     LIG 2791  25.368   4.277   4.531
    5AU    AUSL 2792  26.700   1.526   7.120
    5AU    AUSL 2793  26.345   1.558   7.243
    5AU     AUL 2794  26.576   1.350   6.942
    5AU       S 2795  26.057   1.303   7.067
    5AU     LIG 2796  25.740   1.038   7.210
    5AU     LIG 2797  25.304   0.859   7.088
    5AU     LIG 2798  24.986   0.617   6.793
    5AU     LIG 2799  24.626   0.424   6.532
    5AU     LIG 2800  24.326   0.002   6.497
    5AU     LIG 2801  24.117  44.553   6.392
    5AU       S 2802  26.439   1.052   7.310
    5AU     LIG 2803  26.264   0.837   6.923
    5AU     LIG 2804  26.225   0.392   6.809
    5AU     LIG 2805  26.318  44.962   6.621
    5AU     LIG 2806  26.384  44.653   6.255
    5AU     LIG 2807  26.410  44.342   5.884
    5AU     LIG 2808  26.465  44.013   5.546
    5AU    AUSL 2809  26.915   1.411   7.346
    5AU    AUSL 2810  26.963   1.640   6.957
    5AU     AUL 2811  26.951   1.259   7.066
    5AU       S 2812  26.590   0.955   7.315
    5AU     LIG 2813  26.477   0.492   7.274
    5AU     LIG 2814  26.512   0.046   7.101
    5AU     LIG 2815  26.676  44.652   6.883
    5AU     LIG 2816  27.060  44.346   6.818
    5AU     LIG 2817  27.264  43.959   6.607
    5AU     LIG 2818  27.261  43.625   6.282
    5AU       S 2819  27.183   1.399   6.644
    5AU     LIG 2820  27.140   1.009   6.427
    5AU     LIG 2821  27.312   0.600   6.298
    5AU     LIG 2822  27.576   0.329   6.032
    5AU     LIG 2823  27.831   0.135   5.705
    5AU     LIG 2824  28.028   0.010   5.313
    5AU     LIG 2825  28.063  44.805   4.899
    6AU     AUC 2826  19.692  19.647   7.503
    6AU     AUC 2827  19.936  19.644   7.338
    6AU     AUC 2828  19.949  19.644   7.646
    6AU     AUC 2829  19.435  19.650   7.357
    6AU     AUC 2830  19.448  19.655   7.667
    6AU     AUC 2831  19.542  19.899   7.506
    6AU     AUC 2832  19.849  19.896   7.495
    6AU     AUC 2833  19.531  19.397   7.512
    6AU     AUC 2834  19.844  19.395   7.498
    6AU     AUC 2835  19.701  19.495   7.755
    6AU     AUC 2836  19.706  19.805   7.753
    6AU     AUC 2837  19.680  19.492   7.251
    6AU     AUC 2838  19.685  19.801   7.251
    6AU     AUC 2839  20.172  19.641   7.177
    6AU     AUC 2840  20.190  19.636   7.482
    6AU     AUC 2841  20.199  19.638   7.785
    6AU     AUC 2842  19.189  19.651   7.215
    6AU     AUC 2843  19.193  19.663   7.516
    6AU     AUC 2844  19.211  19.666   7.824
    6AU     AUC 2845  19.398  20.145   7.508
    6AU     AUC 2846  19.702  20.145   7.499
    6AU     AUC 2847  20.002  20.136   7.488
    6AU     AUC 2848  19.380  19.159   7.521
    6AU     AUC 2849  19.680  19.151   7.517
    6AU     AUC 2850  19.988  19.150   7.493
    6AU     AUC 2851  19.706  19.345   7.996
    6AU     AUC 2852  19.711  19.644   8.001
    6AU     AUC 2853  19.720  19.953   7.994
    6AU     AUC 2854  19.671  19.340   7.011
    6AU     AUC 2855  19.675  19.641   7.003
    6AU     AUC 2856  19.678  19.949   7.007
    6AU     AUC 2857  19.954  19.486   7.895
    6AU     AUC 2858  19.961  19.793   7.898
    6AU     AUC 2859  19.921  19.490   7.090
    6AU     AUC 2860  19.930  19.798   7.092
    6AU     AUC 2861  19.450  19.504   7.913
    6AU     AUC 2862  19.464  19.808   7.916
    6AU     AUC 2863  19.430  19.491   7.108
    6AU     AUC 2864  19.429  19.800   7.107
    6AU     AUC 2865  20.094  19.889   7.335
    6AU     AUC 2866  20.107  19.887   7.642
    6AU     AUC 2867  19.286  19.901   7.357
    6AU     AUC 2868  19.302  19.910   7.668
    6AU     AUC 2869  20.079  19.387   7.328
    6AU     AUC 2870  20.096  19.389   7.636
    6AU     AUC 2871  19.284  19.401   7.362
    6AU     AUC 2872  19.285  19.412   7.665
    6AU     AUC 2873  19.560  20.056   7.756
    6AU     AUC 2874  19.865  20.049   7.746
    6AU     AUC 2875  19.533  19.253   7.760
    6AU     AUC 2876  19.849  19.244   7.751
    6AU     AUC 2877  19.537  20.051   7.251
    6AU     AUC 2878  19.845  20.047   7.244
    6AU     AUC 2879  19.525  19.241   7.269
    6AU     AUC 2880  19.829  19.237   7.252
    6AU    AUSL 2881  20.136  19.600   8.070
    6AU    AUSL 2882  20.005  19.214   8.044
    6AU     AUL 2883  20.395  19.394   8.197
    6AU       S 2884  20.303  18.909   8.306
    6AU     LIG 2885  20.368  18.549   8.590
    6AU     LIG 2886  20.444  18.137   8.819
    6AU     LIG 2887  20.609  17.721   8.978
    6AU     LIG 2888  20.662  17.337   9.263
    6AU     LIG 2889  20.821  17.175   9.680
    6AU     LIG 2890  21.008  17.046  10.101
    6AU       S 2891  20.182  19.499   8.661
    6AU     LIG 2892  20.348  19.428   9.094
    6AU     LIG 2893  20.547  19.138   9.419
    6AU     LIG 2894  20.842  18.980   9.762
    6AU     LIG 2895  21.254  19.032  10.005
    6AU     LIG 2896  21.541  19.056  10.384
    6AU     LIG 2897  21.626  19.127  10.846
    6AU    AUSL 2898  19.856  19.465   8.208
    6AU    AUSL 2899  19.576  19.797   8.196
    6AU     AUL 2900  19.673  19.631   8.500
    6AU       S 2901  20.040  19.303   8.589
    6AU     LIG 2902  20.212  18.975   8.884
    6AU     LIG 2903  20.165  18.800   9.332
    6AU     LIG 2904  20.289  18.698   9.786
    6AU     LIG 2905  20.407  18.579  10.237
    6AU     LIG 2906  20.363  18.646  10.707
    6AU     LIG 2907  20.599  18.784  11.100
    6AU       S 2908  19.199  19.830   8.653
    6AU     LIG 2909  19.088  19.810   9.115
    6AU     LIG 2910  19.099  19.531   9.506
    6AU     LIG 2911  19.035  19.413   9.958
    6AU     LIG 2912  18.949  19.627  10.384
    6AU     LIG 2913  18.772  19.963  10.693
    6AU     LIG 2914  18.573  20.228  11.050
    6AU    AUSL 2915  19.911  19.807   8.206
    6AU    AUSL 2916  20.259  19.902   7.945
    6AU     AUL 2917  20.334  19.732   8.248
    6AU       S 2918  20.091  19.844   8.672
    6AU     LIG 2919  20.142  20.265   8.908
    6AU     LIG 2920  20.225  20.492   9.328
    6AU     LIG 2921  20.165  20.562   9.813
    6AU     LIG 2922  20.282  20.578  10.282
    6AU     LIG 2923  20.326  20.595  10.748
    6AU     LIG 2924  20.676  20.496  11.040
    6AU       S 2925  20.641  20.108   8.165
    6AU     LIG 2926  21.005  20.030   8.408
    6AU     LIG 2927  21.171  20.174   8.805
    6AU     LIG 2928  21.456  20.444   9.064
    6AU     LIG 2929  21.719  20.621   9.407
    6AU     LIG 2930  22.108  20.686   9.682
    6AU     LIG 2931  22.386  21.005   9.898
    6AU    AUSL 2932  20.112  19.693   6.891
    6AU    AUSL 2933  19.964  20.046   6.940
    6AU     AUL 2934  20.034  19.985   6.591
    6AU       S 2935  20.211  19.546   6.366
    6AU     LIG 2936  20.445  19.232   6.134
    6AU     LIG 2937  20.669  19.043   5.780
    6AU     LIG 2938  20.812  19.101   5.338
    6AU     LIG 2939  21.097  19.201   4.973
    6AU     LIG 2940  21.453  19.051   4.682
    6AU     LIG 2941  21.755  19.074   4.310
    6AU       S 2942  20.447  20.252   6.690
    6AU     LIG 2943  20.742  20.373   6.352
    6AU     LIG 2944  20.965  20.610   6.002
    6AU     LIG 2945  21.152  20.769   5.590
    6AU     LIG 2946  21.164  20.954   5.157
    6AU     LIG 2947  21.373  21.233   4.850
    6AU     LIG 2948  21.329  21.518   4.479
    6AU    AUSL 2949  19.875  19.469   6.796
    6AU    AUSL 2950  20.162  19.377   7.017
    6AU     AUL 2951  20.370  19.519   6.834
    6AU       S 2952  20.323  19.061   6.620
    6AU     LIG 2953  20.554  18.771   6.327
    6AU     LIG 2954  20.800  18.371   6.251
    6AU     LIG 2955  21.069  18.067   6.017
    6AU     LIG 2956  21.419  18.025   5.693
    6AU     LIG 2957  21.826  17.982   5.443
    6AU     LIG 2958  22.155  17.826   5.132
    6AU       S 2959  19.948  19.323   6.404
    6AU     LIG 2960  20.007  18.972   6.132
    6AU     LIG 2961  20.173  18.927   5.699
    6AU     LIG 2962  20.319  18.936   5.229
    6AU     LIG 2963  20.306  18.772   4.761
    6AU     LIG 2964  20.386  18.690   4.291
    6AU     LIG 2965  20.705  18.610   3.936
    6AU    AUSL 2966  19.804  19.790   6.807
    6AU    AUSL 2967  19.531  19.477   6.785
    6AU     AUL 2968  19.694  19.826   6.543
    6AU       S 2969  19.472  19.241   6.409
    6AU     LIG 2970  19.493  19.008   6.015
    6AU     LIG 2971  19.239  18.879   5.637
    6AU     LIG 2972  19.000  18.749   5.245
    6AU     LIG 2973  18.744  18.600   4.865
    6AU     LIG 2974  18.580  18.506   4.422
    6AU     LIG 2975  18.447  18.605   3.963
    6AU       S 2976  19.994  19.463   6.412
    6AU     LIG 2977  20.038  19.425   5.899
    6AU     LIG 2978  20.353  19.378   5.520
    6AU     LIG 2979  20.510  19.425   5.056
    6AU     LIG 2980  20.577  19.680   4.633
    6AU     LIG 2981  20.578  19.982   4.238
    6AU     LIG 2982  20.680  20.094   3.775
    6AU    AUSL 2983  19.277  19.681   8.127
    6AU    AUSL 2984  19.454  20.085   8.071
    6AU     AUL 2985  19.588  19.993   8.389
    6AU       S 2986  19.034  19.712   8.496
    6AU     LIG 2987  18.744  19.540   8.851
    6AU     LIG 2988  18.689  19.308   9.277
    6AU     LIG 2989  18.471  19.160   9.683
    6AU     LIG 2990  18.097  19.164   9.996
    6AU     LIG 2991  17.712  19.192  10.282
    6AU     LIG 2992  17.532  19.417  10.666
    6AU       S 2993  19.167  20.262   8.426
    6AU     LIG 2994  19.111  20.359   8.880
    6AU     LIG 2995  18.962  20.660   9.220
    6AU     LIG 2996  18.742  20.829   9.605
    6AU     LIG 2997  18.684  21.169   9.934
    6AU     LIG 2998  18.458  21.502  10.193
    6AU     LIG 2999  18.125  21.763  10.424
    6AU    AUSL 3000  19.523  19.461   8.211
    6AU    AUSL 3001  19.153  19.413   7.962
    6AU     AUL 3002  19.204  19.288   8.279
    6AU       S 3003  18.851  18.929   8.110
    6AU     LIG 3004  18.442  18.697   8.117
    6AU     LIG 3005  18.084  18.451   8.343
    6AU     LIG 3006  17.755  18.164   8.561
    6AU     LIG 3007  17.441  17.863   8.758
    6AU     LIG 3008  17.060  17.844   9.029
    6AU     LIG 3009  16.813  17.913   9.425
    6AU       S 3010  19.221  19.560   8.691
    6AU     LIG 3011  19.162  19.279   9.052
    6AU     LIG 3012  19.098  19.016   9.441
    6AU     LIG 3013  18.905  18.913   9.853
    6AU     LIG 3014  18.759  18.672  10.237
    6AU     LIG 3015  18.627  18.562  10.679
    6AU     LIG 3016  18.671  18.456  11.136
    6AU    AUSL 3017  19.244  19.607   6.930
    6AU    AUSL 3018  19.399  19.222   6.957
    6AU     AUL 3019  19.110  19.367   6.762
    6AU       S 3020  19.248  19.516   6.310
    6AU     LIG 3021  19.046  19.275   5.940
    6AU     LIG 3022  18.809  19.161   5.519
    6AU     LIG 3023  18.532  19.000   5.146
    6AU     LIG 3024  18.140  18.962   4.841
    6AU     LIG 3025  17.831  19.083   4.469
    6AU     LIG 3026  17.687  19.395   4.110
    6AU       S 3027  19.025  18.856   6.798
    6AU     LIG 3028  18.766  18.449   6.778
    6AU     LIG 3029  18.457  18.183   6.523
    6AU     LIG 3030  18.127  17.989   6.214
    6AU     LIG 3031  18.006  17.811   5.774
    6AU     LIG 3032  18.048  17.574   5.342
    6AU     LIG 3033  18.002  17.330   4.922
    6AU    AUSL 3034  19.472  19.809   6.811
    6AU    AUSL 3035  19.150  19.906   7.058
    6AU     AUL 3036  19.066  19.768   6.716
    6AU       S 3037  18.932  20.244   6.690
    6AU     LIG 3038  18.731  20.303   6.253
    6AU     LIG 3039  18.513  20.553   5.900
    6AU     LIG 3040  18.283  20.557   5.478
    6AU     LIG 3041  17.878  20.558   5.224
    6AU     LIG 3042  17.448  20.729   5.105
    6AU     LIG 3043  17.166  21.087   4.966
    6AU       S 3044  19.453  19.449   6.377
    6AU     LIG 3045  19.520  19.496   5.891
    6AU     LIG 3046  19.289  19.376   5.486
    6AU     LIG 3047  19.105  19.389   5.042
    6AU     LIG 3048  19.159  19.609   4.596
    6AU     LIG 3049  19.077  19.858   4.180
    6AU     LIG 3050  18.776  20.059   3.851
    6AU    AUSL 3051  20.295  20.057   7.454
    6AU    AUSL 3052  20.254  19.930   7.089
    6AU     AUL 3053  20.368  20.366   7.321
    6AU       S 3054  20.593  19.996   6.817
    6AU     LIG 3055  20.995  19.986   6.586
    6AU     LIG 3056  21.212  20.181   6.209
    6AU     LIG 3057  21.438  20.446   5.893
    6AU     LIG 3058  21.730  20.546   5.542
    6AU     LIG 3059  22.146  20.705   5.394
    6AU     LIG 3060  22.464  20.972   5.198
    6AU       S 3061  20.834  20.134   7.389
    6AU     LIG 3062  21.324  20.138   7.503
    6AU     LIG 3063  21.814  20.183   7.487
    6AU     LIG 3064  22.242  20.382   7.537
    6AU     LIG 3065  22.409  20.830   7.556
    6AU     LIG 3066  22.838  21.019   7.544
    6AU     LIG 3067  23.033  21.428   7.488
    6AU    AUSL 3068  20.410  19.759   7.325
    6AU    AUSL 3069  20.401  19.488   7.609
    6AU     AUL 3070  20.703  19.478   7.363
    6AU       S 3071  20.810  19.956   7.264
    6AU     LIG 3072  21.220  19.882   7.078
    6AU     LIG 3073  21.659  19.757   7.250
    6AU     LIG 3074  22.151  19.778   7.238
    6AU     LIG 3075  22.623  19.822   7.220
    6AU     LIG 3076  22.955  20.005   6.919
    6AU     LIG 3077  23.354  20.242   6.820
    6AU       S 3078  20.765  19.012   7.641
    6AU     LIG 3079  21.088  18.843   7.886
    6AU     LIG 3080  21.527  18.738   7.883
    6AU     LIG 3081  21.975  18.679   7.878
    6AU     LIG 3082  22.419  18.669   7.937
    6AU     LIG 3083  22.888  18.658   7.945
    6AU     LIG 3084  23.299  18.704   8.157
    6AU    AUSL 3085  20.406  19.816   7.662
    6AU    AUSL 3086  20.148  20.147   7.747
    6AU     AUL 3087  20.443  20.220   7.708
    6AU       S 3088  20.477  20.242   8.203
    6AU     LIG 3089  20.804  20.510   8.452
    6AU     LIG 3090  21.162  20.685   8.709
    6AU     LIG 3091  21.438  20.989   8.962
    6AU     LIG 3092  21.546  21.468   9.000
    6AU     LIG 3093  21.725  21.926   8.936
    6AU     LIG 3094  22.135  22.205   8.985
    6AU       S 3095  20.850  19.915   7.632
    6AU     LIG 3096  21.250  19.727   7.800
    6AU     LIG 3097  21.712  19.784   7.793
    6AU     LIG 3098  22.177  19.891   7.736
    6AU     LIG 3099  22.664  19.957   7.760
    6AU     LIG 3100  23.068  19.819   8.027
    6AU     LIG 3101  23.474  20.043   8.209
    6AU    AUSL 3102  19.102  20.109   7.533
    6AU    AUSL 3103  19.166  19.939   7.943
    6AU     AUL 3104  19.030  20.369   7.798
    6AU       S 3105  18.896  20.083   8.233
    6AU     LIG 3106  18.734  20.075   8.683
    6AU     LIG 3107  18.588  20.384   9.007
    6AU     LIG 3108  18.358  20.516   9.408
    6AU     LIG 3109  17.983  20.546   9.719
    6AU     LIG 3110  17.632  20.726  10.004
    6AU     LIG 3111  17.302  20.986  10.234
    6AU       S 3112  18.595  20.242   7.596
    6AU     LIG 3113  18.269  20.546   7.500
    6AU     LIG 3114  17.980  20.872   7.515
    6AU     LIG 3115  17.670  21.135   7.738
    6AU     LIG 3116  17.305  21.424   7.883
    6AU     LIG 3117  16.930  21.699   7.771
    6AU     LIG 3118  16.441  21.710   7.794
    6AU    AUSL 3119  18.988  19.839   7.350
    6AU    AUSL 3120  19.245  20.184   7.239
    6AU     AUL 3121  18.907  20.146   7.203
    6AU       S 3122  18.450  20.058   7.401
    6AU     LIG 3123  18.120  20.245   7.120
    6AU     LIG 3124  17.730  20.519   7.040
    6AU     LIG 3125  17.314  20.736   6.941
    6AU     LIG 3126  16.882  20.578   6.819
    6AU     LIG 3127  16.450  20.766   6.707
    6AU     LIG 3128  15.979  20.817   6.593
    6AU       S 3129  18.980  20.474   6.821
    6AU     LIG 3130  18.705  20.729   6.536
    6AU     LIG 3131  18.674  21.001   6.160
    6AU     LIG 3132  18.615  21.467   6.096
    6AU     LIG 3133  18.406  21.877   6.102
    6AU     LIG 3134  18.005  22.066   5.951
    6AU     LIG 3135  17.729  22.441   5.845
    6AU    AUSL 3136  18.991  19.828   7.693
    6AU    AUSL 3137  18.955  19.509   7.350
    6AU     AUL 3138  18.709  19.664   7.543
    6AU       S 3139  18.541  19.191   7.327
    6AU     LIG 3140  18.181  19.361   7.695
    6AU     LIG 3141  17.720  19.454   7.744
    6AU     LIG 3142  17.319  19.221   7.700
    6AU     LIG 3143  16.897  19.047   7.560
    6AU     LIG 3144  16.466  18.862   7.528
    6AU     LIG 3145  16.049  18.917   7.323
    6AU       S 3146  18.591  20.041   7.846
    6AU     LIG 3147  18.152  20.222   7.881
    6AU     LIG 3148  17.736  20.390   8.081
    6AU     LIG 3149  17.277  20.327   8.210
    6AU     LIG 3150  16.806  20.329   8.280
    6AU     LIG 3151  16.371  20.406   8.103
    6AU     LIG 3152  15.962  20.624   8.000
    6AU    AUSL 3153  20.293  19.191   7.498
    6AU    AUSL 3154  20.252  19.356   7.872
    6AU     AUL 3155  20.587  19.425   7.832
    6AU       S 3156  20.505  18.809   7.469
    6AU     LIG 3157  20.778  18.494   7.677
    6AU     LIG 3158  21.242  18.405   7.616
    6AU     LIG 3159  21.716  18.388   7.533
    6AU     LIG 3160  22.111  18.136   7.457
    6AU     LIG 3161  22.458  17.805   7.533
    6AU     LIG 3162  22.812  17.676   7.814
    6AU       S 3163  20.474  18.937   8.065
    6AU     LIG 3164  20.799  18.740   8.328
    6AU     LIG 3165  20.847  18.339   8.561
    6AU     LIG 3166  20.994  18.081   8.928
    6AU     LIG 3167  21.344  18.036   9.262
    6AU     LIG 3168  21.744  17.920   9.495
    6AU     LIG 3169  22.051  17.945   9.856
    6AU    AUSL 3170  20.349  19.438   7.284
    6AU    AUSL 3171  20.117  19.104   7.214
    6AU     AUL 3172  20.485  19.229   7.106
    6AU       S 3173  20.611  18.978   7.508
    6AU     LIG 3174  21.021  18.765   7.306
    6AU     LIG 3175  21.451  18.653   7.182
    6AU     LIG 3176  21.907  18.619   7.081
    6AU     LIG 3177  22.352  18.549   7.081
    6AU     LIG 3178  22.778  18.351   7.073
    6AU     LIG 3179  23.194  18.549   7.029
    6AU       S 3180  20.341  18.831   6.832
    6AU     LIG 3181  20.520  18.424   6.708
    6AU     LIG 3182  20.653  18.000   6.587
    6AU     LIG 3183  20.822  17.686   6.297
    6AU     LIG 3184  20.971  17.246   6.196
    6AU     LIG 3185  21.294  16.916   6.092
    6AU     LIG 3186  21.719  16.753   5.949
    6AU    AUSL 3187  19.082  19.237   7.475
    6AU    AUSL 3188  19.142  19.360   7.124
    6AU     AUL 3189  18.854  19.493   7.070
    6AU       S 3190  18.836  18.976   6.963
    6AU     LIG 3191  18.424  18.840   6.795
    6AU     LIG 3192  18.106  18.561   6.585
    6AU     LIG 3193  17.774  18.339   6.342
    6AU     LIG 3194  17.610  18.084   5.990
    6AU     LIG 3195  17.348  18.104   5.593
    6AU     LIG 3196  17.110  18.275   5.216
    6AU       S 3197  18.728  19.066   7.432
    6AU     LIG 3198  18.274  18.846   7.599
    6AU     LIG 3199  17.784  18.951   7.567
    6AU     LIG 3200  17.325  18.740   7.520
    6AU     LIG 3201  16.879  18.506   7.589
    6AU     LIG 3202  16.483  18.254   7.756
    6AU     LIG 3203  16.074  18.001   7.805
    6AU    AUSL 3204  19.013  19.499   7.674
    6AU    AUSL 3205  19.211  19.130   7.768
    6AU     AUL 3206  18.846  19.348   7.846
    6AU       S 3207  18.942  18.801   7.781
    6AU     LIG 3208  18.655  18.477   7.699
    6AU     LIG 3209  18.280  18.265   7.879
    6AU     LIG 3210  18.051  17.963   8.171
    6AU     LIG 3211  17.832  17.650   8.467
    6AU     LIG 3212  17.553  17.343   8.717
    6AU     LIG 3213  17.199  16.998   8.726
    6AU       S 3214  18.574  19.200   7.441
    6AU     LIG 3215  18.062  19.250   7.229
    6AU     LIG 3216  17.580  19.384   7.253
    6AU     LIG 3217  17.090  19.482   7.331
    6AU     LIG 3218  16.783  19.534   7.695
    6AU     LIG 3219  16.338  19.346   7.757
    6AU     LIG 3220  16.065  18.951   7.860
    6AU    AUSL 3221  19.716  20.256   7.938
    6AU    AUSL 3222  19.315  20.185   7.782
    6AU     AUL 3223  19.387  20.457   7.976
    6AU       S 3224  19.056  20.272   8.299
    6AU     LIG 3225  18.777  20.577   8.547
    6AU     LIG 3226  18.708  20.940   8.852
    6AU     LIG 3227  18.638  21.425   8.942
    6AU     LIG 3228  18.455  21.884   8.982
    6AU     LIG 3229  18.128  22.225   9.107
    6AU     LIG 3230  17.666  22.362   9.179
    6AU       S 3231  19.768  20.759   8.079
    6AU     LIG 3232  19.990  20.922   8.418
    6AU     LIG 3233  20.048  21.339   8.554
    6AU     LIG 3234  20.022  21.729   8.800
    6AU     LIG 3235  20.020  21.917   9.242
    6AU     LIG 3236  19.947  22.253   9.564
    6AU     LIG 3237  19.880  22.714   9.649
    6AU    AUSL 3238  19.560  20.365   7.653
    6AU    AUSL 3239  19.850  20.379   7.336
    6AU     AUL 3240  19.393  20.602   7.448
    6AU       S 3241  19.672  20.856   7.798
    6AU     LIG 3242  19.698  21.254   8.112
    6AU     LIG 3243  19.743  21.684   8.307
    6AU     LIG 3244  19.500  22.095   8.348
    6AU     LIG 3245  19.454  22.508   8.547
    6AU     LIG 3246  19.580  22.959   8.629
    6AU     LIG 3247  19.330  23.353   8.682
    6AU       S 3248  20.001  20.786   7.270
    6AU     LIG 3249  20.270  21.109   7.082
    6AU     LIG 3250  20.329  21.504   6.825
    6AU     LIG 3251  20.588  21.899   6.702
    6AU     LIG 3252  20.810  22.288   6.513
    6AU     LIG 3253  20.889  22.755   6.507
    6AU     LIG 3254  21.033  23.217   6.497
    6AU    AUSL 3255  19.897  20.345   7.659
    6AU    AUSL 3256  19.980  20.079   8.036
    6AU     AUL 3257  20.088  20.414   7.934
    6AU       S 3258  20.278  20.211   8.350
    6AU     LIG 3259  20.586  20.127   8.704
    6AU     LIG 3260  20.773  20.445   8.990
    6AU     LIG 3261  21.064  20.737   9.222
    6AU     LIG 3262  21.344  21.001   9.500
    6AU     LIG 3263  21.357  21.228   9.928
    6AU     LIG 3264  21.323  21.461  10.344
    6AU       S 3265  19.904  20.833   7.749
    6AU     LIG 3266  20.177  21.150   7.991
    6AU     LIG 3267  20.310  21.582   8.183
    6AU     LIG 3268  20.653  21.934   8.273
    6AU     LIG 3269  20.885  22.357   8.394
    6AU     LIG 3270  21.009  22.815   8.444
    6AU     LIG 3271  20.956  23.255   8.311
    6AU    AUSL 3272  19.710  19.064   7.974
    6AU    AUSL 3273  20.108  19.077   7.748
    6AU     AUL 3274  19.933  18.824   7.985
    6AU       S 3275  19.546  18.511   8.081
    6AU     LIG 3276  19.305  18.117   8.196
    6AU     LIG 3277  19.149  17.682   8.244
    6AU     LIG 3278  19.174  17.224   8.380
    6AU     LIG 3279  18.980  16.870   8.646
    6AU     LIG 3280  18.984  16.650   9.081
    6AU     LIG 3281  19.239  16.517   9.455
    6AU       S 3282  20.429  18.790   7.953
    6AU     LIG 3283  20.516  18.372   8.121
    6AU     LIG 3284  20.550  17.963   8.344
    6AU     LIG 3285  20.585  17.523   8.501
    6AU     LIG 3286  20.856  17.291   8.787
    6AU     LIG 3287  21.070  16.944   8.990
    6AU     LIG 3288  21.523  16.819   9.059
    6AU    AUSL 3289  19.494  18.954   7.727
    6AU    AUSL 3290  19.427  19.227   7.997
    6AU     AUL 3291  19.423  18.993   8.153
    6AU       S 3292  19.344  18.533   7.876
    6AU     LIG 3293  19.090  18.199   7.733
    6AU     LIG 3294  19.102  17.750   7.716
    6AU     LIG 3295  18.989  17.316   7.903
    6AU     LIG 3296  18.794  16.930   8.146
    6AU     LIG 3297  18.688  16.515   8.372
    6AU     LIG 3298  18.687  16.067   8.489
    6AU       S 3299  18.999  18.858   7.949
    6AU     LIG 3300  18.892  18.428   8.151
    6AU     LIG 3301  18.529  18.186   8.330
    6AU     LIG 3302  18.227  17.995   8.654
    6AU     LIG 3303  17.923  17.779   8.958
    6AU     LIG 3304  17.850  17.530   9.362
    6AU     LIG 3305  17.835  17.273   9.767
    6AU    AUSL 3306  19.812  18.969   7.667
    6AU    AUSL 3307  19.523  18.911   7.395
    6AU     AUL 3308  19.876  18.702   7.599
    6AU       S 3309  19.229  18.560   7.403
    6AU     LIG 3310  18.905  18.238   7.263
    6AU     LIG 3311  18.902  17.757   7.225
    6AU     LIG 3312  18.927  17.298   7.037
    6AU     LIG 3313  18.907  16.847   6.841
    6AU     LIG 3314  18.781  16.369   6.805
    6AU     LIG 3315  18.764  15.895   6.722
    6AU       S 3316  19.477  18.565   7.828
    6AU     LIG 3317  19.580  18.078   7.769
    6AU     LIG 3318  19.554  17.608   7.929
    6AU     LIG 3319  19.715  17.155   8.073
    6AU     LIG 3320  19.996  16.735   8.121
    6AU     LIG 3321  20.064  16.258   8.166
    6AU     LIG 3322  20.118  15.840   8.379
    6AU    AUSL 3323  19.713  20.244   7.051
    6AU    AUSL 3324  20.092  20.184   7.220
    6AU     AUL 3325  20.016  20.384   6.941
    6AU       S 3326  19.773  20.811   6.966
    6AU     LIG 3327  19.961  21.136   6.673
    6AU     LIG 3328  20.076  21.464   6.357
    6AU     LIG 3329  20.050  21.622   5.901
    6AU     LIG 3330  19.973  21.964   5.577
    6AU     LIG 3331  19.990  22.436   5.522
    6AU     LIG 3332  19.966  22.901   5.392
    6AU       S 3333  20.510  20.156   6.907
    6AU     LIG 3334  20.919  20.409   6.852
    6AU     LIG 3335  21.183  20.616   6.490
    6AU     LIG 3336  21.375  20.951   6.185
    6AU     LIG 3337  21.575  21.427   6.157
    6AU     LIG 3338  21.763  21.905   6.118
    6AU     LIG 3339  22.046  22.263   5.916
    6AU    AUSL 3340  19.532  20.317   7.327
    6AU    AUSL 3341  19.427  20.097   6.966
    6AU     AUL 3342  19.410  20.469   7.063
    6AU       S 3343  19.803  20.781   7.252
    6AU     LIG 3344  19.791  21.280   7.142
    6AU     LIG 3345  19.820  21.641   6.802
    6AU     LIG 3346  19.703  22.104   6.640
    6AU     LIG 3347  19.558  22.584   6.558
    6AU     LIG 3348  19.409  23.001   6.362
    6AU     LIG 3349  19.085  23.348   6.381
    6AU       S 3350  19.228  20.291   6.616
    6AU     LIG 3351  19.136  20.612   6.276
    6AU     LIG 3352  18.989  20.728   5.836
    6AU     LIG 3353  18.775  20.744   5.401
    6AU     LIG 3354  18.720  20.970   4.969
    6AU     LIG 3355  18.625  21.381   4.758
    6AU     LIG 3356  18.307  21.716   4.660
    6AU    AUSL 3357  19.639  19.056   7.119
    6AU    AUSL 3358  19.283  19.085   7.249
    6AU     AUL 3359  19.506  18.882   6.942
    6AU       S 3360  18.982  18.824   7.092
    6AU     LIG 3361  18.578  18.629   7.226
    6AU     LIG 3362  18.300  18.325   7.007
    6AU     LIG 3363  17.993  18.063   6.725
    6AU     LIG 3364  17.659  17.826   6.453
    6AU     LIG 3365  17.271  17.519   6.373
    6AU     LIG 3366  17.032  17.131   6.187
    6AU       S 3367  19.392  18.577   7.309
    6AU     LIG 3368  19.253  18.349   6.915
    6AU     LIG 3369  19.145  17.915   6.802
    6AU     LIG 3370  19.195  17.470   6.628
    6AU     LIG 3371  19.203  17.030   6.430
    6AU     LIG 3372  19.222  16.792   6.002
    6AU     LIG 3373  19.330  16.580   5.580
    6AU    AUSL 3374  19.857  18.943   7.344
    6AU    AUSL 3375  19.899  19.174   6.955
    6AU     AUL 3376  19.893  18.792   7.063
    6AU       S 3377  19.543  18.480   7.317
    6AU     LIG 3378  19.367  18.020   7.302
    6AU     LIG 3379  19.373  17.560   7.124
    6AU     LIG 3380  19.407  17.102   6.925
    6AU     LIG 3381  19.658  16.699   6.796
    6AU     LIG 3382  19.952  16.295   6.793
    6AU     LIG 3383  20.162  15.860   6.724
    6AU       S 3384  20.109  18.942   6.637
    6AU     LIG 3385  20.105  18.549   6.420
    6AU     LIG 3386  20.323  18.192   6.237
    6AU     LIG 3387  20.569  17.949   5.921
    6AU     LIG 3388  20.657  17.745   5.493
    6AU     LIG 3389  20.925  17.528   5.169
    6AU     LIG 3390  21.119  17.374   4.766
    7AU     AUC 3391  41.862  17.479   7.507
    7AU     AUC 3392  42.106  17.475   7.343
    7AU     AUC 3393  42.118  17.476   7.652
    7AU     AUC 3394  41.605  17.482   7.359
    7AU     AUC 3395  41.616  17.488   7.669
    7AU     AUC 3396  41.712  17.731   7.508
    7AU     AUC 3397  42.019  17.728   7.499
    7AU     AUC 3398  41.700  17.229   7.516
    7AU     AUC 3399  42.014  17.227   7.503
    7AU     AUC 3400  41.869  17.328   7.759
    7AU     AUC 3401  41.874  17.637   7.756
    7AU     AUC 3402  41.851  17.323   7.255
    7AU     AUC 3403  41.856  17.632   7.254
    7AU     AUC 3404  42.344  17.471   7.185
    7AU     AUC 3405  42.359  17.467   7.489
    7AU     AUC 3406  42.367  17.471   7.792
    7AU     AUC 3407  41.360  17.482   7.216
    7AU     AUC 3408  41.362  17.496   7.517
    7AU     AUC 3409  41.378  17.499   7.824
    7AU     AUC 3410  41.568  17.977   7.508
    7AU     AUC 3411  41.872  17.977   7.501
    7AU     AUC 3412  42.172  17.968   7.492
    7AU     AUC 3413  41.548  16.992   7.525
    7AU     AUC 3414  41.849  16.983   7.523
    7AU     AUC 3415  42.157  16.982   7.500
    7AU     AUC 3416  41.872  17.180   8.001
    7AU     AUC 3417  41.878  17.478   8.005
    7AU     AUC 3418  41.887  17.787   7.997
    7AU     AUC 3419  41.843  17.170   7.017
    7AU     AUC 3420  41.848  17.471   7.007
    7AU     AUC 3421  41.851  17.779   7.010
    7AU     AUC 3422  42.121  17.320   7.901
    7AU     AUC 3423  42.129  17.627   7.902
    7AU     AUC 3424  42.093  17.320   7.096
    7AU     AUC 3425  42.103  17.628   7.098
    7AU     AUC 3426  41.616  17.338   7.916
    7AU     AUC 3427  41.631  17.642   7.918
    7AU     AUC 3428  41.602  17.322   7.111
    7AU     AUC 3429  41.601  17.630   7.108
    7AU     AUC 3430  42.265  17.721   7.341
    7AU     AUC 3431  42.276  17.719   7.648
    7AU     AUC 3432  41.456  17.733   7.357
    7AU     AUC 3433  41.470  17.742   7.669
    7AU     AUC 3434  42.250  17.217   7.336
    7AU     AUC 3435  42.265  17.220   7.643
    7AU     AUC 3436  41.454  17.233   7.365
    7AU     AUC 3437  41.453  17.245   7.667
    7AU     AUC 3438  41.727  17.889   7.758
    7AU     AUC 3439  42.032  17.882   7.749
    7AU     AUC 3440  41.701  17.087   7.764
    7AU     AUC 3441  42.017  17.076   7.758
    7AU     AUC 3442  41.708  17.881   7.252
    7AU     AUC 3443  42.016  17.878   7.247
    7AU     AUC 3444  41.695  17.073   7.273
    7AU     AUC 3445  42.000  17.068   7.259
    7AU    AUSL 3446  42.305  17.434   8.077
    7AU    AUSL 3447  42.169  17.046   8.051
    7AU     AUL 3448  42.552  17.211   8.210
    7AU       S 3449  42.468  16.720   8.315
    7AU     LIG 3450  42.401  16.261   8.479
    7AU     LIG 3451  42.375  15.823   8.685
    7AU     LIG 3452  42.549  15.521   8.999
    7AU     LIG 3453  42.873  15.355   9.299
    7AU     LIG 3454  43.047  15.045   9.607
    7AU     LIG 3455  42.981  14.848  10.048
    7AU       S 3456  42.346  17.361   8.659
    7AU     LIG 3457  42.617  17.251   9.009
    7AU     LIG 3458  42.847  16.959   9.296
    7AU     LIG 3459  43.178  16.876   9.628
    7AU     LIG 3460  43.449  16.983   9.999
    7AU     LIG 3461  43.715  17.042  10.372
    7AU     LIG 3462  44.085  17.133  10.624
    7AU    AUSL 3463  42.021  17.301   8.213
    7AU    AUSL 3464  41.745  17.630   8.200
    7AU     AUL 3465  41.831  17.461   8.508
    7AU       S 3466  42.207  17.143   8.603
    7AU     LIG 3467  42.398  16.801   8.879
    7AU     LIG 3468  42.430  16.642   9.343
    7AU     LIG 3469  42.372  16.497   9.815
    7AU     LIG 3470  42.425  16.438  10.301
    7AU     LIG 3471  42.556  16.561  10.755
    7AU     LIG 3472  42.695  16.664  11.205
    7AU       S 3473  41.358  17.668   8.656
    7AU     LIG 3474  41.152  17.667   9.090
    7AU     LIG 3475  41.120  17.408   9.498
    7AU     LIG 3476  41.116  17.287   9.957
    7AU     LIG 3477  41.278  17.437  10.398
    7AU     LIG 3478  41.317  17.756  10.760
    7AU     LIG 3479  41.129  18.070  11.077
    7AU    AUSL 3480  42.081  17.642   8.208
    7AU    AUSL 3481  42.424  17.738   7.950
    7AU     AUL 3482  42.527  17.559   8.232
    7AU       S 3483  42.259  17.679   8.654
    7AU     LIG 3484  42.273  18.042   8.972
    7AU     LIG 3485  42.369  18.245   9.401
    7AU     LIG 3486  42.308  18.372   9.866
    7AU     LIG 3487  42.336  18.326  10.340
    7AU     LIG 3488  42.520  18.200  10.757
    7AU     LIG 3489  42.551  18.014  11.204
    7AU       S 3490  42.796  17.970   8.206
    7AU     LIG 3491  43.170  17.939   8.491
    7AU     LIG 3492  43.405  18.022   8.884
    7AU     LIG 3493  43.691  18.284   9.149
    7AU     LIG 3494  44.027  18.278   9.500
    7AU     LIG 3495  44.429  18.438   9.703
    7AU     LIG 3496  44.728  18.670   9.977
    7AU    AUSL 3497  42.286  17.523   6.898
    7AU    AUSL 3498  42.139  17.876   6.945
    7AU     AUL 3499  42.214  17.811   6.596
    7AU       S 3500  42.393  17.366   6.375
    7AU     LIG 3501  42.577  17.017   6.126
    7AU     LIG 3502  42.772  16.931   5.703
    7AU     LIG 3503  42.927  17.054   5.266
    7AU     LIG 3504  43.314  17.119   4.967
    7AU     LIG 3505  43.699  17.095   4.655
    7AU     LIG 3506  43.924  17.156   4.222
    7AU       S 3507  42.618  18.091   6.706
    7AU     LIG 3508  42.914  18.178   6.371
    7AU     LIG 3509  43.139  18.391   6.018
    7AU     LIG 3510  43.358  18.631   5.675
    7AU     LIG 3511  43.553  18.803   5.278
    7AU     LIG 3512  43.507  19.185   5.008
    7AU     LIG 3513  43.407  19.487   4.655
    7AU    AUSL 3514  42.049  17.299   6.802
    7AU    AUSL 3515  42.334  17.207   7.025
    7AU     AUL 3516  42.544  17.348   6.844
    7AU       S 3517  42.504  16.884   6.638
    7AU     LIG 3518  42.740  16.569   6.371
    7AU     LIG 3519  42.939  16.132   6.291
    7AU     LIG 3520  43.239  15.852   6.036
    7AU     LIG 3521  43.614  15.756   5.736
    7AU     LIG 3522  43.983  15.720   5.415
    7AU     LIG 3523  44.328  15.703   5.085
    7AU       S 3524  42.136  17.157   6.433
    7AU     LIG 3525  42.104  16.831   6.151
    7AU     LIG 3526  42.272  16.794   5.724
    7AU     LIG 3527  42.462  16.800   5.283
    7AU     LIG 3528  42.515  16.808   4.816
    7AU     LIG 3529  42.656  16.628   4.405
    7AU     LIG 3530  42.663  16.683   3.935
    7AU    AUSL 3531  41.978  17.621   6.811
    7AU    AUSL 3532  41.705  17.307   6.789
    7AU     AUL 3533  41.869  17.659   6.548
    7AU       S 3534  41.660  17.073   6.415
    7AU     LIG 3535  41.603  16.831   6.038
    7AU     LIG 3536  41.382  16.769   5.638
    7AU     LIG 3537  41.178  16.795   5.214
    7AU     LIG 3538  40.931  16.616   4.851
    7AU     LIG 3539  40.915  16.384   4.435
    7AU     LIG 3540  40.852  16.416   3.975
    7AU       S 3541  42.166  17.298   6.412
    7AU     LIG 3542  42.183  17.281   5.918
    7AU     LIG 3543  42.424  17.262   5.505
    7AU     LIG 3544  42.515  17.290   5.028
    7AU     LIG 3545  42.554  17.550   4.611
    7AU     LIG 3546  42.558  17.851   4.227
    7AU     LIG 3547  42.777  18.112   3.893
    7AU    AUSL 3548  41.445  17.517   8.128
    7AU    AUSL 3549  41.619  17.916   8.074
    7AU     AUL 3550  41.749  17.829   8.393
    7AU       S 3551  41.203  17.557   8.486
    7AU     LIG 3552  40.872  17.376   8.778
    7AU     LIG 3553  40.770  17.179   9.193
    7AU     LIG 3554  40.664  17.155   9.657
    7AU     LIG 3555  40.284  17.122   9.972
    7AU     LIG 3556  39.995  17.193  10.356
    7AU     LIG 3557  39.910  17.050  10.800
    7AU       S 3558  41.323  18.098   8.427
    7AU     LIG 3559  41.217  18.245   8.862
    7AU     LIG 3560  41.072  18.475   9.261
    7AU     LIG 3561  40.923  18.614   9.690
    7AU     LIG 3562  40.873  18.877  10.087
    7AU     LIG 3563  40.682  19.216  10.353
    7AU     LIG 3564  40.333  19.503  10.500
    7AU    AUSL 3565  41.688  17.296   8.214
    7AU    AUSL 3566  41.320  17.248   7.963
    7AU     AUL 3567  41.367  17.126   8.282
    7AU       S 3568  41.032  16.751   8.111
    7AU     LIG 3569  40.665  16.501   8.152
    7AU     LIG 3570  40.294  16.325   8.342
    7AU     LIG 3571  39.951  16.107   8.572
    7AU     LIG 3572  39.743  15.846   8.902
    7AU     LIG 3573  39.429  15.778   9.243
    7AU     LIG 3574  39.047  15.709   9.515
    7AU       S 3575  41.372  17.404   8.691
    7AU     LIG 3576  41.271  17.153   9.058
    7AU     LIG 3577  41.138  16.896   9.430
    7AU     LIG 3578  40.985  16.782   9.851
    7AU     LIG 3579  40.872  16.487  10.206
    7AU     LIG 3580  40.865  16.369  10.665
    7AU     LIG 3581  41.000  16.471  11.110
    7AU    AUSL 3582  41.417  17.437   6.931
    7AU    AUSL 3583  41.572  17.053   6.961
    7AU     AUL 3584  41.286  17.195   6.760
    7AU       S 3585  41.436  17.352   6.313
    7AU     LIG 3586  41.190  17.140   5.966
    7AU     LIG 3587  40.919  17.032   5.588
    7AU     LIG 3588  40.645  16.865   5.223
    7AU     LIG 3589  40.280  16.799   4.903
    7AU     LIG 3590  39.906  16.970   4.634
    7AU     LIG 3591  39.638  17.134   4.267
    7AU       S 3592  41.199  16.686   6.800
    7AU     LIG 3593  40.987  16.253   6.805
    7AU     LIG 3594  40.698  15.946   6.584
    7AU     LIG 3595  40.376  15.868   6.245
    7AU     LIG 3596  40.172  15.623   5.895
    7AU     LIG 3597  40.220  15.456   5.443
    7AU     LIG 3598  40.319  15.368   4.977
    7AU    AUSL 3599  41.646  17.638   6.813
    7AU    AUSL 3600  41.322  17.737   7.057
    7AU     AUL 3601  41.240  17.596   6.716
    7AU       S 3602  41.093  18.069   6.694
    7AU     LIG 3603  40.898  18.134   6.259
    7AU     LIG 3604  40.684  18.356   5.888
    7AU     LIG 3605  40.375  18.366   5.504
    7AU     LIG 3606  40.110  18.529   5.128
    7AU     LIG 3607  39.676  18.681   4.972
    7AU     LIG 3608  39.344  19.010   4.850
    7AU       S 3609  41.636  17.278   6.375
    7AU     LIG 3610  41.668  17.305   5.872
    7AU     LIG 3611  41.389  17.254   5.474
    7AU     LIG 3612  41.255  17.273   5.009
    7AU     LIG 3613  41.287  17.464   4.556
    7AU     LIG 3614  41.240  17.770   4.179
    7AU     LIG 3615  41.003  18.050   3.859
    7AU    AUSL 3616  42.465  17.887   7.461
    7AU    AUSL 3617  42.426  17.760   7.098
    7AU     AUL 3618  42.535  18.196   7.343
    7AU       S 3619  42.757  17.832   6.825
    7AU     LIG 3620  43.159  17.791   6.603
    7AU     LIG 3621  43.383  17.968   6.228
    7AU     LIG 3622  43.589  18.186   5.864
    7AU     LIG 3623  43.817  18.437   5.555
    7AU     LIG 3624  44.081  18.678   5.272
    7AU     LIG 3625  44.443  18.837   5.015
    7AU       S 3626  43.004  17.973   7.371
    7AU     LIG 3627  43.498  18.089   7.439
    7AU     LIG 3628  44.006  18.096   7.526
    7AU     LIG 3629  44.509  18.138   7.577
    7AU     LIG 3630  44.957  18.357   7.500
    7AU     LIG 3631   0.125  18.826   7.471
    7AU     LIG 3632   0.144  19.307   7.427
    7AU    AUSL 3633  42.581  17.588   7.333
    7AU    AUSL 3634  42.571  17.317   7.618
    7AU     AUL 3635  42.871  17.303   7.375
    7AU       S 3636  42.981  17.779   7.265
    7AU     LIG 3637  43.390  17.746   7.078
    7AU     LIG 3638  43.850  17.730   7.196
    7AU     LIG 3639  44.337  17.794   7.231
    7AU     LIG 3640  44.818  17.943   7.208
    7AU     LIG 3641   0.245  18.175   7.064
    7AU     LIG 3642   0.682  18.314   6.855
    7AU       S 3643  42.949  16.834   7.635
    7AU     LIG 3644  43.397  16.659   7.728
    7AU     LIG 3645  43.855  16.464   7.746
    7AU     LIG 3646  44.286  16.227   7.769
    7AU     LIG 3647  44.719  16.215   7.973
    7AU     LIG 3648   0.095  16.356   8.246
    7AU     LIG 3649   0.574  16.332   8.313
    7AU    AUSL 3650  42.576  17.645   7.671
    7AU    AUSL 3651  42.318  17.987   7.752
    7AU     AUL 3652  42.630  18.032   7.722
    7AU       S 3653  42.625  18.092   8.214
    7AU     LIG 3654  42.920  18.387   8.475
    7AU     LIG 3655  43.332  18.495   8.700
    7AU     LIG 3656  43.642  18.782   8.930
    7AU     LIG 3657  43.860  19.219   8.960
    7AU     LIG 3658  44.060  19.666   9.017
    7AU     LIG 3659  44.329  20.059   9.133
    7AU       S 3660  43.038  17.745   7.613
    7AU     LIG 3661  43.494  17.602   7.584
    7AU     LIG 3662  43.966  17.604   7.685
    7AU     LIG 3663  44.442  17.606   7.698
    7AU     LIG 3664  44.881  17.766   7.719
    7AU     LIG 3665   0.252  18.035   7.824
    7AU     LIG 3666   0.634  18.265   7.919
    7AU    AUSL 3667  41.273  17.943   7.533
    7AU    AUSL 3668  41.332  17.773   7.941
    7AU     AUL 3669  41.203  18.207   7.795
    7AU       S 3670  41.053  17.923   8.228
    7AU     LIG 3671  40.885  17.896   8.680
    7AU     LIG 3672  40.727  18.169   9.029
    7AU     LIG 3673  40.526  18.401   9.407
    7AU     LIG 3674  40.159  18.498   9.734
    7AU     LIG 3675  39.843  18.674  10.070
    7AU     LIG 3676  39.529  19.008  10.210
    7AU       S 3677  40.765  18.077   7.600
    7AU     LIG 3678  40.556  18.447   7.434
    7AU     LIG 3679  40.316  18.848   7.418
    7AU     LIG 3680  39.939  19.131   7.404
    7AU     LIG 3681  39.610  19.461   7.397
    7AU     LIG 3682  39.278  19.591   7.670
    7AU     LIG 3683  38.835  19.726   7.577
    7AU    AUSL 3684  41.160  17.672   7.348
    7AU    AUSL 3685  41.417  18.015   7.238
    7AU     AUL 3686  41.083  17.983   7.207
    7AU       S 3687  40.622  17.908   7.387
    7AU     LIG 3688  40.380  18.157   7.037
    7AU     LIG 3689  40.009  18.378   6.787
    7AU     LIG 3690  39.605  18.616   6.599
    7AU     LIG 3691  39.149  18.806   6.526
    7AU     LIG 3692  38.693  18.637   6.586
    7AU     LIG 3693  38.231  18.523   6.728
    7AU       S 3694  41.151  18.303   6.819
    7AU     LIG 3695  40.918  18.574   6.519
    7AU     LIG 3696  40.856  18.812   6.115
    7AU     LIG 3697  40.692  19.219   5.909
    7AU     LIG 3698  40.391  19.606   5.845
    7AU     LIG 3699  40.025  19.933   5.775
    7AU     LIG 3700  39.643  20.231   5.829
    7AU    AUSL 3701  41.158  17.662   7.691
    7AU    AUSL 3702  41.126  17.342   7.350
    7AU     AUL 3703  40.874  17.506   7.527
    7AU       S 3704  40.709  16.998   7.334
    7AU     LIG 3705  40.326  17.048   7.733
    7AU     LIG 3706  39.867  16.992   7.865
    7AU     LIG 3707  39.462  16.846   7.643
    7AU     LIG 3708  39.087  16.741   7.347
    7AU     LIG 3709  38.609  16.674   7.267
    7AU     LIG 3710  38.173  16.684   7.039
    7AU       S 3711  40.759  17.876   7.841
    7AU     LIG 3712  40.442  18.102   8.127
    7AU     LIG 3713  39.955  18.218   8.223
    7AU     LIG 3714  39.456  18.335   8.245
    7AU     LIG 3715  38.983  18.442   8.272
    7AU     LIG 3716  38.510  18.381   8.254
    7AU     LIG 3717  38.167  18.730   8.258
    7AU    AUSL 3718  42.463  17.019   7.506
    7AU    AUSL 3719  42.419  17.188   7.881
    7AU     AUL 3720  42.757  17.238   7.840
    7AU       S 3721  42.674  16.632   7.473
    7AU     LIG 3722  42.957  16.339   7.734
    7AU     LIG 3723  43.382  16.153   7.646
    7AU     LIG 3724  43.813  15.999   7.530
    7AU     LIG 3725  44.234  15.820   7.450
    7AU     LIG 3726  44.517  15.457   7.431
    7AU     LIG 3727  44.940  15.325   7.526
    7AU       S 3728  42.641  16.755   8.073
    7AU     LIG 3729  42.872  16.381   8.291
    7AU     LIG 3730  42.855  15.994   8.574
    7AU     LIG 3731  43.036  15.698   8.905
    7AU     LIG 3732  43.405  15.669   9.211
    7AU     LIG 3733  43.811  15.818   9.444
    7AU     LIG 3734  44.237  15.793   9.662
    7AU    AUSL 3735  42.519  17.268   7.293
    7AU    AUSL 3736  42.288  16.933   7.222
    7AU     AUL 3737  42.656  17.061   7.115
    7AU       S 3738  42.777  16.799   7.510
    7AU     LIG 3739  43.157  16.529   7.292
    7AU     LIG 3740  43.636  16.433   7.281
    7AU     LIG 3741  44.124  16.343   7.291
    7AU     LIG 3742  44.538  16.128   7.181
    7AU     LIG 3743  44.979  16.202   7.038
    7AU     LIG 3744   0.353  16.298   6.755
    7AU       S 3745  42.520  16.647   6.855
    7AU     LIG 3746  42.611  16.193   6.706
    7AU     LIG 3747  42.675  15.736   6.568
    7AU     LIG 3748  42.717  15.267   6.487
    7AU     LIG 3749  43.015  14.876   6.407
    7AU     LIG 3750  43.308  14.561   6.168
    7AU     LIG 3751  43.661  14.251   6.022
    7AU    AUSL 3752  41.250  17.069   7.478
    7AU    AUSL 3753  41.312  17.191   7.125
    7AU     AUL 3754  41.018  17.317   7.073
    7AU       S 3755  41.015  16.803   6.966
    7AU     LIG 3756  40.653  16.644   6.754
    7AU     LIG 3757  40.443  16.373   6.455
    7AU     LIG 3758  40.037  16.256   6.268
    7AU     LIG 3759  39.806  15.961   6.037
    7AU     LIG 3760  39.529  15.810   5.705
    7AU     LIG 3761  39.230  15.728   5.351
    7AU       S 3762  40.906  16.903   7.431
    7AU     LIG 3763  40.590  16.632   7.675
    7AU     LIG 3764  40.184  16.563   7.886
    7AU     LIG 3765  39.728  16.440   7.826
    7AU     LIG 3766  39.273  16.356   7.647
    7AU     LIG 3767  38.865  16.129   7.477
    7AU     LIG 3768  38.655  15.682   7.430
    7AU    AUSL 3769  41.177  17.333   7.676
    7AU    AUSL 3770  41.378  16.963   7.771
    7AU     AUL 3771  41.014  17.174   7.852
    7AU       S 3772  41.112  16.625   7.780
    7AU     LIG 3773  40.882  16.236   7.716
    7AU     LIG 3774  40.460  16.113   7.875
    7AU     LIG 3775  40.200  15.851   8.176
    7AU     LIG 3776  40.001  15.589   8.526
    7AU     LIG 3777  39.761  15.244   8.764
    7AU     LIG 3778  39.586  14.771   8.783
    7AU       S 3779  40.733  17.045   7.446
    7AU     LIG 3780  40.230  17.129   7.256
    7AU     LIG 3781  39.759  17.223   7.405
    7AU     LIG 3782  39.260  17.252   7.419
    7AU     LIG 3783  38.841  17.100   7.603
    7AU     LIG 3784  38.540  16.801   7.761
    7AU     LIG 3785  38.255  16.628   8.079
    7AU    AUSL 3786  41.879  18.090   7.938
    7AU    AUSL 3787  41.485  18.018   7.784
    7AU     AUL 3788  41.561  18.290   7.987
    7AU       S 3789  41.217  18.101   8.295
    7AU     LIG 3790  40.875  18.364   8.483
    7AU     LIG 3791  40.829  18.657   8.840
    7AU     LIG 3792  40.739  19.091   9.013
    7AU     LIG 3793  40.497  19.501   9.087
    7AU     LIG 3794  40.174  19.843   9.176
    7AU     LIG 3795  39.898  20.226   9.248
    7AU       S 3796  41.926  18.624   8.061
    7AU     LIG 3797  42.126  18.940   8.335
    7AU     LIG 3798  42.142  19.338   8.575
    7AU     LIG 3799  42.209  19.726   8.807
    7AU     LIG 3800  42.228  19.951   9.199
    7AU     LIG 3801  41.977  20.218   9.476
    7AU     LIG 3802  41.734  20.537   9.715
    7AU    AUSL 3803  41.725  18.200   7.651
    7AU    AUSL 3804  42.020  18.210   7.337
    7AU     AUL 3805  41.548  18.426   7.430
    7AU       S 3806  41.820  18.691   7.768
    7AU     LIG 3807  41.782  19.110   7.995
    7AU     LIG 3808  42.055  19.473   8.094
    7AU     LIG 3809  42.070  19.877   8.322
    7AU     LIG 3810  41.752  20.217   8.330
    7AU     LIG 3811  41.469  20.579   8.503
    7AU     LIG 3812  41.325  20.994   8.683
    7AU       S 3813  42.181  18.613   7.275
    7AU     LIG 3814  42.439  18.960   7.112
    7AU     LIG 3815  42.541  19.316   6.821
    7AU     LIG 3816  42.436  19.770   6.689
    7AU     LIG 3817  42.576  20.241   6.593
    7AU     LIG 3818  42.769  20.707   6.516
    7AU     LIG 3819  43.019  21.137   6.430
    7AU    AUSL 3820  42.062  18.177   7.661
    7AU    AUSL 3821  42.144  17.915   8.037
    7AU     AUL 3822  42.237  18.255   7.945
    7AU       S 3823  42.432  18.038   8.352
    7AU     LIG 3824  42.713  17.981   8.723
    7AU     LIG 3825  42.963  18.265   8.993
    7AU     LIG 3826  43.256  18.567   9.217
    7AU     LIG 3827  43.388  18.898   9.545
    7AU     LIG 3828  43.405  19.172   9.953
    7AU     LIG 3829  43.285  19.473  10.315
    7AU       S 3830  42.052  18.667   7.743
    7AU     LIG 3831  42.264  19.047   7.835
    7AU     LIG 3832  42.507  19.250   8.177
    7AU     LIG 3833  42.525  19.648   8.398
    7AU     LIG 3834  42.492  20.093   8.551
    7AU     LIG 3835  42.623  20.546   8.627
    7AU     LIG 3836  42.675  20.964   8.857
    7AU    AUSL 3837  41.875  16.899   7.981
    7AU    AUSL 3838  42.276  16.909   7.756
    7AU     AUL 3839  42.094  16.661   7.997
    7AU       S 3840  41.704  16.354   8.105
    7AU     LIG 3841  41.546  15.930   8.219
    7AU     LIG 3842  41.569  15.483   8.341
    7AU     LIG 3843  41.694  15.078   8.486
    7AU     LIG 3844  41.645  14.735   8.793
    7AU     LIG 3845  41.622  14.486   9.197
    7AU     LIG 3846  41.752  14.345   9.633
    7AU       S 3847  42.585  16.623   7.950
    7AU     LIG 3848  42.514  16.163   7.983
    7AU     LIG 3849  42.557  15.763   8.213
    7AU     LIG 3850  42.746  15.476   8.525
    7AU     LIG 3851  42.937  15.172   8.829
    7AU     LIG 3852  43.200  14.832   9.029
    7AU     LIG 3853  43.573  14.536   8.976
    7AU    AUSL 3854  41.662  16.787   7.733
    7AU    AUSL 3855  41.592  17.062   8.000
    7AU     AUL 3856  41.587  16.836   8.161
    7AU       S 3857  41.522  16.360   7.882
    7AU     LIG 3858  41.330  15.976   7.758
    7AU     LIG 3859  41.204  15.577   7.981
    7AU     LIG 3860  41.218  15.099   8.134
    7AU     LIG 3861  40.987  14.629   8.150
    7AU     LIG 3862  40.788  14.148   8.151
    7AU     LIG 3863  40.757  13.675   8.286
    7AU       S 3864  41.173  16.684   7.946
    7AU     LIG 3865  41.117  16.246   8.163
    7AU     LIG 3866  40.730  16.007   8.305
    7AU     LIG 3867  40.417  15.894   8.646
    7AU     LIG 3868  40.215  15.654   9.002
    7AU     LIG 3869  40.219  15.501   9.455
    7AU     LIG 3870  40.211  15.372   9.914
    7AU    AUSL 3871  41.979  16.804   7.675
    7AU    AUSL 3872  41.693  16.743   7.401
    7AU     AUL 3873  42.047  16.538   7.612
    7AU       S 3874  41.408  16.397   7.414
    7AU     LIG 3875  41.134  16.082   7.287
    7AU     LIG 3876  41.215  15.669   7.105
    7AU     LIG 3877  41.360  15.249   6.944
    7AU     LIG 3878  41.410  14.832   6.724
    7AU     LIG 3879  41.456  14.346   6.661
    7AU     LIG 3880  41.423  13.848   6.683
    7AU       S 3881  41.644  16.412   7.842
    7AU     LIG 3882  41.847  15.975   7.805
    7AU     LIG 3883  41.706  15.556   7.847
    7AU     LIG 3884  41.906  15.165   8.026
    7AU     LIG 3885  42.121  14.742   8.137
    7AU     LIG 3886  42.203  14.250   8.169
    7AU     LIG 3887  42.161  13.764   8.208
    7AU    AUSL 3888  41.885  18.072   7.052
    7AU    AUSL 3889  42.265  18.017   7.224
    7AU     AUL 3890  42.177  18.216   6.937
    7AU       S 3891  41.947  18.651   6.991
    7AU     LIG 3892  42.071  19.038   6.763
    7AU     LIG 3893  42.175  19.372   6.466
    7AU     LIG 3894  42.201  19.520   6.015
    7AU     LIG 3895  42.348  19.761   5.634
    7AU     LIG 3896  42.249  20.169   5.426
    7AU     LIG 3897  41.975  20.541   5.314
    7AU       S 3898  42.680  17.998   6.923
    7AU     LIG 3899  43.104  18.217   6.873
    7AU     LIG 3900  43.364  18.403   6.505
    7AU     LIG 3901  43.585  18.642   6.144
    7AU     LIG 3902  43.791  19.049   5.970
    7AU     LIG 3903  43.971  19.513   5.956
    7AU     LIG 3904  44.164  19.961   5.942
    7AU    AUSL 3905  41.704  18.145   7.326
    7AU    AUSL 3906  41.599  17.926   6.966
    7AU     AUL 3907  41.586  18.296   7.053
    7AU       S 3908  41.975  18.599   7.262
    7AU     LIG 3909  41.969  19.085   7.272
    7AU     LIG 3910  42.114  19.483   7.039
    7AU     LIG 3911  41.933  19.872   6.822
    7AU     LIG 3912  41.691  20.286   6.707
    7AU     LIG 3913  41.456  20.704   6.616
    7AU     LIG 3914  41.192  21.049   6.401
    7AU       S 3915  41.391  18.116   6.613
    7AU     LIG 3916  41.325  18.414   6.246
    7AU     LIG 3917  41.170  18.536   5.808
    7AU     LIG 3918  41.016  18.806   5.431
    7AU     LIG 3919  40.939  19.083   5.026
    7AU     LIG 3920  40.688  19.281   4.663
    7AU     LIG 3921  40.351  19.596   4.547
    7AU    AUSL 3922  41.810  16.887   7.125
    7AU    AUSL 3923  41.454  16.917   7.253
    7AU     AUL 3924  41.678  16.713   6.947
    7AU       S 3925  41.158  16.652   7.097
    7AU     LIG 3926  40.765  16.445   7.231
    7AU     LIG 3927  40.477  16.192   6.972
    7AU     LIG 3928  40.157  15.999   6.699
    7AU     LIG 3929  39.946  15.648   6.435
    7AU     LIG 3930  39.755  15.210   6.323
    7AU     LIG 3931  39.471  14.905   6.074
    7AU       S 3932  41.564  16.402   7.306
    7AU     LIG 3933  41.483  16.109   6.922
    7AU     LIG 3934  41.579  15.679   6.730
    7AU     LIG 3935  41.571  15.286   6.459
    7AU     LIG 3936  41.612  14.875   6.239
    7AU     LIG 3937  41.670  14.592   5.869
    7AU     LIG 3938  41.914  14.342   5.535
    7AU    AUSL 3939  42.027  16.774   7.352
    7AU    AUSL 3940  42.071  17.003   6.962
    7AU     AUL 3941  42.062  16.624   7.069
    7AU       S 3942  41.716  16.318   7.330
    7AU     LIG 3943  41.631  15.862   7.350
    7AU     LIG 3944  41.789  15.469   7.151
    7AU     LIG 3945  41.853  15.115   6.842
    7AU     LIG 3946  41.891  14.673   6.651
    7AU     LIG 3947  41.957  14.190   6.611
    7AU     LIG 3948  42.319  13.882   6.535
    7AU       S 3949  42.291  16.763   6.645
    7AU     LIG 3950  42.259  16.398   6.387
    7AU     LIG 3951  42.445  16.020   6.208
    7AU     LIG 3952  42.733  15.702   6.010
    7AU     LIG 3953  42.837  15.493   5.580
    7AU     LIG 3954  42.992  15.383   5.117
    7AU     LIG 3955  43.229  15.255   4.711
    8AU     AUC 3956  40.659  25.889   7.497
    8AU     AUC 3957  40.908  25.882   7.341
    8AU     AUC 3958  40.910  25.887   7.651
    8AU     AUC 3959  40.409  25.891   7.341
    8AU     AUC 3960  40.408  25.900   7.651
    8AU     AUC 3961  40.511  26.142   7.492
    8AU     AUC 3962  40.818  26.137   7.492
    8AU     AUC 3963  40.498  25.638   7.503
    8AU     AUC 3964  40.812  25.636   7.501
    8AU     AUC 3965  40.657  25.739   7.751
    8AU     AUC 3966  40.663  26.049   7.745
    8AU     AUC 3967  40.656  25.730   7.247
    8AU     AUC 3968  40.662  26.040   7.244
    8AU     AUC 3969  41.150  25.877   7.189
    8AU     AUC 3970  41.157  25.876   7.494
    8AU     AUC 3971  41.154  25.884   7.799
    8AU     AUC 3972  40.167  25.893   7.191
    8AU     AUC 3973  40.162  25.907   7.493
    8AU     AUC 3974  40.164  25.912   7.796
    8AU     AUC 3975  40.370  26.390   7.489
    8AU     AUC 3976  40.673  26.387   7.487
    8AU     AUC 3977  40.972  26.376   7.488
    8AU     AUC 3978  40.347  25.401   7.510
    8AU     AUC 3979  40.649  25.391   7.518
    8AU     AUC 3980  40.957  25.393   7.507
    8AU     AUC 3981  40.652  25.595   7.995
    8AU     AUC 3982  40.652  25.893   7.994
    8AU     AUC 3983  40.667  26.200   7.986
    8AU     AUC 3984  40.653  25.574   7.010
    8AU     AUC 3985  40.657  25.875   6.998
    8AU     AUC 3986  40.663  26.185   6.998
    8AU     AUC 3987  40.903  25.737   7.903
    8AU     AUC 3988  40.913  26.039   7.900
    8AU     AUC 3989  40.901  25.725   7.095
    8AU     AUC 3990  40.912  26.033   7.093
    8AU     AUC 3991  40.399  25.747   7.896
    8AU     AUC 3992  40.411  26.055   7.898
    8AU     AUC 3993  40.408  25.729   7.097
    8AU     AUC 3994  40.411  26.038   7.089
    8AU     AUC 3995  41.066  26.127   7.339
    8AU     AUC 3996  41.070  26.127   7.648
    8AU     AUC 3997  40.262  26.145   7.336
    8AU     AUC 3998  40.267  26.156   7.648
    8AU     AUC 3999  41.052  25.625   7.341
    8AU     AUC 4000  41.059  25.634   7.650
    8AU     AUC 4001  40.255  25.643   7.347
    8AU     AUC 4002  40.246  25.655   7.645
    8AU     AUC 4003  40.524  26.302   7.743
    8AU     AUC 4004  40.827  26.292   7.741
    8AU     AUC 4005  40.495  25.495   7.750
    8AU     AUC 4006  40.809  25.492   7.760
    8AU     AUC 4007  40.513  26.290   7.236
    8AU     AUC 4008  40.821  26.286   7.238
    8AU     AUC 4009  40.499  25.479   7.264
    8AU     AUC 4010  40.805  25.475   7.258
    8AU    AUSL 4011  41.072  25.851   8.090
    8AU    AUSL 4012  40.950  25.488   8.064
    8AU     AUL 4013  41.347  25.744   8.205
    8AU       S 4014  41.211  25.244   8.357
    8AU     LIG 4015  41.165  24.830   8.540
    8AU     LIG 4016  41.335  24.454   8.752
    8AU     LIG 4017  41.578  24.167   9.034
    8AU     LIG 4018  41.849  23.899   9.321
    8AU     LIG 4019  41.894  23.620   9.716
    8AU     LIG 4020  41.830  23.477  10.169
    8AU       S 4021  41.097  25.631   8.629
    8AU     LIG 4022  41.315  25.497   9.019
    8AU     LIG 4023  41.576  25.321   9.379
    8AU     LIG 4024  41.835  25.280   9.772
    8AU     LIG 4025  42.202  25.469  10.027
    8AU     LIG 4026  42.592  25.468  10.306
    8AU     LIG 4027  42.830  25.308  10.688
    8AU    AUSL 4028  40.772  25.742   8.222
    8AU    AUSL 4029  40.508  26.034   8.189
    8AU     AUL 4030  40.674  26.172   8.465
    8AU       S 4031  40.840  25.544   8.575
    8AU     LIG 4032  40.926  25.193   8.869
    8AU     LIG 4033  41.152  25.045   9.271
    8AU     LIG 4034  41.354  24.968   9.719
    8AU     LIG 4035  41.344  24.816  10.188
    8AU     LIG 4036  41.466  24.740  10.647
    8AU     LIG 4037  41.690  24.897  11.036
    8AU       S 4038  40.408  25.817   8.713
    8AU     LIG 4039  40.258  25.835   9.148
    8AU     LIG 4040  39.982  25.677   9.493
    8AU     LIG 4041  39.880  25.720   9.958
    8AU     LIG 4042  39.917  26.029  10.340
    8AU     LIG 4043  39.932  26.320  10.735
    8AU     LIG 4044  39.678  26.423  11.130
    8AU    AUSL 4045  40.837  26.063   8.191
    8AU    AUSL 4046  41.219  26.137   7.960
    8AU     AUL 4047  41.141  26.066   8.351
    8AU       S 4048  40.922  25.866   8.765
    8AU     LIG 4049  41.165  26.238   8.997
    8AU     LIG 4050  41.285  26.548   9.370
    8AU     LIG 4051  41.309  26.762   9.821
    8AU     LIG 4052  41.354  26.916  10.290
    8AU     LIG 4053  41.324  26.901  10.765
    8AU     LIG 4054  41.435  26.670  11.165
    8AU       S 4055  41.612  26.216   8.137
    8AU     LIG 4056  41.981  26.236   8.396
    8AU     LIG 4057  42.158  26.405   8.788
    8AU     LIG 4058  42.440  26.648   9.093
    8AU     LIG 4059  42.768  26.609   9.465
    8AU     LIG 4060  43.141  26.687   9.769
    8AU     LIG 4061  43.489  26.980   9.946
    8AU    AUSL 4062  41.100  25.923   6.899
    8AU    AUSL 4063  40.951  26.281   6.936
    8AU     AUL 4064  41.025  26.208   6.586
    8AU       S 4065  41.216  25.763   6.382
    8AU     LIG 4066  41.414  25.440   6.128
    8AU     LIG 4067  41.599  25.316   5.721
    8AU     LIG 4068  41.728  25.418   5.283
    8AU     LIG 4069  42.091  25.387   4.972
    8AU     LIG 4070  42.475  25.335   4.684
    8AU     LIG 4071  42.725  25.428   4.290
    8AU       S 4072  41.437  26.474   6.695
    8AU     LIG 4073  41.726  26.612   6.359
    8AU     LIG 4074  41.964  26.827   6.016
    8AU     LIG 4075  42.095  26.937   5.581
    8AU     LIG 4076  42.055  27.267   5.241
    8AU     LIG 4077  42.175  27.663   5.020
    8AU     LIG 4078  42.275  27.956   4.674
    8AU    AUSL 4079  40.860  25.698   6.800
    8AU    AUSL 4080  41.145  25.612   7.032
    8AU     AUL 4081  41.358  25.750   6.857
    8AU       S 4082  41.320  25.293   6.639
    8AU     LIG 4083  41.496  24.977   6.324
    8AU     LIG 4084  41.777  24.598   6.223
    8AU     LIG 4085  42.043  24.258   6.005
    8AU     LIG 4086  42.302  24.017   5.684
    8AU     LIG 4087  42.627  24.065   5.333
    8AU     LIG 4088  43.030  24.142   5.076
    8AU       S 4089  40.920  25.544   6.418
    8AU     LIG 4090  40.960  25.200   6.155
    8AU     LIG 4091  41.110  25.172   5.730
    8AU     LIG 4092  41.274  25.157   5.288
    8AU     LIG 4093  41.231  24.965   4.856
    8AU     LIG 4094  41.264  24.950   4.387
    8AU     LIG 4095  41.415  24.960   3.940
    8AU    AUSL 4096  40.799  26.022   6.802
    8AU    AUSL 4097  40.511  25.706   6.778
    8AU     AUL 4098  40.690  26.023   6.529
    8AU       S 4099  40.440  25.548   6.374
    8AU     LIG 4100  40.384  25.313   5.994
    8AU     LIG 4101  40.024  25.269   5.678
    8AU     LIG 4102  39.842  25.187   5.235
    8AU     LIG 4103  39.823  24.869   4.842
    8AU     LIG 4104  39.839  24.796   4.358
    8AU     LIG 4105  39.842  25.042   3.945
    8AU       S 4106  41.018  25.671   6.432
    8AU     LIG 4107  41.004  25.662   5.922
    8AU     LIG 4108  41.247  25.632   5.501
    8AU     LIG 4109  41.316  25.641   5.019
    8AU     LIG 4110  41.328  25.825   4.562
    8AU     LIG 4111  41.388  26.028   4.129
    8AU     LIG 4112  41.637  26.148   3.734
    8AU    AUSL 4113  40.200  25.922   8.097
    8AU    AUSL 4114  40.403  26.331   8.058
    8AU     AUL 4115  40.301  26.192   8.377
    8AU       S 4116  40.086  25.821   8.637
    8AU     LIG 4117  39.879  25.551   8.964
    8AU     LIG 4118  39.593  25.371   9.280
    8AU     LIG 4119  39.308  25.251   9.634
    8AU     LIG 4120  39.112  25.326  10.038
    8AU     LIG 4121  38.910  25.450  10.436
    8AU     LIG 4122  38.608  25.402  10.796
    8AU       S 4123  40.045  26.604   8.349
    8AU     LIG 4124  40.136  26.877   8.722
    8AU     LIG 4125  40.044  27.015   9.160
    8AU     LIG 4126  39.793  27.143   9.542
    8AU     LIG 4127  39.604  27.227   9.978
    8AU     LIG 4128  39.394  27.551  10.262
    8AU     LIG 4129  39.161  27.847  10.559
    8AU    AUSL 4130  40.445  25.700   8.188
    8AU    AUSL 4131  40.122  25.647   7.923
    8AU     AUL 4132  40.057  25.559   8.214
    8AU       S 4133  39.794  25.105   8.008
    8AU     LIG 4134  39.396  24.884   8.131
    8AU     LIG 4135  39.024  24.654   8.327
    8AU     LIG 4136  38.643  24.419   8.535
    8AU     LIG 4137  38.316  24.398   8.873
    8AU     LIG 4138  38.133  24.121   9.213
    8AU     LIG 4139  38.197  24.000   9.671
    8AU       S 4140  40.361  25.617   8.613
    8AU     LIG 4141  40.371  25.355   8.989
    8AU     LIG 4142  40.084  25.203   9.337
    8AU     LIG 4143  39.813  25.227   9.744
    8AU     LIG 4144  39.574  25.032  10.137
    8AU     LIG 4145  39.569  24.866  10.609
    8AU     LIG 4146  39.499  24.945  11.084
    8AU    AUSL 4147  40.211  25.849   6.900
    8AU    AUSL 4148  40.383  25.455   6.961
    8AU     AUL 4149  40.119  25.527   6.767
    8AU       S 4150  40.097  25.749   6.334
    8AU     LIG 4151  39.705  25.800   6.069
    8AU     LIG 4152  39.618  25.630   5.652
    8AU     LIG 4153  39.359  25.461   5.303
    8AU     LIG 4154  38.950  25.344   5.063
    8AU     LIG 4155  38.738  25.332   4.628
    8AU     LIG 4156  38.768  25.528   4.179
    8AU       S 4157  39.987  25.034   6.876
    8AU     LIG 4158  39.697  24.668   6.838
    8AU     LIG 4159  39.332  24.492   6.586
    8AU     LIG 4160  39.068  24.263   6.267
    8AU     LIG 4161  39.042  24.231   5.797
    8AU     LIG 4162  39.003  23.937   5.434
    8AU     LIG 4163  39.004  23.658   5.046
    8AU    AUSL 4164  40.472  26.040   6.807
    8AU    AUSL 4165  40.125  26.151   7.031
    8AU     AUL 4166  40.182  26.123   6.660
    8AU       S 4167  39.803  26.439   6.746
    8AU     LIG 4168  39.495  26.475   6.427
    8AU     LIG 4169  39.427  26.522   5.967
    8AU     LIG 4170  39.314  26.767   5.578
    8AU     LIG 4171  39.074  26.832   5.173
    8AU     LIG 4172  38.713  27.048   4.944
    8AU     LIG 4173  38.424  27.425   4.922
    8AU       S 4174  40.345  25.747   6.337
    8AU     LIG 4175  40.179  25.754   5.845
    8AU     LIG 4176  40.057  25.690   5.387
    8AU     LIG 4177  39.975  25.813   4.944
    8AU     LIG 4178  39.878  26.143   4.613
    8AU     LIG 4179  39.793  26.272   4.163
    8AU     LIG 4180  39.769  26.343   3.692
    8AU    AUSL 4181  41.264  26.299   7.457
    8AU    AUSL 4182  41.234  26.166   7.098
    8AU     AUL 4183  41.328  26.616   7.317
    8AU       S 4184  41.581  26.226   6.837
    8AU     LIG 4185  41.951  26.200   6.564
    8AU     LIG 4186  42.199  26.403   6.214
    8AU     LIG 4187  42.450  26.682   5.915
    8AU     LIG 4188  42.793  26.748   5.584
    8AU     LIG 4189  43.215  26.886   5.402
    8AU     LIG 4190  43.593  27.107   5.204
    8AU       S 4191  41.787  26.382   7.402
    8AU     LIG 4192  42.262  26.419   7.498
    8AU     LIG 4193  42.739  26.507   7.518
    8AU     LIG 4194  43.198  26.621   7.525
    8AU     LIG 4195  43.509  26.994   7.494
    8AU     LIG 4196  43.692  27.455   7.488
    8AU     LIG 4197  43.965  27.865   7.458
    8AU    AUSL 4198  41.383  25.995   7.339
    8AU    AUSL 4199  41.361  25.729   7.631
    8AU     AUL 4200  41.673  25.712   7.407
    8AU       S 4201  41.780  26.189   7.294
    8AU     LIG 4202  42.155  26.191   7.053
    8AU     LIG 4203  42.591  26.116   7.210
    8AU     LIG 4204  43.053  26.174   7.254
    8AU     LIG 4205  43.505  26.239   7.344
    8AU     LIG 4206  43.918  26.332   7.140
    8AU     LIG 4207  44.312  26.501   6.934
    8AU       S 4208  41.729  25.224   7.666
    8AU     LIG 4209  42.060  24.948   7.839
    8AU     LIG 4210  42.530  24.810   7.804
    8AU     LIG 4211  43.010  24.697   7.738
    8AU     LIG 4212  43.500  24.767   7.779
    8AU     LIG 4213  43.858  24.771   8.087
    8AU     LIG 4214  44.280  24.970   8.080
    8AU    AUSL 4215  41.364  26.061   7.673
    8AU    AUSL 4216  41.116  26.382   7.753
    8AU     AUL 4217  41.383  26.482   7.705
    8AU       S 4218  41.518  26.401   8.157
    8AU     LIG 4219  41.836  26.724   8.370
    8AU     LIG 4220  42.138  26.908   8.701
    8AU     LIG 4221  42.464  27.193   8.890
    8AU     LIG 4222  42.698  27.622   8.836
    8AU     LIG 4223  42.820  28.094   8.818
    8AU     LIG 4224  42.752  28.486   9.071
    8AU       S 4225  41.795  26.174   7.656
    8AU     LIG 4226  42.168  26.117   7.901
    8AU     LIG 4227  42.611  26.070   7.751
    8AU     LIG 4228  43.076  26.159   7.760
    8AU     LIG 4229  43.529  26.130   7.856
    8AU     LIG 4230  43.960  26.181   8.018
    8AU     LIG 4231  44.311  26.472   8.120
    8AU    AUSL 4232  40.081  26.351   7.524
    8AU    AUSL 4233  40.118  26.195   7.898
    8AU     AUL 4234  40.021  26.645   7.693
    8AU       S 4235  39.820  26.337   8.158
    8AU     LIG 4236  39.555  26.426   8.554
    8AU     LIG 4237  39.392  26.429   9.008
    8AU     LIG 4238  39.073  26.551   9.345
    8AU     LIG 4239  38.799  26.848   9.610
    8AU     LIG 4240  38.393  26.952   9.857
    8AU     LIG 4241  38.013  27.163  10.057
    8AU       S 4242  39.568  26.442   7.690
    8AU     LIG 4243  39.342  26.813   7.477
    8AU     LIG 4244  39.109  27.203   7.654
    8AU     LIG 4245  38.803  27.597   7.717
    8AU     LIG 4246  38.466  27.969   7.762
    8AU     LIG 4247  38.037  28.007   7.568
    8AU     LIG 4248  37.720  28.147   7.243
    8AU    AUSL 4249  39.989  26.093   7.325
    8AU    AUSL 4250  40.215  26.422   7.222
    8AU     AUL 4251  39.869  26.399   7.247
    8AU       S 4252  39.423  26.275   7.492
    8AU     LIG 4253  39.332  26.486   7.049
    8AU     LIG 4254  39.051  26.608   6.695
    8AU     LIG 4255  38.575  26.645   6.726
    8AU     LIG 4256  38.128  26.779   6.883
    8AU     LIG 4257  37.647  26.870   6.834
    8AU     LIG 4258  37.168  26.986   6.712
    8AU       S 4259  39.905  26.724   6.870
    8AU     LIG 4260  39.683  26.958   6.535
    8AU     LIG 4261  39.800  27.280   6.197
    8AU     LIG 4262  39.740  27.740   6.085
    8AU     LIG 4263  39.350  28.003   5.936
    8AU     LIG 4264  38.946  28.293   5.882
    8AU     LIG 4265  38.649  28.680   5.896
    8AU    AUSL 4266  39.940  26.067   7.646
    8AU    AUSL 4267  39.927  25.768   7.329
    8AU     AUL 4268  39.732  26.031   7.203
    8AU       S 4269  39.494  25.575   7.423
    8AU     LIG 4270  39.039  25.533   7.670
    8AU     LIG 4271  38.580  25.399   7.763
    8AU     LIG 4272  38.187  25.685   7.706
    8AU     LIG 4273  37.869  25.578   7.383
    8AU     LIG 4274  37.664  25.168   7.300
    8AU     LIG 4275  37.360  24.932   7.007
    8AU       S 4276  39.572  26.108   7.782
    8AU     LIG 4277  39.303  26.329   8.107
    8AU     LIG 4278  39.011  26.566   8.366
    8AU     LIG 4279  38.536  26.657   8.361
    8AU     LIG 4280  38.075  26.673   8.189
    8AU     LIG 4281  37.655  26.940   8.159
    8AU     LIG 4282  37.305  27.230   8.330
    8AU    AUSL 4283  41.260  25.428   7.519
    8AU    AUSL 4284  41.212  25.615   7.901
    8AU     AUL 4285  41.557  25.648   7.841
    8AU       S 4286  41.453  25.042   7.536
    8AU     LIG 4287  41.710  24.673   7.559
    8AU     LIG 4288  42.145  24.524   7.555
    8AU     LIG 4289  42.582  24.372   7.541
    8AU     LIG 4290  43.007  24.203   7.550
    8AU     LIG 4291  43.405  23.963   7.570
    8AU     LIG 4292  43.832  23.777   7.680
    8AU       S 4293  41.379  25.253   8.192
    8AU     LIG 4294  41.654  24.956   8.479
    8AU     LIG 4295  41.836  24.557   8.700
    8AU     LIG 4296  42.079  24.240   8.959
    8AU     LIG 4297  42.366  24.008   9.238
    8AU     LIG 4298  42.760  24.086   9.502
    8AU     LIG 4299  43.126  24.176   9.800
    8AU    AUSL 4300  41.323  25.673   7.305
    8AU    AUSL 4301  41.095  25.341   7.231
    8AU     AUL 4302  41.464  25.465   7.131
    8AU       S 4303  41.580  25.200   7.521
    8AU     LIG 4304  42.014  25.003   7.319
    8AU     LIG 4305  42.468  24.831   7.290
    8AU     LIG 4306  42.907  24.636   7.240
    8AU     LIG 4307  43.358  24.515   7.348
    8AU     LIG 4308  43.775  24.592   7.214
    8AU     LIG 4309  44.174  24.439   7.032
    8AU       S 4310  41.335  25.060   6.855
    8AU     LIG 4311  41.486  24.631   6.701
    8AU     LIG 4312  41.616  24.208   6.521
    8AU     LIG 4313  41.840  23.870   6.278
    8AU     LIG 4314  42.151  23.636   6.009
    8AU     LIG 4315  42.481  23.306   5.918
    8AU     LIG 4316  42.854  23.015   5.911
    8AU    AUSL 4317  40.041  25.487   7.459
    8AU    AUSL 4318  40.121  25.604   7.114
    8AU     AUL 4319  39.828  25.680   7.032
    8AU       S 4320  39.799  25.175   7.003
    8AU     LIG 4321  39.375  25.094   6.828
    8AU     LIG 4322  38.985  24.866   6.713
    8AU     LIG 4323  38.708  24.557   6.478
    8AU     LIG 4324  38.456  24.439   6.105
    8AU     LIG 4325  38.207  24.632   5.735
    8AU     LIG 4326  38.065  24.568   5.301
    8AU       S 4327  39.644  25.384   7.424
    8AU     LIG 4328  39.351  25.127   7.667
    8AU     LIG 4329  38.894  25.010   7.603
    8AU     LIG 4330  38.414  24.892   7.679
    8AU     LIG 4331  37.945  24.783   7.564
    8AU     LIG 4332  37.605  24.548   7.781
    8AU     LIG 4333  37.397  24.139   7.923
    8AU    AUSL 4334  39.963  25.747   7.656
    8AU    AUSL 4335  40.174  25.360   7.740
    8AU     AUL 4336  39.839  25.567   7.867
    8AU       S 4337  39.900  25.018   7.690
    8AU     LIG 4338  39.605  24.658   7.720
    8AU     LIG 4339  39.171  24.502   7.843
    8AU     LIG 4340  38.832  24.245   8.077
    8AU     LIG 4341  38.655  23.925   8.367
    8AU     LIG 4342  38.311  23.563   8.426
    8AU     LIG 4343  38.040  23.346   8.759
    8AU       S 4344  39.513  25.662   7.503
    8AU     LIG 4345  39.131  25.361   7.210
    8AU     LIG 4346  38.676  25.334   7.239
    8AU     LIG 4347  38.254  25.264   7.385
    8AU     LIG 4348  37.986  25.231   7.764
    8AU     LIG 4349  37.567  25.082   7.853
    8AU     LIG 4350  37.132  25.088   8.039
    8AU    AUSL 4351  40.674  26.497   7.924
    8AU    AUSL 4352  40.287  26.446   7.768
    8AU     AUL 4353  40.391  26.710   7.983
    8AU       S 4354  39.943  26.579   8.181
    8AU     LIG 4355  39.687  26.919   8.471
    8AU     LIG 4356  39.718  27.250   8.821
    8AU     LIG 4357  39.519  27.651   9.020
    8AU     LIG 4358  39.183  28.010   9.081
    8AU     LIG 4359  38.824  28.358   9.082
    8AU     LIG 4360  38.611  28.806   9.040
    8AU       S 4361  40.746  27.061   8.004
    8AU     LIG 4362  40.792  27.407   8.338
    8AU     LIG 4363  40.839  27.813   8.601
    8AU     LIG 4364  40.999  28.178   8.845
    8AU     LIG 4365  41.272  28.536   9.021
    8AU     LIG 4366  41.429  28.817   9.369
    8AU     LIG 4367  41.316  29.079   9.752
    8AU    AUSL 4368  40.537  26.610   7.628
    8AU    AUSL 4369  40.819  26.618   7.330
    8AU     AUL 4370  40.347  26.829   7.426
    8AU       S 4371  40.657  27.099   7.721
    8AU     LIG 4372  40.512  27.516   7.921
    8AU     LIG 4373  40.692  27.914   8.122
    8AU     LIG 4374  40.692  28.287   8.404
    8AU     LIG 4375  40.450  28.699   8.454
    8AU     LIG 4376  40.281  29.095   8.609
    8AU     LIG 4377  40.317  29.510   8.445
    8AU       S 4378  40.945  27.047   7.223
    8AU     LIG 4379  41.157  27.370   6.949
    8AU     LIG 4380  41.250  27.717   6.636
    8AU     LIG 4381  41.297  28.189   6.540
    8AU     LIG 4382  41.414  28.642   6.434
    8AU     LIG 4383  41.478  29.120   6.440
    8AU     LIG 4384  41.486  29.584   6.571
    8AU    AUSL 4385  40.875  26.587   7.655
    8AU    AUSL 4386  40.941  26.325   8.033
    8AU     AUL 4387  41.020  26.646   7.994
    8AU       S 4388  41.387  26.478   8.278
    8AU     LIG 4389  41.593  26.428   8.706
    8AU     LIG 4390  41.805  26.688   9.039
    8AU     LIG 4391  42.096  27.014   9.232
    8AU     LIG 4392  42.207  27.314   9.599
    8AU     LIG 4393  42.206  27.626   9.979
    8AU     LIG 4394  42.247  27.961  10.324
    8AU       S 4395  40.918  27.045   7.706
    8AU     LIG 4396  41.023  27.477   7.867
    8AU     LIG 4397  41.189  27.711   8.233
    8AU     LIG 4398  41.170  28.152   8.338
    8AU     LIG 4399  41.338  28.549   8.479
    8AU     LIG 4400  41.264  29.004   8.544
    8AU     LIG 4401  41.255  29.419   8.756
    8AU    AUSL 4402  40.671  25.310   7.981
    8AU    AUSL 4403  41.071  25.337   7.777
    8AU     AUL 4404  40.911  25.075   7.993
    8AU       S 4405  40.518  24.773   8.094
    8AU     LIG 4406  40.315  24.374   8.216
    8AU     LIG 4407  40.052  24.008   8.231
    8AU     LIG 4408  40.074  23.574   8.405
    8AU     LIG 4409  40.207  23.241   8.719
    8AU     LIG 4410  40.437  22.954   9.031
    8AU     LIG 4411  40.455  22.472   9.025
    8AU       S 4412  41.408  25.120   8.029
    8AU     LIG 4413  41.552  24.709   8.045
    8AU     LIG 4414  41.585  24.333   8.309
    8AU     LIG 4415  41.796  24.016   8.592
    8AU     LIG 4416  42.056  23.714   8.879
    8AU     LIG 4417  42.261  23.281   9.012
    8AU     LIG 4418  42.588  22.921   9.018
    8AU    AUSL 4419  40.464  25.195   7.723
    8AU    AUSL 4420  40.380  25.455   7.979
    8AU     AUL 4421  40.341  25.243   8.141
    8AU       S 4422  40.309  24.748   7.869
    8AU     LIG 4423  40.055  24.332   7.764
    8AU     LIG 4424  39.865  23.864   7.779
    8AU     LIG 4425  39.693  23.481   8.058
    8AU     LIG 4426  39.541  22.985   8.120
    8AU     LIG 4427  39.670  22.561   8.372
    8AU     LIG 4428  39.578  22.074   8.398
    8AU       S 4429  39.964  25.066   7.876
    8AU     LIG 4430  39.876  24.639   8.143
    8AU     LIG 4431  39.481  24.376   8.255
    8AU     LIG 4432  39.108  24.173   8.512
    8AU     LIG 4433  38.819  23.994   8.853
    8AU     LIG 4434  38.866  23.770   9.261
    8AU     LIG 4435  38.906  23.709   9.729
    8AU    AUSL 4436  40.786  25.213   7.679
    8AU    AUSL 4437  40.494  25.150   7.390
    8AU     AUL 4438  40.842  24.941   7.605
    8AU       S 4439  40.246  24.780   7.392
    8AU     LIG 4440  39.894  24.519   7.315
    8AU     LIG 4441  39.866  24.045   7.277
    8AU     LIG 4442  39.874  23.616   7.040
    8AU     LIG 4443  39.776  23.167   6.902
    8AU     LIG 4444  39.765  22.719   6.737
    8AU     LIG 4445  39.551  22.488   6.415
    8AU       S 4446  40.441  24.821   7.840
    8AU     LIG 4447  40.572  24.341   7.772
    8AU     LIG 4448  40.376  23.899   7.819
    8AU     LIG 4449  40.302  23.420   7.954
    8AU     LIG 4450  40.417  22.925   8.020
    8AU     LIG 4451  40.669  22.578   8.281
    8AU     LIG 4452  40.825  22.256   8.596
    8AU    AUSL 4453  40.695  26.478   7.035
    8AU    AUSL 4454  41.063  26.420   7.221
    8AU     AUL 4455  41.010  26.621   6.949
    8AU       S 4456  40.741  27.036   6.904
    8AU     LIG 4457  40.807  27.411   6.565
    8AU     LIG 4458  41.044  27.603   6.169
    8AU     LIG 4459  41.180  28.074   6.046
    8AU     LIG 4460  41.255  28.549   5.954
    8AU     LIG 4461  41.290  28.903   5.618
    8AU     LIG 4462  41.175  28.930   5.146
    8AU       S 4463  41.500  26.387   6.924
    8AU     LIG 4464  41.918  26.624   6.849
    8AU     LIG 4465  42.181  26.837   6.495
    8AU     LIG 4466  42.394  27.149   6.184
    8AU     LIG 4467  42.648  27.583   6.118
    8AU     LIG 4468  42.863  28.026   5.996
    8AU     LIG 4469  42.915  28.409   5.693
    8AU    AUSL 4470  40.503  26.557   7.302
    8AU    AUSL 4471  40.405  26.333   6.948
    8AU     AUL 4472  40.387  26.692   7.022
    8AU       S 4473  40.748  27.020   7.215
    8AU     LIG 4474  40.680  27.500   7.078
    8AU     LIG 4475  40.500  27.800   6.737
    8AU     LIG 4476  40.541  28.313   6.674
    8AU     LIG 4477  40.584  28.813   6.574
    8AU     LIG 4478  40.635  29.282   6.453
    8AU     LIG 4479  40.320  29.602   6.292
    8AU       S 4480  40.079  26.614   6.631
    8AU     LIG 4481  40.023  26.796   6.198
    8AU     LIG 4482  39.784  26.880   5.797
    8AU     LIG 4483  39.755  26.848   5.309
    8AU     LIG 4484  39.683  27.067   4.892
    8AU     LIG 4485  39.555  27.451   4.637
    8AU     LIG 4486  39.351  27.845   4.480
    8AU    AUSL 4487  40.622  25.289   7.118
    8AU    AUSL 4488  40.251  25.325   7.247
    8AU     AUL 4489  40.473  25.127   6.932
    8AU       S 4490  39.930  25.054   7.163
    8AU     LIG 4491  39.503  24.865   7.265
    8AU     LIG 4492  39.193  24.554   7.079
    8AU     LIG 4493  38.937  24.225   6.795
    8AU     LIG 4494  38.596  24.003   6.523
    8AU     LIG 4495  38.578  23.531   6.271
    8AU     LIG 4496  38.170  23.380   6.088
    8AU       S 4497  40.376  24.812   7.288
    8AU     LIG 4498  40.212  24.525   6.925
    8AU     LIG 4499  40.163  24.038   6.847
    8AU     LIG 4500  40.166  23.600   6.605
    8AU     LIG 4501  40.233  23.309   6.218
    8AU     LIG 4502  40.438  22.973   5.945
    8AU     LIG 4503  40.691  22.796   5.580
    8AU    AUSL 4504  40.829  25.184   7.355
    8AU    AUSL 4505  40.886  25.407   6.964
    8AU     AUL 4506  40.880  25.030   7.075
    8AU       S 4507  40.531  24.711   7.306
    8AU     LIG 4508  40.344  24.245   7.331
    8AU     LIG 4509  40.312  23.753   7.271
    8AU     LIG 4510  40.367  23.331   6.996
    8AU     LIG 4511  40.614  22.924   6.847
    8AU     LIG 4512  40.549  22.449   6.735
    8AU     LIG 4513  40.739  21.998   6.611
    8AU       S 4514  41.111  25.180   6.655
    8AU     LIG 4515  41.042  24.790   6.469
    8AU     LIG 4516  41.272  24.485   6.234
    8AU     LIG 4517  41.525  24.182   5.999
    8AU     LIG 4518  41.779  23.890   5.747
    8AU     LIG 4519  42.012  23.656   5.424
    8AU     LIG 4520  42.147  23.622   4.974
    9AU     AUC 4521   7.209   5.910   7.497
    9AU     AUC 4522   7.454   5.907   7.334
    9AU     AUC 4523   7.465   5.909   7.643
    9AU     AUC 4524   6.955   5.911   7.349
    9AU     AUC 4525   6.963   5.917   7.658
    9AU     AUC 4526   7.058   6.161   7.498
    9AU     AUC 4527   7.365   6.159   7.490
    9AU     AUC 4528   7.050   5.658   7.506
    9AU     AUC 4529   7.364   5.658   7.494
    9AU     AUC 4530   7.216   5.758   7.750
    9AU     AUC 4531   7.219   6.068   7.747
    9AU     AUC 4532   7.201   5.753   7.246
    9AU     AUC 4533   7.203   6.063   7.245
    9AU     AUC 4534   7.691   5.905   7.174
    9AU     AUC 4535   7.707   5.902   7.479
    9AU     AUC 4536   7.713   5.905   7.784
    9AU     AUC 4537   6.709   5.909   7.205
    9AU     AUC 4538   6.711   5.922   7.506
    9AU     AUC 4539   6.722   5.927   7.810
    9AU     AUC 4540   6.914   6.407   7.498
    9AU     AUC 4541   7.218   6.408   7.492
    9AU     AUC 4542   7.517   6.400   7.485
    9AU     AUC 4543   6.901   5.419   7.517
    9AU     AUC 4544   7.203   5.413   7.514
    9AU     AUC 4545   7.510   5.416   7.492
    9AU     AUC 4546   7.220   5.611   7.992
    9AU     AUC 4547   7.218   5.910   7.995
    9AU     AUC 4548   7.228   6.217   7.988
    9AU     AUC 4549   7.192   5.600   7.007
    9AU     AUC 4550   7.194   5.901   6.998
    9AU     AUC 4551   7.197   6.209   7.000
    9AU     AUC 4552   7.467   5.754   7.894
    9AU     AUC 4553   7.472   6.057   7.896
    9AU     AUC 4554   7.441   5.752   7.087
    9AU     AUC 4555   7.448   6.060   7.087
    9AU     AUC 4556   6.963   5.767   7.905
    9AU     AUC 4557   6.971   6.073   7.904
    9AU     AUC 4558   6.950   5.750   7.103
    9AU     AUC 4559   6.950   6.059   7.098
    9AU     AUC 4560   7.610   6.154   7.331
    9AU     AUC 4561   7.622   6.151   7.639
    9AU     AUC 4562   6.805   6.162   7.346
    9AU     AUC 4563   6.816   6.171   7.656
    9AU     AUC 4564   7.599   5.651   7.326
    9AU     AUC 4565   7.615   5.655   7.634
    9AU     AUC 4566   6.803   5.660   7.358
    9AU     AUC 4567   6.803   5.671   7.658
    9AU     AUC 4568   7.074   6.320   7.748
    9AU     AUC 4569   7.379   6.311   7.743
    9AU     AUC 4570   7.055   5.514   7.755
    9AU     AUC 4571   7.370   5.509   7.749
    9AU     AUC 4572   7.054   6.312   7.243
    9AU     AUC 4573   7.361   6.310   7.239
    9AU     AUC 4574   7.046   5.501   7.265
    9AU     AUC 4575   7.351   5.500   7.249
    9AU    AUSL 4576   7.638   5.868   8.071
    9AU    AUSL 4577   7.525   5.492   8.045
    9AU     AUL 4578   7.932   5.730   8.173
    9AU       S 4579   7.801   5.242   8.328
    9AU     LIG 4580   7.781   4.806   8.507
    9AU     LIG 4581   7.876   4.429   8.768
    9AU     LIG 4582   8.129   4.134   9.026
    9AU     LIG 4583   8.249   3.807   9.338
    9AU     LIG 4584   8.162   3.648   9.785
    9AU     LIG 4585   8.215   3.545  10.242
    9AU       S 4586   7.701   5.675   8.630
    9AU     LIG 4587   7.978   5.644   8.995
    9AU     LIG 4588   8.171   5.370   9.330
    9AU     LIG 4589   8.423   5.204   9.700
    9AU     LIG 4590   8.790   5.166  10.008
    9AU     LIG 4591   9.039   5.310  10.376
    9AU     LIG 4592   9.271   5.353  10.784
    9AU    AUSL 4593   7.356   5.731   8.208
    9AU    AUSL 4594   7.074   6.065   8.188
    9AU     AUL 4595   7.177   5.917   8.489
    9AU       S 4596   7.502   5.546   8.591
    9AU     LIG 4597   7.730   5.209   8.858
    9AU     LIG 4598   7.765   5.045   9.308
    9AU     LIG 4599   7.773   4.973   9.788
    9AU     LIG 4600   7.913   4.931  10.241
    9AU     LIG 4601   7.924   4.836  10.700
    9AU     LIG 4602   8.036   4.778  11.154
    9AU       S 4603   6.691   6.093   8.641
    9AU     LIG 4604   6.587   6.062   9.109
    9AU     LIG 4605   6.559   5.773   9.493
    9AU     LIG 4606   6.414   5.652   9.925
    9AU     LIG 4607   6.368   5.904  10.341
    9AU     LIG 4608   6.335   6.128  10.769
    9AU     LIG 4609   6.221   6.303  11.209
    9AU    AUSL 4610   7.403   6.072   8.208
    9AU    AUSL 4611   7.778   6.162   7.944
    9AU     AUL 4612   7.763   6.032   8.292
    9AU       S 4613   7.583   6.026   8.748
    9AU     LIG 4614   7.713   6.444   8.967
    9AU     LIG 4615   7.906   6.638   9.365
    9AU     LIG 4616   7.908   6.639   9.848
    9AU     LIG 4617   7.916   6.753  10.308
    9AU     LIG 4618   7.929   6.894  10.751
    9AU     LIG 4619   8.060   6.712  11.159
    9AU       S 4620   8.168   6.294   8.128
    9AU     LIG 4621   8.534   6.263   8.379
    9AU     LIG 4622   8.697   6.433   8.770
    9AU     LIG 4623   8.945   6.691   9.080
    9AU     LIG 4624   9.230   6.777   9.458
    9AU     LIG 4625   9.596   6.751   9.779
    9AU     LIG 4626   9.966   7.027   9.906
    9AU    AUSL 4627   7.630   5.955   6.887
    9AU    AUSL 4628   7.482   6.309   6.932
    9AU     AUL 4629   7.567   6.236   6.586
    9AU       S 4630   7.719   5.789   6.353
    9AU     LIG 4631   7.888   5.446   6.097
    9AU     LIG 4632   8.059   5.280   5.697
    9AU     LIG 4633   8.232   5.373   5.260
    9AU     LIG 4634   8.617   5.438   4.967
    9AU     LIG 4635   9.035   5.350   4.725
    9AU     LIG 4636   9.257   5.359   4.293
    9AU       S 4637   7.967   6.523   6.691
    9AU     LIG 4638   8.276   6.663   6.367
    9AU     LIG 4639   8.520   6.881   6.020
    9AU     LIG 4640   8.672   7.023   5.588
    9AU     LIG 4641   8.599   7.306   5.203
    9AU     LIG 4642   8.563   7.691   4.933
    9AU     LIG 4643   8.681   8.124   4.785
    9AU    AUSL 4644   7.394   5.730   6.792
    9AU    AUSL 4645   7.684   5.642   7.014
    9AU     AUL 4646   7.885   5.786   6.819
    9AU       S 4647   7.852   5.318   6.627
    9AU     LIG 4648   8.112   5.058   6.346
    9AU     LIG 4649   8.301   4.663   6.186
    9AU     LIG 4650   8.597   4.340   6.024
    9AU     LIG 4651   8.952   4.289   5.703
    9AU     LIG 4652   9.344   4.264   5.418
    9AU     LIG 4653   9.724   4.258   5.123
    9AU       S 4654   7.472   5.581   6.425
    9AU     LIG 4655   7.433   5.234   6.162
    9AU     LIG 4656   7.537   5.180   5.713
    9AU     LIG 4657   7.753   5.146   5.286
    9AU     LIG 4658   7.804   5.134   4.813
    9AU     LIG 4659   7.970   4.946   4.407
    9AU     LIG 4660   8.281   4.825   4.059
    9AU    AUSL 4661   7.321   6.051   6.802
    9AU    AUSL 4662   7.051   5.736   6.780
    9AU     AUL 4663   7.217   6.099   6.547
    9AU       S 4664   6.994   5.518   6.384
    9AU     LIG 4665   7.009   5.363   5.921
    9AU     LIG 4666   6.828   5.149   5.528
    9AU     LIG 4667   6.494   4.977   5.215
    9AU     LIG 4668   6.201   4.842   4.844
    9AU     LIG 4669   6.181   4.790   4.360
    9AU     LIG 4670   6.274   5.035   3.961
    9AU       S 4671   7.489   5.725   6.396
    9AU     LIG 4672   7.471   5.674   5.906
    9AU     LIG 4673   7.721   5.621   5.495
    9AU     LIG 4674   7.823   5.621   5.020
    9AU     LIG 4675   7.865   5.882   4.603
    9AU     LIG 4676   7.970   6.136   4.197
    9AU     LIG 4677   8.076   6.256   3.740
    9AU    AUSL 4678   6.777   5.954   8.111
    9AU    AUSL 4679   6.955   6.347   8.057
    9AU     AUL 4680   7.075   6.275   8.379
    9AU       S 4681   6.524   5.992   8.459
    9AU     LIG 4682   6.233   5.831   8.821
    9AU     LIG 4683   6.154   5.583   9.239
    9AU     LIG 4684   6.007   5.415   9.676
    9AU     LIG 4685   5.660   5.321  10.009
    9AU     LIG 4686   5.273   5.481  10.263
    9AU     LIG 4687   5.063   5.636  10.661
    9AU       S 4688   6.624   6.500   8.376
    9AU     LIG 4689   6.574   6.617   8.828
    9AU     LIG 4690   6.449   6.928   9.179
    9AU     LIG 4691   6.319   7.267   9.500
    9AU     LIG 4692   6.162   7.438   9.933
    9AU     LIG 4693   5.939   7.671  10.302
    9AU     LIG 4694   5.790   8.046  10.569
    9AU    AUSL 4695   7.023   5.731   8.200
    9AU    AUSL 4696   6.683   5.670   7.953
    9AU     AUL 4697   6.706   5.554   8.265
    9AU       S 4698   6.398   5.149   8.098
    9AU     LIG 4699   5.986   4.954   8.133
    9AU     LIG 4700   5.605   4.768   8.344
    9AU     LIG 4701   5.263   4.539   8.581
    9AU     LIG 4702   4.992   4.271   8.859
    9AU     LIG 4703   4.698   4.050   9.140
    9AU     LIG 4704   4.460   4.127   9.541
    9AU       S 4705   6.718   5.832   8.671
    9AU     LIG 4706   6.633   5.542   9.025
    9AU     LIG 4707   6.538   5.263   9.397
    9AU     LIG 4708   6.373   5.076   9.789
    9AU     LIG 4709   6.114   5.061  10.175
    9AU     LIG 4710   6.092   4.836  10.593
    9AU     LIG 4711   6.124   4.754  11.073
    9AU    AUSL 4712   6.762   5.859   6.923
    9AU    AUSL 4713   6.919   5.482   6.957
    9AU     AUL 4714   6.637   5.599   6.759
    9AU       S 4715   6.758   5.774   6.311
    9AU     LIG 4716   6.551   5.599   5.923
    9AU     LIG 4717   6.365   5.392   5.531
    9AU     LIG 4718   6.012   5.187   5.266
    9AU     LIG 4719   5.647   5.270   4.972
    9AU     LIG 4720   5.489   5.471   4.552
    9AU     LIG 4721   5.294   5.491   4.111
    9AU       S 4722   6.534   5.097   6.828
    9AU     LIG 4723   6.287   4.697   6.812
    9AU     LIG 4724   5.962   4.478   6.566
    9AU     LIG 4725   5.661   4.248   6.283
    9AU     LIG 4726   5.477   4.055   5.900
    9AU     LIG 4727   5.442   3.813   5.496
    9AU     LIG 4728   5.330   3.512   5.152
    9AU    AUSL 4729   6.987   6.066   6.806
    9AU    AUSL 4730   6.673   6.166   7.040
    9AU     AUL 4731   6.567   6.006   6.721
    9AU       S 4732   6.464   6.488   6.689
    9AU     LIG 4733   6.218   6.512   6.301
    9AU     LIG 4734   6.114   6.682   5.872
    9AU     LIG 4735   5.842   6.802   5.489
    9AU     LIG 4736   5.403   6.902   5.310
    9AU     LIG 4737   5.099   7.220   5.135
    9AU     LIG 4738   4.767   7.425   4.887
    9AU       S 4739   6.963   5.738   6.366
    9AU     LIG 4740   6.995   5.867   5.888
    9AU     LIG 4741   6.835   5.674   5.482
    9AU     LIG 4742   6.755   5.713   5.003
    9AU     LIG 4743   6.694   5.949   4.571
    9AU     LIG 4744   6.482   6.213   4.214
    9AU     LIG 4745   6.237   6.478   3.885
    9AU    AUSL 4746   7.808   6.325   7.449
    9AU    AUSL 4747   7.771   6.195   7.085
    9AU     AUL 4748   7.874   6.638   7.312
    9AU       S 4749   8.115   6.261   6.817
    9AU     LIG 4750   8.512   6.255   6.569
    9AU     LIG 4751   8.764   6.471   6.223
    9AU     LIG 4752   9.015   6.740   5.901
    9AU     LIG 4753   9.404   6.772   5.602
    9AU     LIG 4754   9.806   6.824   5.325
    9AU     LIG 4755  10.071   7.124   5.065
    9AU       S 4756   8.339   6.411   7.385
    9AU     LIG 4757   8.814   6.486   7.492
    9AU     LIG 4758   9.293   6.610   7.522
    9AU     LIG 4759   9.764   6.740   7.549
    9AU     LIG 4760  10.231   6.905   7.603
    9AU     LIG 4761  10.512   7.239   7.849
    9AU     LIG 4762  10.608   7.712   7.847
    9AU    AUSL 4763   7.927   6.025   7.321
    9AU    AUSL 4764   7.918   5.754   7.608
    9AU     AUL 4765   8.222   5.744   7.372
    9AU       S 4766   8.324   6.223   7.268
    9AU     LIG 4767   8.726   6.232   7.058
    9AU     LIG 4768   9.172   6.200   7.224
    9AU     LIG 4769   9.636   6.303   7.267
    9AU     LIG 4770  10.088   6.455   7.270
    9AU     LIG 4771  10.534   6.560   7.261
    9AU     LIG 4772  10.911   6.609   6.993
    9AU       S 4773   8.295   5.256   7.618
    9AU     LIG 4774   8.637   4.991   7.816
    9AU     LIG 4775   9.082   4.787   7.807
    9AU     LIG 4776   9.541   4.617   7.742
    9AU     LIG 4777  10.032   4.592   7.754
    9AU     LIG 4778  10.416   4.524   8.025
    9AU     LIG 4779  10.776   4.643   8.307
    9AU    AUSL 4780   7.919   6.084   7.658
    9AU    AUSL 4781   7.663   6.407   7.748
    9AU     AUL 4782   7.942   6.498   7.696
    9AU       S 4783   8.033   6.475   8.171
    9AU     LIG 4784   8.364   6.750   8.396
    9AU     LIG 4785   8.650   6.949   8.729
    9AU     LIG 4786   8.971   7.282   8.876
    9AU     LIG 4787   9.188   7.729   8.844
    9AU     LIG 4788   9.446   8.099   9.026
    9AU     LIG 4789   9.482   8.576   8.982
    9AU       S 4790   8.352   6.194   7.633
    9AU     LIG 4791   8.726   6.168   7.885
    9AU     LIG 4792   9.177   6.168   7.760
    9AU     LIG 4793   9.636   6.286   7.780
    9AU     LIG 4794  10.099   6.407   7.778
    9AU     LIG 4795  10.554   6.540   7.779
    9AU     LIG 4796  10.844   6.841   7.994
    9AU    AUSL 4797   6.619   6.368   7.530
    9AU    AUSL 4798   6.670   6.208   7.905
    9AU     AUL 4799   6.573   6.669   7.734
    9AU       S 4800   6.388   6.348   8.162
    9AU     LIG 4801   6.189   6.352   8.602
    9AU     LIG 4802   6.064   6.666   8.943
    9AU     LIG 4803   5.805   6.824   9.317
    9AU     LIG 4804   5.406   6.839   9.607
    9AU     LIG 4805   5.049   7.013   9.882
    9AU     LIG 4806   4.674   7.128  10.161
    9AU       S 4807   6.129   6.464   7.698
    9AU     LIG 4808   5.885   6.872   7.546
    9AU     LIG 4809   5.635   7.288   7.445
    9AU     LIG 4810   5.318   7.670   7.416
    9AU     LIG 4811   4.944   7.938   7.556
    9AU     LIG 4812   4.524   8.085   7.704
    9AU     LIG 4813   4.083   8.047   7.500
    9AU    AUSL 4814   6.527   6.109   7.332
    9AU    AUSL 4815   6.757   6.440   7.230
    9AU     AUL 4816   6.404   6.407   7.213
    9AU       S 4817   5.978   6.364   7.505
    9AU     LIG 4818   5.707   6.579   7.138
    9AU     LIG 4819   5.332   6.713   6.821
    9AU     LIG 4820   4.894   6.860   6.595
    9AU     LIG 4821   4.424   6.999   6.441
    9AU     LIG 4822   3.929   7.033   6.503
    9AU     LIG 4823   3.698   7.301   6.836
    9AU       S 4824   6.487   6.715   6.811
    9AU     LIG 4825   6.382   6.987   6.429
    9AU     LIG 4826   6.318   7.359   6.127
    9AU     LIG 4827   6.226   7.773   5.894
    9AU     LIG 4828   6.050   8.223   5.858
    9AU     LIG 4829   5.715   8.570   5.836
    9AU     LIG 4830   5.267   8.668   5.686
    9AU    AUSL 4831   6.492   6.075   7.658
    9AU    AUSL 4832   6.477   5.779   7.353
    9AU     AUL 4833   6.236   6.021   7.276
    9AU       S 4834   6.059   5.511   7.409
    9AU     LIG 4835   5.569   5.552   7.604
    9AU     LIG 4836   5.067   5.524   7.600
    9AU     LIG 4837   4.600   5.623   7.454
    9AU     LIG 4838   4.277   5.299   7.204
    9AU     LIG 4839   3.796   5.278   7.117
    9AU     LIG 4840   3.335   5.075   7.038
    9AU       S 4841   6.115   6.133   7.808
    9AU     LIG 4842   5.897   6.439   8.149
    9AU     LIG 4843   5.515   6.672   8.320
    9AU     LIG 4844   5.060   6.850   8.310
    9AU     LIG 4845   4.611   7.026   8.229
    9AU     LIG 4846   4.165   6.939   8.288
    9AU     LIG 4847   3.787   7.214   8.283
    9AU    AUSL 4848   7.815   5.454   7.494
    9AU    AUSL 4849   7.772   5.632   7.876
    9AU     AUL 4850   8.117   5.668   7.814
    9AU       S 4851   8.015   5.070   7.480
    9AU     LIG 4852   8.261   4.712   7.601
    9AU     LIG 4853   8.693   4.535   7.558
    9AU     LIG 4854   9.136   4.366   7.503
    9AU     LIG 4855   9.563   4.186   7.428
    9AU     LIG 4856   9.987   4.018   7.470
    9AU     LIG 4857  10.405   3.820   7.436
    9AU       S 4858   7.957   5.242   8.142
    9AU     LIG 4859   8.255   4.957   8.400
    9AU     LIG 4860   8.362   4.561   8.660
    9AU     LIG 4861   8.620   4.261   8.925
    9AU     LIG 4862   8.949   4.186   9.251
    9AU     LIG 4863   9.253   4.373   9.573
    9AU     LIG 4864   9.546   4.400   9.938
    9AU    AUSL 4865   7.869   5.704   7.282
    9AU    AUSL 4866   7.640   5.368   7.212
    9AU     AUL 4867   8.007   5.503   7.101
    9AU       S 4868   8.138   5.229   7.481
    9AU     LIG 4869   8.565   4.991   7.296
    9AU     LIG 4870   9.032   4.835   7.293
    9AU     LIG 4871   9.492   4.663   7.235
    9AU     LIG 4872   9.965   4.505   7.250
    9AU     LIG 4873  10.415   4.393   7.079
    9AU     LIG 4874  10.901   4.396   6.916
    9AU       S 4875   7.876   5.084   6.847
    9AU     LIG 4876   8.045   4.663   6.669
    9AU     LIG 4877   8.221   4.253   6.486
    9AU     LIG 4878   8.429   3.893   6.267
    9AU     LIG 4879   8.654   3.469   6.230
    9AU     LIG 4880   9.003   3.162   6.147
    9AU     LIG 4881   9.414   3.109   5.924
    9AU    AUSL 4882   6.598   5.497   7.474
    9AU    AUSL 4883   6.659   5.618   7.125
    9AU     AUL 4884   6.372   5.720   7.060
    9AU       S 4885   6.349   5.217   6.985
    9AU     LIG 4886   5.945   5.072   6.795
    9AU     LIG 4887   5.578   4.821   6.649
    9AU     LIG 4888   5.274   4.565   6.398
    9AU     LIG 4889   5.069   4.336   6.048
    9AU     LIG 4890   4.755   4.321   5.686
    9AU     LIG 4891   4.438   4.352   5.329
    9AU       S 4892   6.227   5.359   7.443
    9AU     LIG 4893   5.853   5.112   7.655
    9AU     LIG 4894   5.373   5.062   7.605
    9AU     LIG 4895   4.920   4.882   7.668
    9AU     LIG 4896   4.496   4.742   7.446
    9AU     LIG 4897   4.040   4.561   7.381
    9AU     LIG 4898   3.669   4.247   7.418
    9AU    AUSL 4899   6.522   5.753   7.678
    9AU    AUSL 4900   6.736   5.385   7.762
    9AU     AUL 4901   6.392   5.588   7.881
    9AU       S 4902   6.470   5.046   7.753
    9AU     LIG 4903   6.176   4.707   7.714
    9AU     LIG 4904   5.765   4.560   7.879
    9AU     LIG 4905   5.515   4.285   8.185
    9AU     LIG 4906   5.266   4.020   8.502
    9AU     LIG 4907   4.963   3.749   8.778
    9AU     LIG 4908   4.797   3.300   8.786
    9AU       S 4909   6.069   5.587   7.506
    9AU     LIG 4910   5.696   5.286   7.198
    9AU     LIG 4911   5.223   5.297   7.158
    9AU     LIG 4912   4.784   5.186   7.295
    9AU     LIG 4913   4.455   5.195   7.666
    9AU     LIG 4914   3.982   5.246   7.646
    9AU     LIG 4915   3.593   5.320   7.918
    9AU    AUSL 4916   7.229   6.515   7.932
    9AU    AUSL 4917   6.834   6.459   7.771
    9AU     AUL 4918   6.926   6.722   7.989
    9AU       S 4919   6.521   6.563   8.229
    9AU     LIG 4920   6.252   6.856   8.490
    9AU     LIG 4921   6.226   7.220   8.812
    9AU     LIG 4922   6.203   7.698   8.962
    9AU     LIG 4923   5.947   8.116   9.022
    9AU     LIG 4924   5.742   8.516   9.215
    9AU     LIG 4925   5.358   8.760   9.364
    9AU       S 4926   7.289   7.059   8.033
    9AU     LIG 4927   7.410   7.272   8.402
    9AU     LIG 4928   7.514   7.675   8.573
    9AU     LIG 4929   7.433   8.026   8.870
    9AU     LIG 4930   7.382   8.203   9.315
    9AU     LIG 4931   7.405   8.508   9.677
    9AU     LIG 4932   7.253   8.836   9.976
    9AU    AUSL 4933   7.083   6.629   7.641
    9AU    AUSL 4934   7.360   6.642   7.334
    9AU     AUL 4935   6.891   6.852   7.441
    9AU       S 4936   7.193   7.118   7.754
    9AU     LIG 4937   7.114   7.537   8.002
    9AU     LIG 4938   7.268   7.939   8.196
    9AU     LIG 4939   7.362   8.361   8.384
    9AU     LIG 4940   7.178   8.798   8.505
    9AU     LIG 4941   7.029   9.220   8.660
    9AU     LIG 4942   6.880   9.659   8.827
    9AU       S 4943   7.497   7.052   7.261
    9AU     LIG 4944   7.744   7.396   7.096
    9AU     LIG 4945   7.810   7.787   6.832
    9AU     LIG 4946   8.147   8.145   6.767
    9AU     LIG 4947   8.405   8.560   6.740
    9AU     LIG 4948   8.370   9.020   6.624
    9AU     LIG 4949   8.061   9.398   6.589
    9AU    AUSL 4950   7.419   6.609   7.657
    9AU    AUSL 4951   7.495   6.336   8.035
    9AU     AUL 4952   7.582   6.666   7.970
    9AU       S 4953   7.878   6.499   8.327
    9AU     LIG 4954   8.152   6.413   8.706
    9AU     LIG 4955   8.341   6.668   9.059
    9AU     LIG 4956   8.593   6.861   9.411
    9AU     LIG 4957   8.786   7.134   9.746
    9AU     LIG 4958   8.784   7.498  10.061
    9AU     LIG 4959   8.936   7.890  10.273
    9AU       S 4960   7.449   7.090   7.740
    9AU     LIG 4961   7.624   7.481   7.984
    9AU     LIG 4962   7.809   7.884   8.198
    9AU     LIG 4963   8.158   8.224   8.311
    9AU     LIG 4964   8.355   8.676   8.355
    9AU     LIG 4965   8.238   9.155   8.369
    9AU     LIG 4966   7.876   9.501   8.423
    9AU    AUSL 4967   7.238   5.327   7.972
    9AU    AUSL 4968   7.634   5.352   7.752
    9AU     AUL 4969   7.474   5.088   7.978
    9AU       S 4970   7.086   4.778   8.083
    9AU     LIG 4971   6.855   4.375   8.190
    9AU     LIG 4972   6.633   3.977   8.258
    9AU     LIG 4973   6.652   3.545   8.432
    9AU     LIG 4974   6.818   3.128   8.553
    9AU     LIG 4975   6.868   2.861   8.941
    9AU     LIG 4976   7.015   2.665   9.348
    9AU       S 4977   7.975   5.121   7.974
    9AU     LIG 4978   8.000   4.685   8.046
    9AU     LIG 4979   8.079   4.321   8.304
    9AU     LIG 4980   8.324   4.022   8.569
    9AU     LIG 4981   8.553   3.737   8.888
    9AU     LIG 4982   8.889   3.385   8.974
    9AU     LIG 4983   9.339   3.232   9.058
    9AU    AUSL 4984   7.023   5.215   7.724
    9AU    AUSL 4985   6.950   5.481   7.994
    9AU     AUL 4986   6.942   5.256   8.151
    9AU       S 4987   6.885   4.786   7.875
    9AU     LIG 4988   6.628   4.452   7.735
    9AU     LIG 4989   6.545   4.011   7.743
    9AU     LIG 4990   6.567   3.564   7.922
    9AU     LIG 4991   6.489   3.126   8.141
    9AU     LIG 4992   6.369   2.684   8.350
    9AU     LIG 4993   6.319   2.196   8.441
    9AU       S 4994   6.531   5.094   7.930
    9AU     LIG 4995   6.421   4.660   8.156
    9AU     LIG 4996   6.022   4.454   8.328
    9AU     LIG 4997   5.708   4.295   8.664
    9AU     LIG 4998   5.447   4.045   8.986
    9AU     LIG 4999   5.413   3.759   9.369
    9AU     LIG 5000   5.407   3.603   9.821
    9AU    AUSL 5001   7.342   5.233   7.666
    9AU    AUSL 5002   7.047   5.171   7.391
    9AU     AUL 5003   7.405   4.966   7.593
    9AU       S 5004   6.774   4.811   7.401
    9AU     LIG 5005   6.436   4.522   7.276
    9AU     LIG 5006   6.427   4.055   7.239
    9AU     LIG 5007   6.450   3.617   7.059
    9AU     LIG 5008   6.461   3.175   6.908
    9AU     LIG 5009   6.436   2.789   6.662
    9AU     LIG 5010   6.339   2.341   6.697
    9AU       S 5011   7.009   4.834   7.829
    9AU     LIG 5012   7.126   4.354   7.757
    9AU     LIG 5013   7.016   3.901   7.916
    9AU     LIG 5014   7.045   3.441   8.107
    9AU     LIG 5015   7.314   3.035   8.209
    9AU     LIG 5016   7.640   2.652   8.185
    9AU     LIG 5017   7.963   2.409   8.448
    9AU    AUSL 5018   7.231   6.506   7.045
    9AU    AUSL 5019   7.604   6.447   7.215
    9AU     AUL 5020   7.533   6.650   6.940
    9AU       S 5021   7.281   7.074   6.965
    9AU     LIG 5022   7.455   7.398   6.674
    9AU     LIG 5023   7.596   7.691   6.335
    9AU     LIG 5024   7.604   7.832   5.871
    9AU     LIG 5025   7.562   8.163   5.526
    9AU     LIG 5026   7.643   8.603   5.385
    9AU     LIG 5027   7.997   8.860   5.241
    9AU       S 5028   8.029   6.418   6.908
    9AU     LIG 5029   8.448   6.658   6.872
    9AU     LIG 5030   8.715   6.888   6.525
    9AU     LIG 5031   8.873   7.223   6.198
    9AU     LIG 5032   9.006   7.699   6.107
    9AU     LIG 5033   9.332   8.064   6.114
    9AU     LIG 5034   9.658   8.387   5.997
    9AU    AUSL 5035   7.043   6.578   7.315
    9AU    AUSL 5036   6.948   6.357   6.957
    9AU     AUL 5037   6.921   6.725   7.048
    9AU       S 5038   7.298   7.046   7.248
    9AU     LIG 5039   7.252   7.554   7.141
    9AU     LIG 5040   7.190   8.009   6.924
    9AU     LIG 5041   7.010   8.484   6.832
    9AU     LIG 5042   7.096   8.945   6.651
    9AU     LIG 5043   7.145   9.403   6.467
    9AU     LIG 5044   6.871   9.610   6.131
    9AU       S 5045   6.744   6.534   6.600
    9AU     LIG 5046   6.680   6.679   6.152
    9AU     LIG 5047   6.523   6.988   5.826
    9AU     LIG 5048   6.324   7.170   5.421
    9AU     LIG 5049   6.224   7.421   5.009
    9AU     LIG 5050   6.053   7.804   4.755
    9AU     LIG 5051   5.782   8.172   4.612
    9AU    AUSL 5052   7.162   5.316   7.114
    9AU    AUSL 5053   6.802   5.344   7.249
    9AU     AUL 5054   7.021   5.145   6.937
    9AU       S 5055   6.494   5.080   7.126
    9AU     LIG 5056   6.084   4.895   7.253
    9AU     LIG 5057   5.810   4.592   7.053
    9AU     LIG 5058   5.515   4.311   6.780
    9AU     LIG 5059   5.215   4.027   6.504
    9AU     LIG 5060   4.905   3.612   6.527
    9AU     LIG 5061   4.581   3.243   6.437
    9AU       S 5062   6.923   4.836   7.304
    9AU     LIG 5063   6.780   4.600   6.913
    9AU     LIG 5064   6.668   4.161   6.801
    9AU     LIG 5065   6.724   3.710   6.632
    9AU     LIG 5066   6.744   3.254   6.471
    9AU     LIG 5067   6.784   2.966   6.095
    9AU     LIG 5068   6.873   2.768   5.668
    9AU    AUSL 5069   7.380   5.208   7.341
    9AU    AUSL 5070   7.422   5.436   6.953
    9AU     AUL 5071   7.416   5.057   7.058
    9AU       S 5072   7.075   4.739   7.312
    9AU     LIG 5073   6.896   4.283   7.302
    9AU     LIG 5074   6.911   3.826   7.127
    9AU     LIG 5075   6.960   3.363   6.933
    9AU     LIG 5076   7.183   2.984   6.673
    9AU     LIG 5077   7.563   2.649   6.529
    9AU     LIG 5078   7.836   2.301   6.272
    9AU       S 5079   7.648   5.195   6.637
    9AU     LIG 5080   7.655   4.831   6.378
    9AU     LIG 5081   7.834   4.451   6.207
    9AU     LIG 5082   8.106   4.168   5.948
    9AU     LIG 5083   8.124   3.859   5.567
    9AU     LIG 5084   8.258   3.585   5.187
    9AU     LIG 5085   8.642   3.426   4.960
   10AU     AUC 5086  15.992  28.052   7.502
   10AU     AUC 5087  16.238  28.046   7.340
   10AU     AUC 5088  16.247  28.042   7.649
   10AU     AUC 5089  15.737  28.062   7.352
   10AU     AUC 5090  15.746  28.063   7.662
   10AU     AUC 5091  15.848  28.306   7.506
   10AU     AUC 5092  16.155  28.297   7.499
   10AU     AUC 5093  15.827  27.804   7.505
   10AU     AUC 5094  16.140  27.797   7.496
   10AU     AUC 5095  15.993  27.897   7.752
   10AU     AUC 5096  16.005  28.205   7.754
   10AU     AUC 5097  15.981  27.900   7.248
   10AU     AUC 5098  15.991  28.209   7.251
   10AU     AUC 5099  16.476  28.041   7.182
   10AU     AUC 5100  16.490  28.032   7.486
   10AU     AUC 5101  16.494  28.030   7.790
   10AU     AUC 5102  15.493  28.068   7.207
   10AU     AUC 5103  15.493  28.076   7.508
   10AU     AUC 5104  15.506  28.076   7.815
   10AU     AUC 5105  15.710  28.555   7.511
   10AU     AUC 5106  16.013  28.549   7.505
   10AU     AUC 5107  16.312  28.535   7.497
   10AU     AUC 5108  15.671  27.570   7.510
   10AU     AUC 5109  15.971  27.555   7.512
   10AU     AUC 5110  16.280  27.550   7.492
   10AU     AUC 5111  15.990  27.746   7.992
   10AU     AUC 5112  16.002  28.045   8.000
   10AU     AUC 5113  16.020  28.350   7.998
   10AU     AUC 5114  15.973  27.750   7.007
   10AU     AUC 5115  15.983  28.050   7.002
   10AU     AUC 5116  15.989  28.359   7.009
   10AU     AUC 5117  16.244  27.883   7.898
   10AU     AUC 5118  16.260  28.188   7.901
   10AU     AUC 5119  16.224  27.895   7.091
   10AU     AUC 5120  16.239  28.203   7.096
   10AU     AUC 5121  15.740  27.910   7.907
   10AU     AUC 5122  15.761  28.214   7.913
   10AU     AUC 5123  15.733  27.905   7.102
   10AU     AUC 5124  15.738  28.212   7.103
   10AU     AUC 5125  16.399  28.290   7.340
   10AU     AUC 5126  16.411  28.281   7.646
   10AU     AUC 5127  15.593  28.314   7.355
   10AU     AUC 5128  15.606  28.320   7.665
   10AU     AUC 5129  16.377  27.786   7.330
   10AU     AUC 5130  16.390  27.785   7.639
   10AU     AUC 5131  15.582  27.815   7.352
   10AU     AUC 5132  15.579  27.822   7.655
   10AU     AUC 5133  15.867  28.460   7.759
   10AU     AUC 5134  16.173  28.445   7.752
   10AU     AUC 5135  15.821  27.658   7.751
   10AU     AUC 5136  16.139  27.644   7.749
   10AU     AUC 5137  15.847  28.460   7.252
   10AU     AUC 5138  16.152  28.454   7.249
   10AU     AUC 5139  15.821  27.652   7.261
   10AU     AUC 5140  16.125  27.642   7.250
   10AU    AUSL 5141  16.421  27.999   8.079
   10AU    AUSL 5142  16.277  27.610   8.036
   10AU     AUL 5143  16.415  27.705   8.357
   10AU       S 5144  16.662  27.281   8.238
   10AU     LIG 5145  16.719  26.989   8.587
   10AU     LIG 5146  16.747  26.561   8.789
   10AU     LIG 5147  16.818  26.135   8.981
   10AU     LIG 5148  17.062  25.900   9.302
   10AU     LIG 5149  17.150  25.822   9.774
   10AU     LIG 5150  17.196  25.506  10.142
   10AU       S 5151  16.576  28.166   8.643
   10AU     LIG 5152  16.885  27.952   8.945
   10AU     LIG 5153  16.971  27.612   9.292
   10AU     LIG 5154  17.163  27.421   9.702
   10AU     LIG 5155  17.457  27.416  10.096
   10AU     LIG 5156  17.847  27.526  10.339
   10AU     LIG 5157  18.145  27.655  10.672
   10AU    AUSL 5158  16.137  27.871   8.209
   10AU    AUSL 5159  15.872  28.193   8.205
   10AU     AUL 5160  15.970  27.966   8.508
   10AU       S 5161  16.397  27.995   8.759
   10AU     LIG 5162  16.540  27.563   8.975
   10AU     LIG 5163  16.615  27.228   9.329
   10AU     LIG 5164  16.615  27.051   9.787
   10AU     LIG 5165  16.553  26.966  10.267
   10AU     LIG 5166  16.698  26.923  10.726
   10AU     LIG 5167  17.002  26.838  11.088
   10AU       S 5168  15.500  28.217   8.662
   10AU     LIG 5169  15.269  28.201   9.078
   10AU     LIG 5170  15.276  27.934   9.476
   10AU     LIG 5171  15.219  27.834   9.937
   10AU     LIG 5172  15.256  28.012  10.393
   10AU     LIG 5173  15.103  28.263  10.784
   10AU     LIG 5174  14.954  28.445  11.206
   10AU    AUSL 5175  16.205  28.204   8.211
   10AU    AUSL 5176  16.569  28.278   7.950
   10AU     AUL 5177  16.648  27.983   8.198
   10AU       S 5178  16.324  28.365   8.602
   10AU     LIG 5179  16.401  28.727   8.898
   10AU     LIG 5180  16.626  28.871   9.296
   10AU     LIG 5181  16.677  28.854   9.780
   10AU     LIG 5182  16.728  28.988  10.238
   10AU     LIG 5183  16.876  29.032  10.692
   10AU     LIG 5184  16.937  28.894  11.150
   10AU       S 5185  16.962  28.378   8.140
   10AU     LIG 5186  17.201  28.311   8.509
   10AU     LIG 5187  17.420  28.607   8.787
   10AU     LIG 5188  17.720  28.906   8.991
   10AU     LIG 5189  17.948  29.132   9.333
   10AU     LIG 5190  18.364  29.172   9.577
   10AU     LIG 5191  18.782  29.280   9.793
   10AU    AUSL 5192  16.425  28.094   6.897
   10AU    AUSL 5193  16.273  28.458   6.945
   10AU     AUL 5194  16.353  28.384   6.594
   10AU       S 5195  16.536  27.939   6.375
   10AU     LIG 5196  16.697  27.575   6.122
   10AU     LIG 5197  16.943  27.451   5.724
   10AU     LIG 5198  17.115  27.491   5.273
   10AU     LIG 5199  17.443  27.417   4.916
   10AU     LIG 5200  17.808  27.503   4.602
   10AU     LIG 5201  18.010  27.738   4.230
   10AU       S 5202  16.753  28.668   6.699
   10AU     LIG 5203  17.040  28.806   6.352
   10AU     LIG 5204  17.283  29.035   6.001
   10AU     LIG 5205  17.451  29.180   5.573
   10AU     LIG 5206  17.577  29.377   5.163
   10AU     LIG 5207  17.662  29.701   4.839
   10AU     LIG 5208  17.861  30.076   4.650
   10AU    AUSL 5209  16.183  27.877   6.797
   10AU    AUSL 5210  16.464  27.776   7.020
   10AU     AUL 5211  16.681  27.919   6.848
   10AU       S 5212  16.622  27.462   6.627
   10AU     LIG 5213  16.939  27.203   6.399
   10AU     LIG 5214  17.099  26.782   6.263
   10AU     LIG 5215  17.359  26.514   5.981
   10AU     LIG 5216  17.715  26.557   5.653
   10AU     LIG 5217  18.080  26.485   5.348
   10AU     LIG 5218  18.530  26.443   5.202
   10AU       S 5219  16.258  27.738   6.417
   10AU     LIG 5220  16.198  27.417   6.133
   10AU     LIG 5221  16.440  27.310   5.751
   10AU     LIG 5222  16.630  27.297   5.305
   10AU     LIG 5223  16.660  27.114   4.852
   10AU     LIG 5224  16.696  26.950   4.391
   10AU     LIG 5225  16.774  26.868   3.924
   10AU    AUSL 5226  16.123  28.200   6.808
   10AU    AUSL 5227  15.838  27.890   6.779
   10AU     AUL 5228  16.006  28.230   6.536
   10AU       S 5229  15.784  27.628   6.416
   10AU     LIG 5230  15.685  27.414   6.013
   10AU     LIG 5231  15.440  27.349   5.605
   10AU     LIG 5232  15.191  27.284   5.196
   10AU     LIG 5233  14.949  27.038   4.851
   10AU     LIG 5234  14.966  26.870   4.396
   10AU     LIG 5235  15.010  27.012   3.942
   10AU       S 5236  16.317  27.870   6.419
   10AU     LIG 5237  16.319  27.858   5.916
   10AU     LIG 5238  16.582  27.769   5.527
   10AU     LIG 5239  16.723  27.797   5.064
   10AU     LIG 5240  16.736  28.040   4.628
   10AU     LIG 5241  16.748  28.225   4.167
   10AU     LIG 5242  16.832  28.426   3.732
   10AU    AUSL 5243  15.568  28.095   8.117
   10AU    AUSL 5244  15.752  28.482   8.068
   10AU     AUL 5245  15.853  28.414   8.380
   10AU       S 5246  15.325  28.134   8.478
   10AU     LIG 5247  14.990  27.937   8.734
   10AU     LIG 5248  14.882  27.788   9.166
   10AU     LIG 5249  14.823  27.673   9.619
   10AU     LIG 5250  14.522  27.614   9.980
   10AU     LIG 5251  14.241  27.771  10.333
   10AU     LIG 5252  14.098  28.049  10.691
   10AU       S 5253  15.402  28.628   8.404
   10AU     LIG 5254  15.305  28.681   8.854
   10AU     LIG 5255  15.155  28.947   9.216
   10AU     LIG 5256  14.961  29.335   9.406
   10AU     LIG 5257  14.892  29.655   9.761
   10AU     LIG 5258  14.721  29.807  10.195
   10AU     LIG 5259  14.477  29.990  10.572
   10AU    AUSL 5260  15.803  27.863   8.202
   10AU    AUSL 5261  15.443  27.826   7.952
   10AU     AUL 5262  15.483  27.700   8.267
   10AU       S 5263  15.130  27.347   8.090
   10AU     LIG 5264  14.699  27.185   8.040
   10AU     LIG 5265  14.362  26.948   8.290
   10AU     LIG 5266  14.114  26.673   8.601
   10AU     LIG 5267  13.904  26.377   8.914
   10AU     LIG 5268  13.538  26.262   9.196
   10AU     LIG 5269  13.156  26.340   9.483
   10AU       S 5270  15.499  27.976   8.676
   10AU     LIG 5271  15.372  27.695   9.015
   10AU     LIG 5272  15.221  27.430   9.369
   10AU     LIG 5273  15.090  27.243   9.774
   10AU     LIG 5274  15.046  26.946  10.127
   10AU     LIG 5275  15.042  26.825  10.571
   10AU     LIG 5276  14.819  26.892  10.979
   10AU    AUSL 5277  15.552  28.029   6.921
   10AU    AUSL 5278  15.699  27.639   6.947
   10AU     AUL 5279  15.409  27.810   6.755
   10AU       S 5280  15.556  27.856   6.294
   10AU     LIG 5281  15.284  27.739   5.919
   10AU     LIG 5282  15.013  27.651   5.515
   10AU     LIG 5283  14.691  27.447   5.195
   10AU     LIG 5284  14.364  27.497   4.831
   10AU     LIG 5285  14.011  27.614   4.516
   10AU     LIG 5286  13.665  27.742   4.209
   10AU       S 5287  15.337  27.299   6.759
   10AU     LIG 5288  15.046  26.920   6.739
   10AU     LIG 5289  14.774  26.610   6.538
   10AU     LIG 5290  14.494  26.384   6.227
   10AU     LIG 5291  14.316  26.342   5.782
   10AU     LIG 5292  14.374  26.244   5.311
   10AU     LIG 5293  14.276  26.172   4.847
   10AU    AUSL 5294  15.795  28.222   6.810
   10AU    AUSL 5295  15.450  28.323   7.052
   10AU     AUL 5296  15.452  28.207   6.660
   10AU       S 5297  15.119  28.557   6.789
   10AU     LIG 5298  14.872  28.578   6.415
   10AU     LIG 5299  14.717  28.868   6.081
   10AU     LIG 5300  14.555  29.131   5.709
   10AU     LIG 5301  14.210  29.200   5.350
   10AU     LIG 5302  13.760  29.221   5.131
   10AU     LIG 5303  13.521  29.479   4.803
   10AU       S 5304  15.773  27.849   6.368
   10AU     LIG 5305  15.794  27.885   5.860
   10AU     LIG 5306  15.508  27.843   5.460
   10AU     LIG 5307  15.254  27.871   5.043
   10AU     LIG 5308  15.227  28.070   4.575
   10AU     LIG 5309  15.199  28.236   4.095
   10AU     LIG 5310  14.989  28.485   3.723
   10AU    AUSL 5311  16.603  28.455   7.458
   10AU    AUSL 5312  16.559  28.335   7.096
   10AU     AUL 5313  16.667  28.772   7.339
   10AU       S 5314  16.892  28.407   6.824
   10AU     LIG 5315  17.300  28.439   6.606
   10AU     LIG 5316  17.542  28.660   6.252
   10AU     LIG 5317  17.712  28.790   5.808
   10AU     LIG 5318  17.938  29.009   5.426
   10AU     LIG 5319  18.300  29.239   5.188
   10AU     LIG 5320  18.680  29.504   5.044
   10AU       S 5321  17.133  28.539   7.380
   10AU     LIG 5322  17.627  28.605   7.491
   10AU     LIG 5323  18.142  28.596   7.496
   10AU     LIG 5324  18.635  28.670   7.439
   10AU     LIG 5325  18.976  28.996   7.584
   10AU     LIG 5326  19.121  29.476   7.562
   10AU     LIG 5327  19.375  29.858   7.356
   10AU    AUSL 5328  16.714  28.155   7.325
   10AU    AUSL 5329  16.689  27.878   7.617
   10AU     AUL 5330  16.999  27.877   7.376
   10AU       S 5331  17.128  28.347   7.261
   10AU     LIG 5332  17.577  28.191   7.205
   10AU     LIG 5333  18.063  28.154   7.254
   10AU     LIG 5334  18.544  28.151   7.244
   10AU     LIG 5335  19.015  28.267   7.253
   10AU     LIG 5336  19.412  28.401   7.007
   10AU     LIG 5337  19.666  28.617   6.691
   10AU       S 5338  17.072  27.423   7.656
   10AU     LIG 5339  17.515  27.340   7.743
   10AU     LIG 5340  17.816  27.024   7.851
   10AU     LIG 5341  18.228  26.901   7.744
   10AU     LIG 5342  18.632  27.034   7.844
   10AU     LIG 5343  19.068  27.081   7.765
   10AU     LIG 5344  19.461  27.126   8.031
   10AU    AUSL 5345  16.708  28.208   7.661
   10AU    AUSL 5346  16.464  28.535   7.758
   10AU     AUL 5347  16.751  28.615   7.719
   10AU       S 5348  16.814  28.542   8.198
   10AU     LIG 5349  17.153  28.825   8.385
   10AU     LIG 5350  17.382  29.137   8.681
   10AU     LIG 5351  17.646  29.457   8.949
   10AU     LIG 5352  17.883  29.897   8.999
   10AU     LIG 5353  17.886  30.382   8.897
   10AU     LIG 5354  17.928  30.854   8.978
   10AU       S 5355  17.159  28.322   7.619
   10AU     LIG 5356  17.570  28.154   7.734
   10AU     LIG 5357  18.031  28.181   7.782
   10AU     LIG 5358  18.509  28.264   7.742
   10AU     LIG 5359  18.974  28.441   7.760
   10AU     LIG 5360  19.348  28.728   7.954
   10AU     LIG 5361  19.832  28.850   8.080
   10AU    AUSL 5362  15.417  28.514   7.539
   10AU    AUSL 5363  15.464  28.355   7.927
   10AU     AUL 5364  15.327  28.781   7.765
   10AU       S 5365  15.170  28.486   8.196
   10AU     LIG 5366  14.935  28.440   8.601
   10AU     LIG 5367  14.786  28.746   8.926
   10AU     LIG 5368  14.593  28.960   9.287
   10AU     LIG 5369  14.202  29.049   9.569
   10AU     LIG 5370  13.827  29.278   9.805
   10AU     LIG 5371  13.454  29.360  10.106
   10AU       S 5372  14.881  28.634   7.572
   10AU     LIG 5373  14.642  29.022   7.509
   10AU     LIG 5374  14.251  29.325   7.483
   10AU     LIG 5375  13.981  29.729   7.518
   10AU     LIG 5376  13.622  30.031   7.606
   10AU     LIG 5377  13.293  30.239   7.883
   10AU     LIG 5378  12.824  30.257   7.872
   10AU    AUSL 5379  15.292  28.262   7.341
   10AU    AUSL 5380  15.563  28.584   7.240
   10AU     AUL 5381  15.277  28.644   7.265
   10AU       S 5382  14.810  28.463   7.293
   10AU     LIG 5383  14.663  28.763   6.950
   10AU     LIG 5384  14.235  28.861   6.776
   10AU     LIG 5385  13.789  28.943   6.636
   10AU     LIG 5386  13.340  28.904   6.512
   10AU     LIG 5387  12.990  29.239   6.512
   10AU     LIG 5388  12.606  29.446   6.683
   10AU       S 5389  15.244  28.832   6.806
   10AU     LIG 5390  14.902  29.065   6.565
   10AU     LIG 5391  14.876  29.351   6.173
   10AU     LIG 5392  14.808  29.763   5.925
   10AU     LIG 5393  14.645  30.220   5.829
   10AU     LIG 5394  14.349  30.584   5.694
   10AU     LIG 5395  13.933  30.817   5.609
   10AU    AUSL 5396  15.286  28.236   7.683
   10AU    AUSL 5397  15.256  27.931   7.338
   10AU     AUL 5398  15.003  28.073   7.535
   10AU       S 5399  14.839  27.610   7.312
   10AU     LIG 5400  14.465  27.652   7.709
   10AU     LIG 5401  13.990  27.703   7.796
   10AU     LIG 5402  13.553  27.549   7.684
   10AU     LIG 5403  13.168  27.350   7.435
   10AU     LIG 5404  12.746  27.497   7.250
   10AU     LIG 5405  12.334  27.352   7.038
   10AU       S 5406  14.876  28.465   7.806
   10AU     LIG 5407  14.634  28.598   8.199
   10AU     LIG 5408  14.292  28.886   8.377
   10AU     LIG 5409  13.810  28.874   8.275
   10AU     LIG 5410  13.313  28.776   8.197
   10AU     LIG 5411  12.862  28.842   8.093
   10AU     LIG 5412  12.439  29.049   8.062
   10AU    AUSL 5413  16.588  27.585   7.497
   10AU    AUSL 5414  16.548  27.754   7.893
   10AU     AUL 5415  16.889  27.855   7.805
   10AU       S 5416  16.817  27.210   7.481
   10AU     LIG 5417  17.139  26.938   7.739
   10AU     LIG 5418  17.524  26.703   7.585
   10AU     LIG 5419  17.978  26.554   7.466
   10AU     LIG 5420  18.390  26.270   7.483
   10AU     LIG 5421  18.711  25.886   7.559
   10AU     LIG 5422  19.062  25.734   7.843
   10AU       S 5423  16.784  27.443   8.091
   10AU     LIG 5424  17.146  27.136   8.245
   10AU     LIG 5425  17.172  26.742   8.525
   10AU     LIG 5426  17.256  26.425   8.880
   10AU     LIG 5427  17.587  26.376   9.241
   10AU     LIG 5428  18.010  26.422   9.490
   10AU     LIG 5429  18.370  26.442   9.806
   10AU    AUSL 5430  16.650  27.835   7.289
   10AU    AUSL 5431  16.411  27.501   7.215
   10AU     AUL 5432  16.781  27.618   7.111
   10AU       S 5433  16.919  27.380   7.517
   10AU     LIG 5434  17.326  27.148   7.308
   10AU     LIG 5435  17.787  26.996   7.251
   10AU     LIG 5436  18.276  26.989   7.235
   10AU     LIG 5437  18.761  26.948   7.332
   10AU     LIG 5438  19.233  26.853   7.224
   10AU     LIG 5439  19.558  26.596   6.952
   10AU       S 5440  16.634  27.223   6.829
   10AU     LIG 5441  16.766  26.788   6.669
   10AU     LIG 5442  16.932  26.355   6.528
   10AU     LIG 5443  17.008  25.891   6.411
   10AU     LIG 5444  17.316  25.534   6.348
   10AU     LIG 5445  17.506  25.134   6.138
   10AU     LIG 5446  17.888  24.884   5.976
   10AU    AUSL 5447  15.375  27.651   7.458
   10AU    AUSL 5448  15.442  27.780   7.112
   10AU     AUL 5449  15.152  27.915   7.059
   10AU       S 5450  15.135  27.404   6.935
   10AU     LIG 5451  14.684  27.254   6.945
   10AU     LIG 5452  14.405  26.936   6.720
   10AU     LIG 5453  14.120  26.669   6.437
   10AU     LIG 5454  13.817  26.419   6.154
   10AU     LIG 5455  13.485  26.398   5.801
   10AU     LIG 5456  13.456  26.538   5.349
   10AU       S 5457  15.027  27.482   7.403
   10AU     LIG 5458  14.597  27.198   7.492
   10AU     LIG 5459  14.121  27.249   7.550
   10AU     LIG 5460  13.656  27.081   7.536
   10AU     LIG 5461  13.239  26.964   7.761
   10AU     LIG 5462  12.890  26.639   7.799
   10AU     LIG 5463  12.650  26.221   7.833
   10AU    AUSL 5464  15.311  27.909   7.662
   10AU    AUSL 5465  15.497  27.542   7.754
   10AU     AUL 5466  15.135  27.765   7.827
   10AU       S 5467  15.219  27.216   7.762
   10AU     LIG 5468  14.936  26.877   7.711
   10AU     LIG 5469  14.580  26.687   7.898
   10AU     LIG 5470  14.338  26.425   8.203
   10AU     LIG 5471  14.083  26.144   8.490
   10AU     LIG 5472  13.826  25.844   8.769
   10AU     LIG 5473  13.625  25.383   8.769
   10AU       S 5474  14.869  27.608   7.427
   10AU     LIG 5475  14.359  27.594   7.221
   10AU     LIG 5476  13.876  27.632   7.281
   10AU     LIG 5477  13.414  27.784   7.249
   10AU     LIG 5478  13.111  27.807   7.638
   10AU     LIG 5479  12.761  27.538   7.775
   10AU     LIG 5480  12.439  27.273   7.997
   10AU    AUSL 5481  16.027  28.650   7.948
   10AU    AUSL 5482  15.624  28.609   7.785
   10AU     AUL 5483  15.728  28.863   8.007
   10AU       S 5484  15.334  28.709   8.263
   10AU     LIG 5485  15.001  28.946   8.508
   10AU     LIG 5486  14.906  29.256   8.875
   10AU     LIG 5487  14.907  29.716   9.049
   10AU     LIG 5488  14.800  30.190   9.091
   10AU     LIG 5489  14.579  30.603   9.180
   10AU     LIG 5490  14.150  30.787   9.279
   10AU       S 5491  16.103  29.189   8.053
   10AU     LIG 5492  16.331  29.388   8.400
   10AU     LIG 5493  16.572  29.753   8.555
   10AU     LIG 5494  16.543  30.182   8.734
   10AU     LIG 5495  16.394  30.391   9.140
   10AU     LIG 5496  16.200  30.597   9.535
   10AU     LIG 5497  16.052  30.959   9.807
   10AU    AUSL 5498  15.884  28.767   7.658
   10AU    AUSL 5499  16.157  28.782   7.352
   10AU     AUL 5500  15.694  29.002   7.480
   10AU       S 5501  16.022  29.256   7.776
   10AU     LIG 5502  16.105  29.691   8.029
   10AU     LIG 5503  16.280  30.075   8.275
   10AU     LIG 5504  16.260  30.525   8.437
   10AU     LIG 5505  15.987  30.939   8.468
   10AU     LIG 5506  15.654  31.309   8.474
   10AU     LIG 5507  15.500  31.761   8.475
   10AU       S 5508  16.297  29.202   7.267
   10AU     LIG 5509  16.608  29.493   7.071
   10AU     LIG 5510  16.669  29.882   6.805
   10AU     LIG 5511  16.898  30.304   6.784
   10AU     LIG 5512  16.822  30.789   6.692
   10AU     LIG 5513  16.915  31.238   6.548
   10AU     LIG 5514  17.039  31.712   6.586
   10AU    AUSL 5515  16.221  28.742   7.675
   10AU    AUSL 5516  16.290  28.464   8.036
   10AU     AUL 5517  16.390  28.789   8.002
   10AU       S 5518  16.673  28.505   8.305
   10AU     LIG 5519  16.863  28.603   8.741
   10AU     LIG 5520  17.087  28.902   9.040
   10AU     LIG 5521  17.400  29.127   9.322
   10AU     LIG 5522  17.614  29.257   9.722
   10AU     LIG 5523  17.645  29.592  10.052
   10AU     LIG 5524  17.579  30.046  10.173
   10AU       S 5525  16.272  29.203   7.749
   10AU     LIG 5526  16.575  29.507   7.958
   10AU     LIG 5527  16.745  29.930   8.100
   10AU     LIG 5528  16.777  30.378   8.267
   10AU     LIG 5529  17.172  30.686   8.327
   10AU     LIG 5530  17.297  31.183   8.362
   10AU     LIG 5531  17.191  31.662   8.395
   10AU    AUSL 5532  15.988  27.460   7.969
   10AU    AUSL 5533  16.401  27.478   7.749
   10AU     AUL 5534  16.227  27.226   7.995
   10AU       S 5535  15.825  26.918   8.063
   10AU     LIG 5536  15.598  26.521   8.178
   10AU     LIG 5537  15.466  26.083   8.262
   10AU     LIG 5538  15.539  25.633   8.371
   10AU     LIG 5539  15.510  25.321   8.736
   10AU     LIG 5540  15.501  25.122   9.179
   10AU     LIG 5541  15.597  25.004   9.633
   10AU       S 5542  16.729  27.211   7.957
   10AU     LIG 5543  16.809  26.769   8.124
   10AU     LIG 5544  16.893  26.347   8.345
   10AU     LIG 5545  17.099  25.991   8.583
   10AU     LIG 5546  17.219  25.577   8.791
   10AU     LIG 5547  17.485  25.185   8.854
   10AU     LIG 5548  17.799  24.838   8.778
   10AU    AUSL 5549  15.780  27.361   7.715
   10AU    AUSL 5550  15.710  27.631   7.986
   10AU     AUL 5551  15.697  27.400   8.143
   10AU       S 5552  15.619  26.944   7.860
   10AU     LIG 5553  15.362  26.610   7.742
   10AU     LIG 5554  15.337  26.151   7.761
   10AU     LIG 5555  15.184  25.734   7.981
   10AU     LIG 5556  14.925  25.336   8.128
   10AU     LIG 5557  14.797  24.900   8.301
   10AU     LIG 5558  14.742  24.441   8.438
   10AU       S 5559  15.276  27.272   7.928
   10AU     LIG 5560  15.163  26.852   8.162
   10AU     LIG 5561  14.784  26.647   8.383
   10AU     LIG 5562  14.519  26.367   8.690
   10AU     LIG 5563  14.294  26.024   8.948
   10AU     LIG 5564  14.144  25.817   9.343
   10AU     LIG 5565  14.085  25.811   9.822
   10AU    AUSL 5566  16.103  27.371   7.667
   10AU    AUSL 5567  15.811  27.319   7.384
   10AU     AUL 5568  16.159  27.102   7.592
   10AU       S 5569  15.503  26.971   7.386
   10AU     LIG 5570  15.240  26.576   7.261
   10AU     LIG 5571  15.265  26.126   7.224
   10AU     LIG 5572  15.114  25.789   6.928
   10AU     LIG 5573  14.818  25.427   6.799
   10AU     LIG 5574  14.784  24.975   6.688
   10AU     LIG 5575  14.803  24.514   6.611
   10AU       S 5576  15.751  26.980   7.814
   10AU     LIG 5577  15.854  26.507   7.726
   10AU     LIG 5578  15.839  26.054   7.902
   10AU     LIG 5579  16.016  25.619   8.074
   10AU     LIG 5580  16.182  25.157   8.111
   10AU     LIG 5581  16.258  24.680   8.055
   10AU     LIG 5582  16.524  24.302   8.128
   10AU    AUSL 5583  16.019  28.654   7.058
   10AU    AUSL 5584  16.398  28.588   7.230
   10AU     AUL 5585  16.327  28.794   6.959
   10AU       S 5586  16.069  29.215   6.970
   10AU     LIG 5587  16.288  29.529   6.666
   10AU     LIG 5588  16.396  29.863   6.340
   10AU     LIG 5589  16.414  30.029   5.874
   10AU     LIG 5590  16.351  30.356   5.517
   10AU     LIG 5591  16.299  30.831   5.399
   10AU     LIG 5592  16.234  31.308   5.335
   10AU       S 5593  16.819  28.569   6.924
   10AU     LIG 5594  17.193  28.862   6.867
   10AU     LIG 5595  17.422  29.112   6.529
   10AU     LIG 5596  17.572  29.533   6.361
   10AU     LIG 5597  17.895  29.833   6.177
   10AU     LIG 5598  18.211  30.139   5.972
   10AU     LIG 5599  18.286  30.613   6.016
   10AU    AUSL 5600  15.838  28.734   7.331
   10AU    AUSL 5601  15.734  28.507   6.961
   10AU     AUL 5602  15.698  28.873   7.051
   10AU       S 5603  16.092  29.187   7.259
   10AU     LIG 5604  16.137  29.691   7.128
   10AU     LIG 5605  16.182  30.079   6.804
   10AU     LIG 5606  16.060  30.564   6.667
   10AU     LIG 5607  15.868  31.040   6.587
   10AU     LIG 5608  15.849  31.550   6.550
   10AU     LIG 5609  15.481  31.878   6.499
   10AU       S 5610  15.443  28.717   6.630
   10AU     LIG 5611  15.241  28.902   6.223
   10AU     LIG 5612  15.093  29.072   5.792
   10AU     LIG 5613  14.962  29.362   5.436
   10AU     LIG 5614  14.957  29.588   4.998
   10AU     LIG 5615  14.743  29.864   4.660
   10AU     LIG 5616  14.524  30.282   4.640
   10AU    AUSL 5617  15.933  27.467   7.113
   10AU    AUSL 5618  15.578  27.501   7.234
   10AU     AUL 5619  15.810  27.294   6.932
   10AU       S 5620  15.292  27.254   7.056
   10AU     LIG 5621  15.001  27.005   7.238
   10AU     LIG 5622  14.699  26.692   7.070
   10AU     LIG 5623  14.391  26.403   6.801
   10AU     LIG 5624  14.119  26.146   6.494
   10AU     LIG 5625  13.778  25.901   6.279
   10AU     LIG 5626  13.627  25.461   6.181
   10AU       S 5627  15.670  26.990   7.292
   10AU     LIG 5628  15.519  26.770   6.894
   10AU     LIG 5629  15.443  26.312   6.776
   10AU     LIG 5630  15.526  25.863   6.589
   10AU     LIG 5631  15.553  25.537   6.220
   10AU     LIG 5632  15.551  25.211   5.851
   10AU     LIG 5633  15.594  24.783   5.638
   10AU    AUSL 5634  16.145  27.347   7.342
   10AU    AUSL 5635  16.198  27.579   6.952
   10AU     AUL 5636  16.186  27.198   7.060
   10AU       S 5637  15.822  26.893   7.303
   10AU     LIG 5638  15.722  26.425   7.232
   10AU     LIG 5639  15.741  25.974   7.053
   10AU     LIG 5640  15.952  25.573   6.859
   10AU     LIG 5641  16.276  25.189   6.842
   10AU     LIG 5642  16.580  24.834   6.660
   10AU     LIG 5643  16.696  24.356   6.639
   10AU       S 5644  16.402  27.337   6.626
   10AU     LIG 5645  16.477  27.020   6.302
   10AU     LIG 5646  16.630  26.594   6.180
   10AU     LIG 5647  16.904  26.236   6.014
   10AU     LIG 5648  16.996  25.893   5.681
   10AU     LIG 5649  17.169  25.771   5.247
   10AU     LIG 5650  17.468  25.664   4.898
   11POPC   NC3 5651  40.336  30.906   9.667
   11POPC   PO4 5652  40.913  30.709   9.460
   11POPC   GL1 5653  40.733  30.815   9.100
   11POPC   GL2 5654  40.363  30.838   9.160
   11POPC   C1A 5655  40.814  30.841   8.667
   11POPC   D2A 5656  40.497  30.963   8.388
   11POPC   C3A 5657  40.698  30.942   7.998
   11POPC   C4A 5658  40.985  30.916   7.705
   11POPC   C1B 5659  40.364  30.644   8.770
   11POPC   C2B 5660  40.537  30.435   8.400
   11POPC   C3B 5661  40.611  30.434   7.958
   11POPC   C4B 5662  40.488  30.677   7.597
   12POPC   NC3 5663  35.749  20.063   9.584
   12POPC   PO4 5664  35.945  19.459   9.674
   12POPC   GL1 5665  35.989  19.482   9.250
   12POPC   GL2 5666  35.980  19.842   9.162
   12POPC   C1A 5667  35.987  19.451   8.799
   12POPC   D2A 5668  35.995  19.752   8.430
   12POPC   C3A 5669  36.188  19.620   8.024
   12POPC   C4A 5670  36.242  19.397   7.651
   12POPC   C1B 5671  35.922  20.124   8.785
   12POPC   C2B 5672  36.101  20.290   8.405
   12POPC   C3B 5673  36.046  20.109   7.977
   12POPC   C4B 5674  36.148  19.897   7.564
   13POPC   NC3 5675  28.654  21.895   9.339
   13POPC   PO4 5676  28.434  22.417   9.708
   13POPC   GL1 5677  28.145  22.360   9.235
   13POPC   GL2 5678  28.167  21.954   9.146
   13POPC   C1A 5679  28.108  22.241   8.754
   13POPC   D2A 5680  28.025  22.009   8.412
   13POPC   C3A 5681  28.179  22.291   8.089
   13POPC   C4A 5682  28.598  22.374   7.917
   13POPC   C1B 5683  28.430  21.792   8.709
   13POPC   C2B 5684  28.506  21.675   8.237
   13POPC   C3B 5685  28.471  21.877   7.806
   13POPC   C4B 5686  28.115  22.099   7.627
   14POPC   NC3 5687   4.078  34.012   9.426
   14POPC   PO4 5688   4.441  33.551   9.402
   14POPC   GL1 5689   4.368  33.742   9.068
   14POPC   GL2 5690   3.999  33.654   9.050
   14POPC   C1A 5691   4.379  33.584   8.668
   14POPC   D2A 5692   4.287  33.226   8.400
   14POPC   C3A 5693   4.142  33.438   8.032
   14POPC   C4A 5694   4.395  33.693   7.774
   14POPC   C1B 5695   4.060  34.035   8.787
   14POPC   C2B 5696   4.253  34.021   8.427
   14POPC   C3B 5697   4.170  34.153   8.057
   14POPC   C4B 5698   3.974  34.032   7.743
   15POPC   NC3 5699   8.055  33.350   9.450
   15POPC   PO4 5700   7.974  34.032   9.433
   15POPC   GL1 5701   8.238  33.920   9.111
   15POPC   GL2 5702   8.098  33.576   8.992
   15POPC   C1A 5703   8.388  33.868   8.697
   15POPC   D2A 5704   8.152  33.651   8.404
   15POPC   C3A 5705   8.076  33.947   8.057
   15POPC   C4A 5706   8.343  33.961   7.708
   15POPC   C1B 5707   8.403  33.320   8.728
   15POPC   C2B 5708   8.542  33.318   8.295
   15POPC   C3B 5709   8.338  33.507   7.951
   15POPC   C4B 5710   8.490  33.515   7.526
   16POPC   NC3 5711  10.111  40.534   9.459
   16POPC   PO4 5712   9.585  40.896   9.477
   16POPC   GL1 5713   9.750  40.733   9.082
   16POPC   GL2 5714  10.121  40.751   8.988
   16POPC   C1A 5715   9.510  40.566   8.726
   16POPC   D2A 5716   9.445  40.738   8.315
   16POPC   C3A 5717   9.699  40.544   8.006
   16POPC   C4A 5718   9.561  40.601   7.619
   16POPC   C1B 5719   9.964  40.781   8.549
   16POPC   C2B 5720   9.887  40.990   8.156
   16POPC   C3B 5721   9.977  40.965   7.707
   16POPC   C4B 5722  10.120  41.159   7.313
   17POPC   NC3 5723  32.152  13.099   9.818
   17POPC   PO4 5724  32.051  12.527   9.441
   17POPC   GL1 5725  32.286  12.912   9.312
   17POPC   GL2 5726  32.040  13.198   9.319
   17POPC   C1A 5727  32.399  13.039   8.876
   17POPC   D2A 5728  32.508  12.879   8.453
   17POPC   C3A 5729  32.434  13.009   8.012
   17POPC   C4A 5730  32.404  12.766   7.629
   17POPC   C1B 5731  31.894  12.953   8.956
   17POPC   C2B 5732  32.021  12.768   8.592
   17POPC   C3B 5733  31.964  12.833   8.145
   17POPC   C4B 5734  31.944  12.981   7.714
   18POPC   NC3 5735  30.002  13.940   9.496
   18POPC   PO4 5736  30.210  14.626   9.465
   18POPC   GL1 5737  29.954  14.386   9.180
   18POPC   GL2 5738  30.262  14.175   9.131
   18POPC   C1A 5739  29.679  14.457   8.797
   18POPC   D2A 5740  29.795  14.652   8.388
   18POPC   C3A 5741  29.596  14.610   7.975
   18POPC   C4A 5742  29.784  14.506   7.540
   18POPC   C1B 5743  30.065  14.143   8.721
   18POPC   C2B 5744  30.193  14.335   8.348
   18POPC   C3B 5745  30.092  14.437   7.945
   18POPC   C4B 5746  30.317  14.440   7.553
   19POPC   NC3 5747   7.864  31.885   9.561
   19POPC   PO4 5748   8.268  32.383   9.414
   19POPC   GL1 5749   8.074  32.311   9.062
   19POPC   GL2 5750   7.788  32.078   9.080
   19POPC   C1A 5751   8.320  32.218   8.676
   19POPC   D2A 5752   8.559  32.045   8.340
   19POPC   C3A 5753   8.357  32.191   8.009
   19POPC   C4A 5754   8.014  32.382   7.792
   19POPC   C1B 5755   7.793  32.266   8.646
   19POPC   C2B 5756   7.888  32.085   8.247
   19POPC   C3B 5757   7.650  31.991   7.880
   19POPC   C4B 5758   7.748  32.070   7.451
   20POPC   NC3 5759  18.616   2.883   9.516
   20POPC   PO4 5760  19.193   2.498   9.494
   20POPC   GL1 5761  19.137   2.778   9.156
   20POPC   GL2 5762  18.853   2.726   9.081
   20POPC   C1A 5763  19.314   2.964   8.779
   20POPC   D2A 5764  19.150   3.010   8.339
   20POPC   C3A 5765  19.379   2.972   7.909
   20POPC   C4A 5766  19.256   2.828   7.464
   20POPC   C1B 5767  18.984   2.597   8.680
   20POPC   C2B 5768  18.829   2.562   8.306
   20POPC   C3B 5769  18.910   2.763   7.947
   20POPC   C4B 5770  18.786   2.680   7.563
   21POPC   NC3 5771  42.429  44.283   9.947
   21POPC   PO4 5772  42.301  44.754   9.445
   21POPC   GL1 5773  42.046  44.630   9.089
   21POPC   GL2 5774  42.329  44.452   9.038
   21POPC   C1A 5775  42.099  44.529   8.601
   21POPC   D2A 5776  42.344  44.424   8.214
   21POPC   C3A 5777  42.169  44.585   7.824
   21POPC   C4A 5778  42.250  44.443   7.430
   21POPC   C1B 5779  42.447  44.847   8.798
   21POPC   C2B 5780  42.645  44.792   8.400
   21POPC   C3B 5781  42.543  44.868   7.965
   21POPC   C4B 5782  42.713  44.734   7.554
   22POPC   NC3 5783  29.780  14.821   9.479
   22POPC   PO4 5784  30.171  15.413   9.471
   22POPC   GL1 5785  30.022  15.149   9.171
   22POPC   GL2 5786  29.666  15.242   9.147
   22POPC   C1A 5787  29.913  14.896   8.840
   22POPC   D2A 5788  29.919  15.137   8.505
   22POPC   C3A 5789  29.869  15.070   8.098
   22POPC   C4A 5790  29.797  14.991   7.708
   22POPC   C1B 5791  29.680  15.524   8.747
   22POPC   C2B 5792  29.681  15.523   8.267
   22POPC   C3B 5793  29.630  15.449   7.810
   22POPC   C4B 5794  29.629  15.372   7.331
   23POPC   NC3 5795   0.670  41.126   9.397
   23POPC   PO4 5796   0.636  41.828   9.501
   23POPC   GL1 5797   0.529  41.544   9.145
   23POPC   GL2 5798   0.859  41.494   9.095
   23POPC   C1A 5799   0.315  41.568   8.722
   23POPC   D2A 5800   0.222  41.233   8.412
   23POPC   C3A 5801   0.264  41.363   7.985
   23POPC   C4A 5802   0.235  41.516   7.539
   23POPC   C1B 5803   0.698  41.228   8.754
   23POPC   C2B 5804   0.720  41.371   8.354
   23POPC   C3B 5805   0.751  41.216   7.976
   23POPC   C4B 5806   0.700  41.493   7.691
   24POPC   NC3 5807  32.180  18.710   9.355
   24POPC   PO4 5808  32.116  19.359   9.443
   24POPC   GL1 5809  32.014  19.142   9.079
   24POPC   GL2 5810  31.769  18.861   9.105
   24POPC   C1A 5811  32.255  19.161   8.694
   24POPC   D2A 5812  32.515  19.174   8.324
   24POPC   C3A 5813  32.321  19.252   7.933
   24POPC   C4A 5814  32.230  19.020   7.563
   24POPC   C1B 5815  32.024  18.681   8.750
   24POPC   C2B 5816  32.340  18.688   8.458
   24POPC   C3B 5817  32.340  18.758   8.037
   24POPC   C4B 5818  31.924  18.727   7.848
   25POPC   NC3 5819  18.808  42.224   9.537
   25POPC   PO4 5820  19.330  41.954   9.173
   25POPC   GL1 5821  19.145  42.336   9.059
   25POPC   GL2 5822  18.786  42.419   9.084
   25POPC   C1A 5823  19.347  42.406   8.671
   25POPC   D2A 5824  19.410  42.156   8.310
   25POPC   C3A 5825  19.472  42.487   8.045
   25POPC   C4A 5826  19.445  42.504   7.640
   25POPC   C1B 5827  18.837  42.437   8.668
   25POPC   C2B 5828  18.996  42.487   8.271
   25POPC   C3B 5829  18.949  42.311   7.874
   25POPC   C4B 5830  18.699  42.536   7.570
   26POPC   NC3 5831   2.350  13.794   9.631
   26POPC   PO4 5832   2.021  13.229   9.832
   26POPC   GL1 5833   1.926  13.556   9.391
   26POPC   GL2 5834   2.142  13.811   9.193
   26POPC   C1A 5835   1.808  13.588   8.897
   26POPC   D2A 5836   1.668  13.549   8.448
   26POPC   C3A 5837   1.924  13.346   8.140
   26POPC   C4A 5838   1.891  13.403   7.711
   26POPC   C1B 5839   2.128  14.032   8.830
   26POPC   C2B 5840   1.936  14.020   8.457
   26POPC   C3B 5841   2.116  14.137   8.093
   26POPC   C4B 5842   1.927  13.913   7.770
   27POPC   NC3 5843   9.260  37.689   9.318
   27POPC   PO4 5844   9.910  37.535   9.551
   27POPC   GL1 5845   9.746  37.597   9.160
   27POPC   GL2 5846   9.687  37.927   9.147
   27POPC   C1A 5847   9.957  37.537   8.752
   27POPC   D2A 5848   9.943  37.823   8.437
   27POPC   C3A 5849   9.906  37.575   8.076
   27POPC   C4A 5850   9.753  37.682   7.677
   27POPC   C1B 5851   9.521  37.791   8.710
   27POPC   C2B 5852   9.456  37.769   8.240
   27POPC   C3B 5853   9.309  37.882   7.842
   27POPC   C4B 5854   9.177  38.015   7.399
   28POPC   NC3 5855  11.207  18.828   9.491
   28POPC   PO4 5856  11.445  19.435   9.492
   28POPC   GL1 5857  11.358  19.187   9.159
   28POPC   GL2 5858  11.437  18.826   9.043
   28POPC   C1A 5859  11.399  19.286   8.763
   28POPC   D2A 5860  11.355  18.943   8.483
   28POPC   C3A 5861  11.331  19.066   8.085
   28POPC   C4A 5862  11.191  18.954   7.667
   28POPC   C1B 5863  11.585  18.541   8.703
   28POPC   C2B 5864  11.756  18.637   8.294
   28POPC   C3B 5865  11.517  18.645   7.891
   28POPC   C4B 5866  11.523  18.664   7.418
   29POPC   NC3 5867  10.888  43.837   9.578
   29POPC   PO4 5868  11.532  43.596   9.642
   29POPC   GL1 5869  11.368  43.892   9.329
   29POPC   GL2 5870  11.557  43.674   9.107
   29POPC   C1A 5871  11.204  43.969   8.908
   29POPC   D2A 5872  11.365  43.846   8.529
   29POPC   C3A 5873  11.095  43.875   8.190
   29POPC   C4A 5874  11.108  43.885   7.757
   29POPC   C1B 5875  11.576  43.411   8.753
   29POPC   C2B 5876  11.720  43.525   8.349
   29POPC   C3B 5877  11.582  43.803   8.029
   29POPC   C4B 5878  11.738  43.822   7.628
   30POPC   NC3 5879  26.518  40.776   9.496
   30POPC   PO4 5880  27.138  40.470   9.546
   30POPC   GL1 5881  26.965  40.787   9.245
   30POPC   GL2 5882  26.690  40.621   9.057
   30POPC   C1A 5883  26.982  40.974   8.819
   30POPC   D2A 5884  27.198  41.075   8.428
   30POPC   C3A 5885  26.987  41.208   8.059
   30POPC   C4A 5886  27.049  40.983   7.696
   30POPC   C1B 5887  26.720  40.517   8.638
   30POPC   C2B 5888  26.783  40.825   8.334
   30POPC   C3B 5889  26.602  40.860   7.932
   30POPC   C4B 5890  26.370  40.493   7.771
   31POPC   NC3 5891  32.485  16.294   9.550
   31POPC   PO4 5892  32.011  16.823   9.619
   31POPC   GL1 5893  32.141  16.783   9.186
   31POPC   GL2 5894  32.473  16.697   9.176
   31POPC   C1A 5895  32.235  16.878   8.740
   31POPC   D2A 5896  32.246  17.012   8.323
   31POPC   C3A 5897  32.178  16.675   8.004
   31POPC   C4A 5898  31.818  16.643   7.764
   31POPC   C1B 5899  32.653  16.575   8.748
   31POPC   C2B 5900  32.622  16.625   8.257
   31POPC   C3B 5901  32.593  16.463   7.802
   31POPC   C4B 5902  32.617  16.656   7.381
   32POPC   NC3 5903  34.239   1.025   9.820
   32POPC   PO4 5904  34.736   1.213   9.468
   32POPC   GL1 5905  34.676   1.221   9.051
   32POPC   GL2 5906  34.379   1.423   9.076
   32POPC   C1A 5907  34.897   1.141   8.664
   32POPC   D2A 5908  34.913   1.372   8.266
   32POPC   C3A 5909  35.053   1.246   7.837
   32POPC   C4A 5910  34.992   1.046   7.402
   32POPC   C1B 5911  34.478   1.425   8.633
   32POPC   C2B 5912  34.407   1.409   8.215
   32POPC   C3B 5913  34.536   1.311   7.832
   32POPC   C4B 5914  34.276   1.474   7.546
   33POPC   NC3 5915   2.197  33.148   9.640
   33POPC   PO4 5916   1.608  32.905   9.463
   33POPC   GL1 5917   1.748  33.158   9.152
   33POPC   GL2 5918   2.109  33.106   9.142
   33POPC   C1A 5919   1.834  33.039   8.735
   33POPC   D2A 5920   2.030  32.865   8.396
   33POPC   C3A 5921   1.842  32.984   8.006
   33POPC   C4A 5922   1.944  33.044   7.571
   33POPC   C1B 5923   2.312  33.242   8.756
   33POPC   C2B 5924   2.515  33.035   8.442
   33POPC   C3B 5925   2.354  33.100   8.057
   33POPC   C4B 5926   2.374  33.290   7.704
   34POPC   NC3 5927  14.552  39.138   9.656
   34POPC   PO4 5928  14.740  39.680   9.368
   34POPC   GL1 5929  14.371  39.553   9.151
   34POPC   GL2 5930  14.281  39.181   9.111
   34POPC   C1A 5931  14.344  39.553   8.714
   34POPC   D2A 5932  14.168  39.327   8.375
   34POPC   C3A 5933  14.392  39.385   8.002
   34POPC   C4A 5934  14.428  39.328   7.537
   34POPC   C1B 5935  14.556  39.104   8.714
   34POPC   C2B 5936  14.653  38.952   8.279
   34POPC   C3B 5937  14.539  38.930   7.847
   34POPC   C4B 5938  14.753  38.949   7.414
   35POPC   NC3 5939  14.487  32.648   9.459
   35POPC   PO4 5940  14.080  33.181   9.366
   35POPC   GL1 5941  14.435  33.308   9.118
   35POPC   GL2 5942  14.740  33.106   9.170
   35POPC   C1A 5943  14.499  33.223   8.680
   35POPC   D2A 5944  14.262  33.032   8.336
   35POPC   C3A 5945  14.401  33.132   7.918
   35POPC   C4A 5946  14.350  32.874   7.523
   35POPC   C1B 5947  14.739  32.742   8.851
   35POPC   C2B 5948  14.590  32.512   8.469
   35POPC   C3B 5949  14.569  32.666   8.058
   35POPC   C4B 5950  14.797  32.843   7.738
   36POPC   NC3 5951  27.035  10.998   9.411
   36POPC   PO4 5952  27.166  10.276   9.531
   36POPC   GL1 5953  26.888  10.514   9.181
   36POPC   GL2 5954  26.653  10.253   9.014
   36POPC   C1A 5955  26.796  10.641   8.721
   36POPC   D2A 5956  26.836  10.371   8.347
   36POPC   C3A 5957  26.814  10.537   7.917
   36POPC   C4A 5958  26.648  10.344   7.521
   36POPC   C1B 5959  27.064  10.206   8.797
   36POPC   C2B 5960  27.327  10.367   8.498
   36POPC   C3B 5961  27.290  10.401   8.083
   36POPC   C4B 5962  27.170  10.232   7.697
   37POPC   NC3 5963  30.078  10.264  10.033
   37POPC   PO4 5964  29.783   9.911   9.549
   37POPC   GL1 5965  29.957   9.799   9.147
   37POPC   GL2 5966  29.662   9.702   9.048
   37POPC   C1A 5967  29.946   9.844   8.666
   37POPC   D2A 5968  29.632   9.985   8.359
   37POPC   C3A 5969  29.862   9.958   7.955
   37POPC   C4A 5970  30.200   9.705   7.734
   37POPC   C1B 5971  29.652   9.414   8.732
   37POPC   C2B 5972  29.721   9.232   8.349
   37POPC   C3B 5973  29.845   9.414   8.003
   37POPC   C4B 5974  29.719   9.550   7.621
   38POPC   NC3 5975  24.945  19.280   9.369
   38POPC   PO4 5976  24.423  18.746   9.510
   38POPC   GL1 5977  24.309  18.965   9.137
   38POPC   GL2 5978  24.666  18.996   9.083
   38POPC   C1A 5979  24.412  19.076   8.684
   38POPC   D2A 5980  24.593  19.010   8.298
   38POPC   C3A 5981  24.372  19.131   7.938
   38POPC   C4A 5982  24.188  18.996   7.546
   38POPC   C1B 5983  24.921  19.165   8.698
   38POPC   C2B 5984  25.099  19.066   8.265
   38POPC   C3B 5985  24.881  19.022   7.851
   38POPC   C4B 5986  24.631  19.217   7.498
   39POPC   NC3 5987  29.014  12.443   9.407
   39POPC   PO4 5988  28.997  11.786   9.485
   39POPC   GL1 5989  29.270  12.042   9.220
   39POPC   GL2 5990  29.022  12.054   8.986
   39POPC   C1A 5991  29.493  12.136   8.845
   39POPC   D2A 5992  29.304  12.065   8.443
   39POPC   C3A 5993  29.509  12.068   8.073
   39POPC   C4A 5994  29.371  12.018   7.650
   39POPC   C1B 5995  28.869  12.265   8.623
   39POPC   C2B 5996  29.041  12.476   8.253
   39POPC   C3B 5997  29.254  12.456   7.862
   39POPC   C4B 5998  29.131  12.412   7.404
   40POPC   NC3 5999   3.039  27.927   9.340
   40POPC   PO4 6000   2.661  28.252   9.801
   40POPC   GL1 6001   2.565  28.181   9.354
   40POPC   GL2 6002   2.812  28.405   9.208
   40POPC   C1A 6003   2.556  28.108   8.874
   40POPC   D2A 6004   2.712  28.058   8.428
   40POPC   C3A 6005   2.515  28.341   8.120
   40POPC   C4A 6006   2.616  28.521   7.723
   40POPC   C1B 6007   3.060  28.315   8.807
   40POPC   C2B 6008   3.022  28.474   8.377
   40POPC   C3B 6009   3.004  28.297   7.959
   40POPC   C4B 6010   3.006  28.314   7.459
   41POPC   NC3 6011  17.419  15.657   9.598
   41POPC   PO4 6012  17.913  16.175   9.503
   41POPC   GL1 6013  17.793  15.798   9.183
   41POPC   GL2 6014  17.422  15.672   9.094
   41POPC   C1A 6015  17.748  15.672   8.710
   41POPC   D2A 6016  17.482  15.862   8.361
   41POPC   C3A 6017  17.627  16.054   7.965
   41POPC   C4A 6018  17.346  16.389   7.823
   41POPC   C1B 6019  17.249  15.504   8.688
   41POPC   C2B 6020  17.082  15.563   8.258
   41POPC   C3B 6021  17.338  15.639   7.878
   41POPC   C4B 6022  17.286  15.497   7.446
   42POPC   NC3 6023  18.323  31.449   9.611
   42POPC   PO4 6024  18.049  32.006   9.411
   42POPC   GL1 6025  18.261  31.717   9.176
   42POPC   GL2 6026  18.606  31.686   9.186
   42POPC   C1A 6027  18.124  31.802   8.761
   42POPC   D2A 6028  18.245  31.661   8.378
   42POPC   C3A 6029  18.056  31.805   8.001
   42POPC   C4A 6030  18.156  31.629   7.621
   42POPC   C1B 6031  18.466  31.400   8.821
   42POPC   C2B 6032  18.626  31.307   8.376
   42POPC   C3B 6033  18.493  31.371   7.901
   42POPC   C4B 6034  18.545  31.431   7.377
   43POPC   NC3 6035  38.565  39.051   9.700
   43POPC   PO4 6036  38.259  39.656   9.767
   43POPC   GL1 6037  38.493  39.409   9.365
   43POPC   GL2 6038  38.351  39.073   9.227
   43POPC   C1A 6039  38.602  39.385   8.895
   43POPC   D2A 6040  38.512  39.593   8.487
   43POPC   C3A 6041  38.599  39.410   8.076
   43POPC   C4A 6042  38.323  39.378   7.746
   43POPC   C1B 6043  38.188  39.044   8.782
   43POPC   C2B 6044  38.426  39.043   8.422
   43POPC   C3B 6045  38.330  38.958   8.003
   43POPC   C4B 6046  38.295  38.957   7.498
   44POPC   NC3 6047  36.678  39.101   9.425
   44POPC   PO4 6048  36.096  39.461   9.561
   44POPC   GL1 6049  36.197  39.197   9.202
   44POPC   GL2 6050  36.192  38.830   9.273
   44POPC   C1A 6051  36.359  39.241   8.789
   44POPC   D2A 6052  36.395  39.394   8.354
   44POPC   C3A 6053  36.008  39.353   8.087
   44POPC   C4A 6054  36.151  39.262   7.697
   44POPC   C1B 6055  36.038  38.828   8.839
   44POPC   C2B 6056  36.075  38.986   8.430
   44POPC   C3B 6057  36.279  38.886   8.052
   44POPC   C4B 6058  36.127  38.723   7.670
   45POPC   NC3 6059  21.992  41.226   9.444
   45POPC   PO4 6060  22.389  41.797   9.505
   45POPC   GL1 6061  22.312  41.547   9.179
   45POPC   GL2 6062  21.957  41.649   9.128
   45POPC   C1A 6063  22.346  41.704   8.791
   45POPC   D2A 6064  22.460  41.542   8.426
   45POPC   C3A 6065  22.299  41.668   8.051
   45POPC   C4A 6066  22.165  41.457   7.675
   45POPC   C1B 6067  21.937  41.381   8.759
   45POPC   C2B 6068  22.059  41.255   8.338
   45POPC   C3B 6069  21.886  41.159   7.973
   45POPC   C4B 6070  21.737  41.139   7.525
   46POPC   NC3 6071   5.093  34.718   9.474
   46POPC   PO4 6072   4.737  34.327   9.723
   46POPC   GL1 6073   4.871  34.352   9.216
   46POPC   GL2 6074   5.211  34.514   9.034
   46POPC   C1A 6075   4.788  34.383   8.773
   46POPC   D2A 6076   4.971  34.595   8.411
   46POPC   C3A 6077   4.875  34.403   7.983
   46POPC   C4A 6078   4.908  34.382   7.526
   46POPC   C1B 6079   5.373  34.793   8.703
   46POPC   C2B 6080   5.291  34.944   8.262
   46POPC   C3B 6081   5.279  34.706   7.900
   46POPC   C4B 6082   5.576  34.492   7.701
   47POPC   NC3 6083  14.145  40.886   9.433
   47POPC   PO4 6084  14.811  41.155   9.303
   47POPC   GL1 6085  14.557  40.876   9.115
   47POPC   GL2 6086  14.625  40.566   9.312
   47POPC   C1A 6087  14.226  40.767   8.797
   47POPC   D2A 6088  13.987  40.765   8.416
   47POPC   C3A 6089  14.317  40.773   8.097
   47POPC   C4A 6090  14.445  41.003   7.749
   47POPC   C1B 6091  14.673  40.459   8.879
   47POPC   C2B 6092  14.534  40.459   8.475
   47POPC   C3B 6093  14.589  40.332   8.083
   47POPC   C4B 6094  14.555  40.505   7.712
   48POPC   NC3 6095   9.405  28.291   9.688
   48POPC   PO4 6096   9.944  28.637   9.483
   48POPC   GL1 6097   9.780  28.412   9.141
   48POPC   GL2 6098   9.446  28.305   9.171
   48POPC   C1A 6099   9.609  28.617   8.778
   48POPC   D2A 6100   9.812  28.720   8.406
   48POPC   C3A 6101   9.637  28.764   8.012
   48POPC   C4A 6102   9.791  28.531   7.678
   48POPC   C1B 6103   9.524  28.116   8.807
   48POPC   C2B 6104   9.816  28.195   8.510
   48POPC   C3B 6105   9.762  28.215   8.084
   48POPC   C4B 6106   9.809  28.025   7.700
   49POPC   NC3 6107   6.609  38.069   9.815
   49POPC   PO4 6108   6.457  38.727   9.581
   49POPC   GL1 6109   6.650  38.550   9.230
   49POPC   GL2 6110   6.725  38.227   9.326
   49POPC   C1A 6111   6.452  38.544   8.799
   49POPC   D2A 6112   6.192  38.562   8.421
   49POPC   C3A 6113   6.412  38.713   8.055
   49POPC   C4A 6114   6.651  38.867   7.684
   49POPC   C1B 6115   6.812  38.176   8.876
   49POPC   C2B 6116   6.860  38.010   8.456
   49POPC   C3B 6117   6.739  38.055   8.025
   49POPC   C4B 6118   6.971  38.188   7.665
   50POPC   NC3 6119   1.644  26.148   9.586
   50POPC   PO4 6120   2.230  25.756   9.494
   50POPC   GL1 6121   1.963  25.904   9.188
   50POPC   GL2 6122   1.970  26.249   9.215
   50POPC   C1A 6123   2.072  25.932   8.745
   50POPC   D2A 6124   2.259  26.004   8.315
   50POPC   C3A 6125   1.969  25.971   7.997
   50POPC   C4A 6126   1.939  25.757   7.576
   50POPC   C1B 6127   1.708  26.283   8.873
   50POPC   C2B 6128   1.858  26.291   8.446
   50POPC   C3B 6129   1.880  26.492   8.083
   50POPC   C4B 6130   1.837  26.353   7.706
   51POPC   NC3 6131  26.405   7.482   9.542
   51POPC   PO4 6132  25.755   7.576   9.585
   51POPC   GL1 6133  25.914   7.664   9.199
   51POPC   GL2 6134  26.250   7.767   9.151
   51POPC   C1A 6135  25.838   7.408   8.861
   51POPC   D2A 6136  26.056   7.270   8.541
   51POPC   C3A 6137  26.043   7.581   8.250
   51POPC   C4A 6138  25.912   7.551   7.855
   51POPC   C1B 6139  26.406   7.656   8.749
   51POPC   C2B 6140  26.506   7.438   8.383
   51POPC   C3B 6141  26.265   7.154   8.082
   51POPC   C4B 6142  26.385   7.078   7.658
   52POPC   NC3 6143  20.208  42.916   9.442
   52POPC   PO4 6144  19.756  43.446   9.418
   52POPC   GL1 6145  20.021  43.298   9.074
   52POPC   GL2 6146  20.404  43.147   9.043
   52POPC   C1A 6147  19.751  43.140   8.731
   52POPC   D2A 6148  19.839  42.874   8.376
   52POPC   C3A 6149  19.619  43.002   7.994
   52POPC   C4A 6150  19.745  43.432   7.828
   52POPC   C1B 6151  20.250  43.105   8.639
   52POPC   C2B 6152  20.001  43.368   8.346
   52POPC   C3B 6153  20.108  43.151   8.034
   52POPC   C4B 6154  20.464  43.061   7.916
   53POPC   NC3 6155  35.659  44.040   9.417
   53POPC   PO4 6156  35.090  43.585   9.560
   53POPC   GL1 6157  35.268  43.641   9.120
   53POPC   GL2 6158  35.298  44.023   9.029
   53POPC   C1A 6159  35.096  43.673   8.656
   53POPC   D2A 6160  35.131  43.964   8.397
   53POPC   C3A 6161  35.176  43.893   7.975
   53POPC   C4A 6162  35.311  44.277   7.780
   53POPC   C1B 6163  35.573  43.793   8.740
   53POPC   C2B 6164  35.603  43.805   8.300
   53POPC   C3B 6165  35.702  43.970   7.883
   53POPC   C4B 6166  35.446  43.859   7.517
   54POPC   NC3 6167  37.832  22.523   9.555
   54POPC   PO4 6168  37.377  23.103   9.477
   54POPC   GL1 6169  37.669  23.071   9.155
   54POPC   GL2 6170  37.913  22.838   9.169
   54POPC   C1A 6171  37.652  22.934   8.751
   54POPC   D2A 6172  37.339  22.824   8.523
   54POPC   C3A 6173  37.450  22.747   8.121
   54POPC   C4A 6174  37.555  22.636   7.720
   54POPC   C1B 6175  37.989  22.541   8.809
   54POPC   C2B 6176  37.884  22.426   8.372
   54POPC   C3B 6177  38.020  22.671   7.993
   54POPC   C4B 6178  37.851  23.054   7.811
   55POPC   NC3 6179  11.302   7.876   9.661
   55POPC   PO4 6180  11.136   8.450   9.508
   55POPC   GL1 6181  11.407   8.266   9.266
   55POPC   GL2 6182  11.183   7.996   9.170
   55POPC   C1A 6183  11.457   8.272   8.833
   55POPC   D2A 6184  11.286   8.099   8.447
   55POPC   C3A 6185  11.278   8.288   8.058
   55POPC   C4A 6186  11.606   8.265   7.770
   55POPC   C1B 6187  10.941   7.969   8.788
   55POPC   C2B 6188  10.804   8.034   8.339
   55POPC   C3B 6189  11.052   7.834   8.051
   55POPC   C4B 6190  11.214   7.894   7.686
   56POPC   NC3 6191  15.847  41.382   9.602
   56POPC   PO4 6192  16.003  40.723   9.738
   56POPC   GL1 6193  15.989  40.820   9.291
   56POPC   GL2 6194  16.327  40.795   9.147
   56POPC   C1A 6195  15.932  40.722   8.847
   56POPC   D2A 6196  15.958  40.862   8.425
   56POPC   C3A 6197  16.029  40.592   8.090
   56POPC   C4A 6198  16.005  40.760   7.692
   56POPC   C1B 6199  16.329  41.063   8.774
   56POPC   C2B 6200  16.540  41.028   8.386
   56POPC   C3B 6201  16.341  41.009   7.989
   56POPC   C4B 6202  16.207  41.209   7.603
   57POPC   NC3 6203  21.070  37.155   9.395
   57POPC   PO4 6204  21.687  36.948   9.593
   57POPC   GL1 6205  21.432  36.864   9.201
   57POPC   GL2 6206  21.337  36.572   9.053
   57POPC   C1A 6207  21.246  36.977   8.757
   57POPC   D2A 6208  21.458  37.196   8.398
   57POPC   C3A 6209  21.472  36.947   8.031
   57POPC   C4A 6210  21.407  36.949   7.604
   57POPC   C1B 6211  21.186  36.458   8.653
   57POPC   C2B 6212  21.258  36.501   8.223
   57POPC   C3B 6213  21.057  36.670   7.858
   57POPC   C4B 6214  21.108  36.530   7.472
   58POPC   NC3 6215  31.806  20.762   9.564
   58POPC   PO4 6216  31.189  20.619   9.342
   58POPC   GL1 6217  31.449  20.819   9.005
   58POPC   GL2 6218  31.841  20.805   9.018
   58POPC   C1A 6219  31.511  20.557   8.636
   58POPC   D2A 6220  31.335  20.390   8.307
   58POPC   C3A 6221  31.522  20.521   7.979
   58POPC   C4A 6222  31.589  20.191   7.709
   58POPC   C1B 6223  31.911  20.842   8.548
   58POPC   C2B 6224  31.658  21.044   8.204
   58POPC   C3B 6225  31.676  21.029   7.740
   58POPC   C4B 6226  31.498  20.724   7.496
   59POPC   NC3 6227  36.442   0.588   9.641
   59POPC   PO4 6228  35.805   0.224   9.673
   59POPC   GL1 6229  36.126   0.207   9.300
   59POPC   GL2 6230  36.178   0.485   9.162
   59POPC   C1A 6231  36.290   0.149   8.820
   59POPC   D2A 6232  36.274   0.384   8.387
   59POPC   C3A 6233  36.018   0.323   8.006
   59POPC   C4A 6234  36.197   0.510   7.653
   59POPC   C1B 6235  36.006   0.607   8.730
   59POPC   C2B 6236  35.838   0.719   8.286
   59POPC   C3B 6237  35.896   0.885   7.852
   59POPC   C4B 6238  35.832   0.807   7.396
   60POPC   NC3 6239  12.709  39.411   9.854
   60POPC   PO4 6240  13.202  39.191   9.649
   60POPC   GL1 6241  12.979  39.159   9.223
   60POPC   GL2 6242  13.013  39.457   9.035
   60POPC   C1A 6243  12.984  39.077   8.725
   60POPC   D2A 6244  13.009  39.326   8.319
   60POPC   C3A 6245  12.952  39.045   7.993
   60POPC   C4A 6246  12.765  39.050   7.591
   60POPC   C1B 6247  12.710  39.554   8.688
   60POPC   C2B 6248  12.588  39.640   8.231
   60POPC   C3B 6249  12.797  39.532   7.817
   60POPC   C4B 6250  12.760  39.729   7.348
   61POPC   NC3 6251  10.964  28.949   9.400
   61POPC   PO4 6252  10.386  29.344   9.634
   61POPC   GL1 6253  10.484  29.133   9.251
   61POPC   GL2 6254  10.551  29.441   9.104
   61POPC   C1A 6255  10.609  28.982   8.820
   61POPC   D2A 6256  10.772  29.103   8.387
   61POPC   C3A 6257  10.630  28.889   8.032
   61POPC   C4A 6258  10.506  28.999   7.608
   61POPC   C1B 6259  10.762  29.479   8.713
   61POPC   C2B 6260  10.727  29.651   8.297
   61POPC   C3B 6261  10.723  29.389   7.920
   61POPC   C4B 6262  10.923  29.253   7.549
   62POPC   NC3 6263  31.009  16.463   9.407
   62POPC   PO4 6264  30.472  16.947   9.424
   62POPC   GL1 6265  30.701  16.761   9.109
   62POPC   GL2 6266  31.071  16.836   9.060
   62POPC   C1A 6267  30.504  16.693   8.735
   62POPC   D2A 6268  30.520  16.892   8.331
   62POPC   C3A 6269  30.555  16.646   7.959
   62POPC   C4A 6270  30.409  16.718   7.547
   62POPC   C1B 6271  30.983  16.783   8.654
   62POPC   C2B 6272  30.955  16.624   8.286
   62POPC   C3B 6273  30.952  16.984   8.010
   62POPC   C4B 6274  30.852  16.945   7.589
   63POPC   NC3 6275  31.333  27.186   9.628
   63POPC   PO4 6276  31.413  26.519   9.593
   63POPC   GL1 6277  31.625  26.835   9.350
   63POPC   GL2 6278  31.341  26.877   9.189
   63POPC   C1A 6279  31.722  27.084   8.942
   63POPC   D2A 6280  31.759  26.978   8.486
   63POPC   C3A 6281  31.498  27.122   8.188
   63POPC   C4A 6282  31.348  26.991   7.794
   63POPC   C1B 6283  31.479  26.640   8.823
   63POPC   C2B 6284  31.375  26.547   8.434
   63POPC   C3B 6285  31.581  26.616   8.055
   63POPC   C4B 6286  31.542  26.382   7.693
   64POPC   NC3 6287  31.546  34.570   9.684
   64POPC   PO4 6288  32.092  34.886   9.453
   64POPC   GL1 6289  31.995  34.733   9.056
   64POPC   GL2 6290  32.041  34.381   8.894
   64POPC   C1A 6291  32.227  34.790   8.672
   64POPC   D2A 6292  32.367  34.518   8.334
   64POPC   C3A 6293  32.182  34.692   7.968
   64POPC   C4A 6294  32.052  34.643   7.546
   64POPC   C1B 6295  32.465  34.197   8.749
   64POPC   C2B 6296  32.580  33.990   8.346
   64POPC   C3B 6297  32.350  34.064   7.943
   64POPC   C4B 6298  32.410  34.260   7.506
   65POPC   NC3 6299  40.898   6.829   9.623
   65POPC   PO4 6300  40.327   6.375   9.555
   65POPC   GL1 6301  40.590   6.596   9.251
   65POPC   GL2 6302  40.803   6.909   9.132
   65POPC   C1A 6303  40.692   6.498   8.837
   65POPC   D2A 6304  40.884   6.521   8.427
   65POPC   C3A 6305  40.679   6.560   8.023
   65POPC   C4A 6306  40.974   6.809   7.764
   65POPC   C1B 6307  40.567   7.047   8.753
   65POPC   C2B 6308  40.545   7.221   8.300
   65POPC   C3B 6309  40.491   7.032   7.848
   65POPC   C4B 6310  40.494   7.011   7.380
   66POPC   NC3 6311  36.562   2.215   9.586
   66POPC   PO4 6312  37.146   1.846   9.739
   66POPC   GL1 6313  36.920   1.887   9.299
   66POPC   GL2 6314  36.661   2.114   9.116
   66POPC   C1A 6315  37.038   1.932   8.843
   66POPC   D2A 6316  36.932   1.748   8.440
   66POPC   C3A 6317  36.898   1.977   8.057
   66POPC   C4A 6318  37.098   1.913   7.695
   66POPC   C1B 6319  36.534   1.880   8.752
   66POPC   C2B 6320  36.485   2.064   8.351
   66POPC   C3B 6321  36.406   2.033   7.902
   66POPC   C4B 6322  36.612   1.980   7.511
   67POPC   NC3 6323  31.920  22.415   9.493
   67POPC   PO4 6324  32.292  21.847   9.527
   67POPC   GL1 6325  32.239  22.153   9.194
   67POPC   GL2 6326  31.921  22.024   9.158
   67POPC   C1A 6327  32.447  22.277   8.787
   67POPC   D2A 6328  32.395  22.421   8.333
   67POPC   C3A 6329  32.197  22.341   7.925
   67POPC   C4A 6330  32.372  22.049   7.605
   67POPC   C1B 6331  31.954  22.169   8.768
   67POPC   C2B 6332  31.887  22.260   8.355
   67POPC   C3B 6333  31.904  21.947   8.045
   67POPC   C4B 6334  31.865  22.018   7.613
   68POPC   NC3 6335   7.883  20.278   9.485
   68POPC   PO4 6336   8.530  20.393   9.628
   68POPC   GL1 6337   8.353  20.427   9.191
   68POPC   GL2 6338   8.111  20.679   9.125
   68POPC   C1A 6339   8.368  20.555   8.731
   68POPC   D2A 6340   8.110  20.651   8.412
   68POPC   C3A 6341   8.337  20.553   8.071
   68POPC   C4A 6342   8.327  20.177   7.825
   68POPC   C1B 6343   7.863  20.451   8.823
   68POPC   C2B 6344   7.606  20.566   8.481
   68POPC   C3B 6345   7.745  20.501   8.073
   68POPC   C4B 6346   7.975  20.603   7.721
   69POPC   NC3 6347   2.686  41.651   9.587
   69POPC   PO4 6348   3.109  41.138   9.441
   69POPC   GL1 6349   3.005  41.565   9.171
   69POPC   GL2 6350   2.658  41.733   9.103
   69POPC   C1A 6351   3.000  41.817   8.747
   69POPC   D2A 6352   2.927  41.623   8.353
   69POPC   C3A 6353   2.920  41.751   7.916
   69POPC   C4A 6354   3.043  41.347   7.726
   69POPC   C1B 6355   2.589  41.475   8.797
   69POPC   C2B 6356   2.411  41.570   8.410
   69POPC   C3B 6357   2.539  41.406   8.035
   69POPC   C4B 6358   2.573  41.177   7.686
   70POPC   NC3 6359  40.885  38.782   9.499
   70POPC   PO4 6360  40.463  38.314   9.507
   70POPC   GL1 6361  40.772  38.384   9.184
   70POPC   GL2 6362  40.979  38.108   9.223
   70POPC   C1A 6363  40.703  38.556   8.766
   70POPC   D2A 6364  40.559  38.817   8.434
   70POPC   C3A 6365  40.663  38.656   8.046
   70POPC   C4A 6366  40.558  38.402   7.714
   70POPC   C1B 6367  40.947  38.113   8.756
   70POPC   C2B 6368  40.743  38.249   8.346
   70POPC   C3B 6369  40.968  38.226   7.944
   70POPC   C4B 6370  41.003  38.310   7.478
   71POPC   NC3 6371  42.228   0.843   9.790
   71POPC   PO4 6372  42.080   1.432   9.475
   71POPC   GL1 6373  42.217   1.310   9.085
   71POPC   GL2 6374  42.416   1.036   9.158
   71POPC   C1A 6375  42.418   1.235   8.692
   71POPC   D2A 6376  42.384   0.971   8.369
   71POPC   C3A 6377  42.426   1.094   7.986
   71POPC   C4A 6378  42.231   1.309   7.678
   71POPC   C1B 6379  42.107   0.862   8.809
   71POPC   C2B 6380  42.051   0.605   8.457
   71POPC   C3B 6381  42.054   0.713   8.061
   71POPC   C4B 6382  42.202   0.768   7.664
   72POPC   NC3 6383  32.835  28.826   9.679
   72POPC   PO4 6384  33.027  28.231   9.413
   72POPC   GL1 6385  33.025  28.472   9.045
   72POPC   GL2 6386  33.291  28.298   8.963
   72POPC   C1A 6387  32.948  28.624   8.633
   72POPC   D2A 6388  33.024  28.534   8.199
   72POPC   C3A 6389  32.719  28.453   7.894
   72POPC   C4A 6390  32.772  28.513   7.413
   72POPC   C1B 6391  33.422  28.423   8.630
   72POPC   C2B 6392  33.472  28.219   8.321
   72POPC   C3B 6393  33.426  28.302   7.965
   72POPC   C4B 6394  33.161  28.315   7.687
   73POPC   NC3 6395  17.877  33.928  10.012
   73POPC   PO4 6396  18.370  33.554   9.644
   73POPC   GL1 6397  18.281  33.796   9.282
   73POPC   GL2 6398  17.983  33.690   9.131
   73POPC   C1A 6399  18.395  33.803   8.862
   73POPC   D2A 6400  18.269  33.829   8.451
   73POPC   C3A 6401  18.515  33.727   8.112
   73POPC   C4A 6402  18.379  33.780   7.700
   73POPC   C1B 6403  17.932  34.027   8.778
   73POPC   C2B 6404  18.041  34.313   8.401
   73POPC   C3B 6405  18.151  34.268   7.928
   73POPC   C4B 6406  17.992  34.109   7.503
   74POPC   NC3 6407  31.775  36.087   9.489
   74POPC   PO4 6408  31.152  35.988   9.838
   74POPC   GL1 6409  31.235  36.195   9.360
   74POPC   GL2 6410  31.465  36.000   9.089
   74POPC   C1A 6411  31.231  36.402   8.894
   74POPC   D2A 6412  31.355  36.201   8.460
   74POPC   C3A 6413  31.401  36.417   8.038
   74POPC   C4A 6414  31.094  36.588   7.749
   74POPC   C1B 6415  31.811  35.763   8.832
   74POPC   C2B 6416  31.981  35.710   8.386
   74POPC   C3B 6417  31.883  35.832   7.947
   74POPC   C4B 6418  31.458  35.940   7.787
   75POPC   NC3 6419  11.662  19.814   9.354
   75POPC   PO4 6420  11.071  20.097   9.471
   75POPC   GL1 6421  11.154  20.040   9.065
   75POPC   GL2 6422  11.228  19.684   9.085
   75POPC   C1A 6423  11.263  19.999   8.645
   75POPC   D2A 6424  11.284  20.148   8.248
   75POPC   C3A 6425  11.369  19.869   7.978
   75POPC   C4A 6426  11.423  19.947   7.589
   75POPC   C1B 6427  10.996  19.561   8.739
   75POPC   C2B 6428  11.202  19.555   8.361
   75POPC   C3B 6429  11.039  19.451   7.975
   75POPC   C4B 6430  11.378  19.430   7.701
   76POPC   NC3 6431  18.374  14.320   9.572
   76POPC   PO4 6432  17.717  14.287   9.471
   76POPC   GL1 6433  18.096  14.333   9.155
   76POPC   GL2 6434  18.447  14.152   9.118
   76POPC   C1A 6435  18.130  14.450   8.746
   76POPC   D2A 6436  17.976  14.608   8.369
   76POPC   C3A 6437  18.204  14.445   8.019
   76POPC   C4A 6438  18.023  14.282   7.661
   76POPC   C1B 6439  18.508  14.054   8.729
   76POPC   C2B 6440  18.599  14.233   8.345
   76POPC   C3B 6441  18.565  14.065   7.962
   76POPC   C4B 6442  18.532  14.241   7.614
   77POPC   NC3 6443  20.349  42.077   9.511
   77POPC   PO4 6444  20.506  42.667   9.203
   77POPC   GL1 6445  20.791  42.458   8.983
   77POPC   GL2 6446  20.739  42.145   9.148
   77POPC   C1A 6447  20.633  42.438   8.586
   77POPC   D2A 6448  20.407  42.650   8.264
   77POPC   C3A 6449  20.680  42.482   7.956
   77POPC   C4A 6450  20.751  42.289   7.533
   77POPC   C1B 6451  20.364  42.093   8.839
   77POPC   C2B 6452  20.327  42.099   8.358
   77POPC   C3B 6453  20.244  42.209   7.891
   77POPC   C4B 6454  20.261  42.187   7.407
   78POPC   NC3 6455   7.271  27.603   9.621
   78POPC   PO4 6456   7.898  27.649   9.622
   78POPC   GL1 6457   7.573  27.571   9.219
   78POPC   GL2 6458   7.192  27.456   9.122
   78POPC   C1A 6459   7.613  27.415   8.794
   78POPC   D2A 6460   7.336  27.386   8.450
   78POPC   C3A 6461   7.532  27.529   8.076
   78POPC   C4A 6462   7.403  27.452   7.678
   78POPC   C1B 6463   7.250  27.778   8.800
   78POPC   C2B 6464   7.364  27.915   8.358
   78POPC   C3B 6465   7.158  27.857   7.894
   78POPC   C4B 6466   7.123  27.753   7.348
   79POPC   NC3 6467   0.118  40.661   9.582
   79POPC   PO4 6468   0.157  41.207   9.279
   79POPC   GL1 6469   0.386  40.826   9.108
   79POPC   GL2 6470   0.359  40.442   9.171
   79POPC   C1A 6471   0.561  40.706   8.746
   79POPC   D2A 6472   0.673  40.831   8.327
   79POPC   C3A 6473   0.356  40.855   7.985
   79POPC   C4A 6474   0.468  41.045   7.573
   79POPC   C1B 6475   0.156  40.361   8.783
   79POPC   C2B 6476   0.240  40.502   8.360
   79POPC   C3B 6477   0.152  40.344   7.949
   79POPC   C4B 6478   0.179  40.588   7.563
   80POPC   NC3 6479   4.510  19.878   9.399
   80POPC   PO4 6480   3.910  19.717   9.171
   80POPC   GL1 6481   4.284  19.775   8.942
   80POPC   GL2 6482   4.312  20.127   8.996
   80POPC   C1A 6483   4.357  19.535   8.564
   80POPC   D2A 6484   4.145  19.730   8.241
   80POPC   C3A 6485   4.158  19.605   7.833
   80POPC   C4A 6486   4.160  19.876   7.494
   80POPC   C1B 6487   3.922  20.263   8.786
   80POPC   C2B 6488   3.779  20.178   8.390
   80POPC   C3B 6489   3.902  20.093   7.973
   80POPC   C4B 6490   3.863  20.292   7.597
   81POPC   NC3 6491  36.520  18.560   9.596
   81POPC   PO4 6492  35.864  18.483   9.872
   81POPC   GL1 6493  36.030  18.416   9.343
   81POPC   GL2 6494  36.343  18.468   9.129
   81POPC   C1A 6495  36.069  18.125   8.895
   81POPC   D2A 6496  36.364  18.059   8.540
   81POPC   C3A 6497  36.248  18.317   8.206
   81POPC   C4A 6498  35.985  18.179   7.857
   81POPC   C1B 6499  36.264  18.578   8.701
   81POPC   C2B 6500  36.540  18.757   8.379
   81POPC   C3B 6501  36.676  18.658   7.988
   81POPC   C4B 6502  36.419  18.428   7.744
   82POPC   NC3 6503  41.785  22.368   9.464
   82POPC   PO4 6504  41.410  21.988   9.316
   82POPC   GL1 6505  41.723  22.111   9.002
   82POPC   GL2 6506  42.081  22.150   9.083
   82POPC   C1A 6507  41.690  22.314   8.603
   82POPC   D2A 6508  41.767  22.375   8.161
   82POPC   C3A 6509  41.581  22.036   7.887
   82POPC   C4A 6510  41.241  21.856   7.594
   82POPC   C1B 6511  42.171  22.159   8.622
   82POPC   C2B 6512  42.185  22.084   8.154
   82POPC   C3B 6513  42.051  22.238   7.761
   82POPC   C4B 6514  41.814  22.111   7.412
   83POPC   NC3 6515  22.201  33.960   9.633
   83POPC   PO4 6516  21.684  33.599   9.789
   83POPC   GL1 6517  21.867  33.698   9.315
   83POPC   GL2 6518  21.755  34.005   9.110
   83POPC   C1A 6519  22.206  33.826   8.963
   83POPC   D2A 6520  22.331  33.740   8.514
   83POPC   C3A 6521  22.132  33.792   8.095
   83POPC   C4A 6522  22.393  33.724   7.712
   83POPC   C1B 6523  21.826  33.861   8.630
   83POPC   C2B 6524  21.723  34.133   8.314
   83POPC   C3B 6525  21.768  34.155   7.920
   83POPC   C4B 6526  21.893  33.845   7.627
   84POPC   NC3 6527  15.166  33.378   9.535
   84POPC   PO4 6528  15.446  33.956   9.675
   84POPC   GL1 6529  15.185  33.946   9.240
   84POPC   GL2 6530  15.018  33.622   9.114
   84POPC   C1A 6531  15.019  34.046   8.810
   84POPC   D2A 6532  15.052  33.744   8.500
   84POPC   C3A 6533  15.202  33.916   8.133
   84POPC   C4A 6534  15.154  33.762   7.725
   84POPC   C1B 6535  15.409  33.550   8.880
   84POPC   C2B 6536  15.562  33.653   8.462
   84POPC   C3B 6537  15.530  33.541   8.021
   84POPC   C4B 6538  15.551  33.462   7.564
   85POPC   NC3 6539  27.474   0.065   9.846
   85POPC   PO4 6540  27.386  44.613   9.525
   85POPC   GL1 6541  27.653  44.517   9.169
   85POPC   GL2 6542  27.744  44.840   9.107
   85POPC   C1A 6543  27.721  44.429   8.727
   85POPC   D2A 6544  27.716  44.656   8.330
   85POPC   C3A 6545  27.645  44.375   7.963
   85POPC   C4A 6546  27.405  44.236   7.597
   85POPC   C1B 6547  27.456  44.882   8.752
   85POPC   C2B 6548  27.353   0.035   8.326
   85POPC   C3B 6549  27.522  44.910   7.913
   85POPC   C4B 6550  27.435  44.733   7.491
   86POPC   NC3 6551  34.974  36.212   9.359
   86POPC   PO4 6552  35.331  35.618   9.463
   86POPC   GL1 6553  35.186  35.836   9.075
   86POPC   GL2 6554  35.396  36.168   9.056
   86POPC   C1A 6555  35.138  36.024   8.645
   86POPC   D2A 6556  35.479  36.115   8.341
   86POPC   C3A 6557  35.261  36.026   8.018
   86POPC   C4A 6558  35.318  35.955   7.635
   86POPC   C1B 6559  35.401  36.476   8.684
   86POPC   C2B 6560  35.129  36.500   8.321
   86POPC   C3B 6561  35.272  36.500   7.883
   86POPC   C4B 6562  35.392  36.400   7.430
   87POPC   NC3 6563  30.144  23.728   9.545
   87POPC   PO4 6564  29.771  24.260   9.445
   87POPC   GL1 6565  29.923  24.029   9.099
   87POPC   GL2 6566  29.929  23.649   9.110
   87POPC   C1A 6567  29.858  23.885   8.683
   87POPC   D2A 6568  29.603  23.762   8.364
   87POPC   C3A 6569  29.674  23.991   7.980
   87POPC   C4A 6570  29.671  23.808   7.605
   87POPC   C1B 6571  30.214  23.471   8.805
   87POPC   C2B 6572  30.041  23.486   8.391
   87POPC   C3B 6573  29.903  23.528   7.996
   87POPC   C4B 6574  30.108  23.505   7.602
   88POPC   NC3 6575  44.913  23.097   9.690
   88POPC   PO4 6576  44.679  22.508   9.544
   88POPC   GL1 6577  44.696  22.893   9.208
   88POPC   GL2 6578  44.635  22.683   8.920
   88POPC   C1A 6579  44.976  23.008   8.772
   88POPC   D2A 6580   0.119  22.869   8.304
   88POPC   C3A 6581  44.910  23.086   7.927
   88POPC   C4A 6582  44.782  23.138   7.486
   88POPC   C1B 6583  44.919  22.500   8.607
   88POPC   C2B 6584  44.926  22.284   8.245
   88POPC   C3B 6585  44.792  22.574   7.962
   88POPC   C4B 6586  44.442  22.819   7.786
   89POPC   NC3 6587  44.665  10.974   9.553
   89POPC   PO4 6588   0.089  11.443   9.522
   89POPC   GL1 6589   0.019  11.248   9.128
   89POPC   GL2 6590  44.649  11.251   9.116
   89POPC   C1A 6591  44.938  11.483   8.746
   89POPC   D2A 6592  44.649  11.610   8.426
   89POPC   C3A 6593  44.884  11.525   8.051
   89POPC   C4A 6594  44.976  11.359   7.667
   89POPC   C1B 6595  44.533  11.171   8.694
   89POPC   C2B 6596  44.680  11.094   8.301
   89POPC   C3B 6597  44.584  11.125   7.899
   89POPC   C4B 6598  44.266  10.919   7.687
   90POPC   NC3 6599  22.948  12.924   9.407
   90POPC   PO4 6600  22.882  12.214   9.546
   90POPC   GL1 6601  22.980  12.465   9.152
   90POPC   GL2 6602  22.689  12.650   9.096
   90POPC   C1A 6603  22.902  12.585   8.679
   90POPC   D2A 6604  22.992  12.802   8.365
   90POPC   C3A 6605  22.776  12.792   8.027
   90POPC   C4A 6606  23.079  12.715   7.762
   90POPC   C1B 6607  22.722  13.061   8.799
   90POPC   C2B 6608  22.815  13.260   8.384
   90POPC   C3B 6609  22.616  13.268   7.964
   90POPC   C4B 6610  22.649  13.025   7.570
   91POPC   NC3 6611  21.550  21.910   9.856
   91POPC   PO4 6612  21.784  22.399   9.572
   91POPC   GL1 6613  21.695  22.414   9.112
   91POPC   GL2 6614  21.369  22.485   9.042
   91POPC   C1A 6615  21.762  22.382   8.679
   91POPC   D2A 6616  21.692  22.061   8.377
   91POPC   C3A 6617  21.516  22.160   7.963
   91POPC   C4A 6618  21.152  22.268   7.683
   91POPC   C1B 6619  21.290  22.170   8.702
   91POPC   C2B 6620  21.185  21.959   8.296
   91POPC   C3B 6621  21.073  21.803   7.874
   91POPC   C4B 6622  20.957  21.876   7.412
   92POPC   NC3 6623  34.816  15.079   9.495
   92POPC   PO4 6624  34.181  15.079   9.514
   92POPC   GL1 6625  34.439  15.147   9.102
   92POPC   GL2 6626  34.826  15.217   9.020
   92POPC   C1A 6627  34.525  15.100   8.641
   92POPC   D2A 6628  34.657  14.970   8.233
   92POPC   C3A 6629  34.325  15.033   7.933
   92POPC   C4A 6630  34.242  15.426   7.701
   92POPC   C1B 6631  34.883  15.528   8.696
   92POPC   C2B 6632  34.923  15.611   8.271
   92POPC   C3B 6633  34.743  15.422   7.923
   92POPC   C4B 6634  34.797  15.073   7.713
   93POPC   NC3 6635  25.827  26.459   9.448
   93POPC   PO4 6636  26.036  26.986   9.760
   93POPC   GL1 6637  26.043  26.887   9.275
   93POPC   GL2 6638  26.103  26.569   9.054
   93POPC   C1A 6639  25.951  26.968   8.814
   93POPC   D2A 6640  26.007  26.677   8.490
   93POPC   C3A 6641  26.136  26.866   8.110
   93POPC   C4A 6642  26.111  26.905   7.686
   93POPC   C1B 6643  25.797  26.317   8.809
   93POPC   C2B 6644  25.699  26.252   8.395
   93POPC   C3B 6645  25.714  26.553   8.072
   93POPC   C4B 6646  25.792  26.521   7.664
   94POPC   NC3 6647   9.903  35.574   9.595
   94POPC   PO4 6648   9.961  34.974   9.547
   94POPC   GL1 6649   9.732  35.208   9.213
   94POPC   GL2 6650   9.666  35.581   9.153
   94POPC   C1A 6651   9.682  35.254   8.772
   94POPC   D2A 6652   9.844  35.380   8.391
   94POPC   C3A 6653   9.935  35.095   8.110
   94POPC   C4A 6654   9.686  35.274   7.801
   94POPC   C1B 6655   9.903  35.727   8.755
   94POPC   C2B 6656  10.033  35.856   8.306
   94POPC   C3B 6657   9.954  35.732   7.841
   94POPC   C4B 6658   9.977  35.629   7.359
   95POPC   NC3 6659   7.004  33.193   9.520
   95POPC   PO4 6660   7.663  33.107   9.442
   95POPC   GL1 6661   7.533  32.832   9.105
   95POPC   GL2 6662   7.167  32.804   9.205
   95POPC   C1A 6663   7.632  32.789   8.626
   95POPC   D2A 6664   7.597  33.107   8.295
   95POPC   C3A 6665   7.572  33.080   7.874
   95POPC   C4A 6666   7.775  32.821   7.681
   95POPC   C1B 6667   7.159  32.935   8.791
   95POPC   C2B 6668   7.189  32.835   8.378
   95POPC   C3B 6669   7.184  32.748   7.978
   95POPC   C4B 6670   6.931  32.611   7.678
   96POPC   NC3 6671  30.868   6.355   9.447
   96POPC   PO4 6672  30.269   6.422   9.466
   96POPC   GL1 6673  30.496   6.377   9.064
   96POPC   GL2 6674  30.823   6.255   8.935
   96POPC   C1A 6675  30.436   6.369   8.619
   96POPC   D2A 6676  30.676   6.444   8.263
   96POPC   C3A 6677  30.359   6.627   8.042
   96POPC   C4A 6678  30.331   6.951   7.744
   96POPC   C1B 6679  30.773   6.714   8.730
   96POPC   C2B 6680  30.648   6.952   8.312
   96POPC   C3B 6681  30.812   6.823   7.874
   96POPC   C4B 6682  31.143   6.860   7.537
   97POPC   NC3 6683  38.191   9.284   9.406
   97POPC   PO4 6684  38.490   8.892   9.903
   97POPC   GL1 6685  38.479   8.852   9.377
   97POPC   GL2 6686  38.718   8.787   9.138
   97POPC   C1A 6687  38.308   8.917   8.885
   97POPC   D2A 6688  38.250   8.992   8.415
   97POPC   C3A 6689  38.450   9.276   8.105
   97POPC   C4A 6690  38.370   9.228   7.665
   97POPC   C1B 6691  38.706   8.620   8.734
   97POPC   C2B 6692  38.682   8.735   8.302
   97POPC   C3B 6693  38.698   8.900   7.891
   97POPC   C4B 6694  38.687   8.673   7.498
   98POPC   NC3 6695  39.816  40.943   9.620
   98POPC   PO4 6696  40.391  40.642   9.543
   98POPC   GL1 6697  40.160  40.871   9.244
   98POPC   GL2 6698  39.838  40.670   9.180
   98POPC   C1A 6699  40.033  41.131   8.889
   98POPC   D2A 6700  39.796  40.974   8.535
   98POPC   C3A 6701  39.927  40.814   8.146
   98POPC   C4A 6702  39.787  40.979   7.783
   98POPC   C1B 6703  40.044  40.426   8.851
   98POPC   C2B 6704  40.023  40.353   8.414
   98POPC   C3B 6705  40.122  40.358   7.996
   98POPC   C4B 6706  40.085  40.604   7.643
   99POPC   NC3 6707  22.438   4.171   9.393
   99POPC   PO4 6708  21.909   4.540   9.629
   99POPC   GL1 6709  21.929   4.286   9.230
   99POPC   GL2 6710  21.855   3.899   9.213
   99POPC   C1A 6711  22.082   4.471   8.833
   99POPC   D2A 6712  22.126   4.648   8.416
   99POPC   C3A 6713  22.225   4.533   7.957
   99POPC   C4A 6714  22.553   4.182   7.824
   99POPC   C1B 6715  21.836   4.028   8.757
   99POPC   C2B 6716  22.062   4.139   8.360
   99POPC   C3B 6717  22.060   4.056   7.904
   99POPC   C4B 6718  21.840   4.352   7.686
  100POPC   NC3 6719  31.785  30.267   9.391
  100POPC   PO4 6720  31.511  29.655   9.447
  100POPC   GL1 6721  31.391  29.834   9.103
  100POPC   GL2 6722  31.291  30.139   9.282
  100POPC   C1A 6723  31.456  29.659   8.706
  100POPC   D2A 6724  31.205  29.586   8.339
  100POPC   C3A 6725  31.422  29.640   7.989
  100POPC   C4A 6726  31.287  29.809   7.612
  100POPC   C1B 6727  31.209  30.244   8.867
  100POPC   C2B 6728  31.344  30.240   8.469
  100POPC   C3B 6729  31.307  30.143   8.059
  100POPC   C4B 6730  31.439  30.282   7.684
  101POPC   NC3 6731  21.420  31.906   9.605
  101POPC   PO4 6732  21.755  31.383   9.386
  101POPC   GL1 6733  21.250  31.435   9.304
  101POPC   GL2 6734  21.178  31.745   9.184
  101POPC   C1A 6735  20.972  31.392   8.888
  101POPC   D2A 6736  21.176  31.293   8.490
  101POPC   C3A 6737  21.109  31.459   8.085
  101POPC   C4A 6738  21.390  31.624   7.782
  101POPC   C1B 6739  21.450  31.602   8.856
  101POPC   C2B 6740  21.547  31.651   8.448
  101POPC   C3B 6741  21.603  31.938   8.135
  101POPC   C4B 6742  21.860  31.986   7.797
  102POPC   NC3 6743  16.125  39.458   9.833
  102POPC   PO4 6744  15.884  39.083   9.330
  102POPC   GL1 6745  15.767  39.218   8.980
  102POPC   GL2 6746  16.030  39.048   8.818
  102POPC   C1A 6747  15.579  39.115   8.594
  102POPC   D2A 6748  15.706  39.359   8.300
  102POPC   C3A 6749  15.838  39.205   7.941
  102POPC   C4A 6750  15.697  39.563   7.792
  102POPC   C1B 6751  16.088  39.462   8.621
  102POPC   C2B 6752  16.160  39.543   8.176
  102POPC   C3B 6753  16.353  39.323   7.821
  102POPC   C4B 6754  16.231  38.932   7.620
  103POPC   NC3 6755  14.145  38.139   9.410
  103POPC   PO4 6756  14.442  38.691   9.669
  103POPC   GL1 6757  14.538  38.641   9.208
  103POPC   GL2 6758  14.193  38.547   9.086
  103POPC   C1A 6759  14.526  38.601   8.725
  103POPC   D2A 6760  14.271  38.599   8.335
  103POPC   C3A 6761  14.509  38.426   8.011
  103POPC   C4A 6762  14.642  38.504   7.614
  103POPC   C1B 6763  14.105  38.279   8.704
  103POPC   C2B 6764  14.074  38.099   8.262
  103POPC   C3B 6765  14.142  38.164   7.802
  103POPC   C4B 6766  14.015  37.929   7.462
  104POPC   NC3 6767  33.332  41.645   9.408
  104POPC   PO4 6768  32.709  41.321   9.410
  104POPC   GL1 6769  32.815  41.551   9.053
  104POPC   GL2 6770  33.016  41.867   9.067
  104POPC   C1A 6771  32.991  41.449   8.664
  104POPC   D2A 6772  33.294  41.518   8.333
  104POPC   C3A 6773  33.020  41.631   7.997
  104POPC   C4A 6774  32.929  41.353   7.657
  104POPC   C1B 6775  33.390  41.799   8.769
  104POPC   C2B 6776  33.497  41.982   8.353
  104POPC   C3B 6777  33.466  41.914   7.902
  104POPC   C4B 6778  33.152  41.823   7.527
  105POPC   NC3 6779   0.816  44.005   9.380
  105POPC   PO4 6780   0.142  44.134   9.527
  105POPC   GL1 6781   0.214  43.955   9.127
  105POPC   GL2 6782   0.486  43.703   9.151
  105POPC   C1A 6783   0.227  43.706   8.737
  105POPC   D2A 6784   0.394  43.742   8.312
  105POPC   C3A 6785   0.274  44.050   7.996
  105POPC   C4A 6786   0.057  43.823   7.682
  105POPC   C1B 6787   0.623  44.010   8.779
  105POPC   C2B 6788   0.846  43.941   8.406
  105POPC   C3B 6789   0.759  43.923   7.964
  105POPC   C4B 6790   0.539  43.681   7.657
  106POPC   NC3 6791   7.422   9.581   9.428
  106POPC   PO4 6792   7.278  10.181   9.491
  106POPC   GL1 6793   7.159  10.071   9.110
  106POPC   GL2 6794   7.501   9.926   9.047
  106POPC   C1A 6795   7.218  10.107   8.682
  106POPC   D2A 6796   7.537   9.943   8.409
  106POPC   C3A 6797   7.281   9.953   8.081
  106POPC   C4A 6798   7.211  10.268   7.825
  106POPC   C1B 6799   7.383   9.593   8.750
  106POPC   C2B 6800   7.347   9.476   8.307
  106POPC   C3B 6801   7.643   9.609   7.960
  106POPC   C4B 6802   7.833   9.723   7.547
  107POPC   NC3 6803  39.908  22.744   9.499
  107POPC   PO4 6804  39.952  23.283   9.452
  107POPC   GL1 6805  39.917  23.001   9.072
  107POPC   GL2 6806  39.673  22.707   9.017
  107POPC   C1A 6807  40.100  22.729   8.742
  107POPC   D2A 6808  40.173  22.587   8.342
  107POPC   C3A 6809  39.948  22.662   7.954
  107POPC   C4A 6810  40.186  22.774   7.559
  107POPC   C1B 6811  39.710  23.014   8.619
  107POPC   C2B 6812  40.003  23.085   8.261
  107POPC   C3B 6813  39.918  23.132   7.785
  107POPC   C4B 6814  40.029  23.242   7.365
  108POPC   NC3 6815  35.010  17.552   9.352
  108POPC   PO4 6816  35.643  17.565   9.544
  108POPC   GL1 6817  35.494  17.366   9.188
  108POPC   GL2 6818  35.407  17.707   9.049
  108POPC   C1A 6819  35.407  17.289   8.763
  108POPC   D2A 6820  35.485  17.594   8.449
  108POPC   C3A 6821  35.634  17.451   8.054
  108POPC   C4A 6822  35.415  17.340   7.723
  108POPC   C1B 6823  35.054  17.670   8.729
  108POPC   C2B 6824  35.048  17.862   8.341
  108POPC   C3B 6825  34.971  17.724   7.933
  108POPC   C4B 6826  34.987  17.964   7.564
  109POPC   NC3 6827  34.598  14.286   9.572
  109POPC   PO4 6828  34.202  14.179   9.078
  109POPC   GL1 6829  34.627  14.351   9.045
  109POPC   GL2 6830  34.943  14.204   9.193
  109POPC   C1A 6831  34.618  14.604   8.662
  109POPC   D2A 6832  34.260  14.625   8.339
  109POPC   C3A 6833  34.338  14.491   7.922
  109POPC   C4A 6834  34.743  14.603   7.874
  109POPC   C1B 6835  35.054  14.327   8.765
  109POPC   C2B 6836  34.865  14.253   8.387
  109POPC   C3B 6837  34.939  14.112   8.017
  109POPC   C4B 6838  34.683  14.135   7.665
  110POPC   NC3 6839  23.790  12.392   9.419
  110POPC   PO4 6840  23.334  12.920   9.660
  110POPC   GL1 6841  23.427  12.970   9.221
  110POPC   GL2 6842  23.629  12.714   9.052
  110POPC   C1A 6843  23.255  12.941   8.802
  110POPC   D2A 6844  23.468  12.988   8.430
  110POPC   C3A 6845  23.447  12.685   8.130
  110POPC   C4A 6846  23.601  12.606   7.741
  110POPC   C1B 6847  23.687  12.558   8.641
  110POPC   C2B 6848  23.952  12.691   8.320
  110POPC   C3B 6849  24.248  12.585   8.042
  110POPC   C4B 6850  24.097  12.522   7.680
  111POPC   NC3 6851  29.645   9.468   9.497
  111POPC   PO4 6852  30.042   8.945   9.571
  111POPC   GL1 6853  29.903   8.930   9.171
  111POPC   GL2 6854  29.941   9.264   9.119
  111POPC   C1A 6855  29.785   8.914   8.744
  111POPC   D2A 6856  29.667   8.716   8.368
  111POPC   C3A 6857  29.802   8.831   7.994
  111POPC   C4A 6858  29.548   8.710   7.646
  111POPC   C1B 6859  30.161   9.244   8.715
  111POPC   C2B 6860  30.210   8.997   8.321
  111POPC   C3B 6861  30.254   9.158   7.879
  111POPC   C4B 6862  29.897   9.092   7.578
  112POPC   NC3 6863   5.709  23.956   9.351
  112POPC   PO4 6864   6.400  23.848   9.411
  112POPC   GL1 6865   6.154  23.874   9.123
  112POPC   GL2 6866   6.064  23.549   9.112
  112POPC   C1A 6867   5.974  23.961   8.746
  112POPC   D2A 6868   5.945  23.775   8.373
  112POPC   C3A 6869   5.924  24.021   8.006
  112POPC   C4A 6870   6.103  23.936   7.614
  112POPC   C1B 6871   5.784  23.485   8.801
  112POPC   C2B 6872   5.731  23.304   8.422
  112POPC   C3B 6873   5.841  23.421   8.024
  112POPC   C4B 6874   5.648  23.673   7.723
  113POPC   NC3 6875  22.359   7.363   9.747
  113POPC   PO4 6876  23.025   7.289   9.539
  113POPC   GL1 6877  23.000   7.523   9.182
  113POPC   GL2 6878  22.665   7.500   9.199
  113POPC   C1A 6879  23.128   7.431   8.791
  113POPC   D2A 6880  23.269   7.447   8.384
  113POPC   C3A 6881  23.021   7.226   8.113
  113POPC   C4A 6882  23.082   7.322   7.703
  113POPC   C1B 6883  22.629   7.263   8.804
  113POPC   C2B 6884  22.544   7.231   8.376
  113POPC   C3B 6885  22.496   7.492   8.062
  113POPC   C4B 6886  22.603   7.534   7.686
  114POPC   NC3 6887  32.744  21.870   9.645
  114POPC   PO4 6888  33.126  22.389   9.428
  114POPC   GL1 6889  32.879  22.240   9.101
  114POPC   GL2 6890  32.677  21.925   9.146
  114POPC   C1A 6891  33.150  22.226   8.743
  114POPC   D2A 6892  33.342  22.005   8.414
  114POPC   C3A 6893  33.125  21.847   8.063
  114POPC   C4A 6894  33.221  22.013   7.682
  114POPC   C1B 6895  32.775  21.858   8.706
  114POPC   C2B 6896  32.815  22.143   8.362
  114POPC   C3B 6897  32.736  22.153   7.927
  114POPC   C4B 6898  32.769  21.730   7.675
  115POPC   NC3 6899  19.989  25.663   9.636
  115POPC   PO4 6900  19.948  26.247   9.328
  115POPC   GL1 6901  20.008  25.860   9.130
  115POPC   GL2 6902  19.684  25.729   9.237
  115POPC   C1A 6903  20.130  25.868   8.695
  115POPC   D2A 6904  20.221  25.688   8.290
  115POPC   C3A 6905  20.088  25.908   7.912
  115POPC   C4A 6906  19.984  25.852   7.487
  115POPC   C1B 6907  19.583  25.587   8.838
  115POPC   C2B 6908  19.687  25.619   8.433
  115POPC   C3B 6909  19.535  25.810   8.089
  115POPC   C4B 6910  19.536  25.763   7.676
  116POPC   NC3 6911  30.447  38.078   9.436
  116POPC   PO4 6912  30.686  38.684   9.635
  116POPC   GL1 6913  30.770  38.492   9.213
  116POPC   GL2 6914  31.077  38.339   9.118
  116POPC   C1A 6915  30.809  38.679   8.765
  116POPC   D2A 6916  30.512  38.579   8.434
  116POPC   C3A 6917  30.475  38.401   8.003
  116POPC   C4A 6918  30.658  38.663   7.655
  116POPC   C1B 6919  30.811  38.184   8.783
  116POPC   C2B 6920  30.846  38.154   8.347
  116POPC   C3B 6921  30.715  37.899   8.021
  116POPC   C4B 6922  30.468  37.903   7.712
  117POPC   NC3 6923   2.497   7.177   9.500
  117POPC   PO4 6924   2.595   7.826   9.395
  117POPC   GL1 6925   2.511   7.512   9.054
  117POPC   GL2 6926   2.452   7.127   9.011
  117POPC   C1A 6927   2.630   7.563   8.625
  117POPC   D2A 6928   2.878   7.361   8.310
  117POPC   C3A 6929   2.672   7.341   7.940
  117POPC   C4A 6930   2.587   7.545   7.562
  117POPC   C1B 6931   2.816   7.084   8.752
  117POPC   C2B 6932   2.935   6.828   8.375
  117POPC   C3B 6933   3.062   6.974   7.935
  117POPC   C4B 6934   2.996   7.266   7.549
  118POPC   NC3 6935  21.420  15.361   9.590
  118POPC   PO4 6936  21.343  14.752   9.573
  118POPC   GL1 6937  21.465  15.006   9.201
  118POPC   GL2 6938  21.577  15.323   9.117
  118POPC   C1A 6939  21.619  14.901   8.801
  118POPC   D2A 6940  21.753  14.919   8.369
  118POPC   C3A 6941  21.445  14.926   8.039
  118POPC   C4A 6942  21.728  14.879   7.746
  118POPC   C1B 6943  21.232  15.299   8.853
  118POPC   C2B 6944  21.287  15.145   8.470
  118POPC   C3B 6945  21.311  15.415   8.119
  118POPC   C4B 6946  21.260  15.426   7.709
  119POPC   NC3 6947  30.870  44.227   9.584
  119POPC   PO4 6948  30.688  43.550   9.714
  119POPC   GL1 6949  30.820  43.606   9.256
  119POPC   GL2 6950  30.723  43.925   9.214
  119POPC   C1A 6951  31.008  43.683   8.804
  119POPC   D2A 6952  31.008  43.449   8.380
  119POPC   C3A 6953  30.966  43.684   7.999
  119POPC   C4A 6954  30.652  43.895   7.716
  119POPC   C1B 6955  30.588  43.981   8.812
  119POPC   C2B 6956  30.607  43.788   8.409
  119POPC   C3B 6957  30.357  43.977   8.099
  119POPC   C4B 6958  30.436  44.363   7.844
  120POPC   NC3 6959  28.921  13.831   9.468
  120POPC   PO4 6960  29.109  13.157   9.522
  120POPC   GL1 6961  29.004  13.404   9.122
  120POPC   GL2 6962  29.191  13.733   9.051
  120POPC   C1A 6963  29.115  13.398   8.673
  120POPC   D2A 6964  28.880  13.291   8.288
  120POPC   C3A 6965  29.140  13.424   7.989
  120POPC   C4A 6966  29.462  13.655   7.838
  120POPC   C1B 6967  28.913  13.895   8.775
  120POPC   C2B 6968  29.097  13.972   8.389
  120POPC   C3B 6969  28.872  13.898   8.051
  120POPC   C4B 6970  28.861  13.736   7.659
  121POPC   NC3 6971  36.392  19.323   9.781
  121POPC   PO4 6972  36.283  18.886   9.387
  121POPC   GL1 6973  36.164  19.015   9.061
  121POPC   GL2 6974  35.869  18.868   9.054
  121POPC   C1A 6975  36.339  19.096   8.703
  121POPC   D2A 6976  36.190  19.252   8.360
  121POPC   C3A 6977  36.396  19.097   8.025
  121POPC   C4A 6978  36.457  18.933   7.620
  121POPC   C1B 6979  35.842  18.906   8.635
  121POPC   C2B 6980  36.033  18.780   8.269
  121POPC   C3B 6981  36.036  18.761   7.838
  121POPC   C4B 6982  35.796  18.953   7.477
  122POPC   NC3 6983  33.537  13.087   9.485
  122POPC   PO4 6984  32.931  12.898   9.597
  122POPC   GL1 6985  32.828  12.963   9.193
  122POPC   GL2 6986  33.111  13.210   9.147
  122POPC   C1A 6987  32.921  12.782   8.769
  122POPC   D2A 6988  33.016  12.933   8.349
  122POPC   C3A 6989  32.927  12.741   7.903
  122POPC   C4A 6990  33.277  12.558   7.644
  122POPC   C1B 6991  32.842  13.284   8.781
  122POPC   C2B 6992  32.674  13.345   8.376
  122POPC   C3B 6993  32.891  13.241   7.979
  122POPC   C4B 6994  32.779  13.117   7.548
  123POPC   NC3 6995  24.730  17.508   9.641
  123POPC   PO4 6996  24.203  17.807   9.773
  123POPC   GL1 6997  24.407  17.714   9.303
  123POPC   GL2 6998  24.714  17.557   9.140
  123POPC   C1A 6999  24.356  17.761   8.855
  123POPC   D2A 7000  24.267  17.653   8.431
  123POPC   C3A 7001  24.234  17.295   8.172
  123POPC   C4A 7002  24.462  17.546   7.855
  123POPC   C1B 7003  24.689  17.415   8.677
  123POPC   C2B 7004  24.733  17.293   8.219
  123POPC   C3B 7005  24.846  17.214   7.774
  123POPC   C4B 7006  24.955  17.308   7.343
  124POPC   NC3 7007   7.675  35.026   9.433
  124POPC   PO4 7008   7.282  34.481   9.406
  124POPC   GL1 7009   7.659  34.512   9.174
  124POPC   GL2 7010   7.667  34.215   8.944
  124POPC   C1A 7011   7.533  34.710   8.811
  124POPC   D2A 7012   7.262  34.717   8.433
  124POPC   C3A 7013   7.483  34.684   8.044
  124POPC   C4A 7014   7.496  34.331   7.762
  124POPC   C1B 7015   7.205  34.289   8.776
  124POPC   C2B 7016   6.856  34.237   8.465
  124POPC   C3B 7017   7.060  34.292   8.073
  124POPC   C4B 7018   6.985  34.365   7.649
  125POPC   NC3 7019  11.544  44.526   9.476
  125POPC   PO4 7020  10.935  44.376   9.537
  125POPC   GL1 7021  11.158  44.398   9.146
  125POPC   GL2 7022  11.213  44.687   9.109
  125POPC   C1A 7023  11.287  44.411   8.668
  125POPC   D2A 7024  11.409  44.279   8.238
  125POPC   C3A 7025  11.178  44.389   7.872
  125POPC   C4A 7026  11.170  44.661   7.494
  125POPC   C1B 7027  11.434  44.878   8.798
  125POPC   C2B 7028  11.231  44.874   8.427
  125POPC   C3B 7029  11.393  44.806   8.061
  125POPC   C4B 7030  11.371   0.066   7.726
  126POPC   NC3 7031   6.587  15.805   9.544
  126POPC   PO4 7032   6.894  16.385   9.499
  126POPC   GL1 7033   6.878  16.012   9.184
  126POPC   GL2 7034   6.510  15.992   9.063
  126POPC   C1A 7035   6.862  15.782   8.750
  126POPC   D2A 7036   6.621  15.932   8.363
  126POPC   C3A 7037   6.737  16.138   7.952
  126POPC   C4A 7038   6.751  16.205   7.491
  126POPC   C1B 7039   6.275  15.778   8.717
  126POPC   C2B 7040   6.306  15.516   8.334
  126POPC   C3B 7041   6.603  15.585   7.971
  126POPC   C4B 7042   6.483  15.794   7.617
  127POPC   NC3 7043  13.492  21.111   9.641
  127POPC   PO4 7044  13.563  20.493   9.510
  127POPC   GL1 7045  13.582  20.527   9.091
  127POPC   GL2 7046  13.537  20.889   9.153
  127POPC   C1A 7047  13.691  20.397   8.662
  127POPC   D2A 7048  13.927  20.536   8.301
  127POPC   C3A 7049  13.746  20.391   7.908
  127POPC   C4A 7050  13.661  20.563   7.492
  127POPC   C1B 7051  13.404  20.856   8.733
  127POPC   C2B 7052  13.600  20.921   8.360
  127POPC   C3B 7053  13.619  20.878   7.927
  127POPC   C4B 7054  13.325  21.098   7.660
  128POPC   NC3 7055   9.744  21.671   9.533
  128POPC   PO4 7056   9.353  21.196   9.410
  128POPC   GL1 7057   9.763  21.284   9.165
  128POPC   GL2 7058   9.840  21.639   9.033
  128POPC   C1A 7059  10.010  21.229   8.776
  128POPC   D2A 7060  10.027  21.479   8.401
  128POPC   C3A 7061   9.915  21.192   8.075
  128POPC   C4A 7062   9.649  21.130   7.716
  128POPC   C1B 7063   9.419  21.547   8.805
  128POPC   C2B 7064   9.289  21.697   8.387
  128POPC   C3B 7065   9.626  21.740   8.101
  128POPC   C4B 7066   9.881  21.594   7.770
  129POPC   NC3 7067  28.633  10.598   9.442
  129POPC   PO4 7068  28.106  10.192   9.478
  129POPC   GL1 7069  28.152  10.336   9.072
  129POPC   GL2 7070  28.309  10.662   9.054
  129POPC   C1A 7071  28.351  10.303   8.679
  129POPC   D2A 7072  28.541  10.302   8.301
  129POPC   C3A 7073  28.195  10.347   8.043
  129POPC   C4A 7074  28.340  10.541   7.707
  129POPC   C1B 7075  28.179  10.815   8.647
  129POPC   C2B 7076  28.315  10.829   8.223
  129POPC   C3B 7077  28.557  10.978   7.874
  129POPC   C4B 7078  28.509  10.938   7.432
  130POPC   NC3 7079   9.570  15.660   9.423
  130POPC   PO4 7080  10.130  15.924   9.755
  130POPC   GL1 7081  10.006  15.947   9.265
  130POPC   GL2 7082   9.691  16.092   9.131
  130POPC   C1A 7083  10.026  15.753   8.824
  130POPC   D2A 7084   9.953  15.963   8.427
  130POPC   C3A 7085   9.855  15.769   8.028
  130POPC   C4A 7086   9.570  15.806   7.758
  130POPC   C1B 7087   9.524  15.838   8.774
  130POPC   C2B 7088   9.440  15.890   8.343
  130POPC   C3B 7089   9.587  16.204   8.095
  130POPC   C4B 7090   9.485  16.321   7.690
  131POPC   NC3 7091   5.274  14.848   9.646
  131POPC   PO4 7092   4.851  15.296   9.321
  131POPC   GL1 7093   5.157  15.063   9.140
  131POPC   GL2 7094   4.973  14.748   9.241
  131POPC   C1A 7095   5.222  15.260   8.720
  131POPC   D2A 7096   4.891  15.357   8.410
  131POPC   C3A 7097   5.064  15.343   8.001
  131POPC   C4A 7098   5.469  15.239   7.921
  131POPC   C1B 7099   4.841  14.827   8.810
  131POPC   C2B 7100   5.086  14.847   8.441
  131POPC   C3B 7101   5.040  14.813   8.020
  131POPC   C4B 7102   5.146  14.965   7.621
  132POPC   NC3 7103   3.633  42.850   9.461
  132POPC   PO4 7104   3.534  43.551   9.497
  132POPC   GL1 7105   3.457  43.320   9.094
  132POPC   GL2 7106   3.422  42.968   9.028
  132POPC   C1A 7107   3.636  43.271   8.649
  132POPC   D2A 7108   3.954  43.453   8.343
  132POPC   C3A 7109   3.881  43.184   7.980
  132POPC   C4A 7110   3.470  43.097   7.773
  132POPC   C1B 7111   3.551  42.729   8.685
  132POPC   C2B 7112   3.668  42.819   8.277
  132POPC   C3B 7113   3.410  42.625   7.956
  132POPC   C4B 7114   3.240  42.694   7.544
  133POPC   NC3 7115   3.001   5.720   9.427
  133POPC   PO4 7116   2.482   6.015   9.746
  133POPC   GL1 7117   2.681   6.102   9.257
  133POPC   GL2 7118   3.014   6.051   9.040
  133POPC   C1A 7119   2.549   6.025   8.794
  133POPC   D2A 7120   2.353   6.137   8.400
  133POPC   C3A 7121   2.250   5.778   8.147
  133POPC   C4A 7122   2.499   5.572   7.864
  133POPC   C1B 7123   2.960   5.739   8.718
  133POPC   C2B 7124   2.751   5.802   8.309
  133POPC   C3B 7125   2.906   5.918   7.882
  133POPC   C4B 7126   3.109   5.762   7.489
  134POPC   NC3 7127  34.819  40.871   9.511
  134POPC   PO4 7128  34.159  40.686   9.455
  134POPC   GL1 7129  34.463  40.714   9.136
  134POPC   GL2 7130  34.520  41.063   9.104
  134POPC   C1A 7131  34.464  40.686   8.684
  134POPC   D2A 7132  34.241  40.695   8.294
  134POPC   C3A 7133  34.456  40.660   7.914
  134POPC   C4A 7134  34.549  40.766   7.501
  134POPC   C1B 7135  34.764  41.113   8.717
  134POPC   C2B 7136  34.711  40.981   8.263
  134POPC   C3B 7137  34.692  41.155   7.812
  134POPC   C4B 7138  34.927  41.105   7.385
  135POPC   NC3 7139  21.561   8.737   9.531
  135POPC   PO4 7140  21.479   9.364   9.333
  135POPC   GL1 7141  21.773   9.129   9.094
  135POPC   GL2 7142  21.731   8.773   9.070
  135POPC   C1A 7143  21.789   9.080   8.642
  135POPC   D2A 7144  21.664   9.349   8.260
  135POPC   C3A 7145  21.256   9.249   8.009
  135POPC   C4A 7146  21.237   9.021   7.613
  135POPC   C1B 7147  21.324   8.910   8.891
  135POPC   C2B 7148  21.285   9.097   8.509
  135POPC   C3B 7149  21.526   8.857   8.200
  135POPC   C4B 7150  21.438   8.598   7.854
  136POPC   NC3 7151  42.578   3.359   9.518
  136POPC   PO4 7152  42.077   3.786   9.424
  136POPC   GL1 7153  42.219   3.485   9.107
  136POPC   GL2 7154  42.549   3.578   9.070
  136POPC   C1A 7155  42.236   3.598   8.667
  136POPC   D2A 7156  42.488   3.760   8.330
  136POPC   C3A 7157  42.184   3.639   8.045
  136POPC   C4A 7158  41.930   3.753   7.708
  136POPC   C1B 7159  42.659   3.334   8.715
  136POPC   C2B 7160  42.818   3.378   8.294
  136POPC   C3B 7161  42.648   3.504   7.885
  136POPC   C4B 7162  42.303   3.353   7.632
  137POPC   NC3 7163   8.083  13.823   9.460
  137POPC   PO4 7164   8.701  13.676   9.514
  137POPC   GL1 7165   8.436  13.620   9.156
  137POPC   GL2 7166   8.096  13.427   9.170
  137POPC   C1A 7167   8.305  13.779   8.767
  137POPC   D2A 7168   8.092  13.841   8.401
  137POPC   C3A 7169   8.371  13.837   8.066
  137POPC   C4A 7170   8.318  13.631   7.671
  137POPC   C1B 7171   8.043  13.327   8.778
  137POPC   C2B 7172   8.158  13.342   8.388
  137POPC   C3B 7173   7.993  13.448   8.018
  137POPC   C4B 7174   7.948  13.266   7.620
  138POPC   NC3 7175  10.191  22.131   9.640
  138POPC   PO4 7176  10.826  22.193   9.451
  138POPC   GL1 7177  10.493  22.217   9.151
  138POPC   GL2 7178  10.310  21.924   9.139
  138POPC   C1A 7179  10.638  22.070   8.755
  138POPC   D2A 7180  10.832  22.126   8.379
  138POPC   C3A 7181  10.634  22.109   8.003
  138POPC   C4A 7182  10.709  21.782   7.730
  138POPC   C1B 7183  10.143  21.994   8.762
  138POPC   C2B 7184  10.294  22.179   8.387
  138POPC   C3B 7185  10.102  21.995   8.081
  138POPC   C4B 7186  10.233  21.986   7.712
  139POPC   NC3 7187  39.541  21.919   9.562
  139POPC   PO4 7188  38.938  21.802   9.601
  139POPC   GL1 7189  39.191  21.943   9.197
  139POPC   GL2 7190  39.476  22.190   9.119
  139POPC   C1A 7191  39.306  21.811   8.777
  139POPC   D2A 7192  39.092  21.912   8.378
  139POPC   C3A 7193  39.318  21.955   7.963
  139POPC   C4A 7194  39.166  22.204   7.625
  139POPC   C1B 7195  39.277  22.328   8.718
  139POPC   C2B 7196  39.219  22.402   8.247
  139POPC   C3B 7197  39.437  22.524   7.908
  139POPC   C4B 7198  39.353  22.697   7.519
  140POPC   NC3 7199   8.283  27.719   9.875
  140POPC   PO4 7200   8.640  27.566   9.266
  140POPC   GL1 7201   8.283  27.757   9.106
  140POPC   GL2 7202   8.056  27.516   9.113
  140POPC   C1A 7203   8.330  27.903   8.717
  140POPC   D2A 7204   8.474  27.673   8.387
  140POPC   C3A 7205   8.489  27.877   8.003
  140POPC   C4A 7206   8.434  27.612   7.677
  140POPC   C1B 7207   7.834  27.873   8.887
  140POPC   C2B 7208   7.872  27.837   8.437
  140POPC   C3B 7209   8.051  27.534   8.115
  140POPC   C4B 7210   7.928  27.489   7.689
  141POPC   NC3 7211  10.660  31.462   9.365
  141POPC   PO4 7212  10.080  31.745   9.501
  141POPC   GL1 7213  10.193  31.561   9.092
  141POPC   GL2 7214  10.555  31.588   8.898
  141POPC   C1A 7215  10.123  31.641   8.664
  141POPC   D2A 7216  10.460  31.680   8.372
  141POPC   C3A 7217  10.553  31.676   7.935
  141POPC   C4A 7218  11.008  31.789   7.868
  141POPC   C1B 7219  10.493  31.227   8.622
  141POPC   C2B 7220  10.576  31.195   8.166
  141POPC   C3B 7221  10.682  31.231   7.732
  141POPC   C4B 7222  10.732  31.084   7.326
  142POPC   NC3 7223   8.552  10.386   9.624
  142POPC   PO4 7224   8.019  10.695   9.714
  142POPC   GL1 7225   7.971  10.754   9.301
  142POPC   GL2 7226   8.316  10.736   9.199
  142POPC   C1A 7227   7.907  10.780   8.869
  142POPC   D2A 7228   8.157  10.775   8.498
  142POPC   C3A 7229   8.086  10.708   8.055
  142POPC   C4A 7230   8.413  10.776   7.758
  142POPC   C1B 7231   8.287  10.416   8.843
  142POPC   C2B 7232   8.418  10.317   8.377
  142POPC   C3B 7233   8.361  10.286   7.899
  142POPC   C4B 7234   8.579  10.403   7.462
  143POPC   NC3 7235   4.994  17.338   9.514
  143POPC   PO4 7236   4.620  17.916   9.487
  143POPC   GL1 7237   4.780  17.709   9.139
  143POPC   GL2 7238   5.127  17.650   9.127
  143POPC   C1A 7239   4.836  17.555   8.723
  143POPC   D2A 7240   4.770  17.249   8.447
  143POPC   C3A 7241   4.909  17.407   8.054
  143POPC   C4A 7242   4.721  17.476   7.668
  143POPC   C1B 7243   5.461  17.641   8.821
  143POPC   C2B 7244   5.505  17.764   8.419
  143POPC   C3B 7245   5.419  17.595   8.031
  143POPC   C4B 7246   5.543  17.393   7.646
  144POPC   NC3 7247  31.503  41.677   9.485
  144POPC   PO4 7248  31.752  41.121   9.215
  144POPC   GL1 7249  31.389  41.443   9.045
  144POPC   GL2 7250  31.097  41.713   9.156
  144POPC   C1A 7251  31.414  41.865   8.792
  144POPC   D2A 7252  31.492  41.934   8.356
  144POPC   C3A 7253  31.631  41.551   8.143
  144POPC   C4A 7254  31.722  41.607   7.699
  144POPC   C1B 7255  30.998  41.547   8.725
  144POPC   C2B 7256  31.103  41.588   8.284
  144POPC   C3B 7257  31.235  41.746   7.886
  144POPC   C4B 7258  31.272  41.550   7.492
  145POPC   NC3 7259   8.923  35.771   9.566
  145POPC   PO4 7260   8.785  36.390   9.490
  145POPC   GL1 7261   9.069  36.201   9.203
  145POPC   GL2 7262   9.228  35.856   9.198
  145POPC   C1A 7263   9.161  36.160   8.786
  145POPC   D2A 7264   9.418  36.133   8.456
  145POPC   C3A 7265   9.142  36.119   8.130
  145POPC   C4A 7266   9.293  36.104   7.730
  145POPC   C1B 7267   8.862  35.773   8.922
  145POPC   C2B 7268   8.767  35.815   8.502
  145POPC   C3B 7269   8.775  35.693   8.079
  145POPC   C4B 7270   8.789  35.993   7.764
  146POPC   NC3 7271  25.802  23.177   9.231
  146POPC   PO4 7272  26.009  22.670   9.678
  146POPC   GL1 7273  26.043  22.735   9.200
  146POPC   GL2 7274  26.351  22.862   9.040
  146POPC   C1A 7275  25.955  22.822   8.725
  146POPC   D2A 7276  25.726  22.671   8.389
  146POPC   C3A 7277  25.790  22.906   8.011
  146POPC   C4A 7278  25.944  22.854   7.591
  146POPC   C1B 7279  26.424  23.157   8.698
  146POPC   C2B 7280  26.178  23.121   8.298
  146POPC   C3B 7281  26.228  23.203   7.844
  146POPC   C4B 7282  26.212  23.241   7.393
  147POPC   NC3 7283  26.853  12.518   9.654
  147POPC   PO4 7284  26.441  11.996   9.720
  147POPC   GL1 7285  26.723  12.120   9.351
  147POPC   GL2 7286  26.500  12.012   9.141
  147POPC   C1A 7287  26.922  12.150   8.909
  147POPC   D2A 7288  26.920  12.326   8.458
  147POPC   C3A 7289  26.788  12.019   8.111
  147POPC   C4A 7290  26.992  11.866   7.747
  147POPC   C1B 7291  26.458  12.237   8.755
  147POPC   C2B 7292  26.403  12.240   8.335
  147POPC   C3B 7293  26.580  12.555   8.074
  147POPC   C4B 7294  26.879  12.402   7.762
  148POPC   NC3 7295  19.511  24.930   9.451
  148POPC   PO4 7296  20.148  25.189   9.612
  148POPC   GL1 7297  20.048  25.349   9.219
  148POPC   GL2 7298  19.763  25.230   9.137
  148POPC   C1A 7299  20.047  25.377   8.752
  148POPC   D2A 7300  19.991  25.231   8.324
  148POPC   C3A 7301  19.865  25.434   7.971
  148POPC   C4A 7302  19.941  25.265   7.579
  148POPC   C1B 7303  19.485  25.074   8.806
  148POPC   C2B 7304  19.491  25.145   8.366
  148POPC   C3B 7305  19.387  25.316   7.964
  148POPC   C4B 7306  19.409  25.269   7.561
  149POPC   NC3 7307  31.847  36.992   9.391
  149POPC   PO4 7308  32.439  37.091   9.724
  149POPC   GL1 7309  32.299  36.851   9.184
  149POPC   GL2 7310  32.386  36.507   9.128
  149POPC   C1A 7311  32.231  37.100   8.694
  149POPC   D2A 7312  32.352  37.019   8.247
  149POPC   C3A 7313  32.180  37.266   7.896
  149POPC   C4A 7314  32.142  37.205   7.451
  149POPC   C1B 7315  32.189  36.605   8.758
  149POPC   C2B 7316  32.371  36.508   8.373
  149POPC   C3B 7317  32.479  36.511   7.962
  149POPC   C4B 7318  32.275  36.771   7.689
  150POPC   NC3 7319   6.078   1.946   9.397
  150POPC   PO4 7320   5.382   1.789   9.451
  150POPC   GL1 7321   5.656   1.744   9.154
  150POPC   GL2 7322   5.639   2.074   9.074
  150POPC   C1A 7323   5.841   1.738   8.736
  150POPC   D2A 7324   5.707   1.955   8.377
  150POPC   C3A 7325   5.981   1.874   8.094
  150POPC   C4A 7326   5.943   1.966   7.684
  150POPC   C1B 7327   5.892   2.256   8.753
  150POPC   C2B 7328   5.892   2.454   8.365
  150POPC   C3B 7329   6.116   2.364   7.997
  150POPC   C4B 7330   6.029   2.460   7.599
  151POPC   NC3 7331   1.612  34.969   9.532
  151POPC   PO4 7332   1.499  35.653   9.430
  151POPC   GL1 7333   1.210  35.416   9.169
  151POPC   GL2 7334   1.358  35.616   8.940
  151POPC   C1A 7335   1.152  35.205   8.739
  151POPC   D2A 7336   1.110  35.082   8.304
  151POPC   C3A 7337   1.029  35.424   8.062
  151POPC   C4A 7338   0.984  35.555   7.646
  151POPC   C1B 7339   1.679  35.519   8.653
  151POPC   C2B 7340   1.512  35.411   8.278
  151POPC   C3B 7341   1.468  35.503   7.840
  151POPC   C4B 7342   1.699  35.309   7.547
  152POPC   NC3 7343  23.357   4.566   9.371
  152POPC   PO4 7344  22.888   4.188   9.352
  152POPC   GL1 7345  22.850   4.574   9.086
  152POPC   GL2 7346  23.145   4.687   8.893
  152POPC   C1A 7347  22.579   4.625   8.717
  152POPC   D2A 7348  22.608   4.524   8.260
  152POPC   C3A 7349  22.915   4.541   7.883
  152POPC   C4A 7350  22.882   4.350   7.405
  152POPC   C1B 7351  23.006   4.381   8.574
  152POPC   C2B 7352  22.924   4.120   8.190
  152POPC   C3B 7353  23.072   4.024   7.766
  152POPC   C4B 7354  23.281   3.708   7.492
  153POPC   NC3 7355  43.740   0.960   9.520
  153POPC   PO4 7356  44.203   1.331   9.273
  153POPC   GL1 7357  43.834   1.258   9.103
  153POPC   GL2 7358  43.700   1.554   9.180
  153POPC   C1A 7359  43.853   1.129   8.680
  153POPC   D2A 7360  43.858   0.956   8.284
  153POPC   C3A 7361  44.059   1.226   8.021
  153POPC   C4A 7362  44.137   1.259   7.611
  153POPC   C1B 7363  43.630   1.604   8.748
  153POPC   C2B 7364  43.814   1.548   8.332
  153POPC   C3B 7365  43.661   1.528   7.884
  153POPC   C4B 7366  43.604   1.671   7.408
  154POPC   NC3 7367   6.519   0.129   9.650
  154POPC   PO4 7368   6.661   0.746   9.738
  154POPC   GL1 7369   6.444   0.413   9.269
  154POPC   GL2 7370   6.446   0.068   9.159
  154POPC   C1A 7371   6.403   0.438   8.824
  154POPC   D2A 7372   6.625   0.290   8.499
  154POPC   C3A 7373   6.566   0.407   8.107
  154POPC   C4A 7374   6.611   0.288   7.709
  154POPC   C1B 7375   6.828   0.086   8.935
  154POPC   C2B 7376   7.099   0.192   8.570
  154POPC   C3B 7377   7.071   0.381   8.206
  154POPC   C4B 7378   7.092   0.226   7.793
  155POPC   NC3 7379  21.931  37.356   9.514
  155POPC   PO4 7380  22.032  38.027   9.589
  155POPC   GL1 7381  22.020  37.834   9.185
  155POPC   GL2 7382  22.318  37.686   9.126
  155POPC   C1A 7383  22.135  37.927   8.718
  155POPC   D2A 7384  22.286  37.628   8.426
  155POPC   C3A 7385  22.294  37.704   8.004
  155POPC   C4A 7386  22.041  37.760   7.643
  155POPC   C1B 7387  22.020  37.437   8.850
  155POPC   C2B 7388  21.974  37.222   8.446
  155POPC   C3B 7389  21.822  37.345   8.032
  155POPC   C4B 7390  21.750  37.317   7.571
  156POPC   NC3 7391  35.093  42.444   9.519
  156POPC   PO4 7392  35.694  42.789   9.536
  156POPC   GL1 7393  35.559  42.456   9.235
  156POPC   GL2 7394  35.260  42.534   9.056
  156POPC   C1A 7395  35.643  42.228   8.828
  156POPC   D2A 7396  35.416  42.190   8.427
  156POPC   C3A 7397  35.604  42.174   8.009
  156POPC   C4A 7398  35.484  42.544   7.806
  156POPC   C1B 7399  35.117  42.810   8.750
  156POPC   C2B 7400  35.159  42.682   8.347
  156POPC   C3B 7401  35.151  42.916   7.949
  156POPC   C4B 7402  35.081  42.758   7.545
  157POPC   NC3 7403  18.587  11.733   9.397
  157POPC   PO4 7404  18.257  12.317   9.525
  157POPC   GL1 7405  18.354  12.142   9.167
  157POPC   GL2 7406  18.152  11.846   9.125
  157POPC   C1A 7407  18.318  12.150   8.748
  157POPC   D2A 7408  18.174  11.951   8.397
  157POPC   C3A 7409  18.334  12.184   8.092
  157POPC   C4A 7410  18.197  12.244   7.733
  157POPC   C1B 7411  18.267  11.604   8.785
  157POPC   C2B 7412  18.535  11.560   8.483
  157POPC   C3B 7413  18.578  11.686   8.070
  157POPC   C4B 7414  18.539  11.866   7.707
  158POPC   NC3 7415  10.793  31.668   9.969
  158POPC   PO4 7416  11.383  31.723   9.605
  158POPC   GL1 7417  11.264  31.544   9.198
  158POPC   GL2 7418  11.173  31.189   9.245
  158POPC   C1A 7419  11.393  31.490   8.745
  158POPC   D2A 7420  11.349  31.716   8.331
  158POPC   C3A 7421  11.493  31.568   7.921
  158POPC   C4A 7422  11.387  31.742   7.506
  158POPC   C1B 7423  10.965  31.192   8.840
  158POPC   C2B 7424  10.941  31.420   8.447
  158POPC   C3B 7425  11.083  31.299   8.029
  158POPC   C4B 7426  11.158  31.297   7.556
  159POPC   NC3 7427  33.991  23.370   9.512
  159POPC   PO4 7428  33.570  23.935   9.440
  159POPC   GL1 7429  33.657  23.666   9.101
  159POPC   GL2 7430  34.025  23.589   9.060
  159POPC   C1A 7431  33.704  23.711   8.664
  159POPC   D2A 7432  33.638  23.494   8.279
  159POPC   C3A 7433  33.616  23.808   7.931
  159POPC   C4A 7434  33.405  24.090   7.635
  159POPC   C1B 7435  34.212  23.615   8.674
  159POPC   C2B 7436  34.068  23.745   8.261
  159POPC   C3B 7437  34.021  23.479   7.931
  159POPC   C4B 7438  34.268  23.361   7.585
  160POPC   NC3 7439  42.981   5.720   9.454
  160POPC   PO4 7440  43.550   6.134   9.248
  160POPC   GL1 7441  43.165   5.891   9.002
  160POPC   GL2 7442  42.778   5.960   9.042
  160POPC   C1A 7443  42.927   5.584   8.707
  160POPC   D2A 7444  42.961   5.343   8.283
  160POPC   C3A 7445  43.144   5.649   8.000
  160POPC   C4A 7446  43.350   6.051   7.855
  160POPC   C1B 7447  42.734   6.202   8.637
  160POPC   C2B 7448  42.936   6.143   8.210
  160POPC   C3B 7449  42.808   5.976   7.796
  160POPC   C4B 7450  42.762   6.042   7.322
  161POPC   NC3 7451  39.474  39.479   9.533
  161POPC   PO4 7452  38.876  39.373   9.744
  161POPC   GL1 7453  39.024  39.417   9.228
  161POPC   GL2 7454  39.348  39.645   9.074
  161POPC   C1A 7455  39.110  39.319   8.764
  161POPC   D2A 7456  39.032  39.492   8.335
  161POPC   C3A 7457  39.181  39.210   7.967
  161POPC   C4A 7458  39.344  38.786   7.779
  161POPC   C1B 7459  39.579  39.536   8.692
  161POPC   C2B 7460  39.533  39.515   8.226
  161POPC   C3B 7461  39.689  39.593   7.800
  161POPC   C4B 7462  39.629  39.374   7.397
  162POPC   NC3 7463  17.133  13.234   9.447
  162POPC   PO4 7464  17.541  12.660   9.518
  162POPC   GL1 7465  17.552  12.746   9.125
  162POPC   GL2 7466  17.806  13.005   9.105
  162POPC   C1A 7467  17.546  12.504   8.754
  162POPC   D2A 7468  17.546  12.564   8.298
  162POPC   C3A 7469  17.230  12.551   7.984
  162POPC   C4A 7470  17.282  12.680   7.559
  162POPC   C1B 7471  17.584  13.031   8.704
  162POPC   C2B 7472  17.766  13.038   8.300
  162POPC   C3B 7473  17.607  12.923   7.916
  162POPC   C4B 7474  17.916  12.924   7.645
  163POPC   NC3 7475  42.175   5.297   9.475
  163POPC   PO4 7476  42.415   4.725   9.371
  163POPC   GL1 7477  42.557   4.935   9.041
  163POPC   GL2 7478  42.442   5.262   9.051
  163POPC   C1A 7479  42.640   5.135   8.619
  163POPC   D2A 7480  42.373   5.298   8.329
  163POPC   C3A 7481  42.535   5.180   7.967
  163POPC   C4A 7482  42.369   5.166   7.588
  163POPC   C1B 7483  42.159   5.047   8.757
  163POPC   C2B 7484  41.893   5.103   8.430
  163POPC   C3B 7485  42.001   5.088   8.015
  163POPC   C4B 7486  41.892   5.057   7.593
  164POPC   NC3 7487  13.005  32.910   9.544
  164POPC   PO4 7488  12.405  33.212   9.433
  164POPC   GL1 7489  12.768  33.099   9.145
  164POPC   GL2 7490  13.054  33.322   9.051
  164POPC   C1A 7491  12.820  32.902   8.748
  164POPC   D2A 7492  12.642  32.777   8.337
  164POPC   C3A 7493  12.856  32.843   7.959
  164POPC   C4A 7494  12.719  33.026   7.540
  164POPC   C1B 7495  13.251  33.196   8.689
  164POPC   C2B 7496  13.209  32.896   8.377
  164POPC   C3B 7497  13.345  32.997   7.999
  164POPC   C4B 7498  13.171  33.156   7.642
  165POPC   NC3 7499  17.899  33.386   9.550
  165POPC   PO4 7500  17.274  33.211   9.352
  165POPC   GL1 7501  17.494  33.068   9.078
  165POPC   GL2 7502  17.832  33.158   9.120
  165POPC   C1A 7503  17.300  33.068   8.696
  165POPC   D2A 7504  17.187  32.786   8.393
  165POPC   C3A 7505  17.230  33.076   8.081
  165POPC   C4A 7506  17.334  33.060   7.688
  165POPC   C1B 7507  17.860  32.980   8.734
  165POPC   C2B 7508  17.683  33.093   8.355
  165POPC   C3B 7509  17.773  32.970   7.955
  165POPC   C4B 7510  18.077  32.759   7.730
  166POPC   NC3 7511  21.977  34.930   9.720
  166POPC   PO4 7512  22.505  35.377   9.504
  166POPC   GL1 7513  22.324  35.141   9.175
  166POPC   GL2 7514  21.969  35.178   9.266
  166POPC   C1A 7515  22.459  35.143   8.723
  166POPC   D2A 7516  22.613  35.303   8.301
  166POPC   C3A 7517  22.365  35.180   7.940
  166POPC   C4A 7518  22.071  35.519   7.883
  166POPC   C1B 7519  22.002  35.369   8.839
  166POPC   C2B 7520  22.064  35.285   8.392
  166POPC   C3B 7521  21.843  35.084   8.065
  166POPC   C4B 7522  21.821  35.166   7.650
  167POPC   NC3 7523  38.836   8.552   9.630
  167POPC   PO4 7524  39.207   7.957   9.582
  167POPC   GL1 7525  39.172   8.102   9.171
  167POPC   GL2 7526  38.997   8.370   9.180
  167POPC   C1A 7527  39.089   8.026   8.748
  167POPC   D2A 7528  39.175   7.938   8.373
  167POPC   C3A 7529  39.217   8.207   8.076
  167POPC   C4A 7530  38.918   8.284   7.735
  167POPC   C1B 7531  39.181   8.500   8.828
  167POPC   C2B 7532  39.150   8.588   8.417
  167POPC   C3B 7533  39.147   8.691   7.983
  167POPC   C4B 7534  39.352   8.543   7.598
  168POPC   NC3 7535  14.704  11.708   9.464
  168POPC   PO4 7536  14.132  11.498   9.697
  168POPC   GL1 7537  14.272  11.204   9.288
  168POPC   GL2 7538  14.591  11.287   9.179
  168POPC   C1A 7539  14.340  11.120   8.779
  168POPC   D2A 7540  14.252  11.271   8.331
  168POPC   C3A 7541  14.550  11.099   7.978
  168POPC   C4A 7542  14.519  11.101   7.486
  168POPC   C1B 7543  14.404  11.618   8.894
  168POPC   C2B 7544  14.529  11.681   8.480
  168POPC   C3B 7545  14.454  11.638   8.037
  168POPC   C4B 7546  14.706  11.530   7.696
  169POPC   NC3 7547  11.561   8.758   9.509
  169POPC   PO4 7548  11.010   9.095   9.656
  169POPC   GL1 7549  11.249   9.189   9.289
  169POPC   GL2 7550  11.183   8.858   9.199
  169POPC   C1A 7551  11.133   9.271   8.847
  169POPC   D2A 7552  11.139   9.026   8.466
  169POPC   C3A 7553  11.061   9.203   8.083
  169POPC   C4A 7554  11.315   9.080   7.785
  169POPC   C1B 7555  11.408   8.795   8.840
  169POPC   C2B 7556  11.459   8.592   8.446
  169POPC   C3B 7557  11.532   8.722   8.053
  169POPC   C4B 7558  11.702   8.734   7.644
  170POPC   NC3 7559  40.905   2.474   9.557
  170POPC   PO4 7560  40.475   3.030   9.690
  170POPC   GL1 7561  40.552   2.696   9.298
  170POPC   GL2 7562  40.857   2.825   9.143
  170POPC   C1A 7563  40.566   2.652   8.787
  170POPC   D2A 7564  40.743   2.653   8.366
  170POPC   C3A 7565  40.584   2.482   7.999
  170POPC   C4A 7566  40.464   2.692   7.635
  170POPC   C1B 7567  41.095   2.819   8.747
  170POPC   C2B 7568  41.244   2.656   8.344
  170POPC   C3B 7569  41.135   2.693   7.869
  170POPC   C4B 7570  41.186   2.740   7.370
  171POPC   NC3 7571  13.322  24.797   9.406
  171POPC   PO4 7572  13.524  24.192   9.300
  171POPC   GL1 7573  13.762  24.530   9.157
  171POPC   GL2 7574  13.998  24.324   9.042
  171POPC   C1A 7575  13.784  24.822   8.777
  171POPC   D2A 7576  13.515  24.897   8.390
  171POPC   C3A 7577  13.611  24.812   7.941
  171POPC   C4A 7578  13.366  24.523   7.638
  171POPC   C1B 7579  13.833  24.313   8.669
  171POPC   C2B 7580  13.824  24.115   8.309
  171POPC   C3B 7581  13.734  24.320   7.963
  171POPC   C4B 7582  13.866  24.485   7.598
  172POPC   NC3 7583  41.233  13.487   9.550
  172POPC   PO4 7584  41.750  13.630   9.397
  172POPC   GL1 7585  41.633  13.378   9.012
  172POPC   GL2 7586  41.280  13.320   9.053
  172POPC   C1A 7587  41.776  13.373   8.592
  172POPC   D2A 7588  41.650  13.684   8.308
  172POPC   C3A 7589  41.731  13.622   7.892
  172POPC   C4A 7590  41.856  13.297   7.609
  172POPC   C1B 7591  41.335  13.704   8.775
  172POPC   C2B 7592  41.205  13.904   8.386
  172POPC   C3B 7593  41.187  13.711   7.974
  172POPC   C4B 7594  41.012  13.717   7.546
  173POPC   NC3 7595  26.516  25.187   9.739
  173POPC   PO4 7596  27.004  25.590   9.552
  173POPC   GL1 7597  26.863  25.318   9.187
  173POPC   GL2 7598  26.505  25.149   9.206
  173POPC   C1A 7599  26.903  25.267   8.729
  173POPC   D2A 7600  26.589  25.239   8.376
  173POPC   C3A 7601  26.742  25.220   7.953
  173POPC   C4A 7602  26.648  25.391   7.540
  173POPC   C1B 7603  26.549  24.912   8.806
  173POPC   C2B 7604  26.573  24.726   8.406
  173POPC   C3B 7605  26.466  24.794   7.979
  173POPC   C4B 7606  26.685  24.867   7.577
  174POPC   NC3 7607  10.639  21.226   9.555
  174POPC   PO4 7608  10.216  21.677   9.559
  174POPC   GL1 7609  10.294  21.405   9.180
  174POPC   GL2 7610  10.246  21.023   9.200
  174POPC   C1A 7611  10.439  21.543   8.758
  174POPC   D2A 7612  10.497  21.720   8.346
  174POPC   C3A 7613  10.330  21.532   7.984
  174POPC   C4A 7614  10.330  21.498   7.525
  174POPC   C1B 7615  10.503  21.024   8.806
  174POPC   C2B 7616  10.496  21.148   8.347
  174POPC   C3B 7617  10.619  21.135   7.893
  174POPC   C4B 7618  10.666  21.092   7.449
  175POPC   NC3 7619  22.780  41.554   9.511
  175POPC   PO4 7620  23.230  41.026   9.624
  175POPC   GL1 7621  23.313  41.230   9.202
  175POPC   GL2 7622  23.167  41.561   9.169
  175POPC   C1A 7623  23.159  41.268   8.779
  175POPC   D2A 7624  23.206  41.582   8.471
  175POPC   C3A 7625  23.261  41.410   8.083
  175POPC   C4A 7626  23.037  41.284   7.746
  175POPC   C1B 7627  22.852  41.711   8.862
  175POPC   C2B 7628  22.806  41.903   8.466
  175POPC   C3B 7629  22.818  41.687   8.093
  175POPC   C4B 7630  22.637  41.677   7.680
  176POPC   NC3 7631  42.956  11.303   9.779
  176POPC   PO4 7632  43.495  10.901   9.611
  176POPC   GL1 7633  43.362  11.164   9.237
  176POPC   GL2 7634  43.019  11.318   9.261
  176POPC   C1A 7635  43.224  11.071   8.802
  176POPC   D2A 7636  43.407  11.129   8.391
  176POPC   C3A 7637  43.164  11.172   8.026
  176POPC   C4A 7638  43.352  11.236   7.645
  176POPC   C1B 7639  42.913  11.472   8.839
  176POPC   C2B 7640  43.143  11.570   8.497
  176POPC   C3B 7641  43.148  11.669   8.063
  176POPC   C4B 7642  42.892  11.514   7.717
  177POPC   NC3 7643  34.239  16.999   9.303
  177POPC   PO4 7644  34.632  16.490   9.540
  177POPC   GL1 7645  34.447  16.548   9.123
  177POPC   GL2 7646  34.573  16.872   8.926
  177POPC   C1A 7647  34.413  16.436   8.694
  177POPC   D2A 7648  34.575  16.726   8.374
  177POPC   C3A 7649  34.385  16.876   7.985
  177POPC   C4A 7650  34.161  16.532   7.762
  177POPC   C1B 7651  34.913  17.138   8.708
  177POPC   C2B 7652  35.040  17.338   8.302
  177POPC   C3B 7653  34.946  17.174   7.866
  177POPC   C4B 7654  34.658  17.041   7.566
  178POPC   NC3 7655  11.370  25.290   9.675
  178POPC   PO4 7656  10.952  25.844   9.554
  178POPC   GL1 7657  11.286  25.581   9.241
  178POPC   GL2 7658  11.206  25.268   9.188
  178POPC   C1A 7659  11.426  25.349   8.740
  178POPC   D2A 7660  11.459  25.117   8.303
  178POPC   C3A 7661  11.520  25.319   7.872
  178POPC   C4A 7662  11.863  25.575   7.792
  178POPC   C1B 7663  11.000  25.567   8.855
  178POPC   C2B 7664  11.080  25.707   8.432
  178POPC   C3B 7665  11.056  25.466   8.036
  178POPC   C4B 7666  11.083  24.988   7.964
  179POPC   NC3 7667   1.630   5.228   9.496
  179POPC   PO4 7668   1.100   4.862   9.489
  179POPC   GL1 7669   1.129   5.022   9.085
  179POPC   GL2 7670   1.392   5.242   9.060
  179POPC   C1A 7671   1.285   4.887   8.677
  179POPC   D2A 7672   1.174   4.949   8.265
  179POPC   C3A 7673   1.230   4.823   7.855
  179POPC   C4A 7674   1.023   5.168   7.642
  179POPC   C1B 7675   1.194   5.389   8.712
  179POPC   C2B 7676   1.339   5.406   8.327
  179POPC   C3B 7677   1.436   5.323   7.926
  179POPC   C4B 7678   1.364   5.586   7.592
  180POPC   NC3 7679  18.442  36.533   9.544
  180POPC   PO4 7680  18.394  35.938   9.551
  180POPC   GL1 7681  18.266  36.043   9.145
  180POPC   GL2 7682  18.398  35.765   8.933
  180POPC   C1A 7683  18.416  36.341   8.886
  180POPC   D2A 7684  18.621  36.347   8.484
  180POPC   C3A 7685  18.458  36.257   8.063
  180POPC   C4A 7686  18.577  36.417   7.656
  180POPC   C1B 7687  18.228  35.987   8.584
  180POPC   C2B 7688  17.927  36.209   8.334
  180POPC   C3B 7689  17.978  36.271   7.912
  180POPC   C4B 7690  18.231  36.042   7.580
  181POPC   NC3 7691  15.769  16.303   9.401
  181POPC   PO4 7692  15.832  16.906   9.275
  181POPC   GL1 7693  15.992  16.564   9.034
  181POPC   GL2 7694  16.335  16.529   9.017
  181POPC   C1A 7695  15.850  16.478   8.633
  181POPC   D2A 7696  15.753  16.222   8.252
  181POPC   C3A 7697  15.752  16.483   7.918
  181POPC   C4A 7698  15.701  16.933   7.894
  181POPC   C1B 7699  16.265  16.829   8.689
  181POPC   C2B 7700  16.081  16.779   8.268
  181POPC   C3B 7701  16.182  16.746   7.844
  181POPC   C4B 7702  16.121  16.396   7.559
  182POPC   NC3 7703   5.281  26.510   9.556
  182POPC   PO4 7704   4.908  27.058   9.579
  182POPC   GL1 7705   5.115  26.932   9.244
  182POPC   GL2 7706   5.135  27.260   9.110
  182POPC   C1A 7707   5.337  26.851   8.866
  182POPC   D2A 7708   5.350  26.681   8.457
  182POPC   C3A 7709   5.522  26.905   8.109
  182POPC   C4A 7710   5.269  26.772   7.779
  182POPC   C1B 7711   4.881  27.051   8.765
  182POPC   C2B 7712   4.982  27.056   8.336
  182POPC   C3B 7713   4.812  26.885   8.006
  182POPC   C4B 7714   4.761  26.890   7.613
  183POPC   NC3 7715  20.235   3.098   9.591
  183POPC   PO4 7716  20.782   2.728   9.454
  183POPC   GL1 7717  20.416   2.832   9.139
  183POPC   GL2 7718  20.677   2.665   8.967
  183POPC   C1A 7719  20.307   2.765   8.663
  183POPC   D2A 7720  20.666   2.656   8.411
  183POPC   C3A 7721  20.610   2.552   7.992
  183POPC   C4A 7722  20.404   2.583   7.620
  183POPC   C1B 7723  20.973   2.401   8.817
  183POPC   C2B 7724  20.926   2.167   8.426
  183POPC   C3B 7725  20.948   2.197   7.999
  183POPC   C4B 7726  20.907   2.467   7.574
  184POPC   NC3 7727   5.602  43.971   9.489
  184POPC   PO4 7728   6.082  43.525   9.627
  184POPC   GL1 7729   6.105  43.688   9.148
  184POPC   GL2 7730   5.795  43.844   9.048
  184POPC   C1A 7731   5.972  43.510   8.739
  184POPC   D2A 7732   5.806  43.675   8.381
  184POPC   C3A 7733   5.982  43.540   8.008
  184POPC   C4A 7734   6.264  43.755   7.735
  184POPC   C1B 7735   5.618  44.106   8.750
  184POPC   C2B 7736   5.717  44.263   8.350
  184POPC   C3B 7737   5.619  44.134   7.963
  184POPC   C4B 7738   5.761  43.873   7.694
  185POPC   NC3 7739  21.777  32.728   9.252
  185POPC   PO4 7740  21.800  32.097   9.419
  185POPC   GL1 7741  21.390  32.216   9.195
  185POPC   GL2 7742  21.220  32.523   9.091
  185POPC   C1A 7743  21.172  32.075   8.809
  185POPC   D2A 7744  21.150  32.212   8.392
  185POPC   C3A 7745  21.111  31.986   8.016
  185POPC   C4A 7746  21.378  32.157   7.680
  185POPC   C1B 7747  21.421  32.550   8.680
  185POPC   C2B 7748  21.570  32.470   8.237
  185POPC   C3B 7749  21.729  32.509   7.815
  185POPC   C4B 7750  21.798  32.329   7.413
  186POPC   NC3 7751  30.922  26.482   9.571
  186POPC   PO4 7752  30.872  27.179   9.565
  186POPC   GL1 7753  30.851  26.879   9.252
  186POPC   GL2 7754  30.559  26.775   9.346
  186POPC   C1A 7755  30.982  26.781   8.812
  186POPC   D2A 7756  31.057  26.956   8.387
  186POPC   C3A 7757  30.797  26.907   8.007
  186POPC   C4A 7758  30.680  27.260   7.738
  186POPC   C1B 7759  30.496  26.960   8.923
  186POPC   C2B 7760  30.548  26.899   8.504
  186POPC   C3B 7761  30.293  26.784   8.167
  186POPC   C4B 7762  30.254  26.952   7.767
  187POPC   NC3 7763   3.091  28.080   9.905
  187POPC   PO4 7764   3.500  28.011   9.367
  187POPC   GL1 7765   3.482  28.433   9.139
  187POPC   GL2 7766   3.839  28.589   9.110
  187POPC   C1A 7767   3.504  28.612   8.702
  187POPC   D2A 7768   3.852  28.587   8.401
  187POPC   C3A 7769   3.715  28.396   8.021
  187POPC   C4A 7770   3.430  28.359   7.722
  187POPC   C1B 7771   3.809  28.215   8.810
  187POPC   C2B 7772   3.750  28.056   8.416
  187POPC   C3B 7773   3.936  27.902   8.066
  187POPC   C4B 7774   3.817  27.995   7.673
  188POPC   NC3 7775  10.360   1.302   9.442
  188POPC   PO4 7776  10.950   1.619   9.708
  188POPC   GL1 7777  10.775   1.532   9.257
  188POPC   GL2 7778  10.680   1.139   9.096
  188POPC   C1A 7779  10.623   1.594   8.843
  188POPC   D2A 7780  10.703   1.425   8.419
  188POPC   C3A 7781  10.608   1.432   7.949
  188POPC   C4A 7782  10.614   1.104   7.613
  188POPC   C1B 7783  10.375   1.149   8.729
  188POPC   C2B 7784  10.193   1.025   8.347
  188POPC   C3B 7785  10.163   1.122   7.894
  188POPC   C4B 7786  10.147   0.946   7.464
  189POPC   NC3 7787  11.790  37.217   9.857
  189POPC   PO4 7788  11.916  36.641   9.432
  189POPC   GL1 7789  12.121  36.703   9.091
  189POPC   GL2 7790  11.831  36.792   8.934
  189POPC   C1A 7791  12.257  36.971   8.758
  189POPC   D2A 7792  12.026  37.066   8.381
  189POPC   C3A 7793  12.337  37.041   8.086
  189POPC   C4A 7794  12.428  36.905   7.676
  189POPC   C1B 7795  11.640  36.615   8.616
  189POPC   C2B 7796  11.705  36.660   8.212
  189POPC   C3B 7797  11.839  36.914   7.894
  189POPC   C4B 7798  11.838  36.607   7.569
  190POPC   NC3 7799  18.105  15.385   9.268
  190POPC   PO4 7800  18.097  14.711   9.516
  190POPC   GL1 7801  18.248  14.859   9.151
  190POPC   GL2 7802  18.518  14.660   9.112
  190POPC   C1A 7803  18.218  14.964   8.711
  190POPC   D2A 7804  18.045  15.113   8.300
  190POPC   C3A 7805  18.277  15.378   8.011
  190POPC   C4A 7806  18.200  15.430   7.566
  190POPC   C1B 7807  18.605  14.587   8.711
  190POPC   C2B 7808  18.494  14.786   8.305
  190POPC   C3B 7809  18.440  14.890   7.848
  190POPC   C4B 7810  18.507  15.040   7.420
  191POPC   NC3 7811  30.117  35.725   9.573
  191POPC   PO4 7812  29.736  35.296   9.278
  191POPC   GL1 7813  29.963  35.653   9.094
  191POPC   GL2 7814  30.344  35.711   9.115
  191POPC   C1A 7815  29.994  35.682   8.673
  191POPC   D2A 7816  29.685  35.648   8.371
  191POPC   C3A 7817  29.842  35.564   7.994
  191POPC   C4A 7818  29.784  35.227   7.749
  191POPC   C1B 7819  30.297  35.297   8.884
  191POPC   C2B 7820  30.071  35.223   8.469
  191POPC   C3B 7821  30.227  35.208   8.043
  191POPC   C4B 7822  30.317  35.511   7.769
  192POPC   NC3 7823  35.336  30.635   9.488
  192POPC   PO4 7824  35.925  30.324   9.576
  192POPC   GL1 7825  35.776  30.492   9.190
  192POPC   GL2 7826  35.716  30.839   9.177
  192POPC   C1A 7827  35.465  30.528   8.855
  192POPC   D2A 7828  35.176  30.531   8.542
  192POPC   C3A 7829  35.336  30.516   8.130
  192POPC   C4A 7830  35.225  30.791   7.786
  192POPC   C1B 7831  35.809  30.910   8.730
  192POPC   C2B 7832  35.604  30.954   8.323
  192POPC   C3B 7833  35.718  30.830   7.912
  192POPC   C4B 7834  35.651  31.057   7.556
  193POPC   NC3 7835  34.313  36.312   9.439
  193POPC   PO4 7836  34.742  35.802   9.420
  193POPC   GL1 7837  34.541  36.011   9.092
  193POPC   GL2 7838  34.172  35.914   9.100
  193POPC   C1A 7839  34.654  36.324   8.789
  193POPC   D2A 7840  34.615  36.473   8.404
  193POPC   C3A 7841  34.785  36.166   8.132
  193POPC   C4A 7842  34.830  36.070   7.707
  193POPC   C1B 7843  34.185  36.161   8.684
  193POPC   C2B 7844  34.263  36.177   8.229
  193POPC   C3B 7845  34.389  36.325   7.845
  193POPC   C4B 7846  34.106  36.186   7.596
  194POPC   NC3 7847  37.394  16.071   9.426
  194POPC   PO4 7848  36.894  15.685   9.678
  194POPC   GL1 7849  36.942  15.869   9.274
  194POPC   GL2 7850  36.962  15.549   9.157
  194POPC   C1A 7851  36.879  15.959   8.817
  194POPC   D2A 7852  36.922  16.200   8.439
  194POPC   C3A 7853  36.889  16.036   8.010
  194POPC   C4A 7854  36.928  16.125   7.548
  194POPC   C1B 7855  36.760  15.439   8.767
  194POPC   C2B 7856  36.781  15.634   8.362
  194POPC   C3B 7857  36.990  15.530   7.995
  194POPC   C4B 7858  36.852  15.601   7.584
  195POPC   NC3 7859   5.673  17.050   9.503
  195POPC   PO4 7860   6.137  16.526   9.630
  195POPC   GL1 7861   5.872  16.637   9.247
  195POPC   GL2 7862   5.485  16.633   9.262
  195POPC   C1A 7863   5.914  16.720   8.809
  195POPC   D2A 7864   6.079  16.816   8.401
  195POPC   C3A 7865   6.001  16.543   8.075
  195POPC   C4A 7866   6.163  16.772   7.744
  195POPC   C1B 7867   5.406  16.711   8.808
  195POPC   C2B 7868   5.571  16.719   8.352
  195POPC   C3B 7869   5.567  16.684   7.878
  195POPC   C4B 7870   5.528  16.886   7.464
  196POPC   NC3 7871   9.918  29.959   9.501
  196POPC   PO4 7872   9.455  30.307   9.570
  196POPC   GL1 7873   9.527  30.085   9.198
  196POPC   GL2 7874   9.809  30.234   9.088
  196POPC   C1A 7875   9.675  29.773   8.885
  196POPC   D2A 7876   9.616  29.620   8.478
  196POPC   C3A 7877   9.538  29.899   8.134
  196POPC   C4A 7878   9.578  29.774   7.719
  196POPC   C1B 7879  10.032  30.153   8.726
  196POPC   C2B 7880  10.000  29.948   8.340
  196POPC   C3B 7881   9.967  30.091   7.882
  196POPC   C4B 7882  10.050  30.243   7.396
  197POPC   NC3 7883  13.778  11.129   9.521
  197POPC   PO4 7884  13.214  11.494   9.331
  197POPC   GL1 7885  13.533  11.618   9.097
  197POPC   GL2 7886  13.852  11.427   9.100
  197POPC   C1A 7887  13.506  11.442   8.712
  197POPC   D2A 7888  13.361  11.234   8.393
  197POPC   C3A 7889  13.589  11.324   8.050
  197POPC   C4A 7890  13.671  11.402   7.639
  197POPC   C1B 7891  13.840  11.060   8.793
  197POPC   C2B 7892  13.776  10.892   8.367
  197POPC   C3B 7893  13.982  10.969   7.977
  197POPC   C4B 7894  14.149  11.321   7.766
  198POPC   NC3 7895   2.481  33.765   9.527
  198POPC   PO4 7896   2.941  34.144   9.721
  198POPC   GL1 7897   2.937  34.067   9.228
  198POPC   GL2 7898   2.867  33.704   9.130
  198POPC   C1A 7899   2.811  34.045   8.758
  198POPC   D2A 7900   2.739  33.902   8.307
  198POPC   C3A 7901   2.967  33.955   7.915
  198POPC   C4A 7902   2.836  33.908   7.475
  198POPC   C1B 7903   2.754  33.516   8.682
  198POPC   C2B 7904   2.831  33.365   8.232
  198POPC   C3B 7905   2.847  33.441   7.774
  198POPC   C4B 7906   2.952  33.368   7.336
  199POPC   NC3 7907  24.185  26.711   9.562
  199POPC   PO4 7908  23.596  26.817   9.519
  199POPC   GL1 7909  23.862  26.701   9.140
  199POPC   GL2 7910  24.119  26.409   9.134
  199POPC   C1A 7911  23.800  26.894   8.718
  199POPC   D2A 7912  23.496  27.175   8.444
  199POPC   C3A 7913  23.379  27.059   8.007
  199POPC   C4A 7914  23.394  26.671   7.784
  199POPC   C1B 7915  24.013  26.432   8.694
  199POPC   C2B 7916  23.801  26.498   8.308
  199POPC   C3B 7917  23.879  26.549   7.881
  199POPC   C4B 7918  23.750  26.537   7.448
  200POPC   NC3 7919   3.077   4.955   9.491
  200POPC   PO4 7920   2.535   5.278   9.438
  200POPC   GL1 7921   2.587   5.229   9.072
  200POPC   GL2 7922   2.754   4.898   9.050
  200POPC   C1A 7923   2.563   5.389   8.678
  200POPC   D2A 7924   2.620   5.002   8.459
  200POPC   C3A 7925   2.647   5.113   8.043
  200POPC   C4A 7926   2.905   4.928   7.766
  200POPC   C1B 7927   3.019   5.196   8.801
  200POPC   C2B 7928   2.992   5.350   8.357
  200POPC   C3B 7929   3.069   5.424   7.910
  200POPC   C4B 7930   3.252   5.235   7.514
  201POPC   NC3 7931  14.831  38.307   9.562
  201POPC   PO4 7932  15.295  38.757   9.514
  201POPC   GL1 7933  15.137  38.493   9.186
  201POPC   GL2 7934  15.389  38.249   9.225
  201POPC   C1A 7935  14.976  38.347   8.782
  201POPC   D2A 7936  14.854  38.420   8.373
  201POPC   C3A 7937  15.034  38.351   7.975
  201POPC   C4A 7938  15.040  38.791   7.831
  201POPC   C1B 7939  15.563  38.237   8.820
  201POPC   C2B 7940  15.368  38.220   8.398
  201POPC   C3B 7941  15.563  38.052   7.990
  201POPC   C4B 7942  15.569  38.203   7.550
  202POPC   NC3 7943  10.216  38.769   9.380
  202POPC   PO4 7944  10.763  39.106   9.517
  202POPC   GL1 7945  10.471  39.230   9.218
  202POPC   GL2 7946  10.678  39.026   8.993
  202POPC   C1A 7947  10.564  39.512   8.862
  202POPC   D2A 7948  10.718  39.360   8.449
  202POPC   C3A 7949  10.605  39.564   8.047
  202POPC   C4A 7950  10.770  39.651   7.646
  202POPC   C1B 7951  10.294  39.103   8.762
  202POPC   C2B 7952  10.220  39.220   8.386
  202POPC   C3B 7953  10.455  39.062   8.100
  202POPC   C4B 7954  10.575  39.161   7.726
  203POPC   NC3 7955  29.178  23.259   9.498
  203POPC   PO4 7956  29.415  22.594   9.619
  203POPC   GL1 7957  29.219  22.631   9.216
  203POPC   GL2 7958  29.421  22.913   9.177
  203POPC   C1A 7959  28.983  22.840   8.868
  203POPC   D2A 7960  28.832  23.121   8.521
  203POPC   C3A 7961  28.639  22.860   8.186
  203POPC   C4A 7962  28.732  22.848   7.734
  203POPC   C1B 7963  29.492  22.838   8.758
  203POPC   C2B 7964  29.224  22.794   8.392
  203POPC   C3B 7965  29.107  23.069   8.064
  203POPC   C4B 7966  29.257  22.923   7.689
  204POPC   NC3 7967  20.463   5.574   9.563
  204POPC   PO4 7968  20.964   6.027   9.494
  204POPC   GL1 7969  20.878   5.748   9.146
  204POPC   GL2 7970  20.552   5.849   9.137
  204POPC   C1A 7971  20.691   5.661   8.691
  204POPC   D2A 7972  20.304   5.663   8.378
  204POPC   C3A 7973  20.467   5.634   7.954
  204POPC   C4A 7974  20.914   5.664   7.892
  204POPC   C1B 7975  20.354   6.038   8.768
  204POPC   C2B 7976  20.527   6.115   8.355
  204POPC   C3B 7977  20.657   6.112   7.940
  204POPC   C4B 7978  20.254   6.111   7.777
  205POPC   NC3 7979  36.353  14.529   9.525
  205POPC   PO4 7980  35.715  14.322   9.474
  205POPC   GL1 7981  36.041  14.452   9.135
  205POPC   GL2 7982  36.354  14.739   9.070
  205POPC   C1A 7983  36.189  14.370   8.738
  205POPC   D2A 7984  36.020  14.102   8.422
  205POPC   C3A 7985  36.138  14.078   8.012
  205POPC   C4A 7986  36.054  14.110   7.540
  205POPC   C1B 7987  36.385  14.823   8.606
  205POPC   C2B 7988  36.203  14.579   8.273
  205POPC   C3B 7989  36.148  14.552   7.846
  205POPC   C4B 7990  35.780  14.691   7.659
  206POPC   NC3 7991  21.445  44.827   9.528
  206POPC   PO4 7992  21.473  44.107   9.387
  206POPC   GL1 7993  21.521  44.467   9.068
  206POPC   GL2 7994  21.627  44.832   9.046
  206POPC   C1A 7995  21.207  44.545   8.728
  206POPC   D2A 7996  20.947  44.453   8.323
  206POPC   C3A 7997  21.236  44.302   8.019
  206POPC   C4A 7998  21.537  44.323   7.686
  206POPC   C1B 7999  21.617  44.861   8.586
  206POPC   C2B 8000  21.310  44.802   8.291
  206POPC   C3B 8001  21.232  44.806   7.898
  206POPC   C4B 8002  21.563   0.009   7.814
  207POPC   NC3 8003   1.489  17.210   9.367
  207POPC   PO4 8004   1.109  17.780   9.494
  207POPC   GL1 8005   1.129  17.487   9.164
  207POPC   GL2 8006   0.985  17.140   9.143
  207POPC   C1A 8007   1.294  17.446   8.781
  207POPC   D2A 8008   1.140  17.565   8.416
  207POPC   C3A 8009   1.330  17.524   8.072
  207POPC   C4A 8010   1.206  17.590   7.683
  207POPC   C1B 8011   1.202  16.952   8.780
  207POPC   C2B 8012   1.322  17.087   8.353
  207POPC   C3B 8013   1.161  17.082   7.877
  207POPC   C4B 8014   1.153  17.089   7.420
  208POPC   NC3 8015   3.305  29.268   9.574
  208POPC   PO4 8016   3.859  29.045   9.408
  208POPC   GL1 8017   3.572  29.051   9.086
  208POPC   GL2 8018   3.317  29.319   9.071
  208POPC   C1A 8019   3.558  29.123   8.654
  208POPC   D2A 8020   3.223  29.120   8.373
  208POPC   C3A 8021   3.346  28.784   8.126
  208POPC   C4A 8022   3.567  28.836   7.782
  208POPC   C1B 8023   3.179  29.571   8.721
  208POPC   C2B 8024   3.319  29.689   8.326
  208POPC   C3B 8025   3.362  29.423   7.965
  208POPC   C4B 8026   2.998  29.265   7.827
  209POPC   NC3 8027  11.341  23.510   9.580
  209POPC   PO4 8028  11.069  22.917   9.512
  209POPC   GL1 8029  11.095  23.092   9.145
  209POPC   GL2 8030  11.439  23.124   9.149
  209POPC   C1A 8031  10.959  23.186   8.748
  209POPC   D2A 8032  11.126  23.052   8.375
  209POPC   C3A 8033  11.043  23.243   7.991
  209POPC   C4A 8034  10.907  22.949   7.671
  209POPC   C1B 8035  11.426  22.836   8.779
  209POPC   C2B 8036  11.534  22.720   8.331
  209POPC   C3B 8037  11.366  22.854   7.925
  209POPC   C4B 8038  11.409  22.973   7.480
  210POPC   NC3 8039  28.090  22.118   9.659
  210POPC   PO4 8040  27.482  21.953   9.501
  210POPC   GL1 8041  27.668  22.175   9.200
  210POPC   GL2 8042  27.620  21.911   8.988
  210POPC   C1A 8043  27.642  22.391   8.794
  210POPC   D2A 8044  27.543  22.247   8.387
  210POPC   C3A 8045  27.730  22.056   8.009
  210POPC   C4A 8046  27.709  22.389   7.709
  210POPC   C1B 8047  27.545  21.753   8.558
  210POPC   C2B 8048  27.206  21.842   8.317
  210POPC   C3B 8049  27.227  22.099   8.020
  210POPC   C4B 8050  27.345  22.030   7.672
  211POPC   NC3 8051  24.611   7.772   9.296
  211POPC   PO4 8052  24.495   7.192   9.653
  211POPC   GL1 8053  24.397   7.191   9.199
  211POPC   GL2 8054  24.650   7.324   8.999
  211POPC   C1A 8055  24.196   7.403   8.807
  211POPC   D2A 8056  24.185   7.580   8.385
  211POPC   C3A 8057  24.392   7.538   7.982
  211POPC   C4A 8058  24.603   7.876   7.731
  211POPC   C1B 8059  24.702   7.580   8.599
  211POPC   C2B 8060  24.866   7.655   8.154
  211POPC   C3B 8061  24.819   7.382   7.761
  211POPC   C4B 8062  24.784   7.006   7.440
  212POPC   NC3 8063  17.137  41.820   9.495
  212POPC   PO4 8064  16.987  41.195   9.515
  212POPC   GL1 8065  17.290  41.256   9.179
  212POPC   GL2 8066  17.384  41.608   9.101
  212POPC   C1A 8067  17.434  41.217   8.770
  212POPC   D2A 8068  17.291  41.516   8.498
  212POPC   C3A 8069  17.319  41.445   8.052
  212POPC   C4A 8070  17.400  41.279   7.649
  212POPC   C1B 8071  17.548  41.908   8.793
  212POPC   C2B 8072  17.792  41.909   8.443
  212POPC   C3B 8073  17.667  41.905   8.041
  212POPC   C4B 8074  17.543  41.763   7.652
  213POPC   NC3 8075   7.042  12.496   9.412
  213POPC   PO4 8076   7.608  12.709   9.462
  213POPC   GL1 8077   7.394  12.819   9.120
  213POPC   GL2 8078   7.256  13.159   9.161
  213POPC   C1A 8079   7.575  12.696   8.751
  213POPC   D2A 8080   7.430  12.630   8.358
  213POPC   C3A 8081   7.599  12.589   7.987
  213POPC   C4A 8082   7.169  12.691   7.857
  213POPC   C1B 8083   7.520  13.289   8.839
  213POPC   C2B 8084   7.697  13.098   8.461
  213POPC   C3B 8085   7.576  13.128   8.059
  213POPC   C4B 8086   7.518  12.981   7.668
  214POPC   NC3 8087  13.819  43.623   9.471
  214POPC   PO4 8088  13.516  44.225   9.345
  214POPC   GL1 8089  13.737  44.038   9.069
  214POPC   GL2 8090  13.534  43.755   9.078
  214POPC   C1A 8091  13.630  44.028   8.649
  214POPC   D2A 8092  13.518  44.185   8.257
  214POPC   C3A 8093  13.579  44.000   7.852
  214POPC   C4A 8094  13.420  43.926   7.408
  214POPC   C1B 8095  13.768  43.533   8.749
  214POPC   C2B 8096  13.802  43.337   8.342
  214POPC   C3B 8097  13.871  43.495   7.912
  214POPC   C4B 8098  13.854  43.751   7.522
  215POPC   NC3 8099   9.911  17.981   9.465
  215POPC   PO4 8100   9.513  18.459   9.721
  215POPC   GL1 8101   9.676  18.440   9.275
  215POPC   GL2 8102   9.519  18.149   9.168
  215POPC   C1A 8103   9.682  18.485   8.797
  215POPC   D2A 8104   9.876  18.438   8.355
  215POPC   C3A 8105   9.685  18.275   7.984
  215POPC   C4A 8106   9.794  18.275   7.544
  215POPC   C1B 8107   9.392  18.011   8.776
  215POPC   C2B 8108   9.365  18.088   8.347
  215POPC   C3B 8109   9.280  17.978   7.934
  215POPC   C4B 8110   9.292  18.383   7.655
  216POPC   NC3 8111   2.117  38.429   9.667
  216POPC   PO4 8112   2.413  38.953   9.259
  216POPC   GL1 8113   2.065  38.688   8.955
  216POPC   GL2 8114   1.934  38.364   9.057
  216POPC   C1A 8115   2.048  38.453   8.571
  216POPC   D2A 8116   1.984  38.206   8.223
  216POPC   C3A 8117   2.004  38.469   7.888
  216POPC   C4A 8118   2.244  38.855   7.800
  216POPC   C1B 8119   1.633  38.218   8.746
  216POPC   C2B 8120   1.605  37.946   8.415
  216POPC   C3B 8121   1.529  38.089   8.015
  216POPC   C4B 8122   1.589  38.254   7.651
  217POPC   NC3 8123  34.833  23.161   9.427
  217POPC   PO4 8124  34.239  22.894   9.571
  217POPC   GL1 8125  34.510  22.840   9.144
  217POPC   GL2 8126  34.691  23.090   8.956
  217POPC   C1A 8127  34.555  22.642   8.722
  217POPC   D2A 8128  34.565  22.827   8.306
  217POPC   C3A 8129  34.623  22.657   7.907
  217POPC   C4A 8130  34.514  22.887   7.535
  217POPC   C1B 8131  34.349  23.126   8.684
  217POPC   C2B 8132  34.348  23.284   8.269
  217POPC   C3B 8133  34.647  23.219   7.918
  217POPC   C4B 8134  34.798  23.338   7.482
  218POPC   NC3 8135   2.258  23.562   9.478
  218POPC   PO4 8136   1.707  23.905   9.569
  218POPC   GL1 8137   1.972  23.910   9.190
  218POPC   GL2 8138   2.085  23.595   9.023
  218POPC   C1A 8139   1.811  23.915   8.767
  218POPC   D2A 8140   1.916  24.110   8.399
  218POPC   C3A 8141   1.820  23.871   8.073
  218POPC   C4A 8142   1.732  23.597   7.777
  218POPC   C1B 8143   2.287  23.658   8.622
  218POPC   C2B 8144   2.315  23.633   8.168
  218POPC   C3B 8145   2.198  23.340   7.814
  218POPC   C4B 8146   2.416  23.256   7.395
  219POPC   NC3 8147  22.405  42.937   9.363
  219POPC   PO4 8148  22.286  43.552   9.565
  219POPC   GL1 8149  22.090  43.342   9.191
  219POPC   GL2 8150  21.905  43.037   9.183
  219POPC   C1A 8151  22.122  43.247   8.740
  219POPC   D2A 8152  22.432  43.221   8.409
  219POPC   C3A 8153  22.356  43.179   7.982
  219POPC   C4A 8154  22.153  42.949   7.681
  219POPC   C1B 8155  21.786  42.843   8.807
  219POPC   C2B 8156  21.763  43.093   8.423
  219POPC   C3B 8157  21.772  42.933   8.016
  219POPC   C4B 8158  21.684  42.754   7.625
  220POPC   NC3 8159  14.729  43.224   9.580
  220POPC   PO4 8160  14.415  42.613   9.636
  220POPC   GL1 8161  14.470  42.900   9.218
  220POPC   GL2 8162  14.410  43.253   9.178
  220POPC   C1A 8163  14.536  42.966   8.739
  220POPC   D2A 8164  14.207  42.985   8.381
  220POPC   C3A 8165  14.273  43.175   7.965
  220POPC   C4A 8166  14.363  42.995   7.544
  220POPC   C1B 8167  14.442  43.461   8.786
  220POPC   C2B 8168  14.296  43.519   8.361
  220POPC   C3B 8169  14.487  43.642   7.960
  220POPC   C4B 8170  14.704  43.464   7.615
  221POPC   NC3 8171  21.651   6.633   9.637
  221POPC   PO4 8172  20.981   6.767   9.674
  221POPC   GL1 8173  21.260   6.810   9.266
  221POPC   GL2 8174  21.627   6.755   9.143
  221POPC   C1A 8175  21.246   6.558   8.876
  221POPC   D2A 8176  21.317   6.315   8.509
  221POPC   C3A 8177  21.371   6.550   8.107
  221POPC   C4A 8178  21.334   6.889   7.836
  221POPC   C1B 8179  21.661   6.891   8.696
  221POPC   C2B 8180  21.704   6.948   8.251
  221POPC   C3B 8181  21.832   6.719   7.907
  221POPC   C4B 8182  21.788   6.660   7.461
  222POPC   NC3 8183   4.380   2.026   9.539
  222POPC   PO4 8184   4.222   1.484   9.247
  222POPC   GL1 8185   4.550   1.780   9.101
  222POPC   GL2 8186   4.545   2.184   9.052
  222POPC   C1A 8187   4.347   1.883   8.709
  222POPC   D2A 8188   4.064   2.054   8.450
  222POPC   C3A 8189   4.177   1.883   8.071
  222POPC   C4A 8190   4.496   1.720   7.813
  222POPC   C1B 8191   4.404   2.384   8.627
  222POPC   C2B 8192   4.307   2.404   8.161
  222POPC   C3B 8193   4.405   2.247   7.739
  222POPC   C4B 8194   4.341   2.302   7.274
  223POPC   NC3 8195  44.346  44.512   9.441
  223POPC   PO4 8196  44.786  44.899   9.637
  223POPC   GL1 8197  44.729  44.769   9.225
  223POPC   GL2 8198  44.842  44.428   9.222
  223POPC   C1A 8199  44.549  44.956   8.841
  223POPC   D2A 8200  44.419  44.862   8.412
  223POPC   C3A 8201  44.720  44.785   8.067
  223POPC   C4A 8202  44.451  44.841   7.700
  223POPC   C1B 8203  44.606  44.442   8.842
  223POPC   C2B 8204  44.627  44.407   8.424
  223POPC   C3B 8205  44.499  44.342   8.012
  223POPC   C4B 8206  44.887  44.338   7.782
  224POPC   NC3 8207  14.733  23.205   9.340
  224POPC   PO4 8208  15.277  22.840   9.505
  224POPC   GL1 8209  15.175  22.824   9.137
  224POPC   GL2 8210  15.256  23.170   9.068
  224POPC   C1A 8211  15.412  22.758   8.786
  224POPC   D2A 8212  15.417  23.109   8.512
  224POPC   C3A 8213  15.360  23.045   8.058
  224POPC   C4A 8214  15.330  22.624   7.859
  224POPC   C1B 8215  14.962  23.079   8.728
  224POPC   C2B 8216  14.827  23.171   8.321
  224POPC   C3B 8217  14.877  23.036   7.879
  224POPC   C4B 8218  14.939  23.270   7.487
  225POPC   NC3 8219  27.002  26.135   9.566
  225POPC   PO4 8220  26.314  26.308   9.463
  225POPC   GL1 8221  26.657  26.040   9.197
  225POPC   GL2 8222  26.971  26.158   9.043
  225POPC   C1A 8223  26.748  25.746   8.855
  225POPC   D2A 8224  26.893  25.673   8.421
  225POPC   C3A 8225  26.699  25.840   8.070
  225POPC   C4A 8226  26.835  25.850   7.623
  225POPC   C1B 8227  26.823  26.213   8.603
  225POPC   C2B 8228  26.878  26.436   8.198
  225POPC   C3B 8229  26.723  26.292   7.841
  225POPC   C4B 8230  26.627  26.266   7.421
  226POPC   NC3 8231  43.477  44.427   9.501
  226POPC   PO4 8232  44.047  44.887   9.458
  226POPC   GL1 8233  43.924  44.739   9.118
  226POPC   GL2 8234  43.912  44.420   9.209
  226POPC   C1A 8235  44.128  44.626   8.754
  226POPC   D2A 8236  43.886  44.701   8.403
  226POPC   C3A 8237  44.101  44.660   8.040
  226POPC   C4A 8238  44.007  44.608   7.609
  226POPC   C1B 8239  43.741  44.323   8.815
  226POPC   C2B 8240  43.880  44.195   8.406
  226POPC   C3B 8241  43.768  44.270   7.989
  226POPC   C4B 8242  43.545  44.385   7.623
  227POPC   NC3 8243  36.760  42.195   9.451
  227POPC   PO4 8244  37.193  42.740   9.547
  227POPC   GL1 8245  37.011  42.543   9.151
  227POPC   GL2 8246  36.642  42.447   9.037
  227POPC   C1A 8247  37.072  42.477   8.715
  227POPC   D2A 8248  37.003  42.702   8.352
  227POPC   C3A 8249  36.931  42.434   8.013
  227POPC   C4A 8250  37.079  42.513   7.574
  227POPC   C1B 8251  36.702  42.105   8.749
  227POPC   C2B 8252  36.671  41.809   8.414
  227POPC   C3B 8253  36.627  41.806   7.967
  227POPC   C4B 8254  36.831  42.071   7.667
  228POPC   NC3 8255  26.134   5.608   9.468
  228POPC   PO4 8256  25.813   5.091   9.542
  228POPC   GL1 8257  26.020   5.128   9.134
  228POPC   GL2 8258  25.952   5.449   9.011
  228POPC   C1A 8259  26.070   4.904   8.713
  228POPC   D2A 8260  25.903   5.000   8.281
  228POPC   C3A 8261  26.122   4.956   7.874
  228POPC   C4A 8262  26.180   5.029   7.407
  228POPC   C1B 8263  26.108   5.401   8.586
  228POPC   C2B 8264  26.137   5.435   8.120
  228POPC   C3B 8265  26.035   5.443   7.698
  228POPC   C4B 8266  26.139   5.542   7.273
  229POPC   NC3 8267  24.887  38.922   9.829
  229POPC   PO4 8268  24.482  38.519   9.462
  229POPC   GL1 8269  24.444  38.444   9.001
  229POPC   GL2 8270  24.763  38.510   8.814
  229POPC   C1A 8271  24.351  38.672   8.586
  229POPC   D2A 8272  24.095  38.310   8.420
  229POPC   C3A 8273  24.092  38.183   8.001
  229POPC   C4A 8274  24.441  38.194   7.697
  229POPC   C1B 8275  24.596  38.219   8.570
  229POPC   C2B 8276  24.559  38.407   8.186
  229POPC   C3B 8277  24.827  38.481   7.886
  229POPC   C4B 8278  24.680  38.638   7.528
  230POPC   NC3 8279  25.071  39.810   9.533
  230POPC   PO4 8280  25.716  39.950   9.444
  230POPC   GL1 8281  25.546  40.231   9.108
  230POPC   GL2 8282  25.182  40.243   9.207
  230POPC   C1A 8283  25.457  40.111   8.662
  230POPC   D2A 8284  25.273  39.765   8.361
  230POPC   C3A 8285  25.299  39.921   7.928
  230POPC   C4A 8286  25.430  39.861   7.467
  230POPC   C1B 8287  24.971  40.041   8.849
  230POPC   C2B 8288  24.971  40.170   8.437
  230POPC   C3B 8289  24.818  40.029   8.052
  230POPC   C4B 8290  24.900  40.165   7.648
  231POPC   NC3 8291   5.387  27.307   9.561
  231POPC   PO4 8292   5.820  27.834   9.479
  231POPC   GL1 8293   5.947  27.685   9.100
  231POPC   GL2 8294   6.123  27.409   9.211
  231POPC   C1A 8295   5.869  27.742   8.657
  231POPC   D2A 8296   5.582  27.701   8.299
  231POPC   C3A 8297   5.788  27.521   7.945
  231POPC   C4A 8298   6.003  27.895   7.898
  231POPC   C1B 8299   6.249  27.398   8.788
  231POPC   C2B 8300   6.080  27.345   8.381
  231POPC   C3B 8301   6.299  27.437   8.018
  231POPC   C4B 8302   6.336  27.614   7.660
  232POPC   NC3 8303   8.141  42.167   9.366
  232POPC   PO4 8304   8.285  42.775   9.546
  232POPC   GL1 8305   8.352  42.590   9.161
  232POPC   GL2 8306   8.023  42.564   9.059
  232POPC   C1A 8307   8.386  42.393   8.730
  232POPC   D2A 8308   8.204  42.282   8.353
  232POPC   C3A 8309   8.274  42.545   8.010
  232POPC   C4A 8310   8.543  42.375   7.709
  232POPC   C1B 8311   7.868  42.229   8.770
  232POPC   C2B 8312   7.727  42.104   8.373
  232POPC   C3B 8313   7.838  42.256   7.987
  232POPC   C4B 8314   8.087  42.188   7.624
  233POPC   NC3 8315  43.534  30.976   9.843
  233POPC   PO4 8316  43.951  30.516   9.548
  233POPC   GL1 8317  44.095  30.615   9.147
  233POPC   GL2 8318  44.107  30.991   9.088
  233POPC   C1A 8319  43.983  30.657   8.710
  233POPC   D2A 8320  43.981  30.916   8.364
  233POPC   C3A 8321  43.785  30.614   8.151
  233POPC   C4A 8322  43.749  30.473   7.757
  233POPC   C1B 8323  43.721  31.099   8.796
  233POPC   C2B 8324  43.463  31.146   8.405
  233POPC   C3B 8325  43.633  31.074   7.982
  233POPC   C4B 8326  44.042  30.915   7.788
  234POPC   NC3 8327  37.911   5.207   9.575
  234POPC   PO4 8328  37.382   4.844   9.269
  234POPC   GL1 8329  37.698   5.040   9.150
  234POPC   GL2 8330  37.554   5.329   9.233
  234POPC   C1A 8331  37.831   4.910   8.783
  234POPC   D2A 8332  37.577   4.751   8.453
  234POPC   C3A 8333  37.655   4.944   8.064
  234POPC   C4A 8334  37.369   5.204   7.781
  234POPC   C1B 8335  37.625   5.383   8.785
  234POPC   C2B 8336  37.557   5.374   8.349
  234POPC   C3B 8337  37.773   5.454   7.976
  234POPC   C4B 8338  37.717   5.532   7.546
  235POPC   NC3 8339   3.156  12.981   9.597
  235POPC   PO4 8340   3.663  12.479   9.652
  235POPC   GL1 8341   3.643  12.737   9.251
  235POPC   GL2 8342   3.701  13.115   9.197
  235POPC   C1A 8343   3.375  12.745   8.871
  235POPC   D2A 8344   3.464  12.848   8.415
  235POPC   C3A 8345   3.624  12.555   8.096
  235POPC   C4A 8346   3.345  12.572   7.738
  235POPC   C1B 8347   3.842  12.926   8.783
  235POPC   C2B 8348   3.980  12.902   8.321
  235POPC   C3B 8349   3.762  13.062   7.974
  235POPC   C4B 8350   3.766  13.214   7.571
  236POPC   NC3 8351  34.151  16.478   9.537
  236POPC   PO4 8352  33.788  16.933   9.239
  236POPC   GL1 8353  33.859  16.618   9.080
  236POPC   GL2 8354  33.491  16.523   9.083
  236POPC   C1A 8355  33.960  16.659   8.661
  236POPC   D2A 8356  34.072  16.583   8.265
  236POPC   C3A 8357  33.865  16.873   7.951
  236POPC   C4A 8358  33.723  16.811   7.509
  236POPC   C1B 8359  33.494  16.447   8.657
  236POPC   C2B 8360  33.545  16.711   8.302
  236POPC   C3B 8361  33.442  16.597   7.874
  236POPC   C4B 8362  33.657  16.301   7.585
  237POPC   NC3 8363   1.172  35.976   9.531
  237POPC   PO4 8364   1.654  36.452   9.464
  237POPC   GL1 8365   1.315  36.458   9.101
  237POPC   GL2 8366   1.201  36.095   9.020
  237POPC   C1A 8367   1.173  36.386   8.613
  237POPC   D2A 8368   1.010  35.957   8.420
  237POPC   C3A 8369   0.937  35.944   7.990
  237POPC   C4A 8370   0.915  36.367   7.785
  237POPC   C1B 8371   1.475  35.974   8.625
  237POPC   C2B 8372   1.495  35.923   8.159
  237POPC   C3B 8373   1.366  36.050   7.741
  237POPC   C4B 8374   1.393  35.766   7.385
  238POPC   NC3 8375  37.136   0.503   9.613
  238POPC   PO4 8376  36.517   0.123   9.638
  238POPC   GL1 8377  36.644   0.248   9.211
  238POPC   GL2 8378  36.727   0.570   9.221
  238POPC   C1A 8379  36.875   0.273   8.780
  238POPC   D2A 8380  36.725   0.162   8.382
  238POPC   C3A 8381  36.920   0.188   8.018
  238POPC   C4A 8382  36.794   0.061   7.624
  238POPC   C1B 8383  36.519   0.622   8.821
  238POPC   C2B 8384  36.716   0.667   8.433
  238POPC   C3B 8385  36.572   0.584   8.026
  238POPC   C4B 8386  36.811   0.590   7.687
  239POPC   NC3 8387  25.711  41.185   9.562
  239POPC   PO4 8388  25.122  41.448   9.404
  239POPC   GL1 8389  25.160  41.738   9.090
  239POPC   GL2 8390  25.499  41.749   9.179
  239POPC   C1A 8391  25.091  41.809   8.668
  239POPC   D2A 8392  25.174  41.591   8.312
  239POPC   C3A 8393  25.112  41.780   7.937
  239POPC   C4A 8394  25.087  41.473   7.587
  239POPC   C1B 8395  25.529  41.540   8.781
  239POPC   C2B 8396  25.706  41.660   8.401
  239POPC   C3B 8397  25.636  41.632   8.005
  239POPC   C4B 8398  25.498  41.751   7.616
  240POPC   NC3 8399   6.044  19.192   9.477
  240POPC   PO4 8400   5.655  18.635   9.537
  240POPC   GL1 8401   5.652  18.949   9.189
  240POPC   GL2 8402   5.985  18.978   9.037
  240POPC   C1A 8403   5.610  19.034   8.716
  240POPC   D2A 8404   5.892  18.923   8.398
  240POPC   C3A 8405   5.829  19.168   8.038
  240POPC   C4A 8406   5.940  18.957   7.673
  240POPC   C1B 8407   6.183  19.173   8.737
  240POPC   C2B 8408   6.224  19.332   8.347
  240POPC   C3B 8409   6.308  19.212   7.925
  240POPC   C4B 8410   6.233  19.408   7.539
  241POPC   NC3 8411   8.742  31.325   9.427
  241POPC   PO4 8412   8.121  31.421   9.645
  241POPC   GL1 8413   8.269  31.249   9.242
  241POPC   GL2 8414   8.398  31.544   9.092
  241POPC   C1A 8415   8.266  31.168   8.762
  241POPC   D2A 8416   8.106  31.038   8.312
  241POPC   C3A 8417   8.299  31.280   7.945
  241POPC   C4A 8418   8.316  31.477   7.491
  241POPC   C1B 8419   8.141  31.707   8.739
  241POPC   C2B 8420   8.189  31.658   8.285
  241POPC   C3B 8421   8.116  31.774   7.849
  241POPC   C4B 8422   8.411  31.965   7.544
  242POPC   NC3 8423   4.342  38.678   9.441
  242POPC   PO4 8424   4.559  37.984   9.454
  242POPC   GL1 8425   4.446  38.281   9.123
  242POPC   GL2 8426   4.165  38.296   9.002
  242POPC   C1A 8427   4.587  38.543   8.771
  242POPC   D2A 8428   4.600  38.808   8.400
  242POPC   C3A 8429   4.292  38.583   8.156
  242POPC   C4A 8430   4.363  38.360   7.797
  242POPC   C1B 8431   4.104  38.333   8.577
  242POPC   C2B 8432   3.880  38.123   8.245
  242POPC   C3B 8433   3.843  38.048   7.786
  242POPC   C4B 8434   3.836  38.286   7.406
  243POPC   NC3 8435  42.553  12.477   9.502
  243POPC   PO4 8436  43.223  12.585   9.410
  243POPC   GL1 8437  43.114  12.881   9.097
  243POPC   GL2 8438  42.760  12.854   9.151
  243POPC   C1A 8439  43.017  12.905   8.670
  243POPC   D2A 8440  42.924  12.940   8.267
  243POPC   C3A 8441  43.235  12.817   7.995
  243POPC   C4A 8442  43.245  12.900   7.573
  243POPC   C1B 8443  42.815  12.478   8.867
  243POPC   C2B 8444  42.911  12.446   8.404
  243POPC   C3B 8445  42.775  12.564   7.940
  243POPC   C4B 8446  42.872  12.501   7.480
  244POPC   NC3 8447  16.031  21.113   9.524
  244POPC   PO4 8448  15.689  21.622   9.749
  244POPC   GL1 8449  15.747  21.546   9.283
  244POPC   GL2 8450  15.632  21.205   9.227
  244POPC   C1A 8451  15.798  21.734   8.841
  244POPC   D2A 8452  15.860  21.816   8.392
  244POPC   C3A 8453  16.084  21.522   8.126
  244POPC   C4A 8454  16.230  21.235   7.804
  244POPC   C1B 8455  15.593  21.283   8.787
  244POPC   C2B 8456  15.584  21.317   8.324
  244POPC   C3B 8457  15.737  21.165   7.893
  244POPC   C4B 8458  15.763  21.144   7.415
  245POPC   NC3 8459   5.242  23.372   9.427
  245POPC   PO4 8460   4.713  22.972   9.430
  245POPC   GL1 8461   4.939  23.050   9.074
  245POPC   GL2 8462   4.876  23.377   9.088
  245POPC   C1A 8463   5.057  22.900   8.662
  245POPC   D2A 8464   4.992  22.689   8.237
  245POPC   C3A 8465   5.255  22.814   7.892
  245POPC   C4A 8466   5.169  22.989   7.456
  245POPC   C1B 8467   4.773  23.384   8.664
  245POPC   C2B 8468   4.757  23.134   8.276
  245POPC   C3B 8469   4.815  23.066   7.832
  245POPC   C4B 8470   4.676  23.383   7.525
  246POPC   NC3 8471  15.027  20.682   9.505
  246POPC   PO4 8472  15.681  20.484   9.548
  246POPC   GL1 8473  15.377  20.472   9.166
  246POPC   GL2 8474  15.076  20.257   9.149
  246POPC   C1A 8475  15.091  20.674   8.844
  246POPC   D2A 8476  14.873  20.706   8.422
  246POPC   C3A 8477  15.170  20.792   8.075
  246POPC   C4A 8478  15.377  20.897   7.666
  246POPC   C1B 8479  14.884  20.234   8.710
  246POPC   C2B 8480  15.176  20.296   8.349
  246POPC   C3B 8481  15.480  20.346   8.016
  246POPC   C4B 8482  15.196  20.413   7.706
  247POPC   NC3 8483  22.470  14.816   9.326
  247POPC   PO4 8484  21.847  15.146   9.502
  247POPC   GL1 8485  22.013  15.009   9.129
  247POPC   GL2 8486  22.091  15.335   9.040
  247POPC   C1A 8487  22.171  14.986   8.694
  247POPC   D2A 8488  22.151  15.238   8.327
  247POPC   C3A 8489  22.168  15.084   7.924
  247POPC   C4A 8490  22.502  15.088   7.669
  247POPC   C1B 8491  21.808  15.369   8.678
  247POPC   C2B 8492  21.768  15.559   8.267
  247POPC   C3B 8493  21.785  15.417   7.847
  247POPC   C4B 8494  22.146  15.419   7.503
  248POPC   NC3 8495   0.742  18.051   9.395
  248POPC   PO4 8496   1.168  18.539   9.545
  248POPC   GL1 8497   1.198  18.270   9.138
  248POPC   GL2 8498   1.403  17.941   9.118
  248POPC   C1A 8499   1.425  18.214   8.712
  248POPC   D2A 8500   1.450  17.985   8.339
  248POPC   C3A 8501   1.461  18.314   8.050
  248POPC   C4A 8502   1.564  18.342   7.654
  248POPC   C1B 8503   1.033  17.893   8.816
  248POPC   C2B 8504   0.821  17.949   8.407
  248POPC   C3B 8505   1.047  17.967   8.020
  248POPC   C4B 8506   1.083  18.203   7.648
  249POPC   NC3 8507  44.169  13.510   9.664
  249POPC   PO4 8508  43.515  13.481   9.458
  249POPC   GL1 8509  43.886  13.260   9.211
  249POPC   GL2 8510  44.227  13.440   9.154
  249POPC   C1A 8511  43.971  13.313   8.750
  249POPC   D2A 8512  43.794  13.485   8.355
  249POPC   C3A 8513  43.939  13.585   7.937
  249POPC   C4A 8514  43.699  13.663   7.569
  249POPC   C1B 8515  44.388  13.659   8.773
  249POPC   C2B 8516  44.301  13.763   8.319
  249POPC   C3B 8517  44.218  14.017   7.944
  249POPC   C4B 8518  44.112  13.948   7.505
  250POPC   NC3 8519  39.719  31.677   9.509
  250POPC   PO4 8520  40.286  31.907   9.353
  250POPC   GL1 8521  40.170  31.544   9.093
  250POPC   GL2 8522  40.044  31.234   9.227
  250POPC   C1A 8523  39.883  31.531   8.736
  250POPC   D2A 8524  39.812  31.724   8.333
  250POPC   C3A 8525  40.138  31.761   8.014
  250POPC   C4A 8526  40.150  31.643   7.571
  250POPC   C1B 8527  40.100  31.076   8.771
  250POPC   C2B 8528  39.972  31.177   8.334
  250POPC   C3B 8529  39.964  31.291   7.893
  250POPC   C4B 8530  39.771  31.309   7.489
  251POPC   NC3 8531  26.875  20.071   9.421
  251POPC   PO4 8532  26.886  19.448   9.359
  251POPC   GL1 8533  26.723  19.757   9.034
  251POPC   GL2 8534  26.534  20.117   9.057
  251POPC   C1A 8535  26.974  19.903   8.694
  251POPC   D2A 8536  27.285  19.782   8.427
  251POPC   C3A 8537  27.054  19.760   8.046
  251POPC   C4A 8538  26.704  19.495   7.937
  251POPC   C1B 8539  26.511  20.092   8.661
  251POPC   C2B 8540  26.593  19.837   8.326
  251POPC   C3B 8541  26.366  19.900   7.975
  251POPC   C4B 8542  26.586  19.908   7.612
  252POPC   NC3 8543   4.750  24.239   9.353
  252POPC   PO4 8544   4.209  23.824   9.574
  252POPC   GL1 8545   4.170  23.651   9.186
  252POPC   GL2 8546   4.520  23.731   9.136
  252POPC   C1A 8547   4.224  23.526   8.764
  252POPC   D2A 8548   4.335  23.378   8.388
  252POPC   C3A 8549   4.180  23.680   8.080
  252POPC   C4A 8550   4.090  23.605   7.633
  252POPC   C1B 8551   4.599  23.894   8.726
  252POPC   C2B 8552   4.859  23.799   8.350
  252POPC   C3B 8553   4.675  23.752   7.930
  252POPC   C4B 8554   4.391  24.060   7.741
  253POPC   NC3 8555  33.339  19.600   9.490
  253POPC   PO4 8556  32.774  20.000   9.488
  253POPC   GL1 8557  33.063  19.946   9.182
  253POPC   GL2 8558  32.969  19.595   9.144
  253POPC   C1A 8559  33.154  20.163   8.808
  253POPC   D2A 8560  32.947  20.095   8.431
  253POPC   C3A 8561  33.082  19.893   8.070
  253POPC   C4A 8562  33.232  20.100   7.710
  253POPC   C1B 8563  33.123  19.664   8.737
  253POPC   C2B 8564  32.845  19.576   8.418
  253POPC   C3B 8565  32.732  19.527   8.018
  253POPC   C4B 8566  32.878  19.694   7.635
  254POPC   NC3 8567   1.948  35.677   9.304
  254POPC   PO4 8568   2.073  35.012   9.416
  254POPC   GL1 8569   2.038  35.221   9.083
  254POPC   GL2 8570   1.700  35.262   9.105
  254POPC   C1A 8571   2.143  35.304   8.684
  254POPC   D2A 8572   1.958  35.140   8.329
  254POPC   C3A 8573   1.945  35.365   7.990
  254POPC   C4A 8574   2.232  35.576   7.812
  254POPC   C1B 8575   1.632  35.019   8.740
  254POPC   C2B 8576   1.550  34.836   8.351
  254POPC   C3B 8577   1.554  34.999   7.961
  254POPC   C4B 8578   1.915  34.894   7.745
  255POPC   NC3 8579  14.615  16.870   9.595
  255POPC   PO4 8580  14.109  17.313   9.543
  255POPC   GL1 8581  14.252  16.966   9.217
  255POPC   GL2 8582  14.459  16.651   9.159
  255POPC   C1A 8583  14.414  16.979   8.782
  255POPC   D2A 8584  14.446  16.756   8.420
  255POPC   C3A 8585  14.300  16.972   8.073
  255POPC   C4A 8586  14.309  16.748   7.705
  255POPC   C1B 8587  14.331  16.399   8.799
  255POPC   C2B 8588  14.023  16.455   8.411
  255POPC   C3B 8589  14.161  16.342   7.988
  255POPC   C4B 8590  14.142  16.268   7.516
  256POPC   NC3 8591  35.928  17.204   9.454
  256POPC   PO4 8592  36.253  17.889   9.449
  256POPC   GL1 8593  36.059  17.612   9.189
  256POPC   GL2 8594  36.324  17.328   9.130
  256POPC   C1A 8595  35.888  17.469   8.820
  256POPC   D2A 8596  35.998  17.614   8.431
  256POPC   C3A 8597  36.128  17.318   8.128
  256POPC   C4A 8598  36.080  17.494   7.741
  256POPC   C1B 8599  36.433  17.602   8.801
  256POPC   C2B 8600  36.506  17.558   8.378
  256POPC   C3B 8601  36.340  17.806   8.077
  256POPC   C4B 8602  36.415  17.922   7.697
  257POPC   NC3 8603  22.661   6.280   9.580
  257POPC   PO4 8604  23.143   5.765   9.510
  257POPC   GL1 8605  22.867   5.882   9.137
  257POPC   GL2 8606  22.622   5.616   9.049
  257POPC   C1A 8607  22.953   6.033   8.686
  257POPC   D2A 8608  22.873   5.869   8.236
  257POPC   C3A 8609  23.178   5.918   7.862
  257POPC   C4A 8610  23.073   6.004   7.412
  257POPC   C1B 8611  22.511   5.808   8.641
  257POPC   C2B 8612  22.575   6.244   8.410
  257POPC   C3B 8613  22.677   6.264   7.974
  257POPC   C4B 8614  22.694   5.881   7.731
  258POPC   NC3 8615  34.849  24.759   9.418
  258POPC   PO4 8616  34.452  24.288   9.486
  258POPC   GL1 8617  34.505  24.446   9.124
  258POPC   GL2 8618  34.831  24.323   9.077
  258POPC   C1A 8619  34.249  24.554   8.787
  258POPC   D2A 8620  34.077  24.605   8.395
  258POPC   C3A 8621  34.451  24.701   8.135
  258POPC   C4A 8622  34.617  24.675   7.726
  258POPC   C1B 8623  34.813  24.599   8.739
  258POPC   C2B 8624  34.795  24.401   8.356
  258POPC   C3B 8625  35.000  24.188   8.032
  258POPC   C4B 8626  35.059  24.436   7.675
  259POPC   NC3 8627   0.761  13.365   9.401
  259POPC   PO4 8628   0.357  13.809   9.780
  259POPC   GL1 8629   0.575  13.806   9.309
  259POPC   GL2 8630   0.370  13.615   9.107
  259POPC   C1A 8631   0.800  13.963   8.929
  259POPC   D2A 8632   0.890  13.924   8.473
  259POPC   C3A 8633   0.686  13.648   8.125
  259POPC   C4A 8634   0.402  13.347   7.873
  259POPC   C1B 8635   0.410  13.715   8.706
  259POPC   C2B 8636   0.203  13.768   8.346
  259POPC   C3B 8637   0.196  13.796   7.941
  259POPC   C4B 8638  44.942  13.581   7.682
  260POPC   NC3 8639  40.411   3.457   9.468
  260POPC   PO4 8640  39.929   3.936   9.507
  260POPC   GL1 8641  40.090   3.716   9.178
  260POPC   GL2 8642  39.921   3.399   9.288
  260POPC   C1A 8643  40.348   3.674   8.791
  260POPC   D2A 8644  40.399   3.705   8.329
  260POPC   C3A 8645  40.143   3.430   8.079
  260POPC   C4A 8646  39.994   3.545   7.699
  260POPC   C1B 8647  39.812   3.419   8.858
  260POPC   C2B 8648  39.818   3.616   8.450
  260POPC   C3B 8649  39.605   3.569   8.045
  260POPC   C4B 8650  39.552   3.779   7.638
  261POPC   NC3 8651  36.704  13.385   9.359
  261POPC   PO4 8652  36.517  14.060   9.447
  261POPC   GL1 8653  36.760  13.933   9.074
  261POPC   GL2 8654  36.833  13.602   8.930
  261POPC   C1A 8655  37.078  14.014   8.769
  261POPC   D2A 8656  37.220  13.906   8.326
  261POPC   C3A 8657  36.958  14.011   7.951
  261POPC   C4A 8658  36.950  14.009   7.485
  261POPC   C1B 8659  37.173  13.522   8.663
  261POPC   C2B 8660  37.116  13.367   8.220
  261POPC   C3B 8661  36.880  13.417   7.834
  261POPC   C4B 8662  36.768  13.175   7.467
  262POPC   NC3 8663   8.890  21.571   9.394
  262POPC   PO4 8664   8.866  20.879   9.596
  262POPC   GL1 8665   8.711  21.101   9.213
  262POPC   GL2 8666   9.018  21.227   9.041
  262POPC   C1A 8667   8.604  21.286   8.787
  262POPC   D2A 8668   8.945  21.332   8.521
  262POPC   C3A 8669   8.891  21.425   8.111
  262POPC   C4A 8670   8.773  21.650   7.743
  262POPC   C1B 8671   9.267  20.999   8.765
  262POPC   C2B 8672   9.196  20.915   8.340
  262POPC   C3B 8673   9.399  21.242   8.151
  262POPC   C4B 8674   9.278  21.488   7.811
  263POPC   NC3 8675  25.626  25.559   9.555
  263POPC   PO4 8676  25.674  24.890   9.493
  263POPC   GL1 8677  25.384  25.202   9.255
  263POPC   GL2 8678  25.002  25.206   9.239
  263POPC   C1A 8679  25.388  25.103   8.838
  263POPC   D2A 8680  25.631  25.060   8.477
  263POPC   C3A 8681  25.620  25.334   8.146
  263POPC   C4A 8682  25.659  25.229   7.733
  263POPC   C1B 8683  25.090  25.512   8.911
  263POPC   C2B 8684  25.251  25.463   8.504
  263POPC   C3B 8685  25.098  25.249   8.180
  263POPC   C4B 8686  25.167  25.384   7.767
  264POPC   NC3 8687   9.219  17.265   9.554
  264POPC   PO4 8688   8.653  17.666   9.413
  264POPC   GL1 8689   8.940  17.445   9.165
  264POPC   GL2 8690   8.868  17.161   9.045
  264POPC   C1A 8691   9.177  17.551   8.818
  264POPC   D2A 8692   9.280  17.569   8.382
  264POPC   C3A 8693   8.935  17.525   8.069
  264POPC   C4A 8694   9.077  17.570   7.636
  264POPC   C1B 8695   8.728  17.321   8.644
  264POPC   C2B 8696   8.524  17.212   8.236
  264POPC   C3B 8697   8.484  17.177   7.788
  264POPC   C4B 8698   8.781  17.214   7.415
  265POPC   NC3 8699  24.631   9.405   9.127
  265POPC   PO4 8700  24.771   9.951   9.510
  265POPC   GL1 8701  24.525  10.062   9.148
  265POPC   GL2 8702  24.223   9.865   9.149
  265POPC   C1A 8703  24.535  10.020   8.706
  265POPC   D2A 8704  24.625   9.796   8.339
  265POPC   C3A 8705  24.584  10.044   7.987
  265POPC   C4A 8706  24.630   9.828   7.599
  265POPC   C1B 8707  24.112   9.692   8.745
  265POPC   C2B 8708  24.148   9.548   8.294
  265POPC   C3B 8709  24.200   9.708   7.869
  265POPC   C4B 8710  24.140   9.752   7.408
  266POPC   NC3 8711   7.753  12.274   9.559
  266POPC   PO4 8712   7.186  11.999   9.482
  266POPC   GL1 8713   7.180  12.149   9.091
  266POPC   GL2 8714   7.504  12.304   9.111
  266POPC   C1A 8715   7.198  12.308   8.702
  266POPC   D2A 8716   7.198  12.011   8.402
  266POPC   C3A 8717   7.221  12.225   8.055
  266POPC   C4A 8718   7.120  12.252   7.626
  266POPC   C1B 8719   7.545  11.921   8.827
  266POPC   C2B 8720   7.599  11.661   8.458
  266POPC   C3B 8721   7.555  11.822   8.053
  266POPC   C4B 8722   7.609  12.142   7.735
  267POPC   NC3 8723  34.624  32.179   9.506
  267POPC   PO4 8724  35.028  31.700   9.273
  267POPC   GL1 8725  34.754  31.943   9.003
  267POPC   GL2 8726  34.638  32.308   9.001
  267POPC   C1A 8727  34.767  32.041   8.567
  267POPC   D2A 8728  34.561  31.873   8.250
  267POPC   C3A 8729  34.721  32.010   7.873
  267POPC   C4A 8730  34.725  32.069   7.405
  267POPC   C1B 8731  34.383  32.369   8.607
  267POPC   C2B 8732  34.417  32.518   8.176
  267POPC   C3B 8733  34.465  32.417   7.737
  267POPC   C4B 8734  34.558  32.650   7.333
  268POPC   NC3 8735  21.193  35.270   9.646
  268POPC   PO4 8736  21.813  35.351   9.779
  268POPC   GL1 8737  21.559  35.480   9.341
  268POPC   GL2 8738  21.212  35.369   9.162
  268POPC   C1A 8739  21.546  35.625   8.869
  268POPC   D2A 8740  21.398  35.500   8.439
  268POPC   C3A 8741  21.564  35.555   8.001
  268POPC   C4A 8742  21.403  35.627   7.572
  268POPC   C1B 8743  21.557  35.131   8.957
  268POPC   C2B 8744  21.610  35.031   8.522
  268POPC   C3B 8745  21.320  35.083   8.156
  268POPC   C4B 8746  21.334  35.159   7.731
  269POPC   NC3 8747   2.554  20.361   9.459
  269POPC   PO4 8748   2.853  20.924   9.563
  269POPC   GL1 8749   2.884  20.678   9.225
  269POPC   GL2 8750   2.554  20.740   9.100
  269POPC   C1A 8751   2.943  20.699   8.781
  269POPC   D2A 8752   2.667  20.731   8.426
  269POPC   C3A 8753   2.918  20.919   8.088
  269POPC   C4A 8754   3.071  20.914   7.641
  269POPC   C1B 8755   2.511  20.357   8.813
  269POPC   C2B 8756   2.567  20.215   8.400
  269POPC   C3B 8757   2.478  20.348   7.973
  269POPC   C4B 8758   2.366  20.194   7.564
  270POPC   NC3 8759  12.217  27.788   9.403
  270POPC   PO4 8760  11.481  27.862   9.467
  270POPC   GL1 8761  11.780  27.807   9.131
  270POPC   GL2 8762  11.875  27.466   9.135
  270POPC   C1A 8763  11.940  27.769   8.703
  270POPC   D2A 8764  11.927  27.899   8.255
  270POPC   C3A 8765  12.104  27.686   7.892
  270POPC   C4A 8766  12.313  27.456   7.536
  270POPC   C1B 8767  11.824  27.279   8.701
  270POPC   C2B 8768  11.888  27.363   8.237
  270POPC   C3B 8769  11.960  27.184   7.800
  270POPC   C4B 8770  11.875  27.272   7.339
  271POPC   NC3 8771  35.252  43.142   9.554
  271POPC   PO4 8772  35.813  43.542   9.387
  271POPC   GL1 8773  35.701  43.290   9.042
  271POPC   GL2 8774  35.498  42.988   9.109
  271POPC   C1A 8775  35.442  43.279   8.702
  271POPC   D2A 8776  35.172  43.193   8.407
  271POPC   C3A 8777  35.333  43.400   8.096
  271POPC   C4A 8778  35.357  43.390   7.682
  271POPC   C1B 8779  35.630  42.783   8.696
  271POPC   C2B 8780  35.601  42.887   8.241
  271POPC   C3B 8781  35.658  43.019   7.827
  271POPC   C4B 8782  35.493  42.990   7.381
  272POPC   NC3 8783  27.219  37.192   9.796
  272POPC   PO4 8784  26.920  37.720   9.444
  272POPC   GL1 8785  26.759  37.633   9.080
  272POPC   GL2 8786  26.598  37.326   9.162
  272POPC   C1A 8787  26.620  37.750   8.662
  272POPC   D2A 8788  26.870  37.734   8.286
  272POPC   C3A 8789  26.658  37.715   7.909
  272POPC   C4A 8790  26.775  37.947   7.576
  272POPC   C1B 8791  26.814  37.263   8.749
  272POPC   C2B 8792  26.654  37.270   8.318
  272POPC   C3B 8793  26.955  37.295   7.990
  272POPC   C4B 8794  26.930  37.440   7.568
  273POPC   NC3 8795  27.072  39.340   9.444
  273POPC   PO4 8796  27.769  39.120   9.572
  273POPC   GL1 8797  27.595  39.118   9.163
  273POPC   GL2 8798  27.822  39.395   9.108
  273POPC   C1A 8799  27.639  38.958   8.716
  273POPC   D2A 8800  27.755  38.801   8.265
  273POPC   C3A 8801  27.500  39.037   7.965
  273POPC   C4A 8802  27.248  39.445   7.998
  273POPC   C1B 8803  27.888  39.431   8.674
  273POPC   C2B 8804  27.843  39.296   8.268
  273POPC   C3B 8805  27.753  39.470   7.863
  273POPC   C4B 8806  27.981  39.828   7.715
  274POPC   NC3 8807   4.856  41.571   9.682
  274POPC   PO4 8808   5.473  41.441   9.444
  274POPC   GL1 8809   5.161  41.671   9.250
  274POPC   GL2 8810   5.279  41.578   8.966
  274POPC   C1A 8811   4.818  41.759   8.959
  274POPC   D2A 8812   4.809  41.796   8.496
  274POPC   C3A 8813   4.886  41.479   8.173
  274POPC   C4A 8814   4.908  41.422   7.721
  274POPC   C1B 8815   5.266  41.928   8.702
  274POPC   C2B 8816   5.302  41.936   8.273
  274POPC   C3B 8817   5.295  41.716   7.872
  274POPC   C4B 8818   5.626  41.717   7.523
  275POPC   NC3 8819  44.350  10.367   9.293
  275POPC   PO4 8820   0.002  10.607   9.539
  275POPC   GL1 8821  44.833  10.740   9.139
  275POPC   GL2 8822  44.720  10.441   8.965
  275POPC   C1A 8823  44.883  10.827   8.713
  275POPC   D2A 8824  44.711  10.571   8.387
  275POPC   C3A 8825  44.492  10.597   8.015
  275POPC   C4A 8826  44.789  10.706   7.720
  275POPC   C1B 8827  44.348  10.357   8.661
  275POPC   C2B 8828  44.268  10.193   8.278
  275POPC   C3B 8829  44.430   9.963   7.950
  275POPC   C4B 8830  44.465  10.222   7.591
  276POPC   NC3 8831   3.923  43.771   9.701
  276POPC   PO4 8832   4.390  44.198   9.540
  276POPC   GL1 8833   4.310  43.887   9.236
  276POPC   GL2 8834   4.542  43.629   9.158
  276POPC   C1A 8835   4.196  43.965   8.795
  276POPC   D2A 8836   4.414  44.231   8.532
  276POPC   C3A 8837   4.347  44.152   8.101
  276POPC   C4A 8838   4.240  44.080   7.694
  276POPC   C1B 8839   4.648  43.775   8.777
  276POPC   C2B 8840   4.451  43.716   8.398
  276POPC   C3B 8841   4.658  43.760   8.039
  276POPC   C4B 8842   4.583  43.637   7.653
  277POPC   NC3 8843  35.838  44.811   9.462
  277POPC   PO4 8844  36.037  44.245   9.649
  277POPC   GL1 8845  36.001  44.427   9.202
  277POPC   GL2 8846  36.260  44.710   9.175
  277POPC   C1A 8847  35.886  44.511   8.761
  277POPC   D2A 8848  36.091  44.393   8.348
  277POPC   C3A 8849  36.053  44.642   7.966
  277POPC   C4A 8850  36.077  44.562   7.529
  277POPC   C1B 8851  36.389  44.634   8.744
  277POPC   C2B 8852  36.281  44.872   8.380
  277POPC   C3B 8853  36.429   0.020   7.989
  277POPC   C4B 8854  36.289   0.019   7.572
  278POPC   NC3 8855   3.938  13.586   9.445
  278POPC   PO4 8856   3.309  13.394   9.461
  278POPC   GL1 8857   3.319  13.476   9.079
  278POPC   GL2 8858   3.599  13.651   9.049
  278POPC   C1A 8859   3.407  13.248   8.746
  278POPC   D2A 8860   3.670  13.322   8.431
  278POPC   C3A 8861   3.569  13.535   8.096
  278POPC   C4A 8862   3.329  13.328   7.811
  278POPC   C1B 8863   3.364  13.776   8.651
  278POPC   C2B 8864   3.464  14.079   8.303
  278POPC   C3B 8865   3.725  13.979   7.929
  278POPC   C4B 8866   3.616  13.710   7.584
  279POPC   NC3 8867  13.225  23.457   9.497
  279POPC   PO4 8868  13.304  22.765   9.510
  279POPC   GL1 8869  13.003  22.838   9.185
  279POPC   GL2 8870  12.868  23.168   9.230
  279POPC   C1A 8871  12.918  22.678   8.780
  279POPC   D2A 8872  13.019  22.882   8.399
  279POPC   C3A 8873  13.003  22.762   8.015
  279POPC   C4A 8874  12.684  22.705   7.745
  279POPC   C1B 8875  12.795  23.203   8.788
  279POPC   C2B 8876  12.679  23.327   8.367
  279POPC   C3B 8877  12.815  23.234   7.970
  279POPC   C4B 8878  12.865  23.410   7.565
  280POPC   NC3 8879   6.945  27.027   9.365
  280POPC   PO4 8880   6.568  26.523   9.687
  280POPC   GL1 8881   6.467  26.693   9.252
  280POPC   GL2 8882   6.456  27.028   9.181
  280POPC   C1A 8883   6.523  26.657   8.802
  280POPC   D2A 8884   6.774  26.733   8.457
  280POPC   C3A 8885   6.611  26.525   8.103
  280POPC   C4A 8886   6.785  26.643   7.711
  280POPC   C1B 8887   6.677  27.128   8.797
  280POPC   C2B 8888   6.604  27.256   8.397
  280POPC   C3B 8889   6.604  27.034   8.006
  280POPC   C4B 8890   6.558  27.142   7.579
  281POPC   NC3 8891   6.575  22.614   9.512
  281POPC   PO4 8892   6.914  22.105   9.565
  281POPC   GL1 8893   6.592  22.161   9.247
  281POPC   GL2 8894   6.319  21.908   9.261
  281POPC   C1A 8895   6.639  22.236   8.816
  281POPC   D2A 8896   6.713  21.981   8.459
  281POPC   C3A 8897   6.807  22.185   8.086
  281POPC   C4A 8898   6.865  21.940   7.746
  281POPC   C1B 8899   6.145  22.093   8.884
  281POPC   C2B 8900   6.245  22.218   8.482
  281POPC   C3B 8901   6.301  22.027   8.082
  281POPC   C4B 8902   6.415  22.250   7.749
  282POPC   NC3 8903   3.767   0.479   9.507
  282POPC   PO4 8904   3.028   0.568   9.542
  282POPC   GL1 8905   3.351   0.694   9.247
  282POPC   GL2 8906   3.552   0.417   9.046
  282POPC   C1A 8907   3.459   0.871   8.861
  282POPC   D2A 8908   3.406   0.804   8.434
  282POPC   C3A 8909   3.312   0.484   8.181
  282POPC   C4A 8910   3.454   0.668   7.807
  282POPC   C1B 8911   3.757   0.474   8.618
  282POPC   C2B 8912   3.818   0.513   8.145
  282POPC   C3B 8913   3.954   0.459   7.691
  282POPC   C4B 8914   3.995   0.221   7.291
  283POPC   NC3 8915  14.742  18.585   9.524
  283POPC   PO4 8916  15.430  18.666   9.560
  283POPC   GL1 8917  15.278  18.380   9.259
  283POPC   GL2 8918  14.957  18.272   9.200
  283POPC   C1A 8919  15.332  18.321   8.847
  283POPC   D2A 8920  15.175  18.433   8.451
  283POPC   C3A 8921  15.174  18.101   8.159
  283POPC   C4A 8922  15.184  18.142   7.707
  283POPC   C1B 8923  14.798  18.383   8.803
  283POPC   C2B 8924  14.681  18.318   8.384
  283POPC   C3B 8925  14.867  18.474   8.030
  283POPC   C4B 8926  14.829  18.677   7.676
  284POPC   NC3 8927  20.965   7.192   9.472
  284POPC   PO4 8928  21.684   7.127   9.512
  284POPC   GL1 8929  21.501   7.266   9.152
  284POPC   GL2 8930  21.238   7.439   9.064
  284POPC   C1A 8931  21.652   7.413   8.751
  284POPC   D2A 8932  21.774   7.680   8.426
  284POPC   C3A 8933  21.640   7.521   8.011
  284POPC   C4A 8934  21.725   7.182   7.723
  284POPC   C1B 8935  21.210   7.068   8.797
  284POPC   C2B 8936  21.214   6.973   8.370
  284POPC   C3B 8937  21.162   7.317   8.051
  284POPC   C4B 8938  21.180   7.732   7.841
  285POPC   NC3 8939  10.609  42.897   9.541
  285POPC   PO4 8940  10.581  43.574   9.334
  285POPC   GL1 8941  10.685  43.218   9.141
  285POPC   GL2 8942  10.397  43.017   9.110
  285POPC   C1A 8943  10.670  43.195   8.723
  285POPC   D2A 8944  10.536  43.376   8.368
  285POPC   C3A 8945  10.778  43.247   8.030
  285POPC   C4A 8946  11.001  43.393   7.708
  285POPC   C1B 8947  10.295  42.813   8.743
  285POPC   C2B 8948  10.174  43.015   8.359
  285POPC   C3B 8949  10.271  43.207   7.969
  285POPC   C4B 8950  10.260  42.935   7.675
  286POPC   NC3 8951  10.843  40.259   9.559
  286POPC   PO4 8952  10.560  40.871   9.445
  286POPC   GL1 8953  10.641  40.700   9.048
  286POPC   GL2 8954  10.898  40.474   9.092
  286POPC   C1A 8955  10.674  40.943   8.673
  286POPC   D2A 8956  10.379  41.070   8.353
  286POPC   C3A 8957  10.354  40.806   8.006
  286POPC   C4A 8958  10.198  40.446   7.807
  286POPC   C1B 8959  10.831  40.406   8.632
  286POPC   C2B 8960  10.794  40.670   8.246
  286POPC   C3B 8961  10.799  40.650   7.775
  286POPC   C4B 8962  10.869  40.498   7.317
  287POPC   NC3 8963  18.430  10.114   9.557
  287POPC   PO4 8964  18.122  10.657   9.541
  287POPC   GL1 8965  18.345  10.589   9.144
  287POPC   GL2 8966  18.327  10.266   9.085
  287POPC   C1A 8967  18.268  10.717   8.701
  287POPC   D2A 8968  17.929  10.746   8.386
  287POPC   C3A 8969  18.101  10.833   7.976
  287POPC   C4A 8970  18.456  10.670   7.736
  287POPC   C1B 8971  18.373  10.221   8.657
  287POPC   C2B 8972  18.374  10.453   8.274
  287POPC   C3B 8973  18.254  10.253   7.941
  287POPC   C4B 8974  18.401  10.067   7.597
  288POPC   NC3 8975  33.342  26.321   9.404
  288POPC   PO4 8976  33.217  25.699   9.400
  288POPC   GL1 8977  33.161  25.972   9.058
  288POPC   GL2 8978  32.773  26.045   9.063
  288POPC   C1A 8979  33.245  25.872   8.632
  288POPC   D2A 8980  32.865  25.767   8.450
  288POPC   C3A 8981  32.783  26.027   8.161
  288POPC   C4A 8982  32.935  25.951   7.732
  288POPC   C1B 8983  32.886  26.216   8.665
  288POPC   C2B 8984  32.941  26.550   8.397
  288POPC   C3B 8985  33.009  26.430   7.944
  288POPC   C4B 8986  32.878  26.390   7.459
  289POPC   NC3 8987   6.236  39.250   9.834
  289POPC   PO4 8988   5.715  39.189   9.419
  289POPC   GL1 8989   5.653  39.191   9.019
  289POPC   GL2 8990   5.401  38.947   9.023
  289POPC   C1A 8991   5.830  39.383   8.665
  289POPC   D2A 8992   6.033  39.714   8.463
  289POPC   C3A 8993   5.995  39.608   8.062
  289POPC   C4A 8994   5.806  39.284   7.825
  289POPC   C1B 8995   5.438  39.040   8.582
  289POPC   C2B 8996   5.769  39.027   8.275
  289POPC   C3B 8997   5.463  38.928   7.948
  289POPC   C4B 8998   5.473  39.017   7.525
  290POPC   NC3 8999  38.587   6.725   9.646
  290POPC   PO4 9000  38.219   6.353   9.207
  290POPC   GL1 9001  38.514   6.525   8.971
  290POPC   GL2 9002  38.611   6.819   9.129
  290POPC   C1A 9003  38.595   6.719   8.569
  290POPC   D2A 9004  38.666   6.491   8.202
  290POPC   C3A 9005  38.427   6.528   7.857
  290POPC   C4A 9006  37.973   6.527   7.842
  290POPC   C1B 9007  38.784   7.119   8.845
  290POPC   C2B 9008  38.744   7.201   8.389
  290POPC   C3B 9009  38.649   6.995   8.003
  290POPC   C4B 9010  38.241   6.991   7.754
  291POPC   NC3 9011  37.346  16.946   9.788
  291POPC   PO4 9012  37.989  16.941   9.601
  291POPC   GL1 9013  37.712  16.931   9.195
  291POPC   GL2 9014  37.322  16.895   9.177
  291POPC   C1A 9015  37.704  16.823   8.721
  291POPC   D2A 9016  37.793  16.902   8.255
  291POPC   C3A 9017  37.789  16.591   7.905
  291POPC   C4A 9018  38.073  16.635   7.541
  291POPC   C1B 9019  37.235  17.032   8.760
  291POPC   C2B 9020  37.269  16.813   8.402
  291POPC   C3B 9021  37.359  16.868   7.970
  291POPC   C4B 9022  37.612  17.142   7.729
  292POPC   NC3 9023   7.761  18.580   9.342
  292POPC   PO4 9024   7.265  18.990   9.490
  292POPC   GL1 9025   7.297  19.090   9.114
  292POPC   GL2 9026   7.656  19.058   9.104
  292POPC   C1A 9027   7.099  19.167   8.747
  292POPC   D2A 9028   7.312  19.285   8.401
  292POPC   C3A 9029   7.162  19.235   7.990
  292POPC   C4A 9030   7.215  19.293   7.564
  292POPC   C1B 9031   7.590  18.962   8.679
  292POPC   C2B 9032   7.825  19.114   8.345
  292POPC   C3B 9033   7.881  19.110   7.911
  292POPC   C4B 9034   7.923  18.669   7.823
  293POPC   NC3 9035  35.811  39.556   9.218
  293POPC   PO4 9036  35.270  39.876   9.633
  293POPC   GL1 9037  35.267  39.951   9.157
  293POPC   GL2 9038  35.431  39.718   8.926
  293POPC   C1A 9039  35.494  40.232   8.809
  293POPC   D2A 9040  35.683  40.121   8.401
  293POPC   C3A 9041  35.495  40.060   7.996
  293POPC   C4A 9042  35.203  40.262   7.731
  293POPC   C1B 9043  35.094  39.942   8.686
  293POPC   C2B 9044  35.022  40.036   8.257
  293POPC   C3B 9045  35.027  39.816   7.917
  293POPC   C4B 9046  34.859  39.828   7.479
  294POPC   NC3 9047  35.600   5.197   9.512
  294POPC   PO4 9048  36.274   4.990   9.402
  294POPC   GL1 9049  35.985   5.098   9.144
  294POPC   GL2 9050  35.971   5.439   9.247
  294POPC   C1A 9051  35.966   5.002   8.714
  294POPC   D2A 9052  36.293   5.019   8.365
  294POPC   C3A 9053  36.111   4.981   7.943
  294POPC   C4A 9054  36.124   4.794   7.500
  294POPC   C1B 9055  36.002   5.504   8.788
  294POPC   C2B 9056  35.932   5.378   8.354
  294POPC   C3B 9057  35.914   5.465   7.902
  294POPC   C4B 9058  35.873   5.676   7.486
  295POPC   NC3 9059  27.295  41.133   9.510
  295POPC   PO4 9060  27.671  41.729   9.463
  295POPC   GL1 9061  27.494  41.762   9.095
  295POPC   GL2 9062  27.211  41.575   9.217
  295POPC   C1A 9063  27.778  41.690   8.746
  295POPC   D2A 9064  28.055  41.607   8.395
  295POPC   C3A 9065  27.915  41.636   7.973
  295POPC   C4A 9066  27.738  41.601   7.553
  295POPC   C1B 9067  27.326  41.407   8.800
  295POPC   C2B 9068  27.590  41.367   8.402
  295POPC   C3B 9069  27.428  41.463   7.952
  295POPC   C4B 9070  27.264  41.410   7.504
  296POPC   NC3 9071  19.105  25.115   9.912
  296POPC   PO4 9072  19.595  25.356   9.614
  296POPC   GL1 9073  19.291  25.369   9.239
  296POPC   GL2 9074  19.077  25.094   9.236
  296POPC   C1A 9075  19.100  25.392   8.796
  296POPC   D2A 9076  19.134  25.519   8.351
  296POPC   C3A 9077  18.887  25.280   8.016
  296POPC   C4A 9078  18.902  25.321   7.566
  296POPC   C1B 9079  18.987  24.874   8.862
  296POPC   C2B 9080  19.006  25.001   8.440
  296POPC   C3B 9081  19.182  24.853   8.051
  296POPC   C4B 9082  18.976  24.822   7.681
  297POPC   NC3 9083  18.787  13.424   9.301
  297POPC   PO4 9084  19.125  12.813   9.552
  297POPC   GL1 9085  19.179  12.900   9.151
  297POPC   GL2 9086  18.841  12.944   9.107
  297POPC   C1A 9087  19.139  12.642   8.790
  297POPC   D2A 9088  18.976  12.606   8.385
  297POPC   C3A 9089  19.231  12.895   8.145
  297POPC   C4A 9090  19.271  12.904   7.694
  297POPC   C1B 9091  18.967  13.146   8.711
  297POPC   C2B 9092  18.739  13.165   8.324
  297POPC   C3B 9093  18.791  13.054   7.905
  297POPC   C4B 9094  18.848  13.328   7.570
  298POPC   NC3 9095  33.224  16.349   9.481
  298POPC   PO4 9096  32.738  15.875   9.504
  298POPC   GL1 9097  33.090  15.857   9.190
  298POPC   GL2 9098  33.156  15.504   9.066
  298POPC   C1A 9099  33.281  15.823   8.711
  298POPC   D2A 9100  33.594  15.993   8.428
  298POPC   C3A 9101  33.460  16.073   8.023
  298POPC   C4A 9102  33.291  15.811   7.726
  298POPC   C1B 9103  32.783  15.690   8.843
  298POPC   C2B 9104  32.687  15.700   8.427
  298POPC   C3B 9105  32.955  15.806   8.121
  298POPC   C4B 9106  32.784  15.964   7.779
  299POPC   NC3 9107   7.146  13.483   9.534
  299POPC   PO4 9108   7.705  13.589   9.524
  299POPC   GL1 9109   7.465  13.759   9.214
  299POPC   GL2 9110   7.700  14.049   9.178
  299POPC   C1A 9111   7.248  13.786   8.807
  299POPC   D2A 9112   7.242  13.946   8.368
  299POPC   C3A 9113   7.245  13.624   8.017
  299POPC   C4A 9114   7.495  13.485   7.699
  299POPC   C1B 9115   7.778  13.767   8.822
  299POPC   C2B 9116   7.636  13.608   8.433
  299POPC   C3B 9117   7.692  13.851   8.081
  299POPC   C4B 9118   7.867  13.830   7.666
  300POPC   NC3 9119  13.393  18.479   9.881
  300POPC   PO4 9120  12.956  18.240   9.419
  300POPC   GL1 9121  12.770  18.345   9.068
  300POPC   GL2 9122  12.423  18.477   9.107
  300POPC   C1A 9123  12.795  18.419   8.656
  300POPC   D2A 9124  12.885  18.543   8.304
  300POPC   C3A 9125  12.800  18.323   7.968
  300POPC   C4A 9126  13.017  18.392   7.618
  300POPC   C1B 9127  12.389  18.158   8.786
  300POPC   C2B 9128  12.555  18.065   8.350
  300POPC   C3B 9129  12.578  17.871   7.916
  300POPC   C4B 9130  12.616  18.092   7.522
  301POPC   NC3 9131   4.711   5.682   9.768
  301POPC   PO4 9132   4.188   5.781   9.656
  301POPC   GL1 9133   4.101   5.973   9.236
  301POPC   GL2 9134   4.100   5.666   9.046
  301POPC   C1A 9135   3.950   6.142   8.842
  301POPC   D2A 9136   4.180   6.050   8.438
  301POPC   C3A 9137   4.216   6.179   8.003
  301POPC   C4A 9138   4.376   6.105   7.587
  301POPC   C1B 9139   3.874   5.685   8.621
  301POPC   C2B 9140   3.882   5.726   8.152
  301POPC   C3B 9141   4.192   5.673   7.805
  301POPC   C4B 9142   4.100   5.733   7.350
  302POPC   NC3 9143  28.155  41.812   9.496
  302POPC   PO4 9144  28.495  41.211   9.637
  302POPC   GL1 9145  28.363  41.410   9.219
  302POPC   GL2 9146  28.025  41.319   9.095
  302POPC   C1A 9147  28.301  41.733   8.845
  302POPC   D2A 9148  28.413  41.963   8.446
  302POPC   C3A 9149  28.421  41.852   8.005
  302POPC   C4A 9150  28.248  41.718   7.592
  302POPC   C1B 9151  28.338  41.226   8.740
  302POPC   C2B 9152  28.387  41.227   8.297
  302POPC   C3B 9153  28.502  41.342   7.905
  302POPC   C4B 9154  28.878  41.187   7.744
  303POPC   NC3 9155  41.071   9.317   9.458
  303POPC   PO4 9156  40.653   8.730   9.446
  303POPC   GL1 9157  40.721   9.034   9.151
  303POPC   GL2 9158  41.055   8.885   9.114
  303POPC   C1A 9159  40.606   8.992   8.713
  303POPC   D2A 9160  40.628   8.663   8.405
  303POPC   C3A 9161  40.684   8.818   8.012
  303POPC   C4A 9162  40.452   9.174   7.862
  303POPC   C1B 9163  41.089   9.153   8.799
  303POPC   C2B 9164  41.061   8.962   8.395
  303POPC   C3B 9165  41.056   9.187   8.036
  303POPC   C4B 9166  41.162   9.130   7.638
  304POPC   NC3 9167  35.008  35.679   9.780
  304POPC   PO4 9168  35.168  35.044   9.458
  304POPC   GL1 9169  35.366  35.244   9.046
  304POPC   GL2 9170  35.632  35.506   9.070
  304POPC   C1A 9171  35.221  35.196   8.625
  304POPC   D2A 9172  35.348  34.988   8.249
  304POPC   C3A 9173  35.261  35.304   7.922
  304POPC   C4A 9174  34.946  35.626   7.932
  304POPC   C1B 9175  35.519  35.670   8.703
  304POPC   C2B 9176  35.345  35.621   8.313
  304POPC   C3B 9177  35.628  35.684   7.938
  304POPC   C4B 9178  35.597  35.576   7.483
  305POPC   NC3 9179   4.759   1.387  10.208
  305POPC   PO4 9180   5.089   1.147   9.615
  305POPC   GL1 9181   5.172   1.166   9.192
  305POPC   GL2 9182   5.482   1.003   9.172
  305POPC   C1A 9183   5.002   1.238   8.782
  305POPC   D2A 9184   4.895   1.457   8.387
  305POPC   C3A 9185   4.981   1.133   8.114
  305POPC   C4A 9186   4.972   0.976   7.707
  305POPC   C1B 9187   5.589   0.910   8.718
  305POPC   C2B 9188   5.472   1.029   8.295
  305POPC   C3B 9189   5.465   1.015   7.837
  305POPC   C4B 9190   5.431   0.790   7.414
  306POPC   NC3 9191  23.693  19.687   9.549
  306POPC   PO4 9192  23.995  20.327   9.459
  306POPC   GL1 9193  23.753  20.066   9.180
  306POPC   GL2 9194  23.988  19.830   9.127
  306POPC   C1A 9195  23.637  19.916   8.746
  306POPC   D2A 9196  23.824  19.692   8.402
  306POPC   C3A 9197  23.584  19.615   7.979
  306POPC   C4A 9198  23.406  19.853   7.642
  306POPC   C1B 9199  24.165  20.020   8.783
  306POPC   C2B 9200  24.238  19.980   8.357
  306POPC   C3B 9201  24.129  20.200   7.999
  306POPC   C4B 9202  23.897  19.974   7.725
  307POPC   NC3 9203  11.092  34.519   9.418
  307POPC   PO4 9204  10.412  34.417   9.545
  307POPC   GL1 9205  10.385  34.460   9.139
  307POPC   GL2 9206  10.679  34.578   9.094
  307POPC   C1A 9207  10.419  34.488   8.680
  307POPC   D2A 9208  10.251  34.781   8.413
  307POPC   C3A 9209  10.244  34.544   8.089
  307POPC   C4A 9210  10.308  34.550   7.695
  307POPC   C1B 9211  10.595  34.947   8.804
  307POPC   C2B 9212  10.760  34.940   8.446
  307POPC   C3B 9213  10.766  34.598   8.193
  307POPC   C4B 9214  10.823  34.621   7.747
  308POPC   NC3 9215  31.071   1.472   9.584
  308POPC   PO4 9216  30.513   1.690   9.703
  308POPC   GL1 9217  30.704   1.722   9.247
  308POPC   GL2 9218  31.090   1.723   9.125
  308POPC   C1A 9219  30.530   1.798   8.802
  308POPC   D2A 9220  30.644   1.728   8.345
  308POPC   C3A 9221  30.572   2.083   8.067
  308POPC   C4A 9222  30.737   2.294   7.722
  308POPC   C1B 9223  31.033   1.874   8.671
  308POPC   C2B 9224  31.095   1.979   8.210
  308POPC   C3B 9225  30.962   1.825   7.793
  308POPC   C4B 9226  30.930   1.969   7.343
  309POPC   NC3 9227   3.039  22.031   9.407
  309POPC   PO4 9228   3.792  21.986   9.433
  309POPC   GL1 9229   3.627  22.171   9.093
  309POPC   GL2 9230   3.297  22.286   9.034
  309POPC   C1A 9231   3.499  21.950   8.711
  309POPC   D2A 9232   3.703  22.049   8.349
  309POPC   C3A 9233   3.509  22.037   7.978
  309POPC   C4A 9234   3.670  22.217   7.633
  309POPC   C1B 9235   3.132  22.675   8.823
  309POPC   C2B 9236   2.939  22.667   8.436
  309POPC   C3B 9237   2.966  22.439   8.074
  309POPC   C4B 9238   3.168  22.330   7.717
  310POPC   NC3 9239  33.118  44.775   9.823
  310POPC   PO4 9240  32.850  44.372   9.322
  310POPC   GL1 9241  32.904  44.634   9.026
  310POPC   GL2 9242  33.245  44.712   9.193
  310POPC   C1A 9243  32.763  44.878   8.683
  310POPC   D2A 9244  32.996   0.035   8.333
  310POPC   C3A 9245  32.900  44.749   8.020
  310POPC   C4A 9246  32.567  44.732   7.773
  310POPC   C1B 9247  33.280  44.417   8.815
  310POPC   C2B 9248  33.109  44.522   8.458
  310POPC   C3B 9249  33.399  44.736   8.191
  310POPC   C4B 9250  33.308  44.953   7.813
  311POPC   NC3 9251   1.035  11.838   9.455
  311POPC   PO4 9252   1.496  12.202   9.537
  311POPC   GL1 9253   1.250  12.249   9.194
  311POPC   GL2 9254   1.341  11.919   9.058
  311POPC   C1A 9255   1.246  12.336   8.766
  311POPC   D2A 9256   1.188  12.084   8.398
  311POPC   C3A 9257   1.171  12.294   7.974
  311POPC   C4A 9258   1.042  12.366   7.581
  311POPC   C1B 9259   1.356  11.637   8.704
  311POPC   C2B 9260   1.207  11.529   8.304
  311POPC   C3B 9261   1.250  11.780   7.994
  311POPC   C4B 9262   1.224  11.859   7.595
  312POPC   NC3 9263  19.801  40.387   9.489
  312POPC   PO4 9264  19.600  41.027   9.434
  312POPC   GL1 9265  19.712  40.723   9.131
  312POPC   GL2 9266  20.042  40.820   9.244
  312POPC   C1A 9267  19.848  40.498   8.737
  312POPC   D2A 9268  19.937  40.335   8.297
  312POPC   C3A 9269  19.842  40.568   7.912
  312POPC   C4A 9270  19.773  40.753   7.488
  312POPC   C1B 9271  19.996  40.993   8.815
  312POPC   C2B 9272  19.947  40.861   8.370
  312POPC   C3B 9273  19.766  41.073   7.999
  312POPC   C4B 9274  19.947  41.217   7.635
  313POPC   NC3 9275   7.676  41.454   9.554
  313POPC   PO4 9276   6.989  41.676   9.524
  313POPC   GL1 9277   7.284  41.602   9.215
  313POPC   GL2 9278   7.563  41.854   9.242
  313POPC   C1A 9279   7.415  41.397   8.841
  313POPC   D2A 9280   7.190  41.328   8.460
  313POPC   C3A 9281   7.458  41.429   8.087
  313POPC   C4A 9282   7.361  41.480   7.655
  313POPC   C1B 9283   7.453  41.916   8.809
  313POPC   C2B 9284   7.291  41.846   8.383
  313POPC   C3B 9285   7.314  41.906   7.945
  313POPC   C4B 9286   7.664  41.910   7.647
  314POPC   NC3 9287  13.751  17.053   9.361
  314POPC   PO4 9288  13.426  16.583   9.515
  314POPC   GL1 9289  13.605  16.603   9.118
  314POPC   GL2 9290  13.969  16.494   9.192
  314POPC   C1A 9291  13.489  16.720   8.657
  314POPC   D2A 9292  13.439  16.474   8.261
  314POPC   C3A 9293  13.670  16.446   7.869
  314POPC   C4A 9294  13.544  16.786   7.611
  314POPC   C1B 9295  13.974  16.755   8.825
  314POPC   C2B 9296  13.918  16.988   8.469
  314POPC   C3B 9297  13.800  16.902   8.055
  314POPC   C4B 9298  13.963  17.110   7.670
  315POPC   NC3 9299  23.691  13.235   9.664
  315POPC   PO4 9300  24.039  13.761   9.812
  315POPC   GL1 9301  23.793  13.727   9.374
  315POPC   GL2 9302  23.515  13.499   9.271
  315POPC   C1A 9303  23.727  13.762   8.896
  315POPC   D2A 9304  23.765  13.830   8.452
  315POPC   C3A 9305  23.476  13.918   8.135
  315POPC   C4A 9306  23.403  13.608   7.838
  315POPC   C1B 9307  23.782  13.256   8.954
  315POPC   C2B 9308  23.816  13.335   8.515
  315POPC   C3B 9309  23.740  13.290   8.080
  315POPC   C4B 9310  23.927  12.993   7.802
  316POPC   NC3 9311  13.916  20.199   9.488
  316POPC   PO4 9312  14.560  20.562   9.425
  316POPC   GL1 9313  14.390  20.667   9.037
  316POPC   GL2 9314  14.119  20.405   9.006
  316POPC   C1A 9315  14.369  20.622   8.580
  316POPC   D2A 9316  14.384  20.257   8.306
  316POPC   C3A 9317  14.735  20.269   8.054
  316POPC   C4A 9318  14.673  20.717   7.923
  316POPC   C1B 9319  13.945  20.804   8.832
  316POPC   C2B 9320  14.072  21.066   8.494
  316POPC   C3B 9321  14.219  20.924   8.115
  316POPC   C4B 9322  14.093  20.755   7.714
  317POPC   NC3 9323  27.903  36.584   9.389
  317POPC   PO4 9324  28.335  37.034   9.828
  317POPC   GL1 9325  28.320  37.080   9.363
  317POPC   GL2 9326  28.365  36.778   9.125
  317POPC   C1A 9327  28.322  37.209   8.891
  317POPC   D2A 9328  28.478  36.938   8.565
  317POPC   C3A 9329  28.430  37.021   8.133
  317POPC   C4A 9330  28.437  36.986   7.683
  317POPC   C1B 9331  28.171  36.575   8.771
  317POPC   C2B 9332  28.066  36.667   8.355
  317POPC   C3B 9333  28.176  36.605   7.922
  317POPC   C4B 9334  28.131  36.515   7.452
  318POPC   NC3 9335  38.837  32.124   9.660
  318POPC   PO4 9336  38.934  32.702   9.407
  318POPC   GL1 9337  39.008  32.311   9.177
  318POPC   GL2 9338  38.891  31.963   9.191
  318POPC   C1A 9339  39.234  32.375   8.798
  318POPC   D2A 9340  39.141  32.547   8.399
  318POPC   C3A 9341  39.123  32.259   8.062
  318POPC   C4A 9342  38.838  32.201   7.740
  318POPC   C1B 9343  39.095  31.895   8.782
  318POPC   C2B 9344  39.235  31.809   8.317
  318POPC   C3B 9345  39.156  31.801   7.835
  318POPC   C4B 9346  38.973  31.894   7.366
  319POPC   NC3 9347  11.673  32.935   9.532
  319POPC   PO4 9348  11.139  33.199   9.869
  319POPC   GL1 9349  11.157  33.165   9.332
  319POPC   GL2 9350  11.431  33.116   9.093
  319POPC   C1A 9351  10.980  33.051   8.859
  319POPC   D2A 9352  11.230  33.116   8.422
  319POPC   C3A 9353  11.207  32.855   8.046
  319POPC   C4A 9354  10.999  32.860   7.664
  319POPC   C1B 9355  11.390  32.769   8.750
  319POPC   C2B 9356  11.601  32.711   8.359
  319POPC   C3B 9357  11.601  32.548   7.933
  319POPC   C4B 9358  11.472  32.711   7.528
  320POPC   NC3 9359  34.713  27.743   9.460
  320POPC   PO4 9360  34.186  27.361   9.428
  320POPC   GL1 9361  34.449  27.479   9.104
  320POPC   GL2 9362  34.430  27.153   9.012
  320POPC   C1A 9363  34.700  27.755   8.807
  320POPC   D2A 9364  34.610  27.901   8.384
  320POPC   C3A 9365  34.795  27.687   7.998
  320POPC   C4A 9366  34.618  27.705   7.590
  320POPC   C1B 9367  34.531  27.315   8.618
  320POPC   C2B 9368  34.577  27.281   8.211
  320POPC   C3B 9369  34.283  27.260   7.922
  320POPC   C4B 9370  34.307  27.297   7.495
  321POPC   NC3 9371  10.183  43.548   9.572
  321POPC   PO4 9372   9.544  43.850   9.504
  321POPC   GL1 9373   9.599  44.051   9.139
  321POPC   GL2 9374   9.960  44.051   9.222
  321POPC   C1A 9375   9.388  43.982   8.748
  321POPC   D2A 9376   9.374  43.654   8.435
  321POPC   C3A 9377   9.608  43.810   8.075
  321POPC   C4A 9378   9.723  43.693   7.674
  321POPC   C1B 9379   9.921  43.771   8.856
  321POPC   C2B 9380  10.198  43.744   8.502
  321POPC   C3B 9381  10.125  43.707   8.072
  321POPC   C4B 9382  10.183  43.985   7.764
  322POPC   NC3 9383  42.274  15.273  10.000
  322POPC   PO4 9384  42.421  14.837   9.687
  322POPC   GL1 9385  42.453  15.036   9.229
  322POPC   GL2 9386  42.135  15.224   9.115
  322POPC   C1A 9387  42.436  15.088   8.736
  322POPC   D2A 9388  42.310  15.280   8.331
  322POPC   C3A 9389  42.431  15.112   7.932
  322POPC   C4A 9390  42.558  15.166   7.500
  322POPC   C1B 9391  42.009  15.452   8.706
  322POPC   C2B 9392  42.032  15.703   8.289
  322POPC   C3B 9393  42.208  15.582   7.888
  322POPC   C4B 9394  42.064  15.308   7.555
  323POPC   NC3 9395  38.218  17.355   9.704
  323POPC   PO4 9396  38.801  17.512   9.722
  323POPC   GL1 9397  38.527  17.477   9.302
  323POPC   GL2 9398  38.274  17.204   9.197
  323POPC   C1A 9399  38.433  17.578   8.837
  323POPC   D2A 9400  38.191  17.717   8.444
  323POPC   C3A 9401  38.393  17.746   8.013
  323POPC   C4A 9402  38.460  17.436   7.701
  323POPC   C1B 9403  38.100  17.205   8.711
  323POPC   C2B 9404  38.220  17.222   8.250
  323POPC   C3B 9405  38.110  17.075   7.822
  323POPC   C4B 9406  38.303  17.073   7.380
  324POPC   NC3 9407  12.311  17.291   9.514
  324POPC   PO4 9408  11.969  17.914   9.542
  324POPC   GL1 9409  12.026  17.719   9.107
  324POPC   GL2 9410  12.113  17.370   9.043
  324POPC   C1A 9411  12.192  17.710   8.662
  324POPC   D2A 9412  12.525  17.569   8.398
  324POPC   C3A 9413  12.304  17.385   8.094
  324POPC   C4A 9414  12.093  17.541   7.748
  324POPC   C1B 9415  12.275  17.172   8.653
  324POPC   C2B 9416  12.631  17.061   8.387
  324POPC   C3B 9417  12.613  16.977   7.957
  324POPC   C4B 9418  12.270  17.056   7.675
  325POPC   NC3 9419  32.457  19.671   9.385
  325POPC   PO4 9420  31.964  20.241   9.446
  325POPC   GL1 9421  32.104  19.985   9.160
  325POPC   GL2 9422  32.412  20.105   9.116
  325POPC   C1A 9423  32.116  19.752   8.781
  325POPC   D2A 9424  32.035  19.531   8.385
  325POPC   C3A 9425  32.111  19.758   8.019
  325POPC   C4A 9426  32.380  19.693   7.699
  325POPC   C1B 9427  32.634  19.885   8.796
  325POPC   C2B 9428  32.449  19.913   8.394
  325POPC   C3B 9429  32.605  20.013   8.016
  325POPC   C4B 9430  32.576  20.157   7.616
  326POPC   NC3 9431   3.698  30.187   9.543
  326POPC   PO4 9432   3.658  29.550   9.645
  326POPC   GL1 9433   3.531  29.763   9.266
  326POPC   GL2 9434   3.857  29.881   9.119
  326POPC   C1A 9435   3.444  30.015   8.873
  326POPC   D2A 9436   3.738  30.009   8.522
  326POPC   C3A 9437   3.689  30.222   8.147
  326POPC   C4A 9438   3.780  30.165   7.728
  326POPC   C1B 9439   3.716  29.576   8.821
  326POPC   C2B 9440   3.799  29.492   8.389
  326POPC   C3B 9441   3.760  29.734   8.027
  326POPC   C4B 9442   3.367  29.931   7.870
  327POPC   NC3 9443  21.510  30.998   9.296
  327POPC   PO4 9444  20.849  30.961   9.393
  327POPC   GL1 9445  21.017  30.727   9.039
  327POPC   GL2 9446  21.335  30.536   9.109
  327POPC   C1A 9447  21.101  30.799   8.613
  327POPC   D2A 9448  20.997  30.934   8.178
  327POPC   C3A 9449  21.356  31.036   7.876
  327POPC   C4A 9450  21.519  30.877   7.472
  327POPC   C1B 9451  21.599  30.635   8.734
  327POPC   C2B 9452  21.499  30.755   8.306
  327POPC   C3B 9453  21.377  30.489   7.986
  327POPC   C4B 9454  21.681  30.188   7.821
  328POPC   NC3 9455  30.375  34.175   9.504
  328POPC   PO4 9456  30.940  33.765   9.490
  328POPC   GL1 9457  30.721  33.769   9.141
  328POPC   GL2 9458  30.947  33.442   9.071
  328POPC   C1A 9459  30.755  34.010   8.743
  328POPC   D2A 9460  30.928  33.926   8.306
  328POPC   C3A 9461  30.643  33.953   7.913
  328POPC   C4A 9462  30.289  34.101   7.659
  328POPC   C1B 9463  30.689  33.510   8.714
  328POPC   C2B 9464  30.541  33.577   8.332
  328POPC   C3B 9465  30.822  33.492   8.007
  328POPC   C4B 9466  30.693  33.525   7.572
  329POPC   NC3 9467  20.582  15.313   9.488
  329POPC   PO4 9468  20.601  14.665   9.442
  329POPC   GL1 9469  20.679  14.945   9.100
  329POPC   GL2 9470  20.365  15.120   9.042
  329POPC   C1A 9471  20.767  15.105   8.684
  329POPC   D2A 9472  20.873  15.424   8.409
  329POPC   C3A 9473  20.818  15.316   8.014
  329POPC   C4A 9474  20.937  14.942   7.835
  329POPC   C1B 9475  20.285  14.947   8.618
  329POPC   C2B 9476  20.457  14.896   8.179
  329POPC   C3B 9477  20.398  15.155   7.790
  329POPC   C4B 9478  20.374  15.511   7.473
  330POPC   NC3 9479  28.228  21.039   9.631
  330POPC   PO4 9480  28.320  21.706   9.598
  330POPC   GL1 9481  28.169  21.427   9.278
  330POPC   GL2 9482  27.847  21.480   9.164
  330POPC   C1A 9483  28.254  21.225   8.893
  330POPC   D2A 9484  28.471  21.212   8.524
  330POPC   C3A 9485  28.344  21.183   8.113
  330POPC   C4A 9486  28.506  21.349   7.788
  330POPC   C1B 9487  27.973  21.628   8.784
  330POPC   C2B 9488  28.021  21.495   8.364
  330POPC   C3B 9489  28.058  21.630   7.927
  330POPC   C4B 9490  28.100  21.635   7.444
  331POPC   NC3 9491  41.201   4.069   9.430
  331POPC   PO4 9492  41.738   4.484   9.602
  331POPC   GL1 9493  41.760   4.510   9.168
  331POPC   GL2 9494  41.415   4.411   9.069
  331POPC   C1A 9495  41.840   4.442   8.721
  331POPC   D2A 9496  41.576   4.261   8.383
  331POPC   C3A 9497  41.510   4.428   7.955
  331POPC   C4A 9498  41.570   4.138   7.597
  331POPC   C1B 9499  41.171   4.220   8.727
  331POPC   C2B 9500  41.070   4.292   8.278
  331POPC   C3B 9501  41.248   3.996   7.990
  331POPC   C4B 9502  41.208   3.776   7.628
  332POPC   NC3 9503   0.669  39.008   9.598
  332POPC   PO4 9504   0.061  39.256   9.516
  332POPC   GL1 9505   0.305  39.008   9.161
  332POPC   GL2 9506   0.640  39.151   9.124
  332POPC   C1A 9507   0.480  39.012   8.688
  332POPC   D2A 9508   0.707  39.201   8.354
  332POPC   C3A 9509   0.451  39.286   8.032
  332POPC   C4A 9510   0.466  39.104   7.685
  332POPC   C1B 9511   0.587  39.487   8.816
  332POPC   C2B 9512   0.644  39.717   8.429
  332POPC   C3B 9513   0.826  39.638   7.984
  332POPC   C4B 9514   0.774  39.470   7.533
  333POPC   NC3 9515  10.114  15.245   9.753
  333POPC   PO4 9516   9.474  15.207   9.519
  333POPC   GL1 9517   9.532  15.132   9.139
  333POPC   GL2 9518   9.299  14.851   9.170
  333POPC   C1A 9519   9.674  15.316   8.774
  333POPC   D2A 9520   9.766  15.491   8.427
  333POPC   C3A 9521   9.920  15.257   8.082
  333POPC   C4A 9522   9.944  15.253   7.639
  333POPC   C1B 9523   9.395  14.885   8.734
  333POPC   C2B 9524   9.595  14.985   8.372
  333POPC   C3B 9525   9.505  14.847   7.999
  333POPC   C4B 9526   9.444  15.076   7.640
  334POPC   NC3 9527  13.775  37.337   9.635
  334POPC   PO4 9528  13.508  36.735   9.474
  334POPC   GL1 9529  13.501  37.100   9.201
  334POPC   GL2 9530  13.867  37.065   9.182
  334POPC   C1A 9531  13.579  37.266   8.767
  334POPC   D2A 9532  13.871  37.097   8.452
  334POPC   C3A 9533  13.758  37.260   8.067
  334POPC   C4A 9534  13.545  37.082   7.747
  334POPC   C1B 9535  13.716  36.768   8.851
  334POPC   C2B 9536  13.574  36.678   8.464
  334POPC   C3B 9537  13.604  36.675   8.050
  334POPC   C4B 9538  13.284  36.551   7.826
  335POPC   NC3 9539   8.074  29.433   9.523
  335POPC   PO4 9540   8.076  28.744   9.411
  335POPC   GL1 9541   8.219  29.089   9.141
  335POPC   GL2 9542   7.984  29.418   9.043
  335POPC   C1A 9543   8.401  28.931   8.753
  335POPC   D2A 9544   8.280  28.710   8.400
  335POPC   C3A 9545   8.214  28.936   8.053
  335POPC   C4A 9546   8.139  28.888   7.692
  335POPC   C1B 9547   8.284  29.418   8.757
  335POPC   C2B 9548   8.258  29.300   8.380
  335POPC   C3B 9549   8.100  29.435   8.004
  335POPC   C4B 9550   7.921  29.367   7.602
  336POPC   NC3 9551   6.759  21.685   9.457
  336POPC   PO4 9552   6.348  21.198   9.568
  336POPC   GL1 9553   6.563  21.292   9.162
  336POPC   GL2 9554   6.933  21.273   9.151
  336POPC   C1A 9555   6.443  21.277   8.716
  336POPC   D2A 9556   6.531  21.008   8.334
  336POPC   C3A 9557   6.369  21.239   7.946
  336POPC   C4A 9558   6.463  21.633   7.701
  336POPC   C1B 9559   6.869  21.568   8.800
  336POPC   C2B 9560   6.856  21.436   8.362
  336POPC   C3B 9561   6.863  21.417   7.909
  336POPC   C4B 9562   6.953  21.524   7.481
  337POPC   NC3 9563  14.669  10.772   9.585
  337POPC   PO4 9564  14.027  10.753   9.413
  337POPC   GL1 9565  14.221  10.538   9.125
  337POPC   GL2 9566  14.493  10.753   9.099
  337POPC   C1A 9567  14.161  10.601   8.705
  337POPC   D2A 9568  14.313  10.776   8.352
  337POPC   C3A 9569  14.349  10.610   7.960
  337POPC   C4A 9570  14.587  10.606   7.607
  337POPC   C1B 9571  14.709  10.758   8.708
  337POPC   C2B 9572  14.761  10.516   8.319
  337POPC   C3B 9573  14.699  10.243   7.962
  337POPC   C4B 9574  14.854  10.183   7.553
  338POPC   NC3 9575  19.704   6.177   9.584
  338POPC   PO4 9576  20.322   6.021   9.582
  338POPC   GL1 9577  20.053   5.864   9.219
  338POPC   GL2 9578  19.692   5.876   9.167
  338POPC   C1A 9579  19.995   5.653   8.798
  338POPC   D2A 9580  19.738   5.732   8.402
  338POPC   C3A 9581  19.943   5.751   7.978
  338POPC   C4A 9582  19.800   5.923   7.540
  338POPC   C1B 9583  19.833   6.127   8.777
  338POPC   C2B 9584  20.009   6.157   8.332
  338POPC   C3B 9585  19.782   6.234   7.941
  338POPC   C4B 9586  19.742   6.461   7.555
  339POPC   NC3 9587  12.271  41.775   9.390
  339POPC   PO4 9588  11.890  41.210   9.461
  339POPC   GL1 9589  12.116  41.361   9.109
  339POPC   GL2 9590  11.921  41.665   9.021
  339POPC   C1A 9591  12.331  41.535   8.740
  339POPC   D2A 9592  12.293  41.732   8.332
  339POPC   C3A 9593  11.948  41.509   8.156
  339POPC   C4A 9594  12.053  41.206   7.864
  339POPC   C1B 9595  11.906  41.976   8.682
  339POPC   C2B 9596  11.847  42.038   8.243
  339POPC   C3B 9597  12.067  41.905   7.866
  339POPC   C4B 9598  11.892  41.879   7.442
  340POPC   NC3 9599  19.114   2.025   9.488
  340POPC   PO4 9600  19.494   1.613   9.139
  340POPC   GL1 9601  19.120   1.887   8.988
  340POPC   GL2 9602  19.086   2.271   9.058
  340POPC   C1A 9603  19.124   2.117   8.594
  340POPC   D2A 9604  19.154   2.198   8.194
  340POPC   C3A 9605  19.388   1.943   7.995
  340POPC   C4A 9606  19.374   1.751   7.632
  340POPC   C1B 9607  18.705   2.192   8.863
  340POPC   C2B 9608  18.663   2.009   8.411
  340POPC   C3B 9609  18.682   2.162   7.992
  340POPC   C4B 9610  19.001   2.110   7.696
  341POPC   NC3 9611   1.128   2.640   9.524
  341POPC   PO4 9612   1.706   2.250   9.717
  341POPC   GL1 9613   1.631   2.459   9.269
  341POPC   GL2 9614   1.449   2.786   9.154
  341POPC   C1A 9615   1.578   2.487   8.776
  341POPC   D2A 9616   1.243   2.547   8.444
  341POPC   C3A 9617   1.322   2.650   7.995
  341POPC   C4A 9618   1.066   2.451   7.645
  341POPC   C1B 9619   1.058   2.767   8.880
  341POPC   C2B 9620   0.756   2.771   8.515
  341POPC   C3B 9621   0.812   2.706   8.056
  341POPC   C4B 9622   0.985   2.952   7.696
  342POPC   NC3 9623  36.651  31.109   9.331
  342POPC   PO4 9624  36.925  30.411   9.490
  342POPC   GL1 9625  36.744  30.559   9.139
  342POPC   GL2 9626  36.690  30.208   9.076
  342POPC   C1A 9627  36.816  30.821   8.766
  342POPC   D2A 9628  37.197  30.946   8.513
  342POPC   C3A 9629  37.118  30.951   8.067
  342POPC   C4A 9630  37.141  30.849   7.651
  342POPC   C1B 9631  36.619  30.357   8.678
  342POPC   C2B 9632  36.785  30.378   8.297
  342POPC   C3B 9633  36.662  30.721   8.085
  342POPC   C4B 9634  36.590  30.797   7.668
  343POPC   NC3 9635   0.959  30.909   9.540
  343POPC   PO4 9636   1.486  30.427   9.525
  343POPC   GL1 9637   1.301  30.672   9.216
  343POPC   GL2 9638   0.980  30.530   9.185
  343POPC   C1A 9639   1.230  30.875   8.816
  343POPC   D2A 9640   1.369  30.721   8.384
  343POPC   C3A 9641   1.224  30.881   7.971
  343POPC   C4A 9642   1.368  30.695   7.593
  343POPC   C1B 9643   0.912  30.489   8.775
  343POPC   C2B 9644   0.858  30.758   8.438
  343POPC   C3B 9645   0.918  30.519   8.118
  343POPC   C4B 9646   0.924  30.498   7.700
  344POPC   NC3 9647  18.962  31.875   9.503
  344POPC   PO4 9648  18.754  31.260   9.554
  344POPC   GL1 9649  18.999  31.311   9.172
  344POPC   GL2 9650  19.216  31.576   9.193
  344POPC   C1A 9651  18.916  31.591   8.787
  344POPC   D2A 9652  18.929  31.753   8.388
  344POPC   C3A 9653  18.964  31.510   8.049
  344POPC   C4A 9654  19.122  31.159   7.834
  344POPC   C1B 9655  19.395  31.511   8.769
  344POPC   C2B 9656  19.352  31.371   8.379
  344POPC   C3B 9657  19.505  31.473   7.996
  344POPC   C4B 9658  19.259  31.621   7.661
  345POPC   NC3 9659  38.626  23.132   9.526
  345POPC   PO4 9660  38.343  22.522   9.792
  345POPC   GL1 9661  38.362  22.719   9.371
  345POPC   GL2 9662  38.245  22.443   9.250
  345POPC   C1A 9663  38.329  22.957   8.921
  345POPC   D2A 9664  38.517  23.095   8.508
  345POPC   C3A 9665  38.304  23.143   8.087
  345POPC   C4A 9666  38.350  23.003   7.650
  345POPC   C1B 9667  38.533  22.508   8.916
  345POPC   C2B 9668  38.377  22.598   8.480
  345POPC   C3B 9669  38.556  22.685   8.071
  345POPC   C4B 9670  38.911  22.625   7.784
  346POPC   NC3 9671  36.834  28.811   9.617
  346POPC   PO4 9672  36.814  28.113   9.593
  346POPC   GL1 9673  36.927  28.364   9.259
  346POPC   GL2 9674  36.924  28.100   9.025
  346POPC   C1A 9675  36.988  28.681   8.957
  346POPC   D2A 9676  37.100  28.686   8.521
  346POPC   C3A 9677  36.891  28.464   8.212
  346POPC   C4A 9678  36.892  28.512   7.782
  346POPC   C1B 9679  37.127  28.190   8.642
  346POPC   C2B 9680  37.389  28.319   8.319
  346POPC   C3B 9681  37.334  28.285   7.910
  346POPC   C4B 9682  37.276  28.272   7.452
  347POPC   NC3 9683  38.067  18.336   9.827
  347POPC   PO4 9684  38.348  18.911   9.592
  347POPC   GL1 9685  38.258  18.917   9.161
  347POPC   GL2 9686  38.599  18.880   9.002
  347POPC   C1A 9687  38.170  19.024   8.723
  347POPC   D2A 9688  38.363  19.221   8.383
  347POPC   C3A 9689  38.290  19.168   7.945
  347POPC   C4A 9690  38.559  19.271   7.588
  347POPC   C1B 9691  38.621  18.803   8.530
  347POPC   C2B 9692  38.673  18.834   8.068
  347POPC   C3B 9693  38.711  18.473   7.785
  347POPC   C4B 9694  38.676  18.473   7.303
  348POPC   NC3 9695  30.392  43.366   9.411
  348POPC   PO4 9696  30.864  42.892   9.598
  348POPC   GL1 9697  30.792  43.058   9.214
  348POPC   GL2 9698  31.046  42.843   9.088
  348POPC   C1A 9699  30.708  43.266   8.813
  348POPC   D2A 9700  30.664  43.084   8.400
  348POPC   C3A 9701  30.592  43.317   8.029
  348POPC   C4A 9702  30.307  43.116   7.768
  348POPC   C1B 9703  30.764  42.749   8.764
  348POPC   C2B 9704  30.825  42.573   8.348
  348POPC   C3B 9705  30.720  42.798   7.985
  348POPC   C4B 9706  30.755  42.977   7.597
  349POPC   NC3 9707  17.086  42.570   9.503
  349POPC   PO4 9708  17.579  41.996   9.434
  349POPC   GL1 9709  17.270  42.200   9.166
  349POPC   GL2 9710  17.475  42.509   9.173
  349POPC   C1A 9711  17.231  42.349   8.744
  349POPC   D2A 9712  17.531  42.392   8.384
  349POPC   C3A 9713  17.391  42.358   7.941
  349POPC   C4A 9714  17.361  42.471   7.493
  349POPC   C1B 9715  17.568  42.753   8.805
  349POPC   C2B 9716  17.846  42.786   8.450
  349POPC   C3B 9717  17.655  42.785   8.059
  349POPC   C4B 9718  17.851  42.746   7.653
  350POPC   NC3 9719  20.300  14.377   9.280
  350POPC   PO4 9720  19.779  14.102   9.533
  350POPC   GL1 9721  19.791  14.275   9.151
  350POPC   GL2 9722  19.789  14.610   9.226
  350POPC   C1A 9723  19.936  14.113   8.766
  350POPC   D2A 9724  19.859  14.172   8.329
  350POPC   C3A 9725  19.909  14.176   7.901
  350POPC   C4A 9726  19.543  14.261   7.685
  350POPC   C1B 9727  19.920  14.622   8.792
  350POPC   C2B 9728  19.872  14.677   8.361
  350POPC   C3B 9729  19.814  14.667   7.938
  350POPC   C4B 9730  20.164  14.709   7.726
  351POPC   NC3 9731  15.552  39.129   9.658
  351POPC   PO4 9732  14.916  39.405   9.818
  351POPC   GL1 9733  15.020  39.167   9.411
  351POPC   GL2 9734  14.786  39.218   9.158
  351POPC   C1A 9735  15.248  39.157   8.986
  351POPC   D2A 9736  15.057  39.083   8.567
  351POPC   C3A 9737  15.245  39.203   8.174
  351POPC   C4A 9738  15.336  39.204   7.725
  351POPC   C1B 9739  14.899  39.510   8.779
  351POPC   C2B 9740  14.795  39.460   8.342
  351POPC   C3B 9741  14.864  39.344   7.876
  351POPC   C4B 9742  14.917  39.428   7.448
  352POPC   NC3 9743  19.437  27.689   9.963
  352POPC   PO4 9744  18.907  27.572   9.628
  352POPC   GL1 9745  18.969  27.414   9.175
  352POPC   GL2 9746  19.339  27.392   9.099
  352POPC   C1A 9747  18.963  27.404   8.690
  352POPC   D2A 9748  18.993  27.292   8.229
  352POPC   C3A 9749  18.779  27.523   7.893
  352POPC   C4A 9750  18.812  27.855   7.574
  352POPC   C1B 9751  19.411  27.652   8.714
  352POPC   C2B 9752  19.413  27.608   8.263
  352POPC   C3B 9753  19.287  27.561   7.829
  352POPC   C4B 9754  19.472  27.273   7.519
  353POPC   NC3 9755   7.559  40.489   9.782
  353POPC   PO4 9756   8.313  40.568   9.708
  353POPC   GL1 9757   8.289  40.517   9.187
  353POPC   GL2 9758   8.366  40.855   9.085
  353POPC   C1A 9759   8.245  40.476   8.721
  353POPC   D2A 9760   7.934  40.684   8.432
  353POPC   C3A 9761   7.969  40.941   8.029
  353POPC   C4A 9762   7.905  40.688   7.648
  353POPC   C1B 9763   8.225  41.030   8.694
  353POPC   C2B 9764   8.420  40.818   8.338
  353POPC   C3B 9765   8.350  40.615   7.939
  353POPC   C4B 9766   8.338  40.890   7.547
  354POPC   NC3 9767  28.324   4.819   9.545
  354POPC   PO4 9768  28.690   5.249   9.489
  354POPC   GL1 9769  28.438   5.129   9.129
  354POPC   GL2 9770  28.236   5.444   9.100
  354POPC   C1A 9771  28.504   4.907   8.727
  354POPC   D2A 9772  28.732   4.877   8.335
  354POPC   C3A 9773  28.625   5.135   7.962
  354POPC   C4A 9774  28.504   5.015   7.544
  354POPC   C1B 9775  28.084   5.191   8.731
  354POPC   C2B 9776  28.264   5.122   8.321
  354POPC   C3B 9777  28.118   5.108   7.889
  354POPC   C4B 9778  27.992   4.925   7.483
  355POPC   NC3 9779  11.758   2.650   9.439
  355POPC   PO4 9780  12.395   3.008   9.402
  355POPC   GL1 9781  12.153   2.742   9.106
  355POPC   GL2 9782  11.790   2.888   9.002
  355POPC   C1A 9783  12.313   2.455   8.774
  355POPC   D2A 9784  12.104   2.318   8.391
  355POPC   C3A 9785  11.874   2.608   8.151
  355POPC   C4A 9786  11.818   2.635   7.764
  355POPC   C1B 9787  11.931   2.748   8.631
  355POPC   C2B 9788  12.299   2.813   8.380
  355POPC   C3B 9789  12.232   2.984   8.002
  355POPC   C4B 9790  11.835   3.145   7.912
  356POPC   NC3 9791  29.016  43.965   9.349
  356POPC   PO4 9792  29.194  43.335   9.464
  356POPC   GL1 9793  29.000  43.496   9.112
  356POPC   GL2 9794  29.313  43.659   9.040
  356POPC   C1A 9795  28.809  43.760   8.778
  356POPC   D2A 9796  28.946  43.933   8.359
  356POPC   C3A 9797  28.982  43.825   7.890
  356POPC   C4A 9798  29.034  44.148   7.507
  356POPC   C1B 9799  29.235  43.521   8.636
  356POPC   C2B 9800  29.197  43.505   8.230
  356POPC   C3B 9801  29.410  43.490   7.871
  356POPC   C4B 9802  29.414  43.829   7.596
  357POPC   NC3 9803   5.046  15.583   9.611
  357POPC   PO4 9804   5.310  16.164   9.555
  357POPC   GL1 9805   5.163  15.918   9.209
  357POPC   GL2 9806   4.889  16.151   9.161
  357POPC   C1A 9807   4.932  15.751   8.831
  357POPC   D2A 9808   4.883  15.897   8.417
  357POPC   C3A 9809   5.243  15.796   8.202
  357POPC   C4A 9810   5.347  15.817   7.792
  357POPC   C1B 9811   5.137  16.261   8.794
  357POPC   C2B 9812   5.226  16.304   8.339
  357POPC   C3B 9813   4.995  16.168   7.949
  357POPC   C4B 9814   4.711  16.323   7.628
  358POPC   NC3 9815  44.279  25.396   9.761
  358POPC   PO4 9816  44.080  24.861   9.561
  358POPC   GL1 9817  44.098  25.058   9.118
  358POPC   GL2 9818  44.104  25.405   9.199
  358POPC   C1A 9819  43.950  25.055   8.633
  358POPC   D2A 9820  43.758  25.267   8.243
  358POPC   C3A 9821  43.878  25.190   7.802
  358POPC   C4A 9822  43.718  25.084   7.390
  358POPC   C1B 9823  43.968  25.555   8.774
  358POPC   C2B 9824  43.866  25.771   8.358
  358POPC   C3B 9825  43.832  25.690   7.907
  358POPC   C4B 9826  43.582  25.741   7.511
  359POPC   NC3 9827   6.429  29.696   9.487
  359POPC   PO4 9828   5.758  29.949   9.471
  359POPC   GL1 9829   6.006  29.991   9.126
  359POPC   GL2 9830   6.023  29.633   9.144
  359POPC   C1A 9831   5.808  30.141   8.742
  359POPC   D2A 9832   5.678  30.092   8.323
  359POPC   C3A 9833   5.918  30.245   7.959
  359POPC   C4A 9834   5.696  30.140   7.562
  359POPC   C1B 9835   5.594  29.692   8.860
  359POPC   C2B 9836   5.403  29.663   8.394
  359POPC   C3B 9837   5.500  29.805   7.930
  359POPC   C4B 9838   5.951  29.781   7.787
  360POPC   NC3 9839   0.190  32.317   9.412
  360POPC   PO4 9840   0.679  31.930   9.499
  360POPC   GL1 9841   0.537  32.066   9.094
  360POPC   GL2 9842   0.218  31.917   9.053
  360POPC   C1A 9843   0.327  32.343   8.765
  360POPC   D2A 9844   0.119  32.392   8.382
  360POPC   C3A 9845   0.389  32.482   8.022
  360POPC   C4A 9846   0.591  32.437   7.598
  360POPC   C1B 9847   0.394  31.840   8.641
  360POPC   C2B 9848   0.331  31.946   8.211
  360POPC   C3B 9849   0.107  32.091   7.856
  360POPC   C4B 9850   0.310  32.025   7.470
  361POPC   NC3 9851  16.282  32.942   9.561
  361POPC   PO4 9852  15.645  33.285   9.633
  361POPC   GL1 9853  15.768  33.302   9.206
  361POPC   GL2 9854  16.007  33.042   9.130
  361POPC   C1A 9855  15.919  33.418   8.781
  361POPC   D2A 9856  15.838  33.247   8.364
  361POPC   C3A 9857  16.067  33.255   7.970
  361POPC   C4A 9858  16.009  33.193   7.508
  361POPC   C1B 9859  16.225  32.990   8.712
  361POPC   C2B 9860  16.141  32.843   8.284
  361POPC   C3B 9861  15.968  32.767   7.874
  361POPC   C4B 9862  16.090  32.693   7.460
  362POPC   NC3 9863  19.485  41.585   9.405
  362POPC   PO4 9864  20.103  41.676   9.501
  362POPC   GL1 9865  19.988  41.827   9.102
  362POPC   GL2 9866  19.671  41.673   8.936
  362POPC   C1A 9867  20.102  41.663   8.697
  362POPC   D2A 9868  19.962  41.391   8.372
  362POPC   C3A 9869  20.076  41.582   7.960
  362POPC   C4A 9870  20.019  41.758   7.540
  362POPC   C1B 9871  19.307  41.683   8.615
  362POPC   C2B 9872  19.244  41.377   8.341
  362POPC   C3B 9873  19.550  41.553   8.066
  362POPC   C4B 9874  19.572  41.567   7.650
  363POPC   NC3 9875   5.622   9.058   9.916
  363POPC   PO4 9876   6.128   9.026   9.537
  363POPC   GL1 9877   5.908   9.033   9.115
  363POPC   GL2 9878   5.563   9.189   9.128
  363POPC   C1A 9879   6.047   8.982   8.691
  363POPC   D2A 9880   6.229   8.990   8.303
  363POPC   C3A 9881   6.012   8.800   7.946
  363POPC   C4A 9882   5.981   8.988   7.521
  363POPC   C1B 9883   5.626   9.313   8.684
  363POPC   C2B 9884   5.746   9.209   8.252
  363POPC   C3B 9885   5.579   9.072   7.823
  363POPC   C4B 9886   5.563   9.238   7.391
  364POPC   NC3 9887   9.878  33.018   9.432
  364POPC   PO4 9888   9.339  33.431   9.205
  364POPC   GL1 9889   9.561  32.983   9.021
  364POPC   GL2 9890   9.965  32.982   8.943
  364POPC   C1A 9891   9.664  32.872   8.579
  364POPC   D2A 9892   9.646  33.271   8.364
  364POPC   C3A 9893   9.803  33.252   7.984
  364POPC   C4A 9894   9.624  33.035   7.684
  364POPC   C1B 9895  10.124  32.599   8.695
  364POPC   C2B 9896   9.961  32.476   8.338
  364POPC   C3B 9897   9.847  32.721   8.040
  364POPC   C4B 9898  10.117  32.841   7.726
  365POPC   NC3 9899  37.865  16.493   9.528
  365POPC   PO4 9900  37.781  15.813   9.534
  365POPC   GL1 9901  37.726  15.879   9.086
  365POPC   GL2 9902  37.364  15.877   8.959
  365POPC   C1A 9903  37.821  16.048   8.682
  365POPC   D2A 9904  37.923  16.238   8.279
  365POPC   C3A 9905  37.814  16.004   7.906
  365POPC   C4A 9906  37.856  16.186   7.484
  365POPC   C1B 9907  37.356  16.276   8.716
  365POPC   C2B 9908  37.426  16.368   8.261
  365POPC   C3B 9909  37.355  16.277   7.844
  365POPC   C4B 9910  37.307  15.852   7.745
  366POPC   NC3 9911  16.864  36.487   9.435
  366POPC   PO4 9912  16.572  35.912   9.369
  366POPC   GL1 9913  16.610  36.248   9.047
  366POPC   GL2 9914  16.948  36.437   8.940
  366POPC   C1A 9915  16.626  36.234   8.609
  366POPC   D2A 9916  16.787  36.109   8.245
  366POPC   C3A 9917  16.388  36.035   8.101
  366POPC   C4A 9918  16.217  36.022   7.735
  366POPC   C1B 9919  17.037  35.984   8.796
  366POPC   C2B 9920  17.077  35.706   8.418
  366POPC   C3B 9921  17.124  35.828   7.961
  366POPC   C4B 9922  16.775  36.038   7.716
  367POPC   NC3 9923  22.550  44.694   9.606
  367POPC   PO4 9924  21.892  44.788   9.687
  367POPC   GL1 9925  22.047  44.627   9.269
  367POPC   GL2 9926  22.392  44.654   9.131
  367POPC   C1A 9927  22.006  44.608   8.804
  367POPC   D2A 9928  22.027  44.537   8.361
  367POPC   C3A 9929  21.742  44.600   8.066
  367POPC   C4A 9930  21.928  44.693   7.688
  367POPC   C1B 9931  22.500  44.810   8.750
  367POPC   C2B 9932  22.532  44.612   8.343
  367POPC   C3B 9933  22.433  44.614   7.916
  367POPC   C4B 9934  22.467   0.026   7.721
  368POPC   NC3 9935  36.115  43.802   9.615
  368POPC   PO4 9936  36.495  44.254   9.270
  368POPC   GL1 9937  36.174  43.970   9.114
  368POPC   GL2 9938  36.235  43.645   9.086
  368POPC   C1A 9939  36.014  44.021   8.688
  368POPC   D2A 9940  36.099  43.835   8.259
  368POPC   C3A 9941  36.201  44.128   7.905
  368POPC   C4A 9942  36.336  44.120   7.486
  368POPC   C1B 9943  36.021  43.520   8.709
  368POPC   C2B 9944  35.817  43.343   8.353
  368POPC   C3B 9945  35.821  43.490   7.935
  368POPC   C4B 9946  36.222  43.590   7.791
  369POPC   NC3 9947   6.130  39.342   9.284
  369POPC   PO4 9948   6.654  39.389   9.701
  369POPC   GL1 9949   6.690  39.180   9.271
  369POPC   GL2 9950   6.428  38.978   9.108
  369POPC   C1A 9951   6.837  39.188   8.838
  369POPC   D2A 9952   6.682  38.982   8.463
  369POPC   C3A 9953   6.784  39.154   8.065
  369POPC   C4A 9954   6.706  39.371   7.643
  369POPC   C1B 9955   6.211  39.012   8.714
  369POPC   C2B 9956   6.259  39.261   8.350
  369POPC   C3B 9957   6.290  39.182   7.922
  369POPC   C4B 9958   6.210  39.138   7.502
  370POPC   NC3 9959  12.353  33.668   9.528
  370POPC   PO4 9960  12.994  34.014   9.335
  370POPC   GL1 9961  12.810  33.874   9.008
  370POPC   GL2 9962  12.678  33.616   9.156
  370POPC   C1A 9963  12.992  33.721   8.651
  370POPC   D2A 9964  13.067  33.918   8.280
  370POPC   C3A 9965  12.721  33.846   8.020
  370POPC   C4A 9966  12.748  33.862   7.585
  370POPC   C1B 9967  12.625  33.395   8.763
  370POPC   C2B 9968  12.837  33.270   8.389
  370POPC   C3B 9969  12.840  33.347   7.981
  370POPC   C4B 9970  12.518  33.444   7.728
  371POPC   NC3 9971  37.529  41.573   9.530
  371POPC   PO4 9972  37.159  42.055   9.211
  371POPC   GL1 9973  37.439  41.733   9.029
  371POPC   GL2 9974  37.754  41.533   9.046
  371POPC   C1A 9975  37.505  41.557   8.621
  371POPC   D2A 9976  37.576  41.753   8.286
  371POPC   C3A 9977  37.571  41.450   7.988
  371POPC   C4A 9978  37.577  41.430   7.578
  371POPC   C1B 9979  37.941  41.821   8.684
  371POPC   C2B 9980  38.105  41.836   8.216
  371POPC   C3B 9981  38.051  41.587   7.803
  371POPC   C4B 9982  37.934  41.736   7.385
  372POPC   NC3 9983  18.696  37.319   9.186
  372POPC   PO4 9984  18.236  36.951   9.549
  372POPC   GL1 9985  18.120  36.919   9.133
  372POPC   GL2 9986  18.200  37.247   9.070
  372POPC   C1A 9987  18.288  36.815   8.722
  372POPC   D2A 9988  18.229  36.619   8.320
  372POPC   C3A 9989  18.216  36.737   7.866
  372POPC   C4A 9990  18.100  36.525   7.472
  372POPC   C1B 9991  18.287  37.305   8.634
  372POPC   C2B 9992  18.054  37.094   8.346
  372POPC   C3B 9993  17.951  37.191   7.966
  372POPC   C4B 9994  18.326  37.241   7.751
  373POPC   NC3 9995  43.727  11.321   9.575
  373POPC   PO4 9996  44.221  10.834   9.484
  373POPC   GL1 9997  44.118  11.234   9.206
  373POPC   GL2 9998  43.809  11.483   9.130
  373POPC   C1A 9999  44.078  11.330   8.763
  373POPC   D2A10000  43.904  11.267   8.419
  373POPC   C3A10001  44.163  11.338   8.075
  373POPC   C4A10002  43.965  11.366   7.706
  373POPC   C1B10003  43.565  11.464   8.776
  373POPC   C2B10004  43.614  11.680   8.390
  373POPC   C3B10005  43.610  11.470   8.043
  373POPC   C4B10006  43.554  11.708   7.698
  374POPC   NC310007   7.246  40.446   9.301
  374POPC   PO410008   7.575  40.991   9.591
  374POPC   GL110009   7.559  40.838   9.164
  374POPC   GL210010   7.868  40.714   8.983
  374POPC   C1A10011   7.469  40.877   8.733
  374POPC   D2A10012   7.555  41.003   8.350
  374POPC   C3A10013   7.237  40.971   8.051
  374POPC   C4A10014   7.482  40.969   7.706
  374POPC   C1B10015   7.726  40.346   8.742
  374POPC   C2B10016   7.442  40.441   8.421
  374POPC   C3B10017   7.593  40.578   8.053
  374POPC   C4B10018   7.484  40.427   7.695
  375POPC   NC310019  11.139  13.898   9.674
  375POPC   PO410020  11.717  13.893   9.610
  375POPC   GL110021  11.420  13.765   9.236
  375POPC   GL210022  11.038  13.715   9.164
  375POPC   C1A10023  11.456  13.724   8.787
  375POPC   D2A10024  11.345  13.609   8.370
  375POPC   C3A10025  11.432  13.733   7.980
  375POPC   C4A10026  11.358  13.359   7.756
  375POPC   C1B10027  10.920  13.736   8.717
  375POPC   C2B10028  10.859  13.704   8.257
  375POPC   C3B10029  10.951  13.707   7.785
  375POPC   C4B10030  10.832  13.797   7.348
  376POPC   NC310031  10.885  38.616   9.425
  376POPC   PO410032  11.420  38.157   9.425
  376POPC   GL110033  11.322  38.407   9.072
  376POPC   GL210034  11.606  38.649   8.978
  376POPC   C1A10035  11.128  38.589   8.723
  376POPC   D2A10036  11.349  38.522   8.342
  376POPC   C3A10037  11.211  38.661   7.920
  376POPC   C4A10038  11.017  38.423   7.521
  376POPC   C1B10039  11.743  38.255   8.789
  376POPC   C2B10040  11.709  38.054   8.395
  376POPC   C3B10041  11.660  38.266   8.016
  376POPC   C4B10042  11.513  38.417   7.617
  377POPC   NC310043  28.934  15.358   9.523
  377POPC   PO410044  29.343  14.869   9.599
  377POPC   GL110045  29.180  15.015   9.201
  377POPC   GL210046  29.406  14.756   9.088
  377POPC   C1A10047  29.026  15.329   8.840
  377POPC   D2A10048  29.176  15.456   8.419
  377POPC   C3A10049  28.944  15.362   8.044
  377POPC   C4A10050  28.860  15.344   7.628
  377POPC   C1B10051  29.433  15.031   8.749
  377POPC   C2B10052  29.449  15.043   8.369
  377POPC   C3B10053  29.353  15.064   8.011
  377POPC   C4B10054  29.300  15.097   7.621
  378POPC   NC310055  38.362  43.831   9.554
  378POPC   PO410056  39.055  43.813   9.535
  378POPC   GL110057  38.738  43.659   9.232
  378POPC   GL210058  38.620  43.980   9.131
  378POPC   C1A10059  38.462  43.595   8.830
  378POPC   D2A10060  38.315  43.807   8.445
  378POPC   C3A10061  38.487  43.791   8.019
  378POPC   C4A10062  38.470  43.509   7.673
  378POPC   C1B10063  38.273  44.105   8.865
  378POPC   C2B10064  38.131  44.298   8.460
  378POPC   C3B10065  38.146  44.312   8.002
  378POPC   C4B10066  38.467  44.242   7.710
  379POPC   NC310067  21.307   0.807   9.386
  379POPC   PO410068  21.638   0.226   9.374
  379POPC   GL110069  21.417   0.323   9.000
  379POPC   GL210070  21.144   0.544   8.982
  379POPC   C1A10071  21.447   0.422   8.557
  379POPC   D2A10072  21.753   0.292   8.247
  379POPC   C3A10073  21.632   0.495   7.897
  379POPC   C4A10074  21.182   0.345   7.972
  379POPC   C1B10075  21.297   0.919   8.756
  379POPC   C2B10076  21.319   1.099   8.381
  379POPC   C3B10077  21.264   0.846   8.011
  379POPC   C4B10078  21.309   0.652   7.551
  380POPC   NC310079  44.279  42.982   9.674
  380POPC   PO410080  43.622  43.308   9.693
  380POPC   GL110081  43.838  43.197   9.275
  380POPC   GL210082  43.733  43.496   9.104
  380POPC   C1A10083  43.968  42.912   8.870
  380POPC   D2A10084  43.752  42.826   8.436
  380POPC   C3A10085  43.991  42.871   8.046
  380POPC   C4A10086  43.955  43.056   7.612
  380POPC   C1B10087  44.062  43.415   8.839
  380POPC   C2B10088  44.130  43.203   8.442
  380POPC   C3B10089  44.053  43.363   8.015
  380POPC   C4B10090  44.048  43.569   7.630
  381POPC   NC310091  33.416  36.467   9.711
  381POPC   PO410092  33.773  35.872   9.517
  381POPC   GL110093  33.615  36.045   9.152
  381POPC   GL210094  33.835  36.327   9.052
  381POPC   C1A10095  33.765  35.892   8.766
  381POPC   D2A10096  33.788  36.051   8.328
  381POPC   C3A10097  33.935  35.829   7.984
  381POPC   C4A10098  33.737  35.756   7.595
  381POPC   C1B10099  33.563  36.347   8.659
  381POPC   C2B10100  33.427  36.393   8.241
  381POPC   C3B10101  33.447  36.245   7.817
  381POPC   C4B10102  33.251  36.454   7.451
  382POPC   NC310103  20.547  33.790   9.689
  382POPC   PO410104  20.190  34.281   9.407
  382POPC   GL110105  20.337  33.854   9.241
  382POPC   GL210106  20.662  33.805   9.196
  382POPC   C1A10107  20.325  33.738   8.816
  382POPC   D2A10108  20.285  33.821   8.417
  382POPC   C3A10109  20.404  33.611   8.074
  382POPC   C4A10110  20.526  33.739   7.686
  382POPC   C1B10111  20.868  33.866   8.818
  382POPC   C2B10112  20.799  33.762   8.439
  382POPC   C3B10113  20.784  33.966   8.099
  382POPC   C4B10114  20.949  34.034   7.687
  383POPC   NC310115  19.634  15.193   9.436
  383POPC   PO410116  20.143  15.491   9.501
  383POPC   GL110117  19.953  15.426   9.106
  383POPC   GL210118  19.840  15.072   8.995
  383POPC   C1A10119  19.996  15.425   8.689
  383POPC   D2A10120  19.874  15.180   8.394
  383POPC   C3A10121  19.899  15.467   8.095
  383POPC   C4A10122  19.942  15.404   7.704
  383POPC   C1B10123  19.497  14.901   8.722
  383POPC   C2B10124  19.426  14.907   8.283
  383POPC   C3B10125  19.578  15.106   7.932
  383POPC   C4B10126  19.609  15.013   7.516
  384POPC   NC310127   6.224  23.468   9.589
  384POPC   PO410128   6.930  23.849   9.510
  384POPC   GL110129   6.767  23.863   9.071
  384POPC   GL210130   6.885  23.601   8.888
  384POPC   C1A10131   6.408  23.673   8.744
  384POPC   D2A10132   6.499  23.481   8.372
  384POPC   C3A10133   6.313  23.616   8.006
  384POPC   C4A10134   6.536  23.650   7.632
  384POPC   C1B10135   6.726  24.026   8.623
  384POPC   C2B10136   6.390  24.057   8.334
  384POPC   C3B10137   6.490  24.094   7.889
  384POPC   C4B10138   6.678  24.103   7.475
  385POPC   NC310139  30.328  23.125   9.395
  385POPC   PO410140  30.833  22.825   9.605
  385POPC   GL110141  30.824  22.865   9.121
  385POPC   GL210142  30.539  22.964   8.980
  385POPC   C1A10143  30.868  23.167   8.689
  385POPC   D2A10144  30.975  23.330   8.243
  385POPC   C3A10145  30.806  23.089   7.850
  385POPC   C4A10146  30.977  22.979   7.399
  385POPC   C1B10147  30.622  22.717   8.639
  385POPC   C2B10148  30.542  22.993   8.306
  385POPC   C3B10149  30.322  23.210   7.997
  385POPC   C4B10150  30.318  23.019   7.626
  386POPC   NC310151  37.762  24.492   9.620
  386POPC   PO410152  37.483  23.925   9.482
  386POPC   GL110153  37.514  24.284   9.176
  386POPC   GL210154  37.775  24.520   9.113
  386POPC   C1A10155  37.310  24.317   8.774
  386POPC   D2A10156  37.223  24.406   8.354
  386POPC   C3A10157  37.478  24.746   8.230
  386POPC   C4A10158  37.940  24.779   8.084
  386POPC   C1B10159  37.831  24.245   8.751
  386POPC   C2B10160  37.729  24.301   8.299
  386POPC   C3B10161  37.979  24.249   7.923
  386POPC   C4B10162  38.273  24.389   7.616
  387POPC   NC310163  29.704  15.644   9.490
  387POPC   PO410164  29.790  16.288   9.730
  387POPC   GL110165  29.782  16.190   9.301
  387POPC   GL210166  30.114  16.038   9.296
  387POPC   C1A10167  29.770  16.069   8.841
  387POPC   D2A10168  29.978  15.957   8.422
  387POPC   C3A10169  29.783  16.219   8.056
  387POPC   C4A10170  29.448  16.154   7.721
  387POPC   C1B10171  30.170  15.776   8.933
  387POPC   C2B10172  30.228  15.496   8.626
  387POPC   C3B10173  30.218  15.449   8.165
  387POPC   C4B10174  30.004  15.778   7.928
  388POPC   NC310175  42.519   9.911   9.547
  388POPC   PO410176  42.235   9.362   9.443
  388POPC   GL110177  42.086   9.478   9.105
  388POPC   GL210178  42.220   9.802   9.145
  388POPC   C1A10179  42.245   9.485   8.726
  388POPC   D2A10180  42.046   9.515   8.369
  388POPC   C3A10181  42.359   9.545   8.089
  388POPC   C4A10182  42.377   9.692   7.684
  388POPC   C1B10183  42.113   9.987   8.764
  388POPC   C2B10184  42.338   9.962   8.386
  388POPC   C3B10185  42.644   9.961   8.065
  388POPC   C4B10186  42.519  10.182   7.714
  389POPC   NC310187  41.074   7.634   9.508
  389POPC   PO410188  40.561   7.159   9.536
  389POPC   GL110189  40.607   7.408   9.170
  389POPC   GL210190  40.645   7.759   9.251
  389POPC   C1A10191  40.844   7.499   8.821
  389POPC   D2A10192  41.160   7.703   8.545
  389POPC   C3A10193  41.157   7.473   8.147
  389POPC   C4A10194  40.928   7.333   7.755
  389POPC   C1B10195  40.531   7.901   8.853
  389POPC   C2B10196  40.670   7.767   8.440
  389POPC   C3B10197  40.911   7.945   8.145
  389POPC   C4B10198  40.699   7.861   7.817
  390POPC   NC310199  36.907  31.849   9.443
  390POPC   PO410200  37.103  31.234   9.322
  390POPC   GL110201  37.061  31.461   9.030
  390POPC   GL210202  36.752  31.543   9.066
  390POPC   C1A10203  36.874  31.313   8.640
  390POPC   D2A10204  36.962  31.406   8.246
  390POPC   C3A10205  36.665  31.221   7.988
  390POPC   C4A10206  36.803  31.255   7.585
  390POPC   C1B10207  36.513  31.646   8.723
  390POPC   C2B10208  36.613  31.757   8.299
  390POPC   C3B10209  36.707  31.705   7.850
  390POPC   C4B10210  36.470  31.623   7.449
  391POPC   NC310211   5.891  22.757   9.457
  391POPC   PO410212   5.693  23.495   9.478
  391POPC   GL110213   5.701  23.155   9.183
  391POPC   GL210214   6.033  23.041   9.056
  391POPC   C1A10215   5.601  22.949   8.795
  391POPC   D2A10216   5.513  22.766   8.418
  391POPC   C3A10217   5.728  22.921   8.078
  391POPC   C4A10218   5.638  23.112   7.685
  391POPC   C1B10219   6.171  23.158   8.621
  391POPC   C2B10220   6.237  23.073   8.162
  391POPC   C3B10221   6.130  22.935   7.740
  391POPC   C4B10222   6.035  22.955   7.306
  392POPC   NC310223  30.864  39.436   9.654
  392POPC   PO410224  30.286  39.372   9.291
  392POPC   GL110225  30.745  39.343   9.157
  392POPC   GL210226  30.774  39.005   9.176
  392POPC   C1A10227  30.952  39.242   8.727
  392POPC   D2A10228  30.739  39.038   8.326
  392POPC   C3A10229  30.875  39.084   7.886
  392POPC   C4A10230  30.846  39.426   7.581
  392POPC   C1B10231  30.477  39.060   8.777
  392POPC   C2B10232  30.219  39.034   8.395
  392POPC   C3B10233  30.341  38.907   7.973
  392POPC   C4B10234  30.436  39.077   7.515
  393POPC   NC310235   5.497  31.989   9.524
  393POPC   PO410236   5.983  32.537   9.513
  393POPC   GL110237   5.731  32.347   9.224
  393POPC   GL210238   5.849  32.028   9.140
  393POPC   C1A10239   5.461  32.349   8.878
  393POPC   D2A10240   5.399  32.232   8.463
  393POPC   C3A10241   5.690  32.374   8.148
  393POPC   C4A10242   5.684  32.233   7.720
  393POPC   C1B10243   5.969  32.255   8.776
  393POPC   C2B10244   6.161  32.324   8.383
  393POPC   C3B10245   6.100  32.089   8.023
  393POPC   C4B10246   6.182  32.133   7.638
  394POPC   NC310247  12.124  14.121   9.477
  394POPC   PO410248  11.799  14.753   9.504
  394POPC   GL110249  11.992  14.519   9.174
  394POPC   GL210250  12.370  14.524   9.172
  394POPC   C1A10251  11.921  14.280   8.804
  394POPC   D2A10252  11.663  14.349   8.436
  394POPC   C3A10253  11.822  14.249   8.023
  394POPC   C4A10254  11.840  14.434   7.608
  394POPC   C1B10255  12.265  14.688   8.757
  394POPC   C2B10256  12.399  14.607   8.320
  394POPC   C3B10257  12.264  14.533   7.902
  394POPC   C4B10258  12.290  14.688   7.479
  395POPC   NC310259  33.037  39.030   9.678
  395POPC   PO410260  32.406  38.998   9.591
  395POPC   GL110261  32.748  39.158   9.276
  395POPC   GL210262  33.039  38.948   9.120
  395POPC   C1A10263  32.961  39.446   8.973
  395POPC   D2A10264  32.906  39.541   8.513
  395POPC   C3A10265  33.031  39.301   8.137
  395POPC   C4A10266  33.131  39.423   7.718
  395POPC   C1B10267  33.298  39.142   8.755
  395POPC   C2B10268  33.484  39.186   8.366
  395POPC   C3B10269  33.432  38.937   8.013
  395POPC   C4B10270  33.483  39.070   7.627
  396POPC   NC310271  11.122  32.119   9.443
  396POPC   PO410272  11.343  32.664   9.371
  396POPC   GL110273  11.422  32.334   9.086
  396POPC   GL210274  11.598  31.999   9.190
  396POPC   C1A10275  11.121  32.303   8.769
  396POPC   D2A10276  11.011  32.592   8.446
  396POPC   C3A10277  10.976  32.362   8.079
  396POPC   C4A10278  11.119  32.377   7.681
  396POPC   C1B10279  11.591  32.024   8.717
  396POPC   C2B10280  11.407  32.236   8.351
  396POPC   C3B10281  11.422  32.078   7.950
  396POPC   C4B10282  11.773  31.967   7.751
  397POPC   NC310283  44.028   1.635   9.567
  397POPC   PO410284  43.695   2.164   9.489
  397POPC   GL110285  43.821   2.043   9.099
  397POPC   GL210286  44.148   1.851   9.127
  397POPC   C1A10287  43.659   2.144   8.692
  397POPC   D2A10288  43.481   1.942   8.340
  397POPC   C3A10289  43.699   2.028   7.998
  397POPC   C4A10290  44.012   2.265   7.837
  397POPC   C1B10291  44.075   1.835   8.698
  397POPC   C2B10292  44.133   2.004   8.309
  397POPC   C3B10293  44.149   1.749   7.998
  397POPC   C4B10294  44.032   1.772   7.644
  398POPC   NC310295  38.149  38.277   9.720
  398POPC   PO410296  38.606  38.599   9.683
  398POPC   GL110297  38.348  38.562   9.247
  398POPC   GL210298  38.052  38.347   9.206
  398POPC   C1A10299  38.441  38.599   8.741
  398POPC   D2A10300  38.615  38.583   8.263
  398POPC   C3A10301  38.548  38.578   7.769
  398POPC   C4A10302  38.754  38.743   7.377
  398POPC   C1B10303  37.941  38.508   8.765
  398POPC   C2B10304  38.096  38.590   8.336
  398POPC   C3B10305  38.261  38.262   8.052
  398POPC   C4B10306  38.212  38.185   7.605
  399POPC   NC310307   0.016  34.812   9.572
  399POPC   PO410308  44.864  35.430   9.491
  399POPC   GL110309  44.778  35.275   9.055
  399POPC   GL210310  44.390  35.229   9.015
  399POPC   C1A10311  44.765  35.357   8.590
  399POPC   D2A10312  44.507  35.562   8.236
  399POPC   C3A10313  44.669  35.619   7.826
  399POPC   C4A10314  44.479  35.801   7.437
  399POPC   C1B10315  44.262  35.207   8.562
  399POPC   C2B10316  44.485  35.056   8.186
  399POPC   C3B10317  44.535  35.084   7.741
  399POPC   C4B10318  44.396  35.062   7.271
  400POPC   NC310319   7.820  42.842   9.500
  400POPC   PO410320   7.238  43.192   9.644
  400POPC   GL110321   7.553  43.294   9.281
  400POPC   GL210322   7.287  43.378   9.079
  400POPC   C1A10323   7.708  43.258   8.848
  400POPC   D2A10324   7.639  43.086   8.470
  400POPC   C3A10325   7.698  43.305   8.112
  400POPC   C4A10326   7.579  43.166   7.720
  400POPC   C1B10327   7.172  43.068   8.774
  400POPC   C2B10328   7.190  42.827   8.378
  400POPC   C3B10329   7.205  42.848   7.912
  400POPC   C4B10330   7.085  43.134   7.568
  401POPC   NC310331   2.079   2.547   9.818
  401POPC   PO410332   2.310   2.928   9.297
  401POPC   GL110333   1.970   2.832   9.098
  401POPC   GL210334   2.076   2.515   9.004
  401POPC   C1A10335   1.860   2.904   8.691
  401POPC   D2A10336   1.614   2.904   8.350
  401POPC   C3A10337   1.829   3.043   8.014
  401POPC   C4A10338   1.908   2.883   7.624
  401POPC   C1B10339   2.351   2.714   8.694
  401POPC   C2B10340   2.194   2.812   8.296
  401POPC   C3B10341   1.929   2.548   8.048
  401POPC   C4B10342   2.007   2.387   7.659
  402POPC   NC310343  31.733  29.276   9.580
  402POPC   PO410344  31.449  28.657   9.495
  402POPC   GL110345  31.561  28.951   9.180
  402POPC   GL210346  31.310  29.226   9.242
  402POPC   C1A10347  31.662  29.158   8.786
  402POPC   D2A10348  31.712  29.357   8.356
  402POPC   C3A10349  31.570  29.087   8.006
  402POPC   C4A10350  31.382  29.023   7.598
  402POPC   C1B10351  31.173  29.242   8.822
  402POPC   C2B10352  31.258  29.086   8.429
  402POPC   C3B10353  31.066  29.030   8.035
  402POPC   C4B10354  31.056  29.369   7.744
  403POPC   NC310355  24.263  35.949   9.585
  403POPC   PO410356  24.924  36.010   9.541
  403POPC   GL110357  24.620  36.125   9.177
  403POPC   GL210358  24.389  35.873   9.077
  403POPC   C1A10359  24.473  36.200   8.712
  403POPC   D2A10360  24.545  36.013   8.293
  403POPC   C3A10361  24.391  36.028   7.860
  403POPC   C4A10362  24.325  36.163   7.428
  403POPC   C1B10363  24.704  35.731   8.720
  403POPC   C2B10364  24.933  35.717   8.272
  403POPC   C3B10365  24.671  35.572   7.896
  403POPC   C4B10366  24.487  35.693   7.458
  404POPC   NC310367  38.056  39.859   9.409
  404POPC   PO410368  37.466  40.226   9.553
  404POPC   GL110369  37.648  40.040   9.172
  404POPC   GL210370  37.921  40.234   9.087
  404POPC   C1A10371  37.654  39.764   8.769
  404POPC   D2A10372  37.437  39.609   8.352
  404POPC   C3A10373  37.677  39.648   7.973
  404POPC   C4A10374  37.603  39.888   7.603
  404POPC   C1B10375  37.596  40.249   8.718
  404POPC   C2B10376  37.576  40.089   8.290
  404POPC   C3B10377  37.899  40.128   7.981
  404POPC   C4B10378  37.952  40.268   7.540
  405POPC   NC310379  40.138   7.295   9.408
  405POPC   PO410380  40.015   7.962   9.391
  405POPC   GL110381  40.047   7.680   9.080
  405POPC   GL210382  39.732   7.537   9.209
  405POPC   C1A10383  40.258   7.499   8.709
  405POPC   D2A10384  40.188   7.689   8.308
  405POPC   C3A10385  40.327   7.525   7.916
  405POPC   C4A10386  40.148   7.319   7.572
  405POPC   C1B10387  39.793   7.301   8.825
  405POPC   C2B10388  39.657   7.189   8.415
  405POPC   C3B10389  39.843   7.386   8.057
  405POPC   C4B10390  39.795   7.645   7.682
  406POPC   NC310391  10.148  42.152   9.684
  406POPC   PO410392   9.518  42.281   9.564
  406POPC   GL110393   9.535  42.348   9.132
  406POPC   GL210394   9.744  42.066   8.977
  406POPC   C1A10395   9.415  42.400   8.716
  406POPC   D2A10396   9.680  42.312   8.361
  406POPC   C3A10397   9.522  42.351   7.946
  406POPC   C4A10398   9.715  42.143   7.602
  406POPC   C1B10399   9.908  42.479   8.809
  406POPC   C2B10400   9.739  42.803   8.524
  406POPC   C3B10401   9.775  42.810   8.056
  406POPC   C4B10402   9.841  42.641   7.627
  407POPC   NC310403  27.077   7.778   9.511
  407POPC   PO410404  26.708   7.383   9.861
  407POPC   GL110405  26.823   7.386   9.298
  407POPC   GL210406  26.773   7.670   9.110
  407POPC   C1A10407  26.852   7.268   8.823
  407POPC   D2A10408  27.006   7.377   8.395
  407POPC   C3A10409  26.781   7.174   8.064
  407POPC   C4A10410  26.840   7.309   7.675
  407POPC   C1B10411  26.927   7.793   8.701
  407POPC   C2B10412  27.093   7.898   8.298
  407POPC   C3B10413  26.844   7.706   7.998
  407POPC   C4B10414  26.428   7.573   7.850
  408POPC   NC310415  27.240  34.895   9.986
  408POPC   PO410416  27.654  34.538   9.510
  408POPC   GL110417  27.780  34.623   9.117
  408POPC   GL210418  27.946  34.976   9.082
  408POPC   C1A10419  27.625  34.470   8.714
  408POPC   D2A10420  27.559  34.629   8.289
  408POPC   C3A10421  27.458  34.382   7.964
  408POPC   C4A10422  27.237  34.321   7.568
  408POPC   C1B10423  27.700  34.974   8.726
  408POPC   C2B10424  27.517  35.126   8.371
  408POPC   C3B10425  27.395  34.983   7.959
  408POPC   C4B10426  27.591  34.779   7.627
  409POPC   NC310427  32.748  12.473   9.472
  409POPC   PO410428  32.851  11.937   9.334
  409POPC   GL110429  32.853  12.281   9.021
  409POPC   GL210430  32.546  12.538   9.017
  409POPC   C1A10431  33.120  12.312   8.677
  409POPC   D2A10432  33.034  12.412   8.264
  409POPC   C3A10433  33.128  12.146   7.904
  409POPC   C4A10434  33.459  12.048   7.578
  409POPC   C1B10435  32.607  12.400   8.584
  409POPC   C2B10436  32.535  12.478   8.131
  409POPC   C3B10437  32.643  12.320   7.722
  409POPC   C4B10438  32.470  12.347   7.272
  410POPC   NC310439   4.094  38.094   9.492
  410POPC   PO410440   3.409  37.935   9.529
  410POPC   GL110441   3.500  37.633   9.161
  410POPC   GL210442   3.807  37.749   9.163
  410POPC   C1A10443   3.642  37.460   8.700
  410POPC   D2A10444   3.788  37.609   8.274
  410POPC   C3A10445   3.691  37.380   7.911
  410POPC   C4A10446   3.604  37.375   7.463
  410POPC   C1B10447   3.771  37.948   8.782
  410POPC   C2B10448   3.433  37.888   8.507
  410POPC   C3B10449   3.419  37.928   8.062
  410POPC   C4B10450   3.322  37.718   7.711
  411POPC   NC310451  33.245  34.758   9.463
  411POPC   PO410452  32.884  35.413   9.512
  411POPC   GL110453  33.098  35.213   9.214
  411POPC   GL210454  32.876  34.937   9.157
  411POPC   C1A10455  33.068  35.406   8.814
  411POPC   D2A10456  33.229  35.400   8.403
  411POPC   C3A10457  32.982  35.473   8.049
  411POPC   C4A10458  32.954  35.621   7.625
  411POPC   C1B10459  33.190  34.902   8.817
  411POPC   C2B10460  33.107  34.897   8.400
  411POPC   C3B10461  33.226  35.014   8.000
  411POPC   C4B10462  32.926  35.102   7.696
  412POPC   NC310463   6.442  20.740   9.547
  412POPC   PO410464   7.128  20.628   9.467
  412POPC   GL110465   6.796  20.778   9.194
  412POPC   GL210466   6.503  20.526   9.087
  412POPC   C1A10467   6.742  20.866   8.796
  412POPC   D2A10468   6.591  20.522   8.545
  412POPC   C3A10469   6.806  20.532   8.168
  412POPC   C4A10470   6.679  20.822   7.880
  412POPC   C1B10471   6.163  20.321   8.835
  412POPC   C2B10472   6.129  20.128   8.460
  412POPC   C3B10473   6.273  20.211   8.093
  412POPC   C4B10474   6.488  20.372   7.783
  413POPC   NC310475  11.686  40.797   9.543
  413POPC   PO410476  12.312  40.541   9.500
  413POPC   GL110477  12.037  40.708   9.195
  413POPC   GL210478  11.792  40.401   9.198
  413POPC   C1A10479  12.118  40.911   8.803
  413POPC   D2A10480  12.248  40.619   8.476
  413POPC   C3A10481  12.219  40.759   8.066
  413POPC   C4A10482  12.209  40.615   7.664
  413POPC   C1B10483  11.696  40.614   8.815
  413POPC   C2B10484  11.761  40.755   8.433
  413POPC   C3B10485  11.792  40.458   8.123
  413POPC   C4B10486  11.681  40.430   7.716
  414POPC   NC310487  30.464  22.053   9.517
  414POPC   PO410488  30.369  22.668   9.330
  414POPC   GL110489  30.575  22.373   9.073
  414POPC   GL210490  30.822  22.093   9.167
  414POPC   C1A10491  30.366  22.253   8.702
  414POPC   D2A10492  30.217  22.505   8.390
  414POPC   C3A10493  30.506  22.524   8.070
  414POPC   C4A10494  30.341  22.304   7.733
  414POPC   C1B10495  30.754  21.911   8.746
  414POPC   C2B10496  30.514  21.790   8.369
  414POPC   C3B10497  30.629  21.998   7.993
  414POPC   C4B10498  30.976  22.293   7.847
  415POPC   NC310499   8.735  15.622   9.477
  415POPC   PO410500   9.294  16.038   9.469
  415POPC   GL110501   9.054  15.884   9.127
  415POPC   GL210502   8.810  16.135   9.014
  415POPC   C1A10503   9.019  15.866   8.660
  415POPC   D2A10504   8.992  16.176   8.345
  415POPC   C3A10505   9.117  16.026   7.925
  415POPC   C4A10506   8.823  15.867   7.625
  415POPC   C1B10507   8.581  16.334   8.683
  415POPC   C2B10508   8.486  16.232   8.249
  415POPC   C3B10509   8.672  16.296   7.846
  415POPC   C4B10510   8.545  16.285   7.373
  416POPC   NC310511  23.685  43.521   9.499
  416POPC   PO410512  23.914  44.164   9.562
  416POPC   GL110513  23.903  43.880   9.198
  416POPC   GL210514  23.540  43.938   9.151
  416POPC   C1A10515  23.753  43.627   8.835
  416POPC   D2A10516  23.897  43.565   8.436
  416POPC   C3A10517  23.914  43.925   8.194
  416POPC   C4A10518  23.927  43.729   7.814
  416POPC   C1B10519  23.306  43.915   8.784
  416POPC   C2B10520  23.376  43.598   8.464
  416POPC   C3B10521  23.504  43.662   8.069
  416POPC   C4B10522  23.492  44.010   7.786
  417POPC   NC310523  28.018   9.088   9.592
  417POPC   PO410524  27.307   8.926   9.582
  417POPC   GL110525  27.598   9.064   9.272
  417POPC   GL210526  27.352   9.174   9.021
  417POPC   C1A10527  27.762   8.872   8.908
  417POPC   D2A10528  27.687   8.996   8.488
  417POPC   C3A10529  27.784   8.789   8.094
  417POPC   C4A10530  27.657   9.053   7.736
  417POPC   C1B10531  27.251   8.787   8.792
  417POPC   C2B10532  27.311   8.660   8.363
  417POPC   C3B10533  27.281   8.986   8.069
  417POPC   C4B10534  27.146   8.943   7.628
  418POPC   NC310535  39.842  13.154   9.525
  418POPC   PO410536  40.347  12.797   9.534
  418POPC   GL110537  40.086  12.754   9.158
  418POPC   GL210538  39.955  13.069   9.049
  418POPC   C1A10539  39.924  12.676   8.720
  418POPC   D2A10540  39.776  12.490   8.317
  418POPC   C3A10541  39.723  12.725   7.938
  418POPC   C4A10542  40.181  12.773   7.913
  418POPC   C1B10543  40.103  13.163   8.657
  418POPC   C2B10544  39.919  13.061   8.276
  418POPC   C3B10545  40.000  13.246   7.862
  418POPC   C4B10546  39.860  13.023   7.482
  419POPC   NC310547   6.123  26.493   9.564
  419POPC   PO410548   5.594  26.863   9.558
  419POPC   GL110549   5.767  26.737   9.192
  419POPC   GL210550   5.748  27.085   9.056
  419POPC   C1A10551   5.713  26.518   8.800
  419POPC   D2A10552   5.841  26.565   8.372
  419POPC   C3A10553   5.604  26.411   8.008
  419POPC   C4A10554   5.776  26.672   7.666
  419POPC   C1B10555   6.084  26.896   8.808
  419POPC   C2B10556   6.270  26.849   8.396
  419POPC   C3B10557   6.053  26.949   8.029
  419POPC   C4B10558   6.039  27.171   7.636
  420POPC   NC310559  42.059  40.618   9.536
  420POPC   PO410560  42.701  40.631   9.427
  420POPC   GL110561  42.349  40.627   9.102
  420POPC   GL210562  42.147  40.910   9.109
  420POPC   C1A10563  42.266  40.657   8.642
  420POPC   D2A10564  42.548  40.425   8.345
  420POPC   C3A10565  42.583  40.572   7.908
  420POPC   C4A10566  42.279  40.501   7.551
  420POPC   C1B10567  42.545  41.047   8.891
  420POPC   C2B10568  42.678  40.951   8.476
  420POPC   C3B10569  42.591  41.095   8.064
  420POPC   C4B10570  42.271  40.972   7.771
  421POPC   NC310571   4.811  25.112   9.586
  421POPC   PO410572   5.443  25.335   9.539
  421POPC   GL110573   5.189  25.458   9.212
  421POPC   GL210574   5.095  25.110   9.157
  421POPC   C1A10575   5.240  25.542   8.763
  421POPC   D2A10576   4.895  25.563   8.447
  421POPC   C3A10577   4.744  25.515   8.029
  421POPC   C4A10578   4.963  25.596   7.648
  421POPC   C1B10579   4.905  25.149   8.757
  421POPC   C2B10580   5.040  25.094   8.313
  421POPC   C3B10581   5.057  25.146   7.867
  421POPC   C4B10582   5.298  25.031   7.510
  422POPC   NC310583   6.221  38.352   9.394
  422POPC   PO410584   5.529  38.227   9.501
  422POPC   GL110585   5.778  38.412   9.154
  422POPC   GL210586   5.928  38.762   9.179
  422POPC   C1A10587   5.995  38.213   8.773
  422POPC   D2A10588   5.870  38.158   8.333
  422POPC   C3A10589   6.142  38.271   7.977
  422POPC   C4A10590   6.032  38.311   7.505
  422POPC   C1B10591   5.787  38.703   8.740
  422POPC   C2B10592   5.565  38.575   8.361
  422POPC   C3B10593   5.695  38.480   7.935
  422POPC   C4B10594   5.961  38.770   7.729
  423POPC   NC310595  22.608  10.067   9.415
  423POPC   PO410596  23.147  10.502   9.366
  423POPC   GL110597  22.807  10.407   9.095
  423POPC   GL210598  22.690  10.726   8.984
  423POPC   C1A10599  22.705  10.308   8.683
  423POPC   D2A10600  22.746  10.552   8.315
  423POPC   C3A10601  22.751  10.290   7.954
  423POPC   C4A10602  23.123  10.457   7.867
  423POPC   C1B10603  23.086  10.678   8.721
  423POPC   C2B10604  23.286  10.728   8.322
  423POPC   C3B10605  23.050  10.937   7.998
  423POPC   C4B10606  22.698  10.832   7.737
  424POPC   NC310607  33.372  36.534   9.209
  424POPC   PO410608  34.012  36.676   9.411
  424POPC   GL110609  33.927  37.098   9.186
  424POPC   GL210610  33.577  37.062   9.037
  424POPC   C1A10611  33.942  37.276   8.736
  424POPC   D2A10612  33.847  37.082   8.323
  424POPC   C3A10613  33.640  37.274   7.977
  424POPC   C4A10614  33.968  37.088   7.778
  424POPC   C1B10615  33.833  36.775   8.761
  424POPC   C2B10616  33.939  36.558   8.381
  424POPC   C3B10617  33.834  36.599   7.935
  424POPC   C4B10618  33.934  36.632   7.484
  425POPC   NC310619  22.983  27.831   9.550
  425POPC   PO410620  22.927  28.428   9.515
  425POPC   GL110621  22.942  28.215   9.119
  425POPC   GL210622  22.642  28.114   9.132
  425POPC   C1A10623  22.959  28.259   8.635
  425POPC   D2A10624  23.012  28.543   8.253
  425POPC   C3A10625  22.977  28.455   7.789
  425POPC   C4A10626  23.222  28.307   7.406
  425POPC   C1B10627  22.503  28.060   8.691
  425POPC   C2B10628  22.576  28.074   8.226
  425POPC   C3B10629  22.848  27.954   7.861
  425POPC   C4B10630  22.879  27.897   7.396
  426POPC   NC310631  38.827  14.517   9.428
  426POPC   PO410632  39.291  14.084   9.542
  426POPC   GL110633  39.143  14.204   9.178
  426POPC   GL210634  38.976  13.948   9.083
  426POPC   C1A10635  39.141  14.444   8.819
  426POPC   D2A10636  39.175  14.251   8.440
  426POPC   C3A10637  39.374  14.427   8.092
  426POPC   C4A10638  39.455  14.134   7.795
  426POPC   C1B10639  38.710  14.168   8.768
  426POPC   C2B10640  38.672  14.332   8.357
  426POPC   C3B10641  38.899  14.226   8.004
  426POPC   C4B10642  39.035  14.510   7.697
  427POPC   NC310643  20.511  24.919   9.440
  427POPC   PO410644  20.918  25.443   9.240
  427POPC   GL110645  20.533  25.338   9.050
  427POPC   GL210646  20.388  25.036   8.978
  427POPC   C1A10647  20.533  25.509   8.657
  427POPC   D2A10648  20.853  25.483   8.373
  427POPC   C3A10649  20.721  25.360   7.983
  427POPC   C4A10650  20.344  25.457   7.842
  427POPC   C1B10651  20.370  25.020   8.559
  427POPC   C2B10652  20.303  24.855   8.147
  427POPC   C3B10653  20.445  24.968   7.763
  427POPC   C4B10654  20.818  25.055   7.527
  428POPC   NC310655  12.414   3.479   9.427
  428POPC   PO410656  11.788   3.783   9.510
  428POPC   GL110657  11.946   3.663   9.108
  428POPC   GL210658  12.018   3.312   9.148
  428POPC   C1A10659  12.040   3.559   8.677
  428POPC   D2A10660  11.934   3.250   8.412
  428POPC   C3A10661  11.730   3.545   8.213
  428POPC   C4A10662  11.834   3.729   7.806
  428POPC   C1B10663  12.232   3.122   8.792
  428POPC   C2B10664  12.444   3.304   8.436
  428POPC   C3B10665  12.239   3.517   8.091
  428POPC   C4B10666  12.207   3.388   7.674
  429POPC   NC310667  11.119  37.796   9.394
  429POPC   PO410668  11.518  37.271   9.462
  429POPC   GL110669  11.389  37.479   9.095
  429POPC   GL210670  11.479  37.865   9.028
  429POPC   C1A10671  11.362  37.529   8.676
  429POPC   D2A10672  11.034  37.651   8.451
  429POPC   C3A10673  11.236  37.523   8.088
  429POPC   C4A10674  11.135  37.522   7.668
  429POPC   C1B10675  11.271  38.066   8.665
  429POPC   C2B10676  11.231  38.037   8.194
  429POPC   C3B10677  11.297  37.987   7.766
  429POPC   C4B10678  11.443  37.994   7.316
  430POPC   NC310679  24.562  16.662   9.545
  430POPC   PO410680  24.377  17.244   9.481
  430POPC   GL110681  24.413  17.142   9.039
  430POPC   GL210682  24.271  16.814   9.006
  430POPC   C1A10683  24.409  17.015   8.572
  430POPC   D2A10684  24.424  16.765   8.222
  430POPC   C3A10685  24.419  16.928   7.841
  430POPC   C4A10686  24.461  16.628   7.531
  430POPC   C1B10687  24.269  16.505   8.630
  430POPC   C2B10688  24.193  16.271   8.225
  430POPC   C3B10689  24.091  16.463   7.842
  430POPC   C4B10690  23.981  16.436   7.406
  431POPC   NC310691  12.908  12.298   9.545
  431POPC   PO410692  12.328  12.529   9.270
  431POPC   GL110693  12.590  12.159   9.089
  431POPC   GL210694  12.956  12.193   9.009
  431POPC   C1A10695  12.683  12.034   8.626
  431POPC   D2A10696  12.793  12.354   8.299
  431POPC   C3A10697  12.911  12.145   7.930
  431POPC   C4A10698  12.734  11.802   7.787
  431POPC   C1B10699  13.172  11.870   8.717
  431POPC   C2B10700  13.061  11.670   8.326
  431POPC   C3B10701  13.231  11.708   7.926
  431POPC   C4B10702  13.298  11.973   7.574
  432POPC   NC310703   9.504   0.675   9.536
  432POPC   PO410704   8.789   0.477   9.582
  432POPC   GL110705   8.854   0.478   9.161
  432POPC   GL210706   9.162   0.624   9.132
  432POPC   C1A10707   8.683   0.464   8.745
  432POPC   D2A10708   8.868   0.472   8.291
  432POPC   C3A10709   8.821   0.523   7.832
  432POPC   C4A10710   8.837   0.603   7.360
  432POPC   C1B10711   9.368   0.622   8.719
  432POPC   C2B10712   9.360   0.525   8.295
  432POPC   C3B10713   9.336   0.625   7.885
  432POPC   C4B10714   9.262   0.387   7.532
  433POPC   NC310715  12.822  43.682   9.530
  433POPC   PO410716  12.975  44.300   9.745
  433POPC   GL110717  13.057  44.036   9.261
  433POPC   GL210718  12.801  43.783   9.052
  433POPC   C1A10719  13.158  43.957   8.785
  433POPC   D2A10720  13.015  44.041   8.359
  433POPC   C3A10721  13.117  43.858   7.967
  433POPC   C4A10722  12.939  43.850   7.560
  433POPC   C1B10723  12.532  43.798   8.723
  433POPC   C2B10724  12.470  44.006   8.364
  433POPC   C3B10725  12.609  43.922   7.979
  433POPC   C4B10726  12.509  43.591   7.758
  434POPC   NC310727  36.513  37.485   9.541
  434POPC   PO410728  37.131  37.823   9.497
  434POPC   GL110729  36.856  37.656   9.173
  434POPC   GL210730  36.522  37.745   9.098
  434POPC   C1A10731  36.877  37.525   8.738
  434POPC   D2A10732  37.145  37.478   8.366
  434POPC   C3A10733  36.991  37.419   7.942
  434POPC   C4A10734  36.823  37.828   7.779
  434POPC   C1B10735  36.516  37.895   8.693
  434POPC   C2B10736  36.686  37.745   8.306
  434POPC   C3B10737  36.488  37.474   8.020
  434POPC   C4B10738  36.347  37.650   7.650
  435POPC   NC310739   5.690  25.674   9.312
  435POPC   PO410740   6.021  25.265   9.820
  435POPC   GL110741   5.932  25.172   9.330
  435POPC   GL210742   5.622  25.176   9.103
  435POPC   C1A10743   6.039  24.998   8.886
  435POPC   D2A10744   5.894  24.995   8.432
  435POPC   C3A10745   5.973  25.307   8.100
  435POPC   C4A10746   5.760  25.155   7.760
  435POPC   C1B10747   5.444  25.080   8.689
  435POPC   C2B10748   5.472  25.339   8.283
  435POPC   C3B10749   5.426  25.520   7.863
  435POPC   C4B10750   5.741  25.618   7.539
  436POPC   NC310751   1.575   1.816   9.873
  436POPC   PO410752   1.169   2.159   9.444
  436POPC   GL110753   1.218   2.239   9.052
  436POPC   GL210754   1.005   1.965   9.005
  436POPC   C1A10755   1.330   2.050   8.642
  436POPC   D2A10756   1.373   1.733   8.329
  436POPC   C3A10757   1.268   1.961   7.948
  436POPC   C4A10758   1.541   2.241   7.757
  436POPC   C1B10759   0.846   2.303   8.717
  436POPC   C2B10760   0.613   2.309   8.328
  436POPC   C3B10761   0.757   2.154   7.937
  436POPC   C4B10762   0.792   2.045   7.496
  437POPC   NC310763  31.395  31.183   9.491
  437POPC   PO410764  31.838  31.686   9.529
  437POPC   GL110765  31.721  31.705   9.133
  437POPC   GL210766  31.776  31.364   9.028
  437POPC   C1A10767  31.591  31.777   8.735
  437POPC   D2A10768  31.481  31.509   8.415
  437POPC   C3A10769  31.382  31.677   8.020
  437POPC   C4A10770  31.540  32.041   7.878
  437POPC   C1B10771  31.861  31.067   8.662
  437POPC   C2B10772  31.676  31.045   8.240
  437POPC   C3B10773  31.222  31.191   8.125
  437POPC   C4B10774  31.097  31.326   7.751
  438POPC   NC310775   4.236  11.718   9.922
  438POPC   PO410776   4.229  12.163   9.465
  438POPC   GL110777   4.484  12.279   9.141
  438POPC   GL210778   4.395  11.955   9.031
  438POPC   C1A10779   4.363  12.321   8.708
  438POPC   D2A10780   4.255  12.453   8.322
  438POPC   C3A10781   4.455  12.208   8.049
  438POPC   C4A10782   4.301  12.229   7.656
  438POPC   C1B10783   4.124  11.784   8.767
  438POPC   C2B10784   4.273  11.884   8.402
  438POPC   C3B10785   4.338  11.683   8.071
  438POPC   C4B10786   4.188  11.722   7.706
  439POPC   NC310787  32.162  37.870   9.502
  439POPC   PO410788  32.180  37.300   9.283
  439POPC   GL110789  32.332  37.612   9.086
  439POPC   GL210790  32.623  37.647   9.229
  439POPC   C1A10791  32.234  37.677   8.706
  439POPC   D2A10792  32.276  37.527   8.329
  439POPC   C3A10793  32.024  37.752   8.040
  439POPC   C4A10794  32.143  37.717   7.635
  439POPC   C1B10795  32.711  37.869   8.828
  439POPC   C2B10796  32.527  37.966   8.411
  439POPC   C3B10797  32.510  37.851   7.969
  439POPC   C4B10798  32.626  37.995   7.557
  440POPC   NC310799  42.300  43.526   9.378
  440POPC   PO410800  42.072  44.039   9.723
  440POPC   GL110801  42.146  44.021   9.263
  440POPC   GL210802  41.919  43.763   9.103
  440POPC   C1A10803  42.377  43.996   8.835
  440POPC   D2A10804  42.256  43.922   8.369
  440POPC   C3A10805  42.606  43.973   8.071
  440POPC   C4A10806  42.750  43.747   7.688
  440POPC   C1B10807  41.888  44.062   8.722
  440POPC   C2B10808  41.865  44.238   8.241
  440POPC   C3B10809  42.091  44.080   7.863
  440POPC   C4B10810  42.272  43.671   7.838
  441POPC   NC310811  38.469  41.729   9.382
  441POPC   PO410812  38.690  42.384   9.600
  441POPC   GL110813  38.478  42.239   9.227
  441POPC   GL210814  38.799  42.085   9.173
  441POPC   C1A10815  38.250  42.321   8.791
  441POPC   D2A10816  38.244  42.639   8.417
  441POPC   C3A10817  38.062  42.507   7.998
  441POPC   C4A10818  38.177  42.117   7.765
  441POPC   C1B10819  38.752  42.347   8.811
  441POPC   C2B10820  38.758  42.511   8.401
  441POPC   C3B10821  38.559  42.425   8.007
  441POPC   C4B10822  38.667  42.199   7.643
  442POPC   NC310823  28.159  14.778   9.555
  442POPC   PO410824  28.670  14.245   9.556
  442POPC   GL110825  28.524  14.189   9.160
  442POPC   GL210826  28.250  14.425   9.187
  442POPC   C1A10827  28.571  14.415   8.783
  442POPC   D2A10828  28.790  14.451   8.430
  442POPC   C3A10829  28.627  14.434   8.041
  442POPC   C4A10830  28.570  14.559   7.622
  442POPC   C1B10831  28.099  14.640   8.810
  442POPC   C2B10832  28.187  14.460   8.368
  442POPC   C3B10833  28.163  14.620   7.932
  442POPC   C4B10834  27.977  14.813   7.584
  443POPC   NC310835  43.650   6.455   9.568
  443POPC   PO410836  44.385   6.734   9.619
  443POPC   GL110837  44.090   6.698   9.269
  443POPC   GL210838  43.721   6.696   9.120
  443POPC   C1A10839  44.154   6.801   8.843
  443POPC   D2A10840  43.821   6.713   8.518
  443POPC   C3A10841  43.899   6.706   8.092
  443POPC   C4A10842  44.207   6.672   7.767
  443POPC   C1B10843  43.495   6.976   8.793
  443POPC   C2B10844  43.563   7.170   8.374
  443POPC   C3B10845  43.460   7.038   7.932
  443POPC   C4B10846  43.623   6.682   7.667
  444POPC   NC310847   6.935  30.558   9.475
  444POPC   PO410848   6.305  30.777   9.601
  444POPC   GL110849   6.542  30.631   9.176
  444POPC   GL210850   6.904  30.856   9.073
  444POPC   C1A10851   6.706  30.545   8.737
  444POPC   D2A10852   6.397  30.776   8.487
  444POPC   C3A10853   6.539  30.899   8.095
  444POPC   C4A10854   6.777  30.775   7.730
  444POPC   C1B10855   6.996  30.976   8.605
  444POPC   C2B10856   7.092  30.801   8.180
  444POPC   C3B10857   7.219  30.528   7.821
  444POPC   C4B10858   6.941  30.354   7.485
  445POPC   NC310859  28.802  36.151   9.453
  445POPC   PO410860  29.504  35.950   9.545
  445POPC   GL110861  29.393  36.031   9.129
  445POPC   GL210862  29.063  36.128   9.028
  445POPC   C1A10863  29.392  35.953   8.672
  445POPC   D2A10864  29.182  35.749   8.317
  445POPC   C3A10865  29.191  36.031   7.996
  445POPC   C4A10866  29.256  36.453   7.808
  445POPC   C1B10867  28.867  35.856   8.728
  445POPC   C2B10868  28.712  35.963   8.372
  445POPC   C3B10869  28.738  35.775   7.992
  445POPC   C4B10870  28.827  36.016   7.649
  446POPC   NC310871  26.765  20.982   9.764
  446POPC   PO410872  27.178  20.402   9.631
  446POPC   GL110873  26.919  20.555   9.218
  446POPC   GL210874  26.789  20.909   9.225
  446POPC   C1A10875  26.748  20.527   8.754
  446POPC   D2A10876  26.893  20.279   8.355
  446POPC   C3A10877  26.789  20.221   7.950
  446POPC   C4A10878  26.657  20.409   7.553
  446POPC   C1B10879  26.965  20.985   8.812
  446POPC   C2B10880  26.847  20.918   8.388
  446POPC   C3B10881  26.801  20.728   7.972
  446POPC   C4B10882  27.043  20.788   7.592
  447POPC   NC310883  35.985   4.576   9.341
  447POPC   PO410884  36.081   4.056   9.706
  447POPC   GL110885  36.114   4.043   9.176
  447POPC   GL210886  36.442   4.092   9.063
  447POPC   C1A10887  36.026   4.234   8.726
  447POPC   D2A10888  36.032   4.582   8.410
  447POPC   C3A10889  36.030   4.476   7.977
  447POPC   C4A10890  35.753   4.262   7.710
  447POPC   C1B10891  36.555   4.317   8.689
  447POPC   C2B10892  36.417   4.263   8.272
  447POPC   C3B10893  36.377   4.112   7.866
  447POPC   C4B10894  36.241   4.310   7.490
  448POPC   NC310895  41.854   1.819   9.605
  448POPC   PO410896  41.284   2.166   9.559
  448POPC   GL110897  41.538   2.026   9.197
  448POPC   GL210898  41.208   1.920   9.116
  448POPC   C1A10899  41.779   2.031   8.784
  448POPC   D2A10900  42.063   2.041   8.459
  448POPC   C3A10901  41.923   1.824   8.097
  448POPC   C4A10902  41.853   2.014   7.712
  448POPC   C1B10903  41.294   1.920   8.721
  448POPC   C2B10904  41.496   1.750   8.388
  448POPC   C3B10905  41.400   1.848   7.975
  448POPC   C4B10906  41.362   1.865   7.522
  449POPC   NC310907  10.487  15.611   9.818
  449POPC   PO410908  10.382  15.001   9.463
  449POPC   GL110909  10.355  15.078   9.048
  449POPC   GL210910  10.071  15.237   9.046
  449POPC   C1A10911  10.685  15.156   8.730
  449POPC   D2A10912  10.698  15.310   8.312
  449POPC   C3A10913  10.424  15.138   7.998
  449POPC   C4A10914  10.631  15.016   7.619
  449POPC   C1B10915  10.209  15.306   8.596
  449POPC   C2B10916  10.283  15.605   8.253
  449POPC   C3B10917  10.283  15.602   7.801
  449POPC   C4B10918  10.362  15.412   7.351
  450POPC   NC310919  13.413  32.053   9.672
  450POPC   PO410920  14.027  32.419   9.389
  450POPC   GL110921  13.738  32.353   9.069
  450POPC   GL210922  13.401  32.376   9.175
  450POPC   C1A10923  13.599  32.260   8.679
  450POPC   D2A10924  13.533  32.470   8.308
  450POPC   C3A10925  13.657  32.238   7.967
  450POPC   C4A10926  13.647  31.904   7.694
  450POPC   C1B10927  13.166  32.518   8.788
  450POPC   C2B10928  13.011  32.418   8.372
  450POPC   C3B10929  13.174  32.422   7.963
  450POPC   C4B10930  13.274  32.220   7.575
  451POPC   NC310931  36.355  32.036   9.563
  451POPC   PO410932  35.774  32.319   9.517
  451POPC   GL110933  36.002  32.151   9.185
  451POPC   GL210934  35.997  32.437   8.984
  451POPC   C1A10935  36.250  32.051   8.805
  451POPC   D2A10936  36.437  32.215   8.435
  451POPC   C3A10937  36.358  32.080   8.002
  451POPC   C4A10938  36.442  32.417   7.755
  451POPC   C1B10939  35.756  32.096   8.736
  451POPC   C2B10940  35.933  32.032   8.345
  451POPC   C3B10941  36.024  32.430   8.170
  451POPC   C4B10942  35.956  32.519   7.769
  452POPC   NC310943  23.574  37.419   9.568
  452POPC   PO410944  23.826  37.939   9.431
  452POPC   GL110945  23.521  37.757   9.166
  452POPC   GL210946  23.333  37.468   9.127
  452POPC   C1A10947  23.564  37.821   8.755
  452POPC   D2A10948  23.714  37.978   8.389
  452POPC   C3A10949  23.702  37.801   8.010
  452POPC   C4A10950  23.764  37.974   7.607
  452POPC   C1B10951  23.154  37.464   8.743
  452POPC   C2B10952  23.360  37.542   8.377
  452POPC   C3B10953  23.296  37.475   8.021
  452POPC   C4B10954  23.444  37.589   7.640
  453POPC   NC310955  41.071  20.479   9.531
  453POPC   PO410956  40.447  20.815   9.576
  453POPC   GL110957  40.561  20.841   9.124
  453POPC   GL210958  40.464  21.175   9.028
  453POPC   C1A10959  40.833  20.722   8.743
  453POPC   D2A10960  41.009  20.846   8.313
  453POPC   C3A10961  40.874  20.686   7.903
  453POPC   C4A10962  40.632  20.334   7.708
  453POPC   C1B10963  40.377  20.972   8.646
  453POPC   C2B10964  40.503  20.943   8.226
  453POPC   C3B10965  40.382  20.787   7.809
  453POPC   C4B10966  40.326  20.617   7.381
  454POPC   NC310967  32.831   0.028   9.326
  454POPC   PO410968  33.240   0.556   9.541
  454POPC   GL110969  33.088   0.567   9.157
  454POPC   GL210970  32.730   0.515   9.085
  454POPC   C1A10971  33.319   0.589   8.812
  454POPC   D2A10972  33.225   0.681   8.437
  454POPC   C3A10973  33.284   0.406   8.109
  454POPC   C4A10974  33.283   0.584   7.707
  454POPC   C1B10975  32.853   0.402   8.702
  454POPC   C2B10976  32.763   0.500   8.304
  454POPC   C3B10977  32.834   0.388   7.880
  454POPC   C4B10978  32.835   0.105   7.559
  455POPC   NC310979  24.385  44.189   9.509
  455POPC   PO410980  24.759  43.648   9.699
  455POPC   GL110981  24.437  43.699   9.294
  455POPC   GL210982  24.501  43.983   9.068
  455POPC   C1A10983  24.265  43.622   8.830
  455POPC   D2A10984  24.389  43.398   8.461
  455POPC   C3A10985  24.324  43.596   8.104
  455POPC   C4A10986  24.330  44.008   7.907
  455POPC   C1B10987  24.717  44.146   8.709
  455POPC   C2B10988  24.628  44.006   8.305
  455POPC   C3B10989  24.819  44.138   7.901
  455POPC   C4B10990  24.721  44.053   7.466
  456POPC   NC310991  32.833  32.533   9.693
  456POPC   PO410992  33.014  33.192   9.684
  456POPC   GL110993  32.896  33.008   9.227
  456POPC   GL210994  32.796  32.682   9.167
  456POPC   C1A10995  32.846  33.169   8.819
  456POPC   D2A10996  32.623  33.146   8.428
  456POPC   C3A10997  32.781  33.005   8.017
  456POPC   C4A10998  32.918  33.227   7.639
  456POPC   C1B10999  33.018  32.706   8.748
  456POPC   C2B11000  33.169  33.015   8.423
  456POPC   C3B11001  33.300  32.947   7.984
  456POPC   C4B11002  33.140  32.784   7.581
  457POPC   NC311003  41.951   6.000   9.466
  457POPC   PO411004  42.524   5.603   9.425
  457POPC   GL111005  42.269   5.745   9.115
  457POPC   GL211006  42.276   6.066   8.984
  457POPC   C1A11007  42.393   5.638   8.703
  457POPC   D2A11008  42.623   5.744   8.333
  457POPC   C3A11009  42.369   5.981   8.118
  457POPC   C4A11010  42.293   5.998   7.690
  457POPC   C1B11011  41.944   5.909   8.706
  457POPC   C2B11012  41.963   5.642   8.318
  457POPC   C3B11013  42.166   5.547   7.904
  457POPC   C4B11014  42.023   5.542   7.460
  458POPC   NC311015  24.275  10.921   9.519
  458POPC   PO411016  24.689  11.492   9.516
  458POPC   GL111017  24.564  11.208   9.202
  458POPC   GL211018  24.223  11.399   9.206
  458POPC   C1A11019  24.720  10.995   8.807
  458POPC   D2A11020  24.772  10.822   8.361
  458POPC   C3A11021  24.610  11.102   8.010
  458POPC   C4A11022  24.596  11.113   7.546
  458POPC   C1B11023  24.249  11.208   8.805
  458POPC   C2B11024  24.238  11.342   8.388
  458POPC   C3B11025  24.121  11.496   8.008
  458POPC   C4B11026  24.151  11.327   7.612
  459POPC   NC311027  40.250   4.232   9.335
  459POPC   PO411028  39.919   4.632   9.703
  459POPC   GL111029  39.845   4.525   9.213
  459POPC   GL211030  39.776   4.204   9.112
  459POPC   C1A11031  39.790   4.578   8.759
  459POPC   D2A11032  40.131   4.652   8.450
  459POPC   C3A11033  40.160   4.465   8.032
  459POPC   C4A11034  39.819   4.352   7.774
  459POPC   C1B11035  39.937   4.001   8.785
  459POPC   C2B11036  40.049   4.109   8.410
  459POPC   C3B11037  39.967   3.937   8.044
  459POPC   C4B11038  40.254   3.987   7.780
  460POPC   NC311039   4.497  30.663   9.524
  460POPC   PO411040   3.822  30.951   9.559
  460POPC   GL111041   3.999  30.760   9.167
  460POPC   GL211042   4.130  30.424   9.181
  460POPC   C1A11043   3.996  30.585   8.707
  460POPC   D2A11044   4.143  30.423   8.315
  460POPC   C3A11045   3.938  30.624   7.959
  460POPC   C4A11046   4.096  30.910   7.654
  460POPC   C1B11047   4.466  30.629   8.892
  460POPC   C2B11048   4.479  30.807   8.501
  460POPC   C3B11049   4.397  30.850   8.092
  460POPC   C4B11050   4.589  30.761   7.737
  461POPC   NC311051  30.643  33.370   9.476
  461POPC   PO411052  30.569  32.712   9.374
  461POPC   GL111053  30.835  32.911   9.072
  461POPC   GL211054  30.548  33.113   9.003
  461POPC   C1A11055  30.896  33.059   8.632
  461POPC   D2A11056  30.663  33.053   8.228
  461POPC   C3A11057  30.736  33.046   7.757
  461POPC   C4A11058  30.801  33.072   7.316
  461POPC   C1B11059  30.515  32.734   8.680
  461POPC   C2B11060  30.425  32.593   8.240
  461POPC   C3B11061  30.272  32.894   7.909
  461POPC   C4B11062  30.329  33.352   7.900
  462POPC   NC311063  31.175  14.827   9.750
  462POPC   PO411064  31.770  15.080   9.505
  462POPC   GL111065  31.606  15.037   9.076
  462POPC   GL211066  31.287  15.141   9.093
  462POPC   C1A11067  31.602  15.045   8.622
  462POPC   D2A11068  31.667  15.422   8.324
  462POPC   C3A11069  31.653  15.246   7.909
  462POPC   C4A11070  31.604  14.797   7.767
  462POPC   C1B11071  31.304  15.430   8.748
  462POPC   C2B11072  31.173  15.201   8.368
  462POPC   C3B11073  31.180  15.054   7.954
  462POPC   C4B11074  31.091  15.343   7.671
  463POPC   NC311075  31.171  34.219   9.507
  463POPC   PO411076  31.248  34.950   9.647
  463POPC   GL111077  31.470  34.749   9.207
  463POPC   GL211078  31.323  34.412   9.078
  463POPC   C1A11079  31.607  34.642   8.742
  463POPC   D2A11080  31.701  34.359   8.422
  463POPC   C3A11081  31.653  34.530   7.997
  463POPC   C4A11082  31.587  34.412   7.570
  463POPC   C1B11083  31.215  34.215   8.683
  463POPC   C2B11084  31.210  34.364   8.260
  463POPC   C3B11085  31.097  34.219   7.854
  463POPC   C4B11086  31.136  34.239   7.407
  464POPC   NC311087  32.623  26.820   9.369
  464POPC   PO411088  32.039  26.858   9.685
  464POPC   GL111089  32.119  26.695   9.241
  464POPC   GL211090  32.342  26.427   9.078
  464POPC   C1A11091  32.113  26.789   8.799
  464POPC   D2A11092  32.269  26.967   8.412
  464POPC   C3A11093  32.055  26.928   8.023
  464POPC   C4A11094  32.288  26.709   7.724
  464POPC   C1B11095  32.453  26.468   8.612
  464POPC   C2B11096  32.491  26.533   8.166
  464POPC   C3B11097  32.517  26.270   7.811
  464POPC   C4B11098  32.349  26.291   7.414
  465POPC   NC311099  10.763  33.066   9.636
  465POPC   PO411100  10.203  32.724   9.661
  465POPC   GL111101  10.391  32.873   9.219
  465POPC   GL211102  10.548  33.225   9.167
  465POPC   C1A11103  10.426  33.001   8.736
  465POPC   D2A11104  10.131  33.036   8.376
  465POPC   C3A11105  10.315  33.236   8.020
  465POPC   C4A11106  10.551  33.106   7.679
  465POPC   C1B11107  10.667  33.449   8.748
  465POPC   C2B11108  10.724  33.225   8.352
  465POPC   C3B11109  10.935  33.287   7.962
  465POPC   C4B11110  10.950  33.368   7.527
  466POPC   NC311111  35.916  31.137   9.544
  466POPC   PO411112  36.468  31.600   9.478
  466POPC   GL111113  36.271  31.374   9.112
  466POPC   GL211114  35.929  31.294   9.073
  466POPC   C1A11115  36.254  31.216   8.682
  466POPC   D2A11116  36.159  31.529   8.366
  466POPC   C3A11117  36.248  31.526   7.962
  466POPC   C4A11118  36.046  31.780   7.710
  466POPC   C1B11119  35.931  31.627   8.808
  466POPC   C2B11120  35.660  31.609   8.444
  466POPC   C3B11121  35.744  31.408   8.035
  466POPC   C4B11122  35.576  31.553   7.648
  467POPC   NC311123  11.812  35.581   9.571
  467POPC   PO411124  12.109  34.971   9.674
  467POPC   GL111125  12.084  35.286   9.252
  467POPC   GL211126  11.808  35.433   9.060
  467POPC   C1A11127  12.307  35.518   8.941
  467POPC   D2A11128  12.402  35.569   8.529
  467POPC   C3A11129  12.366  35.658   8.110
  467POPC   C4A11130  12.358  35.402   7.781
  467POPC   C1B11131  11.893  35.349   8.640
  467POPC   C2B11132  11.907  35.620   8.310
  467POPC   C3B11133  11.887  35.560   7.910
  467POPC   C4B11134  11.902  35.222   7.677
  468POPC   NC311135   8.564  17.204   9.462
  468POPC   PO411136   7.938  17.422   9.566
  468POPC   GL111137   8.164  17.537   9.208
  468POPC   GL211138   7.861  17.657   9.079
  468POPC   C1A11139   8.294  17.594   8.785
  468POPC   D2A11140   8.448  17.700   8.377
  468POPC   C3A11141   8.302  17.646   7.952
  468POPC   C4A11142   8.570  17.681   7.595
  468POPC   C1B11143   7.870  17.320   8.730
  468POPC   C2B11144   8.012  17.292   8.250
  468POPC   C3B11145   7.862  17.395   7.784
  468POPC   C4B11146   7.787  17.451   7.294
  469POPC   NC311147   8.841  25.462   9.579
  469POPC   PO411148   9.326  25.051   9.614
  469POPC   GL111149   9.124  25.194   9.206
  469POPC   GL211150   8.807  25.311   9.092
  469POPC   C1A11151   9.246  25.403   8.793
  469POPC   D2A11152   9.014  25.435   8.403
  469POPC   C3A11153   9.203  25.339   8.013
  469POPC   C4A11154   9.016  25.442   7.638
  469POPC   C1B11155   8.870  25.043   8.737
  469POPC   C2B11156   8.652  24.985   8.359
  469POPC   C3B11157   8.745  25.113   7.973
  469POPC   C4B11158   8.990  24.914   7.667
  470POPC   NC311159   4.598  18.107   9.909
  470POPC   PO411160   5.122  18.420   9.717
  470POPC   GL111161   5.131  18.495   9.262
  470POPC   GL211162   5.211  18.178   9.098
  470POPC   C1A11163   4.859  18.473   8.863
  470POPC   D2A11164   4.969  18.381   8.436
  470POPC   C3A11165   4.833  18.341   8.021
  470POPC   C4A11166   5.199  18.353   7.769
  470POPC   C1B11167   5.099  17.990   8.724
  470POPC   C2B11168   5.003  17.849   8.310
  470POPC   C3B11169   5.059  17.875   7.854
  470POPC   C4B11170   5.059  17.823   7.395
  471POPC   NC311171  38.851   5.082   9.580
  471POPC   PO411172  38.134   4.803   9.641
  471POPC   GL111173  38.187   4.875   9.224
  471POPC   GL211174  38.437   5.135   9.252
  471POPC   C1A11175  38.346   4.908   8.813
  471POPC   D2A11176  38.520   5.105   8.490
  471POPC   C3A11177  38.513   4.871   8.127
  471POPC   C4A11178  38.347   4.905   7.703
  471POPC   C1B11179  38.122   5.332   8.946
  471POPC   C2B11180  38.037   5.258   8.476
  471POPC   C3B11181  38.227   5.267   8.049
  471POPC   C4B11182  38.601   5.353   7.766
  472POPC   NC311183  28.912  24.918   9.410
  472POPC   PO411184  29.458  24.642   9.730
  472POPC   GL111185  29.460  24.669   9.244
  472POPC   GL211186  29.156  24.607   9.052
  472POPC   C1A11187  29.554  24.375   8.846
  472POPC   D2A11188  29.649  24.277   8.410
  472POPC   C3A11189  29.470  24.484   8.049
  472POPC   C4A11190  29.331  24.608   7.628
  472POPC   C1B11191  28.880  24.391   8.764
  472POPC   C2B11192  28.895  24.406   8.330
  472POPC   C3B11193  28.787  24.484   7.904
  472POPC   C4B11194  28.896  24.374   7.510
  473POPC   NC311195  38.413   7.648   9.689
  473POPC   PO411196  38.328   7.085   9.839
  473POPC   GL111197  38.439   7.221   9.389
  473POPC   GL211198  38.738   7.436   9.298
  473POPC   C1A11199  38.354   7.428   8.958
  473POPC   D2A11200  38.260   7.763   8.629
  473POPC   C3A11201  38.216   7.592   8.196
  473POPC   C4A11202  38.440   7.454   7.830
  473POPC   C1B11203  38.815   7.619   8.871
  473POPC   C2B11204  38.730   7.710   8.467
  473POPC   C3B11205  38.864   7.607   8.071
  473POPC   C4B11206  38.929   7.323   7.708
  474POPC   NC311207  24.792   6.831   9.441
  474POPC   PO411208  25.494   6.613   9.520
  474POPC   GL111209  25.211   6.704   9.167
  474POPC   GL211210  25.109   7.049   9.098
  474POPC   C1A11211  25.118   6.654   8.719
  474POPC   D2A11212  25.282   6.708   8.307
  474POPC   C3A11213  25.401   6.296   8.142
  474POPC   C4A11214  25.287   6.204   7.729
  474POPC   C1B11215  24.983   7.141   8.659
  474POPC   C2B11216  25.062   7.192   8.207
  474POPC   C3B11217  25.127   6.930   7.850
  474POPC   C4B11218  25.501   6.679   7.828
  475POPC   NC311219   9.046  29.666   9.503
  475POPC   PO411220   8.883  30.329   9.653
  475POPC   GL111221   9.017  30.141   9.288
  475POPC   GL211222   8.665  30.103   9.211
  475POPC   C1A11223   9.152  29.935   8.897
  475POPC   D2A11224   9.138  29.798   8.469
  475POPC   C3A11225   9.035  29.801   8.006
  475POPC   C4A11226   8.881  29.541   7.642
  475POPC   C1B11227   8.576  30.207   8.794
  475POPC   C2B11228   8.671  30.060   8.401
  475POPC   C3B11229   8.665  30.224   8.025
  475POPC   C4B11230   8.712  30.028   7.633
  476POPC   NC311231  43.386  12.145   9.458
  476POPC   PO411232  42.923  11.721   9.608
  476POPC   GL111233  43.015  11.848   9.191
  476POPC   GL211234  43.339  11.708   9.159
  476POPC   C1A11235  42.885  11.979   8.761
  476POPC   D2A11236  42.731  11.829   8.359
  476POPC   C3A11237  42.858  12.074   8.026
  476POPC   C4A11238  43.171  12.044   7.705
  476POPC   C1B11239  43.422  11.962   8.797
  476POPC   C2B11240  43.279  12.065   8.379
  476POPC   C3B11241  43.545  12.140   8.018
  476POPC   C4B11242  43.468  12.462   7.690
  477POPC   NC311243  26.844   7.015   9.627
  477POPC   PO411244  27.233   6.477   9.468
  477POPC   GL111245  26.962   6.606   9.156
  477POPC   GL211246  27.068   6.938   9.162
  477POPC   C1A11247  26.822   6.742   8.733
  477POPC   D2A11248  26.585   6.541   8.396
  477POPC   C3A11249  26.492   6.701   8.021
  477POPC   C4A11250  26.778   6.771   7.745
  477POPC   C1B11251  27.299   6.972   8.792
  477POPC   C2B11252  27.190   6.903   8.373
  477POPC   C3B11253  27.255   7.049   7.970
  477POPC   C4B11254  27.188   6.969   7.540
  478POPC   NC311255  44.598  40.370   9.858
  478POPC   PO411256  44.303  39.907   9.471
  478POPC   GL111257  44.453  40.109   9.112
  478POPC   GL211258  44.807  40.096   9.092
  478POPC   C1A11259  44.490  40.171   8.672
  478POPC   D2A11260  44.752  40.310   8.348
  478POPC   C3A11261  44.458  40.263   8.012
  478POPC   C4A11262  44.409  39.919   7.702
  478POPC   C1B11263  44.700  39.720   8.800
  478POPC   C2B11264  44.614  39.757   8.349
  478POPC   C3B11265  44.833  39.933   7.998
  478POPC   C4B11266  44.934  39.794   7.600
  479POPC   NC311267  21.084   8.135   9.485
  479POPC   PO411268  21.744   8.319   9.502
  479POPC   GL111269  21.572   8.211   9.146
  479POPC   GL211270  21.315   8.454   9.145
  479POPC   C1A11271  21.423   7.923   8.820
  479POPC   D2A11272  21.332   7.923   8.371
  479POPC   C3A11273  21.602   8.041   8.000
  479POPC   C4A11274  21.652   7.830   7.576
  479POPC   C1B11275  21.474   8.446   8.708
  479POPC   C2B11276  21.238   8.442   8.339
  479POPC   C3B11277  21.073   8.190   8.028
  479POPC   C4B11278  21.274   8.183   7.620
  480POPC   NC311279   2.271  39.417   9.310
  480POPC   PO411280   2.227  38.892   9.758
  480POPC   GL111281   1.930  39.047   9.277
  480POPC   GL211282   1.627  39.239   9.197
  480POPC   C1A11283   1.944  39.124   8.769
  480POPC   D2A11284   1.969  38.935   8.323
  480POPC   C3A11285   2.067  39.281   8.001
  480POPC   C4A11286   1.924  39.253   7.548
  480POPC   C1B11287   1.490  39.370   8.785
  480POPC   C2B11288   1.643  39.333   8.361
  480POPC   C3B11289   1.578  39.152   7.946
  480POPC   C4B11290   1.409  39.208   7.549
  481POPC   NC311291  26.661  14.979   9.790
  481POPC   PO411292  27.281  15.130   9.658
  481POPC   GL111293  27.003  15.234   9.271
  481POPC   GL211294  26.629  15.231   9.317
  481POPC   C1A11295  27.017  15.265   8.802
  481POPC   D2A11296  26.943  15.414   8.362
  481POPC   C3A11297  27.075  15.114   8.025
  481POPC   C4A11298  27.091  15.082   7.554
  481POPC   C1B11299  26.624  14.950   8.961
  481POPC   C2B11300  26.528  15.117   8.544
  481POPC   C3B11301  26.588  15.083   8.104
  481POPC   C4B11302  26.378  15.192   7.720
  482POPC   NC311303  23.050  18.924   9.608
  482POPC   PO411304  23.578  19.235   9.600
  482POPC   GL111305  23.276  19.176   9.191
  482POPC   GL211306  22.882  19.145   9.182
  482POPC   C1A11307  23.097  19.191   8.721
  482POPC   D2A11308  22.984  19.327   8.253
  482POPC   C3A11309  23.155  19.104   7.875
  482POPC   C4A11310  23.158  18.783   7.510
  482POPC   C1B11311  22.734  18.856   8.837
  482POPC   C2B11312  22.694  18.912   8.355
  482POPC   C3B11313  22.649  19.119   7.913
  482POPC   C4B11314  22.815  19.148   7.483
  483POPC   NC311315  20.588  31.362   9.487
  483POPC   PO411316  20.961  31.932   9.606
  483POPC   GL111317  20.674  31.776   9.229
  483POPC   GL211318  20.445  31.510   9.035
  483POPC   C1A11319  20.678  31.903   8.828
  483POPC   D2A11320  20.887  31.759   8.469
  483POPC   C3A11321  20.627  31.794   8.099
  483POPC   C4A11322  20.782  31.621   7.717
  483POPC   C1B11323  20.398  31.507   8.589
  483POPC   C2B11324  20.649  31.325   8.289
  483POPC   C3B11325  20.610  31.162   7.894
  483POPC   C4B11326  20.923  31.128   7.587
  484POPC   NC311327   5.734  44.711   9.452
  484POPC   PO411328   6.040  44.128   9.397
  484POPC   GL111329   5.891  44.379   9.088
  484POPC   GL211330   6.132  44.664   9.138
  484POPC   C1A11331   6.009  44.517   8.676
  484POPC   D2A11332   6.115  44.560   8.253
  484POPC   C3A11333   5.824  44.692   7.964
  484POPC   C4A11334   5.739  44.494   7.598
  484POPC   C1B11335   6.087   0.015   8.796
  484POPC   C2B11336   6.224   0.042   8.350
  484POPC   C3B11337   6.302  44.903   7.898
  484POPC   C4B11338   6.374  44.917   7.446
  485POPC   NC311339  19.661  34.098   9.416
  485POPC   PO411340  19.949  33.460   9.519
  485POPC   GL111341  19.865  33.679   9.111
  485POPC   GL211342  19.937  34.041   9.010
  485POPC   C1A11343  19.829  33.689   8.662
  485POPC   D2A11344  19.941  33.474   8.295
  485POPC   C3A11345  19.723  33.509   7.912
  485POPC   C4A11346  19.839  33.676   7.479
  485POPC   C1B11347  20.000  34.205   8.629
  485POPC   C2B11348  19.845  34.033   8.246
  485POPC   C3B11349  20.050  33.916   7.883
  485POPC   C4B11350  20.191  34.064   7.487
  486POPC   NC311351  26.173  18.026   9.466
  486POPC   PO411352  26.245  18.688   9.434
  486POPC   GL111353  26.211  18.397   9.111
  486POPC   GL211354  25.865  18.285   9.136
  486POPC   C1A11355  26.109  18.459   8.705
  486POPC   D2A11356  26.294  18.603   8.350
  486POPC   C3A11357  26.191  18.317   8.026
  486POPC   C4A11358  26.133  18.423   7.636
  486POPC   C1B11359  25.905  17.935   8.838
  486POPC   C2B11360  25.958  18.010   8.419
  486POPC   C3B11361  25.766  18.027   8.070
  486POPC   C4B11362  25.925  17.961   7.679
  487POPC   NC311363   1.920  10.320   9.438
  487POPC   PO411364   2.289  10.849   9.273
  487POPC   GL111365   1.878  10.672   9.072
  487POPC   GL211366   2.123  10.456   8.979
  487POPC   C1A11367   1.735  10.289   8.758
  487POPC   D2A11368   2.031  10.249   8.396
  487POPC   C3A11369   1.933  10.576   8.079
  487POPC   C4A11370   1.865  10.366   7.706
  487POPC   C1B11371   2.040  10.718   8.598
  487POPC   C2B11372   2.373  10.748   8.310
  487POPC   C3B11373   2.423  10.473   7.994
  487POPC   C4B11374   2.259  10.680   7.658
  488POPC   NC311375  28.859  37.959   9.338
  488POPC   PO411376  29.349  37.726   9.746
  488POPC   GL111377  29.318  37.761   9.270
  488POPC   GL211378  29.081  37.520   9.148
  488POPC   C1A11379  29.194  37.853   8.800
  488POPC   D2A11380  29.207  37.657   8.417
  488POPC   C3A11381  29.206  37.861   8.026
  488POPC   C4A11382  29.217  37.672   7.638
  488POPC   C1B11383  28.781  37.517   8.779
  488POPC   C2B11384  28.813  37.293   8.397
  488POPC   C3B11385  29.023  37.368   8.015
  488POPC   C4B11386  28.805  37.336   7.671
  489POPC   NC311387   3.117   3.956   9.487
  489POPC   PO411388   2.790   4.566   9.474
  489POPC   GL111389   2.880   4.286   9.130
  489POPC   GL211390   2.673   4.011   9.066
  489POPC   C1A11391   2.917   4.238   8.665
  489POPC   D2A11392   2.690   4.473   8.331
  489POPC   C3A11393   2.880   4.406   7.923
  489POPC   C4A11394   2.746   4.458   7.517
  489POPC   C1B11395   2.429   4.250   8.769
  489POPC   C2B11396   2.283   4.158   8.327
  489POPC   C3B11397   2.401   4.215   7.919
  489POPC   C4B11398   2.377   4.086   7.485
  490POPC   NC311399  16.649  35.524   9.597
  490POPC   PO411400  16.996  34.957   9.719
  490POPC   GL111401  16.921  35.026   9.254
  490POPC   GL211402  16.594  35.204   9.168
  490POPC   C1A11403  16.926  35.024   8.792
  490POPC   D2A11404  16.807  35.258   8.431
  490POPC   C3A11405  16.945  35.171   8.003
  490POPC   C4A11406  16.882  35.169   7.538
  490POPC   C1B11407  16.776  35.526   8.876
  490POPC   C2B11408  16.579  35.728   8.512
  490POPC   C3B11409  16.670  35.614   8.084
  490POPC   C4B11410  16.528  35.589   7.686
  491POPC   NC311411  39.814  42.357   9.364
  491POPC   PO411412  40.412  42.374   9.705
  491POPC   GL111413  40.250  42.585   9.212
  491POPC   GL211414  39.956  42.750   9.081
  491POPC   C1A11415  40.226  42.482   8.723
  491POPC   D2A11416  40.177  42.144   8.378
  491POPC   C3A11417  40.372  42.233   7.953
  491POPC   C4A11418  40.242  42.600   7.713
  491POPC   C1B11419  39.719  42.527   8.734
  491POPC   C2B11420  39.720  42.356   8.308
  491POPC   C3B11421  39.505  42.284   7.937
  491POPC   C4B11422  39.300  42.543   7.650
  492POPC   NC311423  14.130  18.588   9.300
  492POPC   PO411424  14.594  18.118   9.556
  492POPC   GL111425  14.452  18.115   9.155
  492POPC   GL211426  14.691  17.851   9.084
  492POPC   C1A11427  14.287  18.262   8.745
  492POPC   D2A11428  14.171  18.271   8.304
  492POPC   C3A11429  14.355  18.525   7.997
  492POPC   C4A11430  14.272  18.457   7.557
  492POPC   C1B11431  14.644  17.911   8.701
  492POPC   C2B11432  14.458  17.855   8.334
  492POPC   C3B11433  14.675  17.962   7.997
  492POPC   C4B11434  14.688  18.193   7.652
  493POPC   NC311435  21.518  23.524   9.424
  493POPC   PO411436  21.308  24.152   9.608
  493POPC   GL111437  21.436  23.969   9.186
  493POPC   GL211438  21.163  23.753   9.119
  493POPC   C1A11439  21.578  23.751   8.798
  493POPC   D2A11440  21.624  23.815   8.375
  493POPC   C3A11441  21.562  23.567   8.016
  493POPC   C4A11442  21.472  23.681   7.542
  493POPC   C1B11443  21.054  23.664   8.684
  493POPC   C2B11444  21.131  23.725   8.235
  493POPC   C3B11445  21.023  23.702   7.778
  493POPC   C4B11446  20.917  23.779   7.305
  494POPC   NC311447  37.083   8.212   9.704
  494POPC   PO411448  36.746   7.841   9.539
  494POPC   GL111449  37.011   8.105   9.203
  494POPC   GL211450  37.022   8.483   9.193
  494POPC   C1A11451  37.055   8.091   8.720
  494POPC   D2A11452  37.058   8.301   8.269
  494POPC   C3A11453  37.079   8.195   7.822
  494POPC   C4A11454  37.052   7.806   7.565
  494POPC   C1B11455  37.005   8.596   8.718
  494POPC   C2B11456  36.963   8.801   8.285
  494POPC   C3B11457  36.910   8.703   7.817
  494POPC   C4B11458  36.596   8.651   7.475
  495POPC   NC311459  31.661   3.044   9.852
  495POPC   PO411460  31.394   3.606   9.528
  495POPC   GL111461  31.273   3.568   9.132
  495POPC   GL211462  31.058   3.303   9.153
  495POPC   C1A11463  31.527   3.596   8.776
  495POPC   D2A11464  31.771   3.729   8.450
  495POPC   C3A11465  31.682   3.724   7.999
  495POPC   C4A11466  31.802   3.388   7.693
  495POPC   C1B11467  31.153   3.265   8.702
  495POPC   C2B11468  31.302   3.482   8.321
  495POPC   C3B11469  31.190   3.585   7.887
  495POPC   C4B11470  31.194   3.339   7.502
  496POPC   NC311471  10.762   8.713   9.564
  496POPC   PO411472  10.137   8.884   9.453
  496POPC   GL111473  10.387   9.174   9.168
  496POPC   GL211474  10.746   9.121   9.192
  496POPC   C1A11475  10.586   9.201   8.724
  496POPC   D2A11476  10.655   8.967   8.328
  496POPC   C3A11477  10.597   9.107   7.889
  496POPC   C4A11478  10.393   9.114   7.471
  496POPC   C1B11479  10.861   8.782   8.831
  496POPC   C2B11480  10.960   8.545   8.418
  496POPC   C3B11481  10.932   8.700   7.973
  496POPC   C4B11482  10.545   8.649   7.671
  497POPC   NC311483  35.482  14.752   9.537
  497POPC   PO411484  35.183  15.373   9.466
  497POPC   GL111485  35.300  15.434   9.058
  497POPC   GL211486  35.524  15.134   9.115
  497POPC   C1A11487  35.248  15.192   8.691
  497POPC   D2A11488  35.449  15.083   8.352
  497POPC   C3A11489  35.172  15.069   8.042
  497POPC   C4A11490  35.292  14.872   7.675
  497POPC   C1B11491  35.736  15.343   8.764
  497POPC   C2B11492  35.797  15.481   8.331
  497POPC   C3B11493  35.576  15.382   7.935
  497POPC   C4B11494  35.575  15.502   7.487
  498POPC   NC311495   5.769  16.233   9.564
  498POPC   PO411496   6.178  15.693   9.398
  498POPC   GL111497   5.726  15.822   9.176
  498POPC   GL211498   5.610  16.180   9.086
  498POPC   C1A11499   5.452  15.840   8.768
  498POPC   D2A11500   5.698  16.061   8.453
  498POPC   C3A11501   5.635  16.176   8.029
  498POPC   C4A11502   5.844  15.989   7.672
  498POPC   C1B11503   6.022  16.215   8.899
  498POPC   C2B11504   6.186  16.247   8.478
  498POPC   C3B11505   6.192  16.040   8.082
  498POPC   C4B11506   6.285  16.258   7.713
  499POPC   NC311507   5.626  22.087   9.325
  499POPC   PO411508   6.172  22.378   9.480
  499POPC   GL111509   6.243  22.555   9.118
  499POPC   GL211510   5.898  22.548   8.986
  499POPC   C1A11511   6.358  22.683   8.734
  499POPC   D2A11512   6.028  22.691   8.444
  499POPC   C3A11513   6.048  22.505   8.036
  499POPC   C4A11514   5.661  22.493   7.807
  499POPC   C1B11515   5.721  22.310   8.646
  499POPC   C2B11516   5.811  22.096   8.261
  499POPC   C3B11517   5.644  21.988   7.888
  499POPC   C4B11518   5.501  21.597   7.866
  500POPC   NC311519   5.592  40.052   9.596
  500POPC   PO411520   6.136  39.673   9.618
  500POPC   GL111521   6.280  39.860   9.250
  500POPC   GL211522   5.998  40.085   9.260
  500POPC   C1A11523   6.247  40.036   8.822
  500POPC   D2A11524   6.045  40.227   8.475
  500POPC   C3A11525   6.235  40.077   8.109
  500POPC   C4A11526   6.081  40.052   7.701
  500POPC   C1B11527   5.769  39.835   8.926
  500POPC   C2B11528   5.571  39.931   8.514
  500POPC   C3B11529   5.705  40.031   8.082
  500POPC   C4B11530   5.671  39.766   7.702
  501POPC   NC311531   3.398  44.558   9.379
  501POPC   PO411532   3.901  44.969   9.422
  501POPC   GL111533   3.675  44.867   9.051
  501POPC   GL211534   3.315  44.972   9.078
  501POPC   C1A11535   3.533  44.563   8.725
  501POPC   D2A11536   3.467  44.333   8.326
  501POPC   C3A11537   3.479  44.560   7.936
  501POPC   C4A11538   3.319  44.445   7.506
  501POPC   C1B11539   3.431   0.057   8.638
  501POPC   C2B11540   3.307  44.960   8.226
  501POPC   C3B11541   3.517   0.103   7.901
  501POPC   C4B11542   3.926   0.031   7.981
  502POPC   NC311543  19.701  35.632   9.446
  502POPC   PO411544  19.599  34.948   9.513
  502POPC   GL111545  19.715  35.193   9.123
  502POPC   GL211546  20.009  35.431   9.083
  502POPC   C1A11547  19.718  35.327   8.669
  502POPC   D2A11548  20.014  35.370   8.310
  502POPC   C3A11549  19.826  35.283   7.882
  502POPC   C4A11550  19.544  35.585   7.668
  502POPC   C1B11551  20.083  35.720   8.718
  502POPC   C2B11552  20.296  35.824   8.325
  502POPC   C3B11553  20.069  35.733   7.939
  502POPC   C4B11554  20.054  35.599   7.506
  503POPC   NC311555   3.899  43.610   9.201
  503POPC   PO411556   3.648  44.177   9.558
  503POPC   GL111557   3.499  43.965   9.176
  503POPC   GL211558   3.166  43.753   9.175
  503POPC   C1A11559   3.668  44.069   8.765
  503POPC   D2A11560   3.933  44.148   8.406
  503POPC   C3A11561   3.799  44.046   8.018
  503POPC   C4A11562   3.378  44.050   7.850
  503POPC   C1B11563   3.309  43.680   8.758
  503POPC   C2B11564   3.543  43.763   8.371
  503POPC   C3B11565   3.564  43.582   7.961
  503POPC   C4B11566   3.318  43.576   7.590
  504POPC   NC311567  31.029  25.741   9.495
  504POPC   PO411568  30.535  26.228   9.600
  504POPC   GL111569  30.665  26.304   9.175
  504POPC   GL211570  30.765  25.998   9.118
  504POPC   C1A11571  30.582  26.480   8.793
  504POPC   D2A11572  30.814  26.477   8.381
  504POPC   C3A11573  30.700  26.119   8.121
  504POPC   C4A11574  30.662  26.369   7.815
  504POPC   C1B11575  30.949  25.724   8.823
  504POPC   C2B11576  30.965  25.561   8.430
  504POPC   C3B11577  30.967  25.701   8.007
  504POPC   C4B11578  30.668  25.791   7.688
  505POPC   NC311579  11.442   3.474   9.527
  505POPC   PO411580  11.177   3.994   9.595
  505POPC   GL111581  11.423   3.808   9.154
  505POPC   GL211582  11.500   3.386   9.034
  505POPC   C1A11583  11.569   3.770   8.722
  505POPC   D2A11584  11.276   3.746   8.409
  505POPC   C3A11585  11.380   3.863   8.012
  505POPC   C4A11586  11.417   3.428   7.843
  505POPC   C1B11587  11.227   3.210   8.685
  505POPC   C2B11588  11.022   3.004   8.301
  505POPC   C3B11589  10.975   3.181   7.865
  505POPC   C4B11590  10.963   3.658   7.761
  506POPC   NC311591  22.282  12.406   9.537
  506POPC   PO411592  22.091  11.777   9.551
  506POPC   GL111593  22.259  11.939   9.146
  506POPC   GL211594  22.535  12.166   9.171
  506POPC   C1A11595  22.326  11.786   8.702
  506POPC   D2A11596  22.205  12.032   8.321
  506POPC   C3A11597  22.122  11.897   7.886
  506POPC   C4A11598  22.020  11.974   7.451
  506POPC   C1B11599  22.501  12.261   8.743
  506POPC   C2B11600  22.531  12.450   8.334
  506POPC   C3B11601  22.360  12.377   7.923
  506POPC   C4B11602  22.450  12.193   7.533
  507POPC   NC311603  36.565  41.515   9.564
  507POPC   PO411604  37.144  41.794   9.704
  507POPC   GL111605  36.992  41.553   9.265
  507POPC   GL211606  36.640  41.392   9.086
  507POPC   C1A11607  37.031  41.534   8.795
  507POPC   D2A11608  37.119  41.289   8.408
  507POPC   C3A11609  37.087  41.597   8.119
  507POPC   C4A11610  37.115  41.635   7.692
  507POPC   C1B11611  36.683  41.208   8.655
  507POPC   C2B11612  36.585  41.337   8.238
  507POPC   C3B11613  36.752  41.304   7.857
  507POPC   C4B11614  36.611  41.155   7.481
  508POPC   NC311615  40.403  42.823   9.623
  508POPC   PO411616  40.252  43.382   9.658
  508POPC   GL111617  40.159  43.188   9.273
  508POPC   GL211618  39.790  43.230   9.198
  508POPC   C1A11619  40.174  43.279   8.836
  508POPC   D2A11620  40.174  43.018   8.475
  508POPC   C3A11621  40.013  43.206   8.097
  508POPC   C4A11622  40.119  43.100   7.694
  508POPC   C1B11623  39.735  43.050   8.745
  508POPC   C2B11624  39.682  42.875   8.311
  508POPC   C3B11625  39.748  42.755   7.853
  508POPC   C4B11626  39.640  42.921   7.420
  509POPC   NC311627  21.895   7.555   9.402
  509POPC   PO411628  22.251   6.985   9.504
  509POPC   GL111629  22.239   7.245   9.176
  509POPC   GL211630  21.974   7.136   9.066
  509POPC   C1A11631  22.233   7.594   8.851
  509POPC   D2A11632  22.315   7.791   8.456
  509POPC   C3A11633  22.084   7.808   8.047
  509POPC   C4A11634  22.078   7.541   7.709
  509POPC   C1B11635  22.106   7.150   8.650
  509POPC   C2B11636  22.060   7.303   8.233
  509POPC   C3B11637  22.223   7.098   7.881
  509POPC   C4B11638  22.129   7.055   7.445
  510POPC   NC311639  19.639   0.537   9.442
  510POPC   PO411640  20.238   0.550   9.735
  510POPC   GL111641  20.091   0.338   9.286
  510POPC   GL211642  19.836   0.074   9.203
  510POPC   C1A11643  19.986   0.391   8.783
  510POPC   D2A11644  20.034   0.256   8.310
  510POPC   C3A11645  19.887   0.512   7.920
  510POPC   C4A11646  20.040   0.657   7.478
  510POPC   C1B11647  19.569   0.056   8.832
  510POPC   C2B11648  19.533   0.247   8.430
  510POPC   C3B11649  19.497   0.111   8.005
  510POPC   C4B11650  19.315   0.312   7.646
  511POPC   NC311651  30.487  13.242   9.509
  511POPC   PO411652  30.491  13.928   9.538
  511POPC   GL111653  30.656  13.660   9.232
  511POPC   GL211654  30.365  13.503   9.091
  511POPC   C1A11655  30.859  13.558   8.836
  511POPC   D2A11656  30.706  13.463   8.407
  511POPC   C3A11657  30.781  13.660   8.015
  511POPC   C4A11658  30.544  13.636   7.657
  511POPC   C1B11659  30.462  13.844   8.795
  511POPC   C2B11660  30.381  13.864   8.364
  511POPC   C3B11661  30.425  14.039   7.971
  511POPC   C4B11662  30.140  13.945   7.660
  512POPC   NC311663  18.368  16.052   9.480
  512POPC   PO411664  18.563  15.448   9.301
  512POPC   GL111665  18.344  15.789   9.037
  512POPC   GL211666  18.515  16.125   8.988
  512POPC   C1A11667  18.237  15.809   8.600
  512POPC   D2A11668  17.969  15.762   8.234
  512POPC   C3A11669  18.130  15.906   7.832
  512POPC   C4A11670  18.526  15.824   7.647
  512POPC   C1B11671  18.252  16.319   8.666
  512POPC   C2B11672  18.257  16.207   8.252
  512POPC   C3B11673  18.558  16.253   7.923
  512POPC   C4B11674  18.813  16.225   7.501
  513POPC   NC311675   7.571  22.696   9.429
  513POPC   PO411676   7.023  23.083   9.386
  513POPC   GL111677   7.376  23.006   9.049
  513POPC   GL211678   7.713  22.796   8.970
  513POPC   C1A11679   7.341  22.929   8.620
  513POPC   D2A11680   7.434  22.786   8.216
  513POPC   C3A11681   7.142  22.949   7.938
  513POPC   C4A11682   7.148  23.312   7.674
  513POPC   C1B11683   7.880  23.114   8.719
  513POPC   C2B11684   7.679  23.250   8.341
  513POPC   C3B11685   7.617  23.153   7.882
  513POPC   C4B11686   7.783  23.249   7.466
  514POPC   NC311687  21.032  44.020   9.432
  514POPC   PO411688  21.522  43.584   9.641
  514POPC   GL111689  21.321  43.633   9.241
  514POPC   GL211690  21.636  43.694   9.083
  514POPC   C1A11691  21.164  43.688   8.807
  514POPC   D2A11692  21.388  43.702   8.390
  514POPC   C3A11693  21.241  43.767   7.958
  514POPC   C4A11694  21.308  43.614   7.534
  514POPC   C1B11695  21.543  44.037   8.771
  514POPC   C2B11696  21.571  44.289   8.438
  514POPC   C3B11697  21.686  44.050   8.093
  514POPC   C4B11698  21.740  43.822   7.709
  515POPC   NC311699  20.522   0.209   9.571
  515POPC   PO411700  20.847   0.823   9.421
  515POPC   GL111701  20.670   0.496   9.176
  515POPC   GL211702  20.404   0.634   9.012
  515POPC   C1A11703  20.678   0.315   8.734
  515POPC   D2A11704  20.450   0.557   8.416
  515POPC   C3A11705  20.416   0.411   7.979
  515POPC   C4A11706  20.756   0.373   7.681
  515POPC   C1B11707  20.771   0.818   8.771
  515POPC   C2B11708  20.838   0.936   8.379
  515POPC   C3B11709  20.734   0.812   8.004
  515POPC   C4B11710  20.894   0.899   7.631
  516POPC   NC311711  17.717  14.640   9.782
  516POPC   PO411712  17.122  14.489   9.480
  516POPC   GL111713  17.315  14.397   9.094
  516POPC   GL211714  17.631  14.280   8.946
  516POPC   C1A11715  17.167  14.170   8.747
  516POPC   D2A11716  17.289  14.088   8.323
  516POPC   C3A11717  17.688  14.259   8.106
  516POPC   C4A11718  17.557  14.470   7.734
  516POPC   C1B11719  17.455  14.601   8.642
  516POPC   C2B11720  17.385  14.656   8.217
  516POPC   C3B11721  17.669  14.891   8.005
  516POPC   C4B11722  17.966  14.792   7.703
  517POPC   NC311723  20.323  15.911   9.537
  517POPC   PO411724  20.955  15.597   9.516
  517POPC   GL111725  20.724  15.851   9.219
  517POPC   GL211726  20.445  15.643   9.122
  517POPC   C1A11727  20.549  16.023   8.812
  517POPC   D2A11728  20.620  15.876   8.386
  517POPC   C3A11729  20.543  16.109   8.038
  517POPC   C4A11730  20.517  15.985   7.613
  517POPC   C1B11731  20.490  15.516   8.732
  517POPC   C2B11732  20.375  15.384   8.321
  517POPC   C3B11733  20.376  15.633   7.968
  517POPC   C4B11734  20.050  15.903   7.777
  518POPC   NC311735   6.555  41.890   9.574
  518POPC   PO411736   6.443  41.199   9.482
  518POPC   GL111737   6.653  41.472   9.144
  518POPC   GL211738   6.741  41.836   9.115
  518POPC   C1A11739   6.492  41.608   8.725
  518POPC   D2A11740   6.246  41.659   8.313
  518POPC   C3A11741   6.480  41.561   7.959
  518POPC   C4A11742   6.502  41.261   7.632
  518POPC   C1B11743   6.982  41.701   8.777
  518POPC   C2B11744   6.816  41.670   8.348
  518POPC   C3B11745   6.966  41.479   7.997
  518POPC   C4B11746   6.870  41.630   7.584
  519POPC   NC311747   1.142  11.061   9.499
  519POPC   PO411748   1.569  11.539   9.324
  519POPC   GL111749   1.358  11.266   9.086
  519POPC   GL211750   1.049  11.442   9.130
  519POPC   C1A11751   1.391  11.010   8.737
  519POPC   D2A11752   1.199  11.022   8.345
  519POPC   C3A11753   1.442  11.021   8.012
  519POPC   C4A11754   1.314  11.350   7.774
  519POPC   C1B11755   0.949  11.331   8.728
  519POPC   C2B11756   0.700  11.212   8.381
  519POPC   C3B11757   0.853  11.219   7.971
  519POPC   C4B11758   0.821  11.412   7.574
  520POPC   NC311759   3.841   9.266   9.505
  520POPC   PO411760   3.339   8.842   9.576
  520POPC   GL111761   3.287   8.911   9.142
  520POPC   GL211762   3.627   8.993   9.124
  520POPC   C1A11763   3.290   9.087   8.718
  520POPC   D2A11764   3.133   9.139   8.307
  520POPC   C3A11765   3.432   9.256   7.987
  520POPC   C4A11766   3.772   9.278   7.699
  520POPC   C1B11767   3.771   8.890   8.719
  520POPC   C2B11768   3.551   8.820   8.315
  520POPC   C3B11769   3.703   8.680   7.923
  520POPC   C4B11770   4.001   8.834   7.578
  521POPC   NC311771   9.103  42.430   9.446
  521POPC   PO411772   8.591  42.082   9.288
  521POPC   GL111773   8.928  42.175   9.038
  521POPC   GL211774   9.200  41.979   9.216
  521POPC   C1A11775   8.905  42.377   8.641
  521POPC   D2A11776   8.720  42.304   8.237
  521POPC   C3A11777   9.005  42.359   7.905
  521POPC   C4A11778   8.935  42.649   7.570
  521POPC   C1B11779   9.267  41.911   8.777
  521POPC   C2B11780   9.206  42.079   8.335
  521POPC   C3B11781   9.236  41.890   7.916
  521POPC   C4B11782   8.983  41.947   7.546
  522POPC   NC311783  33.855  22.679   9.458
  522POPC   PO411784  33.555  23.211   9.522
  522POPC   GL111785  33.722  23.150   9.120
  522POPC   GL211786  34.052  23.046   9.116
  522POPC   C1A11787  33.830  23.219   8.699
  522POPC   D2A11788  33.581  23.004   8.439
  522POPC   C3A11789  33.614  23.054   8.008
  522POPC   C4A11790  33.709  22.730   7.757
  522POPC   C1B11791  34.030  22.729   8.776
  522POPC   C2B11792  34.039  22.766   8.307
  522POPC   C3B11793  34.144  22.969   7.891
  522POPC   C4B11794  34.032  22.938   7.404
  523POPC   NC311795   9.105   1.589   9.470
  523POPC   PO411796   8.783   2.196   9.658
  523POPC   GL111797   8.907   2.185   9.220
  523POPC   GL211798   8.796   1.878   9.137
  523POPC   C1A11799   9.228   2.022   8.898
  523POPC   D2A11800   9.427   2.221   8.508
  523POPC   C3A11801   9.272   2.211   8.064
  523POPC   C4A11802   9.150   2.239   7.625
  523POPC   C1B11803   8.757   2.024   8.716
  523POPC   C2B11804   8.946   1.900   8.307
  523POPC   C3B11805   8.968   1.819   7.835
  523POPC   C4B11806   8.760   1.946   7.441
  524POPC   NC311807   2.222   8.112   9.412
  524POPC   PO411808   1.558   8.444   9.403
  524POPC   GL111809   1.804   8.202   9.105
  524POPC   GL211810   1.676   7.888   9.005
  524POPC   C1A11811   2.069   8.266   8.736
  524POPC   D2A11812   2.299   8.622   8.536
  524POPC   C3A11813   2.263   8.632   8.090
  524POPC   C4A11814   2.140   8.254   7.869
  524POPC   C1B11815   1.888   7.787   8.621
  524POPC   C2B11816   2.233   7.673   8.317
  524POPC   C3B11817   2.276   7.757   7.913
  524POPC   C4B11818   1.851   7.841   7.750
  525POPC   NC311819  38.675  12.897   9.286
  525POPC   PO411820  39.381  13.062   9.531
  525POPC   GL111821  39.171  12.976   9.153
  525POPC   GL211822  39.476  12.872   8.981
  525POPC   C1A11823  39.133  13.121   8.707
  525POPC   D2A11824  39.449  12.877   8.460
  525POPC   C3A11825  39.212  12.837   8.138
  525POPC   C4A11826  39.205  12.912   7.735
  525POPC   C1B11827  39.110  12.633   8.767
  525POPC   C2B11828  39.125  12.368   8.382
  525POPC   C3B11829  39.111  12.391   7.912
  525POPC   C4B11830  39.030  12.501   7.465
  526POPC   NC311831  29.346   7.006   9.451
  526POPC   PO411832  28.890   7.572   9.382
  526POPC   GL111833  29.144   7.425   9.081
  526POPC   GL211834  29.011   7.081   9.092
  526POPC   C1A11835  29.115   7.643   8.686
  526POPC   D2A11836  28.837   7.757   8.350
  526POPC   C3A11837  28.892   7.562   7.936
  526POPC   C4A11838  29.183   7.572   7.581
  526POPC   C1B11839  29.253   7.088   8.709
  526POPC   C2B11840  29.139   7.278   8.329
  526POPC   C3B11841  29.123   7.077   7.975
  526POPC   C4B11842  29.370   7.072   7.629
  527POPC   NC311843  12.443  35.276   9.590
  527POPC   PO411844  13.067  35.493   9.754
  527POPC   GL111845  12.906  35.373   9.258
  527POPC   GL211846  13.152  35.409   8.978
  527POPC   C1A11847  12.703  35.227   8.843
  527POPC   D2A11848  12.813  35.264   8.428
  527POPC   C3A11849  12.695  35.005   8.094
  527POPC   C4A11850  12.835  35.268   7.766
  527POPC   C1B11851  12.863  35.704   8.734
  527POPC   C2B11852  12.833  35.779   8.297
  527POPC   C3B11853  13.140  35.649   7.976
  527POPC   C4B11854  13.103  35.611   7.521
  528POPC   NC311855  26.125  17.082   9.453
  528POPC   PO411856  25.836  17.709   9.466
  528POPC   GL111857  25.951  17.458   9.145
  528POPC   GL211858  25.645  17.260   9.212
  528POPC   C1A11859  26.125  17.467   8.730
  528POPC   D2A11860  26.188  17.425   8.301
  528POPC   C3A11861  26.227  17.760   8.046
  528POPC   C4A11862  26.235  17.546   7.655
  528POPC   C1B11863  25.588  17.471   8.791
  528POPC   C2B11864  25.688  17.573   8.351
  528POPC   C3B11865  25.801  17.468   7.905
  528POPC   C4B11866  25.757  17.560   7.438
  529POPC   NC311867  39.100  10.616   9.770
  529POPC   PO411868  39.597  10.312   9.505
  529POPC   GL111869  39.357  10.524   9.183
  529POPC   GL211870  39.030  10.727   9.262
  529POPC   C1A11871  39.468  10.516   8.719
  529POPC   D2A11872  39.633  10.313   8.315
  529POPC   C3A11873  39.472  10.487   7.909
  529POPC   C4A11874  39.483  10.951   7.860
  529POPC   C1B11875  38.973  10.571   8.832
  529POPC   C2B11876  38.817  10.555   8.384
  529POPC   C3B11877  39.041  10.751   8.017
  529POPC   C4B11878  39.083  10.897   7.561
  530POPC   NC311879  44.414   5.313   9.526
  530POPC   PO411880  44.442   4.676   9.399
  530POPC   GL111881  44.652   5.004   9.100
  530POPC   GL211882  44.688   5.401   9.101
  530POPC   C1A11883  44.535   5.184   8.667
  530POPC   D2A11884  44.201   5.285   8.364
  530POPC   C3A11885  44.367   5.410   7.982
  530POPC   C4A11886  44.606   5.231   7.669
  530POPC   C1B11887   0.033   5.236   8.825
  530POPC   C2B11888  44.988   4.968   8.490
  530POPC   C3B11889  44.842   5.138   8.118
  530POPC   C4B11890   0.102   5.215   7.788
  531POPC   NC311891  44.359  32.472   9.494
  531POPC   PO411892  43.848  32.075   9.499
  531POPC   GL111893  44.020  32.248   9.177
  531POPC   GL211894  44.129  31.964   9.089
  531POPC   C1A11895  44.194  32.360   8.782
  531POPC   D2A11896  44.079  32.505   8.380
  531POPC   C3A11897  44.175  32.341   8.012
  531POPC   C4A11898  43.943  32.446   7.648
  531POPC   C1B11899  43.930  31.888   8.755
  531POPC   C2B11900  44.028  31.982   8.378
  531POPC   C3B11901  43.782  32.000   8.053
  531POPC   C4B11902  43.961  31.941   7.713
  532POPC   NC311903  17.082  39.318   9.581
  532POPC   PO411904  17.716  38.993   9.592
  532POPC   GL111905  17.668  39.194   9.195
  532POPC   GL211906  17.373  38.999   9.120
  532POPC   C1A11907  17.488  39.398   8.800
  532POPC   D2A11908  17.283  39.725   8.592
  532POPC   C3A11909  17.418  39.593   8.202
  532POPC   C4A11910  17.653  39.331   7.940
  532POPC   C1B11911  17.656  38.943   8.745
  532POPC   C2B11912  17.502  39.042   8.358
  532POPC   C3B11913  17.285  38.988   7.981
  532POPC   C4B11914  17.662  38.819   7.825
  533POPC   NC311915  43.670  42.179   9.316
  533POPC   PO411916  44.170  42.565   9.504
  533POPC   GL111917  44.089  42.421   9.098
  533POPC   GL211918  44.126  42.063   9.069
  533POPC   C1A11919  43.862  42.413   8.709
  533POPC   D2A11920  43.910  42.356   8.268
  533POPC   C3A11921  43.619  42.558   7.968
  533POPC   C4A11922  43.904  42.551   7.607
  533POPC   C1B11923  44.334  41.849   8.719
  533POPC   C2B11924  44.489  41.827   8.279
  533POPC   C3B11925  44.227  41.995   7.944
  533POPC   C4B11926  43.781  42.093   7.842
  534POPC   NC311927  14.176  33.595   9.539
  534POPC   PO411928  14.811  33.833   9.568
  534POPC   GL111929  14.535  33.807   9.205
  534POPC   GL211930  14.184  33.777   9.083
  534POPC   C1A11931  14.618  33.710   8.803
  534POPC   D2A11932  14.555  33.933   8.456
  534POPC   C3A11933  14.711  33.796   8.069
  534POPC   C4A11934  14.825  34.148   7.830
  534POPC   C1B11935  14.125  33.664   8.683
  534POPC   C2B11936  14.298  33.543   8.278
  534POPC   C3B11937  14.234  33.645   7.860
  534POPC   C4B11938  14.148  33.344   7.530
  535POPC   NC311939  13.756  22.765   9.357
  535POPC   PO411940  14.334  23.086   9.542
  535POPC   GL111941  14.220  23.023   9.144
  535POPC   GL211942  14.305  23.338   9.068
  535POPC   C1A11943  14.475  22.952   8.768
  535POPC   D2A11944  14.589  22.740   8.428
  535POPC   C3A11945  14.472  22.812   8.064
  535POPC   C4A11946  14.428  22.676   7.687
  535POPC   C1B11947  14.132  23.316   8.700
  535POPC   C2B11948  14.233  23.162   8.334
  535POPC   C3B11949  14.023  22.991   7.992
  535POPC   C4B11950  14.110  23.053   7.528
  536POPC   NC311951   1.091  41.818   9.448
  536POPC   PO411952   1.176  41.100   9.432
  536POPC   GL111953   1.305  41.240   9.071
  536POPC   GL211954   1.364  41.602   9.095
  536POPC   C1A11955   1.177  41.392   8.692
  536POPC   D2A11956   1.424  41.528   8.371
  536POPC   C3A11957   1.192  41.487   8.026
  536POPC   C4A11958   1.162  41.326   7.632
  536POPC   C1B11959   1.276  41.886   8.759
  536POPC   C2B11960   1.451  42.047   8.408
  536POPC   C3B11961   1.582  41.875   8.016
  536POPC   C4B11962   1.380  41.778   7.652
  537POPC   NC311963  33.246  44.145   9.397
  537POPC   PO411964  33.300  43.476   9.337
  537POPC   GL111965  33.089  43.789   9.059
  537POPC   GL211966  32.749  43.904   9.135
  537POPC   C1A11967  33.254  43.928   8.666
  537POPC   D2A11968  33.356  43.669   8.326
  537POPC   C3A11969  33.039  43.639   8.012
  537POPC   C4A11970  33.181  43.877   7.668
  537POPC   C1B11971  32.797  44.146   8.728
  537POPC   C2B11972  32.867  44.044   8.317
  537POPC   C3B11973  33.098  44.234   8.035
  537POPC   C4B11974  32.986  44.371   7.673
  538POPC   NC311975  39.502   9.783   9.390
  538POPC   PO411976  38.827   9.716   9.566
  538POPC   GL111977  39.028   9.765   9.210
  538POPC   GL211978  39.121   9.401   9.207
  538POPC   C1A11979  39.072  10.044   8.835
  538POPC   D2A11980  38.959  10.047   8.385
  538POPC   C3A11981  39.284  10.023   8.081
  538POPC   C4A11982  39.332   9.766   7.745
  538POPC   C1B11983  39.046   9.518   8.772
  538POPC   C2B11984  39.246   9.580   8.383
  538POPC   C3B11985  38.973   9.613   8.060
  538POPC   C4B11986  38.833   9.430   7.698
  539POPC   NC311987  16.937  33.659   9.803
  539POPC   PO411988  16.752  33.061   9.510
  539POPC   GL111989  16.510  33.176   9.155
  539POPC   GL211990  16.491  32.811   9.116
  539POPC   C1A11991  16.579  33.360   8.738
  539POPC   D2A11992  16.896  33.273   8.430
  539POPC   C3A11993  16.737  33.316   8.013
  539POPC   C4A11994  16.883  33.294   7.580
  539POPC   C1B11995  16.779  32.898   8.777
  539POPC   C2B11996  16.660  32.836   8.356
  539POPC   C3B11997  16.805  32.809   7.929
  539POPC   C4B11998  16.439  32.994   7.740
  540POPC   NC311999   9.998  12.585   9.594
  540POPC   PO412000  10.642  12.939   9.721
  540POPC   GL112001  10.421  12.900   9.328
  540POPC   GL212002  10.726  12.823   9.189
  540POPC   C1A12003  10.347  12.981   8.868
  540POPC   D2A12004  10.264  12.864   8.428
  540POPC   C3A12005  10.483  12.972   8.030
  540POPC   C4A12006  10.500  12.835   7.600
  540POPC   C1B12007  10.717  12.572   8.815
  540POPC   C2B12008  10.733  12.652   8.377
  540POPC   C3B12009  10.838  12.597   7.967
  540POPC   C4B12010  10.886  12.314   7.681
  541POPC   NC312011   7.342  21.980   9.612
  541POPC   PO412012   7.880  22.343   9.467
  541POPC   GL112013   7.582  22.263   9.140
  541POPC   GL212014   7.349  21.969   9.081
  541POPC   C1A12015   7.345  22.419   8.794
  541POPC   D2A12016   7.212  22.150   8.455
  541POPC   C3A12017   7.296  22.318   8.059
  541POPC   C4A12018   7.273  22.217   7.645
  541POPC   C1B12019   7.636  21.960   8.693
  541POPC   C2B12020   7.631  21.937   8.217
  541POPC   C3B12021   7.377  21.785   7.875
  541POPC   C4B12022   7.485  21.805   7.414
  542POPC   NC312023  39.055   3.052   9.578
  542POPC   PO412024  39.542   2.669   9.673
  542POPC   GL112025  39.402   2.591   9.271
  542POPC   GL212026  39.031   2.561   9.178
  542POPC   C1A12027  39.427   2.596   8.844
  542POPC   D2A12028  39.097   2.682   8.554
  542POPC   C3A12029  39.326   2.730   8.193
  542POPC   C4A12030  39.462   2.819   7.795
  542POPC   C1B12031  38.894   2.275   8.803
  542POPC   C2B12032  38.848   2.274   8.344
  542POPC   C3B12033  38.997   2.420   7.969
  542POPC   C4B12034  38.972   2.778   7.737
  543POPC   NC312035  20.106   9.991   9.464
  543POPC   PO412036  19.634   9.490   9.528
  543POPC   GL112037  19.822   9.670   9.195
  543POPC   GL212038  20.162   9.525   9.229
  543POPC   C1A12039  19.882   9.911   8.846
  543POPC   D2A12040  19.847   9.773   8.466
  543POPC   C3A12041  19.952   9.930   8.100
  543POPC   C4A12042  19.708   9.865   7.775
  543POPC   C1B12043  20.098   9.390   8.824
  543POPC   C2B12044  19.927   9.243   8.438
  543POPC   C3B12045  19.909   9.439   8.063
  543POPC   C4B12046  20.046   9.446   7.686
  544POPC   NC312047  13.269  41.360   9.526
  544POPC   PO412048  12.625  41.488   9.446
  544POPC   GL112049  12.713  41.689   9.087
  544POPC   GL212050  13.073  41.580   9.103
  544POPC   C1A12051  12.813  41.694   8.657
  544POPC   D2A12052  13.160  41.795   8.423
  544POPC   C3A12053  13.028  41.875   7.997
  544POPC   C4A12054  12.585  41.865   7.879
  544POPC   C1B12055  13.201  41.208   8.857
  544POPC   C2B12056  13.039  41.273   8.453
  544POPC   C3B12057  12.773  41.454   8.156
  544POPC   C4B12058  12.888  41.450   7.711
  545POPC   NC312059  42.438   1.723   9.365
  545POPC   PO412060  42.045   2.227   9.500
  545POPC   GL112061  42.190   2.098   9.115
  545POPC   GL212062  42.009   1.784   9.119
  545POPC   C1A12063  42.505   2.156   8.774
  545POPC   D2A12064  42.644   1.997   8.370
  545POPC   C3A12065  42.360   2.086   8.056
  545POPC   C4A12066  42.338   2.288   7.674
  545POPC   C1B12067  42.266   1.704   8.751
  545POPC   C2B12068  42.340   1.569   8.320
  545POPC   C3B12069  42.575   1.600   7.964
  545POPC   C4B12070  42.379   1.794   7.641
  546POPC   NC312071  17.761   1.106   9.492
  546POPC   PO412072  17.125   1.438   9.557
  546POPC   GL112073  17.405   1.361   9.198
  546POPC   GL212074  17.442   1.012   9.085
  546POPC   C1A12075  17.724   1.405   8.847
  546POPC   D2A12076  17.634   1.261   8.430
  546POPC   C3A12077  17.675   1.460   8.031
  546POPC   C4A12078  17.434   1.318   7.667
  546POPC   C1B12079  17.757   0.864   8.780
  546POPC   C2B12080  17.780   0.789   8.333
  546POPC   C3B12081  17.817   0.992   7.925
  546POPC   C4B12082  17.749   0.974   7.465
  547POPC   NC312083  17.035   2.725   9.992
  547POPC   PO412084  17.382   2.370   9.500
  547POPC   GL112085  17.509   2.582   9.078
  547POPC   GL212086  17.866   2.636   9.121
  547POPC   C1A12087  17.536   2.870   8.685
  547POPC   D2A12088  17.497   2.939   8.206
  547POPC   C3A12089  17.224   2.725   7.892
  547POPC   C4A12090  17.071   2.748   7.453
  547POPC   C1B12091  17.854   2.480   8.707
  547POPC   C2B12092  17.525   2.444   8.383
  547POPC   C3B12093  17.657   2.454   7.970
  547POPC   C4B12094  17.572   2.582   7.536
  548POPC   NC312095  26.055   6.435   9.427
  548POPC   PO412096  26.399   7.028   9.428
  548POPC   GL112097  26.274   6.794   9.041
  548POPC   GL212098  26.458   6.500   9.074
  548POPC   C1A12099  26.030   6.767   8.623
  548POPC   D2A12100  25.815   6.892   8.214
  548POPC   C3A12101  25.984   6.811   7.793
  548POPC   C4A12102  25.855   6.509   7.468
  548POPC   C1B12103  26.254   6.317   8.705
  548POPC   C2B12104  26.111   6.399   8.242
  548POPC   C3B12105  26.206   6.352   7.789
  548POPC   C4B12106  26.378   6.613   7.439
  549POPC   NC312107  27.653  10.302   9.546
  549POPC   PO412108  27.556  10.962   9.459
  549POPC   GL112109  27.704  10.623   9.163
  549POPC   GL212110  27.439  10.365   9.099
  549POPC   C1A12111  27.782  10.509   8.748
  549POPC   D2A12112  27.682  10.762   8.418
  549POPC   C3A12113  27.750  10.604   8.037
  549POPC   C4A12114  27.866  10.738   7.673
  549POPC   C1B12115  27.275  10.696   8.875
  549POPC   C2B12116  27.170  10.871   8.463
  549POPC   C3B12117  27.331  10.931   8.067
  549POPC   C4B12118  27.279  10.747   7.687
  550POPC   NC312119   9.643  13.155   9.595
  550POPC   PO412120   9.604  12.516   9.355
  550POPC   GL112121   9.809  12.684   9.071
  550POPC   GL212122   9.929  12.972   9.202
  550POPC   C1A12123   9.764  12.606   8.643
  550POPC   D2A12124   9.785  12.793   8.261
  550POPC   C3A12125   9.786  12.568   7.901
  550POPC   C4A12126  10.007  12.474   7.530
  550POPC   C1B12127   9.633  13.103   8.866
  550POPC   C2B12128   9.498  13.187   8.433
  550POPC   C3B12129   9.663  13.214   7.999
  550POPC   C4B12130   9.385  13.254   7.683
  551POPC   NC312131  34.158  13.866   9.391
  551POPC   PO412132  34.839  13.855   9.595
  551POPC   GL112133  34.618  13.830   9.208
  551POPC   GL212134  34.620  13.506   9.114
  551POPC   C1A12135  34.766  13.900   8.785
  551POPC   D2A12136  34.814  13.727   8.357
  551POPC   C3A12137  34.469  13.900   8.084
  551POPC   C4A12138  34.338  13.761   7.677
  551POPC   C1B12139  34.320  13.602   8.768
  551POPC   C2B12140  34.228  13.517   8.326
  551POPC   C3B12141  34.467  13.351   7.962
  551POPC   C4B12142  34.687  13.254   7.549
  552POPC   NC312143   8.023  12.832   9.591
  552POPC   PO412144   8.607  12.477   9.412
  552POPC   GL112145   8.393  12.771   9.137
  552POPC   GL212146   8.504  13.100   9.164
  552POPC   C1A12147   8.273  12.874   8.710
  552POPC   D2A12148   8.445  12.936   8.298
  552POPC   C3A12149   8.073  12.935   8.024
  552POPC   C4A12150   7.955  12.735   7.630
  552POPC   C1B12151   8.577  13.318   8.772
  552POPC   C2B12152   8.635  13.553   8.409
  552POPC   C3B12153   8.546  13.363   8.031
  552POPC   C4B12154   8.426  13.136   7.682
  553POPC   NC312155  29.298  24.251   9.527
  553POPC   PO412156  29.001  23.655   9.652
  553POPC   GL112157  29.110  23.692   9.218
  553POPC   GL212158  29.007  24.026   9.170
  553POPC   C1A12159  29.327  23.583   8.798
  553POPC   D2A12160  29.115  23.562   8.378
  553POPC   C3A12161  29.346  23.536   7.985
  553POPC   C4A12162  28.978  23.495   7.759
  553POPC   C1B12163  28.906  23.863   8.780
  553POPC   C2B12164  29.202  24.045   8.540
  553POPC   C3B12165  29.203  24.045   8.135
  553POPC   C4B12166  29.194  23.967   7.732
  554POPC   NC312167  12.080  20.721   9.387
  554POPC   PO412168  12.074  20.001   9.462
  554POPC   GL112169  12.240  20.180   9.086
  554POPC   GL212170  12.289  20.550   8.966
  554POPC   C1A12171  12.099  20.204   8.663
  554POPC   D2A12172  12.272  20.505   8.418
  554POPC   C3A12173  12.120  20.308   8.059
  554POPC   C4A12174  12.005  20.417   7.659
  554POPC   C1B12175  11.878  20.661   8.751
  554POPC   C2B12176  11.770  20.555   8.342
  554POPC   C3B12177  11.980  20.812   8.085
  554POPC   C4B12178  11.869  20.895   7.713
  555POPC   NC312179  17.064  11.660   9.928
  555POPC   PO412180  16.682  12.185   9.708
  555POPC   GL112181  16.674  12.142   9.245
  555POPC   GL212182  16.969  12.082   9.152
  555POPC   C1A12183  16.489  12.289   8.816
  555POPC   D2A12184  16.670  12.406   8.373
  555POPC   C3A12185  16.641  12.165   7.969
  555POPC   C4A12186  16.524  12.191   7.528
  555POPC   C1B12187  16.802  11.902   8.758
  555POPC   C2B12188  16.881  11.834   8.317
  555POPC   C3B12189  17.000  11.700   7.913
  555POPC   C4B12190  16.712  11.733   7.590
  556POPC   NC312191  10.659  13.324   9.463
  556POPC   PO412192  10.424  13.914   9.756
  556POPC   GL112193  10.473  13.797   9.273
  556POPC   GL212194  10.377  13.452   9.080
  556POPC   C1A12195  10.408  13.863   8.795
  556POPC   D2A12196  10.346  13.501   8.506
  556POPC   C3A12197  10.437  13.497   8.051
  556POPC   C4A12198  10.443  13.781   7.719
  556POPC   C1B12199  10.772  13.263   8.845
  556POPC   C2B12200  10.771  13.185   8.417
  556POPC   C3B12201  10.922  13.247   8.015
  556POPC   C4B12202  10.989  12.986   7.674
  557POPC   NC312203  38.030  29.730   9.411
  557POPC   PO412204  38.650  29.916   9.452
  557POPC   GL112205  38.398  29.930   9.078
  557POPC   GL212206  38.066  30.156   9.113
  557POPC   C1A12207  38.571  29.866   8.655
  557POPC   D2A12208  38.639  30.102   8.292
  557POPC   C3A12209  38.555  29.884   7.923
  557POPC   C4A12210  38.627  29.988   7.523
  557POPC   C1B12211  38.133  30.151   8.661
  557POPC   C2B12212  38.156  30.267   8.209
  557POPC   C3B12213  38.051  30.040   7.799
  557POPC   C4B12214  38.189  30.180   7.359
  558POPC   NC312215  10.605  18.691   9.388
  558POPC   PO412216  10.362  18.029   9.405
  558POPC   GL112217  10.173  18.342   9.138
  558POPC   GL212218  10.387  18.568   8.937
  558POPC   C1A12219  10.115  18.184   8.727
  558POPC   D2A12220  10.298  17.928   8.373
  558POPC   C3A12221  10.159  18.093   7.984
  558POPC   C4A12222  10.128  18.540   7.890
  558POPC   C1B12223  10.634  18.181   8.760
  558POPC   C2B12224  10.822  18.049   8.341
  558POPC   C3B12225  10.687  18.130   7.886
  558POPC   C4B12226  10.791  18.076   7.421
  559POPC   NC312227  20.279  26.417   9.589
  559POPC   PO412228  20.502  26.980   9.724
  559POPC   GL112229  20.556  26.769   9.302
  559POPC   GL212230  20.795  26.487   9.209
  559POPC   C1A12231  20.454  26.841   8.866
  559POPC   D2A12232  20.649  26.723   8.482
  559POPC   C3A12233  20.453  26.907   8.114
  559POPC   C4A12234  20.244  26.759   7.721
  559POPC   C1B12235  20.958  26.815   8.902
  559POPC   C2B12236  21.116  26.935   8.484
  559POPC   C3B12237  20.966  26.833   8.079
  559POPC   C4B12238  20.742  26.932   7.696
  560POPC   NC312239  12.658  31.945   9.563
  560POPC   PO412240  13.041  32.450   9.553
  560POPC   GL112241  12.878  32.232   9.151
  560POPC   GL212242  12.535  32.053   9.102
  560POPC   C1A12243  12.669  32.408   8.758
  560POPC   D2A12244  12.439  32.306   8.393
  560POPC   C3A12245  12.649  32.336   7.973
  560POPC   C4A12246  12.863  32.509   7.583
  560POPC   C1B12247  12.588  31.913   8.696
  560POPC   C2B12248  12.808  31.940   8.317
  560POPC   C3B12249  12.676  31.814   7.943
  560POPC   C4B12250  12.758  31.864   7.525
  561POPC   NC312251   3.157  25.327   9.817
  561POPC   PO412252   3.711  25.175   9.451
  561POPC   GL112253   3.574  25.178   9.068
  561POPC   GL212254   3.315  24.972   9.077
  561POPC   C1A12255   3.663  25.043   8.707
  561POPC   D2A12256   3.400  24.991   8.385
  561POPC   C3A12257   3.666  25.158   8.063
  561POPC   C4A12258   3.916  25.269   7.697
  561POPC   C1B12259   3.119  25.308   8.838
  561POPC   C2B12260   2.984  25.470   8.457
  561POPC   C3B12261   3.146  25.327   8.062
  561POPC   C4B12262   3.444  25.547   7.781
  562POPC   NC312263  12.294   7.029   9.454
  562POPC   PO412264  11.906   7.570   9.634
  562POPC   GL112265  11.914   7.352   9.259
  562POPC   GL212266  12.236   7.405   9.111
  562POPC   C1A12267  11.822   7.365   8.821
  562POPC   D2A12268  11.891   7.641   8.466
  562POPC   C3A12269  11.860   7.431   8.069
  562POPC   C4A12270  12.153   7.541   7.776
  562POPC   C1B12271  12.354   7.189   8.710
  562POPC   C2B12272  12.313   7.225   8.233
  562POPC   C3B12273  12.519   7.189   7.796
  562POPC   C4B12274  12.767   7.352   7.403
  563POPC   NC312275   9.049  34.324   9.798
  563POPC   PO412276   8.929  33.759   9.545
  563POPC   GL112277   8.911  33.765   9.123
  563POPC   GL212278   8.623  33.581   9.091
  563POPC   C1A12279   9.091  34.025   8.781
  563POPC   D2A12280   9.166  33.893   8.347
  563POPC   C3A12281   8.981  34.044   7.945
  563POPC   C4A12282   9.251  33.943   7.613
  563POPC   C1B12283   8.818  33.602   8.658
  563POPC   C2B12284   8.676  33.788   8.265
  563POPC   C3B12285   8.832  33.563   7.910
  563POPC   C4B12286   9.020  33.479   7.548
  564POPC   NC312287  11.639  34.715   9.392
  564POPC   PO412288  10.941  34.943   9.348
  564POPC   GL112289  11.094  34.818   8.964
  564POPC   GL212290  11.369  34.601   8.977
  564POPC   C1A12291  10.997  34.523   8.660
  564POPC   D2A12292  11.358  34.370   8.425
  564POPC   C3A12293  11.258  34.468   7.998
  564POPC   C4A12294  11.313  34.612   7.572
  564POPC   C1B12295  11.662  34.887   8.754
  564POPC   C2B12296  11.798  34.881   8.317
  564POPC   C3B12297  11.616  34.865   7.885
  564POPC   C4B12298  11.492  35.055   7.422
  565POPC   NC312299  25.903   4.644   9.599
  565POPC   PO412300  25.919   4.097   9.544
  565POPC   GL112301  25.929   4.371   9.152
  565POPC   GL212302  25.750   4.696   9.118
  565POPC   C1A12303  25.982   4.394   8.694
  565POPC   D2A12304  26.170   4.576   8.306
  565POPC   C3A12305  26.078   4.397   7.908
  565POPC   C4A12306  25.914   4.104   7.585
  565POPC   C1B12307  25.558   4.684   8.723
  565POPC   C2B12308  25.650   4.549   8.302
  565POPC   C3B12309  25.667   4.715   7.889
  565POPC   C4B12310  25.863   4.627   7.509
  566POPC   NC312311  17.450  30.885   9.684
  566POPC   PO412312  17.873  31.356   9.658
  566POPC   GL112313  17.581  31.143   9.290
  566POPC   GL212314  17.484  30.774   9.200
  566POPC   C1A12315  17.508  31.133   8.835
  566POPC   D2A12316  17.708  30.885   8.500
  566POPC   C3A12317  17.590  30.897   8.060
  566POPC   C4A12318  17.676  30.902   7.613
  566POPC   C1B12319  17.403  30.607   8.814
  566POPC   C2B12320  17.570  30.392   8.483
  566POPC   C3B12321  17.568  30.391   8.042
  566POPC   C4B12322  17.570  30.371   7.585
  567POPC   NC312323  18.804  12.480   9.523
  567POPC   PO412324  19.115  11.833   9.519
  567POPC   GL112325  18.963  12.097   9.205
  567POPC   GL212326  19.224  12.365   9.207
  567POPC   C1A12327  18.815  12.248   8.809
  567POPC   D2A12328  18.696  12.048   8.428
  567POPC   C3A12329  18.852  12.136   8.035
  567POPC   C4A12330  19.078  12.477   7.877
  567POPC   C1B12331  19.299  12.090   8.816
  567POPC   C2B12332  19.223  12.137   8.412
  567POPC   C3B12333  19.359  12.038   8.022
  567POPC   C4B12334  19.186  12.028   7.644
  568POPC   NC312335  38.221  12.901   9.659
  568POPC   PO412336  38.365  12.424   9.247
  568POPC   GL112337  38.353  12.758   8.944
  568POPC   GL212338  38.237  12.610   8.692
  568POPC   C1A12339  38.666  12.878   8.598
  568POPC   D2A12340  38.738  12.639   8.241
  568POPC   C3A12341  38.745  12.751   7.855
  568POPC   C4A12342  38.780  13.153   7.901
  568POPC   C1B12343  37.955  12.954   8.695
  568POPC   C2B12344  38.011  13.189   8.335
  568POPC   C3B12345  38.339  12.947   8.138
  568POPC   C4B12346  38.298  12.539   7.889
  569POPC   NC312347  30.479   4.653   9.643
  569POPC   PO412348  30.750   4.067   9.548
  569POPC   GL112349  30.848   4.452   9.306
  569POPC   GL212350  30.548   4.600   9.129
  569POPC   C1A12351  31.009   4.443   8.891
  569POPC   D2A12352  30.931   4.243   8.506
  569POPC   C3A12353  30.930   4.518   8.138
  569POPC   C4A12354  30.781   4.386   7.770
  569POPC   C1B12355  30.499   4.463   8.667
  569POPC   C2B12356  30.494   4.257   8.222
  569POPC   C3B12357  30.294   4.299   7.804
  569POPC   C4B12358  30.375   4.597   7.467
  570POPC   NC312359  29.701  41.343   9.525
  570POPC   PO412360  30.149  41.789   9.461
  570POPC   GL112361  30.091  41.555   9.062
  570POPC   GL212362  29.856  41.267   9.051
  570POPC   C1A12363  30.078  41.579   8.615
  570POPC   D2A12364  29.943  41.443   8.227
  570POPC   C3A12365  30.130  41.519   7.826
  570POPC   C4A12366  29.953  41.764   7.462
  570POPC   C1B12367  29.646  41.309   8.676
  570POPC   C2B12368  29.447  41.150   8.347
  570POPC   C3B12369  29.685  41.075   7.978
  570POPC   C4B12370  29.704  41.321   7.615
  571POPC   NC312371  14.479  15.011   9.413
  571POPC   PO412372  14.009  15.598   9.509
  571POPC   GL112373  14.193  15.475   9.077
  571POPC   GL212374  14.560  15.383   9.045
  571POPC   C1A12375  14.279  15.421   8.620
  571POPC   D2A12376  14.596  15.298   8.340
  571POPC   C3A12377  14.468  15.431   7.956
  571POPC   C4A12378  14.071  15.429   7.764
  571POPC   C1B12379  14.522  14.995   8.782
  571POPC   C2B12380  14.306  14.847   8.454
  571POPC   C3B12381  14.250  14.986   8.057
  571POPC   C4B12382  13.957  14.913   7.755
  572POPC   NC312383  33.757  43.437   9.267
  572POPC   PO412384  33.650  44.042   9.583
  572POPC   GL112385  33.891  43.949   9.226
  572POPC   GL212386  33.598  43.899   9.062
  572POPC   C1A12387  34.153  43.936   8.822
  572POPC   D2A12388  34.164  44.147   8.382
  572POPC   C3A12389  34.073  43.900   7.968
  572POPC   C4A12390  33.776  43.545   7.840
  572POPC   C1B12391  33.724  44.188   8.737
  572POPC   C2B12392  33.531  44.244   8.345
  572POPC   C3B12393  33.559  43.996   7.994
  572POPC   C4B12394  33.674  43.962   7.579
  573POPC   NC312395   1.217   0.575   9.797
  573POPC   PO412396   1.478   0.000   9.520
  573POPC   GL112397   1.405   0.212   9.134
  573POPC   GL212398   1.232   0.486   9.206
  573POPC   C1A12399   1.175   0.082   8.750
  573POPC   D2A12400   1.164   0.255   8.341
  573POPC   C3A12401   1.499   0.458   8.121
  573POPC   C4A12402   1.417   0.354   7.681
  573POPC   C1B12403   1.131   0.598   8.762
  573POPC   C2B12404   0.928   0.694   8.346
  573POPC   C3B12405   1.062   0.643   7.897
  573POPC   C4B12406   1.067   0.619   7.408
  574POPC   NC312407  10.198  20.294   9.564
  574POPC   PO412408  10.641  20.775   9.472
  574POPC   GL112409  10.529  20.578   9.136
  574POPC   GL212410  10.633  20.268   9.226
  574POPC   C1A12411  10.585  20.473   8.723
  574POPC   D2A12412  10.870  20.404   8.416
  574POPC   C3A12413  10.745  20.670   8.108
  574POPC   C4A12414  10.618  20.654   7.687
  574POPC   C1B12415  10.305  20.101   8.945
  574POPC   C2B12416  10.244  20.123   8.514
  574POPC   C3B12417  10.447  20.239   8.147
  574POPC   C4B12418  10.243  20.345   7.795
  575POPC   NC312419   1.949   1.018   9.480
  575POPC   PO412420   2.552   1.303   9.309
  575POPC   GL112421   2.202   1.272   9.027
  575POPC   GL212422   1.890   1.043   8.981
  575POPC   C1A12423   2.098   1.287   8.580
  575POPC   D2A12424   1.738   1.357   8.303
  575POPC   C3A12425   1.858   1.317   7.873
  575POPC   C4A12426   2.231   1.374   7.599
  575POPC   C1B12427   2.219   0.817   8.798
  575POPC   C2B12428   2.411   0.916   8.405
  575POPC   C3B12429   2.240   1.036   8.007
  575POPC   C4B12430   2.174   0.874   7.553
  576POPC   NC312431  36.282  36.778   9.465
  576POPC   PO412432  35.796  37.217   9.491
  576POPC   GL112433  36.032  37.049   9.120
  576POPC   GL212434  36.376  37.200   9.133
  576POPC   C1A12435  36.145  36.776   8.756
  576POPC   D2A12436  35.925  36.535   8.391
  576POPC   C3A12437  35.934  36.754   7.956
  576POPC   C4A12438  36.069  36.980   7.542
  576POPC   C1B12439  36.418  37.302   8.709
  576POPC   C2B12440  36.271  37.088   8.337
  576POPC   C3B12441  36.412  36.967   7.928
  576POPC   C4B12442  36.543  37.192   7.555
  577POPC   NC312443   2.494  21.207   9.483
  577POPC   PO412444   2.607  21.840   9.246
  577POPC   GL112445   2.812  21.506   9.036
  577POPC   GL212446   2.892  21.172   9.104
  577POPC   C1A12447   3.099  21.439   8.687
  577POPC   D2A12448   3.246  21.640   8.317
  577POPC   C3A12449   2.961  21.439   8.009
  577POPC   C4A12450   2.536  21.628   7.916
  577POPC   C1B12451   2.555  21.129   8.774
  577POPC   C2B12452   2.266  21.059   8.409
  577POPC   C3B12453   2.381  20.899   7.993
  577POPC   C4B12454   2.619  21.145   7.722
  578POPC   NC312455   8.237  18.585   9.878
  578POPC   PO412456   8.236  19.209   9.520
  578POPC   GL112457   8.156  19.265   9.121
  578POPC   GL212458   7.936  19.516   9.041
  578POPC   C1A12459   8.113  18.984   8.773
  578POPC   D2A12460   8.352  18.752   8.467
  578POPC   C3A12461   8.306  18.901   8.075
  578POPC   C4A12462   8.342  18.878   7.618
  578POPC   C1B12463   8.233  19.495   8.670
  578POPC   C2B12464   8.233  19.400   8.244
  578POPC   C3B12465   8.437  19.345   7.871
  578POPC   C4B12466   8.508  19.362   7.430
  579POPC   NC312467  26.389  26.703   9.701
  579POPC   PO412468  26.997  26.567   9.766
  579POPC   GL112469  26.905  26.608   9.283
  579POPC   GL212470  26.605  26.534   9.096
  579POPC   C1A12471  27.020  26.650   8.793
  579POPC   D2A12472  27.224  26.867   8.392
  579POPC   C3A12473  27.050  26.939   7.946
  579POPC   C4A12474  27.113  27.065   7.486
  579POPC   C1B12475  26.495  26.737   8.695
  579POPC   C2B12476  26.633  26.883   8.279
  579POPC   C3B12477  26.579  26.768   7.841
  579POPC   C4B12478  26.473  26.746   7.395
  580POPC   NC312479  11.272   1.300   9.852
  580POPC   PO412480  10.966   0.834   9.495
  580POPC   GL112481  11.139   1.180   9.314
  580POPC   GL212482  11.446   1.183   9.193
  580POPC   C1A12483  11.088   1.315   8.861
  580POPC   D2A12484  11.181   1.163   8.448
  580POPC   C3A12485  11.132   1.469   8.136
  580POPC   C4A12486  11.107   1.442   7.705
  580POPC   C1B12487  11.617   1.241   8.765
  580POPC   C2B12488  11.630   1.423   8.326
  580POPC   C3B12489  11.604   1.359   7.865
  580POPC   C4B12490  11.842   1.067   7.555
  581POPC   NC312491   1.824  39.115   9.752
  581POPC   PO412492   1.137  39.125   9.572
  581POPC   GL112493   1.142  39.088   9.154
  581POPC   GL212494   1.062  39.450   9.115
  581POPC   C1A12495   1.049  39.111   8.720
  581POPC   D2A12496   1.230  38.987   8.291
  581POPC   C3A12497   0.981  39.100   7.872
  581POPC   C4A12498   0.866  39.008   7.375
  581POPC   C1B12499   1.062  39.670   8.744
  581POPC   C2B12500   1.150  39.487   8.367
  581POPC   C3B12501   1.365  39.623   8.017
  581POPC   C4B12502   1.221  39.680   7.629
  582POPC   NC312503  19.367   3.594   9.598
  582POPC   PO412504  19.021   3.115   9.575
  582POPC   GL112505  19.200   3.275   9.199
  582POPC   GL212506  18.844   3.234   9.108
  582POPC   C1A12507  19.156   3.440   8.759
  582POPC   D2A12508  19.275   3.639   8.389
  582POPC   C3A12509  19.159   3.443   8.014
  582POPC   C4A12510  18.908   3.682   7.717
  582POPC   C1B12511  18.790   3.073   8.712
  582POPC   C2B12512  18.766   3.339   8.363
  582POPC   C3B12513  18.686   3.238   7.945
  582POPC   C4B12514  18.952   3.189   7.601
  583POPC   NC312515  10.292  24.878   9.201
  583POPC   PO412516  10.280  25.336   9.702
  583POPC   GL112517  10.647  25.316   9.292
  583POPC   GL212518  10.792  24.965   9.185
  583POPC   C1A12519  10.628  25.241   8.785
  583POPC   D2A12520  10.287  25.023   8.570
  583POPC   C3A12521  10.163  25.165   8.151
  583POPC   C4A12522  10.286  25.537   7.917
  583POPC   C1B12523  11.078  24.957   8.829
  583POPC   C2B12524  11.003  25.183   8.470
  583POPC   C3B12525  10.670  25.172   8.233
  583POPC   C4B12526  10.614  25.157   7.819
  584POPC   NC312527   5.682  25.635   9.828
  584POPC   PO412528   6.120  26.017   9.464
  584POPC   GL112529   5.853  26.172   9.165
  584POPC   GL212530   6.126  26.373   9.068
  584POPC   C1A12531   5.768  26.009   8.733
  584POPC   D2A12532   5.837  25.706   8.398
  584POPC   C3A12533   5.761  25.896   7.986
  584POPC   C4A12534   5.819  26.142   7.598
  584POPC   C1B12535   6.180  26.311   8.677
  584POPC   C2B12536   6.110  26.138   8.302
  584POPC   C3B12537   6.118  26.370   7.958
  584POPC   C4B12538   6.335  26.251   7.626
  585POPC   NC312539  29.323  17.061   9.528
  585POPC   PO412540  28.943  17.606   9.413
  585POPC   GL112541  28.949  17.500   9.049
  585POPC   GL212542  29.300  17.531   9.019
  585POPC   C1A12543  28.842  17.649   8.695
  585POPC   D2A12544  29.059  17.858   8.397
  585POPC   C3A12545  28.911  17.713   8.012
  585POPC   C4A12546  29.093  17.327   7.890
  585POPC   C1B12547  29.528  17.816   8.735
  585POPC   C2B12548  29.599  17.929   8.293
  585POPC   C3B12549  29.445  17.688   7.943
  585POPC   C4B12550  29.470  17.617   7.466
  586POPC   NC312551  39.608   8.141   9.454
  586POPC   PO412552  39.969   8.696   9.426
  586POPC   GL112553  39.932   8.358   9.079
  586POPC   GL212554  39.626   8.220   8.966
  586POPC   C1A12555  40.007   8.037   8.703
  586POPC   D2A12556  39.903   8.096   8.243
  586POPC   C3A12557  40.144   8.018   7.866
  586POPC   C4A12558  40.369   8.002   7.473
  586POPC   C1B12559  39.536   8.245   8.566
  586POPC   C2B12560  39.636   8.527   8.267
  586POPC   C3B12561  39.790   8.422   7.875
  586POPC   C4B12562  39.611   8.090   7.779
  587POPC   NC312563  10.143  10.187   9.854
  587POPC   PO412564  10.533   9.802   9.433
  587POPC   GL112565  10.345   9.692   9.058
  587POPC   GL212566  10.470  10.006   8.930
  587POPC   C1A12567  10.393   9.649   8.601
  587POPC   D2A12568  10.815   9.550   8.419
  587POPC   C3A12569  10.702   9.585   8.013
  587POPC   C4A12570  10.301   9.525   7.772
  587POPC   C1B12571  10.653  10.255   8.625
  587POPC   C2B12572  10.682  10.198   8.219
  587POPC   C3B12573  10.341  10.125   7.973
  587POPC   C4B12574  10.144   9.989   7.607
  588POPC   NC312575  38.341  44.825   9.450
  588POPC   PO412576  38.735  44.286   9.527
  588POPC   GL112577  38.688  44.501   9.121
  588POPC   GL212578  38.321  44.591   8.994
  588POPC   C1A12579  38.713  44.585   8.675
  588POPC   D2A12580  38.385  44.746   8.410
  588POPC   C3A12581  38.527  44.703   8.010
  588POPC   C4A12582  38.696  44.708   7.608
  588POPC   C1B12583  38.016  44.885   8.783
  588POPC   C2B12584  37.794  44.919   8.392
  588POPC   C3B12585  38.050  44.938   8.028
  588POPC   C4B12586  38.173  44.727   7.641
  589POPC   NC312587  36.390  30.346   9.497
  589POPC   PO412588  36.229  30.912   9.312
  589POPC   GL112589  36.282  30.754   8.942
  589POPC   GL212590  36.246  30.438   9.011
  589POPC   C1A12591  36.304  30.733   8.491
  589POPC   D2A12592  36.108  31.037   8.211
  589POPC   C3A12593  36.161  31.057   7.779
  589POPC   C4A12594  36.087  30.743   7.477
  589POPC   C1B12595  35.945  30.393   8.703
  589POPC   C2B12596  35.871  30.516   8.292
  589POPC   C3B12597  36.185  30.542   7.947
  589POPC   C4B12598  36.581  30.305   7.790
  590POPC   NC312599  33.233  31.280   9.575
  590POPC   PO412600  33.213  31.967   9.460
  590POPC   GL112601  33.201  31.610   9.144
  590POPC   GL212602  32.943  31.319   9.151
  590POPC   C1A12603  33.375  31.437   8.730
  590POPC   D2A12604  33.333  31.654   8.303
  590POPC   C3A12605  33.234  31.558   7.855
  590POPC   C4A12606  32.809  31.660   7.730
  590POPC   C1B12607  32.888  31.321   8.701
  590POPC   C2B12608  33.157  31.160   8.344
  590POPC   C3B12609  32.900  31.204   8.003
  590POPC   C4B12610  32.524  31.228   7.751
  591POPC   NC312611  20.305  11.275   9.725
  591POPC   PO412612  19.690  11.249   9.533
  591POPC   GL112613  19.620  11.262   9.143
  591POPC   GL212614  19.969  11.360   9.087
  591POPC   C1A12615  19.667  11.151   8.725
  591POPC   D2A12616  20.006  11.219   8.452
  591POPC   C3A12617  19.886  11.219   8.023
  591POPC   C4A12618  20.045  11.282   7.636
  591POPC   C1B12619  19.724  11.664   8.813
  591POPC   C2B12620  19.518  11.664   8.437
  591POPC   C3B12621  19.711  11.687   8.039
  591POPC   C4B12622  19.640  11.799   7.619
  592POPC   NC312623  22.071  15.573   9.492
  592POPC   PO412624  22.400  16.137   9.332
  592POPC   GL112625  22.320  15.793   9.085
  592POPC   GL212626  22.626  15.673   9.067
  592POPC   C1A12627  22.335  15.579   8.667
  592POPC   D2A12628  22.572  15.544   8.276
  592POPC   C3A12629  22.248  15.607   7.977
  592POPC   C4A12630  21.945  15.923   7.873
  592POPC   C1B12631  22.703  15.955   8.698
  592POPC   C2B12632  22.653  16.093   8.263
  592POPC   C3B12633  22.438  16.078   7.868
  592POPC   C4B12634  22.342  16.403   7.509
  593POPC   NC312635  13.204  20.256   9.363
  593POPC   PO412636  12.576  20.283   9.514
  593POPC   GL112637  12.760  20.511   9.146
  593POPC   GL212638  13.071  20.668   9.093
  593POPC   C1A12639  12.720  20.686   8.715
  593POPC   D2A12640  12.764  20.478   8.308
  593POPC   C3A12641  12.498  20.627   7.942
  593POPC   C4A12642  12.776  20.521   7.628
  593POPC   C1B12643  13.149  20.401   8.703
  593POPC   C2B12644  13.338  20.462   8.270
  593POPC   C3B12645  13.249  20.529   7.811
  593POPC   C4B12646  13.177  20.701   7.370
  594POPC   NC312647  15.766   0.591   9.699
  594POPC   PO412648  16.130   0.071   9.516
  594POPC   GL112649  15.939   0.274   9.161
  594POPC   GL212650  15.880   0.627   9.197
  594POPC   C1A12651  16.118   0.453   8.746
  594POPC   D2A12652  16.058   0.598   8.303
  594POPC   C3A12653  16.190   0.327   7.969
  594POPC   C4A12654  15.929   0.248   7.577
  594POPC   C1B12655  15.653   0.725   8.824
  594POPC   C2B12656  15.701   0.929   8.432
  594POPC   C3B12657  15.635   0.779   8.037
  594POPC   C4B12658  15.571   0.620   7.646
  595POPC   NC312659  12.200  26.305   9.779
  595POPC   PO412660  12.495  25.876   9.440
  595POPC   GL112661  12.252  25.937   9.053
  595POPC   GL212662  12.040  26.184   9.171
  595POPC   C1A12663  12.046  25.678   8.719
  595POPC   D2A12664  12.081  25.559   8.263
  595POPC   C3A12665  12.263  25.863   7.925
  595POPC   C4A12666  12.258  26.093   7.517
  595POPC   C1B12667  11.892  26.185   8.728
  595POPC   C2B12668  11.929  26.062   8.269
  595POPC   C3B12669  11.795  26.110   7.826
  595POPC   C4B12670  11.837  26.392   7.461
  596POPC   NC312671  35.800  17.997   9.542
  596POPC   PO412672  35.110  18.005   9.422
  596POPC   GL112673  35.313  18.228   9.142
  596POPC   GL212674  35.518  18.499   9.306
  596POPC   C1A12675  35.316  18.127   8.716
  596POPC   D2A12676  35.254  18.356   8.362
  596POPC   C3A12677  35.297  18.144   7.962
  596POPC   C4A12678  35.164  18.456   7.705
  596POPC   C1B12679  35.685  18.451   8.880
  596POPC   C2B12680  35.776  18.373   8.456
  596POPC   C3B12681  35.636  18.522   8.046
  596POPC   C4B12682  35.660  18.495   7.608
  597POPC   NC312683  27.322  22.381   9.558
  597POPC   PO412684  26.604  22.343   9.550
  597POPC   GL112685  26.750  22.144   9.155
  597POPC   GL212686  27.119  22.117   9.171
  597POPC   C1A12687  26.587  22.087   8.734
  597POPC   D2A12688  26.530  22.234   8.324
  597POPC   C3A12689  26.752  22.000   8.099
  597POPC   C4A12690  26.822  21.973   7.687
  597POPC   C1B12691  27.194  22.102   8.761
  597POPC   C2B12692  27.013  22.329   8.449
  597POPC   C3B12693  27.018  22.553   8.087
  597POPC   C4B12694  27.059  22.434   7.676
  598POPC   NC312695  15.643  20.053   9.341
  598POPC   PO412696  14.989  19.780   9.389
  598POPC   GL112697  15.276  19.779   9.095
  598POPC   GL212698  15.520  19.545   9.054
  598POPC   C1A12699  15.331  19.937   8.704
  598POPC   D2A12700  15.462  19.870   8.275
  598POPC   C3A12701  15.182  19.938   7.900
  598POPC   C4A12702  15.206  19.680   7.495
  598POPC   C1B12703  15.175  19.342   8.811
  598POPC   C2B12704  15.023  19.313   8.373
  598POPC   C3B12705  15.122  19.386   7.929
  598POPC   C4B12706  14.844  19.335   7.572
  599POPC   NC312707   8.392  40.150   9.508
  599POPC   PO412708   7.950  39.693   9.838
  599POPC   GL112709   7.977  39.747   9.358
  599POPC   GL212710   7.756  39.566   9.131
  599POPC   C1A12711   8.079  39.960   8.943
  599POPC   D2A12712   8.328  39.848   8.575
  599POPC   C3A12713   8.254  40.134   8.233
  599POPC   C4A12714   8.388  40.058   7.820
  599POPC   C1B12715   7.678  39.741   8.703
  599POPC   C2B12716   7.892  39.753   8.280
  599POPC   C3B12717   7.899  39.854   7.804
  599POPC   C4B12718   7.797  39.696   7.323
  600POPC   NC312719   6.352   0.855   9.415
  600POPC   PO412720   6.354   1.558   9.392
  600POPC   GL112721   6.425   1.275   9.016
  600POPC   GL212722   6.508   0.943   8.953
  600POPC   C1A12723   6.494   1.293   8.544
  600POPC   D2A12724   6.352   1.350   8.095
  600POPC   C3A12725   6.699   1.235   7.804
  600POPC   C4A12726   6.935   1.519   7.487
  600POPC   C1B12727   6.670   0.800   8.573
  600POPC   C2B12728   6.552   0.902   8.185
  600POPC   C3B12729   6.385   0.785   7.785
  600POPC   C4B12730   6.303   0.772   7.331
  601POPC   NC312731  28.693  35.057   9.534
  601POPC   PO412732  28.021  35.347   9.496
  601POPC   GL112733  28.292  35.425   9.132
  601POPC   GL212734  28.442  35.146   9.116
  601POPC   C1A12735  28.393  35.589   8.715
  601POPC   D2A12736  28.298  35.707   8.311
  601POPC   C3A12737  28.313  35.433   8.001
  601POPC   C4A12738  28.465  35.344   7.624
  601POPC   C1B12739  28.273  35.085   8.735
  601POPC   C2B12740  28.423  35.085   8.370
  601POPC   C3B12741  28.399  34.927   7.998
  601POPC   C4B12742  28.571  34.854   7.629
  602POPC   NC312743  21.663  11.992   9.498
  602POPC   PO412744  20.950  12.077   9.573
  602POPC   GL112745  21.261  12.015   9.199
  602POPC   GL212746  21.524  11.779   9.020
  602POPC   C1A12747  21.389  12.205   8.777
  602POPC   D2A12748  21.497  11.925   8.441
  602POPC   C3A12749  21.248  11.945   8.073
  602POPC   C4A12750  20.975  12.179   7.780
  602POPC   C1B12751  21.866  12.018   8.811
  602POPC   C2B12752  21.829  12.346   8.480
  602POPC   C3B12753  21.774  12.251   8.031
  602POPC   C4B12754  21.566  12.016   7.681
  603POPC   NC312755   1.425  14.112   9.420
  603POPC   PO412756   0.933  14.505   9.610
  603POPC   GL112757   1.087  14.411   9.198
  603POPC   GL212758   1.430  14.570   9.155
  603POPC   C1A12759   1.199  14.285   8.788
  603POPC   D2A12760   1.030  14.423   8.415
  603POPC   C3A12761   1.208  14.430   8.031
  603POPC   C4A12762   1.225  14.217   7.677
  603POPC   C1B12763   1.435  14.751   8.713
  603POPC   C2B12764   1.633  14.951   8.346
  603POPC   C3B12765   1.566  14.844   7.935
  603POPC   C4B12766   1.349  14.698   7.611
  604POPC   NC312767  12.568  24.771   9.475
  604POPC   PO412768  13.150  24.517   9.723
  604POPC   GL112769  12.939  24.440   9.299
  604POPC   GL212770  12.596  24.234   9.333
  604POPC   C1A12771  12.959  24.598   8.830
  604POPC   D2A12772  13.189  24.470   8.436
  604POPC   C3A12773  13.117  24.675   8.036
  604POPC   C4A12774  12.984  24.860   7.658
  604POPC   C1B12775  12.749  24.147   8.931
  604POPC   C2B12776  12.713  24.255   8.493
  604POPC   C3B12777  12.888  24.221   8.076
  604POPC   C4B12778  12.779  24.394   7.690
  605POPC   NC312779  21.974   5.693   9.523
  605POPC   PO412780  22.215   6.302   9.702
  605POPC   GL112781  22.294   6.119   9.244
  605POPC   GL212782  22.145   5.817   9.077
  605POPC   C1A12783  22.236   6.213   8.785
  605POPC   D2A12784  22.086   6.006   8.408
  605POPC   C3A12785  22.243   5.931   7.980
  605POPC   C4A12786  21.928   5.863   7.636
  605POPC   C1B12787  22.089   5.508   8.752
  605POPC   C2B12788  22.224   5.502   8.326
  605POPC   C3B12789  22.460   5.467   7.950
  605POPC   C4B12790  22.390   5.520   7.509
  606POPC   NC312791  29.019  18.024   9.555
  606POPC   PO412792  29.371  18.510   9.421
  606POPC   GL112793  29.029  18.375   9.159
  606POPC   GL212794  29.032  18.017   9.030
  606POPC   C1A12795  29.089  18.535   8.766
  606POPC   D2A12796  29.331  18.331   8.446
  606POPC   C3A12797  29.196  18.177   8.037
  606POPC   C4A12798  29.177  17.993   7.648
  606POPC   C1B12799  28.755  18.162   8.680
  606POPC   C2B12800  28.842  18.474   8.349
  606POPC   C3B12801  28.990  18.639   8.015
  606POPC   C4B12802  28.850  18.376   7.705
  607POPC   NC312803  19.980  34.677   9.545
  607POPC   PO412804  19.373  34.425   9.572
  607POPC   GL112805  19.411  34.518   9.141
  607POPC   GL212806  19.760  34.520   9.113
  607POPC   C1A12807  19.509  34.422   8.678
  607POPC   D2A12808  19.742  34.539   8.319
  607POPC   C3A12809  19.552  34.683   7.926
  607POPC   C4A12810  19.791  34.836   7.596
  607POPC   C1B12811  19.911  34.808   8.800
  607POPC   C2B12812  20.186  34.904   8.447
  607POPC   C3B12813  20.057  34.828   8.042
  607POPC   C4B12814  19.999  34.426   7.845
  608POPC   NC312815  36.620  15.167   9.446
  608POPC   PO412816  37.196  15.073   9.833
  608POPC   GL112817  37.108  15.071   9.337
  608POPC   GL212818  36.853  14.918   9.092
  608POPC   C1A12819  37.212  15.208   8.895
  608POPC   D2A12820  37.216  15.384   8.475
  608POPC   C3A12821  37.232  15.100   8.118
  608POPC   C4A12822  36.952  15.036   7.765
  608POPC   C1B12823  36.873  14.937   8.652
  608POPC   C2B12824  36.763  15.104   8.305
  608POPC   C3B12825  36.572  14.842   8.042
  608POPC   C4B12826  36.440  14.926   7.650
  609POPC   NC312827   8.131   0.162   9.510
  609POPC   PO412828   7.825   0.660   9.389
  609POPC   GL112829   7.965   0.344   9.066
  609POPC   GL212830   8.342   0.381   9.111
  609POPC   C1A12831   8.222   0.168   8.685
  609POPC   D2A12832   8.335   0.441   8.315
  609POPC   C3A12833   8.086   0.316   7.956
  609POPC   C4A12834   8.258   0.034   7.661
  609POPC   C1B12835   8.183   0.681   8.754
  609POPC   C2B12836   7.984   0.867   8.378
  609POPC   C3B12837   7.998   0.823   7.912
  609POPC   C4B12838   8.374   0.659   7.648
  610POPC   NC312839  34.288  25.406   9.575
  610POPC   PO412840  34.925  25.590   9.714
  610POPC   GL112841  34.721  25.283   9.310
  610POPC   GL212842  34.483  25.440   9.083
  610POPC   C1A12843  34.844  25.173   8.823
  610POPC   D2A12844  34.893  24.972   8.384
  610POPC   C3A12845  34.653  25.197   8.103
  610POPC   C4A12846  34.711  25.455   7.752
  610POPC   C1B12847  34.376  25.045   8.899
  610POPC   C2B12848  34.319  25.034   8.500
  610POPC   C3B12849  34.108  25.092   8.123
  610POPC   C4B12850  34.318  25.101   7.728
  611POPC   NC312851  31.227  22.688   9.432
  611POPC   PO412852  31.509  22.097   9.483
  611POPC   GL112853  31.550  22.398   9.151
  611POPC   GL212854  31.214  22.380   9.027
  611POPC   C1A12855  31.603  22.511   8.734
  611POPC   D2A12856  31.374  22.359   8.321
  611POPC   C3A12857  31.606  22.347   7.903
  611POPC   C4A12858  31.643  22.429   7.414
  611POPC   C1B12859  31.441  22.027   8.807
  611POPC   C2B12860  31.522  21.861   8.389
  611POPC   C3B12861  31.374  21.896   7.958
  611POPC   C4B12862  31.327  22.062   7.547
  612POPC   NC312863  28.934  41.190   9.413
  612POPC   PO412864  29.283  41.824   9.574
  612POPC   GL112865  29.288  41.706   9.150
  612POPC   GL212866  29.607  41.697   9.158
  612POPC   C1A12867  29.161  41.555   8.721
  612POPC   D2A12868  28.770  41.603   8.466
  612POPC   C3A12869  28.915  41.633   8.049
  612POPC   C4A12870  29.288  41.408   7.922
  612POPC   C1B12871  29.630  41.832   8.754
  612POPC   C2B12872  29.511  41.691   8.338
  612POPC   C3B12873  29.665  41.746   7.921
  612POPC   C4B12874  29.434  41.776   7.582
  613POPC   NC312875  30.589  15.625   9.612
  613POPC   PO412876  30.591  16.318   9.538
  613POPC   GL112877  30.573  16.259   9.149
  613POPC   GL212878  30.614  15.911   9.182
  613POPC   C1A12879  30.829  16.300   8.791
  613POPC   D2A12880  30.984  16.067   8.465
  613POPC   C3A12881  30.859  16.125   8.056
  613POPC   C4A12882  30.968  15.859   7.713
  613POPC   C1B12883  30.683  15.775   8.786
  613POPC   C2B12884  30.534  15.822   8.399
  613POPC   C3B12885  30.699  15.637   8.076
  613POPC   C4B12886  30.475  15.762   7.751
  614POPC   NC312887  14.482  17.673   9.503
  614POPC   PO412888  14.880  17.175   9.362
  614POPC   GL112889  14.594  17.346   9.076
  614POPC   GL212890  14.266  17.462   9.095
  614POPC   C1A12891  14.477  17.451   8.643
  614POPC   D2A12892  14.184  17.412   8.337
  614POPC   C3A12893  14.381  17.480   7.941
  614POPC   C4A12894  14.605  17.182   7.668
  614POPC   C1B12895  14.146  17.795   8.894
  614POPC   C2B12896  13.972  17.850   8.523
  614POPC   C3B12897  14.012  17.843   8.082
  614POPC   C4B12898  14.231  17.962   7.738
  615POPC   NC312899  15.381  13.244   9.276
  615POPC   PO412900  16.010  13.160   9.306
  615POPC   GL112901  15.991  13.580   9.181
  615POPC   GL212902  15.647  13.707   9.259
  615POPC   C1A12903  16.153  13.742   8.811
  615POPC   D2A12904  15.962  13.571   8.472
  615POPC   C3A12905  16.144  13.748   8.112
  615POPC   C4A12906  15.985  13.562   7.767
  615POPC   C1B12907  15.626  13.847   8.833
  615POPC   C2B12908  15.434  13.921   8.443
  615POPC   C3B12909  15.616  13.695   8.116
  615POPC   C4B12910  15.557  13.829   7.696
  616POPC   NC312911  11.150  21.882   9.499
  616POPC   PO412912  11.116  21.249   9.608
  616POPC   GL112913  11.051  21.428   9.234
  616POPC   GL212914  11.309  21.244   9.104
  616POPC   C1A12915  10.980  21.663   8.846
  616POPC   D2A12916  10.999  21.638   8.398
  616POPC   C3A12917  11.264  21.574   8.047
  616POPC   C4A12918  11.031  21.374   7.732
  616POPC   C1B12919  11.309  21.267   8.679
  616POPC   C2B12920  11.527  21.024   8.397
  616POPC   C3B12921  11.495  21.088   7.978
  616POPC   C4B12922  11.528  21.322   7.605
  617POPC   NC312923   1.583  28.145   9.443
  617POPC   PO412924   0.878  28.076   9.534
  617POPC   GL112925   1.111  28.383   9.303
  617POPC   GL212926   1.189  28.118   9.097
  617POPC   C1A12927   1.320  28.612   8.959
  617POPC   D2A12928   1.253  28.725   8.512
  617POPC   C3A12929   1.244  28.416   8.142
  617POPC   C4A12930   1.188  28.499   7.711
  617POPC   C1B12931   1.162  28.220   8.667
  617POPC   C2B12932   1.382  27.951   8.410
  617POPC   C3B12933   1.562  27.907   8.034
  617POPC   C4B12934   1.326  27.957   7.666
  618POPC   NC312935  25.060  10.313   9.403
  618POPC   PO412936  25.673  10.615   9.324
  618POPC   GL112937  25.435  10.673   8.957
  618POPC   GL212938  25.110  10.795   9.066
  618POPC   C1A12939  25.303  10.777   8.530
  618POPC   D2A12940  25.254  10.936   8.110
  618POPC   C3A12941  25.457  10.625   7.907
  618POPC   C4A12942  25.428  10.232   7.792
  618POPC   C1B12943  25.000  10.433   8.775
  618POPC   C2B12944  24.861  10.279   8.390
  618POPC   C3B12945  24.991  10.468   8.038
  618POPC   C4B12946  24.953  10.777   7.728
  619POPC   NC312947  28.209  24.604   9.586
  619POPC   PO412948  28.878  24.455   9.426
  619POPC   GL112949  28.563  24.583   9.145
  619POPC   GL212950  28.184  24.412   9.126
  619POPC   C1A12951  28.659  24.861   8.777
  619POPC   D2A12952  28.594  24.808   8.330
  619POPC   C3A12953  28.392  24.414   8.215
  619POPC   C4A12954  28.293  24.256   7.827
  619POPC   C1B12955  28.276  24.535   8.722
  619POPC   C2B12956  28.059  24.732   8.421
  619POPC   C3B12957  28.145  24.836   8.034
  619POPC   C4B12958  27.907  24.676   7.741
  620POPC   NC312959  30.797  35.882   9.445
  620POPC   PO412960  30.774  36.569   9.378
  620POPC   GL112961  30.784  36.246   9.096
  620POPC   GL212962  30.467  36.206   9.060
  620POPC   C1A12963  30.905  36.057   8.694
  620POPC   D2A12964  30.744  36.011   8.292
  620POPC   C3A12965  30.981  36.119   7.932
  620POPC   C4A12966  30.898  36.140   7.489
  620POPC   C1B12967  30.355  36.029   8.675
  620POPC   C2B12968  30.269  35.837   8.235
  620POPC   C3B12969  30.480  35.977   7.827
  620POPC   C4B12970  30.426  35.887   7.366
  621POPC   NC312971   7.324  43.668   9.524
  621POPC   PO412972   7.637  44.207   9.661
  621POPC   GL112973   7.409  44.043   9.216
  621POPC   GL212974   7.099  43.941   9.029
  621POPC   C1A12975   7.496  43.759   8.806
  621POPC   D2A12976   7.352  43.863   8.385
  621POPC   C3A12977   7.648  43.818   8.072
  621POPC   C4A12978   7.629  43.682   7.661
  621POPC   C1B12979   7.019  43.577   8.695
  621POPC   C2B12980   7.217  43.356   8.347
  621POPC   C3B12981   7.236  43.486   7.939
  621POPC   C4B12982   7.185  43.902   7.837
  622POPC   NC312983   2.770  14.791   9.228
  622POPC   PO412984   2.689  14.174   9.541
  622POPC   GL112985   2.888  14.289   9.160
  622POPC   GL212986   2.553  14.234   9.026
  622POPC   C1A12987   2.855  14.470   8.692
  622POPC   D2A12988   2.972  14.429   8.273
  622POPC   C3A12989   2.908  14.751   7.955
  622POPC   C4A12990   2.774  14.549   7.575
  622POPC   C1B12991   2.858  13.969   8.772
  622POPC   C2B12992   2.930  13.902   8.359
  622POPC   C3B12993   2.690  14.074   8.018
  622POPC   C4B12994   2.886  14.012   7.612
  623POPC   NC312995  23.496  41.879   9.379
  623POPC   PO412996  23.771  42.454   9.480
  623POPC   GL112997  23.847  42.329   9.110
  623POPC   GL212998  23.760  42.674   8.988
  623POPC   C1A12999  23.647  42.287   8.696
  623POPC   D2A13000  23.715  42.552   8.332
  623POPC   C3A13001  23.541  42.388   7.969
  623POPC   C4A13002  23.674  42.071   7.680
  623POPC   C1B13003  24.089  42.514   8.706
  623POPC   C2B13004  24.236  42.537   8.285
  623POPC   C3B13005  24.069  42.326   7.949
  623POPC   C4B13006  24.019  42.440   7.529
  624POPC   NC313007  12.644  34.331   9.332
  624POPC   PO413008  12.702  34.943   9.409
  624POPC   GL113009  12.614  34.746   9.028
  624POPC   GL213010  12.948  34.559   8.989
  624POPC   C1A13011  12.701  34.771   8.587
  624POPC   D2A13012  13.092  34.804   8.411
  624POPC   C3A13013  13.092  34.617   8.020
  624POPC   C4A13014  13.043  34.200   7.844
  624POPC   C1B13015  12.872  34.271   8.652
  624POPC   C2B13016  12.708  34.338   8.231
  624POPC   C3B13017  12.505  34.314   7.805
  624POPC   C4B13018  12.364  34.106   7.368
  625POPC   NC313019  18.593  37.213   9.715
  625POPC   PO413020  18.292  37.819   9.571
  625POPC   GL113021  18.228  37.747   9.143
  625POPC   GL213022  18.473  37.713   8.919
  625POPC   C1A13023  17.974  37.664   8.777
  625POPC   D2A13024  17.885  37.580   8.356
  625POPC   C3A13025  18.229  37.619   8.073
  625POPC   C4A13026  18.142  37.702   7.621
  625POPC   C1B13027  18.707  37.600   8.572
  625POPC   C2B13028  18.687  37.275   8.276
  625POPC   C3B13029  18.811  37.376   7.901
  625POPC   C4B13030  18.627  37.686   7.690
  626POPC   NC313031  29.352  11.098   9.445
  626POPC   PO413032  28.625  11.059   9.532
  626POPC   GL113033  28.956  11.292   9.158
  626POPC   GL213034  29.284  11.519   9.166
  626POPC   C1A13035  29.102  11.182   8.743
  626POPC   D2A13036  29.222  11.062   8.344
  626POPC   C3A13037  29.001  11.200   7.988
  626POPC   C4A13038  29.303  11.170   7.655
  626POPC   C1B13039  29.263  11.665   8.759
  626POPC   C2B13040  29.090  11.576   8.347
  626POPC   C3B13041  29.283  11.612   7.942
  626POPC   C4B13042  29.060  11.606   7.544
  627POPC   NC313043   0.144  44.592   9.653
  627POPC   PO413044   0.580   0.059   9.420
  627POPC   GL113045   0.247  44.824   9.209
  627POPC   GL213046   0.354  44.470   9.189
  627POPC   C1A13047   0.054  44.768   8.807
  627POPC   D2A13048   0.291  44.863   8.424
  627POPC   C3A13049   0.250  44.654   8.008
  627POPC   C4A13050   0.441  44.837   7.639
  627POPC   C1B13051   0.583  44.556   8.817
  627POPC   C2B13052   0.591  44.393   8.398
  627POPC   C3B13053   0.740  44.441   7.997
  627POPC   C4B13054   0.597  44.313   7.626
  628POPC   NC313055  31.372  15.468   9.481
  628POPC   PO413056  31.328  16.126   9.400
  628POPC   GL113057  31.512  15.955   9.023
  628POPC   GL213058  31.719  16.233   9.026
  628POPC   C1A13059  31.455  15.875   8.546
  628POPC   D2A13060  31.227  15.693   8.160
  628POPC   C3A13061  31.451  15.715   7.755
  628POPC   C4A13062  31.756  16.100   7.619
  628POPC   C1B13063  31.355  16.393   8.775
  628POPC   C2B13064  31.383  16.351   8.342
  628POPC   C3B13065  31.340  16.192   7.902
  628POPC   C4B13066  31.285  16.120   7.421
  629POPC   NC313067  32.691  35.836   9.434
  629POPC   PO413068  32.208  36.281   9.560
  629POPC   GL113069  32.196  36.012   9.205
  629POPC   GL213070  31.958  36.217   9.033
  629POPC   C1A13071  32.375  35.854   8.844
  629POPC   D2A13072  32.587  36.036   8.502
  629POPC   C3A13073  32.326  36.045   8.151
  629POPC   C4A13074  32.348  36.020   7.730
  629POPC   C1B13075  32.045  36.158   8.601
  629POPC   C2B13076  31.879  36.309   8.235
  629POPC   C3B13077  31.946  36.367   7.810
  629POPC   C4B13078  31.866  36.083   7.481
  630POPC   NC313079  32.643  29.287   9.696
  630POPC   PO413080  33.263  28.973   9.525
  630POPC   GL113081  32.949  28.997   9.184
  630POPC   GL213082  32.832  29.351   9.130
  630POPC   C1A13083  33.037  29.111   8.742
  630POPC   D2A13084  32.823  29.052   8.357
  630POPC   C3A13085  33.060  29.090   8.015
  630POPC   C4A13086  33.081  28.805   7.725
  630POPC   C1B13087  32.652  29.454   8.698
  630POPC   C2B13088  32.721  29.546   8.246
  630POPC   C3B13089  32.598  29.291   7.883
  630POPC   C4B13090  32.518  29.323   7.441
  631POPC   NC313091  24.276  11.794   9.546
  631POPC   PO413092  24.575  12.387   9.410
  631POPC   GL113093  24.252  12.341   9.145
  631POPC   GL213094  24.365  11.990   9.072
  631POPC   C1A13095  24.321  12.517   8.735
  631POPC   D2A13096  24.649  12.411   8.417
  631POPC   C3A13097  24.584  12.202   8.026
  631POPC   C4A13098  24.591  12.432   7.650
  631POPC   C1B13099  24.356  11.765   8.665
  631POPC   C2B13100  24.561  11.717   8.238
  631POPC   C3B13101  24.570  11.637   7.782
  631POPC   C4B13102  24.216  11.820   7.549
  632POPC   NC313103  42.377   6.895   9.334
  632POPC   PO413104  42.024   6.441   9.619
  632POPC   GL113105  42.089   6.470   9.218
  632POPC   GL213106  41.919   6.734   9.136
  632POPC   C1A13107  42.281   6.542   8.803
  632POPC   D2A13108  42.275   6.482   8.383
  632POPC   C3A13109  42.331   6.854   8.124
  632POPC   C4A13110  42.372   6.784   7.701
  632POPC   C1B13111  41.749   6.455   8.832
  632POPC   C2B13112  41.762   6.332   8.426
  632POPC   C3B13113  41.951   6.263   8.049
  632POPC   C4B13114  42.024   6.411   7.683
  633POPC   NC313115  22.092  29.285   9.559
  633POPC   PO413116  22.181  28.722   9.519
  633POPC   GL113117  21.993  28.831   9.096
  633POPC   GL213118  22.053  29.175   9.069
  633POPC   C1A13119  21.806  28.990   8.686
  633POPC   D2A13120  21.843  29.305   8.393
  633POPC   C3A13121  21.885  29.159   7.979
  633POPC   C4A13122  22.098  29.414   7.681
  633POPC   C1B13123  22.304  28.973   8.724
  633POPC   C2B13124  22.180  28.875   8.308
  633POPC   C3B13125  22.365  29.014   7.911
  633POPC   C4B13126  22.564  28.810   7.587
  634POPC   NC313127   8.015  40.820   9.471
  634POPC   PO413128   8.140  41.529   9.493
  634POPC   GL113129   8.238  41.350   9.133
  634POPC   GL213130   7.908  41.214   9.118
  634POPC   C1A13131   8.379  41.554   8.758
  634POPC   D2A13132   8.279  41.744   8.374
  634POPC   C3A13133   8.304  41.447   8.001
  634POPC   C4A13134   8.336  41.393   7.523
  634POPC   C1B13135   7.876  41.619   8.890
  634POPC   C2B13136   7.751  41.613   8.479
  634POPC   C3B13137   7.872  41.728   8.065
  634POPC   C4B13138   7.861  41.434   7.742
  635POPC   NC313139  25.004   9.541   9.651
  635POPC   PO413140  25.508   9.895   9.400
  635POPC   GL113141  25.507   9.690   9.008
  635POPC   GL213142  25.228   9.484   9.161
  635POPC   C1A13143  25.479   9.832   8.561
  635POPC   D2A13144  25.353  10.196   8.304
  635POPC   C3A13145  25.087   9.961   8.019
  635POPC   C4A13146  25.344   9.624   7.841
  635POPC   C1B13147  25.203   9.395   8.729
  635POPC   C2B13148  25.106   9.523   8.311
  635POPC   C3B13149  24.854   9.518   7.939
  635POPC   C4B13150  24.991   9.451   7.505
  636POPC   NC313151  35.009   4.393   9.455
  636POPC   PO413152  35.673   4.232   9.297
  636POPC   GL113153  35.297   4.185   9.077
  636POPC   GL213154  35.245   4.533   9.035
  636POPC   C1A13155  35.260   4.226   8.631
  636POPC   D2A13156  35.537   4.435   8.347
  636POPC   C3A13157  35.731   4.091   8.187
  636POPC   C4A13158  35.365   4.030   7.939
  636POPC   C1B13159  34.880   4.541   8.761
  636POPC   C2B13160  34.961   4.573   8.319
  636POPC   C3B13161  34.967   4.556   7.870
  636POPC   C4B13162  35.300   4.480   7.593
  637POPC   NC313163  15.335  44.056   9.519
  637POPC   PO413164  14.815  43.676   9.696
  637POPC   GL113165  15.105  43.643   9.317
  637POPC   GL213166  15.486  43.700   9.192
  637POPC   C1A13167  15.060  43.747   8.887
  637POPC   D2A13168  15.264  43.695   8.498
  637POPC   C3A13169  15.066  43.841   8.161
  637POPC   C4A13170  15.086  43.677   7.810
  637POPC   C1B13171  15.668  43.845   8.771
  637POPC   C2B13172  15.588  44.073   8.377
  637POPC   C3B13173  15.524  43.934   7.950
  637POPC   C4B13174  15.177  44.151   7.705
  638POPC   NC313175   4.100  17.223   9.655
  638POPC   PO413176   4.252  17.817   9.905
  638POPC   GL113177   4.310  17.560   9.385
  638POPC   GL213178   3.972  17.545   9.269
  638POPC   C1A13179   4.359  17.468   8.929
  638POPC   D2A13180   4.372  17.624   8.495
  638POPC   C3A13181   4.371  17.387   8.117
  638POPC   C4A13182   4.217  17.608   7.759
  638POPC   C1B13183   3.937  17.776   8.912
  638POPC   C2B13184   4.062  18.034   8.588
  638POPC   C3B13185   4.068  17.967   8.137
  638POPC   C4B13186   4.183  18.159   7.745
  639POPC   NC313187  23.668  25.592   9.474
  639POPC   PO413188  23.821  24.916   9.547
  639POPC   GL113189  23.662  25.143   9.220
  639POPC   GL213190  23.969  25.253   9.132
  639POPC   C1A13191  23.629  25.042   8.777
  639POPC   D2A13192  23.877  25.061   8.415
  639POPC   C3A13193  23.646  25.143   8.043
  639POPC   C4A13194  23.689  24.988   7.645
  639POPC   C1B13195  23.805  25.497   8.782
  639POPC   C2B13196  23.580  25.540   8.383
  639POPC   C3B13197  23.703  25.678   7.981
  639POPC   C4B13198  23.816  25.488   7.614
  640POPC   NC313199  22.096  36.693   9.547
  640POPC   PO413200  22.409  37.407   9.539
  640POPC   GL113201  22.330  37.167   9.186
  640POPC   GL213202  22.024  37.005   9.159
  640POPC   C1A13203  22.349  37.038   8.760
  640POPC   D2A13204  22.445  36.870   8.377
  640POPC   C3A13205  22.369  37.204   8.113
  640POPC   C4A13206  22.227  37.267   7.726
  640POPC   C1B13207  21.751  36.974   8.832
  640POPC   C2B13208  21.691  36.753   8.462
  640POPC   C3B13209  21.970  36.822   8.136
  640POPC   C4B13210  21.900  36.876   7.754
  641POPC   NC313211   2.673  16.422   9.920
  641POPC   PO413212   2.703  15.892   9.535
  641POPC   GL113213   2.755  15.976   9.133
  641POPC   GL213214   2.774  16.289   9.182
  641POPC   C1A13215   2.892  16.121   8.728
  641POPC   D2A13216   2.987  15.941   8.373
  641POPC   C3A13217   2.768  16.055   8.006
  641POPC   C4A13218   2.946  15.982   7.638
  641POPC   C1B13219   2.440  16.319   8.835
  641POPC   C2B13220   2.490  16.239   8.405
  641POPC   C3B13221   2.308  16.279   7.995
  641POPC   C4B13222   2.516  16.290   7.601
  642POPC   NC313223   6.211  35.846   9.558
  642POPC   PO413224   5.771  36.389   9.453
  642POPC   GL113225   6.077  36.286   9.175
  642POPC   GL213226   6.043  35.925   9.070
  642POPC   C1A13227   6.129  36.332   8.745
  642POPC   D2A13228   6.053  35.954   8.506
  642POPC   C3A13229   6.028  36.107   8.105
  642POPC   C4A13230   6.085  35.943   7.734
  642POPC   C1B13231   5.677  36.105   8.839
  642POPC   C2B13232   5.687  36.335   8.434
  642POPC   C3B13233   5.549  36.261   8.022
  642POPC   C4B13234   5.401  36.234   7.606
  643POPC   NC313235  29.647  26.539   9.271
  643POPC   PO413236  29.886  27.030   9.641
  643POPC   GL113237  30.093  26.884   9.207
  643POPC   GL213238  30.157  26.567   9.083
  643POPC   C1A13239  30.059  26.914   8.693
  643POPC   D2A13240  29.931  27.166   8.335
  643POPC   C3A13241  29.801  26.923   7.981
  643POPC   C4A13242  29.826  27.056   7.518
  643POPC   C1B13243  29.949  26.397   8.714
  643POPC   C2B13244  29.830  26.524   8.321
  643POPC   C3B13245  29.660  26.387   7.938
  643POPC   C4B13246  29.872  26.555   7.592
  644POPC   NC313247  35.268  38.742   9.425
  644POPC   PO413248  35.624  38.179   9.453
  644POPC   GL113249  35.475  38.386   9.095
  644POPC   GL213250  35.715  38.607   9.179
  644POPC   C1A13251  35.168  38.416   8.720
  644POPC   D2A13252  35.301  38.349   8.267
  644POPC   C3A13253  35.142  38.660   7.959
  644POPC   C4A13254  34.895  38.650   7.560
  644POPC   C1B13255  35.517  38.780   8.794
  644POPC   C2B13256  35.655  38.695   8.406
  644POPC   C3B13257  35.775  38.612   8.022
  644POPC   C4B13258  35.541  38.570   7.658
  645POPC   NC313259  10.614  41.935   9.267
  645POPC   PO413260  10.502  42.447   9.627
  645POPC   GL113261  10.529  42.490   9.181
  645POPC   GL213262  10.226  42.250   9.152
  645POPC   C1A13263  10.787  42.701   8.829
  645POPC   D2A13264  10.850  42.872   8.384
  645POPC   C3A13265  10.542  42.773   8.089
  645POPC   C4A13266  10.480  42.480   7.767
  645POPC   C1B13267  10.382  42.275   8.723
  645POPC   C2B13268  10.202  42.475   8.356
  645POPC   C3B13269  10.042  42.316   7.983
  645POPC   C4B13270  10.205  42.071   7.652
  646POPC   NC313271  24.585  12.852   9.432
  646POPC   PO413272  23.874  12.853   9.471
  646POPC   GL113273  24.160  12.889   9.101
  646POPC   GL213274  24.459  13.155   9.037
  646POPC   C1A13275  24.174  13.005   8.665
  646POPC   D2A13276  24.471  12.895   8.376
  646POPC   C3A13277  24.418  13.079   7.988
  646POPC   C4A13278  24.389  12.929   7.611
  646POPC   C1B13279  24.772  12.888   8.797
  646POPC   C2B13280  24.978  12.805   8.396
  646POPC   C3B13281  24.802  12.718   8.005
  646POPC   C4B13282  24.880  12.888   7.576
  647POPC   NC313283  39.867   5.103   9.697
  647POPC   PO413284  40.303   4.714   9.288
  647POPC   GL113285  40.056   5.011   9.118
  647POPC   GL213286  39.733   5.124   9.187
  647POPC   C1A13287  40.149   5.179   8.742
  647POPC   D2A13288  40.312   5.124   8.342
  647POPC   C3A13289  40.048   4.994   8.010
  647POPC   C4A13290  40.156   5.261   7.683
  647POPC   C1B13291  39.695   5.397   8.805
  647POPC   C2B13292  39.833   5.320   8.349
  647POPC   C3B13293  39.707   5.431   7.896
  647POPC   C4B13294  39.753   5.412   7.412
  648POPC   NC313295  17.611  36.945   9.590
  648POPC   PO413296  17.184  37.283   9.197
  648POPC   GL113297  17.309  36.851   9.074
  648POPC   GL213298  17.648  36.682   9.160
  648POPC   C1A13299  17.232  36.794   8.622
  648POPC   D2A13300  17.266  36.762   8.164
  648POPC   C3A13301  17.451  37.071   7.875
  648POPC   C4A13302  17.410  37.067   7.430
  648POPC   C1B13303  17.911  36.487   8.853
  648POPC   C2B13304  17.738  36.669   8.502
  648POPC   C3B13305  17.769  36.724   8.097
  648POPC   C4B13306  17.651  36.631   7.701
  649POPC   NC313307  43.155  29.685   9.617
  649POPC   PO413308  43.336  30.314   9.537
  649POPC   GL113309  43.354  30.004   9.240
  649POPC   GL213310  43.022  29.882   9.157
  649POPC   C1A13311  43.427  29.893   8.820
  649POPC   D2A13312  43.409  30.148   8.468
  649POPC   C3A13313  43.334  29.935   8.119
  649POPC   C4A13314  43.444  30.054   7.734
  649POPC   C1B13315  42.976  30.122   8.759
  649POPC   C2B13316  42.904  30.253   8.315
  649POPC   C3B13317  42.930  30.136   7.860
  649POPC   C4B13318  42.658  29.927   7.535
  650POPC   NC313319  26.456  39.040   9.423
  650POPC   PO413320  27.075  38.906   9.275
  650POPC   GL113321  27.004  39.174   8.951
  650POPC   GL213322  26.693  39.299   9.036
  650POPC   C1A13323  26.788  39.130   8.564
  650POPC   D2A13324  26.506  39.209   8.253
  650POPC   C3A13325  26.765  39.116   7.988
  650POPC   C4A13326  26.643  38.917   7.693
  650POPC   C1B13327  26.756  39.608   8.737
  650POPC   C2B13328  27.011  39.634   8.425
  650POPC   C3B13329  26.772  39.613   8.107
  650POPC   C4B13330  26.795  39.531   7.715
  651POPC   NC313331  44.820   7.807   9.703
  651POPC   PO413332  44.471   8.364   9.589
  651POPC   GL113333  44.545   8.242   9.201
  651POPC   GL213334  44.829   8.085   9.248
  651POPC   C1A13335  44.773   8.353   8.800
  651POPC   D2A13336  44.931   8.313   8.368
  651POPC   C3A13337  44.670   8.171   8.008
  651POPC   C4A13338  44.587   8.381   7.611
  651POPC   C1B13339  44.651   7.861   8.851
  651POPC   C2B13340  44.805   7.815   8.404
  651POPC   C3B13341   0.091   7.898   8.020
  651POPC   C4B13342  44.905   7.954   7.593
  652POPC   NC313343  38.612  22.134   9.594
  652POPC   PO413344  37.976  22.016   9.556
  652POPC   GL113345  38.232  21.959   9.154
  652POPC   GL213346  38.568  21.816   9.187
  652POPC   C1A13347  38.310  22.101   8.752
  652POPC   D2A13348  38.476  21.981   8.393
  652POPC   C3A13349  38.295  22.236   8.119
  652POPC   C4A13350  38.374  22.052   7.790
  652POPC   C1B13351  38.815  22.070   8.876
  652POPC   C2B13352  38.802  22.332   8.504
  652POPC   C3B13353  38.801  22.204   8.052
  652POPC   C4B13354  38.835  21.797   7.917
  653POPC   NC313355  11.650  13.430   9.547
  653POPC   PO413356  12.236  13.715   9.273
  653POPC   GL113357  12.182  13.384   9.023
  653POPC   GL213358  11.813  13.391   9.066
  653POPC   C1A13359  12.308  13.401   8.583
  653POPC   D2A13360  12.422  13.746   8.276
  653POPC   C3A13361  12.208  13.819   7.921
  653POPC   C4A13362  12.219  13.638   7.509
  653POPC   C1B13363  11.794  13.358   8.641
  653POPC   C2B13364  11.878  13.597   8.272
  653POPC   C3B13365  11.847  13.460   7.849
  653POPC   C4B13366  11.749  13.431   7.419
  654POPC   NC313367   6.956  35.595   9.413
  654POPC   PO413368   6.508  35.041   9.320
  654POPC   GL113369   6.660  35.359   9.080
  654POPC   GL213370   6.479  35.632   9.171
  654POPC   C1A13371   6.836  35.544   8.730
  654POPC   D2A13372   6.653  35.471   8.335
  654POPC   C3A13373   6.872  35.361   7.971
  654POPC   C4A13374   6.747  35.182   7.578
  654POPC   C1B13375   6.268  35.545   8.768
  654POPC   C2B13376   6.151  35.376   8.363
  654POPC   C3B13377   6.366  35.194   7.987
  654POPC   C4B13378   6.451  35.562   7.735
  655POPC   NC313379  30.930  40.163   9.581
  655POPC   PO413380  30.471  39.654   9.743
  655POPC   GL113381  30.550  39.816   9.294
  655POPC   GL213382  30.877  39.873   9.172
  655POPC   C1A13383  30.597  39.692   8.819
  655POPC   D2A13384  30.905  39.792   8.502
  655POPC   C3A13385  30.752  39.827   8.060
  655POPC   C4A13386  30.495  40.022   7.724
  655POPC   C1B13387  30.734  40.177   8.829
  655POPC   C2B13388  30.817  40.303   8.377
  655POPC   C3B13389  31.073  40.219   7.991
  655POPC   C4B13390  30.884  40.351   7.600
  656POPC   NC313391  37.570  33.429   9.472
  656POPC   PO413392  37.637  32.727   9.589
  656POPC   GL113393  37.771  32.923   9.242
  656POPC   GL213394  37.429  32.977   9.154
  656POPC   C1A13395  37.940  32.841   8.835
  656POPC   D2A13396  37.815  32.924   8.410
  656POPC   C3A13397  37.935  32.822   7.976
  656POPC   C4A13398  37.743  33.019   7.576
  656POPC   C1B13399  37.287  33.231   8.805
  656POPC   C2B13400  37.423  33.245   8.389
  656POPC   C3B13401  37.640  33.308   8.002
  656POPC   C4B13402  37.415  33.447   7.665
  657POPC   NC313403  28.941  42.170   9.604
  657POPC   PO413404  29.464  42.517   9.461
  657POPC   GL113405  29.241  42.229   9.197
  657POPC   GL213406  28.926  42.414   9.144
  657POPC   C1A13407  29.171  42.068   8.780
  657POPC   D2A13408  29.401  42.185   8.414
  657POPC   C3A13409  29.268  42.037   8.012
  657POPC   C4A13410  29.318  42.257   7.639
  657POPC   C1B13411  29.248  42.564   8.827
  657POPC   C2B13412  29.352  42.696   8.433
  657POPC   C3B13413  29.229  42.548   8.050
  657POPC   C4B13414  29.081  42.696   7.671
  658POPC   NC313415  11.476  29.068   9.658
  658POPC   PO413416  10.962  29.417   9.390
  658POPC   GL113417  11.328  29.243   9.189
  658POPC   GL213418  11.380  28.916   9.082
  658POPC   C1A13419  11.374  29.296   8.737
  658POPC   D2A13420  11.197  29.497   8.376
  658POPC   C3A13421  11.297  29.258   7.992
  658POPC   C4A13422  11.731  29.260   7.759
  658POPC   C1B13423  11.101  28.842   8.718
  658POPC   C2B13424  11.091  28.722   8.253
  658POPC   C3B13425  11.072  28.801   7.801
  658POPC   C4B13426  11.357  29.030   7.525
  659POPC   NC313427  23.740  22.335   9.574
  659POPC   PO413428  23.471  21.747   9.563
  659POPC   GL113429  23.652  21.988   9.155
  659POPC   GL213430  23.780  22.326   9.072
  659POPC   C1A13431  23.548  22.085   8.699
  659POPC   D2A13432  23.796  22.193   8.332
  659POPC   C3A13433  23.714  21.964   7.939
  659POPC   C4A13434  23.411  22.186   7.708
  659POPC   C1B13435  24.048  22.461   8.713
  659POPC   C2B13436  24.086  22.621   8.302
  659POPC   C3B13437  23.877  22.520   7.940
  659POPC   C4B13438  23.886  22.304   7.586
  660POPC   NC313439   0.963  18.988   9.548
  660POPC   PO413440   1.576  19.309   9.497
  660POPC   GL113441   1.334  19.208   9.144
  660POPC   GL213442   1.295  18.852   9.158
  660POPC   C1A13443   1.451  19.135   8.691
  660POPC   D2A13444   1.308  18.918   8.300
  660POPC   C3A13445   1.300  19.175   7.912
  660POPC   C4A13446   0.939  19.315   7.681
  660POPC   C1B13447   1.185  18.663   8.769
  660POPC   C2B13448   1.081  18.415   8.390
  660POPC   C3B13449   1.021  18.590   7.991
  660POPC   C4B13450   1.209  18.709   7.636
  661POPC   NC313451  21.107   2.357   9.524
  661POPC   PO413452  21.475   2.934   9.511
  661POPC   GL113453  21.259   2.747   9.191
  661POPC   GL213454  21.060   2.986   9.063
  661POPC   C1A13455  21.439   2.661   8.803
  661POPC   D2A13456  21.683   2.822   8.471
  661POPC   C3A13457  21.576   2.938   8.052
  661POPC   C4A13458  21.532   2.754   7.640
  661POPC   C1B13459  21.042   2.895   8.649
  661POPC   C2B13460  21.196   2.604   8.354
  661POPC   C3B13461  21.119   2.697   7.964
  661POPC   C4B13462  21.151   3.075   7.759
  662POPC   NC313463  19.620  44.635   9.487
  662POPC   PO413464  20.205  44.876   9.499
  662POPC   GL113465  20.027  44.586   9.152
  662POPC   GL213466  19.694  44.329   9.084
  662POPC   C1A13467  19.874  44.631   8.737
  662POPC   D2A13468  19.653  44.755   8.383
  662POPC   C3A13469  19.944  44.799   8.075
  662POPC   C4A13470  20.020  44.559   7.735
  662POPC   C1B13471  19.572  44.194   8.660
  662POPC   C2B13472  19.486  44.297   8.221
  662POPC   C3B13473  19.523  44.546   7.830
  662POPC   C4B13474  19.532  44.458   7.371
  663POPC   NC313475  27.598  24.231   9.337
  663POPC   PO413476  27.676  24.854   9.470
  663POPC   GL113477  27.720  24.673   9.105
  663POPC   GL213478  27.383  24.600   9.059
  663POPC   C1A13479  27.778  24.409   8.743
  663POPC   D2A13480  27.997  24.151   8.467
  663POPC   C3A13481  27.886  24.321   8.106
  663POPC   C4A13482  27.586  24.226   7.820
  663POPC   C1B13483  27.265  24.283   8.753
  663POPC   C2B13484  27.426  24.326   8.332
  663POPC   C3B13485  27.462  24.675   8.026
  663POPC   C4B13486  27.244  25.059   7.867
  664POPC   NC313487  23.317   6.907   9.603
  664POPC   PO413488  23.816   6.490   9.441
  664POPC   GL113489  23.666   6.496   9.076
  664POPC   GL213490  23.598   6.859   9.097
  664POPC   C1A13491  23.740   6.610   8.670
  664POPC   D2A13492  23.559   6.854   8.378
  664POPC   C3A13493  23.597   6.598   8.026
  664POPC   C4A13494  23.900   6.322   7.810
  664POPC   C1B13495  24.011   6.945   8.915
  664POPC   C2B13496  24.045   7.023   8.466
  664POPC   C3B13497  24.039   6.974   8.028
  664POPC   C4B13498  23.851   6.824   7.649
  665POPC   NC313499   1.654  22.745   9.341
  665POPC   PO413500   1.846  23.343   9.443
  665POPC   GL113501   2.070  23.095   9.155
  665POPC   GL213502   1.753  23.099   8.987
  665POPC   C1A13503   2.123  22.923   8.719
  665POPC   D2A13504   1.842  22.891   8.374
  665POPC   C3A13505   2.106  22.824   8.048
  665POPC   C4A13506   2.192  22.843   7.638
  665POPC   C1B13507   1.872  23.356   8.640
  665POPC   C2B13508   1.881  23.364   8.211
  665POPC   C3B13509   1.738  23.103   7.873
  665POPC   C4B13510   1.434  23.216   7.577
  666POPC   NC313511   6.186  11.150   9.502
  666POPC   PO413512   5.523  11.353   9.543
  666POPC   GL113513   5.569  11.475   9.117
  666POPC   GL213514   5.906  11.354   9.101
  666POPC   C1A13515   5.542  11.262   8.734
  666POPC   D2A13516   5.699  11.060   8.377
  666POPC   C3A13517   5.718  11.362   8.050
  666POPC   C4A13518   5.674  11.362   7.618
  666POPC   C1B13519   6.137  11.165   8.743
  666POPC   C2B13520   6.184  11.275   8.294
  666POPC   C3B13521   6.171  11.233   7.812
  666POPC   C4B13522   6.117  11.511   7.401
  667POPC   NC313523   9.200  30.649   9.401
  667POPC   PO413524   8.573  30.884   9.452
  667POPC   GL113525   8.833  30.876   9.115
  667POPC   GL213526   8.873  30.545   9.033
  667POPC   C1A13527   9.037  30.846   8.666
  667POPC   D2A13528   8.940  30.690   8.255
  667POPC   C3A13529   9.204  30.764   7.917
  667POPC   C4A13530   9.102  30.977   7.569
  667POPC   C1B13531   9.029  30.345   8.635
  667POPC   C2B13532   9.184  30.253   8.226
  667POPC   C3B13533   9.125  30.267   7.784
  667POPC   C4B13534   9.151  30.483   7.377
  668POPC   NC313535  39.422   2.123   9.538
  668POPC   PO413536  38.793   1.939   9.478
  668POPC   GL113537  39.063   1.870   9.131
  668POPC   GL213538  39.308   2.123   9.052
  668POPC   C1A13539  39.123   1.643   8.752
  668POPC   D2A13540  39.148   1.879   8.403
  668POPC   C3A13541  39.228   1.715   8.017
  668POPC   C4A13542  39.125   2.000   7.698
  668POPC   C1B13543  39.533   1.964   8.737
  668POPC   C2B13544  39.644   1.882   8.315
  668POPC   C3B13545  39.433   2.180   8.065
  668POPC   C4B13546  39.519   2.345   7.693
  669POPC   NC313547   5.042  38.176   9.537
  669POPC   PO413548   5.093  37.529   9.541
  669POPC   GL113549   5.174  37.791   9.171
  669POPC   GL213550   4.897  38.047   9.079
  669POPC   C1A13551   5.234  37.527   8.782
  669POPC   D2A13552   5.263  37.636   8.340
  669POPC   C3A13553   5.245  37.786   7.968
  669POPC   C4A13554   5.051  37.473   7.737
  669POPC   C1B13555   4.994  37.969   8.697
  669POPC   C2B13556   4.786  37.623   8.504
  669POPC   C3B13557   4.751  37.669   8.082
  669POPC   C4B13558   4.804  38.062   7.867
  670POPC   NC313559   8.120  21.855   9.402
  670POPC   PO413560   8.781  22.008   9.529
  670POPC   GL113561   8.529  21.989   9.112
  670POPC   GL213562   8.258  22.256   9.118
  670POPC   C1A13563   8.439  22.179   8.673
  670POPC   D2A13564   8.113  22.071   8.354
  670POPC   C3A13565   8.286  22.176   7.950
  670POPC   C4A13566   8.404  21.975   7.557
  670POPC   C1B13567   7.946  22.365   8.793
  670POPC   C2B13568   7.708  22.407   8.418
  670POPC   C3B13569   7.797  22.374   7.984
  670POPC   C4B13570   8.049  22.613   7.729
  671POPC   NC313571  16.889  21.542   9.241
  671POPC   PO413572  16.291  21.486   9.447
  671POPC   GL113573  16.215  21.486   9.034
  671POPC   GL213574  16.533  21.337   8.922
  671POPC   C1A13575  16.282  21.623   8.601
  671POPC   D2A13576  16.608  21.657   8.268
  671POPC   C3A13577  16.707  21.299   7.972
  671POPC   C4A13578  16.645  21.008   7.604
  671POPC   C1B13579  16.583  21.169   8.471
  671POPC   C2B13580  16.776  20.834   8.157
  671POPC   C3B13581  17.051  20.744   7.781
  671POPC   C4B13582  16.973  20.711   7.323
  672POPC   NC313583  28.334  15.665   9.568
  672POPC   PO413584  28.358  16.244   9.518
  672POPC   GL113585  28.336  15.970   9.149
  672POPC   GL213586  28.644  15.717   9.179
  672POPC   C1A13587  28.218  15.993   8.718
  672POPC   D2A13588  28.340  15.831   8.322
  672POPC   C3A13589  28.168  15.915   7.906
  672POPC   C4A13590  28.358  16.114   7.538
  672POPC   C1B13591  28.482  15.558   8.812
  672POPC   C2B13592  28.618  15.384   8.431
  672POPC   C3B13593  28.440  15.459   7.998
  672POPC   C4B13594  28.439  15.606   7.568
  673POPC   NC313595  34.295  21.781   9.433
  673POPC   PO413596  34.668  21.342   9.747
  673POPC   GL113597  34.659  21.467   9.218
  673POPC   GL213598  34.961  21.376   9.106
  673POPC   C1A13599  34.655  21.539   8.737
  673POPC   D2A13600  34.489  21.387   8.343
  673POPC   C3A13601  34.454  21.579   7.966
  673POPC   C4A13602  34.725  21.548   7.678
  673POPC   C1B13603  35.045  21.153   8.747
  673POPC   C2B13604  34.872  21.007   8.387
  673POPC   C3B13605  34.891  21.223   8.027
  673POPC   C4B13606  35.115  21.146   7.659
  674POPC   NC313607  35.747   2.271   9.276
  674POPC   PO413608  35.497   1.693   9.565
  674POPC   GL113609  35.317   1.826   9.158
  674POPC   GL213610  35.059   2.095   9.105
  674POPC   C1A13611  35.444   2.008   8.773
  674POPC   D2A13612  35.646   2.174   8.429
  674POPC   C3A13613  35.464   2.051   8.064
  674POPC   C4A13614  35.514   1.903   7.657
  674POPC   C1B13615  35.049   2.363   8.766
  674POPC   C2B13616  35.187   2.396   8.364
  674POPC   C3B13617  34.997   2.275   7.998
  674POPC   C4B13618  35.169   2.273   7.595
  675POPC   NC313619  18.929  38.998   9.407
  675POPC   PO413620  18.997  39.670   9.469
  675POPC   GL113621  18.948  39.432   9.120
  675POPC   GL213622  19.295  39.263   9.147
  675POPC   C1A13623  19.037  39.319   8.706
  675POPC   D2A13624  19.403  39.410   8.490
  675POPC   C3A13625  19.209  39.422   8.146
  675POPC   C4A13626  18.940  39.426   7.814
  675POPC   C1B13627  19.393  38.962   8.810
  675POPC   C2B13628  19.266  38.921   8.357
  675POPC   C3B13629  19.146  38.938   7.922
  675POPC   C4B13630  18.870  38.989   7.563
  676POPC   NC313631   8.147  36.077   9.509
  676POPC   PO413632   8.238  36.723   9.514
  676POPC   GL113633   8.348  36.395   9.164
  676POPC   GL213634   8.549  36.045   9.206
  676POPC   C1A13635   8.155  36.061   8.838
  676POPC   D2A13636   7.881  36.026   8.451
  676POPC   C3A13637   8.042  36.127   8.051
  676POPC   C4A13638   8.297  35.852   7.818
  676POPC   C1B13639   8.651  36.229   8.796
  676POPC   C2B13640   8.436  36.214   8.396
  676POPC   C3B13641   8.495  36.341   7.978
  676POPC   C4B13642   8.498  36.425   7.548
  677POPC   NC313643  25.812  21.172   9.760
  677POPC   PO413644  26.041  21.751   9.525
  677POPC   GL113645  25.939  21.530   9.158
  677POPC   GL213646  25.776  21.212   9.204
  677POPC   C1A13647  26.138  21.450   8.760
  677POPC   D2A13648  26.034  21.269   8.365
  677POPC   C3A13649  26.153  21.513   8.031
  677POPC   C4A13650  25.979  21.631   7.642
  677POPC   C1B13651  25.899  21.001   8.792
  677POPC   C2B13652  25.887  20.776   8.424
  677POPC   C3B13653  25.917  20.879   8.011
  677POPC   C4B13654  25.755  21.226   7.818
  678POPC   NC313655  12.131   1.708   9.542
  678POPC   PO413656  12.101   2.338   9.450
  678POPC   GL113657  12.185   2.095   9.117
  678POPC   GL213658  11.899   1.935   9.118
  678POPC   C1A13659  12.249   1.929   8.692
  678POPC   D2A13660  12.370   1.903   8.215
  678POPC   C3A13661  12.323   2.255   7.920
  678POPC   C4A13662  12.249   2.486   7.548
  678POPC   C1B13663  11.744   1.750   8.734
  678POPC   C2B13664  11.866   1.873   8.339
  678POPC   C3B13665  11.879   2.013   7.929
  678POPC   C4B13666  11.824   1.725   7.567
  679POPC   NC313667  20.436   2.403   9.383
  679POPC   PO413668  20.766   1.958   9.739
  679POPC   GL113669  20.760   2.039   9.248
  679POPC   GL213670  20.432   1.987   9.088
  679POPC   C1A13671  20.841   1.872   8.824
  679POPC   D2A13672  20.494   1.772   8.546
  679POPC   C3A13673  20.666   1.793   8.150
  679POPC   C4A13674  20.633   1.898   7.740
  679POPC   C1B13675  20.486   2.262   8.732
  679POPC   C2B13676  20.395   2.225   8.333
  679POPC   C3B13677  20.194   1.933   8.110
  679POPC   C4B13678  20.214   2.183   7.820
  680POPC   NC313679   8.117  14.822   9.475
  680POPC   PO413680   8.511  15.334   9.755
  680POPC   GL113681   8.350  15.538   9.195
  680POPC   GL213682   8.016  15.363   9.104
  680POPC   C1A13683   8.400  15.382   8.753
  680POPC   D2A13684   8.450  15.033   8.491
  680POPC   C3A13685   8.264  15.120   8.093
  680POPC   C4A13686   8.470  14.961   7.731
  680POPC   C1B13687   7.802  15.222   8.716
  680POPC   C2B13688   7.725  15.295   8.265
  680POPC   C3B13689   7.806  15.196   7.837
  680POPC   C4B13690   7.749  15.339   7.390
  681POPC   NC313691  33.585  17.736   9.477
  681POPC   PO413692  34.127  17.351   9.589
  681POPC   GL113693  33.971  17.420   9.164
  681POPC   GL213694  33.722  17.623   9.014
  681POPC   C1A13695  34.039  17.331   8.736
  681POPC   D2A13696  34.044  17.092   8.381
  681POPC   C3A13697  34.000  17.380   8.063
  681POPC   C4A13698  33.814  17.290   7.691
  681POPC   C1B13699  33.683  17.876   8.676
  681POPC   C2B13700  33.620  17.858   8.260
  681POPC   C3B13701  33.621  17.727   7.856
  681POPC   C4B13702  33.941  17.776   7.537
  682POPC   NC313703  14.458  21.055   9.424
  682POPC   PO413704  14.112  21.633   9.305
  682POPC   GL113705  14.488  21.501   9.136
  682POPC   GL213706  14.298  21.197   8.962
  682POPC   C1A13707  14.738  21.378   8.786
  682POPC   D2A13708  14.589  21.134   8.458
  682POPC   C3A13709  14.598  21.301   8.054
  682POPC   C4A13710  14.390  21.170   7.709
  682POPC   C1B13711  14.241  21.534   8.674
  682POPC   C2B13712  13.997  21.571   8.344
  682POPC   C3B13713  14.130  21.540   7.946
  682POPC   C4B13714  14.280  21.635   7.559
  683POPC   NC313715  43.364  10.529   9.333
  683POPC   PO413716  42.715  10.311   9.401
  683POPC   GL113717  42.939  10.240   9.046
  683POPC   GL213718  43.211  10.051   9.155
  683POPC   C1A13719  43.080  10.546   8.743
  683POPC   D2A13720  43.010  10.779   8.380
  683POPC   C3A13721  43.321  10.702   8.065
  683POPC   C4A13722  43.073  10.786   7.669
  683POPC   C1B13723  43.372  10.110   8.752
  683POPC   C2B13724  43.276  10.253   8.349
  683POPC   C3B13725  43.460  10.178   7.969
  683POPC   C4B13726  43.491  10.481   7.648
  684POPC   NC313727  18.652  39.913   9.700
  684POPC   PO413728  19.255  40.269   9.483
  684POPC   GL113729  19.243  40.059   9.134
  684POPC   GL213730  19.484  40.256   8.994
  684POPC   C1A13731  19.273  39.767   8.824
  684POPC   D2A13732  19.002  39.792   8.456
  684POPC   C3A13733  19.153  39.932   8.060
  684POPC   C4A13734  19.358  39.698   7.741
  684POPC   C1B13735  19.136  40.246   8.663
  684POPC   C2B13736  18.931  40.369   8.293
  684POPC   C3B13737  18.842  40.302   7.870
  684POPC   C4B13738  19.158  40.138   7.561
  685POPC   NC313739  28.773  37.037   9.619
  685POPC   PO413740  29.104  36.513   9.425
  685POPC   GL113741  29.119  36.966   9.224
  685POPC   GL213742  28.773  37.114   9.119
  685POPC   C1A13743  29.172  37.163   8.795
  685POPC   D2A13744  29.314  37.159   8.382
  685POPC   C3A13745  29.472  36.805   8.213
  685POPC   C4A13746  29.382  36.949   7.845
  685POPC   C1B13747  28.848  36.752   8.845
  685POPC   C2B13748  28.961  36.764   8.405
  685POPC   C3B13749  28.895  36.874   7.981
  685POPC   C4B13750  28.944  36.852   7.548
  686POPC   NC313751  16.887  44.217   9.547
  686POPC   PO413752  16.574  43.597   9.486
  686POPC   GL113753  16.862  43.827   9.171
  686POPC   GL213754  17.069  44.199   9.091
  686POPC   C1A13755  16.695  43.663   8.752
  686POPC   D2A13756  16.473  43.690   8.368
  686POPC   C3A13757  16.334  43.660   7.915
  686POPC   C4A13758  16.735  43.670   7.698
  686POPC   C1B13759  16.717  44.175   8.811
  686POPC   C2B13760  16.548  44.267   8.395
  686POPC   C3B13761  16.587  44.076   8.027
  686POPC   C4B13762  16.488  44.118   7.626
  687POPC   NC313763  16.513  44.802   9.602
  687POPC   PO413764  17.172  44.603   9.485
  687POPC   GL113765  16.923  44.757   9.202
  687POPC   GL213766  16.645  44.529   9.187
  687POPC   C1A13767  16.902  44.665   8.784
  687POPC   D2A13768  16.890  44.763   8.383
  687POPC   C3A13769  16.846  44.516   8.038
  687POPC   C4A13770  16.714  44.596   7.603
  687POPC   C1B13771  16.406  44.577   8.771
  687POPC   C2B13772  16.387  44.754   8.344
  687POPC   C3B13773  16.343  44.530   7.965
  687POPC   C4B13774  16.173  44.511   7.565
  688POPC   NC313775  31.550  11.238   9.370
  688POPC   PO413776  31.237  10.801   9.547
  688POPC   GL113777  31.277  10.837   9.114
  688POPC   GL213778  31.611  10.717   9.074
  688POPC   C1A13779  31.289  10.740   8.666
  688POPC   D2A13780  31.329  10.417   8.363
  688POPC   C3A13781  31.544  10.504   7.996
  688POPC   C4A13782  31.481  10.542   7.572
  688POPC   C1B13783  31.709  10.416   8.715
  688POPC   C2B13784  31.895  10.288   8.296
  688POPC   C3B13785  31.849  10.104   7.865
  688POPC   C4B13786  31.856  10.222   7.401
  689POPC   NC313787  37.066  19.423   9.403
  689POPC   PO413788  36.745  18.936   9.766
  689POPC   GL113789  36.780  18.873   9.303
  689POPC   GL213790  36.659  19.169   9.205
  689POPC   C1A13791  36.737  18.787   8.858
  689POPC   D2A13792  36.992  19.002   8.534
  689POPC   C3A13793  37.060  18.984   8.110
  689POPC   C4A13794  36.950  19.018   7.699
  689POPC   C1B13795  36.763  19.354   8.830
  689POPC   C2B13796  36.667  19.438   8.423
  689POPC   C3B13797  36.785  19.423   8.020
  689POPC   C4B13798  36.734  19.530   7.616
  690POPC   NC313799  26.060  20.414   9.483
  690POPC   PO413800  26.293  21.048   9.650
  690POPC   GL113801  26.177  20.858   9.207
  690POPC   GL213802  25.808  20.701   9.165
  690POPC   C1A13803  26.215  20.551   8.825
  690POPC   D2A13804  26.135  20.329   8.414
  690POPC   C3A13805  26.323  20.422   8.026
  690POPC   C4A13806  26.241  20.682   7.692
  690POPC   C1B13807  25.705  20.455   8.780
  690POPC   C2B13808  25.634  20.337   8.343
  690POPC   C3B13809  25.792  20.362   7.899
  690POPC   C4B13810  25.810  20.517   7.444
  691POPC   NC313811  15.224  21.671   9.610
  691POPC   PO413812  14.906  21.114   9.465
  691POPC   GL113813  15.124  21.169   9.082
  691POPC   GL213814  15.226  21.502   9.135
  691POPC   C1A13815  15.143  21.121   8.619
  691POPC   D2A13816  15.039  21.389   8.316
  691POPC   C3A13817  15.211  21.297   7.953
  691POPC   C4A13818  14.916  21.093   7.702
  691POPC   C1B13819  15.200  21.618   8.748
  691POPC   C2B13820  15.354  21.785   8.397
  691POPC   C3B13821  15.108  21.825   8.040
  691POPC   C4B13822  15.049  21.648   7.638
  692POPC   NC313823  31.291   4.952   9.651
  692POPC   PO413824  31.977   5.109   9.793
  692POPC   GL113825  31.714   5.023   9.335
  692POPC   GL213826  31.398   5.010   9.165
  692POPC   C1A13827  31.789   5.009   8.848
  692POPC   D2A13828  31.705   4.826   8.427
  692POPC   C3A13829  31.728   5.008   8.012
  692POPC   C4A13830  31.536   4.959   7.643
  692POPC   C1B13831  31.134   5.214   8.872
  692POPC   C2B13832  31.204   4.966   8.502
  692POPC   C3B13833  31.221   4.948   8.073
  692POPC   C4B13834  31.227   5.350   7.891
  693POPC   NC313835  10.016  11.079   9.514
  693POPC   PO413836   9.777  10.423   9.639
  693POPC   GL113837   9.718  10.685   9.295
  693POPC   GL213838  10.036  10.617   9.205
  693POPC   C1A13839   9.526  10.689   8.894
  693POPC   D2A13840   9.685  10.647   8.493
  693POPC   C3A13841   9.480  10.649   8.082
  693POPC   C4A13842   9.754  10.444   7.810
  693POPC   C1B13843   9.965  10.931   8.870
  693POPC   C2B13844  10.024  11.064   8.458
  693POPC   C3B13845   9.939  10.865   8.098
  693POPC   C4B13846   9.871  10.940   7.714
  694POPC   NC313847   1.835  11.902   9.439
  694POPC   PO413848   2.122  12.511   9.549
  694POPC   GL113849   2.126  12.243   9.181
  694POPC   GL213850   1.760  12.264   9.090
  694POPC   C1A13851   2.164  12.009   8.783
  694POPC   D2A13852   2.117  12.137   8.345
  694POPC   C3A13853   2.072  11.891   7.978
  694POPC   C4A13854   2.071  12.057   7.573
  694POPC   C1B13855   1.670  12.057   8.699
  694POPC   C2B13856   1.663  11.854   8.324
  694POPC   C3B13857   1.629  12.098   7.975
  694POPC   C4B13858   1.560  12.240   7.591
  695POPC   NC313859   7.289  20.209   9.460
  695POPC   PO413860   7.779  20.723   9.486
  695POPC   GL113861   7.492  20.577   9.126
  695POPC   GL213862   7.272  20.880   9.012
  695POPC   C1A13863   7.177  20.476   8.758
  695POPC   D2A13864   7.138  20.838   8.469
  695POPC   C3A13865   7.289  20.752   8.073
  695POPC   C4A13866   7.336  20.426   7.781
  695POPC   C1B13867   7.664  20.955   8.800
  695POPC   C2B13868   7.683  21.069   8.359
  695POPC   C3B13869   7.716  20.992   7.910
  695POPC   C4B13870   7.544  20.849   7.564
  696POPC   NC313871   4.755  31.706   9.533
  696POPC   PO413872   5.128  32.327   9.536
  696POPC   GL113873   4.930  32.202   9.160
  696POPC   GL213874   5.162  31.951   9.123
  696POPC   C1A13875   4.967  32.348   8.717
  696POPC   D2A13876   5.002  32.511   8.299
  696POPC   C3A13877   5.217  32.295   7.975
  696POPC   C4A13878   4.839  32.242   7.847
  696POPC   C1B13879   5.002  31.832   8.715
  696POPC   C2B13880   5.065  31.878   8.257
  696POPC   C3B13881   5.114  31.802   7.816
  696POPC   C4B13882   5.449  31.839   7.518
  697POPC   NC313883  36.021  43.115   9.405
  697POPC   PO413884  36.467  42.595   9.538
  697POPC   GL113885  36.344  42.841   9.130
  697POPC   GL213886  36.407  43.160   9.098
  697POPC   C1A13887  36.093  43.022   8.751
  697POPC   D2A13888  36.086  42.891   8.358
  697POPC   C3A13889  36.141  43.107   7.994
  697POPC   C4A13890  36.295  42.961   7.615
  697POPC   C1B13891  36.512  43.363   8.757
  697POPC   C2B13892  36.393  43.413   8.338
  697POPC   C3B13893  36.614  43.313   7.967
  697POPC   C4B13894  36.680  43.261   7.540
  698POPC   NC313895  24.740  13.836   9.517
  698POPC   PO413896  25.356  13.856   9.465
  698POPC   GL113897  25.401  13.652   9.088
  698POPC   GL213898  25.055  13.647   9.080
  698POPC   C1A13899  25.454  13.615   8.640
  698POPC   D2A13900  25.332  13.886   8.307
  698POPC   C3A13901  25.199  13.726   7.908
  698POPC   C4A13902  25.490  13.537   7.588
  698POPC   C1B13903  25.098  13.294   8.824
  698POPC   C2B13904  25.086  13.306   8.402
  698POPC   C3B13905  24.927  13.221   8.004
  698POPC   C4B13906  24.934  13.416   7.590
  699POPC   NC313907   4.899  20.629   9.589
  699POPC   PO413908   5.531  20.854   9.449
  699POPC   GL113909   5.213  20.640   9.178
  699POPC   GL213910   4.890  20.798   9.100
  699POPC   C1A13911   5.164  20.394   8.797
  699POPC   D2A13912   5.166  20.160   8.413
  699POPC   C3A13913   5.271  20.370   8.018
  699POPC   C4A13914   5.389  20.727   7.728
  699POPC   C1B13915   5.169  20.907   8.744
  699POPC   C2B13916   5.284  20.802   8.318
  699POPC   C3B13917   4.966  20.765   7.995
  699POPC   C4B13918   4.874  20.450   7.663
  700POPC   NC313919  39.588   0.185   9.541
  700POPC   PO413920  39.192   0.700   9.642
  700POPC   GL113921  39.395   0.583   9.228
  700POPC   GL213922  39.305   0.221   9.119
  700POPC   C1A13923  39.388   0.566   8.770
  700POPC   D2A13924  39.262   0.325   8.394
  700POPC   C3A13925  39.243   0.565   8.015
  700POPC   C4A13926  39.467   0.592   7.671
  700POPC   C1B13927  38.946   0.215   8.789
  700POPC   C2B13928  38.855  44.998   8.359
  700POPC   C3B13929  38.941   0.145   7.920
  700POPC   C4B13930  38.886   0.176   7.491
  701POPC   NC313931  40.119  21.768   9.543
  701POPC   PO413932  39.804  22.297   9.528
  701POPC   GL113933  39.983  22.294   9.144
  701POPC   GL213934  40.194  22.011   9.107
  701POPC   C1A13935  39.919  22.267   8.715
  701POPC   D2A13936  40.074  22.105   8.286
  701POPC   C3A13937  39.796  22.151   7.940
  701POPC   C4A13938  39.752  22.358   7.536
  701POPC   C1B13939  40.377  22.027   8.727
  701POPC   C2B13940  40.528  21.899   8.359
  701POPC   C3B13941  40.534  22.160   8.018
  701POPC   C4B13942  40.248  22.312   7.761
  702POPC   NC313943  33.651  31.966   9.598
  702POPC   PO413944  34.152  32.371   9.516
  702POPC   GL113945  33.797  32.337   9.192
  702POPC   GL213946  33.576  32.031   9.105
  702POPC   C1A13947  33.911  32.252   8.770
  702POPC   D2A13948  34.118  31.937   8.490
  702POPC   C3A13949  34.130  32.109   8.052
  702POPC   C4A13950  33.915  32.188   7.668
  702POPC   C1B13951  33.581  31.889   8.704
  702POPC   C2B13952  33.660  32.060   8.323
  702POPC   C3B13953  33.653  31.846   7.938
  702POPC   C4B13954  33.500  31.882   7.520
  703POPC   NC313955  36.919  29.948   9.452
  703POPC   PO413956  37.297  29.471   9.293
  703POPC   GL113957  36.996  29.676   9.029
  703POPC   GL213958  36.641  29.703   9.079
  703POPC   C1A13959  36.939  29.960   8.690
  703POPC   D2A13960  37.219  30.013   8.351
  703POPC   C3A13961  37.141  29.816   7.971
  703POPC   C4A13962  37.000  29.983   7.585
  703POPC   C1B13963  36.380  29.919   8.771
  703POPC   C2B13964  36.467  29.956   8.329
  703POPC   C3B13965  36.610  29.823   7.913
  703POPC   C4B13966  36.516  29.856   7.459
  704POPC   NC313967  22.654  36.274   9.422
  704POPC   PO413968  23.160  35.888   9.478
  704POPC   GL113969  22.906  35.825   9.116
  704POPC   GL213970  22.559  35.957   9.032
  704POPC   C1A13971  22.967  36.033   8.712
  704POPC   D2A13972  23.254  36.081   8.396
  704POPC   C3A13973  23.120  36.179   8.003
  704POPC   C4A13974  22.905  35.940   7.692
  704POPC   C1B13975  22.564  36.355   8.754
  704POPC   C2B13976  22.748  36.396   8.346
  704POPC   C3B13977  22.589  36.235   7.966
  704POPC   C4B13978  22.536  36.365   7.538
  705POPC   NC313979   2.926  27.094   9.882
  705POPC   PO413980   2.667  26.656   9.481
  705POPC   GL113981   2.794  26.674   9.051
  705POPC   GL213982   3.035  26.888   9.132
  705POPC   C1A13983   2.792  26.615   8.578
  705POPC   D2A13984   2.827  26.519   8.122
  705POPC   C3A13985   2.702  26.852   7.856
  705POPC   C4A13986   2.881  27.010   7.468
  705POPC   C1B13987   2.869  27.097   8.729
  705POPC   C2B13988   2.953  27.056   8.271
  705POPC   C3B13989   3.072  27.268   7.871
  705POPC   C4B13990   2.875  27.518   7.552
  706POPC   NC313991  33.263  23.549   9.430
  706POPC   PO413992  32.932  24.038   9.643
  706POPC   GL113993  33.098  23.964   9.184
  706POPC   GL213994  33.096  23.674   8.975
  706POPC   C1A13995  33.343  24.077   8.797
  706POPC   D2A13996  33.307  23.864   8.371
  706POPC   C3A13997  33.061  23.911   7.979
  706POPC   C4A13998  32.841  23.718   7.637
  706POPC   C1B13999  33.324  23.390   8.727
  706POPC   C2B14000  33.164  23.270   8.341
  706POPC   C3B14001  33.244  23.417   7.951
  706POPC   C4B14002  33.308  23.557   7.573
  707POPC   NC314003   3.149   1.013   9.685
  707POPC   PO414004   3.741   0.950   9.534
  707POPC   GL114005   3.716   1.220   9.170
  707POPC   GL214006   3.443   1.459   9.064
  707POPC   C1A14007   3.920   1.142   8.789
  707POPC   D2A14008   3.898   0.940   8.431
  707POPC   C3A14009   3.671   1.151   8.133
  707POPC   C4A14010   3.719   1.215   7.716
  707POPC   C1B14011   3.481   1.316   8.612
  707POPC   C2B14012   3.171   1.221   8.291
  707POPC   C3B14013   3.195   1.190   7.845
  707POPC   C4B14014   3.321   1.563   7.636
  708POPC   NC314015  25.877  10.179   9.393
  708POPC   PO414016  26.360  10.548   9.555
  708POPC   GL114017  26.163  10.507   9.135
  708POPC   GL214018  26.361  10.676   8.962
  708POPC   C1A14019  25.877  10.402   8.749
  708POPC   D2A14020  25.868  10.197   8.349
  708POPC   C3A14021  25.903  10.377   7.948
  708POPC   C4A14022  26.198  10.166   7.693
  708POPC   C1B14023  26.364  10.354   8.612
  708POPC   C2B14024  26.361  10.377   8.160
  708POPC   C3B14025  26.321  10.672   7.841
  708POPC   C4B14026  26.361  11.099   7.812
  709POPC   NC314027  36.062  42.582   9.726
  709POPC   PO414028  36.318  42.010   9.474
  709POPC   GL114029  36.197  42.120   9.091
  709POPC   GL214030  36.068  42.427   9.219
  709POPC   C1A14031  36.193  42.035   8.646
  709POPC   D2A14032  36.411  42.278   8.354
  709POPC   C3A14033  36.319  42.227   7.952
  709POPC   C4A14034  36.522  42.496   7.692
  709POPC   C1B14035  36.084  42.516   8.773
  709POPC   C2B14036  35.902  42.416   8.359
  709POPC   C3B14037  35.982  42.610   7.931
  709POPC   C4B14038  35.883  42.708   7.491
  710POPC   NC314039  12.801  28.208   9.581
  710POPC   PO414040  12.604  27.565   9.395
  710POPC   GL114041  12.641  27.964   9.152
  710POPC   GL214042  12.965  28.145   9.105
  710POPC   C1A14043  12.552  28.250   8.800
  710POPC   D2A14044  12.764  28.469   8.450
  710POPC   C3A14045  12.693  28.380   7.976
  710POPC   C4A14046  12.842  28.634   7.592
  710POPC   C1B14047  13.174  28.212   8.694
  710POPC   C2B14048  13.163  28.241   8.240
  710POPC   C3B14049  13.213  28.364   7.827
  710POPC   C4B14050  13.105  28.237   7.407
  711POPC   NC314051  14.126  31.946   9.477
  711POPC   PO414052  14.759  32.008   9.763
  711POPC   GL114053  14.769  32.086   9.285
  711POPC   GL214054  14.445  32.196   9.168
  711POPC   C1A14055  14.806  32.198   8.819
  711POPC   D2A14056  14.653  31.989   8.407
  711POPC   C3A14057  14.541  32.165   8.002
  711POPC   C4A14058  14.194  32.429   7.790
  711POPC   C1B14059  14.204  32.235   8.758
  711POPC   C2B14060  14.090  32.262   8.300
  711POPC   C3B14061  14.087  31.960   7.950
  711POPC   C4B14062  14.108  31.962   7.492
  712POPC   NC314063  36.748  26.461   9.601
  712POPC   PO414064  36.834  27.115   9.644
  712POPC   GL114065  36.715  27.122   9.190
  712POPC   GL214066  36.694  26.767   9.184
  712POPC   C1A14067  36.903  27.060   8.753
  712POPC   D2A14068  36.811  26.833   8.334
  712POPC   C3A14069  36.995  27.039   7.941
  712POPC   C4A14070  37.315  26.849   7.662
  712POPC   C1B14071  36.881  26.556   8.810
  712POPC   C2B14072  37.094  26.374   8.432
  712POPC   C3B14073  37.079  26.509   7.986
  712POPC   C4B14074  36.980  26.476   7.529
  713POPC   NC314075   0.085   8.706   9.496
  713POPC   PO414076   0.693   9.043   9.641
  713POPC   GL114077   0.411   9.045   9.298
  713POPC   GL214078   0.529   8.745   9.098
  713POPC   C1A14079   0.385   9.184   8.874
  713POPC   D2A14080   0.469   8.923   8.524
  713POPC   C3A14081   0.430   9.131   8.140
  713POPC   C4A14082   0.378   8.969   7.742
  713POPC   C1B14083   0.784   8.539   8.747
  713POPC   C2B14084   0.929   8.479   8.307
  713POPC   C3B14085   0.729   8.625   7.901
  713POPC   C4B14086   0.850   8.807   7.473
  714POPC   NC314087  39.055  21.284   9.651
  714POPC   PO414088  39.738  21.494   9.568
  714POPC   GL114089  39.352  21.456   9.260
  714POPC   GL214090  38.969  21.483   9.198
  714POPC   C1A14091  39.252  21.296   8.833
  714POPC   D2A14092  39.505  21.406   8.498
  714POPC   C3A14093  39.349  21.442   8.080
  714POPC   C4A14094  39.395  21.475   7.656
  714POPC   C1B14095  38.817  21.568   8.795
  714POPC   C2B14096  38.968  21.434   8.412
  714POPC   C3B14097  38.778  21.311   8.044
  714POPC   C4B14098  38.878  21.307   7.679
  715POPC   NC314099  37.451  14.775   9.582
  715POPC   PO414100  37.511  14.160   9.498
  715POPC   GL114101  37.573  14.381   9.136
  715POPC   GL214102  37.788  14.638   9.197
  715POPC   C1A14103  37.496  14.293   8.691
  715POPC   D2A14104  37.671  14.135   8.320
  715POPC   C3A14105  37.452  14.200   7.918
  715POPC   C4A14106  37.437  14.049   7.478
  715POPC   C1B14107  37.919  14.551   8.800
  715POPC   C2B14108  37.793  14.623   8.396
  715POPC   C3B14109  37.883  14.482   7.980
  715POPC   C4B14110  38.104  14.739   7.718
  716POPC   NC314111  30.517  30.635   9.355
  716POPC   PO414112  30.972  31.089   9.650
  716POPC   GL114113  30.920  30.922   9.211
  716POPC   GL214114  30.606  30.919   8.952
  716POPC   C1A14115  31.024  30.718   8.806
  716POPC   D2A14116  30.837  30.974   8.454
  716POPC   C3A14117  30.809  30.759   8.059
  716POPC   C4A14118  30.934  30.410   7.781
  716POPC   C1B14119  30.554  30.567   8.624
  716POPC   C2B14120  30.522  30.355   8.201
  716POPC   C3B14121  30.424  30.508   7.799
  716POPC   C4B14122  30.154  30.805   7.583
  717POPC   NC314123   4.685  33.938   9.467
  717POPC   PO414124   5.049  33.358   9.559
  717POPC   GL114125   4.922  33.509   9.166
  717POPC   GL214126   5.226  33.691   9.187
  717POPC   C1A14127   5.018  33.554   8.717
  717POPC   D2A14128   4.779  33.567   8.340
  717POPC   C3A14129   4.676  33.946   8.129
  717POPC   C4A14130   4.889  33.922   7.753
  717POPC   C1B14131   5.144  34.021   8.887
  717POPC   C2B14132   5.071  34.102   8.436
  717POPC   C3B14133   5.285  34.112   8.036
  717POPC   C4B14134   5.455  33.706   7.872
  718POPC   NC314135  28.676   8.847   9.639
  718POPC   PO414136  29.265   9.195   9.489
  718POPC   GL114137  29.429   9.129   9.094
  718POPC   GL214138  29.413   8.770   9.051
  718POPC   C1A14139  29.304   9.050   8.640
  718POPC   D2A14140  29.092   9.094   8.267
  718POPC   C3A14141  29.386   9.169   7.933
  718POPC   C4A14142  29.381   9.165   7.497
  718POPC   C1B14143  29.330   8.523   8.688
  718POPC   C2B14144  29.161   8.515   8.287
  718POPC   C3B14145  29.099   8.725   7.925
  718POPC   C4B14146  29.042   8.754   7.519
  719POPC   NC314147   3.794  31.981   9.484
  719POPC   PO414148   3.238  32.468   9.491
  719POPC   GL114149   3.441  32.266   9.171
  719POPC   GL214150   3.274  31.928   9.209
  719POPC   C1A14151   3.527  32.445   8.745
  719POPC   D2A14152   3.510  32.506   8.291
  719POPC   C3A14153   3.741  32.127   8.083
  719POPC   C4A14154   3.671  31.957   7.675
  719POPC   C1B14155   3.176  32.066   8.776
  719POPC   C2B14156   3.283  32.041   8.340
  719POPC   C3B14157   3.265  32.172   7.901
  719POPC   C4B14158   3.045  31.952   7.589
  720POPC   NC314159  23.678  41.097   9.536
  720POPC   PO414160  23.934  41.709   9.428
  720POPC   GL114161  23.756  41.522   9.106
  720POPC   GL214162  23.942  41.189   9.125
  720POPC   C1A14163  23.641  41.763   8.711
  720POPC   D2A14164  23.782  41.982   8.312
  720POPC   C3A14165  23.749  41.679   8.005
  720POPC   C4A14166  23.553  41.546   7.685
  720POPC   C1B14167  23.673  41.160   8.778
  720POPC   C2B14168  23.675  41.349   8.399
  720POPC   C3B14169  23.708  41.151   8.016
  720POPC   C4B14170  23.496  41.029   7.641
  721POPC   NC314171  29.192  16.326   9.456
  721POPC   PO414172  29.218  15.712   9.446
  721POPC   GL114173  29.088  15.963   9.107
  721POPC   GL214174  28.792  16.214   9.152
  721POPC   C1A14175  29.243  15.867   8.717
  721POPC   D2A14176  29.434  15.961   8.336
  721POPC   C3A14177  29.267  15.751   7.982
  721POPC   C4A14178  29.242  15.674   7.527
  721POPC   C1B14179  28.731  16.012   8.736
  721POPC   C2B14180  28.857  15.848   8.330
  721POPC   C3B14181  28.765  15.829   7.897
  721POPC   C4B14182  28.860  16.039   7.543
  722POPC   NC314183   1.829  16.950   9.825
  722POPC   PO414184   2.355  16.616   9.645
  722POPC   GL114185   2.188  16.821   9.231
  722POPC   GL214186   1.805  16.843   9.185
  722POPC   C1A14187   2.120  16.750   8.780
  722POPC   D2A14188   2.005  16.421   8.499
  722POPC   C3A14189   1.914  16.597   8.103
  722POPC   C4A14190   2.239  16.800   7.906
  722POPC   C1B14191   1.709  17.068   8.778
  722POPC   C2B14192   1.859  17.050   8.364
  722POPC   C3B14193   1.687  17.134   7.999
  722POPC   C4B14194   1.794  16.896   7.689
  723POPC   NC314195  24.369  20.061   9.485
  723POPC   PO414196  24.873  19.729   9.254
  723POPC   GL114197  24.516  19.771   9.069
  723POPC   GL214198  24.399  19.468   9.158
  723POPC   C1A14199  24.585  19.740   8.649
  723POPC   D2A14200  24.750  19.977   8.302
  723POPC   C3A14201  24.510  19.880   7.929
  723POPC   C4A14202  24.472  20.174   7.592
  723POPC   C1B14203  24.146  19.492   8.780
  723POPC   C2B14204  24.289  19.462   8.354
  723POPC   C3B14205  24.102  19.574   8.001
  723POPC   C4B14206  24.240  19.526   7.637
  724POPC   NC314207   0.537  12.701   9.545
  724POPC   PO414208   0.542  13.129   9.070
  724POPC   GL114209   0.542  12.647   9.041
  724POPC   GL214210   0.194  12.500   9.196
  724POPC   C1A14211   0.715  12.357   8.712
  724POPC   D2A14212   0.770  12.394   8.269
  724POPC   C3A14213   0.674  12.769   8.044
  724POPC   C4A14214   0.489  12.891   7.672
  724POPC   C1B14215   0.198  12.418   8.756
  724POPC   C2B14216   0.306  12.641   8.384
  724POPC   C3B14217   0.152  12.615   7.952
  724POPC   C4B14218   0.105  12.590   7.512
  725POPC   NC314219  30.491   8.949   9.623
  725POPC   PO414220  31.041   8.972   9.596
  725POPC   GL114221  30.789   8.945   9.183
  725POPC   GL214222  30.430   9.069   9.131
  725POPC   C1A14223  30.739   8.880   8.719
  725POPC   D2A14224  30.769   9.085   8.307
  725POPC   C3A14225  30.727   8.922   7.881
  725POPC   C4A14226  30.715   9.213   7.522
  725POPC   C1B14227  30.257   8.742   8.864
  725POPC   C2B14228  30.257   8.494   8.493
  725POPC   C3B14229  30.170   8.468   8.070
  725POPC   C4B14230  30.251   8.696   7.715
  726POPC   NC314231  44.672  41.083   9.353
  726POPC   PO414232  44.232  41.577   9.361
  726POPC   GL114233  44.446  41.414   9.021
  726POPC   GL214234  44.782  41.557   9.112
  726POPC   C1A14235  44.581  41.170   8.646
  726POPC   D2A14236  44.740  41.316   8.234
  726POPC   C3A14237  44.490  41.435   7.892
  726POPC   C4A14238  44.454  41.171   7.554
  726POPC   C1B14239  44.797  41.622   8.669
  726POPC   C2B14240   0.025  41.727   8.292
  726POPC   C3B14241  44.904  41.716   7.871
  726POPC   C4B14242  44.739  41.790   7.467
  727POPC   NC314243   4.600  27.366   9.731
  727POPC   PO414244   5.132  27.744   9.654
  727POPC   GL114245   5.154  27.799   9.213
  727POPC   GL214246   4.833  27.705   9.221
  727POPC   C1A14247   5.360  27.639   8.803
  727POPC   D2A14248   5.421  27.260   8.509
  727POPC   C3A14249   5.300  27.354   8.042
  727POPC   C4A14250   5.086  27.265   7.667
  727POPC   C1B14251   4.856  27.553   8.814
  727POPC   C2B14252   5.004  27.569   8.404
  727POPC   C3B14253   4.807  27.550   8.003
  727POPC   C4B14254   4.579  27.374   7.670
  728POPC   NC314255  27.744  15.151   9.733
  728POPC   PO414256  28.472  15.223   9.625
  728POPC   GL114257  28.386  15.261   9.244
  728POPC   GL214258  28.044  15.201   9.297
  728POPC   C1A14259  28.583  15.068   8.899
  728POPC   D2A14260  28.466  14.859   8.540
  728POPC   C3A14261  28.453  14.979   8.138
  728POPC   C4A14262  28.445  15.052   7.689
  728POPC   C1B14263  28.093  15.157   8.845
  728POPC   C2B14264  28.110  15.391   8.478
  728POPC   C3B14265  27.935  15.449   8.081
  728POPC   C4B14266  28.015  15.327   7.674
  729POPC   NC314267  12.156   7.959   9.600
  729POPC   PO414268  11.972   8.549   9.587
  729POPC   GL114269  11.927   8.268   9.235
  729POPC   GL214270  12.268   8.266   9.115
  729POPC   C1A14271  11.918   8.039   8.834
  729POPC   D2A14272  11.780   8.153   8.422
  729POPC   C3A14273  12.023   8.101   8.050
  729POPC   C4A14274  12.103   8.431   7.766
  729POPC   C1B14275  12.297   8.344   8.636
  729POPC   C2B14276  12.406   8.485   8.192
  729POPC   C3B14277  12.605   8.461   7.777
  729POPC   C4B14278  12.426   8.318   7.373
  730POPC   NC314279  16.178  10.428   9.666
  730POPC   PO414280  15.795  10.935   9.664
  730POPC   GL114281  15.820  10.681   9.269
  730POPC   GL214282  16.160  10.619   9.122
  730POPC   C1A14283  15.724  10.646   8.801
  730POPC   D2A14284  15.929  10.702   8.396
  730POPC   C3A14285  15.715  10.535   8.020
  730POPC   C4A14286  15.771  10.359   7.593
  730POPC   C1B14287  16.113  10.325   8.726
  730POPC   C2B14288  16.037  10.219   8.271
  730POPC   C3B14289  16.203  10.366   7.850
  730POPC   C4B14290  16.221  10.158   7.413
  731POPC   NC314291  36.758  35.220   9.649
  731POPC   PO414292  37.282  34.824   9.403
  731POPC   GL114293  37.009  35.226   9.207
  731POPC   GL214294  36.644  35.399   9.195
  731POPC   C1A14295  36.909  35.399   8.773
  731POPC   D2A14296  36.958  35.272   8.342
  731POPC   C3A14297  37.020  35.525   7.943
  731POPC   C4A14298  37.047  35.617   7.476
  731POPC   C1B14299  36.462  35.124   8.867
  731POPC   C2B14300  36.594  34.902   8.427
  731POPC   C3B14301  36.687  35.071   7.966
  731POPC   C4B14302  36.826  35.131   7.504
  732POPC   NC314303  33.668  40.493   9.456
  732POPC   PO414304  33.392  41.070   9.768
  732POPC   GL114305  33.458  40.927   9.286
  732POPC   GL214306  33.801  40.939   9.184
  732POPC   C1A14307  33.526  40.675   8.842
  732POPC   D2A14308  33.800  40.538   8.488
  732POPC   C3A14309  33.711  40.626   8.068
  732POPC   C4A14310  33.622  40.989   7.857
  732POPC   C1B14311  33.974  40.931   8.760
  732POPC   C2B14312  33.936  41.093   8.306
  732POPC   C3B14313  34.132  41.062   7.894
  732POPC   C4B14314  34.022  40.779   7.596
  733POPC   NC314315  41.801   9.218   9.480
  733POPC   PO414316  41.328   9.773   9.530
  733POPC   GL114317  41.610   9.700   9.182
  733POPC   GL214318  41.780  10.022   9.157
  733POPC   C1A14319  41.677   9.450   8.780
  733POPC   D2A14320  41.402   9.344   8.420
  733POPC   C3A14321  41.599   9.337   8.046
  733POPC   C4A14322  41.899   9.612   7.865
  733POPC   C1B14323  41.593   9.978   8.745
  733POPC   C2B14324  41.630   9.816   8.323
  733POPC   C3B14325  41.723  10.103   7.992
  733POPC   C4B14326  41.587  10.314   7.630
  734POPC   NC314327  17.536  34.294   9.411
  734POPC   PO414328  17.406  33.749   9.826
  734POPC   GL114329  17.493  33.669   9.321
  734POPC   GL214330  17.546  33.932   9.090
  734POPC   C1A14331  17.579  33.512   8.835
  734POPC   D2A14332  17.826  33.584   8.459
  734POPC   C3A14333  17.670  33.484   8.016
  734POPC   C4A14334  17.529  33.521   7.597
  734POPC   C1B14335  17.402  34.079   8.692
  734POPC   C2B14336  17.558  34.027   8.268
  734POPC   C3B14337  17.390  34.080   7.835
  734POPC   C4B14338  17.097  34.271   7.498
  735POPC   NC314339  41.816   8.304   9.496
  735POPC   PO414340  41.410   8.943   9.472
  735POPC   GL114341  41.595   8.987   9.086
  735POPC   GL214342  41.931   8.840   9.171
  735POPC   C1A14343  41.506   8.898   8.693
  735POPC   D2A14344  41.508   8.622   8.368
  735POPC   C3A14345  41.426   8.826   7.994
  735POPC   C4A14346  41.447   8.712   7.564
  735POPC   C1B14347  42.006   9.032   8.775
  735POPC   C2B14348  41.866   9.044   8.365
  735POPC   C3B14349  42.080   9.139   7.992
  735POPC   C4B14350  41.834   9.112   7.663
  736POPC   NC314351   9.399  32.204   9.580
  736POPC   PO414352   9.868  32.584   9.265
  736POPC   GL114353   9.702  32.439   8.936
  736POPC   GL214354   9.625  32.128   9.126
  736POPC   C1A14355   9.883  32.108   8.682
  736POPC   D2A14356  10.026  31.960   8.295
  736POPC   C3A14357   9.849  32.135   7.957
  736POPC   C4A14358  10.160  32.351   7.771
  736POPC   C1B14359   9.378  32.105   8.752
  736POPC   C2B14360   9.470  32.260   8.356
  736POPC   C3B14361   9.341  32.073   7.989
  736POPC   C4B14362   9.276  32.190   7.587
  737POPC   NC314363  30.521  12.086   9.592
  737POPC   PO414364  31.106  12.219   9.544
  737POPC   GL114365  30.816  12.324   9.191
  737POPC   GL214366  30.427  12.391   9.200
  737POPC   C1A14367  30.888  12.443   8.722
  737POPC   D2A14368  30.844  12.134   8.358
  737POPC   C3A14369  30.806  12.271   7.906
  737POPC   C4A14370  30.722  12.026   7.517
  737POPC   C1B14371  30.508  12.120   8.814
  737POPC   C2B14372  30.345  11.974   8.408
  737POPC   C3B14373  30.360  12.004   7.933
  737POPC   C4B14374  30.362  12.353   7.629
  738POPC   NC314375  43.960  43.679   9.519
  738POPC   PO414376  43.343  43.954   9.530
  738POPC   GL114377  43.669  43.989   9.205
  738POPC   GL214378  44.002  43.925   9.067
  738POPC   C1A14379  43.665  43.825   8.727
  738POPC   D2A14380  43.956  43.695   8.419
  738POPC   C3A14381  43.687  43.714   8.065
  738POPC   C4A14382  43.614  43.877   7.672
  738POPC   C1B14383  44.256  44.056   8.759
  738POPC   C2B14384  44.361  43.994   8.367
  738POPC   C3B14385  44.149  43.917   7.996
  738POPC   C4B14386  44.067  44.095   7.588
  739POPC   NC314387  28.230  22.796   9.509
  739POPC   PO414388  28.753  23.277   9.310
  739POPC   GL114389  28.387  23.132   9.119
  739POPC   GL214390  28.474  22.782   9.060
  739POPC   C1A14391  28.332  23.110   8.673
  739POPC   D2A14392  28.185  23.234   8.292
  739POPC   C3A14393  28.484  23.279   7.950
  739POPC   C4A14394  28.280  23.101   7.597
  739POPC   C1B14395  28.054  22.734   8.881
  739POPC   C2B14396  27.930  22.739   8.445
  739POPC   C3B14397  28.093  22.814   8.002
  739POPC   C4B14398  28.247  22.603   7.629
  740POPC   NC314399   9.589  36.507   9.420
  740POPC   PO414400   9.948  36.016   9.606
  740POPC   GL114401   9.949  36.052   9.162
  740POPC   GL214402   9.625  36.084   8.983
  740POPC   C1A14403  10.073  36.219   8.742
  740POPC   D2A14404   9.873  36.366   8.363
  740POPC   C3A14405  10.018  36.249   7.938
  740POPC   C4A14406   9.810  36.123   7.548
  740POPC   C1B14407   9.380  35.696   8.755
  740POPC   C2B14408   9.222  35.629   8.361
  740POPC   C3B14409   9.468  35.706   8.010
  740POPC   C4B14410   9.524  35.687   7.553
  741POPC   NC314411  38.597   1.572   9.731
  741POPC   PO414412  38.246   1.824   9.202
  741POPC   GL114413  38.484   1.972   8.894
  741POPC   GL214414  38.231   2.193   8.832
  741POPC   C1A14415  38.646   1.792   8.556
  741POPC   D2A14416  38.817   1.507   8.278
  741POPC   C3A14417  38.757   1.877   8.021
  741POPC   C4A14418  38.603   1.888   7.615
  741POPC   C1B14419  38.108   1.817   8.559
  741POPC   C2B14420  37.914   1.860   8.166
  741POPC   C3B14421  38.117   1.973   7.767
  741POPC   C4B14422  38.156   1.820   7.329
  742POPC   NC314423   1.428   4.494   9.430
  742POPC   PO414424   1.022   3.866   9.485
  742POPC   GL114425   1.092   4.072   9.100
  742POPC   GL214426   1.452   4.114   9.066
  742POPC   C1A14427   1.096   4.165   8.637
  742POPC   D2A14428   0.782   4.142   8.298
  742POPC   C3A14429   0.931   4.289   7.907
  742POPC   C4A14430   1.038   4.312   7.478
  742POPC   C1B14431   1.511   4.435   8.722
  742POPC   C2B14432   1.362   4.448   8.271
  742POPC   C3B14433   1.442   4.351   7.818
  742POPC   C4B14434   1.567   4.568   7.413
  743POPC   NC314435  34.041   2.402   9.496
  743POPC   PO414436  33.606   2.894   9.523
  743POPC   GL114437  33.679   2.750   9.127
  743POPC   GL214438  33.701   2.405   9.108
  743POPC   C1A14439  33.493   2.647   8.734
  743POPC   D2A14440  33.757   2.541   8.379
  743POPC   C3A14441  33.736   2.830   8.057
  743POPC   C4A14442  33.580   2.789   7.655
  743POPC   C1B14443  34.039   2.464   8.806
  743POPC   C2B14444  34.208   2.249   8.427
  743POPC   C3B14445  34.097   2.327   7.980
  743POPC   C4B14446  34.094   2.693   7.723
  744POPC   NC314447   6.792   7.889   9.401
  744POPC   PO414448   6.725   8.415   9.565
  744POPC   GL114449   6.669   8.456   9.137
  744POPC   GL214450   6.435   8.200   9.128
  744POPC   C1A14451   6.741   8.289   8.703
  744POPC   D2A14452   6.867   8.448   8.291
  744POPC   C3A14453   6.870   8.201   7.908
  744POPC   C4A14454   6.638   7.838   7.767
  744POPC   C1B14455   6.265   8.488   8.799
  744POPC   C2B14456   6.367   8.514   8.341
  744POPC   C3B14457   6.379   8.386   7.889
  744POPC   C4B14458   6.443   8.215   7.456
  745POPC   NC314459  32.211  41.142   9.328
  745POPC   PO414460  32.121  40.525   9.555
  745POPC   GL114461  32.290  40.638   9.171
  745POPC   GL214462  32.580  40.819   9.192
  745POPC   C1A14463  32.115  40.782   8.780
  745POPC   D2A14464  32.083  41.103   8.478
  745POPC   C3A14465  32.232  40.923   8.105
  745POPC   C4A14466  32.077  40.750   7.729
  745POPC   C1B14467  32.544  41.104   8.797
  745POPC   C2B14468  32.535  41.344   8.437
  745POPC   C3B14469  32.635  41.256   8.049
  745POPC   C4B14470  32.519  41.035   7.694
  746POPC   NC314471  33.509  18.733   9.491
  746POPC   PO414472  34.183  18.817   9.529
  746POPC   GL114473  33.943  18.776   9.152
  746POPC   GL214474  33.674  19.060   9.113
  746POPC   C1A14475  33.916  18.815   8.705
  746POPC   D2A14476  33.675  19.073   8.451
  746POPC   C3A14477  33.588  19.015   8.029
  746POPC   C4A14478  33.881  18.930   7.694
  746POPC   C1B14479  33.594  19.413   8.813
  746POPC   C2B14480  33.813  19.579   8.407
  746POPC   C3B14481  33.916  19.398   7.964
  746POPC   C4B14482  33.578  19.328   7.624
  747POPC   NC314483  15.154  36.554   9.452
  747POPC   PO414484  14.988  37.227   9.514
  747POPC   GL114485  15.176  36.999   9.178
  747POPC   GL214486  14.904  37.127   9.031
  747POPC   C1A14487  15.292  36.986   8.724
  747POPC   D2A14488  15.359  36.675   8.393
  747POPC   C3A14489  15.239  36.816   7.988
  747POPC   C4A14490  15.434  36.986   7.692
  747POPC   C1B14491  14.745  36.994   8.661
  747POPC   C2B14492  14.834  36.805   8.275
  747POPC   C3B14493  14.766  37.127   7.949
  747POPC   C4B14494  14.798  37.502   7.712
  748POPC   NC314495  35.055  33.076   9.413
  748POPC   PO414496  35.703  33.016   9.585
  748POPC   GL114497  35.550  32.922   9.184
  748POPC   GL214498  35.307  32.709   9.211
  748POPC   C1A14499  35.317  33.028   8.796
  748POPC   D2A14500  35.422  33.248   8.433
  748POPC   C3A14501  35.307  33.071   8.052
  748POPC   C4A14502  35.401  33.295   7.708
  748POPC   C1B14503  35.081  32.566   8.823
  748POPC   C2B14504  35.158  32.715   8.422
  748POPC   C3B14505  34.876  32.746   8.119
  748POPC   C4B14506  34.916  32.653   7.730
  749POPC   NC314507   6.211  13.465   9.181
  749POPC   PO414508   6.706  13.596   9.574
  749POPC   GL114509   6.859  13.707   9.171
  749POPC   GL214510   6.762  13.349   9.114
  749POPC   C1A14511   6.705  13.804   8.757
  749POPC   D2A14512   6.412  13.739   8.395
  749POPC   C3A14513   6.407  13.987   8.011
  749POPC   C4A14514   6.471  13.866   7.557
  749POPC   C1B14515   6.987  13.355   8.749
  749POPC   C2B14516   6.892  13.529   8.357
  749POPC   C3B14517   6.725  13.569   7.933
  749POPC   C4B14518   6.859  13.543   7.491
  750POPC   NC314519  20.484   9.120   9.568
  750POPC   PO414520  20.889   8.570   9.480
  750POPC   GL114521  20.578   8.781   9.176
  750POPC   GL214522  20.548   9.174   9.068
  750POPC   C1A14523  20.637   8.780   8.721
  750POPC   D2A14524  20.891   8.824   8.347
  750POPC   C3A14525  20.817   8.977   7.932
  750POPC   C4A14526  20.761   8.949   7.456
  750POPC   C1B14527  20.705   9.396   8.701
  750POPC   C2B14528  20.744   9.343   8.287
  750POPC   C3B14529  20.405   9.258   8.022
  750POPC   C4B14530  20.622   9.379   7.713
  751POPC   NC314531   2.654  39.087   9.639
  751POPC   PO414532   3.272  39.204   9.704
  751POPC   GL114533   3.061  39.139   9.280
  751POPC   GL214534   2.760  39.331   9.192
  751POPC   C1A14535   3.077  39.191   8.824
  751POPC   D2A14536   2.912  39.135   8.400
  751POPC   C3A14537   3.078  39.242   7.997
  751POPC   C4A14538   2.980  39.227   7.561
  751POPC   C1B14539   2.587  39.346   8.754
  751POPC   C2B14540   2.569  39.528   8.347
  751POPC   C3B14541   2.585  39.380   7.937
  751POPC   C4B14542   2.424  39.336   7.553
  752POPC   NC314543  36.368   2.997   9.503
  752POPC   PO414544  36.195   2.370   9.331
  752POPC   GL114545  36.039   2.643   9.039
  752POPC   GL214546  35.936   2.970   9.155
  752POPC   C1A14547  36.220   2.631   8.640
  752POPC   D2A14548  36.108   2.429   8.290
  752POPC   C3A14549  36.313   2.542   7.912
  752POPC   C4A14550  36.298   2.624   7.456
  752POPC   C1B14551  35.874   3.008   8.696
  752POPC   C2B14552  36.003   3.000   8.232
  752POPC   C3B14553  35.887   2.791   7.838
  752POPC   C4B14554  35.817   2.890   7.411
  753POPC   NC314555  14.242  14.203   9.953
  753POPC   PO414556  14.761  14.570   9.581
  753POPC   GL114557  14.530  14.288   9.260
  753POPC   GL214558  14.281  14.533   9.133
  753POPC   C1A14559  14.377  14.037   8.855
  753POPC   D2A14560  14.452  13.850   8.409
  753POPC   C3A14561  14.735  14.086   8.059
  753POPC   C4A14562  14.636  14.225   7.593
  753POPC   C1B14563  14.604  14.489   8.795
  753POPC   C2B14564  14.489  14.365   8.404
  753POPC   C3B14565  14.497  14.538   7.992
  753POPC   C4B14566  14.907  14.598   7.785
  754POPC   NC314567  42.176   4.297   9.489
  754POPC   PO414568  42.875   4.355   9.620
  754POPC   GL114569  42.601   4.256   9.191
  754POPC   GL214570  42.284   4.420   9.004
  754POPC   C1A14571  42.489   4.035   8.774
  754POPC   D2A14572  42.319   4.256   8.385
  754POPC   C3A14573  42.582   4.396   8.012
  754POPC   C4A14574  42.298   4.097   7.849
  754POPC   C1B14575  42.479   4.633   8.665
  754POPC   C2B14576  42.364   4.789   8.259
  754POPC   C3B14577  42.239   4.697   7.805
  754POPC   C4B14578  42.268   4.742   7.332
  755POPC   NC314579   0.755   7.329   9.773
  755POPC   PO414580   0.200   7.572   9.574
  755POPC   GL114581   0.388   7.397   9.210
  755POPC   GL214582   0.765   7.370   9.220
  755POPC   C1A14583   0.460   7.494   8.793
  755POPC   D2A14584   0.301   7.693   8.447
  755POPC   C3A14585   0.449   7.497   8.100
  755POPC   C4A14586   0.509   7.519   7.692
  755POPC   C1B14587   0.818   7.136   8.789
  755POPC   C2B14588   0.649   7.059   8.357
  755POPC   C3B14589   0.742   7.115   7.916
  755POPC   C4B14590   0.975   7.315   7.583
  756POPC   NC314591  26.279  37.079   9.476
  756POPC   PO414592  25.702  36.634   9.466
  756POPC   GL114593  25.925  36.896   9.120
  756POPC   GL214594  26.277  36.918   9.008
  756POPC   C1A14595  25.931  36.854   8.646
  756POPC   D2A14596  26.127  36.499   8.464
  756POPC   C3A14597  26.202  36.567   8.033
  756POPC   C4A14598  25.945  36.692   7.708
  756POPC   C1B14599  26.306  37.219   8.719
  756POPC   C2B14600  26.135  37.232   8.315
  756POPC   C3B14601  26.187  37.082   7.945
  756POPC   C4B14602  26.480  37.265   7.742
  757POPC   NC314603  27.389  21.524   9.386
  757POPC   PO414604  27.833  21.021   9.410
  757POPC   GL114605  27.677  20.997   9.060
  757POPC   GL214606  27.334  21.072   9.152
  757POPC   C1A14607  27.787  21.155   8.696
  757POPC   D2A14608  27.591  21.185   8.322
  757POPC   C3A14609  27.570  21.545   8.066
  757POPC   C4A14610  27.640  21.629   7.621
  757POPC   C1B14611  27.321  21.348   8.772
  757POPC   C2B14612  27.118  21.351   8.380
  757POPC   C3B14613  27.159  21.115   8.000
  757POPC   C4B14614  27.363  21.201   7.620
  758POPC   NC314615  21.293  33.550   9.552
  758POPC   PO414616  20.887  34.128   9.578
  758POPC   GL114617  21.155  33.901   9.238
  758POPC   GL214618  21.081  33.508   9.112
  758POPC   C1A14619  21.394  33.769   8.855
  758POPC   D2A14620  21.327  33.777   8.424
  758POPC   C3A14621  21.613  33.662   8.115
  758POPC   C4A14622  21.406  33.794   7.776
  758POPC   C1B14623  21.088  33.392   8.686
  758POPC   C2B14624  21.049  33.355   8.259
  758POPC   C3B14625  20.972  33.525   7.851
  758POPC   C4B14626  21.095  33.645   7.395
  759POPC   NC314627   3.839  41.519   9.662
  759POPC   PO414628   4.438  41.731   9.601
  759POPC   GL114629   4.379  41.561   9.187
  759POPC   GL214630   4.010  41.501   9.166
  759POPC   C1A14631   4.453  41.461   8.740
  759POPC   D2A14632   4.313  41.614   8.342
  759POPC   C3A14633   4.417  41.407   7.949
  759POPC   C4A14634   4.455  41.517   7.525
  759POPC   C1B14635   3.950  41.324   8.750
  759POPC   C2B14636   3.748  41.397   8.365
  759POPC   C3B14637   3.916  41.558   7.996
  759POPC   C4B14638   4.001  41.335   7.632
  760POPC   NC314639  11.793  31.957   9.704
  760POPC   PO414640  11.936  32.549   9.638
  760POPC   GL114641  11.919  32.425   9.206
  760POPC   GL214642  12.246  32.470   9.033
  760POPC   C1A14643  11.811  32.501   8.783
  760POPC   D2A14644  11.919  32.313   8.399
  760POPC   C3A14645  12.101  32.547   8.085
  760POPC   C4A14646  12.032  32.377   7.682
  760POPC   C1B14647  12.111  32.082   8.830
  760POPC   C2B14648  12.139  31.852   8.432
  760POPC   C3B14649  12.205  32.019   8.034
  760POPC   C4B14650  12.271  31.865   7.636
  761POPC   NC314651   7.283  15.344   9.660
  761POPC   PO414652   7.652  14.842   9.553
  761POPC   GL114653   7.548  15.194   9.259
  761POPC   GL214654   7.507  14.969   9.046
  761POPC   C1A14655   7.199  15.327   8.924
  761POPC   D2A14656   7.264  15.132   8.503
  761POPC   C3A14657   7.255  15.414   8.120
  761POPC   C4A14658   7.313  15.271   7.672
  761POPC   C1B14659   7.591  14.735   8.715
  761POPC   C2B14660   7.686  14.792   8.326
  761POPC   C3B14661   7.407  14.903   8.036
  761POPC   C4B14662   7.565  14.781   7.664
  762POPC   NC314663   3.381  38.412   9.517
  762POPC   PO414664   3.964  38.483   9.696
  762POPC   GL114665   3.720  38.267   9.204
  762POPC   GL214666   3.381  38.145   9.083
  762POPC   C1A14667   3.625  38.427   8.744
  762POPC   D2A14668   3.736  38.643   8.364
  762POPC   C3A14669   3.631  38.478   7.948
  762POPC   C4A14670   3.952  38.650   7.747
  762POPC   C1B14671   3.139  38.269   8.753
  762POPC   C2B14672   3.308  38.342   8.336
  762POPC   C3B14673   3.108  38.318   7.935
  762POPC   C4B14674   3.341  38.222   7.554
  763POPC   NC314675  21.043  32.391   9.569
  763POPC   PO414676  20.425  32.587   9.621
  763POPC   GL114677  20.679  32.597   9.240
  763POPC   GL214678  20.580  32.264   9.213
  763POPC   C1A14679  20.815  32.456   8.804
  763POPC   D2A14680  20.654  32.237   8.452
  763POPC   C3A14681  20.801  32.410   8.059
  763POPC   C4A14682  20.724  32.140   7.727
  763POPC   C1B14683  20.311  32.435   8.878
  763POPC   C2B14684  20.207  32.461   8.439
  763POPC   C3B14685  20.324  32.221   8.059
  763POPC   C4B14686  20.216  32.121   7.642
  764POPC   NC314687   1.605  43.791   9.512
  764POPC   PO414688   0.949  43.564   9.371
  764POPC   GL114689   1.242  43.873   9.091
  764POPC   GL214690   1.574  44.100   9.107
  764POPC   C1A14691   1.289  44.063   8.643
  764POPC   D2A14692   1.199  44.182   8.153
  764POPC   C3A14693   1.217  43.867   7.782
  764POPC   C4A14694   1.384  43.964   7.362
  764POPC   C1B14695   1.653  43.744   8.808
  764POPC   C2B14696   1.662  43.513   8.452
  764POPC   C3B14697   1.600  43.804   8.106
  764POPC   C4B14698   1.626  43.607   7.677
  765POPC   NC314699  25.495  38.904   9.521
  765POPC   PO414700  24.932  39.360   9.640
  765POPC   GL114701  24.952  39.357   9.197
  765POPC   GL214702  25.206  39.145   9.137
  765POPC   C1A14703  25.061  39.474   8.765
  765POPC   D2A14704  25.098  39.177   8.437
  765POPC   C3A14705  25.044  39.296   8.053
  765POPC   C4A14706  25.082  39.537   7.698
  765POPC   C1B14707  25.495  39.192   8.784
  765POPC   C2B14708  25.547  38.945   8.392
  765POPC   C3B14709  25.524  39.152   7.988
  765POPC   C4B14710  25.525  39.345   7.565
  766POPC   NC314711   2.070  34.139   9.611
  766POPC   PO414712   2.178  33.568   9.834
  766POPC   GL114713   2.063  33.611   9.300
  766POPC   GL214714   2.355  33.700   9.044
  766POPC   C1A14715   1.919  33.880   8.890
  766POPC   D2A14716   1.830  33.753   8.476
  766POPC   C3A14717   1.967  33.924   8.087
  766POPC   C4A14718   1.974  33.549   7.845
  766POPC   C1B14719   2.331  33.779   8.607
  766POPC   C2B14720   2.351  33.588   8.205
  766POPC   C3B14721   2.448  33.781   7.799
  766POPC   C4B14722   2.476  33.625   7.336
  767POPC   NC314723   5.350  36.089   9.473
  767POPC   PO414724   4.919  36.634   9.640
  767POPC   GL114725   4.910  36.347   9.213
  767POPC   GL214726   5.188  36.178   9.021
  767POPC   C1A14727   4.905  36.450   8.735
  767POPC   D2A14728   5.113  36.158   8.406
  767POPC   C3A14729   5.028  36.237   7.945
  767POPC   C4A14730   4.927  36.159   7.477
  767POPC   C1B14731   5.210  35.807   8.776
  767POPC   C2B14732   4.898  35.690   8.478
  767POPC   C3B14733   4.724  35.861   8.119
  767POPC   C4B14734   4.897  35.736   7.741
  768POPC   NC314735  11.870  19.205   9.539
  768POPC   PO414736  12.324  18.746   9.639
  768POPC   GL114737  12.292  19.021   9.239
  768POPC   GL214738  11.993  18.961   9.122
  768POPC   C1A14739  12.265  19.234   8.800
  768POPC   D2A14740  12.150  19.024   8.406
  768POPC   C3A14741  12.325  19.174   8.054
  768POPC   C4A14742  12.233  18.931   7.690
  768POPC   C1B14743  11.799  19.011   8.748
  768POPC   C2B14744  11.718  19.278   8.367
  768POPC   C3B14745  11.824  19.104   7.972
  768POPC   C4B14746  11.759  19.105   7.547
  769POPC   NC314747   7.132  32.083   9.619
  769POPC   PO414748   7.675  32.315   9.600
  769POPC   GL114749   7.390  32.339   9.261
  769POPC   GL214750   7.242  32.029   9.120
  769POPC   C1A14751   7.340  32.442   8.844
  769POPC   D2A14752   7.321  32.345   8.412
  769POPC   C3A14753   7.606  32.505   8.106
  769POPC   C4A14754   7.469  32.437   7.668
  769POPC   C1B14755   7.046  32.035   8.728
  769POPC   C2B14756   7.074  31.905   8.295
  769POPC   C3B14757   7.132  32.162   7.953
  769POPC   C4B14758   7.231  32.006   7.560
  770POPC   NC314759  31.812  26.460   9.830
  770POPC   PO414760  31.485  25.956   9.449
  770POPC   GL114761  31.318  26.002   9.099
  770POPC   GL214762  31.201  26.352   9.156
  770POPC   C1A14763  31.515  26.103   8.704
  770POPC   D2A14764  31.681  26.141   8.276
  770POPC   C3A14765  31.553  25.909   7.921
  770POPC   C4A14766  31.473  25.797   7.508
  770POPC   C1B14767  31.035  26.256   8.775
  770POPC   C2B14768  31.120  26.056   8.404
  770POPC   C3B14769  31.186  26.262   8.048
  770POPC   C4B14770  31.103  26.076   7.703
  771POPC   NC314771   3.404   2.297   9.483
  771POPC   PO414772   3.416   2.971   9.579
  771POPC   GL114773   3.402   2.784   9.212
  771POPC   GL214774   3.676   2.589   9.151
  771POPC   C1A14775   3.309   2.778   8.795
  771POPC   D2A14776   3.164   2.960   8.447
  771POPC   C3A14777   3.317   2.735   8.070
  771POPC   C4A14778   3.556   2.910   7.713
  771POPC   C1B14779   3.728   2.373   8.752
  771POPC   C2B14780   3.664   2.340   8.294
  771POPC   C3B14781   3.874   2.238   7.919
  771POPC   C4B14782   3.972   2.465   7.566
  772POPC   NC314783  31.769  24.717   9.414
  772POPC   PO414784  31.243  24.298   9.653
  772POPC   GL114785  31.490  24.342   9.186
  772POPC   GL214786  31.518  24.719   8.993
  772POPC   C1A14787  31.476  24.341   8.693
  772POPC   D2A14788  31.209  24.368   8.331
  772POPC   C3A14789  31.495  24.448   8.003
  772POPC   C4A14790  31.675  24.608   7.659
  772POPC   C1B14791  31.268  24.824   8.631
  772POPC   C2B14792  31.377  24.879   8.223
  772POPC   C3B14793  31.285  24.898   7.773
  772POPC   C4B14794  31.360  24.846   7.306
  773POPC   NC314795  39.155  42.405   9.596
  773POPC   PO414796  39.582  41.960   9.424
  773POPC   GL114797  39.317  42.189   9.134
  773POPC   GL214798  39.126  42.509   9.110
  773POPC   C1A14799  39.138  42.020   8.768
  773POPC   D2A14800  39.278  42.104   8.376
  773POPC   C3A14801  39.022  42.217   8.040
  773POPC   C4A14802  39.125  42.010   7.676
  773POPC   C1B14803  39.218  42.522   8.674
  773POPC   C2B14804  39.240  42.638   8.237
  773POPC   C3B14805  38.941  42.771   7.957
  773POPC   C4B14806  38.777  42.672   7.571
  774POPC   NC314807   5.586   0.527   9.634
  774POPC   PO414808   6.076   0.037   9.516
  774POPC   GL114809   5.945   0.384   9.199
  774POPC   GL214810   5.604   0.516   9.135
  774POPC   C1A14811   5.926   0.533   8.751
  774POPC   D2A14812   6.161   0.602   8.368
  774POPC   C3A14813   6.085   0.372   7.987
  774POPC   C4A14814   6.149   0.356   7.575
  774POPC   C1B14815   5.577   0.169   8.846
  774POPC   C2B14816   5.715   0.229   8.409
  774POPC   C3B14817   5.649   0.569   8.112
  774POPC   C4B14818   5.651   0.370   7.714
  775POPC   NC314819  21.643  30.206   9.418
  775POPC   PO414820  21.080  29.926   9.496
  775POPC   GL114821  21.229  30.009   9.099
  775POPC   GL214822  20.956  30.200   8.996
  775POPC   C1A14823  21.432  29.813   8.713
  775POPC   D2A14824  21.390  29.564   8.317
  775POPC   C3A14825  21.646  29.595   7.945
  775POPC   C4A14826  21.473  29.477   7.531
  775POPC   C1B14827  21.226  30.283   8.649
  775POPC   C2B14828  21.373  30.072   8.250
  775POPC   C3B14829  21.271  29.894   7.830
  775POPC   C4B14830  21.171  29.872   7.394
  776POPC   NC314831  39.163  20.444  10.262
  776POPC   PO414832  39.067  20.818   9.728
  776POPC   GL114833  39.087  20.966   9.247
  776POPC   GL214834  39.450  20.957   9.156
  776POPC   C1A14835  39.089  20.788   8.802
  776POPC   D2A14836  39.051  20.458   8.454
  776POPC   C3A14837  39.224  20.573   8.025
  776POPC   C4A14838  39.238  20.993   7.821
  776POPC   C1B14839  39.583  20.927   8.697
  776POPC   C2B14840  39.545  20.948   8.226
  776POPC   C3B14841  39.708  20.756   7.800
  776POPC   C4B14842  39.825  20.666   7.324
  777POPC   NC314843  18.067  16.577   9.661
  777POPC   PO414844  18.611  16.372   9.680
  777POPC   GL114845  18.484  16.557   9.289
  777POPC   GL214846  18.164  16.462   9.155
  777POPC   C1A14847  18.532  16.695   8.850
  777POPC   D2A14848  18.385  16.918   8.474
  777POPC   C3A14849  18.311  16.704   8.075
  777POPC   C4A14850  18.011  16.437   7.891
  777POPC   C1B14851  18.019  16.783   8.835
  777POPC   C2B14852  17.869  16.984   8.428
  777POPC   C3B14853  17.841  16.917   7.957
  777POPC   C4B14854  17.680  16.695   7.563
  778POPC   NC314855  36.549  21.017   9.258
  778POPC   PO414856  36.977  21.481   9.518
  778POPC   GL114857  36.787  21.477   9.154
  778POPC   GL214858  37.031  21.206   9.099
  778POPC   C1A14859  36.665  21.697   8.787
  778POPC   D2A14860  36.367  21.772   8.452
  778POPC   C3A14861  36.596  21.729   8.059
  778POPC   C4A14862  36.695  21.439   7.726
  778POPC   C1B14863  36.992  21.317   8.679
  778POPC   C2B14864  36.914  21.336   8.242
  778POPC   C3B14865  37.137  21.280   7.901
  778POPC   C4B14866  37.519  21.123   7.838
  779POPC   NC314867  18.374   1.431   9.466
  779POPC   PO414868  18.188   0.888   9.585
  779POPC   GL114869  18.215   0.973   9.159
  779POPC   GL214870  18.562   1.073   9.150
  779POPC   C1A14871  18.172   1.151   8.738
  779POPC   D2A14872  18.149   1.175   8.294
  779POPC   C3A14873  18.299   0.859   8.046
  779POPC   C4A14874  18.220   0.945   7.610
  779POPC   C1B14875  18.605   1.397   8.823
  779POPC   C2B14876  18.588   1.482   8.358
  779POPC   C3B14877  18.515   1.317   7.914
  779POPC   C4B14878  18.511   1.307   7.433
  780POPC   NC314879   2.406  38.485   9.237
  780POPC   PO414880   2.947  38.303   9.455
  780POPC   GL114881   3.120  38.632   9.120
  780POPC   GL214882   2.804  38.757   8.956
  780POPC   C1A14883   3.234  38.751   8.658
  780POPC   D2A14884   2.911  38.629   8.351
  780POPC   C3A14885   2.835  38.791   7.974
  780POPC   C4A14886   3.146  38.742   7.653
  780POPC   C1B14887   2.573  38.444   8.648
  780POPC   C2B14888   2.430  38.483   8.216
  780POPC   C3B14889   2.521  38.408   7.805
  780POPC   C4B14890   2.289  38.467   7.441
  781POPC   NC314891   1.562  21.568   9.521
  781POPC   PO414892   1.726  22.284   9.405
  781POPC   GL114893   1.969  22.254   9.062
  781POPC   GL214894   2.070  22.577   9.066
  781POPC   C1A14895   2.187  22.044   8.702
  781POPC   D2A14896   2.151  21.812   8.312
  781POPC   C3A14897   2.114  21.934   7.901
  781POPC   C4A14898   1.747  21.933   7.709
  781POPC   C1B14899   1.894  22.464   8.631
  781POPC   C2B14900   2.020  22.333   8.221
  781POPC   C3B14901   1.920  22.414   7.776
  781POPC   C4B14902   1.761  22.285   7.353
  782POPC   NC314903  35.168   2.025   9.598
  782POPC   PO414904  34.475   2.186   9.446
  782POPC   GL114905  34.585   1.908   9.136
  782POPC   GL214906  34.823   1.673   9.263
  782POPC   C1A14907  34.604   2.042   8.738
  782POPC   D2A14908  34.649   1.838   8.373
  782POPC   C3A14909  34.529   2.044   8.051
  782POPC   C4A14910  34.329   1.952   7.692
  782POPC   C1B14911  34.952   1.662   8.805
  782POPC   C2B14912  35.146   1.821   8.410
  782POPC   C3B14913  35.049   1.764   7.972
  782POPC   C4B14914  34.832   1.910   7.655
  783POPC   NC314915  35.385   3.132   9.627
  783POPC   PO414916  35.298   2.432   9.407
  783POPC   GL114917  35.410   2.793   9.160
  783POPC   GL214918  35.140   3.026   9.190
  783POPC   C1A14919  35.409   2.747   8.710
  783POPC   D2A14920  35.641   2.667   8.344
  783POPC   C3A14921  35.453   2.549   7.932
  783POPC   C4A14922  35.655   2.398   7.536
  783POPC   C1B14923  34.950   2.969   8.812
  783POPC   C2B14924  35.092   3.056   8.401
  783POPC   C3B14925  34.945   3.099   7.984
  783POPC   C4B14926  34.980   2.719   7.738
  784POPC   NC314927   7.364  18.479   9.754
  784POPC   PO414928   7.773  18.128   9.308
  784POPC   GL114929   7.386  18.297   9.149
  784POPC   GL214930   7.407  18.596   8.986
  784POPC   C1A14931   7.206  18.168   8.768
  784POPC   D2A14932   7.252  18.355   8.356
  784POPC   C3A14933   7.103  18.244   7.975
  784POPC   C4A14934   7.485  18.343   7.720
  784POPC   C1B14935   7.075  18.660   8.715
  784POPC   C2B14936   7.064  18.842   8.337
  784POPC   C3B14937   7.460  18.825   8.106
  784POPC   C4B14938   7.495  18.878   7.661
  785POPC   NC314939   4.740   9.189   9.462
  785POPC   PO414940   4.104   8.882   9.538
  785POPC   GL114941   4.143   9.075   9.131
  785POPC   GL214942   4.411   8.869   9.077
  785POPC   C1A14943   3.990   9.366   8.781
  785POPC   D2A14944   3.790   9.275   8.362
  785POPC   C3A14945   4.046   9.023   8.073
  785POPC   C4A14946   4.438   8.973   7.819
  785POPC   C1B14947   4.232   8.687   8.688
  785POPC   C2B14948   4.331   8.608   8.249
  785POPC   C3B14949   4.688   8.541   7.956
  785POPC   C4B14950   4.927   8.843   7.675
  786POPC   NC314951   8.093  15.464   9.604
  786POPC   PO414952   8.518  16.054   9.429
  786POPC   GL114953   8.307  16.006   9.043
  786POPC   GL214954   7.967  15.867   9.212
  786POPC   C1A14955   8.348  15.873   8.656
  786POPC   D2A14956   8.036  15.628   8.478
  786POPC   C3A14957   8.067  15.634   8.029
  786POPC   C4A14958   8.284  15.971   7.810
  786POPC   C1B14959   7.844  15.997   8.807
  786POPC   C2B14960   8.043  16.262   8.528
  786POPC   C3B14961   7.991  16.338   8.103
  786POPC   C4B14962   7.746  16.136   7.782
  787POPC   NC314963   3.952  27.969   9.410
  787POPC   PO414964   4.212  27.545   9.880
  787POPC   GL114965   4.361  27.665   9.395
  787POPC   GL214966   4.171  27.558   9.141
  787POPC   C1A14967   4.472  27.881   8.916
  787POPC   D2A14968   4.528  27.748   8.454
  787POPC   C3A14969   4.616  28.024   8.108
  787POPC   C4A14970   4.435  27.862   7.725
  787POPC   C1B14971   4.025  27.740   8.738
  787POPC   C2B14972   4.020  27.488   8.367
  787POPC   C3B14973   4.148  27.455   7.944
  787POPC   C4B14974   4.087  27.535   7.518
  788POPC   NC314975   9.079  27.995   9.336
  788POPC   PO414976   8.760  27.670   9.792
  788POPC   GL114977   9.131  27.506   9.314
  788POPC   GL214978   9.316  27.681   9.046
  788POPC   C1A14979   9.047  27.333   8.813
  788POPC   D2A14980   9.153  27.454   8.348
  788POPC   C3A14981   8.859  27.496   8.023
  788POPC   C4A14982   8.948  27.691   7.635
  788POPC   C1B14983   9.497  27.647   8.661
  788POPC   C2B14984   9.406  27.910   8.330
  788POPC   C3B14985   9.421  27.792   7.917
  788POPC   C4B14986   9.306  28.041   7.561
  789POPC   NC314987  27.841  11.282   9.615
  789POPC   PO414988  27.159  11.443   9.514
  789POPC   GL114989  27.344  11.310   9.134
  789POPC   GL214990  27.668  11.419   9.144
  789POPC   C1A14991  27.539  11.107   8.779
  789POPC   D2A14992  27.565  11.295   8.390
  789POPC   C3A14993  27.794  11.155   8.054
  789POPC   C4A14994  27.589  11.157   7.661
  789POPC   C1B14995  27.562  11.661   8.781
  789POPC   C2B14996  27.609  11.814   8.370
  789POPC   C3B14997  27.467  11.657   7.996
  789POPC   C4B14998  27.696  11.644   7.645
  790POPC   NC314999  33.055  34.053   9.474
  790POPC   PO415000  32.386  33.932   9.514
  790POPC   GL115001  32.677  33.847   9.165
  790POPC   GL215002  32.916  33.543   9.193
  790POPC   C1A15003  32.916  33.935   8.785
  790POPC   D2A15004  33.257  33.970   8.465
  790POPC   C3A15005  33.084  33.985   8.072
  790POPC   C4A15006  32.816  34.252   7.857
  790POPC   C1B15007  33.216  33.523   8.815
  790POPC   C2B15008  32.974  33.531   8.434
  790POPC   C3B15009  33.088  33.469   8.031
  790POPC   C4B15010  33.205  33.680   7.624
  791POPC   NC315011  27.037  16.555   9.660
  791POPC   PO415012  26.515  16.894   9.650
  791POPC   GL115013  26.823  16.770   9.262
  791POPC   GL215014  27.178  16.752   9.202
  791POPC   C1A15015  26.845  16.433   8.922
  791POPC   D2A15016  27.007  16.341   8.483
  791POPC   C3A15017  26.911  16.519   8.041
  791POPC   C4A15018  26.558  16.778   7.858
  791POPC   C1B15019  27.177  16.768   8.746
  791POPC   C2B15020  27.298  16.882   8.332
  791POPC   C3B15021  27.011  17.034   8.022
  791POPC   C4B15022  26.996  16.953   7.591
  792POPC   NC315023  37.245   5.619   9.536
  792POPC   PO415024  37.833   5.671   9.539
  792POPC   GL115025  37.737   5.784   9.104
  792POPC   GL215026  37.344   5.750   9.050
  792POPC   C1A15027  37.983   5.760   8.707
  792POPC   D2A15028  38.144   5.722   8.294
  792POPC   C3A15029  38.082   6.064   8.051
  792POPC   C4A15030  37.784   6.022   7.732
  792POPC   C1B15031  37.473   5.847   8.638
  792POPC   C2B15032  37.615   5.868   8.222
  792POPC   C3B15033  37.376   5.759   7.860
  792POPC   C4B15034  37.210   6.087   7.583
  793POPC   NC315035  34.145  41.168   9.515
  793POPC   PO415036  33.802  41.771   9.372
  793POPC   GL115037  33.738  41.452   9.094
  793POPC   GL215038  34.081  41.358   9.039
  793POPC   C1A15039  33.758  41.433   8.647
  793POPC   D2A15040  33.887  41.652   8.304
  793POPC   C3A15041  33.812  41.489   7.912
  793POPC   C4A15042  33.416  41.426   7.743
  793POPC   C1B15043  34.297  41.297   8.632
  793POPC   C2B15044  34.317  41.417   8.195
  793POPC   C3B15045  34.318  41.566   7.786
  793POPC   C4B15046  34.132  41.667   7.382
  794POPC   NC315047  34.372  42.726   9.786
  794POPC   PO415048  34.757  42.607   9.240
  794POPC   GL115049  34.596  42.229   9.101
  794POPC   GL215050  34.826  41.990   9.274
  794POPC   C1A15051  34.392  42.280   8.698
  794POPC   D2A15052  34.479  42.438   8.286
  794POPC   C3A15053  34.202  42.451   7.951
  794POPC   C4A15054  34.314  42.508   7.501
  794POPC   C1B15055  35.041  42.112   8.874
  794POPC   C2B15056  34.887  42.171   8.457
  794POPC   C3B15057  34.982  42.327   8.038
  794POPC   C4B15058  35.137  42.024   7.777
  795POPC   NC315059   3.470  20.240   9.523
  795POPC   PO415060   3.407  19.554   9.749
  795POPC   GL115061   3.285  19.532   9.297
  795POPC   GL215062   3.390  19.844   9.218
  795POPC   C1A15063   3.371  19.497   8.833
  795POPC   D2A15064   3.751  19.650   8.559
  795POPC   C3A15065   3.652  19.664   8.089
  795POPC   C4A15066   3.655  19.802   7.651
  795POPC   C1B15067   3.463  19.998   8.812
  795POPC   C2B15068   3.330  19.907   8.435
  795POPC   C3B15069   3.380  20.114   8.085
  795POPC   C4B15070   3.372  20.212   7.725
  796POPC   NC315071  37.875  43.265   9.491
  796POPC   PO415072  37.238  43.606   9.438
  796POPC   GL115073  37.352  43.173   9.236
  796POPC   GL215074  37.690  43.118   9.063
  796POPC   C1A15075  37.305  42.919   8.837
  796POPC   D2A15076  37.414  43.134   8.449
  796POPC   C3A15077  37.700  43.007   8.113
  796POPC   C4A15078  37.429  42.967   7.757
  796POPC   C1B15079  37.968  43.375   8.826
  796POPC   C2B15080  37.887  43.422   8.412
  796POPC   C3B15081  38.068  43.484   8.016
  796POPC   C4B15082  37.967  43.329   7.636
  797POPC   NC315083   4.814  16.529   9.558
  797POPC   PO415084   5.231  16.946   9.577
  797POPC   GL115085   4.946  16.897   9.225
  797POPC   GL215086   4.758  17.183   9.092
  797POPC   C1A15087   4.856  16.750   8.818
  797POPC   D2A15088   5.070  16.829   8.435
  797POPC   C3A15089   4.847  16.890   8.064
  797POPC   C4A15090   5.065  16.655   7.796
  797POPC   C1B15091   5.175  17.188   8.859
  797POPC   C2B15092   5.292  17.294   8.439
  797POPC   C3B15093   5.324  17.096   8.032
  797POPC   C4B15094   5.091  17.127   7.628
  798POPC   NC315095   8.363  26.339   9.628
  798POPC   PO415096   7.970  25.852   9.416
  798POPC   GL115097   8.155  25.928   9.055
  798POPC   GL215098   8.426  26.103   9.188
  798POPC   C1A15099   8.042  26.063   8.642
  798POPC   D2A15100   8.172  26.367   8.335
  798POPC   C3A15101   8.106  26.282   7.890
  798POPC   C4A15102   8.180  26.628   7.689
  798POPC   C1B15103   8.506  26.212   8.772
  798POPC   C2B15104   8.539  26.009   8.393
  798POPC   C3B15105   8.462  25.928   7.968
  798POPC   C4B15106   8.355  25.854   7.547
  799POPC   NC315107  36.518  21.799   9.500
  799POPC   PO415108  35.940  22.210   9.437
  799POPC   GL115109  36.192  22.262   9.102
  799POPC   GL215110  36.298  21.938   9.033
  799POPC   C1A15111  36.046  22.367   8.699
  799POPC   D2A15112  36.182  22.295   8.263
  799POPC   C3A15113  35.978  22.123   7.923
  799POPC   C4A15114  35.875  21.732   7.713
  799POPC   C1B15115  36.536  22.195   8.709
  799POPC   C2B15116  36.677  22.182   8.287
  799POPC   C3B15117  36.518  22.212   7.859
  799POPC   C4B15118  36.270  22.496   7.613
  800POPC   NC315119   5.559  41.940   9.502
  800POPC   PO415120   5.678  42.679   9.549
  800POPC   GL115121   5.725  42.475   9.175
  800POPC   GL215122   5.951  42.723   9.057
  800POPC   C1A15123   5.710  42.191   8.821
  800POPC   D2A15124   5.740  42.217   8.356
  800POPC   C3A15125   6.089  42.127   8.038
  800POPC   C4A15126   5.995  42.071   7.566
  800POPC   C1B15127   5.803  42.663   8.654
  800POPC   C2B15128   5.978  42.663   8.246
  800POPC   C3B15129   5.886  42.545   7.816
  800POPC   C4B15130   5.529  42.527   7.548
  801POPC   NC315131  21.597  42.669   9.630
  801POPC   PO415132  21.159  42.242   9.498
  801POPC   GL115133  21.306  42.298   9.104
  801POPC   GL215134  21.682  42.409   9.145
  801POPC   C1A15135  21.133  42.186   8.698
  801POPC   D2A15136  21.047  42.401   8.306
  801POPC   C3A15137  21.112  42.222   7.890
  801POPC   C4A15138  21.349  42.112   7.514
  801POPC   C1B15139  21.624  42.335   8.694
  801POPC   C2B15140  21.526  42.147   8.289
  801POPC   C3B15141  21.613  42.309   7.883
  801POPC   C4B15142  21.847  42.290   7.468
  802POPC   NC315143  30.620  14.369   9.584
  802POPC   PO415144  30.930  14.920   9.378
  802POPC   GL115145  30.710  14.554   9.130
  802POPC   GL215146  30.789  14.168   9.169
  802POPC   C1A15147  30.556  14.369   8.746
  802POPC   D2A15148  30.770  14.477   8.391
  802POPC   C3A15149  30.597  14.530   8.019
  802POPC   C4A15150  30.726  14.772   7.693
  802POPC   C1B15151  30.998  14.069   8.820
  802POPC   C2B15152  30.883  13.959   8.429
  802POPC   C3B15153  30.956  14.134   8.035
  802POPC   C4B15154  30.778  14.240   7.637
  803POPC   NC315155  16.237  12.762   9.406
  803POPC   PO415156  15.811  12.305   9.577
  803POPC   GL115157  15.780  12.696   9.201
  803POPC   GL215158  16.115  12.823   8.927
  803POPC   C1A15159  15.647  12.842   8.775
  803POPC   D2A15160  15.894  13.046   8.454
  803POPC   C3A15161  15.914  12.763   8.114
  803POPC   C4A15162  15.700  12.710   7.731
  803POPC   C1B15163  16.352  13.225   8.767
  803POPC   C2B15164  16.436  13.405   8.398
  803POPC   C3B15165  16.244  13.226   8.073
  803POPC   C4B15166  16.071  13.056   7.721
  804POPC   NC315167   0.016  22.526   9.227
  804POPC   PO415168   0.072  21.925   9.508
  804POPC   GL115169  44.909  22.021   9.141
  804POPC   GL215170  44.617  22.150   9.200
  804POPC   C1A15171  44.871  22.008   8.707
  804POPC   D2A15172  44.633  21.869   8.362
  804POPC   C3A15173  44.741  21.895   7.942
  804POPC   C4A15174  44.566  22.142   7.609
  804POPC   C1B15175  44.298  22.334   8.955
  804POPC   C2B15176  44.434  22.312   8.531
  804POPC   C3B15177  44.400  22.261   8.093
  804POPC   C4B15178  44.119  22.398   7.776
  805POPC   NC315179  17.289   0.102   9.507
  805POPC   PO415180  17.670   0.655   9.416
  805POPC   GL115181  17.498   0.484   9.048
  805POPC   GL215182  17.293   0.201   9.024
  805POPC   C1A15183  17.332   0.595   8.646
  805POPC   D2A15184  17.018   0.636   8.326
  805POPC   C3A15185  17.169   0.856   7.948
  805POPC   C4A15186  17.495   0.647   7.758
  805POPC   C1B15187  17.053   0.163   8.677
  805POPC   C2B15188  17.199   0.138   8.271
  805POPC   C3B15189  17.135   0.314   7.906
  805POPC   C4B15190  17.283   0.254   7.499
  806POPC   NC315191   0.612  29.337   9.345
  806POPC   PO415192   0.276  28.753   9.505
  806POPC   GL115193   0.216  28.999   9.115
  806POPC   GL215194   0.240  29.360   8.985
  806POPC   C1A15195   0.475  29.012   8.727
  806POPC   D2A15196   0.572  29.170   8.317
  806POPC   C3A15197   0.413  28.896   7.991
  806POPC   C4A15198   0.698  28.618   7.806
  806POPC   C1B15199   0.542  29.594   8.729
  806POPC   C2B15200   0.780  29.664   8.356
  806POPC   C3B15201   0.706  29.536   7.949
  806POPC   C4B15202   0.821  29.147   7.806
  807POPC   NC315203  20.514  10.744   9.407
  807POPC   PO415204  21.153  10.440   9.499
  807POPC   GL115205  20.828  10.440   9.166
  807POPC   GL215206  20.513  10.250   9.168
  807POPC   C1A15207  20.592  10.642   8.781
  807POPC   D2A15208  20.346  10.639   8.383
  807POPC   C3A15209  20.571  10.739   7.998
  807POPC   C4A15210  20.503  10.954   7.599
  807POPC   C1B15211  20.236  10.284   8.808
  807POPC   C2B15212  20.336  10.129   8.398
  807POPC   C3B15213  20.290  10.298   8.003
  807POPC   C4B15214  20.634  10.250   7.755
  808POPC   NC315215  38.776   4.103   9.469
  808POPC   PO415216  39.357   4.392   9.326
  808POPC   GL115217  39.051   4.299   9.075
  808POPC   GL215218  39.092   3.937   9.065
  808POPC   C1A15219  39.141   4.505   8.719
  808POPC   D2A15220  39.400   4.560   8.377
  808POPC   C3A15221  39.159   4.610   8.001
  808POPC   C4A15222  39.404   4.682   7.643
  808POPC   C1B15223  39.431   4.081   8.753
  808POPC   C2B15224  39.537   4.037   8.320
  808POPC   C3B15225  39.347   4.138   7.927
  808POPC   C4B15226  38.917   4.050   7.780
  809POPC   NC315227  26.544  13.127   9.351
  809POPC   PO415228  27.018  12.923   9.793
  809POPC   GL115229  26.948  12.782   9.248
  809POPC   GL215230  26.704  12.569   9.088
  809POPC   C1A15231  26.954  12.938   8.797
  809POPC   D2A15232  27.021  13.153   8.395
  809POPC   C3A15233  26.921  12.930   7.996
  809POPC   C4A15234  26.687  12.897   7.634
  809POPC   C1B15235  26.470  12.750   8.723
  809POPC   C2B15236  26.516  13.052   8.381
  809POPC   C3B15237  26.355  13.053   7.978
  809POPC   C4B15238  26.219  12.721   7.668
  810POPC   NC315239  16.592   4.515   9.793
  810POPC   PO415240  16.806   4.001   9.775
  810POPC   GL115241  16.742   4.204   9.357
  810POPC   GL215242  16.866   3.956   9.149
  810POPC   C1A15243  16.634   4.371   8.901
  810POPC   D2A15244  16.621   4.570   8.443
  810POPC   C3A15245  16.613   4.406   8.010
  810POPC   C4A15246  16.683   4.399   7.546
  810POPC   C1B15247  16.983   4.051   8.714
  810POPC   C2B15248  16.965   4.185   8.295
  810POPC   C3B15249  17.077   4.225   7.837
  810POPC   C4B15250  17.121   3.886   7.512
  811POPC   NC315251  39.686  29.247   9.521
  811POPC   PO415252  40.261  29.108   9.290
  811POPC   GL115253  39.927  29.316   9.052
  811POPC   GL215254  39.736  29.032   9.045
  811POPC   C1A15255  39.833  29.323   8.615
  811POPC   D2A15256  39.978  29.168   8.187
  811POPC   C3A15257  39.832  29.358   7.774
  811POPC   C4A15258  39.943  29.477   7.344
  811POPC   C1B15259  39.967  28.737   8.757
  811POPC   C2B15260  39.970  28.675   8.298
  811POPC   C3B15261  40.034  28.778   7.858
  811POPC   C4B15262  40.017  28.619   7.438
  812POPC   NC315263   8.287  43.666   9.428
  812POPC   PO415264   7.910  44.105   9.150
  812POPC   GL115265   8.043  43.645   8.980
  812POPC   GL215266   8.431  43.599   8.947
  812POPC   C1A15267   8.144  43.390   8.589
  812POPC   D2A15268   8.347  43.466   8.175
  812POPC   C3A15269   8.105  43.678   7.832
  812POPC   C4A15270   8.022  43.921   7.405
  812POPC   C1B15271   8.416  43.986   8.702
  812POPC   C2B15272   8.304  44.182   8.285
  812POPC   C3B15273   8.274  44.163   7.826
  812POPC   C4B15274   8.503  43.868   7.544
  813POPC   NC315275  12.528   2.540   9.410
  813POPC   PO415276  13.122   2.853   9.598
  813POPC   GL115277  12.874   2.875   9.206
  813POPC   GL215278  12.943   2.554   9.105
  813POPC   C1A15279  12.669   2.881   8.769
  813POPC   D2A15280  12.888   2.860   8.376
  813POPC   C3A15281  12.760   2.953   7.955
  813POPC   C4A15282  12.950   3.044   7.514
  813POPC   C1B15283  12.822   2.428   8.690
  813POPC   C2B15284  12.612   2.422   8.324
  813POPC   C3B15285  12.781   2.447   7.936
  813POPC   C4B15286  12.761   2.568   7.518
  814POPC   NC315287  31.336  33.505   9.506
  814POPC   PO415288  31.570  34.084   9.751
  814POPC   GL115289  31.537  33.899   9.277
  814POPC   GL215290  31.236  33.890   9.100
  814POPC   C1A15291  31.641  33.987   8.802
  814POPC   D2A15292  31.457  33.877   8.390
  814POPC   C3A15293  31.574  34.012   7.984
  814POPC   C4A15294  31.604  33.691   7.672
  814POPC   C1B15295  31.378  33.543   8.833
  814POPC   C2B15296  31.181  33.450   8.453
  814POPC   C3B15297  31.348  33.439   8.044
  814POPC   C4B15298  31.159  33.351   7.647
  815POPC   NC315299   5.277  21.238   9.387
  815POPC   PO415300   4.652  21.110   9.559
  815POPC   GL115301   4.845  21.306   9.155
  815POPC   GL215302   4.808  21.631   9.053
  815POPC   C1A15303   5.175  21.410   8.770
  815POPC   D2A15304   5.049  21.275   8.335
  815POPC   C3A15305   5.248  21.180   7.932
  815POPC   C4A15306   5.172  21.408   7.523
  815POPC   C1B15307   4.678  21.348   8.689
  815POPC   C2B15308   4.528  21.236   8.284
  815POPC   C3B15309   4.743  21.237   7.883
  815POPC   C4B15310   4.904  20.970   7.540
  816POPC   NC315311  23.076   0.013   9.312
  816POPC   PO415312  22.953  44.424   9.658
  816POPC   GL115313  22.899  44.529   9.222
  816POPC   GL215314  22.778  44.215   9.157
  816POPC   C1A15315  22.999  44.680   8.773
  816POPC   D2A15316  23.037  44.506   8.350
  816POPC   C3A15317  22.965  44.760   7.964
  816POPC   C4A15318  23.214  44.873   7.584
  816POPC   C1B15319  22.658  44.314   8.754
  816POPC   C2B15320  22.694  44.117   8.344
  816POPC   C3B15321  22.830  44.266   7.943
  816POPC   C4B15322  23.106  44.373   7.620
  817POPC   NC315323  13.935   1.131   9.463
  817POPC   PO415324  13.425   1.411   9.307
  817POPC   GL115325  13.771   1.313   9.015
  817POPC   GL215326  13.834   0.903   9.024
  817POPC   C1A15327  13.606   1.502   8.634
  817POPC   D2A15328  13.442   1.387   8.275
  817POPC   C3A15329  13.604   1.521   7.893
  817POPC   C4A15330  13.532   1.321   7.512
  817POPC   C1B15331  13.669   1.008   8.621
  817POPC   C2B15332  13.892   1.165   8.255
  817POPC   C3B15333  13.657   1.020   7.920
  817POPC   C4B15334  13.380   0.815   7.654
  818POPC   NC315335  15.545  11.302   9.822
  818POPC   PO415336  14.949  11.125   9.522
  818POPC   GL115337  15.086  11.244   9.086
  818POPC   GL215338  15.038  11.605   9.089
  818POPC   C1A15339  14.873  11.348   8.667
  818POPC   D2A15340  14.898  11.458   8.192
  818POPC   C3A15341  15.197  11.373   7.871
  818POPC   C4A15342  15.026  11.141   7.533
  818POPC   C1B15343  15.336  11.566   8.757
  818POPC   C2B15344  15.433  11.534   8.337
  818POPC   C3B15345  15.690  11.740   8.019
  818POPC   C4B15346  15.535  11.714   7.609
  819POPC   NC315347  10.094  25.841   9.223
  819POPC   PO415348   9.590  26.229   9.438
  819POPC   GL115349   9.732  26.313   9.048
  819POPC   GL215350   9.387  26.392   8.970
  819POPC   C1A15351   9.953  26.207   8.642
  819POPC   D2A15352  10.093  25.859   8.330
  819POPC   C3A15353   9.900  25.924   7.937
  819POPC   C4A15354   9.742  26.325   7.805
  819POPC   C1B15355   9.363  25.965   8.847
  819POPC   C2B15356   9.556  25.880   8.463
  819POPC   C3B15357   9.417  26.033   8.077
  819POPC   C4B15358   9.412  25.751   7.746
  820POPC   NC315359   0.068  20.787   9.533
  820POPC   PO415360   0.070  20.199   9.405
  820POPC   GL115361  44.863  20.516   9.113
  820POPC   GL215362  44.470  20.570   9.154
  820POPC   C1A15363  44.804  20.554   8.657
  820POPC   D2A15364  44.545  20.540   8.267
  820POPC   C3A15365  44.797  20.390   7.907
  820POPC   C4A15366  44.641  20.218   7.509
  820POPC   C1B15367  44.450  20.877   8.817
  820POPC   C2B15368  44.542  21.029   8.427
  820POPC   C3B15369  44.392  20.972   8.015
  820POPC   C4B15370  44.422  20.653   7.710
  821POPC   NC315371  10.522   0.675   9.582
  821POPC   PO415372  10.475  44.976   9.641
  821POPC   GL115373  10.407   0.041   9.207
  821POPC   GL215374  10.406   0.396   9.173
  821POPC   C1A15375  10.431   0.108   8.753
  821POPC   D2A15376  10.799   0.300   8.546
  821POPC   C3A15377  10.738   0.370   8.109
  821POPC   C4A15378  10.942   0.314   7.735
  821POPC   C1B15379  10.506   0.634   8.793
  821POPC   C2B15380  10.354   0.534   8.413
  821POPC   C3B15381  10.255   0.635   8.017
  821POPC   C4B15382  10.507   0.604   7.678
  822POPC   NC315383   0.992   6.931   9.376
  822POPC   PO415384   1.280   6.340   9.434
  822POPC   GL115385   1.307   6.624   9.120
  822POPC   GL215386   1.465   6.969   9.179
  822POPC   C1A15387   1.054   6.544   8.763
  822POPC   D2A15388   1.012   6.349   8.376
  822POPC   C3A15389   0.922   6.662   8.101
  822POPC   C4A15390   0.797   6.658   7.704
  822POPC   C1B15391   1.325   6.981   8.751
  822POPC   C2B15392   1.177   7.184   8.402
  822POPC   C3B15393   1.249   7.178   7.999
  822POPC   C4B15394   1.284   6.870   7.719
  823POPC   NC315395  21.704  39.920   9.483
  823POPC   PO415396  21.035  40.268   9.442
  823POPC   GL115397  21.378  40.136   9.133
  823POPC   GL215398  21.757  40.254   9.114
  823POPC   C1A15399  21.227  40.023   8.727
  823POPC   D2A15400  21.095  40.134   8.328
  823POPC   C3A15401  21.163  39.876   8.005
  823POPC   C4A15402  21.069  39.964   7.623
  823POPC   C1B15403  21.759  39.994   8.761
  823POPC   C2B15404  21.568  39.883   8.383
  823POPC   C3B15405  21.656  39.943   7.996
  823POPC   C4B15406  21.563  39.774   7.631
  824POPC   NC315407  23.822  27.245   9.461
  824POPC   PO415408  23.243  27.484   9.419
  824POPC   GL115409  23.601  27.627   9.167
  824POPC   GL215410  23.747  27.965   9.275
  824POPC   C1A15411  23.797  27.415   8.798
  824POPC   D2A15412  24.020  27.253   8.436
  824POPC   C3A15413  23.958  27.477   8.080
  824POPC   C4A15414  23.615  27.489   7.830
  824POPC   C1B15415  23.911  27.900   8.852
  824POPC   C2B15416  23.760  27.819   8.424
  824POPC   C3B15417  23.764  27.957   7.986
  824POPC   C4B15418  24.034  27.795   7.674
  825POPC   NC315419   8.409  31.090   9.826
  825POPC   PO415420   8.002  30.693   9.585
  825POPC   GL115421   8.137  30.771   9.169
  825POPC   GL215422   8.360  30.551   9.083
  825POPC   C1A15423   8.012  30.716   8.723
  825POPC   D2A15424   7.793  30.551   8.385
  825POPC   C3A15425   8.035  30.565   8.065
  825POPC   C4A15426   8.073  30.858   7.795
  825POPC   C1B15427   8.527  30.732   8.731
  825POPC   C2B15428   8.447  30.610   8.360
  825POPC   C3B15429   8.521  30.738   7.975
  825POPC   C4B15430   8.743  30.583   7.658
  826POPC   NC315431  25.101  34.868   9.448
  826POPC   PO415432  24.907  34.259   9.576
  826POPC   GL115433  24.950  34.481   9.163
  826POPC   GL215434  25.296  34.595   9.075
  826POPC   C1A15435  24.859  34.696   8.765
  826POPC   D2A15436  24.891  34.515   8.338
  826POPC   C3A15437  25.162  34.681   8.024
  826POPC   C4A15438  25.198  34.630   7.588
  826POPC   C1B15439  25.451  34.712   8.658
  826POPC   C2B15440  25.547  34.918   8.244
  826POPC   C3B15441  25.647  34.627   7.887
  826POPC   C4B15442  25.688  34.322   7.525
  827POPC   NC315443  34.379  19.226   9.536
  827POPC   PO415444  34.800  19.670   9.653
  827POPC   GL115445  34.768  19.243   9.223
  827POPC   GL215446  34.415  19.127   9.057
  827POPC   C1A15447  34.847  19.005   8.819
  827POPC   D2A15448  34.809  19.128   8.360
  827POPC   C3A15449  34.789  18.815   7.986
  827POPC   C4A15450  34.836  18.791   7.529
  827POPC   C1B15451  34.100  19.290   8.794
  827POPC   C2B15452  34.187  19.239   8.388
  827POPC   C3B15453  34.443  19.444   8.106
  827POPC   C4B15454  34.504  19.204   7.742
  828POPC   NC315455   1.704   7.189   9.594
  828POPC   PO415456   1.881   7.803   9.464
  828POPC   GL115457   2.001   7.507   9.130
  828POPC   GL215458   1.946   7.166   9.145
  828POPC   C1A15459   2.140   7.359   8.705
  828POPC   D2A15460   2.389   7.159   8.369
  828POPC   C3A15461   2.188   7.212   7.942
  828POPC   C4A15462   2.109   7.439   7.536
  828POPC   C1B15463   1.844   6.960   8.762
  828POPC   C2B15464   1.700   7.130   8.399
  828POPC   C3B15465   1.723   7.006   7.996
  828POPC   C4B15466   1.682   7.226   7.652
  829POPC   NC315467   8.911  13.262   9.449
  829POPC   PO415468   9.479  13.677   9.533
  829POPC   GL115469   9.348  13.367   9.222
  829POPC   GL215470   9.107  13.633   9.159
  829POPC   C1A15471   9.133  13.262   8.811
  829POPC   D2A15472   9.144  13.568   8.466
  829POPC   C3A15473   9.043  13.483   8.019
  829POPC   C4A15474   8.799  13.724   7.715
  829POPC   C1B15475   8.835  13.761   8.855
  829POPC   C2B15476   8.896  14.039   8.549
  829POPC   C3B15477   8.882  13.988   8.136
  829POPC   C4B15478   9.217  14.024   7.835
  830POPC   NC315479  43.665  40.452   9.737
  830POPC   PO415480  44.228  40.855   9.388
  830POPC   GL115481  44.104  40.685   9.033
  830POPC   GL215482  43.811  40.847   9.012
  830POPC   C1A15483  44.125  40.956   8.663
  830POPC   D2A15484  43.922  40.976   8.315
  830POPC   C3A15485  43.937  40.755   8.022
  830POPC   C4A15486  43.903  40.939   7.694
  830POPC   C1B15487  43.548  40.891   8.647
  830POPC   C2B15488  43.481  40.675   8.263
  830POPC   C3B15489  43.476  40.680   7.813
  830POPC   C4B15490  43.761  40.515   7.470
  831POPC   NC315491  18.556  10.951   9.458
  831POPC   PO415492  18.159  11.536   9.525
  831POPC   GL115493  18.047  11.314   9.127
  831POPC   GL215494  18.324  11.095   9.016
  831POPC   C1A15495  17.959  11.156   8.704
  831POPC   D2A15496  18.227  11.158   8.365
  831POPC   C3A15497  18.102  11.503   8.147
  831POPC   C4A15498  18.010  11.778   7.817
  831POPC   C1B15499  18.663  11.057   8.654
  831POPC   C2B15500  18.752  11.189   8.218
  831POPC   C3B15501  18.427  11.243   7.871
  831POPC   C4B15502  18.404  11.125   7.449
  832POPC   NC315503  13.215  14.438   9.603
  832POPC   PO415504  12.612  14.171   9.475
  832POPC   GL115505  12.936  14.261   9.192
  832POPC   GL215506  12.939  14.630   9.207
  832POPC   C1A15507  13.000  14.159   8.762
  832POPC   D2A15508  12.637  14.169   8.503
  832POPC   C3A15509  12.720  14.215   8.082
  832POPC   C4A15510  13.130  14.301   7.873
  832POPC   C1B15511  12.786  14.641   8.793
  832POPC   C2B15512  12.957  14.590   8.390
  832POPC   C3B15513  12.829  14.742   8.008
  832POPC   C4B15514  12.715  14.505   7.666
  833POPC   NC315515   4.708  13.350   9.441
  833POPC   PO415516   4.304  13.907   9.442
  833POPC   GL115517   4.354  13.619   9.111
  833POPC   GL215518   4.073  13.413   8.994
  833POPC   C1A15519   4.361  13.739   8.690
  833POPC   D2A15520   4.525  13.902   8.330
  833POPC   C3A15521   4.544  13.692   7.960
  833POPC   C4A15522   4.454  13.827   7.543
  833POPC   C1B15523   4.127  13.303   8.610
  833POPC   C2B15524   4.094  13.564   8.244
  833POPC   C3B15525   4.058  13.582   7.806
  833POPC   C4B15526   4.069  13.545   7.348
  834POPC   NC315527  20.673  30.531   9.376
  834POPC   PO415528  20.239  31.042   9.493
  834POPC   GL115529  20.436  30.912   9.107
  834POPC   GL215530  20.364  30.554   8.980
  834POPC   C1A15531  20.619  31.004   8.710
  834POPC   D2A15532  20.419  30.878   8.317
  834POPC   C3A15533  20.592  30.652   7.961
  834POPC   C4A15534  20.993  30.665   7.746
  834POPC   C1B15535  20.696  30.485   8.657
  834POPC   C2B15536  20.934  30.410   8.259
  834POPC   C3B15537  20.879  30.195   7.857
  834POPC   C4B15538  20.803  30.217   7.414
  835POPC   NC315539  36.263  40.351   9.336
  835POPC   PO415540  35.727  39.961   9.381
  835POPC   GL115541  35.946  40.029   9.059
  835POPC   GL215542  36.251  39.844   9.168
  835POPC   C1A15543  36.097  40.220   8.710
  835POPC   D2A15544  36.194  40.379   8.337
  835POPC   C3A15545  36.007  40.231   7.967
  835POPC   C4A15546  36.255  40.240   7.586
  835POPC   C1B15547  36.248  39.739   8.729
  835POPC   C2B15548  36.085  39.821   8.316
  835POPC   C3B15549  36.237  39.767   7.893
  835POPC   C4B15550  35.845  39.670   7.629
  836POPC   NC315551  28.229  40.857   9.737
  836POPC   PO415552  28.722  40.783   9.360
  836POPC   GL115553  28.409  40.874   9.150
  836POPC   GL215554  28.110  40.661   9.257
  836POPC   C1A15555  28.568  40.743   8.738
  836POPC   D2A15556  28.838  40.656   8.400
  836POPC   C3A15557  28.605  40.795   8.054
  836POPC   C4A15558  28.492  40.890   7.661
  836POPC   C1B15559  28.014  40.842   8.859
  836POPC   C2B15560  28.159  40.797   8.462
  836POPC   C3B15561  28.106  40.612   8.118
  836POPC   C4B15562  28.012  40.764   7.727
  837POPC   NC315563  16.674  23.311   9.466
  837POPC   PO415564  16.937  23.895   9.500
  837POPC   GL115565  16.837  23.637   9.121
  837POPC   GL215566  16.454  23.575   9.099
  837POPC   C1A15567  16.787  23.329   8.772
  837POPC   D2A15568  16.624  23.291   8.373
  837POPC   C3A15569  16.843  23.606   8.140
  837POPC   C4A15570  16.834  23.686   7.711
  837POPC   C1B15571  16.251  23.422   8.727
  837POPC   C2B15572  16.192  23.546   8.268
  837POPC   C3B15573  16.334  23.731   7.856
  837POPC   C4B15574  16.551  24.121   7.643
  838POPC   NC315575  41.751   7.597   9.386
  838POPC   PO415576  41.254   7.135   9.534
  838POPC   GL115577  41.194   7.279   9.102
  838POPC   GL215578  41.293   7.623   9.046
  838POPC   C1A15579  41.201   7.184   8.629
  838POPC   D2A15580  41.553   7.159   8.323
  838POPC   C3A15581  41.448   7.110   7.885
  838POPC   C4A15582  41.387   7.375   7.511
  838POPC   C1B15583  41.591   7.516   8.742
  838POPC   C2B15584  41.651   7.671   8.331
  838POPC   C3B15585  41.622   7.590   7.932
  838POPC   C4B15586  41.846   7.587   7.554
  839POPC   NC315587   1.271  40.544   9.595
  839POPC   PO415588   0.608  40.676   9.545
  839POPC   GL115589   0.944  40.707   9.173
  839POPC   GL215590   1.362  40.721   9.148
  839POPC   C1A15591   1.072  40.850   8.735
  839POPC   D2A15592   1.148  41.063   8.328
  839POPC   C3A15593   1.157  40.931   7.941
  839POPC   C4A15594   0.818  40.703   7.813
  839POPC   C1B15595   1.574  40.468   8.874
  839POPC   C2B15596   1.426  40.567   8.474
  839POPC   C3B15597   1.121  40.487   8.195
  839POPC   C4B15598   1.369  40.503   7.827
  840POPC   NC315599   8.283  17.947   9.480
  840POPC   PO415600   7.831  18.395   9.768
  840POPC   GL115601   8.201  18.401   9.279
  840POPC   GL215602   8.184  18.098   9.007
  840POPC   C1A15603   8.473  18.488   8.891
  840POPC   D2A15604   8.423  18.219   8.497
  840POPC   C3A15605   8.438  18.410   8.066
  840POPC   C4A15606   8.411  18.245   7.628
  840POPC   C1B15607   7.989  18.447   8.734
  840POPC   C2B15608   7.943  18.475   8.286
  840POPC   C3B15609   7.972  18.177   7.902
  840POPC   C4B15610   7.937  18.313   7.448
  841POPC   NC315611  32.657  14.742   9.347
  841POPC   PO415612  32.083  14.442   9.548
  841POPC   GL115613  32.169  14.591   9.158
  841POPC   GL215614  32.453  14.374   9.049
  841POPC   C1A15615  31.999  14.457   8.765
  841POPC   D2A15616  31.912  14.182   8.407
  841POPC   C3A15617  32.172  14.194   8.038
  841POPC   C4A15618  32.040  14.521   7.746
  841POPC   C1B15619  32.489  14.712   8.728
  841POPC   C2B15620  32.780  14.864   8.415
  841POPC   C3B15621  32.634  14.873   7.970
  841POPC   C4B15622  32.502  14.653   7.572
  842POPC   NC315623  44.853   3.641   9.565
  842POPC   PO415624  44.280   3.821   9.270
  842POPC   GL115625  44.706   3.744   9.096
  842POPC   GL215626  44.877   3.411   9.109
  842POPC   C1A15627  44.775   3.686   8.681
  842POPC   D2A15628  44.581   3.795   8.335
  842POPC   C3A15629  44.804   3.714   7.982
  842POPC   C4A15630  44.529   3.761   7.661
  842POPC   C1B15631  44.985   3.222   8.712
  842POPC   C2B15632  44.739   3.270   8.346
  842POPC   C3B15633  44.474   3.338   8.016
  842POPC   C4B15634  44.721   3.271   7.670
  843POPC   NC315635  39.937   6.570   9.726
  843POPC   PO415636  39.652   7.110   9.492
  843POPC   GL115637  39.953   6.806   9.268
  843POPC   GL215638  39.738   6.550   9.144
  843POPC   C1A15639  40.171   6.598   8.893
  843POPC   D2A15640  40.043   6.762   8.481
  843POPC   C3A15641  39.960   6.552   8.076
  843POPC   C4A15642  40.208   6.601   7.698
  843POPC   C1B15643  39.606   6.811   8.816
  843POPC   C2B15644  39.547   6.681   8.408
  843POPC   C3B15645  39.560   6.859   8.022
  843POPC   C4B15646  39.880   6.972   7.789
  844POPC   NC315647  36.090  41.030   9.594
  844POPC   PO415648  35.830  40.485   9.403
  844POPC   GL115649  35.886  40.753   9.106
  844POPC   GL215650  36.197  40.824   9.147
  844POPC   C1A15651  35.943  40.703   8.686
  844POPC   D2A15652  35.743  40.862   8.367
  844POPC   C3A15653  35.962  40.754   8.056
  844POPC   C4A15654  35.941  40.968   7.697
  844POPC   C1B15655  36.249  41.076   8.829
  844POPC   C2B15656  36.325  40.921   8.382
  844POPC   C3B15657  36.410  40.926   7.917
  844POPC   C4B15658  36.382  40.717   7.474
  845POPC   NC315659  14.705  41.693   9.248
  845POPC   PO415660  14.361  41.326   9.671
  845POPC   GL115661  14.333  41.352   9.202
  845POPC   GL215662  14.212  41.689   9.040
  845POPC   C1A15663  14.416  41.247   8.768
  845POPC   D2A15664  14.615  40.960   8.472
  845POPC   C3A15665  14.684  41.234   8.133
  845POPC   C4A15666  14.392  41.485   7.879
  845POPC   C1B15667  14.418  41.991   8.730
  845POPC   C2B15668  14.698  42.020   8.361
  845POPC   C3B15669  14.667  41.900   7.925
  845POPC   C4B15670  14.571  41.755   7.472
  846POPC   NC315671   1.404  18.146   9.599
  846POPC   PO415672   2.116  18.222   9.571
  846POPC   GL115673   2.016  18.543   9.251
  846POPC   GL215674   1.657  18.485   9.224
  846POPC   C1A15675   2.202  18.710   8.861
  846POPC   D2A15676   2.137  18.456   8.499
  846POPC   C3A15677   2.180  18.597   8.077
  846POPC   C4A15678   2.048  18.423   7.682
  846POPC   C1B15679   1.863  18.166   8.950
  846POPC   C2B15680   1.923  17.988   8.550
  846POPC   C3B15681   1.953  18.125   8.131
  846POPC   C4B15682   2.176  17.892   7.828
  847POPC   NC315683  10.616  27.244   9.660
  847POPC   PO415684  10.480  27.870   9.403
  847POPC   GL115685  10.578  27.588   9.127
  847POPC   GL215686  10.288  27.443   9.055
  847POPC   C1A15687  10.583  27.727   8.713
  847POPC   D2A15688  10.379  27.614   8.361
  847POPC   C3A15689  10.514  27.796   7.982
  847POPC   C4A15690  10.643  28.021   7.659
  847POPC   C1B15691  10.498  27.211   8.748
  847POPC   C2B15692  10.713  27.197   8.372
  847POPC   C3B15693  10.544  27.286   8.000
  847POPC   C4B15694  10.478  27.370   7.594
  848POPC   NC315695  36.951  36.467   9.453
  848POPC   PO415696  36.869  35.718   9.573
  848POPC   GL115697  36.770  35.958   9.151
  848POPC   GL215698  36.785  36.331   8.984
  848POPC   C1A15699  36.772  35.918   8.700
  848POPC   D2A15700  36.705  36.365   8.444
  848POPC   C3A15701  36.611  36.303   7.995
  848POPC   C4A15702  36.786  35.958   7.773
  848POPC   C1B15703  37.133  36.255   8.681
  848POPC   C2B15704  37.113  35.974   8.311
  848POPC   C3B15705  37.271  36.010   7.914
  848POPC   C4B15706  37.089  36.378   7.802
  849POPC   NC315707   5.621  29.494   9.494
  849POPC   PO415708   6.141  29.169   9.522
  849POPC   GL115709   6.122  29.099   9.127
  849POPC   GL215710   5.776  29.165   9.118
  849POPC   C1A15711   6.033  28.838   8.759
  849POPC   D2A15712   6.245  28.820   8.366
  849POPC   C3A15713   5.992  28.931   8.017
  849POPC   C4A15714   5.639  28.741   7.841
  849POPC   C1B15715   5.925  29.349   8.753
  849POPC   C2B15716   5.965  29.265   8.409
  849POPC   C3B15717   5.778  29.426   8.101
  849POPC   C4B15718   5.868  29.313   7.678
  850POPC   NC315719  30.916  20.234   9.492
  850POPC   PO415720  30.420  20.723   9.447
  850POPC   GL115721  30.437  20.536   9.044
  850POPC   GL215722  30.759  20.482   9.077
  850POPC   C1A15723  30.438  20.615   8.597
  850POPC   D2A15724  30.401  20.715   8.124
  850POPC   C3A15725  30.377  20.449   7.754
  850POPC   C4A15726  30.672  20.563   7.401
  850POPC   C1B15727  30.968  20.471   8.705
  850POPC   C2B15728  30.863  20.573   8.309
  850POPC   C3B15729  30.857  20.500   7.916
  850POPC   C4B15730  31.131  20.424   7.613
  851POPC   NC315731  19.226   9.652   9.367
  851POPC   PO415732  19.536  10.263   9.464
  851POPC   GL115733  19.432  10.046   9.113
  851POPC   GL215734  19.085  10.064   9.102
  851POPC   C1A15735  19.391   9.923   8.674
  851POPC   D2A15736  19.434  10.107   8.278
  851POPC   C3A15737  19.223   9.993   7.921
  851POPC   C4A15738  19.194   9.556   7.794
  851POPC   C1B15739  18.889   9.949   8.731
  851POPC   C2B15740  18.951   9.782   8.310
  851POPC   C3B15741  18.756   9.766   7.894
  851POPC   C4B15742  18.828   9.784   7.471
  852POPC   NC315743  23.582  21.311   9.543
  852POPC   PO415744  24.129  21.212   9.212
  852POPC   GL115745  23.806  21.513   9.117
  852POPC   GL215746  23.390  21.520   9.122
  852POPC   C1A15747  23.673  21.585   8.721
  852POPC   D2A15748  23.791  21.689   8.359
  852POPC   C3A15749  23.667  21.428   8.078
  852POPC   C4A15750  23.755  21.426   7.678
  852POPC   C1B15751  23.219  21.340   8.735
  852POPC   C2B15752  23.226  21.232   8.273
  852POPC   C3B15753  23.307  21.141   7.817
  852POPC   C4B15754  23.462  21.161   7.363
  853POPC   NC315755  44.819  39.655   9.456
  853POPC   PO415756  44.344  39.186   9.644
  853POPC   GL115757  44.417  39.379   9.246
  853POPC   GL215758  44.745  39.258   9.133
  853POPC   C1A15759  44.391  39.294   8.800
  853POPC   D2A15760  44.666  39.243   8.440
  853POPC   C3A15761  44.457  39.210   8.037
  853POPC   C4A15762  44.488  39.208   7.587
  853POPC   C1B15763   0.056  39.305   8.819
  853POPC   C2B15764   0.168  39.449   8.433
  853POPC   C3B15765  44.941  39.435   8.037
  853POPC   C4B15766  44.988  39.272   7.629
  854POPC   NC315767  32.495   4.014  10.042
  854POPC   PO415768  33.021   3.692   9.671
  854POPC   GL115769  33.054   3.622   9.256
  854POPC   GL215770  33.380   3.736   9.235
  854POPC   C1A15771  32.846   3.554   8.846
  854POPC   D2A15772  32.629   3.756   8.509
  854POPC   C3A15773  32.670   3.584   8.101
  854POPC   C4A15774  32.849   3.755   7.735
  854POPC   C1B15775  33.374   3.593   8.825
  854POPC   C2B15776  33.177   3.661   8.442
  854POPC   C3B15777  33.195   3.555   8.018
  854POPC   C4B15778  33.379   3.814   7.684
  855POPC   NC315779   5.164  19.646   9.470
  855POPC   PO415780   5.125  20.238   9.688
  855POPC   GL115781   5.132  20.073   9.204
  855POPC   GL215782   4.872  19.779   9.068
  855POPC   C1A15783   5.291  19.844   8.806
  855POPC   D2A15784   5.274  19.633   8.375
  855POPC   C3A15785   5.127  19.885   7.993
  855POPC   C4A15786   5.086  19.963   7.561
  855POPC   C1B15787   4.811  19.794   8.601
  855POPC   C2B15788   4.661  19.723   8.158
  855POPC   C3B15789   4.676  19.695   7.701
  855POPC   C4B15790   4.834  19.648   7.246
  856POPC   NC315791  31.977  32.153   9.472
  856POPC   PO415792  32.434  32.721   9.544
  856POPC   GL115793  32.289  32.503   9.179
  856POPC   GL215794  31.920  32.545   9.100
  856POPC   C1A15795  32.416  32.288   8.795
  856POPC   D2A15796  32.219  32.345   8.431
  856POPC   C3A15797  32.373  32.075   8.114
  856POPC   C4A15798  32.546  32.158   7.720
  856POPC   C1B15799  31.928  32.162   8.827
  856POPC   C2B15800  31.782  32.083   8.380
  856POPC   C3B15801  31.928  32.333   8.015
  856POPC   C4B15802  32.041  32.130   7.649
  857POPC   NC315803   3.745   5.800   9.539
  857POPC   PO415804   3.299   5.361   9.475
  857POPC   GL115805   3.338   5.572   9.068
  857POPC   GL215806   3.608   5.786   9.046
  857POPC   C1A15807   3.405   5.500   8.621
  857POPC   D2A15808   3.270   5.785   8.291
  857POPC   C3A15809   3.422   5.812   7.912
  857POPC   C4A15810   3.338   6.168   7.702
  857POPC   C1B15811   3.433   5.994   8.727
  857POPC   C2B15812   3.664   6.142   8.416
  857POPC   C3B15813   3.720   6.216   8.034
  857POPC   C4B15814   3.840   6.006   7.681
  858POPC   NC315815  29.350  39.859   9.463
  858POPC   PO415816  28.947  40.322   9.484
  858POPC   GL115817  29.110  40.138   9.081
  858POPC   GL215818  29.109  39.742   9.032
  858POPC   C1A15819  28.997  40.031   8.639
  858POPC   D2A15820  29.200  39.691   8.414
  858POPC   C3A15821  29.354  39.915   8.075
  858POPC   C4A15822  29.114  40.130   7.760
  858POPC   C1B15823  28.802  39.545   8.729
  858POPC   C2B15824  28.669  39.737   8.323
  858POPC   C3B15825  28.899  39.673   7.945
  858POPC   C4B15826  29.252  39.642   7.656
  859POPC   NC315827  39.909  38.596   9.387
  859POPC   PO415828  39.627  38.279   8.960
  859POPC   GL115829  40.071  38.265   8.894
  859POPC   GL215830  40.285  38.480   9.051
  859POPC   C1A15831  40.267  38.405   8.511
  859POPC   D2A15832  40.265  38.253   8.105
  859POPC   C3A15833  39.876  38.331   7.845
  859POPC   C4A15834  39.640  38.432   7.455
  859POPC   C1B15835  40.130  38.828   8.788
  859POPC   C2B15836  40.061  38.847   8.348
  859POPC   C3B15837  40.178  38.724   7.955
  859POPC   C4B15838  40.411  38.892   7.638
  860POPC   NC315839   5.433  13.123   9.515
  860POPC   PO415840   5.076  13.710   9.463
  860POPC   GL115841   4.855  13.733   9.081
  860POPC   GL215842   5.060  13.434   9.021
  860POPC   C1A15843   4.870  13.659   8.617
  860POPC   D2A15844   5.039  13.415   8.257
  860POPC   C3A15845   4.998  13.501   7.827
  860POPC   C4A15846   4.928  13.707   7.421
  860POPC   C1B15847   5.338  13.436   8.654
  860POPC   C2B15848   5.525  13.253   8.252
  860POPC   C3B15849   5.349  13.098   7.817
  860POPC   C4B15850   5.125  13.237   7.412
  861POPC   NC315851  41.351  30.838   9.514
  861POPC   PO415852  41.411  30.197   9.704
  861POPC   GL115853  41.517  30.432   9.259
  861POPC   GL215854  41.249  30.634   9.053
  861POPC   C1A15855  41.744  30.608   8.870
  861POPC   D2A15856  41.844  30.506   8.407
  861POPC   C3A15857  41.644  30.688   8.052
  861POPC   C4A15858  41.475  31.016   7.850
  861POPC   C1B15859  41.348  30.868   8.652
  861POPC   C2B15860  41.163  30.849   8.238
  861POPC   C3B15861  41.154  30.522   7.954
  861POPC   C4B15862  41.410  30.272   7.663
  862POPC   NC315863   1.913  24.368   9.444
  862POPC   PO415864   2.212  25.024   9.415
  862POPC   GL115865   2.062  24.751   9.094
  862POPC   GL215866   2.252  24.456   9.083
  862POPC   C1A15867   1.943  24.566   8.699
  862POPC   D2A15868   1.722  24.637   8.329
  862POPC   C3A15869   1.876  24.409   7.990
  862POPC   C4A15870   2.122  24.471   7.656
  862POPC   C1B15871   2.263  24.156   8.752
  862POPC   C2B15872   2.410  24.162   8.302
  862POPC   C3B15873   2.254  24.036   7.868
  862POPC   C4B15874   2.415  24.096   7.442
  863POPC   NC315875   3.825   3.204   9.490
  863POPC   PO415876   3.441   3.754   9.761
  863POPC   GL115877   3.364   3.470   9.386
  863POPC   GL215878   3.664   3.602   9.208
  863POPC   C1A15879   3.410   3.248   8.952
  863POPC   D2A15880   3.532   3.332   8.507
  863POPC   C3A15881   3.414   3.254   8.075
  863POPC   C4A15882   3.276   3.627   7.823
  863POPC   C1B15883   3.912   3.504   8.822
  863POPC   C2B15884   3.913   3.663   8.382
  863POPC   C3B15885   3.805   3.572   7.950
  863POPC   C4B15886   3.891   3.274   7.641
  864POPC   NC315887  38.010   8.435   9.450
  864POPC   PO415888  37.367   8.575   9.729
  864POPC   GL115889  37.493   8.353   9.332
  864POPC   GL215890  37.705   8.076   9.241
  864POPC   C1A15891  37.472   8.379   8.860
  864POPC   D2A15892  37.489   8.102   8.452
  864POPC   C3A15893  37.563   8.278   8.031
  864POPC   C4A15894  37.839   8.621   8.019
  864POPC   C1B15895  37.890   8.089   8.794
  864POPC   C2B15896  37.977   8.057   8.307
  864POPC   C3B15897  38.053   8.156   7.857
  864POPC   C4B15898  38.017   7.929   7.446
  865POPC   NC315899   2.767  35.679   9.500
  865POPC   PO415900   2.858  35.004   9.524
  865POPC   GL115901   2.899  35.313   9.171
  865POPC   GL215902   2.533  35.443   9.080
  865POPC   C1A15903   2.914  35.462   8.741
  865POPC   D2A15904   2.628  35.202   8.514
  865POPC   C3A15905   2.453  35.211   8.109
  865POPC   C4A15906   2.699  35.319   7.770
  865POPC   C1B15907   2.472  35.702   8.681
  865POPC   C2B15908   2.616  35.694   8.231
  865POPC   C3B15909   2.635  35.857   7.791
  865POPC   C4B15910   2.540  35.619   7.412
  866POPC   NC315911  16.455  22.790   9.497
  866POPC   PO415912  17.054  23.046   9.538
  866POPC   GL115913  16.832  22.955   9.130
  866POPC   GL215914  16.485  23.054   9.056
  866POPC   C1A15915  16.796  22.654   8.775
  866POPC   D2A15916  16.652  22.539   8.339
  866POPC   C3A15917  16.667  22.793   7.954
  866POPC   C4A15918  16.650  23.236   7.850
  866POPC   C1B15919  16.391  22.913   8.654
  866POPC   C2B15920  16.209  22.813   8.261
  866POPC   C3B15921  16.211  23.018   7.870
  866POPC   C4B15922  16.452  22.885   7.460
  867POPC   NC315923  28.339  19.464   9.468
  867POPC   PO415924  28.819  20.027   9.479
  867POPC   GL115925  28.473  20.002   9.196
  867POPC   GL215926  28.112  20.100   9.289
  867POPC   C1A15927  28.459  19.810   8.805
  867POPC   D2A15928  28.223  19.852   8.456
  867POPC   C3A15929  28.461  19.787   8.105
  867POPC   C4A15930  28.297  19.789   7.720
  867POPC   C1B15931  28.103  20.212   8.843
  867POPC   C2B15932  28.186  20.363   8.410
  867POPC   C3B15933  28.099  20.173   8.013
  867POPC   C4B15934  28.130  20.259   7.560
  868POPC   NC315935  26.916  13.824   9.483
  868POPC   PO415936  27.169  13.202   9.360
  868POPC   GL115937  26.933  13.433   9.108
  868POPC   GL215938  27.179  13.671   9.076
  868POPC   C1A15939  26.686  13.399   8.743
  868POPC   D2A15940  26.639  13.579   8.356
  868POPC   C3A15941  26.763  13.414   8.000
  868POPC   C4A15942  26.517  13.419   7.661
  868POPC   C1B15943  27.229  13.746   8.662
  868POPC   C2B15944  27.194  13.607   8.275
  868POPC   C3B15945  27.138  13.755   7.894
  868POPC   C4B15946  26.892  13.748   7.568
  869POPC   NC315947  43.423   3.279   9.568
  869POPC   PO415948  42.992   2.719   9.460
  869POPC   GL115949  42.905   2.938   9.109
  869POPC   GL215950  42.556   3.034   9.114
  869POPC   C1A15951  43.090   2.814   8.730
  869POPC   D2A15952  43.117   2.967   8.338
  869POPC   C3A15953  43.064   2.799   7.952
  869POPC   C4A15954  43.078   2.951   7.523
  869POPC   C1B15955  42.581   2.663   8.830
  869POPC   C2B15956  42.793   2.479   8.468
  869POPC   C3B15957  42.662   2.504   8.057
  869POPC   C4B15958  42.715   2.613   7.637
  870POPC   NC315959  25.098  15.460   9.480
  870POPC   PO415960  25.388  14.855   9.446
  870POPC   GL115961  25.373  15.224   9.117
  870POPC   GL215962  25.640  15.477   9.214
  870POPC   C1A15963  25.125  15.450   8.767
  870POPC   D2A15964  24.946  15.536   8.341
  870POPC   C3A15965  25.111  15.380   7.978
  870POPC   C4A15966  25.401  15.113   7.833
  870POPC   C1B15967  25.626  15.601   8.792
  870POPC   C2B15968  25.460  15.572   8.379
  870POPC   C3B15969  25.572  15.610   7.956
  870POPC   C4B15970  25.320  15.670   7.593
  871POPC   NC315971  29.604  21.764   9.492
  871POPC   PO415972  30.043  22.212   9.630
  871POPC   GL115973  30.039  22.282   9.207
  871POPC   GL215974  29.717  22.454   9.180
  871POPC   C1A15975  29.964  21.994   8.872
  871POPC   D2A15976  29.850  22.091   8.445
  871POPC   C3A15977  30.120  22.051   8.121
  871POPC   C4A15978  30.096  21.827   7.741
  871POPC   C1B15979  29.859  22.490   8.761
  871POPC   C2B15980  29.700  22.600   8.346
  871POPC   C3B15981  29.556  22.498   7.931
  871POPC   C4B15982  29.849  22.290   7.645
  872POPC   NC315983  14.644  20.090   9.352
  872POPC   PO415984  14.074  19.726   9.514
  872POPC   GL115985  14.245  19.849   9.132
  872POPC   GL215986  14.550  19.638   9.112
  872POPC   C1A15987  14.399  19.985   8.733
  872POPC   D2A15988  14.346  19.715   8.354
  872POPC   C3A15989  14.298  19.905   7.948
  872POPC   C4A15990  14.210  20.253   7.754
  872POPC   C1B15991  14.837  19.718   8.767
  872POPC   C2B15992  14.941  19.834   8.378
  872POPC   C3B15993  14.760  19.716   8.048
  872POPC   C4B15994  14.731  19.852   7.643
  873POPC   NC315995  20.814  28.258   9.591
  873POPC   PO415996  20.250  28.579   9.659
  873POPC   GL115997  20.493  28.493   9.249
  873POPC   GL215998  20.825  28.628   9.189
  873POPC   C1A15999  20.659  28.205   8.919
  873POPC   D2A16000  20.861  28.183   8.517
  873POPC   C3A16001  20.719  27.897   8.189
  873POPC   C4A16002  20.593  28.051   7.770
  873POPC   C1B16003  20.661  28.672   8.741
  873POPC   C2B16004  20.616  28.599   8.290
  873POPC   C3B16005  20.668  28.568   7.837
  873POPC   C4B16006  20.716  28.786   7.420
  874POPC   NC316007  43.315   8.403   9.438
  874POPC   PO416008  42.886   7.889   9.467
  874POPC   GL116009  43.085   8.040   9.115
  874POPC   GL216010  42.919   8.368   9.123
  874POPC   C1A16011  43.262   8.234   8.740
  874POPC   D2A16012  43.407   8.514   8.401
  874POPC   C3A16013  43.296   8.366   7.985
  874POPC   C4A16014  43.136   7.941   7.903
  874POPC   C1B16015  42.758   8.262   8.732
  874POPC   C2B16016  42.940   8.186   8.315
  874POPC   C3B16017  42.790   8.390   7.898
  874POPC   C4B16018  42.776   8.530   7.442
  875POPC   NC316019  32.045  27.696   9.302
  875POPC   PO416020  31.430  27.636   9.526
  875POPC   GL116021  31.514  27.878   9.153
  875POPC   GL216022  31.663  27.594   8.980
  875POPC   C1A16023  31.330  27.896   8.741
  875POPC   D2A16024  31.522  27.587   8.451
  875POPC   C3A16025  31.508  27.706   8.028
  875POPC   C4A16026  31.284  28.043   7.877
  875POPC   C1B16027  31.847  27.916   8.720
  875POPC   C2B16028  32.022  27.818   8.344
  875POPC   C3B16029  31.919  27.416   8.169
  875POPC   C4B16030  31.748  27.326   7.788
  876POPC   NC316031  40.594  10.708   9.317
  876POPC   PO416032  41.172  10.476   9.554
  876POPC   GL116033  41.035  10.577   9.122
  876POPC   GL216034  40.797  10.322   9.068
  876POPC   C1A16035  40.907  10.691   8.698
  876POPC   D2A16036  40.934  10.836   8.272
  876POPC   C3A16037  40.811  10.555   7.967
  876POPC   C4A16038  40.749  10.798   7.620
  876POPC   C1B16039  40.603  10.266   8.662
  876POPC   C2B16040  40.611  10.042   8.259
  876POPC   C3B16041  40.448  10.163   7.846
  876POPC   C4B16042  40.651  10.338   7.465
  877POPC   NC316043   4.541  26.782   9.467
  877POPC   PO416044   4.008  27.151   9.414
  877POPC   GL116045   4.289  27.046   9.103
  877POPC   GL216046   4.597  27.240   9.166
  877POPC   C1A16047   4.301  26.862   8.676
  877POPC   D2A16048   4.050  26.896   8.287
  877POPC   C3A16049   4.181  26.512   8.041
  877POPC   C4A16050   4.540  26.470   7.785
  877POPC   C1B16051   4.401  27.350   8.725
  877POPC   C2B16052   4.476  27.211   8.269
  877POPC   C3B16053   4.326  26.981   7.853
  877POPC   C4B16054   4.323  27.071   7.345
  878POPC   NC316055   5.799  43.148   9.630
  878POPC   PO416056   6.383  42.949   9.454
  878POPC   GL116057   6.192  43.165   9.124
  878POPC   GL216058   5.831  43.250   9.143
  878POPC   C1A16059   6.138  43.035   8.666
  878POPC   D2A16060   5.826  43.150   8.337
  878POPC   C3A16061   5.894  43.048   7.877
  878POPC   C4A16062   6.225  42.862   7.565
  878POPC   C1B16063   5.562  43.095   8.813
  878POPC   C2B16064   5.320  43.187   8.445
  878POPC   C3B16065   5.456  43.432   8.090
  878POPC   C4B16066   5.580  43.408   7.669
  879POPC   NC316067  32.566  33.185   9.559
  879POPC   PO416068  31.849  33.347   9.518
  879POPC   GL116069  32.062  33.089   9.158
  879POPC   GL216070  32.404  33.061   9.107
  879POPC   C1A16071  32.137  33.152   8.694
  879POPC   D2A16072  32.155  32.885   8.341
  879POPC   C3A16073  32.247  33.105   7.955
  879POPC   C4A16074  32.428  33.300   7.561
  879POPC   C1B16075  32.488  32.787   8.776
  879POPC   C2B16076  32.628  32.651   8.382
  879POPC   C3B16077  32.415  32.585   8.006
  879POPC   C4B16078  32.400  32.660   7.594
  880POPC   NC316079  38.392  25.699   9.502
  880POPC   PO416080  38.034  26.248   9.768
  880POPC   GL116081  38.145  26.113   9.328
  880POPC   GL216082  38.495  26.156   9.205
  880POPC   C1A16083  38.145  26.081   8.842
  880POPC   D2A16084  38.396  26.167   8.428
  880POPC   C3A16085  38.185  26.176   8.013
  880POPC   C4A16086  38.187  26.370   7.614
  880POPC   C1B16087  38.648  25.908   8.824
  880POPC   C2B16088  38.582  25.692   8.395
  880POPC   C3B16089  38.602  25.860   7.951
  880POPC   C4B16090  38.653  25.813   7.484
  881POPC   NC316091  16.186  43.857   9.597
  881POPC   PO416092  15.718  44.181   9.321
  881POPC   GL116093  16.005  43.842   9.135
  881POPC   GL216094  16.364  43.915   9.109
  881POPC   C1A16095  16.124  43.604   8.743
  881POPC   D2A16096  15.789  43.536   8.397
  881POPC   C3A16097  15.855  43.473   7.963
  881POPC   C4A16098  15.881  43.706   7.590
  881POPC   C1B16099  16.198  44.094   8.715
  881POPC   C2B16100  16.077  43.976   8.278
  881POPC   C3B16101  16.043  44.105   7.853
  881POPC   C4B16102  16.046  44.111   7.329
  882POPC   NC316103  27.383  12.809   9.532
  882POPC   PO416104  27.892  13.249   9.580
  882POPC   GL116105  27.871  12.979   9.183
  882POPC   GL216106  27.495  12.897   9.066
  882POPC   C1A16107  27.827  12.999   8.714
  882POPC   D2A16108  27.822  12.719   8.352
  882POPC   C3A16109  27.760  12.913   7.928
  882POPC   C4A16110  27.537  12.993   7.510
  882POPC   C1B16111  27.395  12.692   8.684
  882POPC   C2B16112  27.325  12.765   8.246
  882POPC   C3B16113  27.342  12.626   7.828
  882POPC   C4B16114  27.121  12.710   7.443
  883POPC   NC316115  41.858   1.031   9.367
  883POPC   PO416116  41.183   1.238   9.438
  883POPC   GL116117  41.417   1.166   9.115
  883POPC   GL216118  41.555   1.506   9.133
  883POPC   C1A16119  41.418   0.898   8.759
  883POPC   D2A16120  41.609   0.834   8.382
  883POPC   C3A16121  41.381   0.860   8.022
  883POPC   C4A16122  41.447   1.063   7.639
  883POPC   C1B16123  41.795   1.479   8.757
  883POPC   C2B16124  41.949   1.221   8.420
  883POPC   C3B16125  41.829   1.164   7.990
  883POPC   C4B16126  41.680   1.499   7.748
  884POPC   NC316127  22.817   7.946   9.431
  884POPC   PO416128  22.680   8.672   9.513
  884POPC   GL116129  22.571   8.381   9.166
  884POPC   GL216130  22.892   8.220   9.007
  884POPC   C1A16131  22.462   8.276   8.719
  884POPC   D2A16132  22.850   8.161   8.474
  884POPC   C3A16133  22.930   8.226   8.061
  884POPC   C4A16134  22.833   8.343   7.658
  884POPC   C1B16135  22.724   7.818   8.815
  884POPC   C2B16136  22.813   7.650   8.439
  884POPC   C3B16137  22.947   7.718   8.038
  884POPC   C4B16138  23.041   7.848   7.641
  885POPC   NC316139   3.801  27.394   9.744
  885POPC   PO416140   3.197  27.664   9.691
  885POPC   GL116141   3.365  27.633   9.115
  885POPC   GL216142   3.676  27.518   9.199
  885POPC   C1A16143   3.487  27.723   8.710
  885POPC   D2A16144   3.244  28.004   8.422
  885POPC   C3A16145   3.418  27.944   8.018
  885POPC   C4A16146   3.264  27.890   7.600
  885POPC   C1B16147   3.830  27.289   8.811
  885POPC   C2B16148   3.601  27.145   8.440
  885POPC   C3B16149   3.552  27.152   8.013
  885POPC   C4B16150   3.603  27.513   7.718
  886POPC   NC316151   3.255  43.940   9.644
  886POPC   PO416152   2.755  43.662   9.500
  886POPC   GL116153   2.643  43.745   9.093
  886POPC   GL216154   2.606  44.122   9.109
  886POPC   C1A16155   2.783  43.603   8.673
  886POPC   D2A16156   3.084  43.535   8.307
  886POPC   C3A16157   2.916  43.737   7.947
  886POPC   C4A16158   2.670  43.625   7.579
  886POPC   C1B16159   2.439  44.009   8.699
  886POPC   C2B16160   2.481  43.799   8.281
  886POPC   C3B16161   2.417  43.946   7.852
  886POPC   C4B16162   2.496  44.115   7.403
  887POPC   NC316163   1.359  39.551   9.514
  887POPC   PO416164   1.050  40.121   9.592
  887POPC   GL116165   1.177  40.220   9.178
  887POPC   GL216166   1.533  40.178   9.290
  887POPC   C1A16167   1.157  40.191   8.702
  887POPC   D2A16168   1.056  39.977   8.296
  887POPC   C3A16169   1.060  40.108   7.834
  887POPC   C4A16170   1.047  40.402   7.456
  887POPC   C1B16171   1.503  39.873   8.946
  887POPC   C2B16172   1.528  39.840   8.501
  887POPC   C3B16173   1.505  40.112   8.131
  887POPC   C4B16174   1.617  40.057   7.708
  888POPC   NC316175  24.698   7.576   9.799
  888POPC   PO416176  24.342   8.132   9.519
  888POPC   GL116177  24.538   8.270   9.175
  888POPC   GL216178  24.236   8.488   9.152
  888POPC   C1A16179  24.626   8.345   8.748
  888POPC   D2A16180  24.704   8.100   8.359
  888POPC   C3A16181  24.677   8.342   7.945
  888POPC   C4A16182  24.571   8.356   7.484
  888POPC   C1B16183  24.123   8.158   8.890
  888POPC   C2B16184  24.187   8.095   8.484
  888POPC   C3B16185  24.282   8.034   8.084
  888POPC   C4B16186  24.150   8.232   7.729
  889POPC   NC316187   8.636  19.060   9.296
  889POPC   PO416188   9.189  18.653   9.261
  889POPC   GL116189   9.208  19.137   9.119
  889POPC   GL216190   8.944  19.020   8.916
  889POPC   C1A16191   9.184  19.346   8.651
  889POPC   D2A16192   9.140  18.960   8.405
  889POPC   C3A16193   8.811  18.901   8.115
  889POPC   C4A16194   8.811  19.064   7.719
  889POPC   C1B16195   8.665  19.163   8.596
  889POPC   C2B16196   8.794  19.391   8.248
  889POPC   C3B16197   9.020  19.503   7.905
  889POPC   C4B16198   9.010  19.439   7.456
  890POPC   NC316199  37.135   3.736   9.493
  890POPC   PO416200  36.572   3.394   9.395
  890POPC   GL116201  36.807   3.679   9.121
  890POPC   GL216202  37.050   3.402   9.098
  890POPC   C1A16203  36.807   3.667   8.690
  890POPC   D2A16204  36.583   3.324   8.466
  890POPC   C3A16205  36.715   3.353   8.038
  890POPC   C4A16206  36.796   3.782   7.857
  890POPC   C1B16207  37.279   3.469   8.714
  890POPC   C2B16208  37.125   3.555   8.276
  890POPC   C3B16209  37.186   3.450   7.837
  890POPC   C4B16210  37.106   3.205   7.467
  891POPC   NC316211   5.224  42.563   9.522
  891POPC   PO416212   5.038  41.990   9.623
  891POPC   GL116213   4.976  42.185   9.234
  891POPC   GL216214   5.293  42.182   9.138
  891POPC   C1A16215   4.861  42.241   8.801
  891POPC   D2A16216   4.959  42.317   8.385
  891POPC   C3A16217   4.890  42.044   8.010
  891POPC   C4A16218   4.732  42.209   7.614
  891POPC   C1B16219   5.311  42.515   8.832
  891POPC   C2B16220   5.380  42.612   8.398
  891POPC   C3B16221   5.302  42.409   8.003
  891POPC   C4B16222   5.598  42.123   7.861
  892POPC   NC316223  23.105   9.860   9.746
  892POPC   PO416224  22.598   9.606   9.359
  892POPC   GL116225  22.908   9.767   9.106
  892POPC   GL216226  23.121  10.004   9.248
  892POPC   C1A16227  22.912   9.781   8.688
  892POPC   D2A16228  23.055   9.618   8.313
  892POPC   C3A16229  22.858   9.628   7.880
  892POPC   C4A16230  22.804   9.529   7.397
  892POPC   C1B16231  23.193  10.174   8.819
  892POPC   C2B16232  23.133  10.197   8.370
  892POPC   C3B16233  23.220   9.979   7.987
  892POPC   C4B16234  23.068   9.989   7.577
  893POPC   NC316235   6.915  18.729   9.316
  893POPC   PO416236   6.343  18.833   9.492
  893POPC   GL116237   6.494  19.028   9.124
  893POPC   GL216238   6.778  19.208   9.146
  893POPC   C1A16239   6.629  18.896   8.708
  893POPC   D2A16240   6.443  18.882   8.312
  893POPC   C3A16241   6.721  18.935   7.963
  893POPC   C4A16242   7.048  18.717   7.816
  893POPC   C1B16243   6.637  19.394   8.760
  893POPC   C2B16244   6.768  19.308   8.358
  893POPC   C3B16245   6.715  19.493   7.979
  893POPC   C4B16246   6.729  19.382   7.536
  894POPC   NC316247  16.268  42.514   9.518
  894POPC   PO416248  16.794  42.126   9.460
  894POPC   GL116249  16.714  42.141   9.046
  894POPC   GL216250  16.817  42.468   9.066
  894POPC   C1A16251  16.750  42.213   8.575
  894POPC   D2A16252  16.984  42.433   8.254
  894POPC   C3A16253  16.876  42.330   7.816
  894POPC   C4A16254  16.610  42.111   7.489
  894POPC   C1B16255  16.459  42.558   8.839
  894POPC   C2B16256  16.590  42.751   8.472
  894POPC   C3B16257  16.643  42.770   8.040
  894POPC   C4B16258  16.443  42.590   7.694
  895POPC   NC316259  41.820  12.419   9.535
  895POPC   PO416260  41.304  13.023   9.505
  895POPC   GL116261  41.494  12.846   9.130
  895POPC   GL216262  41.484  12.493   9.159
  895POPC   C1A16263  41.456  12.996   8.710
  895POPC   D2A16264  41.291  13.322   8.428
  895POPC   C3A16265  41.552  13.194   8.111
  895POPC   C4A16266  41.617  12.880   7.792
  895POPC   C1B16267  41.589  12.504   8.732
  895POPC   C2B16268  41.583  12.665   8.299
  895POPC   C3B16269  41.302  12.522   7.940
  895POPC   C4B16270  41.419  12.502   7.483
  896POPC   NC316271   0.422  30.074   9.663
  896POPC   PO416272   0.167  29.466   9.458
  896POPC   GL116273   0.440  29.814   9.209
  896POPC   GL216274   0.749  30.039   9.238
  896POPC   C1A16275   0.416  30.147   8.869
  896POPC   D2A16276   0.228  30.034   8.485
  896POPC   C3A16277   0.284  30.151   8.088
  896POPC   C4A16278   0.371  29.943   7.739
  896POPC   C1B16279   0.909  29.987   8.788
  896POPC   C2B16280   0.724  30.161   8.403
  896POPC   C3B16281   0.833  30.047   7.947
  896POPC   C4B16282   0.907  30.031   7.466
  897POPC   NC316283  34.640  34.044   9.259
  897POPC   PO416284  34.800  33.444   9.545
  897POPC   GL116285  34.562  33.526   9.189
  897POPC   GL216286  34.217  33.679   9.198
  897POPC   C1A16287  34.529  33.650   8.759
  897POPC   D2A16288  34.316  33.687   8.397
  897POPC   C3A16289  34.628  33.669   8.082
  897POPC   C4A16290  34.451  33.474   7.734
  897POPC   C1B16291  34.113  33.968   8.814
  897POPC   C2B16292  34.293  34.212   8.451
  897POPC   C3B16293  34.299  34.044   8.026
  897POPC   C4B16294  34.182  34.150   7.642
  898POPC   NC316295  33.008  15.442   9.531
  898POPC   PO416296  32.645  14.917   9.775
  898POPC   GL116297  33.090  14.959   9.393
  898POPC   GL216298  33.349  14.843   9.185
  898POPC   C1A16299  33.040  15.037   8.865
  898POPC   D2A16300  33.051  15.362   8.550
  898POPC   C3A16301  32.892  15.286   8.140
  898POPC   C4A16302  32.919  15.459   7.741
  898POPC   C1B16303  33.436  14.725   8.792
  898POPC   C2B16304  33.300  14.927   8.431
  898POPC   C3B16305  33.322  14.969   8.027
  898POPC   C4B16306  33.041  14.954   7.668
  899POPC   NC316307   7.770  31.108   9.511
  899POPC   PO416308   7.393  31.712   9.480
  899POPC   GL116309   7.536  31.613   9.105
  899POPC   GL216310   7.864  31.541   9.163
  899POPC   C1A16311   7.385  31.649   8.678
  899POPC   D2A16312   7.197  31.402   8.350
  899POPC   C3A16313   7.343  31.568   7.958
  899POPC   C4A16314   7.261  31.496   7.532
  899POPC   C1B16315   7.778  31.313   8.756
  899POPC   C2B16316   7.730  31.417   8.302
  899POPC   C3B16317   7.797  31.329   7.854
  899POPC   C4B16318   7.770  31.568   7.481
  900POPC   NC316319   9.804  16.303   9.587
  900POPC   PO416320   9.574  16.964   9.533
  900POPC   GL116321   9.783  16.828   9.172
  900POPC   GL216322   9.595  16.709   8.908
  900POPC   C1A16323   9.919  17.080   8.825
  900POPC   D2A16324   9.831  16.914   8.430
  900POPC   C3A16325  10.182  16.947   8.157
  900POPC   C4A16326  10.131  17.003   7.733
  900POPC   C1B16327   9.811  16.370   8.704
  900POPC   C2B16328  10.011  16.448   8.291
  900POPC   C3B16329   9.810  16.648   7.934
  900POPC   C4B16330   9.893  16.612   7.491
  901POPC   NC316331  34.493  17.629   9.681
  901POPC   PO416332  34.762  17.130   9.346
  901POPC   GL116333  34.495  17.449   9.172
  901POPC   GL216334  34.608  17.796   9.150
  901POPC   C1A16335  34.534  17.490   8.734
  901POPC   D2A16336  34.536  17.237   8.368
  901POPC   C3A16337  34.530  17.422   7.987
  901POPC   C4A16338  34.302  17.430   7.637
  901POPC   C1B16339  34.659  18.005   8.740
  901POPC   C2B16340  34.550  17.821   8.332
  901POPC   C3B16341  34.438  17.923   7.914
  901POPC   C4B16342  34.480  17.872   7.482
  902POPC   NC316343  12.588  21.472   9.410
  902POPC   PO416344  13.223  21.432   9.458
  902POPC   GL116345  12.938  21.180   9.140
  902POPC   GL216346  12.588  20.999   9.112
  902POPC   C1A16347  12.755  21.283   8.728
  902POPC   D2A16348  12.981  21.306   8.355
  902POPC   C3A16349  12.757  21.373   7.994
  902POPC   C4A16350  12.953  21.509   7.616
  902POPC   C1B16351  12.310  21.018   8.725
  902POPC   C2B16352  12.547  20.968   8.322
  902POPC   C3B16353  12.920  20.893   8.037
  902POPC   C4B16354  12.801  21.012   7.632
  903POPC   NC316355  41.938  31.480   9.402
  903POPC   PO416356  42.554  31.205   9.440
  903POPC   GL116357  42.636  31.410   9.102
  903POPC   GL216358  42.275  31.350   9.019
  903POPC   C1A16359  42.590  31.588   8.719
  903POPC   D2A16360  42.358  31.434   8.392
  903POPC   C3A16361  42.538  31.540   8.022
  903POPC   C4A16362  42.775  31.483   7.618
  903POPC   C1B16363  42.044  31.617   8.752
  903POPC   C2B16364  41.888  31.607   8.344
  903POPC   C3B16365  42.069  31.738   7.945
  903POPC   C4B16366  42.247  31.504   7.599
  904POPC   NC316367  34.797  23.962   9.482
  904POPC   PO416368  34.423  23.371   9.342
  904POPC   GL116369  34.618  23.597   9.072
  904POPC   GL216370  34.452  23.914   9.094
  904POPC   C1A16371  34.714  23.521   8.648
  904POPC   D2A16372  34.557  23.752   8.324
  904POPC   C3A16373  34.499  23.698   7.923
  904POPC   C4A16374  34.859  23.788   7.732
  904POPC   C1B16375  34.547  24.101   8.708
  904POPC   C2B16376  34.332  24.193   8.301
  904POPC   C3B16377  34.473  24.210   7.882
  904POPC   C4B16378  34.387  24.278   7.445
  905POPC   NC316379  21.112  29.456   9.456
  905POPC   PO416380  21.676  29.123   9.468
  905POPC   GL116381  21.509  29.037   9.109
  905POPC   GL216382  21.191  28.995   9.245
  905POPC   C1A16383  21.378  29.273   8.734
  905POPC   D2A16384  21.413  29.050   8.333
  905POPC   C3A16385  21.268  29.217   7.935
  905POPC   C4A16386  21.071  29.140   7.530
  905POPC   C1B16387  21.114  28.863   8.832
  905POPC   C2B16388  21.126  28.626   8.475
  905POPC   C3B16389  21.091  28.725   8.070
  905POPC   C4B16390  21.152  28.661   7.659
  906POPC   NC316391  14.339  36.663   9.542
  906POPC   PO416392  14.221  37.248   9.612
  906POPC   GL116393  14.384  37.083   9.182
  906POPC   GL216394  14.578  36.762   9.115
  906POPC   C1A16395  14.221  36.874   8.781
  906POPC   D2A16396  14.349  36.857   8.347
  906POPC   C3A16397  14.085  36.886   7.991
  906POPC   C4A16398  14.123  37.204   7.682
  906POPC   C1B16399  14.633  36.506   8.750
  906POPC   C2B16400  14.508  36.364   8.352
  906POPC   C3B16401  14.462  36.540   7.954
  906POPC   C4B16402  14.739  36.706   7.697
  907POPC   NC316403  37.913  20.909   9.595
  907POPC   PO416404  37.330  20.548   9.591
  907POPC   GL116405  37.471  20.687   9.162
  907POPC   GL216406  37.810  20.765   9.098
  907POPC   C1A16407  37.495  20.626   8.683
  907POPC   D2A16408  37.699  20.850   8.307
  907POPC   C3A16409  37.597  20.596   7.939
  907POPC   C4A16410  37.343  20.234   7.971
  907POPC   C1B16411  38.010  20.609   8.709
  907POPC   C2B16412  38.058  20.487   8.270
  907POPC   C3B16413  38.072  20.742   7.908
  907POPC   C4B16414  37.873  20.915   7.551
  908POPC   NC316415   3.004  23.771   9.456
  908POPC   PO416416   2.423  24.160   9.448
  908POPC   GL116417   2.540  23.878   9.087
  908POPC   GL216418   2.810  23.607   9.023
  908POPC   C1A16419   2.729  23.920   8.651
  908POPC   D2A16420   3.008  23.857   8.309
  908POPC   C3A16421   2.745  23.926   7.979
  908POPC   C4A16422   2.572  23.658   7.690
  908POPC   C1B16423   3.198  23.694   8.761
  908POPC   C2B16424   3.344  23.474   8.395
  908POPC   C3B16425   3.191  23.455   7.983
  908POPC   C4B16426   3.089  23.717   7.681
  909POPC   NC316427  35.250   0.018   9.240
  909POPC   PO416428  35.518  44.476   9.408
  909POPC   GL116429  35.419  44.567   9.020
  909POPC   GL216430  35.048  44.543   9.020
  909POPC   C1A16431  35.359  44.381   8.621
  909POPC   D2A16432  35.572  44.322   8.236
  909POPC   C3A16433  35.528  44.690   7.969
  909POPC   C4A16434  35.312   0.049   7.815
  909POPC   C1B16435  34.993  44.831   8.656
  909POPC   C2B16436  35.016  44.843   8.196
  909POPC   C3B16437  34.965  44.689   7.771
  909POPC   C4B16438  34.931  44.954   7.397
  910POPC   NC316439  36.390  27.244   9.564
  910POPC   PO416440  36.297  26.577   9.622
  910POPC   GL116441  36.196  26.581   9.183
  910POPC   GL216442  36.186  26.899   9.208
  910POPC   C1A16443  35.970  26.639   8.783
  910POPC   D2A16444  36.116  26.551   8.376
  910POPC   C3A16445  35.992  26.773   8.019
  910POPC   C4A16446  36.122  26.545   7.654
  910POPC   C1B16447  36.401  26.907   8.802
  910POPC   C2B16448  36.327  27.042   8.389
  910POPC   C3B16449  36.461  27.064   7.974
  910POPC   C4B16450  36.610  26.697   7.796
  911POPC   NC316451  22.354  23.436   9.466
  911POPC   PO416452  21.886  23.908   9.369
  911POPC   GL116453  22.065  23.934   8.985
  911POPC   GL216454  22.348  23.694   8.999
  911POPC   C1A16455  22.105  23.899   8.549
  911POPC   D2A16456  22.058  23.619   8.193
  911POPC   C3A16457  22.024  23.877   7.859
  911POPC   C4A16458  22.424  23.961   7.625
  911POPC   C1B16459  22.004  23.446   8.797
  911POPC   C2B16460  21.877  23.213   8.439
  911POPC   C3B16461  21.868  23.151   7.993
  911POPC   C4B16462  21.838  23.364   7.646
  912POPC   NC316463  31.807  40.934   9.631
  912POPC   PO416464  31.279  40.502   9.588
  912POPC   GL116465  31.496  40.646   9.218
  912POPC   GL216466  31.297  40.917   9.078
  912POPC   C1A16467  31.564  40.645   8.746
  912POPC   D2A16468  31.824  40.643   8.362
  912POPC   C3A16469  31.632  40.586   7.942
  912POPC   C4A16470  31.719  40.433   7.506
  912POPC   C1B16471  31.253  41.087   8.662
  912POPC   C2B16472  30.988  41.094   8.276
  912POPC   C3B16473  31.209  41.217   7.902
  912POPC   C4B16474  31.554  41.044   7.670
  913POPC   NC316475  32.627  43.360   9.433
  913POPC   PO416476  33.089  43.031   9.787
  913POPC   GL116477  32.999  43.011   9.306
  913POPC   GL216478  33.287  42.893   9.109
  913POPC   C1A16479  32.913  43.163   8.842
  913POPC   D2A16480  33.107  43.222   8.406
  913POPC   C3A16481  32.948  43.085   7.983
  913POPC   C4A16482  32.656  43.356   7.751
  913POPC   C1B16483  33.208  42.765   8.660
  913POPC   C2B16484  33.364  42.818   8.212
  913POPC   C3B16485  33.301  42.741   7.753
  913POPC   C4B16486  33.430  42.759   7.292
  914POPC   NC316487  43.320  39.649   9.334
  914POPC   PO416488  43.179  40.207   9.732
  914POPC   GL116489  43.268  40.126   9.271
  914POPC   GL216490  42.978  40.020   9.079
  914POPC   C1A16491  43.422  39.971   8.812
  914POPC   D2A16492  43.401  40.176   8.420
  914POPC   C3A16493  43.492  39.943   8.039
  914POPC   C4A16494  43.463  40.185   7.703
  914POPC   C1B16495  42.920  40.075   8.633
  914POPC   C2B16496  43.028  39.864   8.249
  914POPC   C3B16497  43.019  39.884   7.813
  914POPC   C4B16498  42.904  39.897   7.379
  915POPC   NC316499  22.843   5.412   9.473
  915POPC   PO416500  23.441   5.017   9.434
  915POPC   GL116501  23.116   5.124   9.166
  915POPC   GL216502  23.167   5.467   9.085
  915POPC   C1A16503  22.815   5.077   8.827
  915POPC   D2A16504  22.923   4.885   8.428
  915POPC   C3A16505  22.711   4.994   8.040
  915POPC   C4A16506  22.840   5.037   7.618
  915POPC   C1B16507  22.978   5.535   8.695
  915POPC   C2B16508  22.754   5.403   8.357
  915POPC   C3B16509  22.957   5.451   7.928
  915POPC   C4B16510  22.947   5.502   7.483
  916POPC   NC316511   2.239   5.601   9.618
  916POPC   PO416512   2.185   6.201   9.280
  916POPC   GL116513   2.166   5.817   9.104
  916POPC   GL216514   1.815   5.919   8.984
  916POPC   C1A16515   2.133   5.725   8.654
  916POPC   D2A16516   1.850   6.071   8.436
  916POPC   C3A16517   1.964   6.184   8.017
  916POPC   C4A16518   2.158   5.975   7.663
  916POPC   C1B16519   1.612   5.686   8.678
  916POPC   C2B16520   1.800   5.573   8.288
  916POPC   C3B16521   1.763   5.733   7.881
  916POPC   C4B16522   1.578   6.069   7.636
  917POPC   NC316523   8.883  16.387   9.436
  917POPC   PO416524   8.880  17.000   9.731
  917POPC   GL116525   9.134  16.812   9.310
  917POPC   GL216526   9.368  16.514   9.309
  917POPC   C1A16527   9.091  16.773   8.815
  917POPC   D2A16528   8.830  16.725   8.416
  917POPC   C3A16529   8.889  16.952   8.016
  917POPC   C4A16530   8.773  16.755   7.661
  917POPC   C1B16531   9.292  16.305   8.869
  917POPC   C2B16532   9.372  16.499   8.462
  917POPC   C3B16533   9.186  16.539   8.054
  917POPC   C4B16534   9.283  16.779   7.729
  918POPC   NC316535  40.574  37.869   9.562
  918POPC   PO416536  40.754  37.360   9.443
  918POPC   GL116537  40.725  37.678   9.095
  918POPC   GL216538  40.489  37.979   9.088
  918POPC   C1A16539  40.816  37.605   8.666
  918POPC   D2A16540  40.966  37.809   8.311
  918POPC   C3A16541  41.021  37.708   7.868
  918POPC   C4A16542  41.035  37.364   7.563
  918POPC   C1B16543  40.465  37.992   8.698
  918POPC   C2B16544  40.459  37.801   8.322
  918POPC   C3B16545  40.562  37.902   7.906
  918POPC   C4B16546  40.240  38.002   7.631
  919POPC   NC316547  13.286   2.415   9.547
  919POPC   PO416548  13.894   2.294   9.352
  919POPC   GL116549  13.695   2.493   9.013
  919POPC   GL216550  13.435   2.724   9.142
  919POPC   C1A16551  13.723   2.822   8.691
  919POPC   D2A16552  13.442   2.955   8.366
  919POPC   C3A16553  13.648   2.701   8.107
  919POPC   C4A16554  13.864   2.808   7.776
  919POPC   C1B16555  13.264   2.640   8.727
  919POPC   C2B16556  13.209   2.487   8.290
  919POPC   C3B16557  13.215   2.687   7.868
  919POPC   C4B16558  13.544   2.441   7.673
  920POPC   NC316559  26.660  10.190   9.509
  920POPC   PO416560  26.853   9.542   9.346
  920POPC   GL116561  26.887   9.798   9.033
  920POPC   GL216562  27.216   9.897   9.170
  920POPC   C1A16563  26.893   9.790   8.542
  920POPC   D2A16564  26.974   9.419   8.273
  920POPC   C3A16565  26.743   9.544   7.934
  920POPC   C4A16566  26.705  10.024   7.920
  920POPC   C1B16567  27.293   9.633   8.799
  920POPC   C2B16568  27.398   9.757   8.375
  920POPC   C3B16569  27.192   9.821   7.990
  920POPC   C4B16570  27.093   9.629   7.577
  921POPC   NC316571  33.355   2.498   9.502
  921POPC   PO416572  32.785   2.720   9.655
  921POPC   GL116573  32.889   2.542   9.237
  921POPC   GL216574  33.158   2.791   9.129
  921POPC   C1A16575  32.932   2.512   8.769
  921POPC   D2A16576  33.112   2.703   8.397
  921POPC   C3A16577  32.925   2.542   8.044
  921POPC   C4A16578  33.116   2.605   7.643
  921POPC   C1B16579  33.074   3.080   8.777
  921POPC   C2B16580  32.972   3.209   8.352
  921POPC   C3B16581  33.121   3.030   7.951
  921POPC   C4B16582  33.165   3.076   7.493
  922POPC   NC316583  35.667  39.643   9.715
  922POPC   PO416584  35.141  39.177   9.475
  922POPC   GL116585  35.334  39.196   9.078
  922POPC   GL216586  35.673  39.096   9.145
  922POPC   C1A16587  35.188  39.338   8.662
  922POPC   D2A16588  35.364  39.657   8.373
  922POPC   C3A16589  35.493  39.551   7.982
  922POPC   C4A16590  35.225  39.398   7.720
  922POPC   C1B16591  35.715  39.236   8.695
  922POPC   C2B16592  35.562  39.176   8.314
  922POPC   C3B16593  35.522  39.032   7.906
  922POPC   C4B16594  35.756  39.021   7.516
  923POPC   NC316595  21.023  13.693   9.377
  923POPC   PO416596  21.529  13.235   9.475
  923POPC   GL116597  21.325  13.400   9.100
  923POPC   GL216598  21.433  13.761   9.056
  923POPC   C1A16599  21.077  13.389   8.710
  923POPC   D2A16600  20.902  13.705   8.403
  923POPC   C3A16601  21.146  13.659   8.037
  923POPC   C4A16602  21.488  13.577   7.772
  923POPC   C1B16603  21.376  13.795   8.604
  923POPC   C2B16604  21.296  14.078   8.256
  923POPC   C3B16605  21.346  14.068   7.791
  923POPC   C4B16606  21.705  13.922   7.459
  924POPC   NC316607   4.612  15.021   9.609
  924POPC   PO416608   4.018  15.354   9.694
  924POPC   GL116609   4.312  15.258   9.250
  924POPC   GL216610   4.434  14.884   9.153
  924POPC   C1A16611   4.478  15.231   8.770
  924POPC   D2A16612   4.169  15.215   8.422
  924POPC   C3A16613   4.107  14.888   8.151
  924POPC   C4A16614   4.170  15.053   7.746
  924POPC   C1B16615   4.332  14.747   8.721
  924POPC   C2B16616   4.580  14.845   8.352
  924POPC   C3B16617   4.593  15.133   8.034
  924POPC   C4B16618   4.696  15.210   7.608
  925POPC   NC316619  18.179  35.586   9.359
  925POPC   PO416620  18.609  35.053   9.420
  925POPC   GL116621  18.448  35.215   9.100
  925POPC   GL216622  18.099  35.155   9.092
  925POPC   C1A16623  18.409  35.175   8.700
  925POPC   D2A16624  18.434  35.447   8.419
  925POPC   C3A16625  18.331  35.236   8.057
  925POPC   C4A16626  18.658  35.150   7.792
  925POPC   C1B16627  18.006  35.489   8.717
  925POPC   C2B16628  17.984  35.653   8.288
  925POPC   C3B16629  18.311  35.772   8.027
  925POPC   C4B16630  18.407  35.568   7.657
  926POPC   NC316631  33.307  25.437   9.771
  926POPC   PO416632  32.736  25.280   9.539
  926POPC   GL116633  32.931  25.371   9.149
  926POPC   GL216634  33.036  25.047   9.097
  926POPC   C1A16635  33.091  25.382   8.728
  926POPC   D2A16636  32.909  25.288   8.329
  926POPC   C3A16637  33.129  25.565   8.053
  926POPC   C4A16638  33.192  25.482   7.637
  926POPC   C1B16639  32.774  24.937   8.717
  926POPC   C2B16640  32.842  24.786   8.266
  926POPC   C3B16641  32.988  25.038   7.878
  926POPC   C4B16642  33.324  24.984   7.535
  927POPC   NC316643   6.742  11.870   9.580
  927POPC   PO416644   6.114  12.048   9.502
  927POPC   GL116645   6.458  12.038   9.180
  927POPC   GL216646   6.666  12.316   9.108
  927POPC   C1A16647   6.642  11.938   8.762
  927POPC   D2A16648   6.693  12.115   8.349
  927POPC   C3A16649   6.797  11.951   7.943
  927POPC   C4A16650   6.630  12.158   7.572
  927POPC   C1B16651   6.720  12.498   8.711
  927POPC   C2B16652   6.922  12.552   8.325
  927POPC   C3B16653   6.720  12.470   7.964
  927POPC   C4B16654   6.663  12.787   7.693
  928POPC   NC316655  34.864  16.077   9.520
  928POPC   PO416656  34.269  16.065   9.375
  928POPC   GL116657  34.626  16.041   9.059
  928POPC   GL216658  34.797  15.718   9.154
  928POPC   C1A16659  34.673  15.989   8.585
  928POPC   D2A16660  34.497  16.228   8.225
  928POPC   C3A16661  34.661  16.424   7.876
  928POPC   C4A16662  34.509  16.320   7.461
  928POPC   C1B16663  34.415  15.612   8.877
  928POPC   C2B16664  34.416  15.543   8.432
  928POPC   C3B16665  34.381  15.757   8.066
  928POPC   C4B16666  34.652  15.910   7.753
  929POPC   NC316667  41.089   8.516   9.475
  929POPC   PO416668  41.454   7.947   9.408
  929POPC   GL116669  41.631   8.118   9.068
  929POPC   GL216670  41.486   8.473   9.094
  929POPC   C1A16671  41.658   8.062   8.662
  929POPC   D2A16672  41.387   8.116   8.329
  929POPC   C3A16673  41.660   8.224   8.035
  929POPC   C4A16674  41.634   8.031   7.674
  929POPC   C1B16675  41.845   8.526   8.799
  929POPC   C2B16676  42.024   8.567   8.388
  929POPC   C3B16677  41.915   8.670   7.976
  929POPC   C4B16678  41.887   8.451   7.611
  930POPC   NC316679  18.815   0.498   9.588
  930POPC   PO416680  19.385   0.099   9.470
  930POPC   GL116681  19.185   0.463   9.190
  930POPC   GL216682  18.832   0.621   9.104
  930POPC   C1A16683  19.154   0.461   8.743
  930POPC   D2A16684  19.048   0.093   8.486
  930POPC   C3A16685  18.904   0.170   8.066
  930POPC   C4A16686  18.806   0.390   7.696
  930POPC   C1B16687  18.523   0.738   8.775
  930POPC   C2B16688  18.716   0.542   8.459
  930POPC   C3B16689  18.820   0.702   8.091
  930POPC   C4B16690  18.698   0.881   7.711
  931POPC   NC316691  37.116  39.870   9.541
  931POPC   PO416692  36.716  40.349   9.395
  931POPC   GL116693  36.892  40.365   9.014
  931POPC   GL216694  37.164  40.170   9.113
  931POPC   C1A16695  36.686  40.125   8.705
  931POPC   D2A16696  36.567  39.919   8.351
  931POPC   C3A16697  36.650  40.136   7.988
  931POPC   C4A16698  36.707  39.944   7.614
  931POPC   C1B16699  37.168  39.937   8.732
  931POPC   C2B16700  37.065  39.986   8.306
  931POPC   C3B16701  37.184  39.981   7.889
  931POPC   C4B16702  37.184  40.103   7.429
  932POPC   NC316703   0.128  30.707   9.616
  932POPC   PO416704   0.683  30.469   9.588
  932POPC   GL116705   0.441  30.565   9.196
  932POPC   GL216706   0.157  30.819   9.131
  932POPC   C1A16707   0.460  30.702   8.756
  932POPC   D2A16708   0.359  30.588   8.346
  932POPC   C3A16709   0.532  30.778   7.964
  932POPC   C4A16710   0.430  30.455   7.711
  932POPC   C1B16711  44.958  30.777   8.723
  932POPC   C2B16712  44.936  30.930   8.312
  932POPC   C3B16713   0.031  30.718   7.929
  932POPC   C4B16714   0.073  30.798   7.487
  933POPC   NC316715  35.999  32.717   9.402
  933POPC   PO416716  36.380  33.237   9.545
  933POPC   GL116717  36.284  33.056   9.150
  933POPC   GL216718  35.984  33.201   9.173
  933POPC   C1A16719  36.136  32.918   8.725
  933POPC   D2A16720  36.401  32.774   8.354
  933POPC   C3A16721  36.270  32.902   7.938
  933POPC   C4A16722  36.412  33.201   7.637
  933POPC   C1B16723  35.764  33.300   8.830
  933POPC   C2B16724  35.933  33.330   8.433
  933POPC   C3B16725  35.821  33.175   8.056
  933POPC   C4B16726  35.912  33.402   7.703
  934POPC   NC316727   6.851  14.711   9.436
  934POPC   PO416728   6.816  15.391   9.577
  934POPC   GL116729   6.704  15.182   9.190
  934POPC   GL216730   6.464  15.431   9.047
  934POPC   C1A16731   6.750  15.110   8.749
  934POPC   D2A16732   6.800  15.339   8.382
  934POPC   C3A16733   6.881  15.095   8.000
  934POPC   C4A16734   6.825  15.263   7.574
  934POPC   C1B16735   6.241  15.124   8.760
  934POPC   C2B16736   6.405  14.990   8.348
  934POPC   C3B16737   6.387  15.128   7.919
  934POPC   C4B16738   6.341  15.306   7.491
  935POPC   NC316739   4.292  11.629   9.389
  935POPC   PO416740   4.057  11.068   9.775
  935POPC   GL116741   4.192  10.996   9.282
  935POPC   GL216742   4.494  11.204   9.150
  935POPC   C1A16743   4.150  11.086   8.812
  935POPC   D2A16744   4.463  11.230   8.530
  935POPC   C3A16745   4.398  11.180   8.134
  935POPC   C4A16746   4.026  11.208   7.917
  935POPC   C1B16747   4.654  11.547   8.872
  935POPC   C2B16748   4.755  11.659   8.442
  935POPC   C3B16749   4.815  11.500   8.041
  935POPC   C4B16750   4.556  11.358   7.678
  936POPC   NC316751  34.241  29.544   9.509
  936POPC   PO416752  34.715  29.010   9.569
  936POPC   GL116753  34.610  29.286   9.222
  936POPC   GL216754  34.305  29.119   9.191
  936POPC   C1A16755  34.468  29.372   8.779
  936POPC   D2A16756  34.615  29.375   8.368
  936POPC   C3A16757  34.370  29.374   8.031
  936POPC   C4A16758  34.309  29.306   7.632
  936POPC   C1B16759  34.314  28.867   8.820
  936POPC   C2B16760  34.243  28.986   8.379
  936POPC   C3B16761  34.332  28.837   7.960
  936POPC   C4B16762  34.349  28.501   7.660
  937POPC   NC316763  35.582  24.811   9.439
  937POPC   PO416764  35.113  24.343   9.490
  937POPC   GL116765  35.363  24.345   9.137
  937POPC   GL216766  35.255  24.665   9.069
  937POPC   C1A16767  35.254  24.307   8.716
  937POPC   D2A16768  35.279  24.545   8.335
  937POPC   C3A16769  35.502  24.353   7.999
  937POPC   C4A16770  35.555  24.431   7.560
  937POPC   C1B16771  35.261  24.913   8.727
  937POPC   C2B16772  35.469  25.049   8.375
  937POPC   C3B16773  35.479  24.864   7.974
  937POPC   C4B16774  35.598  24.926   7.583
  938POPC   NC316775  33.441   3.326   9.595
  938POPC   PO416776  33.760   3.882   9.536
  938POPC   GL116777  33.881   3.558   9.234
  938POPC   GL216778  33.647   3.281   9.136
  938POPC   C1A16779  33.893   3.574   8.775
  938POPC   D2A16780  33.674   3.874   8.477
  938POPC   C3A16781  33.699   3.692   8.070
  938POPC   C4A16782  33.889   3.622   7.648
  938POPC   C1B16783  33.592   3.144   8.703
  938POPC   C2B16784  33.492   3.234   8.270
  938POPC   C3B16785  33.552   3.275   7.791
  938POPC   C4B16786  33.616   3.224   7.324
  939POPC   NC316787  25.584   8.806   9.720
  939POPC   PO416788  26.201   8.919   9.546
  939POPC   GL116789  26.298   8.914   9.135
  939POPC   GL216790  25.962   9.031   9.072
  939POPC   C1A16791  26.328   9.023   8.714
  939POPC   D2A16792  25.952   8.916   8.497
  939POPC   C3A16793  25.956   8.748   8.104
  939POPC   C4A16794  26.073   8.918   7.678
  939POPC   C1B16795  25.844   9.354   8.791
  939POPC   C2B16796  25.615   9.332   8.431
  939POPC   C3B16797  25.861   9.244   8.095
  939POPC   C4B16798  25.777   9.359   7.735
  940POPC   NC316799  23.199   2.622   9.610
  940POPC   PO416800  22.931   2.109   9.604
  940POPC   GL116801  22.847   2.191   9.158
  940POPC   GL216802  23.119   2.429   9.119
  940POPC   C1A16803  22.669   2.100   8.708
  940POPC   D2A16804  22.572   2.088   8.230
  940POPC   C3A16805  22.855   1.793   7.937
  940POPC   C4A16806  22.972   1.647   7.499
  940POPC   C1B16807  23.165   2.287   8.691
  940POPC   C2B16808  23.084   2.147   8.250
  940POPC   C3B16809  23.009   2.263   7.807
  940POPC   C4B16810  23.055   2.127   7.347
  941POPC   NC316811  31.646  12.292   9.515
  941POPC   PO416812  31.714  11.642   9.294
  941POPC   GL116813  31.429  11.996   9.078
  941POPC   GL216814  31.336  12.351   9.112
  941POPC   C1A16815  31.315  12.189   8.638
  941POPC   D2A16816  31.229  12.441   8.255
  941POPC   C3A16817  31.284  12.108   7.935
  941POPC   C4A16818  31.099  11.733   7.729
  941POPC   C1B16819  31.753  12.343   8.844
  941POPC   C2B16820  31.728  12.424   8.368
  941POPC   C3B16821  31.630  12.498   7.904
  941POPC   C4B16822  31.223  12.547   7.681
  942POPC   NC316823  43.756  21.228   9.482
  942POPC   PO416824  44.203  21.639   9.682
  942POPC   GL116825  44.176  21.436   9.279
  942POPC   GL216826  44.198  21.061   9.272
  942POPC   C1A16827  43.933  21.614   8.902
  942POPC   D2A16828  43.773  21.448   8.490
  942POPC   C3A16829  43.801  21.601   8.045
  942POPC   C4A16830  43.757  21.714   7.581
  942POPC   C1B16831  44.017  21.126   8.875
  942POPC   C2B16832  44.042  20.977   8.471
  942POPC   C3B16833  43.908  21.115   8.094
  942POPC   C4B16834  44.105  21.313   7.752
  943POPC   NC316835  13.021   1.632   9.888
  943POPC   PO416836  12.907   2.152   9.430
  943POPC   GL116837  12.693   2.102   9.039
  943POPC   GL216838  12.896   1.878   8.980
  943POPC   C1A16839  12.729   1.971   8.549
  943POPC   D2A16840  12.951   2.058   8.226
  943POPC   C3A16841  12.771   1.928   7.879
  943POPC   C4A16842  12.655   2.063   7.471
  943POPC   C1B16843  13.124   1.642   8.708
  943POPC   C2B16844  12.979   1.569   8.327
  943POPC   C3B16845  13.089   1.526   7.932
  943POPC   C4B16846  13.182   1.700   7.569
  944POPC   NC316847   5.268  18.846   9.642
  944POPC   PO416848   4.832  19.325   9.405
  944POPC   GL116849   5.190  19.175   9.237
  944POPC   GL216850   5.395  19.391   9.038
  944POPC   C1A16851   5.178  18.881   8.931
  944POPC   D2A16852   5.099  18.874   8.504
  944POPC   C3A16853   5.362  19.081   8.232
  944POPC   C4A16854   5.403  19.051   7.776
  944POPC   C1B16855   5.025  19.349   8.757
  944POPC   C2B16856   4.828  19.279   8.345
  944POPC   C3B16857   5.053  19.391   7.964
  944POPC   C4B16858   5.507  19.565   7.897
  945POPC   NC316859  43.552  31.684   9.489
  945POPC   PO416860  44.122  31.486   9.720
  945POPC   GL116861  44.101  31.492   9.235
  945POPC   GL216862  43.798  31.521   9.094
  945POPC   C1A16863  44.162  31.407   8.776
  945POPC   D2A16864  43.880  31.460   8.426
  945POPC   C3A16865  44.037  31.537   8.030
  945POPC   C4A16866  43.855  31.429   7.656
  945POPC   C1B16867  43.518  31.586   8.775
  945POPC   C2B16868  43.388  31.662   8.387
  945POPC   C3B16869  43.509  31.571   8.002
  945POPC   C4B16870  43.478  31.793   7.616
  946POPC   NC316871  14.060  23.449   9.496
  946POPC   PO416872  13.576  23.749   9.698
  946POPC   GL116873  13.621  23.704   9.223
  946POPC   GL216874  13.808  23.508   9.049
  946POPC   C1A16875  13.563  23.882   8.764
  946POPC   D2A16876  13.447  23.786   8.340
  946POPC   C3A16877  13.684  23.803   7.924
  946POPC   C4A16878  13.541  24.050   7.547
  946POPC   C1B16879  13.650  23.407   8.638
  946POPC   C2B16880  13.759  23.378   8.220
  946POPC   C3B16881  13.697  23.306   7.782
  946POPC   C4B16882  13.652  23.170   7.356
  947POPC   NC316883  25.219  35.729   9.780
  947POPC   PO416884  25.448  35.162   9.456
  947POPC   GL116885  25.334  35.490   9.158
  947POPC   GL216886  25.080  35.241   9.073
  947POPC   C1A16887  25.199  35.602   8.698
  947POPC   D2A16888  25.295  35.364   8.280
  947POPC   C3A16889  25.247  35.572   7.870
  947POPC   C4A16890  25.331  35.672   7.410
  947POPC   C1B16891  25.165  35.104   8.698
  947POPC   C2B16892  24.928  35.021   8.331
  947POPC   C3B16893  24.954  35.132   7.907
  947POPC   C4B16894  25.344  35.110   7.689
  948POPC   NC316895   5.218  37.060   9.627
  948POPC   PO416896   4.665  37.074   9.269
  948POPC   GL116897   4.990  36.836   9.115
  948POPC   GL216898   5.311  36.667   9.243
  948POPC   C1A16899   5.079  36.947   8.707
  948POPC   D2A16900   5.215  37.129   8.355
  948POPC   C3A16901   5.007  37.029   7.991
  948POPC   C4A16902   4.653  37.183   7.763
  948POPC   C1B16903   5.403  36.573   8.777
  948POPC   C2B16904   5.259  36.621   8.288
  948POPC   C3B16905   5.374  36.701   7.825
  948POPC   C4B16906   5.527  36.668   7.347
  949POPC   NC316907  35.060   5.333   9.117
  949POPC   PO416908  35.289   4.846   9.459
  949POPC   GL116909  35.471   4.990   9.067
  949POPC   GL216910  35.557   5.316   8.979
  949POPC   C1A16911  35.477   4.827   8.675
  949POPC   D2A16912  35.658   4.949   8.292
  949POPC   C3A16913  35.396   4.864   7.979
  949POPC   C4A16914  35.687   4.761   7.721
  949POPC   C1B16915  35.447   5.330   8.567
  949POPC   C2B16916  35.475   5.526   8.174
  949POPC   C3B16917  35.421   5.367   7.765
  949POPC   C4B16918  35.046   5.414   7.485
  950POPC   NC316919   6.203  13.198   9.705
  950POPC   PO416920   6.609  12.667   9.460
  950POPC   GL116921   6.555  12.863   9.091
  950POPC   GL216922   6.884  12.834   9.042
  950POPC   C1A16923   6.590  13.015   8.648
  950POPC   D2A16924   6.586  12.920   8.203
  950POPC   C3A16925   6.387  13.171   7.891
  950POPC   C4A16926   6.222  13.123   7.475
  950POPC   C1B16927   7.105  12.872   8.673
  950POPC   C2B16928   7.095  13.051   8.242
  950POPC   C3B16929   7.052  13.177   7.782
  950POPC   C4B16930   7.227  13.203   7.323
  951POPC   NC316931  30.332  44.699   9.537
  951POPC   PO416932  30.981  44.691   9.598
  951POPC   GL116933  30.782  44.743   9.197
  951POPC   GL216934  30.619  44.441   9.156
  951POPC   C1A16935  30.729  44.676   8.725
  951POPC   D2A16936  30.587  44.561   8.306
  951POPC   C3A16937  30.797  44.729   7.924
  951POPC   C4A16938  30.772  44.703   7.458
  951POPC   C1B16939  30.989  44.299   8.942
  951POPC   C2B16940  30.950  44.196   8.518
  951POPC   C3B16941  30.858  44.172   8.106
  951POPC   C4B16942  30.943  44.294   7.703
  952POPC   NC316943  17.806  10.303   9.589
  952POPC   PO416944  17.469  10.820   9.416
  952POPC   GL116945  17.586  10.798   9.031
  952POPC   GL216946  17.898  10.803   9.062
  952POPC   C1A16947  17.493  10.626   8.627
  952POPC   D2A16948  17.323  10.778   8.252
  952POPC   C3A16949  17.278  10.481   7.909
  952POPC   C4A16950  17.476  10.130   7.679
  952POPC   C1B16951  17.901  10.397   8.840
  952POPC   C2B16952  17.914  10.241   8.397
  952POPC   C3B16953  17.782  10.428   7.986
  952POPC   C4B16954  17.938  10.316   7.559
  953POPC   NC316955  24.507  39.227   9.455
  953POPC   PO416956  25.062  38.765   9.442
  953POPC   GL116957  24.732  38.876   9.165
  953POPC   GL216958  24.329  38.918   9.100
  953POPC   C1A16959  24.729  39.046   8.785
  953POPC   D2A16960  24.572  39.177   8.415
  953POPC   C3A16961  24.651  38.947   8.047
  953POPC   C4A16962  24.709  39.177   7.672
  953POPC   C1B16963  24.171  39.229   8.797
  953POPC   C2B16964  24.200  39.522   8.463
  953POPC   C3B16965  24.167  39.294   8.086
  953POPC   C4B16966  24.248  39.431   7.683
  954POPC   NC316967  10.903  29.882   9.347
  954POPC   PO416968  11.367  29.513   9.724
  954POPC   GL116969  11.391  29.747   9.233
  954POPC   GL216970  11.133  29.659   8.976
  954POPC   C1A16971  11.451  29.982   8.812
  954POPC   D2A16972  11.341  30.032   8.362
  954POPC   C3A16973  11.515  29.784   8.040
  954POPC   C4A16974  11.655  30.035   7.728
  954POPC   C1B16975  10.942  29.971   8.694
  954POPC   C2B16976  10.929  30.326   8.405
  954POPC   C3B16977  10.883  30.277   7.977
  954POPC   C4B16978  11.128  30.002   7.735
  955POPC   NC316979  17.343  13.998   9.424
  955POPC   PO416980  17.577  13.352   9.411
  955POPC   GL116981  17.327  13.569   9.112
  955POPC   GL216982  17.583  13.771   9.010
  955POPC   C1A16983  17.212  13.654   8.695
  955POPC   D2A16984  17.473  13.451   8.395
  955POPC   C3A16985  17.623  13.748   8.128
  955POPC   C4A16986  17.367  13.979   7.820
  955POPC   C1B16987  17.876  13.469   8.772
  955POPC   C2B16988  18.067  13.493   8.338
  955POPC   C3B16989  17.930  13.389   7.917
  955POPC   C4B16990  17.531  13.403   7.766
  956POPC   NC316991   6.296  15.239   9.497
  956POPC   PO416992   5.724  14.944   9.658
  956POPC   GL116993   5.908  14.978   9.226
  956POPC   GL216994   5.940  15.319   9.139
  956POPC   C1A16995   5.666  14.990   8.825
  956POPC   D2A16996   5.568  15.017   8.380
  956POPC   C3A16997   5.924  15.190   8.164
  956POPC   C4A16998   5.932  15.106   7.715
  956POPC   C1B16999   5.848  15.487   8.753
  956POPC   C2B17000   5.600  15.515   8.411
  956POPC   C3B17001   5.749  15.669   8.063
  956POPC   C4B17002   6.098  15.575   7.848
  957POPC   NC317003  28.174  37.473   9.757
  957POPC   PO417004  28.793  37.519   9.554
  957POPC   GL117005  28.505  37.608   9.199
  957POPC   GL217006  28.162  37.549   9.236
  957POPC   C1A17007  28.423  37.968   8.867
  957POPC   D2A17008  28.511  38.112   8.438
  957POPC   C3A17009  28.721  37.788   8.199
  957POPC   C4A17010  28.710  37.822   7.759
  957POPC   C1B17011  28.053  37.639   8.785
  957POPC   C2B17012  28.257  37.617   8.365
  957POPC   C3B17013  28.240  37.559   7.890
  957POPC   C4B17014  28.340  37.489   7.425
  958POPC   NC317015  30.066   6.827   9.516
  958POPC   PO417016  29.570   6.447   9.551
  958POPC   GL117017  29.707   6.709   9.182
  958POPC   GL217018  30.036   6.621   9.048
  958POPC   C1A17019  29.781   6.966   8.794
  958POPC   D2A17020  30.068   6.878   8.410
  958POPC   C3A17021  29.885   6.983   7.988
  958POPC   C4A17022  29.866   6.922   7.525
  958POPC   C1B17023  29.934   6.446   8.655
  958POPC   C2B17024  29.909   6.349   8.211
  958POPC   C3B17025  29.925   6.505   7.819
  958POPC   C4B17026  30.270   6.459   7.570
  959POPC   NC317027  35.101  41.447   9.602
  959POPC   PO417028  35.377  42.034   9.517
  959POPC   GL117029  35.295  41.757   9.167
  959POPC   GL217030  35.390  41.407   9.168
  959POPC   C1A17031  35.391  41.763   8.733
  959POPC   D2A17032  35.213  41.743   8.300
  959POPC   C3A17033  35.516  41.666   7.952
  959POPC   C4A17034  35.517  41.830   7.504
  959POPC   C1B17035  35.264  41.278   8.744
  959POPC   C2B17036  35.472  41.306   8.361
  959POPC   C3B17037  35.377  41.093   7.992
  959POPC   C4B17038  35.416  41.062   7.571
  960POPC   NC317039  11.210  39.374   9.440
  960POPC   PO417040  11.323  38.738   9.448
  960POPC   GL117041  11.181  38.953   9.118
  960POPC   GL217042  11.485  39.142   9.080
  960POPC   C1A17043  11.126  39.109   8.700
  960POPC   D2A17044  11.304  39.036   8.291
  960POPC   C3A17045  11.003  39.188   8.002
  960POPC   C4A17046  11.050  39.243   7.572
  960POPC   C1B17047  11.664  39.095   8.672
  960POPC   C2B17048  11.697  39.381   8.295
  960POPC   C3B17049  11.487  39.329   7.871
  960POPC   C4B17050  11.509  39.321   7.392
  961POPC   NC317051  24.845  35.591   9.335
  961POPC   PO417052  24.105  35.573   9.390
  961POPC   GL117053  24.434  35.377   9.106
  961POPC   GL217054  24.207  35.380   8.876
  961POPC   C1A17055  24.671  35.217   8.753
  961POPC   D2A17056  24.560  35.377   8.351
  961POPC   C3A17057  24.436  35.111   7.983
  961POPC   C4A17058  24.458  35.207   7.544
  961POPC   C1B17059  24.211  35.757   8.610
  961POPC   C2B17060  24.086  35.780   8.199
  961POPC   C3B17061  24.160  35.544   7.856
  961POPC   C4B17062  23.991  35.380   7.497
  962POPC   NC317063   7.877  27.197   9.491
  962POPC   PO417064   8.302  26.781   9.785
  962POPC   GL117065   8.187  26.710   9.326
  962POPC   GL217066   7.861  26.535   9.318
  962POPC   C1A17067   8.197  26.617   8.871
  962POPC   D2A17068   8.180  26.936   8.557
  962POPC   C3A17069   8.181  26.859   8.137
  962POPC   C4A17070   8.286  27.119   7.792
  962POPC   C1B17071   7.720  26.407   8.899
  962POPC   C2B17072   7.676  26.445   8.469
  962POPC   C3B17073   7.744  26.608   8.061
  962POPC   C4B17074   7.778  26.968   7.753
  963POPC   NC317075  11.013  12.668   9.624
  963POPC   PO417076  11.127  13.415   9.564
  963POPC   GL117077  11.163  13.102   9.264
  963POPC   GL217078  11.307  13.284   9.006
  963POPC   C1A17079  11.163  12.799   8.912
  963POPC   D2A17080  11.226  12.617   8.501
  963POPC   C3A17081  11.229  12.845   8.134
  963POPC   C4A17082  11.335  12.589   7.784
  963POPC   C1B17083  11.270  13.161   8.562
  963POPC   C2B17084  11.597  13.170   8.207
  963POPC   C3B17085  11.707  12.959   7.809
  963POPC   C4B17086  11.433  12.973   7.427
  964POPC   NC317087  37.271  34.382   9.526
  964POPC   PO417088  36.716  34.748   9.762
  964POPC   GL117089  36.658  34.803   9.301
  964POPC   GL217090  36.632  34.437   9.194
  964POPC   C1A17091  36.879  34.860   8.889
  964POPC   D2A17092  37.113  34.660   8.586
  964POPC   C3A17093  37.063  34.792   8.170
  964POPC   C4A17094  37.062  34.756   7.745
  964POPC   C1B17095  36.625  34.453   8.738
  964POPC   C2B17096  36.751  34.417   8.314
  964POPC   C3B17097  36.597  34.575   7.925
  964POPC   C4B17098  36.637  34.644   7.471
  965POPC   NC317099  20.358  27.408   9.693
  965POPC   PO417100  20.854  27.810   9.501
  965POPC   GL117101  20.585  27.768   9.149
  965POPC   GL217102  20.246  27.633   9.239
  965POPC   C1A17103  20.716  27.706   8.696
  965POPC   D2A17104  20.705  27.281   8.445
  965POPC   C3A17105  20.692  27.382   7.995
  965POPC   C4A17106  20.953  27.695   7.778
  965POPC   C1B17107  20.343  27.403   8.838
  965POPC   C2B17108  20.292  27.586   8.414
  965POPC   C3B17109  20.245  27.777   8.024
  965POPC   C4B17110  20.372  27.600   7.626
  966POPC   NC317111  10.637  26.604   9.428
  966POPC   PO417112  10.185  27.112   9.554
  966POPC   GL117113  10.396  26.976   9.207
  966POPC   GL217114  10.741  27.050   9.171
  966POPC   C1A17115  10.269  26.737   8.862
  966POPC   D2A17116  10.443  26.760   8.478
  966POPC   C3A17117  10.218  26.726   8.116
  966POPC   C4A17118  10.511  26.825   7.791
  966POPC   C1B17119  10.872  26.862   8.751
  966POPC   C2B17120  11.040  26.801   8.320
  966POPC   C3B17121  10.971  27.010   7.917
  966POPC   C4B17122  10.928  26.868   7.460
  967POPC   NC317123   2.946  36.863   9.408
  967POPC   PO417124   2.577  37.399   9.670
  967POPC   GL117125   2.539  37.146   9.286
  967POPC   GL217126   2.446  36.795   9.213
  967POPC   C1A17127   2.791  37.197   8.875
  967POPC   D2A17128   3.031  36.914   8.594
  967POPC   C3A17129   2.989  37.007   8.167
  967POPC   C4A17130   3.105  36.702   7.838
  967POPC   C1B17131   2.363  36.963   8.832
  967POPC   C2B17132   2.522  36.951   8.456
  967POPC   C3B17133   2.624  36.668   8.143
  967POPC   C4B17134   2.543  36.855   7.771
  968POPC   NC317135  25.236  13.372   9.473
  968POPC   PO417136  25.022  12.744   9.547
  968POPC   GL117137  25.159  12.943   9.194
  968POPC   GL217138  25.507  12.923   9.248
  968POPC   C1A17139  25.302  12.812   8.790
  968POPC   D2A17140  25.519  12.630   8.429
  968POPC   C3A17141  25.398  12.797   8.106
  968POPC   C4A17142  25.240  12.607   7.787
  968POPC   C1B17143  25.640  13.175   8.886
  968POPC   C2B17144  25.575  13.152   8.461
  968POPC   C3B17145  25.473  13.332   8.068
  968POPC   C4B17146  25.318  13.099   7.715
  969POPC   NC317147   8.553  39.275   9.460
  969POPC   PO417148   9.101  38.936   9.601
  969POPC   GL117149   9.000  39.156   9.253
  969POPC   GL217150   8.746  38.931   9.142
  969POPC   C1A17151   9.028  39.347   8.857
  969POPC   D2A17152   9.220  39.250   8.456
  969POPC   C3A17153   8.996  39.493   8.150
  969POPC   C4A17154   9.009  39.463   7.738
  969POPC   C1B17155   8.546  39.127   8.797
  969POPC   C2B17156   8.668  39.166   8.376
  969POPC   C3B17157   8.455  39.034   7.997
  969POPC   C4B17158   8.570  39.142   7.577
  970POPC   NC317159  22.966  24.883   9.405
  970POPC   PO417160  23.226  25.435   9.406
  970POPC   GL117161  22.945  25.311   9.123
  970POPC   GL217162  23.195  25.061   9.004
  970POPC   C1A17163  22.783  25.180   8.733
  970POPC   D2A17164  22.608  25.186   8.334
  970POPC   C3A17165  22.938  25.109   8.032
  970POPC   C4A17166  22.852  25.231   7.629
  970POPC   C1B17167  23.255  25.437   8.756
  970POPC   C2B17168  23.037  25.518   8.389
  970POPC   C3B17169  23.192  25.669   8.041
  970POPC   C4B17170  23.325  25.392   7.719
  971POPC   NC317171  37.365   9.031   9.729
  971POPC   PO417172  38.011   8.884   9.565
  971POPC   GL117173  37.784   8.769   9.148
  971POPC   GL217174  37.415   8.847   9.239
  971POPC   C1A17175  37.873   8.715   8.677
  971POPC   D2A17176  37.738   9.039   8.358
  971POPC   C3A17177  37.916   9.162   7.974
  971POPC   C4A17178  37.652   9.418   7.663
  971POPC   C1B17179  37.412   8.888   8.780
  971POPC   C2B17180  37.438   8.633   8.392
  971POPC   C3B17181  37.383   8.846   7.989
  971POPC   C4B17182  37.243   9.063   7.588
  972POPC   NC317183   5.105  11.561   9.644
  972POPC   PO417184   4.826  11.027   9.486
  972POPC   GL117185   5.010  11.065   9.094
  972POPC   GL217186   5.060  11.399   9.154
  972POPC   C1A17187   4.943  11.180   8.672
  972POPC   D2A17188   4.909  11.066   8.268
  972POPC   C3A17189   5.248  11.101   8.001
  972POPC   C4A17190   5.058  11.282   7.661
  972POPC   C1B17191   5.168  11.613   8.779
  972POPC   C2B17192   5.267  11.507   8.323
  972POPC   C3B17193   5.322  11.676   7.864
  972POPC   C4B17194   5.309  11.601   7.378
  973POPC   NC317195  10.748  29.597   9.769
  973POPC   PO417196  10.329  30.150   9.582
  973POPC   GL117197  10.396  30.028   9.186
  973POPC   GL217198  10.295  30.372   9.117
  973POPC   C1A17199  10.370  29.789   8.793
  973POPC   D2A17200  10.265  29.476   8.465
  973POPC   C3A17201  10.291  29.675   8.034
  973POPC   C4A17202  10.607  29.872   7.778
  973POPC   C1B17203  10.558  30.288   8.783
  973POPC   C2B17204  10.481  30.097   8.393
  973POPC   C3B17205  10.379  30.320   8.053
  973POPC   C4B17206  10.483  30.345   7.641
  974POPC   NC317207   5.395  38.696   9.489
  974POPC   PO417208   4.777  38.516   9.403
  974POPC   GL117209   5.015  38.621   9.085
  974POPC   GL217210   5.264  38.399   9.099
  974POPC   C1A17211   5.099  38.590   8.640
  974POPC   D2A17212   4.845  38.346   8.351
  974POPC   C3A17213   4.800  38.573   7.953
  974POPC   C4A17214   5.100  38.654   7.598
  974POPC   C1B17215   5.471  38.250   8.766
  974POPC   C2B17216   5.351  38.125   8.371
  974POPC   C3B17217   5.233  38.315   8.028
  974POPC   C4B17218   5.312  38.190   7.662
  975POPC   NC317219  30.066   0.486   9.582
  975POPC   PO417220  29.935  44.924   9.575
  975POPC   GL117221  30.230   0.060   9.183
  975POPC   GL217222  30.210   0.410   9.064
  975POPC   C1A17223  30.379   0.064   8.712
  975POPC   D2A17224  30.274   0.021   8.230
  975POPC   C3A17225  29.995   0.300   7.953
  975POPC   C4A17226  29.678   0.500   7.677
  975POPC   C1B17227  30.209   0.543   8.619
  975POPC   C2B17228  30.388   0.544   8.218
  975POPC   C3B17229  30.287   0.686   7.793
  975POPC   C4B17230  29.937   0.944   7.602
  976POPC   NC317231   8.525  28.813   9.492
  976POPC   PO417232   8.255  28.205   9.737
  976POPC   GL117233   8.189  28.261   9.232
  976POPC   GL217234   8.402  28.522   9.074
  976POPC   C1A17235   8.057  28.332   8.751
  976POPC   D2A17236   8.227  28.207   8.319
  976POPC   C3A17237   8.045  28.444   7.992
  976POPC   C4A17238   7.732  28.556   7.727
  976POPC   C1B17239   8.578  28.391   8.657
  976POPC   C2B17240   8.772  28.466   8.252
  976POPC   C3B17241   8.538  28.575   7.906
  976POPC   C4B17242   8.536  28.647   7.463
  977POPC   NC317243   3.136  13.823   9.424
  977POPC   PO417244   2.592  13.393   9.531
  977POPC   GL117245   2.818  13.451   9.184
  977POPC   GL217246   2.681  13.776   9.200
  977POPC   C1A17247   2.936  13.464   8.732
  977POPC   D2A17248   3.119  13.396   8.319
  977POPC   C3A17249   2.828  13.536   7.981
  977POPC   C4A17250   2.498  13.360   7.706
  977POPC   C1B17251   2.462  13.636   8.841
  977POPC   C2B17252   2.422  13.825   8.442
  977POPC   C3B17253   2.318  13.683   8.044
  977POPC   C4B17254   2.404  13.872   7.647
  978POPC   NC317255   5.637  28.274   9.512
  978POPC   PO417256   6.336  28.244   9.531
  978POPC   GL117257   6.159  28.468   9.161
  978POPC   GL217258   5.854  28.665   9.234
  978POPC   C1A17259   5.940  28.283   8.794
  978POPC   D2A17260   6.022  28.136   8.356
  978POPC   C3A17261   6.046  28.417   7.981
  978POPC   C4A17262   6.376  28.645   7.772
  978POPC   C1B17263   5.569  28.637   8.854
  978POPC   C2B17264   5.690  28.548   8.398
  978POPC   C3B17265   5.575  28.234   8.066
  978POPC   C4B17266   5.659  28.148   7.625
  979POPC   NC317267  42.826  42.684   9.495
  979POPC   PO417268  42.218  42.444   9.566
  979POPC   GL117269  42.305  42.209   9.197
  979POPC   GL217270  42.665  42.234   9.215
  979POPC   C1A17271  42.254  42.212   8.736
  979POPC   D2A17272  41.985  42.485   8.446
  979POPC   C3A17273  42.058  42.452   7.977
  979POPC   C4A17274  42.177  42.340   7.528
  979POPC   C1B17275  42.779  42.287   8.775
  979POPC   C2B17276  42.846  42.189   8.344
  979POPC   C3B17277  42.559  42.297   7.994
  979POPC   C4B17278  42.612  42.548   7.640
  980POPC   NC317279  29.926   7.817   9.522
  980POPC   PO417280  29.789   7.184   9.467
  980POPC   GL117281  29.656   7.493   9.188
  980POPC   GL217282  29.983   7.531   9.077
  980POPC   C1A17283  29.594   7.497   8.743
  980POPC   D2A17284  29.651   7.227   8.376
  980POPC   C3A17285  29.577   7.399   7.972
  980POPC   C4A17286  29.724   7.435   7.551
  980POPC   C1B17287  30.088   7.355   8.654
  980POPC   C2B17288  30.222   7.324   8.218
  980POPC   C3B17289  30.168   7.437   7.807
  980POPC   C4B17290  30.204   7.317   7.388
  981POPC   NC317291   3.081  36.217   9.333
  981POPC   PO417292   2.635  36.566   9.617
  981POPC   GL117293   2.596  36.294   9.198
  981POPC   GL217294   2.786  35.924   9.054
  981POPC   C1A17295   2.506  36.209   8.761
  981POPC   D2A17296   2.412  36.161   8.334
  981POPC   C3A17297   2.820  36.195   8.107
  981POPC   C4A17298   2.741  36.383   7.709
  981POPC   C1B17299   3.135  35.933   8.738
  981POPC   C2B17300   3.234  35.905   8.306
  981POPC   C3B17301   3.075  35.670   7.968
  981POPC   C4B17302   3.045  35.667   7.531
  982POPC   NC317303  42.629   9.125   9.526
  982POPC   PO417304  42.198   8.601   9.540
  982POPC   GL117305  42.462   8.684   9.174
  982POPC   GL217306  42.411   9.033   9.087
  982POPC   C1A17307  42.408   8.683   8.730
  982POPC   D2A17308  42.381   8.992   8.397
  982POPC   C3A17309  42.452   8.770   8.012
  982POPC   C4A17310  42.285   8.788   7.588
  982POPC   C1B17311  42.704   9.131   8.786
  982POPC   C2B17312  42.698   9.432   8.487
  982POPC   C3B17313  42.756   9.231   8.113
  982POPC   C4B17314  42.540   9.210   7.745
  983POPC   NC317315  35.958   1.448   9.803
  983POPC   PO417316  36.204   0.940   9.420
  983POPC   GL117317  36.178   0.961   9.036
  983POPC   GL217318  35.819   0.927   9.054
  983POPC   C1A17319  36.360   1.098   8.729
  983POPC   D2A17320  36.286   0.929   8.368
  983POPC   C3A17321  36.480   1.094   8.052
  983POPC   C4A17322  36.403   0.974   7.675
  983POPC   C1B17323  35.832   1.098   8.656
  983POPC   C2B17324  35.875   1.234   8.258
  983POPC   C3B17325  36.089   1.388   7.944
  983POPC   C4B17326  36.002   1.723   7.739
  984POPC   NC317327   6.465  28.833   9.406
  984POPC   PO417328   6.809  29.435   9.424
  984POPC   GL117329   6.743  29.156   9.052
  984POPC   GL217330   6.521  28.854   8.904
  984POPC   C1A17331   6.894  29.068   8.614
  984POPC   D2A17332   6.946  29.387   8.313
  984POPC   C3A17333   6.753  29.439   7.910
  984POPC   C4A17334   6.785  29.307   7.459
  984POPC   C1B17335   6.402  29.221   8.703
  984POPC   C2B17336   6.450  29.459   8.369
  984POPC   C3B17337   6.263  29.416   8.014
  984POPC   C4B17338   6.355  29.153   7.735
  985POPC   NC317339   6.006  34.309   9.485
  985POPC   PO417340   5.550  34.838   9.424
  985POPC   GL117341   5.741  34.638   9.059
  985POPC   GL217342   5.807  34.262   9.015
  985POPC   C1A17343   5.932  34.622   8.648
  985POPC   D2A17344   6.093  34.868   8.311
  985POPC   C3A17345   5.771  34.936   7.994
  985POPC   C4A17346   5.933  34.841   7.610
  985POPC   C1B17347   5.531  34.279   8.643
  985POPC   C2B17348   5.596  34.510   8.259
  985POPC   C3B17349   5.990  34.474   8.005
  985POPC   C4B17350   6.169  34.370   7.618
  986POPC   NC317351   4.162   1.058   9.416
  986POPC   PO417352   4.637   1.332   9.763
  986POPC   GL117353   4.665   1.257   9.226
  986POPC   GL217354   4.690   0.930   9.117
  986POPC   C1A17355   4.518   1.387   8.723
  986POPC   D2A17356   4.106   1.496   8.446
  986POPC   C3A17357   4.135   1.382   7.996
  986POPC   C4A17358   4.528   1.200   7.834
  986POPC   C1B17359   4.374   0.902   8.778
  986POPC   C2B17360   4.376   1.066   8.336
  986POPC   C3B17361   4.150   0.874   7.968
  986POPC   C4B17362   4.159   1.005   7.535
  987POPC   NC317363   3.507  35.340   9.515
  987POPC   PO417364   4.148  35.124   9.561
  987POPC   GL117365   3.793  35.083   9.172
  987POPC   GL217366   3.354  35.045   9.122
  987POPC   C1A17367   3.614  35.303   8.806
  987POPC   D2A17368   3.352  35.419   8.471
  987POPC   C3A17369   3.517  35.344   8.075
  987POPC   C4A17370   3.640  35.358   7.639
  987POPC   C1B17371   3.105  34.994   8.774
  987POPC   C2B17372   3.094  34.859   8.378
  987POPC   C3B17373   3.031  35.193   8.131
  987POPC   C4B17374   3.176  35.198   7.683
  988POPC   NC317375   6.310  32.843   9.696
  988POPC   PO417376   5.759  33.097   9.442
  988POPC   GL117377   5.798  32.855   9.103
  988POPC   GL217378   6.135  32.860   9.124
  988POPC   C1A17379   5.852  32.758   8.670
  988POPC   D2A17380   5.824  33.096   8.347
  988POPC   C3A17381   5.749  32.910   7.975
  988POPC   C4A17382   6.006  32.602   7.786
  988POPC   C1B17383   6.086  33.197   8.786
  988POPC   C2B17384   6.315  33.266   8.425
  988POPC   C3B17385   6.270  33.004   8.055
  988POPC   C4B17386   6.097  33.074   7.632
  989POPC   NC317387  31.335  44.669   9.888
  989POPC   PO417388  31.481   0.265   9.490
  989POPC   GL117389  31.506   0.476   9.111
  989POPC   GL217390  31.443   0.796   9.143
  989POPC   C1A17391  31.281   0.528   8.728
  989POPC   D2A17392  31.400   0.299   8.389
  989POPC   C3A17393  31.196   0.076   8.073
  989POPC   C4A17394  31.341   0.199   7.689
  989POPC   C1B17395  31.587   0.949   8.752
  989POPC   C2B17396  31.607   0.797   8.345
  989POPC   C3B17397  31.400   0.621   7.993
  989POPC   C4B17398  31.530   0.761   7.615
  990POPC   NC317399  39.212  43.382   9.393
  990POPC   PO417400  39.517  42.723   9.426
  990POPC   GL117401  39.330  42.986   9.048
  990POPC   GL217402  39.375  43.366   8.924
  990POPC   C1A17403  39.256  43.017   8.587
  990POPC   D2A17404  39.204  43.257   8.222
  990POPC   C3A17405  39.344  43.077   7.841
  990POPC   C4A17406  39.658  43.352   7.684
  990POPC   C1B17407  38.936  43.372   8.783
  990POPC   C2B17408  38.796  43.576   8.428
  990POPC   C3B17409  38.999  43.722   8.082
  990POPC   C4B17410  39.177  43.556   7.727
  991POPC   NC317411  36.286  25.504   9.284
  991POPC   PO417412  35.823  25.156   9.636
  991POPC   GL117413  36.027  25.057   9.236
  991POPC   GL217414  36.395  25.000   9.222
  991POPC   C1A17415  36.002  25.031   8.764
  991POPC   D2A17416  36.233  25.363   8.507
  991POPC   C3A17417  36.204  25.467   8.059
  991POPC   C4A17418  36.138  25.552   7.618
  991POPC   C1B17419  36.493  24.859   8.804
  991POPC   C2B17420  36.317  24.870   8.386
  991POPC   C3B17421  36.448  24.994   7.988
  991POPC   C4B17422  36.776  24.945   7.720
  992POPC   NC317423  12.516  19.834   9.360
  992POPC   PO417424  13.019  19.435   9.548
  992POPC   GL117425  12.930  19.647   9.150
  992POPC   GL217426  12.884  20.020   9.079
  992POPC   C1A17427  13.031  19.712   8.729
  992POPC   D2A17428  13.157  19.523   8.403
  992POPC   C3A17429  12.946  19.788   8.143
  992POPC   C4A17430  12.759  19.683   7.778
  992POPC   C1B17431  12.631  20.171   8.745
  992POPC   C2B17432  12.494  20.026   8.348
  992POPC   C3B17433  12.561  20.121   7.906
  992POPC   C4B17434  12.352  19.895   7.565
  993POPC   NC317435  34.349  36.978   9.507
  993POPC   PO417436  34.697  36.443   9.644
  993POPC   GL117437  34.566  36.669   9.185
  993POPC   GL217438  34.744  37.027   9.145
  993POPC   C1A17439  34.306  36.921   8.880
  993POPC   D2A17440  34.330  37.042   8.488
  993POPC   C3A17441  34.309  36.784   8.116
  993POPC   C4A17442  34.374  36.817   7.694
  993POPC   C1B17443  34.765  36.877   8.705
  993POPC   C2B17444  34.799  36.918   8.285
  993POPC   C3B17445  34.796  36.665   7.937
  993POPC   C4B17446  35.067  36.895   7.687
  994POPC   NC317447  27.363  14.493   9.268
  994POPC   PO417448  27.928  14.387   9.692
  994POPC   GL117449  27.789  14.220   9.232
  994POPC   GL217450  27.478  14.099   8.995
  994POPC   C1A17451  27.889  14.197   8.750
  994POPC   D2A17452  27.672  14.508   8.472
  994POPC   C3A17453  27.711  14.421   8.043
  994POPC   C4A17454  28.013  14.124   7.906
  994POPC   C1B17455  27.250  14.246   8.639
  994POPC   C2B17456  27.369  14.086   8.238
  994POPC   C3B17457  27.206  14.299   7.890
  994POPC   C4B17458  27.330  14.720   7.834
  995POPC   NC317459   3.177  14.522   9.632
  995POPC   PO417460   3.595  13.965   9.479
  995POPC   GL117461   3.456  14.193   9.151
  995POPC   GL217462   3.783  14.377   9.020
  995POPC   C1A17463   3.330  14.504   8.863
  995POPC   D2A17464   3.617  14.593   8.531
  995POPC   C3A17465   3.418  14.633   8.115
  995POPC   C4A17466   3.241  14.393   7.748
  995POPC   C1B17467   3.808  14.018   8.771
  995POPC   C2B17468   3.983  14.045   8.379
  995POPC   C3B17469   3.892  14.417   8.138
  995POPC   C4B17470   3.759  14.434   7.727
  996POPC   NC317471  20.232  43.652   9.538
  996POPC   PO417472  19.899  44.243   9.535
  996POPC   GL117473  20.147  44.076   9.202
  996POPC   GL217474  19.925  43.821   9.116
  996POPC   C1A17475  20.090  44.123   8.740
  996POPC   D2A17476  19.990  44.327   8.332
  996POPC   C3A17477  20.059  44.091   7.957
  996POPC   C4A17478  19.722  44.103   7.687
  996POPC   C1B17479  19.740  43.685   8.721
  996POPC   C2B17480  19.734  43.831   8.293
  996POPC   C3B17481  19.411  43.828   7.977
  996POPC   C4B17482  19.427  43.703   7.543
  997POPC   NC317483  29.155  26.921   9.541
  997POPC   PO417484  29.631  27.018   9.150
  997POPC   GL117485  29.240  26.775   9.055
  997POPC   GL217486  28.875  26.715   9.079
  997POPC   C1A17487  29.102  26.938   8.673
  997POPC   D2A17488  29.409  27.053   8.392
  997POPC   C3A17489  29.317  27.117   7.968
  997POPC   C4A17490  29.415  26.786   7.683
  997POPC   C1B17491  29.094  26.435   8.707
  997POPC   C2B17492  29.163  26.572   8.255
  997POPC   C3B17493  28.951  26.748   7.881
  997POPC   C4B17494  29.026  26.627   7.408
  998POPC   NC317495  17.946  11.968   9.571
  998POPC   PO417496  17.251  11.947   9.599
  998POPC   GL117497  17.478  12.156   9.237
  998POPC   GL217498  17.827  12.317   9.220
  998POPC   C1A17499  17.333  12.016   8.824
  998POPC   D2A17500  17.163  12.225   8.474
  998POPC   C3A17501  17.296  12.067   8.088
  998POPC   C4A17502  17.519  11.959   7.725
  998POPC   C1B17503  17.832  12.089   8.841
  998POPC   C2B17504  17.671  12.092   8.452
  998POPC   C3B17505  17.810  12.180   8.069
  998POPC   C4B17506  17.718  12.448   7.724
  999POPC   NC317507  12.037   6.417   9.337
  999POPC   PO417508  12.107   5.971   9.814
  999POPC   GL117509  11.901   5.928   9.379
  999POPC   GL217510  12.171   5.898   9.168
  999POPC   C1A17511  11.772   5.921   8.885
  999POPC   D2A17512  11.742   5.966   8.403
  999POPC   C3A17513  11.963   5.804   8.003
  999POPC   C4A17514  12.121   5.368   7.896
  999POPC   C1B17515  12.261   5.863   8.727
  999POPC   C2B17516  12.364   5.668   8.319
  999POPC   C3B17517  12.466   5.767   7.895
  999POPC   C4B17518  12.322   5.949   7.560
 1000POPC   NC317519  17.053  17.274   9.556
 1000POPC   PO417520  16.477  17.277   9.502
 1000POPC   GL117521  16.715  17.474   9.184
 1000POPC   GL217522  17.024  17.341   9.053
 1000POPC   C1A17523  16.616  17.651   8.796
 1000POPC   D2A17524  16.556  17.492   8.370
 1000POPC   C3A17525  16.566  17.775   8.012
 1000POPC   C4A17526  16.428  17.697   7.604
 1000POPC   C1B17527  17.066  17.499   8.621
 1000POPC   C2B17528  17.021  17.508   8.158
 1000POPC   C3B17529  16.886  17.449   7.714
 1000POPC   C4B17530  17.034  17.407   7.269
 1001POPC   NC317531  13.883  12.708   9.495
 1001POPC   PO417532  13.267  12.464   9.300
 1001POPC   GL117533  13.538  12.705   9.069
 1001POPC   GL217534  13.487  13.064   8.987
 1001POPC   C1A17535  13.503  12.725   8.629
 1001POPC   D2A17536  13.851  12.744   8.401
 1001POPC   C3A17537  13.779  12.687   7.979
 1001POPC   C4A17538  13.521  12.990   7.833
 1001POPC   C1B17539  13.935  13.061   8.851
 1001POPC   C2B17540  14.200  13.108   8.491
 1001POPC   C3B17541  13.947  13.155   8.131
 1001POPC   C4B17542  14.037  13.110   7.753
 1002POPC   NC317543  12.514   9.577   9.439
 1002POPC   PO417544  13.108   9.887   9.522
 1002POPC   GL117545  12.934   9.707   9.169
 1002POPC   GL217546  12.949   9.353   9.149
 1002POPC   C1A17547  12.926   9.648   8.738
 1002POPC   D2A17548  12.791   9.920   8.432
 1002POPC   C3A17549  12.953   9.948   8.038
 1002POPC   C4A17550  12.670  10.078   7.798
 1002POPC   C1B17551  12.534   9.330   8.859
 1002POPC   C2B17552  12.548   9.451   8.430
 1002POPC   C3B17553  12.782   9.465   8.066
 1002POPC   C4B17554  12.582   9.581   7.708
 1003POPC   NC317555  36.253  25.023   9.729
 1003POPC   PO417556  35.909  24.413   9.517
 1003POPC   GL117557  36.082  24.567   9.159
 1003POPC   GL217558  35.790  24.627   9.034
 1003POPC   C1A17559  36.157  24.502   8.709
 1003POPC   D2A17560  36.395  24.377   8.367
 1003POPC   C3A17561  36.230  24.507   8.018
 1003POPC   C4A17562  35.920  24.617   7.825
 1003POPC   C1B17563  35.657  24.618   8.674
 1003POPC   C2B17564  35.828  24.665   8.322
 1003POPC   C3B17565  35.928  25.045   8.115
 1003POPC   C4B17566  36.050  25.082   7.698
 1004POPC   NC317567   2.909   1.615   9.350
 1004POPC   PO417568   2.782   2.207   9.459
 1004POPC   GL117569   2.855   2.006   9.056
 1004POPC   GL217570   2.629   1.671   8.956
 1004POPC   C1A17571   2.883   1.963   8.650
 1004POPC   D2A17572   2.585   1.909   8.354
 1004POPC   C3A17573   2.736   2.029   7.971
 1004POPC   C4A17574   2.989   2.338   7.754
 1004POPC   C1B17575   2.262   1.726   8.783
 1004POPC   C2B17576   2.091   1.764   8.402
 1004POPC   C3B17577   2.308   1.569   8.061
 1004POPC   C4B17578   2.659   1.594   7.726
 1005POPC   NC317579  25.166  33.879   9.584
 1005POPC   PO417580  25.496  33.456   9.484
 1005POPC   GL117581  25.287  33.693   9.111
 1005POPC   GL217582  25.233  34.058   9.111
 1005POPC   C1A17583  25.026  33.788   8.720
 1005POPC   D2A17584  25.048  34.006   8.300
 1005POPC   C3A17585  25.029  33.793   7.913
 1005POPC   C4A17586  24.864  33.859   7.502
 1005POPC   C1B17587  25.189  34.276   8.707
 1005POPC   C2B17588  25.421  34.352   8.303
 1005POPC   C3B17589  25.325  34.211   7.881
 1005POPC   C4B17590  25.480  33.850   7.639
 1006POPC   NC317591  23.054  43.338   9.498
 1006POPC   PO417592  22.805  42.707   9.435
 1006POPC   GL117593  22.873  43.038   9.106
 1006POPC   GL217594  22.566  43.241   8.992
 1006POPC   C1A17595  22.863  43.042   8.653
 1006POPC   D2A17596  22.760  42.852   8.315
 1006POPC   C3A17597  22.855  43.042   7.981
 1006POPC   C4A17598  23.152  42.777   7.760
 1006POPC   C1B17599  22.420  42.824   8.732
 1006POPC   C2B17600  22.278  42.718   8.279
 1006POPC   C3B17601  22.553  42.667   7.869
 1006POPC   C4B17602  22.626  42.975   7.499
 1007POPC   NC317603   7.592  14.377   9.576
 1007POPC   PO417604   6.969  14.265   9.500
 1007POPC   GL117605   7.207  14.198   9.161
 1007POPC   GL217606   7.296  14.527   9.166
 1007POPC   C1A17607   7.451  14.249   8.773
 1007POPC   D2A17608   7.299  14.463   8.392
 1007POPC   C3A17609   7.483  14.366   7.994
 1007POPC   C4A17610   7.411  14.024   7.711
 1007POPC   C1B17611   7.081  14.730   8.811
 1007POPC   C2B17612   6.871  14.739   8.392
 1007POPC   C3B17613   6.998  14.577   7.980
 1007POPC   C4B17614   7.056  14.800   7.610
 1008POPC   NC317615   3.436  25.564   9.346
 1008POPC   PO417616   3.828  26.167   9.404
 1008POPC   GL117617   3.494  26.072   9.125
 1008POPC   GL217618   3.136  26.080   9.266
 1008POPC   C1A17619   3.635  26.100   8.698
 1008POPC   D2A17620   3.679  25.858   8.316
 1008POPC   C3A17621   3.627  26.099   7.953
 1008POPC   C4A17622   3.692  25.933   7.555
 1008POPC   C1B17623   3.088  25.871   8.861
 1008POPC   C2B17624   3.201  25.969   8.473
 1008POPC   C3B17625   3.178  25.835   8.103
 1008POPC   C4B17626   3.155  26.026   7.738
 1009POPC   NC317627   0.272  22.323   9.698
 1009POPC   PO417628   0.822  21.959   9.613
 1009POPC   GL117629   0.486  22.148   9.249
 1009POPC   GL217630   0.390  21.877   9.059
 1009POPC   C1A17631   0.375  22.287   8.756
 1009POPC   D2A17632   0.532  22.138   8.313
 1009POPC   C3A17633   0.346  22.363   7.974
 1009POPC   C4A17634   0.043  22.238   7.687
 1009POPC   C1B17635   0.379  21.801   8.657
 1009POPC   C2B17636   0.133  21.807   8.310
 1009POPC   C3B17637   0.254  21.854   7.917
 1009POPC   C4B17638   0.659  22.026   7.769
 1010POPC   NC317639   8.921  33.307   9.409
 1010POPC   PO417640   9.122  32.608   9.572
 1010POPC   GL117641   8.846  32.802   9.212
 1010POPC   GL217642   8.767  33.087   8.987
 1010POPC   C1A17643   8.637  32.625   8.851
 1010POPC   D2A17644   8.535  32.867   8.508
 1010POPC   C3A17645   8.857  32.939   8.178
 1010POPC   C4A17646   9.125  33.067   7.837
 1010POPC   C1B17647   9.022  33.095   8.635
 1010POPC   C2B17648   9.119  33.369   8.288
 1010POPC   C3B17649   9.366  33.552   7.950
 1010POPC   C4B17650   9.608  33.541   7.555
 1011POPC   NC317651   2.344  16.179   9.451
 1011POPC   PO417652   1.905  15.739   9.813
 1011POPC   GL117653   2.045  15.760   9.335
 1011POPC   GL217654   2.368  15.634   9.178
 1011POPC   C1A17655   2.035  15.983   8.902
 1011POPC   D2A17656   2.090  15.918   8.451
 1011POPC   C3A17657   1.852  16.081   8.110
 1011POPC   C4A17658   1.883  15.921   7.698
 1011POPC   C1B17659   2.502  15.770   8.723
 1011POPC   C2B17660   2.496  15.689   8.245
 1011POPC   C3B17661   2.362  15.799   7.799
 1011POPC   C4B17662   2.542  15.820   7.357
 1012POPC   NC317663  20.975   3.966   9.463
 1012POPC   PO417664  20.595   3.436   9.653
 1012POPC   GL117665  20.643   3.615   9.268
 1012POPC   GL217666  20.647   3.277   9.175
 1012POPC   C1A17667  20.529   3.638   8.830
 1012POPC   D2A17668  20.316   3.820   8.500
 1012POPC   C3A17669  20.421   3.693   8.100
 1012POPC   C4A17670  20.447   3.452   7.732
 1012POPC   C1B17671  20.632   3.136   8.786
 1012POPC   C2B17672  20.711   3.192   8.388
 1012POPC   C3B17673  20.514   3.048   8.080
 1012POPC   C4B17674  20.672   2.985   7.704
 1013POPC   NC317675  32.388  20.220   9.611
 1013POPC   PO417676  32.245  20.848   9.525
 1013POPC   GL117677  32.330  20.647   9.150
 1013POPC   GL217678  32.618  20.882   9.091
 1013POPC   C1A17679  32.137  20.433   8.782
 1013POPC   D2A17680  31.921  20.355   8.372
 1013POPC   C3A17681  32.196  20.291   8.025
 1013POPC   C4A17682  32.479  20.618   7.822
 1013POPC   C1B17683  32.472  20.869   8.691
 1013POPC   C2B17684  32.352  20.875   8.288
 1013POPC   C3B17685  32.030  20.768   8.041
 1013POPC   C4B17686  31.937  20.568   7.690
 1014POPC   NC317687  32.492  24.030   9.483
 1014POPC   PO417688  32.008  23.655   9.652
 1014POPC   GL117689  32.077  23.825   9.227
 1014POPC   GL217690  32.176  23.497   9.137
 1014POPC   C1A17691  32.231  23.855   8.764
 1014POPC   D2A17692  32.306  23.653   8.326
 1014POPC   C3A17693  32.305  23.952   7.954
 1014POPC   C4A17694  32.465  24.021   7.517
 1014POPC   C1B17695  31.787  23.556   8.878
 1014POPC   C2B17696  31.800  23.669   8.440
 1014POPC   C3B17697  31.908  23.586   7.976
 1014POPC   C4B17698  32.031  23.766   7.576
 1015POPC   NC317699  15.515  34.302   9.379
 1015POPC   PO417700  16.105  34.599   9.441
 1015POPC   GL117701  16.083  34.609   9.035
 1015POPC   GL217702  15.880  34.328   9.028
 1015POPC   C1A17703  16.259  34.409   8.685
 1015POPC   D2A17704  16.061  34.466   8.303
 1015POPC   C3A17705  16.087  34.812   8.086
 1015POPC   C4A17706  16.143  34.656   7.702
 1015POPC   C1B17707  15.689  34.548   8.685
 1015POPC   C2B17708  15.579  34.726   8.297
 1015POPC   C3B17709  15.679  34.550   7.905
 1015POPC   C4B17710  15.672  34.605   7.470
 1016POPC   NC317711  30.120   1.895   9.754
 1016POPC   PO417712  29.666   2.221   9.681
 1016POPC   GL117713  29.917   2.122   9.264
 1016POPC   GL217714  30.007   1.781   9.140
 1016POPC   C1A17715  30.114   2.160   8.803
 1016POPC   D2A17716  30.170   1.927   8.383
 1016POPC   C3A17717  30.080   2.030   7.927
 1016POPC   C4A17718  30.245   2.294   7.587
 1016POPC   C1B17719  29.768   1.801   8.700
 1016POPC   C2B17720  29.664   1.936   8.234
 1016POPC   C3B17721  29.592   1.990   7.751
 1016POPC   C4B17722  29.542   2.041   7.277
 1017POPC   NC317723  41.988  33.198   9.557
 1017POPC   PO417724  42.391  32.808   9.460
 1017POPC   GL117725  42.476  32.876   9.032
 1017POPC   GL217726  42.524  32.529   8.932
 1017POPC   C1A17727  42.354  32.927   8.589
 1017POPC   D2A17728  42.547  32.770   8.180
 1017POPC   C3A17729  42.254  32.906   7.886
 1017POPC   C4A17730  42.066  33.261   7.651
 1017POPC   C1B17731  42.816  32.756   8.654
 1017POPC   C2B17732  42.785  33.167   8.429
 1017POPC   C3B17733  42.638  33.246   7.999
 1017POPC   C4B17734  42.731  32.922   7.694
 1018POPC   NC317735  25.039  11.152   9.475
 1018POPC   PO417736  25.662  11.264   9.532
 1018POPC   GL117737  25.396  11.445   9.212
 1018POPC   GL217738  25.617  11.608   8.994
 1018POPC   C1A17739  25.073  11.427   8.885
 1018POPC   D2A17740  25.069  11.229   8.497
 1018POPC   C3A17741  25.012  11.430   8.119
 1018POPC   C4A17742  25.064  11.273   7.729
 1018POPC   C1B17743  25.531  11.202   8.766
 1018POPC   C2B17744  25.619  11.223   8.311
 1018POPC   C3B17745  25.544  11.364   7.878
 1018POPC   C4B17746  25.523  11.424   7.408
 1019POPC   NC317747   9.153  18.261   9.513
 1019POPC   PO417748   8.525  18.329   9.640
 1019POPC   GL117749   8.713  18.165   9.214
 1019POPC   GL217750   9.018  17.939   9.156
 1019POPC   C1A17751   8.941  18.292   8.800
 1019POPC   D2A17752   8.829  18.523   8.461
 1019POPC   C3A17753   8.985  18.403   8.073
 1019POPC   C4A17754   8.797  18.572   7.702
 1019POPC   C1B17755   8.751  17.834   8.793
 1019POPC   C2B17756   8.880  17.958   8.395
 1019POPC   C3B17757   8.705  17.979   8.006
 1019POPC   C4B17758   8.889  18.070   7.645
 1020POPC   NC317759  37.287  28.140   9.531
 1020POPC   PO417760  37.614  27.562   9.485
 1020POPC   GL117761  37.682  27.783   9.116
 1020POPC   GL217762  37.361  27.869   9.113
 1020POPC   C1A17763  37.850  27.700   8.683
 1020POPC   D2A17764  37.815  27.373   8.401
 1020POPC   C3A17765  37.765  27.424   7.977
 1020POPC   C4A17766  37.768  27.053   7.678
 1020POPC   C1B17767  37.350  27.689   8.716
 1020POPC   C2B17768  37.445  27.773   8.315
 1020POPC   C3B17769  37.246  27.583   7.966
 1020POPC   C4B17770  37.390  27.371   7.607
 1021POPC   NC317771  35.596  34.335   9.409
 1021POPC   PO417772  34.942  34.251   9.536
 1021POPC   GL117773  35.140  34.498   9.201
 1021POPC   GL217774  35.410  34.731   9.068
 1021POPC   C1A17775  35.161  34.404   8.759
 1021POPC   D2A17776  35.395  34.462   8.390
 1021POPC   C3A17777  35.211  34.507   8.029
 1021POPC   C4A17778  35.346  34.823   7.769
 1021POPC   C1B17779  35.710  34.471   8.795
 1021POPC   C2B17780  35.807  34.188   8.461
 1021POPC   C3B17781  35.845  34.322   8.049
 1021POPC   C4B17782  35.597  34.386   7.704
 1022POPC   NC317783  30.796   5.449   9.523
 1022POPC   PO417784  31.112   6.054   9.681
 1022POPC   GL117785  30.977   5.863   9.274
 1022POPC   GL217786  30.604   5.893   9.270
 1022POPC   C1A17787  30.908   5.723   8.837
 1022POPC   D2A17788  30.742   5.973   8.473
 1022POPC   C3A17789  30.895   5.989   8.058
 1022POPC   C4A17790  31.028   5.788   7.677
 1022POPC   C1B17791  30.427   5.906   8.856
 1022POPC   C2B17792  30.150   5.982   8.511
 1022POPC   C3B17793  30.355   6.081   8.135
 1022POPC   C4B17794  30.471   5.754   7.870
 1023POPC   NC317795  30.107  20.331   9.368
 1023POPC   PO417796  29.600  20.625   9.662
 1023POPC   GL117797  29.674  20.618   9.230
 1023POPC   GL217798  29.725  20.315   9.040
 1023POPC   C1A17799  29.772  20.772   8.806
 1023POPC   D2A17800  29.582  20.669   8.423
 1023POPC   C3A17801  29.775  20.833   8.084
 1023POPC   C4A17802  29.928  20.836   7.690
 1023POPC   C1B17803  30.037  20.315   8.741
 1023POPC   C2B17804  30.025  20.442   8.341
 1023POPC   C3B17805  29.920  20.315   7.953
 1023POPC   C4B17806  29.876  20.331   7.513
 1024POPC   NC317807  33.352  33.133   9.356
 1024POPC   PO417808  33.928  33.340   9.624
 1024POPC   GL117809  33.898  33.190   9.188
 1024POPC   GL217810  33.975  32.836   9.174
 1024POPC   C1A17811  33.676  33.142   8.765
 1024POPC   D2A17812  33.689  32.982   8.326
 1024POPC   C3A17813  33.992  33.112   7.996
 1024POPC   C4A17814  33.955  33.214   7.558
 1024POPC   C1B17815  34.055  32.759   8.718
 1024POPC   C2B17816  33.920  32.517   8.331
 1024POPC   C3B17817  33.791  32.639   7.922
 1024POPC   C4B17818  34.069  32.683   7.590
 1025POPC   NC317819  10.184  38.782   9.976
 1025POPC   PO417820  10.465  38.365   9.488
 1025POPC   GL117821  10.496  38.254   9.131
 1025POPC   GL217822  10.479  38.553   8.999
 1025POPC   C1A17823  10.783  38.163   8.832
 1025POPC   D2A17824  10.849  38.275   8.424
 1025POPC   C3A17825  10.532  38.388   8.162
 1025POPC   C4A17826  10.628  38.164   7.770
 1025POPC   C1B17827  10.583  38.690   8.604
 1025POPC   C2B17828  10.859  38.779   8.279
 1025POPC   C3B17829  10.722  38.705   7.844
 1025POPC   C4B17830  10.268  38.662   7.801
 1026POPC   NC317831  32.247  31.428   9.497
 1026POPC   PO417832  32.446  32.056   9.419
 1026POPC   GL117833  32.235  31.799   9.125
 1026POPC   GL217834  32.444  31.478   9.029
 1026POPC   C1A17835  32.180  31.752   8.685
 1026POPC   D2A17836  31.974  31.527   8.383
 1026POPC   C3A17837  31.965  31.764   8.022
 1026POPC   C4A17838  32.298  31.696   7.719
 1026POPC   C1B17839  32.364  31.254   8.620
 1026POPC   C2B17840  32.250  31.101   8.209
 1026POPC   C3B17841  32.015  31.275   7.877
 1026POPC   C4B17842  32.098  31.300   7.434
 1027POPC   NC317843  40.679  41.002   9.465
 1027POPC   PO417844  40.975  40.394   9.429
 1027POPC   GL117845  40.970  40.631   9.078
 1027POPC   GL217846  40.631  40.632   9.096
 1027POPC   C1A17847  40.867  40.785   8.640
 1027POPC   D2A17848  40.861  40.991   8.233
 1027POPC   C3A17849  40.989  40.840   7.845
 1027POPC   C4A17850  40.965  41.035   7.443
 1027POPC   C1B17851  40.385  40.775   8.805
 1027POPC   C2B17852  40.333  40.960   8.435
 1027POPC   C3B17853  40.433  40.765   8.055
 1027POPC   C4B17854  40.573  40.592   7.690
 1028POPC   NC317855  19.943  28.231   9.703
 1028POPC   PO417856  19.395  28.194   9.511
 1028POPC   GL117857  19.835  28.373   9.230
 1028POPC   GL217858  20.140  28.134   9.218
 1028POPC   C1A17859  20.077  28.441   8.793
 1028POPC   D2A17860  19.854  28.349   8.366
 1028POPC   C3A17861  19.730  28.392   7.914
 1028POPC   C4A17862  19.929  28.602   7.592
 1028POPC   C1B17863  20.236  27.937   8.803
 1028POPC   C2B17864  20.332  28.147   8.412
 1028POPC   C3B17865  20.224  28.314   7.986
 1028POPC   C4B17866  20.079  28.057   7.608
 1029POPC   NC317867   9.929   2.154   9.421
 1029POPC   PO417868   9.554   1.613   9.402
 1029POPC   GL117869   9.725   1.836   9.058
 1029POPC   GL217870   9.693   2.203   8.981
 1029POPC   C1A17871   9.621   1.779   8.656
 1029POPC   D2A17872   9.751   1.803   8.228
 1029POPC   C3A17873   9.519   1.809   7.831
 1029POPC   C4A17874   9.631   2.146   7.544
 1029POPC   C1B17875   9.966   2.123   8.632
 1029POPC   C2B17876  10.095   2.213   8.224
 1029POPC   C3B17877  10.063   2.196   7.790
 1029POPC   C4B17878  10.118   2.156   7.320
 1030POPC   NC317879  26.684  35.603   9.551
 1030POPC   PO417880  26.323  35.167   9.270
 1030POPC   GL117881  26.615  35.468   9.044
 1030POPC   GL217882  26.941  35.629   9.108
 1030POPC   C1A17883  26.832  35.444   8.638
 1030POPC   D2A17884  27.024  35.159   8.362
 1030POPC   C3A17885  27.038  35.339   7.987
 1030POPC   C4A17886  26.710  35.575   7.927
 1030POPC   C1B17887  27.097  35.864   8.759
 1030POPC   C2B17888  26.907  35.888   8.331
 1030POPC   C3B17889  27.148  35.842   7.931
 1030POPC   C4B17890  27.111  35.599   7.537
 1031POPC   NC317891  17.009  10.900   9.499
 1031POPC   PO417892  16.596  10.349   9.544
 1031POPC   GL117893  16.682  10.585   9.135
 1031POPC   GL217894  16.652  10.935   9.111
 1031POPC   C1A17895  16.491  10.682   8.706
 1031POPC   D2A17896  16.424  10.558   8.280
 1031POPC   C3A17897  16.785  10.400   8.064
 1031POPC   C4A17898  16.961  10.078   7.790
 1031POPC   C1B17899  16.914  10.991   8.741
 1031POPC   C2B17900  16.817  10.893   8.320
 1031POPC   C3B17901  16.723  10.874   7.898
 1031POPC   C4B17902  17.048  10.796   7.582
 1032POPC   NC317903  24.246  21.606   9.418
 1032POPC   PO417904  24.200  22.273   9.525
 1032POPC   GL117905  24.293  22.272   9.117
 1032POPC   GL217906  24.164  21.964   9.095
 1032POPC   C1A17907  24.496  22.117   8.735
 1032POPC   D2A17908  24.522  22.347   8.361
 1032POPC   C3A17909  24.717  22.199   7.983
 1032POPC   C4A17910  24.820  21.793   7.821
 1032POPC   C1B17911  24.021  21.957   8.737
 1032POPC   C2B17912  24.233  21.919   8.349
 1032POPC   C3B17913  24.202  22.142   8.003
 1032POPC   C4B17914  24.363  21.987   7.676
 1033POPC   NC317915   9.626  42.722   9.485
 1033POPC   PO417916  10.148  43.057   9.576
 1033POPC   GL117917   9.897  43.074   9.192
 1033POPC   GL217918   9.550  43.188   9.214
 1033POPC   C1A17919  10.013  43.245   8.793
 1033POPC   D2A17920   9.826  43.426   8.436
 1033POPC   C3A17921   9.798  43.323   8.041
 1033POPC   C4A17922   9.805  43.178   7.641
 1033POPC   C1B17923   9.479  43.222   8.758
 1033POPC   C2B17924   9.397  43.138   8.303
 1033POPC   C3B17925   9.328  43.331   7.887
 1033POPC   C4B17926   9.364  43.366   7.411
 1034POPC   NC317927   1.019  43.167   9.611
 1034POPC   PO417928   1.592  43.442   9.826
 1034POPC   GL117929   1.431  43.271   9.359
 1034POPC   GL217930   1.305  42.902   9.296
 1034POPC   C1A17931   1.363  43.296   8.887
 1034POPC   D2A17932   1.302  43.110   8.445
 1034POPC   C3A17933   1.391  43.337   8.049
 1034POPC   C4A17934   1.346  43.163   7.613
 1034POPC   C1B17935   1.115  42.794   8.913
 1034POPC   C2B17936   0.857  42.848   8.549
 1034POPC   C3B17937   0.920  42.843   8.084
 1034POPC   C4B17938   1.126  42.698   7.698
 1035POPC   NC317939  28.200  38.638   9.662
 1035POPC   PO417940  28.445  37.995   9.573
 1035POPC   GL117941  28.485  38.365   9.235
 1035POPC   GL217942  28.758  38.629   9.138
 1035POPC   C1A17943  28.427  38.531   8.777
 1035POPC   D2A17944  28.696  38.600   8.386
 1035POPC   C3A17945  28.439  38.523   8.002
 1035POPC   C4A17946  28.278  38.109   7.843
 1035POPC   C1B17947  28.867  38.291   8.799
 1035POPC   C2B17948  29.060  38.202   8.403
 1035POPC   C3B17949  28.871  38.246   8.007
 1035POPC   C4B17950  28.721  38.338   7.606
 1036POPC   NC317951  21.043   9.459   9.249
 1036POPC   PO417952  21.582   9.845   9.539
 1036POPC   GL117953  21.432   9.835   9.149
 1036POPC   GL217954  21.389  10.174   9.138
 1036POPC   C1A17955  21.480   9.578   8.732
 1036POPC   D2A17956  21.214   9.603   8.384
 1036POPC   C3A17957  21.438   9.734   8.005
 1036POPC   C4A17958  21.462   9.493   7.604
 1036POPC   C1B17959  21.273  10.049   8.724
 1036POPC   C2B17960  21.227  10.115   8.317
 1036POPC   C3B17961  21.431  10.250   7.980
 1036POPC   C4B17962  21.159  10.166   7.666
 1037POPC   NC317963  17.659  31.798   9.505
 1037POPC   PO417964  17.132  31.396   9.389
 1037POPC   GL117965  17.447  31.604   9.073
 1037POPC   GL217966  17.814  31.526   9.091
 1037POPC   C1A17967  17.631  31.674   8.645
 1037POPC   D2A17968  17.637  31.932   8.266
 1037POPC   C3A17969  17.526  31.639   7.941
 1037POPC   C4A17970  17.328  31.258   7.816
 1037POPC   C1B17971  17.972  31.307   8.710
 1037POPC   C2B17972  17.814  31.351   8.286
 1037POPC   C3B17973  17.889  31.286   7.865
 1037POPC   C4B17974  17.694  31.421   7.465
 1038POPC   NC317975  40.406   4.600   9.723
 1038POPC   PO417976  41.045   4.511   9.495
 1038POPC   GL117977  40.893   4.535   9.089
 1038POPC   GL217978  40.763   4.230   9.108
 1038POPC   C1A17979  40.896   4.644   8.640
 1038POPC   D2A17980  40.613   4.704   8.278
 1038POPC   C3A17981  40.643   4.494   7.846
 1038POPC   C4A17982  41.059   4.327   7.656
 1038POPC   C1B17983  40.645   4.100   8.698
 1038POPC   C2B17984  40.554   4.188   8.268
 1038POPC   C3B17985  40.748   4.017   7.914
 1038POPC   C4B17986  40.644   4.011   7.473
 1039POPC   NC317987  37.915  19.120   9.571
 1039POPC   PO417988  37.272  19.011   9.313
 1039POPC   GL117989  37.655  18.934   9.131
 1039POPC   GL217990  37.839  19.240   9.086
 1039POPC   C1A17991  37.680  18.883   8.697
 1039POPC   D2A17992  37.513  19.089   8.343
 1039POPC   C3A17993  37.547  18.851   7.972
 1039POPC   C4A17994  37.469  19.007   7.594
 1039POPC   C1B17995  37.756  19.410   8.684
 1039POPC   C2B17996  37.900  19.423   8.268
 1039POPC   C3B17997  37.769  19.318   7.880
 1039POPC   C4B17998  37.968  19.081   7.539
 1040POPC   NC317999  39.625   9.126   9.322
 1040POPC   PO418000  39.006   8.955   9.505
 1040POPC   GL118001  39.219   8.882   9.140
 1040POPC   GL218002  39.478   8.630   9.224
 1040POPC   C1A18003  39.068   9.000   8.728
 1040POPC   D2A18004  38.912   9.180   8.341
 1040POPC   C3A18005  39.213   9.192   7.996
 1040POPC   C4A18006  39.453   9.284   7.620
 1040POPC   C1B18007  39.605   8.747   8.775
 1040POPC   C2B18008  39.493   8.995   8.383
 1040POPC   C3B18009  39.611   8.889   7.916
 1040POPC   C4B18010  39.808   8.760   7.498
 1041POPC   NC318011  31.607   4.006   9.582
 1041POPC   PO418012  31.599   4.594   9.575
 1041POPC   GL118013  31.424   4.424   9.221
 1041POPC   GL218014  31.215   4.084   9.247
 1041POPC   C1A18015  31.498   4.587   8.820
 1041POPC   D2A18016  31.354   4.483   8.402
 1041POPC   C3A18017  31.534   4.532   7.991
 1041POPC   C4A18018  31.249   4.541   7.653
 1041POPC   C1B18019  31.387   4.088   8.821
 1041POPC   C2B18020  31.346   3.982   8.375
 1041POPC   C3B18021  31.230   4.108   7.979
 1041POPC   C4B18022  31.546   4.112   7.666
 1042POPC   NC318023  40.376  29.533   9.172
 1042POPC   PO418024  39.780  29.695   9.394
 1042POPC   GL118025  39.883  29.858   9.014
 1042POPC   GL218026  40.185  30.004   9.055
 1042POPC   C1A18027  39.924  29.823   8.584
 1042POPC   D2A18028  39.873  29.651   8.212
 1042POPC   C3A18029  39.898  29.878   7.873
 1042POPC   C4A18030  40.031  29.945   7.487
 1042POPC   C1B18031  40.434  29.974   8.657
 1042POPC   C2B18032  40.593  29.909   8.235
 1042POPC   C3B18033  40.436  29.974   7.828
 1042POPC   C4B18034  40.468  30.191   7.444
 1043POPC   NC318035   7.092  26.621   9.715
 1043POPC   PO418036   7.396  27.175   9.499
 1043POPC   GL118037   7.534  27.029   9.128
 1043POPC   GL218038   7.398  26.729   9.144
 1043POPC   C1A18039   7.697  26.909   8.719
 1043POPC   D2A18040   7.736  27.081   8.285
 1043POPC   C3A18041   7.357  27.056   8.027
 1043POPC   C4A18042   7.064  27.065   7.707
 1043POPC   C1B18043   7.254  26.650   8.707
 1043POPC   C2B18044   7.237  26.625   8.248
 1043POPC   C3B18045   7.304  26.557   7.806
 1043POPC   C4B18046   7.703  26.470   7.570
 1044POPC   NC318047  16.805  14.177   9.388
 1044POPC   PO418048  16.313  14.639   9.536
 1044POPC   GL118049  16.498  14.562   9.130
 1044POPC   GL218050  16.845  14.582   9.063
 1044POPC   C1A18051  16.519  14.298   8.746
 1044POPC   D2A18052  16.374  14.182   8.324
 1044POPC   C3A18053  16.579  14.298   7.951
 1044POPC   C4A18054  16.396  14.620   7.720
 1044POPC   C1B18055  16.922  14.621   8.632
 1044POPC   C2B18056  16.859  14.680   8.205
 1044POPC   C3B18057  17.044  14.549   7.819
 1044POPC   C4B18058  16.954  14.689   7.403
 1045POPC   NC318059   0.584   7.843   9.407
 1045POPC   PO418060   0.466   8.451   9.527
 1045POPC   GL118061   0.330   8.252   9.147
 1045POPC   GL218062   0.243   7.894   9.024
 1045POPC   C1A18063   0.275   8.425   8.762
 1045POPC   D2A18064   0.434   8.430   8.370
 1045POPC   C3A18065   0.211   8.656   8.107
 1045POPC   C4A18066   0.058   8.431   7.777
 1045POPC   C1B18067   0.578   8.017   8.714
 1045POPC   C2B18068   0.695   8.007   8.246
 1045POPC   C3B18069   0.538   8.127   7.846
 1045POPC   C4B18070   0.384   7.955   7.450
 1046POPC   NC318071   6.800  28.220   9.567
 1046POPC   PO418072   6.895  28.717   9.221
 1046POPC   GL118073   6.675  28.391   9.087
 1046POPC   GL218074   7.008  28.196   9.097
 1046POPC   C1A18075   6.424  28.391   8.692
 1046POPC   D2A18076   6.487  28.378   8.247
 1046POPC   C3A18077   6.722  28.775   8.149
 1046POPC   C4A18078   6.830  28.897   7.730
 1046POPC   C1B18079   6.865  28.120   8.683
 1046POPC   C2B18080   6.972  28.230   8.272
 1046POPC   C3B18081   6.885  28.370   7.876
 1046POPC   C4B18082   6.875  28.119   7.558
 1047POPC   NC318083  21.156  39.823   9.475
 1047POPC   PO418084  20.495  39.773   9.435
 1047POPC   GL118085  20.517  39.928   9.048
 1047POPC   GL218086  20.843  40.018   9.052
 1047POPC   C1A18087  20.584  39.807   8.633
 1047POPC   D2A18088  20.724  39.805   8.231
 1047POPC   C3A18089  20.527  39.688   7.844
 1047POPC   C4A18090  20.745  39.613   7.396
 1047POPC   C1B18091  20.758  40.281   8.690
 1047POPC   C2B18092  20.562  40.261   8.308
 1047POPC   C3B18093  20.674  40.187   7.879
 1047POPC   C4B18094  20.572  40.441   7.535
 1048POPC   NC318095   2.296  17.797   9.436
 1048POPC   PO418096   1.951  17.240   9.481
 1048POPC   GL118097   2.204  17.374   9.111
 1048POPC   GL218098   2.194  17.755   8.958
 1048POPC   C1A18099   2.132  17.351   8.669
 1048POPC   D2A18100   2.234  17.625   8.346
 1048POPC   C3A18101   2.222  17.340   8.015
 1048POPC   C4A18102   1.999  17.373   7.669
 1048POPC   C1B18103   1.767  17.631   8.891
 1048POPC   C2B18104   1.676  17.514   8.468
 1048POPC   C3B18105   1.809  17.632   8.089
 1048POPC   C4B18106   1.618  17.874   7.822
 1049POPC   NC318107  15.092  40.788   9.422
 1049POPC   PO418108  15.317  41.415   9.515
 1049POPC   GL118109  15.295  41.125   9.092
 1049POPC   GL218110  15.476  40.772   9.071
 1049POPC   C1A18111  15.028  40.822   8.783
 1049POPC   D2A18112  15.017  40.587   8.385
 1049POPC   C3A18113  14.863  40.768   8.020
 1049POPC   C4A18114  14.915  40.863   7.576
 1049POPC   C1B18115  15.480  40.706   8.601
 1049POPC   C2B18116  15.511  40.743   8.162
 1049POPC   C3B18117  15.322  40.625   7.790
 1049POPC   C4B18118  15.356  40.721   7.356
 1050POPC   NC318119  12.296  18.300   9.548
 1050POPC   PO418120  11.677  18.717   9.502
 1050POPC   GL118121  11.839  18.497   9.134
 1050POPC   GL218122  11.983  18.230   9.155
 1050POPC   C1A18123  12.089  18.588   8.741
 1050POPC   D2A18124  12.372  18.543   8.393
 1050POPC   C3A18125  12.268  18.420   7.980
 1050POPC   C4A18126  11.953  18.519   7.671
 1050POPC   C1B18127  11.873  18.113   8.787
 1050POPC   C2B18128  12.035  18.160   8.409
 1050POPC   C3B18129  12.121  17.924   8.080
 1050POPC   C4B18130  12.110  18.039   7.636
 1051POPC   NC318131  21.779   3.321   9.483
 1051POPC   PO418132  22.285   3.746   9.471
 1051POPC   GL118133  22.180   3.468   9.116
 1051POPC   GL218134  21.855   3.425   8.987
 1051POPC   C1A18135  22.300   3.405   8.692
 1051POPC   D2A18136  22.259   3.668   8.334
 1051POPC   C3A18137  22.270   3.534   7.930
 1051POPC   C4A18138  22.274   3.746   7.534
 1051POPC   C1B18139  21.805   3.520   8.548
 1051POPC   C2B18140  21.765   3.747   8.159
 1051POPC   C3B18141  21.827   3.609   7.734
 1051POPC   C4B18142  21.927   3.170   7.718
 1052POPC   NC318143  27.176   8.468   9.375
 1052POPC   PO418144  26.637   8.025   9.442
 1052POPC   GL118145  26.805   8.188   9.076
 1052POPC   GL218146  27.148   8.045   9.073
 1052POPC   C1A18147  26.579   8.172   8.669
 1052POPC   D2A18148  26.422   7.941   8.310
 1052POPC   C3A18149  26.486   8.082   7.900
 1052POPC   C4A18150  26.565   8.326   7.518
 1052POPC   C1B18151  27.119   8.285   8.678
 1052POPC   C2B18152  26.867   8.386   8.296
 1052POPC   C3B18153  26.956   8.283   7.864
 1052POPC   C4B18154  27.178   7.936   7.680
 1053POPC   NC318155   0.903  20.412   9.984
 1053POPC   PO418156   1.433  20.703   9.711
 1053POPC   GL118157   1.344  20.500   9.225
 1053POPC   GL218158   1.242  20.770   9.074
 1053POPC   C1A18159   1.221  20.327   8.774
 1053POPC   D2A18160   1.196  20.099   8.343
 1053POPC   C3A18161   0.994  20.269   7.952
 1053POPC   C4A18162   1.059  20.683   7.713
 1053POPC   C1B18163   1.350  20.826   8.696
 1053POPC   C2B18164   1.278  20.863   8.284
 1053POPC   C3B18165   1.408  21.056   7.932
 1053POPC   C4B18166   1.400  21.031   7.489
 1054POPC   NC318167  43.548  30.693   9.355
 1054POPC   PO418168  43.094  31.059   9.747
 1054POPC   GL118169  43.005  30.954   9.294
 1054POPC   GL218170  42.968  30.594   9.222
 1054POPC   C1A18171  43.198  30.909   8.847
 1054POPC   D2A18172  43.441  30.648   8.542
 1054POPC   C3A18173  43.295  30.503   8.103
 1054POPC   C4A18174  43.294  30.735   7.739
 1054POPC   C1B18175  42.809  30.600   8.762
 1054POPC   C2B18176  42.930  30.774   8.360
 1054POPC   C3B18177  42.797  30.637   7.933
 1054POPC   C4B18178  42.911  30.477   7.480
 1055POPC   NC318179   0.149  25.505   9.554
 1055POPC   PO418180   0.714  25.184   9.509
 1055POPC   GL118181   0.600  25.055   9.103
 1055POPC   GL218182   0.277  25.228   9.119
 1055POPC   C1A18183   0.627  25.250   8.674
 1055POPC   D2A18184   0.702  25.439   8.290
 1055POPC   C3A18185   0.751  25.258   7.860
 1055POPC   C4A18186   0.706  25.434   7.432
 1055POPC   C1B18187   0.212  24.980   8.736
 1055POPC   C2B18188   0.228  25.226   8.337
 1055POPC   C3B18189   0.278  25.456   7.943
 1055POPC   C4B18190   0.302  25.166   7.603
 1056POPC   NC318191  40.997  44.344   9.841
 1056POPC   PO418192  40.769  44.811   9.384
 1056POPC   GL118193  40.967  44.725   9.022
 1056POPC   GL218194  40.642  44.728   8.907
 1056POPC   C1A18195  40.978  44.442   8.693
 1056POPC   D2A18196  40.917  44.637   8.329
 1056POPC   C3A18197  40.964  44.377   8.012
 1056POPC   C4A18198  41.178  44.388   7.662
 1056POPC   C1B18199  40.442  44.710   8.573
 1056POPC   C2B18200  40.447  44.785   8.195
 1056POPC   C3B18201  40.489  44.636   7.832
 1056POPC   C4B18202  40.605  44.833   7.479
 1057POPC   NC318203  13.636  22.605   9.823
 1057POPC   PO418204  13.642  23.224   9.452
 1057POPC   GL118205  13.435  23.148   9.132
 1057POPC   GL218206  13.747  23.024   8.941
 1057POPC   C1A18207  13.285  23.031   8.787
 1057POPC   D2A18208  13.564  22.935   8.473
 1057POPC   C3A18209  13.453  22.977   8.094
 1057POPC   C4A18210  13.249  23.100   7.725
 1057POPC   C1B18211  14.006  22.772   8.693
 1057POPC   C2B18212  14.123  22.541   8.337
 1057POPC   C3B18213  13.957  22.494   7.919
 1057POPC   C4B18214  13.680  22.784   7.690
 1058POPC   NC318215   5.263  24.250   9.817
 1058POPC   PO418216   4.985  23.803   9.410
 1058POPC   GL118217   5.303  23.711   9.078
 1058POPC   GL218218   5.068  23.787   8.871
 1058POPC   C1A18219   5.294  23.363   8.734
 1058POPC   D2A18220   5.260  23.193   8.302
 1058POPC   C3A18221   5.080  23.444   8.029
 1058POPC   C4A18222   5.182  23.465   7.628
 1058POPC   C1B18223   5.444  23.867   8.616
 1058POPC   C2B18224   5.456  23.754   8.195
 1058POPC   C3B18225   5.187  23.911   7.861
 1058POPC   C4B18226   4.879  24.230   7.811
 1059POPC   NC318227   4.561  34.718   9.944
 1059POPC   PO418228   4.373  34.352   9.355
 1059POPC   GL118229   4.439  34.668   9.061
 1059POPC   GL218230   4.099  34.620   8.931
 1059POPC   C1A18231   4.465  34.739   8.613
 1059POPC   D2A18232   4.497  34.448   8.325
 1059POPC   C3A18233   4.398  34.596   7.956
 1059POPC   C4A18234   4.074  34.587   7.689
 1059POPC   C1B18235   4.040  34.995   8.697
 1059POPC   C2B18236   4.197  35.039   8.278
 1059POPC   C3B18237   3.962  35.025   7.912
 1059POPC   C4B18238   4.067  35.170   7.471
 1060POPC   NC318239  28.929   9.011   9.187
 1060POPC   PO418240  28.468   9.277   9.654
 1060POPC   GL118241  28.368   9.111   9.228
 1060POPC   GL218242  28.464   8.802   9.110
 1060POPC   C1A18243  28.183   9.132   8.798
 1060POPC   D2A18244  28.194   9.007   8.356
 1060POPC   C3A18245  28.118   9.174   7.947
 1060POPC   C4A18246  28.112   8.801   7.641
 1060POPC   C1B18247  28.587   8.836   8.659
 1060POPC   C2B18248  28.669   8.765   8.231
 1060POPC   C3B18249  28.581   8.967   7.845
 1060POPC   C4B18250  28.803   9.184   7.546
 1061POPC   NC318251  22.516  37.870   9.628
 1061POPC   PO418252  23.165  37.681   9.544
 1061POPC   GL118253  22.838  37.667   9.210
 1061POPC   GL218254  22.746  37.976   9.174
 1061POPC   C1A18255  22.686  37.680   8.759
 1061POPC   D2A18256  22.771  37.436   8.378
 1061POPC   C3A18257  22.796  37.591   7.960
 1061POPC   C4A18258  22.991  37.381   7.629
 1061POPC   C1B18259  23.114  37.961   8.903
 1061POPC   C2B18260  23.170  38.006   8.456
 1061POPC   C3B18261  23.210  37.975   8.007
 1061POPC   C4B18262  23.032  37.873   7.582
 1062POPC   NC318263  32.433  44.337   9.525
 1062POPC   PO418264  32.180  43.656   9.511
 1062POPC   GL118265  32.236  43.930   9.184
 1062POPC   GL218266  32.102  44.237   9.155
 1062POPC   C1A18267  32.363  43.869   8.765
 1062POPC   D2A18268  32.291  44.041   8.359
 1062POPC   C3A18269  32.485  43.776   8.048
 1062POPC   C4A18270  32.685  43.868   7.681
 1062POPC   C1B18271  31.934  44.130   8.775
 1062POPC   C2B18272  31.794  43.871   8.456
 1062POPC   C3B18273  31.866  43.902   8.019
 1062POPC   C4B18274  31.767  44.303   7.810
 1063POPC   NC318275   0.890  16.556   9.726
 1063POPC   PO418276   1.401  16.912   9.698
 1063POPC   GL118277   1.292  16.732   9.280
 1063POPC   GL218278   0.983  16.601   9.228
 1063POPC   C1A18279   1.388  16.499   8.887
 1063POPC   D2A18280   1.551  16.646   8.482
 1063POPC   C3A18281   1.406  16.666   8.042
 1063POPC   C4A18282   1.263  16.515   7.627
 1063POPC   C1B18283   0.868  16.492   8.829
 1063POPC   C2B18284   1.035  16.569   8.425
 1063POPC   C3B18285   0.892  16.586   7.981
 1063POPC   C4B18286   0.740  16.376   7.604
 1064POPC   NC318287  32.810  37.235   9.505
 1064POPC   PO418288  33.291  37.644   9.630
 1064POPC   GL118289  33.136  37.745   9.210
 1064POPC   GL218290  33.046  37.459   9.031
 1064POPC   C1A18291  33.232  37.958   8.843
 1064POPC   D2A18292  33.139  37.658   8.518
 1064POPC   C3A18293  32.970  37.821   8.165
 1064POPC   C4A18294  33.077  38.007   7.798
 1064POPC   C1B18295  32.683  37.376   8.743
 1064POPC   C2B18296  32.766  37.350   8.324
 1064POPC   C3B18297  33.084  37.357   8.007
 1064POPC   C4B18298  32.846  37.556   7.704
 1065POPC   NC318299   3.390  40.992   9.783
 1065POPC   PO418300   3.299  40.411   9.416
 1065POPC   GL118301   3.562  40.626   9.097
 1065POPC   GL218302   3.567  40.915   8.806
 1065POPC   C1A18303   3.655  40.436   8.708
 1065POPC   D2A18304   3.815  40.662   8.364
 1065POPC   C3A18305   3.684  40.478   7.979
 1065POPC   C4A18306   3.675  40.538   7.533
 1065POPC   C1B18307   3.239  41.207   8.589
 1065POPC   C2B18308   3.091  41.127   8.183
 1065POPC   C3B18309   3.318  40.831   7.906
 1065POPC   C4B18310   3.336  40.945   7.478
 1066POPC   NC318311  22.977  22.657   9.561
 1066POPC   PO418312  22.468  22.981   9.547
 1066POPC   GL118313  22.615  22.730   9.204
 1066POPC   GL218314  22.992  22.812   9.084
 1066POPC   C1A18315  22.620  22.690   8.768
 1066POPC   D2A18316  22.839  22.994   8.517
 1066POPC   C3A18317  22.791  22.905   8.108
 1066POPC   C4A18318  22.703  23.108   7.701
 1066POPC   C1B18319  23.218  23.122   8.839
 1066POPC   C2B18320  23.286  23.251   8.385
 1066POPC   C3B18321  23.173  23.142   7.928
 1066POPC   C4B18322  23.097  22.854   7.550
 1067POPC   NC318323  31.576   5.874   9.913
 1067POPC   PO418324  31.252   5.386   9.485
 1067POPC   GL118325  31.466   5.665   9.219
 1067POPC   GL218326  31.699   5.472   9.057
 1067POPC   C1A18327  31.406   5.874   8.815
 1067POPC   D2A18328  31.218   5.745   8.393
 1067POPC   C3A18329  31.410   5.879   7.986
 1067POPC   C4A18330  31.535   5.929   7.527
 1067POPC   C1B18331  31.534   5.404   8.646
 1067POPC   C2B18332  31.625   5.442   8.240
 1067POPC   C3B18333  31.703   5.494   7.820
 1067POPC   C4B18334  31.499   5.416   7.442
 1068POPC   NC318335  28.737  27.555   9.483
 1068POPC   PO418336  28.095  27.629   9.521
 1068POPC   GL118337  28.323  27.650   9.166
 1068POPC   GL218338  28.401  27.337   9.155
 1068POPC   C1A18339  28.486  27.745   8.759
 1068POPC   D2A18340  28.213  27.806   8.409
 1068POPC   C3A18341  28.388  27.934   8.009
 1068POPC   C4A18342  28.698  27.769   7.750
 1068POPC   C1B18343  28.199  27.329   8.762
 1068POPC   C2B18344  28.390  27.296   8.363
 1068POPC   C3B18345  28.325  27.426   7.946
 1068POPC   C4B18346  28.046  27.290   7.640
 1069POPC   NC318347  26.528  42.604   9.588
 1069POPC   PO418348  27.011  42.180   9.712
 1069POPC   GL118349  26.838  42.248   9.307
 1069POPC   GL218350  26.818  41.915   9.234
 1069POPC   C1A18351  26.754  42.288   8.851
 1069POPC   D2A18352  26.950  42.310   8.421
 1069POPC   C3A18353  26.756  42.517   8.041
 1069POPC   C4A18354  26.912  42.274   7.711
 1069POPC   C1B18355  27.000  41.845   8.826
 1069POPC   C2B18356  26.717  41.865   8.469
 1069POPC   C3B18357  26.564  42.068   8.124
 1069POPC   C4B18358  26.459  42.033   7.680
 1070POPC   NC318359  20.834  11.691   9.378
 1070POPC   PO418360  20.715  11.096   9.616
 1070POPC   GL118361  20.499  11.217   9.210
 1070POPC   GL218362  20.653  11.464   8.958
 1070POPC   C1A18363  20.331  11.088   8.834
 1070POPC   D2A18364  20.548  11.097   8.458
 1070POPC   C3A18365  20.383  11.196   8.073
 1070POPC   C4A18366  20.584  11.408   7.759
 1070POPC   C1B18367  20.252  11.597   8.770
 1070POPC   C2B18368  20.062  11.711   8.417
 1070POPC   C3B18369  20.225  11.682   8.047
 1070POPC   C4B18370  20.215  11.757   7.661
 1071POPC   NC318371   6.903  36.521   9.787
 1071POPC   PO418372   6.529  36.942   9.487
 1071POPC   GL118373   6.723  36.906   9.131
 1071POPC   GL218374   6.816  36.589   9.236
 1071POPC   C1A18375   6.867  37.117   8.768
 1071POPC   D2A18376   6.778  36.936   8.389
 1071POPC   C3A18377   6.531  37.102   8.061
 1071POPC   C4A18378   6.294  36.937   7.747
 1071POPC   C1B18379   6.730  36.476   8.818
 1071POPC   C2B18380   6.940  36.441   8.424
 1071POPC   C3B18381   6.731  36.532   8.070
 1071POPC   C4B18382   6.772  36.780   7.741
 1072POPC   NC318383  40.976  44.346   9.332
 1072POPC   PO418384  40.413  44.057   9.622
 1072POPC   GL118385  40.630  43.995   9.242
 1072POPC   GL218386  40.493  44.363   9.221
 1072POPC   C1A18387  40.835  43.913   8.831
 1072POPC   D2A18388  41.004  44.012   8.413
 1072POPC   C3A18389  40.826  43.755   8.113
 1072POPC   C4A18390  40.990  43.900   7.739
 1072POPC   C1B18391  40.415  44.258   8.806
 1072POPC   C2B18392  40.485  44.045   8.405
 1072POPC   C3B18393  40.516  44.129   7.952
 1072POPC   C4B18394  40.509  43.871   7.585
 1073POPC   NC318395  11.083  42.271   9.648
 1073POPC   PO418396  11.639  42.612   9.781
 1073POPC   GL118397  11.429  42.400   9.297
 1073POPC   GL218398  11.059  42.379   9.135
 1073POPC   C1A18399  11.437  42.580   8.846
 1073POPC   D2A18400  11.261  42.584   8.415
 1073POPC   C3A18401  11.495  42.396   8.035
 1073POPC   C4A18402  11.547  41.949   7.835
 1073POPC   C1B18403  10.914  42.219   8.738
 1073POPC   C2B18404  10.737  42.335   8.346
 1073POPC   C3B18405  10.953  42.466   7.999
 1073POPC   C4B18406  11.143  42.223   7.723
 1074POPC   NC318407  25.900  24.584   9.764
 1074POPC   PO418408  26.310  24.118   9.481
 1074POPC   GL118409  26.136  24.327   9.140
 1074POPC   GL218410  25.793  24.395   9.211
 1074POPC   C1A18411  26.207  24.508   8.745
 1074POPC   D2A18412  26.295  24.304   8.401
 1074POPC   C3A18413  26.082  24.457   8.048
 1074POPC   C4A18414  26.023  24.681   7.692
 1074POPC   C1B18415  25.705  24.619   8.811
 1074POPC   C2B18416  25.695  24.519   8.394
 1074POPC   C3B18417  25.640  24.777   8.030
 1074POPC   C4B18418  25.535  24.696   7.610
 1075POPC   NC318419  37.133  22.689   9.498
 1075POPC   PO418420  36.618  23.000   9.494
 1075POPC   GL118421  36.820  22.882   9.124
 1075POPC   GL218422  37.175  22.933   9.023
 1075POPC   C1A18423  36.754  23.026   8.704
 1075POPC   D2A18424  36.893  22.891   8.314
 1075POPC   C3A18425  36.816  23.117   7.956
 1075POPC   C4A18426  36.852  22.801   7.651
 1075POPC   C1B18427  37.197  23.280   8.674
 1075POPC   C2B18428  37.257  23.250   8.187
 1075POPC   C3B18429  37.283  23.068   7.736
 1075POPC   C4B18430  37.209  23.279   7.280
 1076POPC   NC318431  16.568  40.986   9.543
 1076POPC   PO418432  16.955  40.496   9.530
 1076POPC   GL118433  16.861  40.700   9.153
 1076POPC   GL218434  16.800  41.027   9.088
 1076POPC   C1A18435  16.661  40.669   8.754
 1076POPC   D2A18436  16.596  40.484   8.364
 1076POPC   C3A18437  16.760  40.713   8.015
 1076POPC   C4A18438  16.500  40.600   7.692
 1076POPC   C1B18439  16.921  41.217   8.741
 1076POPC   C2B18440  17.047  41.092   8.334
 1076POPC   C3B18441  16.824  41.255   7.987
 1076POPC   C4B18442  16.699  41.104   7.611
 1077POPC   NC318443   9.138  26.408   9.453
 1077POPC   PO418444   8.680  25.880   9.663
 1077POPC   GL118445   8.873  25.840   9.230
 1077POPC   GL218446   8.928  26.162   9.069
 1077POPC   C1A18447   8.840  25.758   8.779
 1077POPC   D2A18448   9.044  25.967   8.434
 1077POPC   C3A18449   8.954  25.798   8.026
 1077POPC   C4A18450   8.861  25.921   7.598
 1077POPC   C1B18451   8.955  26.421   8.708
 1077POPC   C2B18452   9.109  26.475   8.295
 1077POPC   C3B18453   9.007  26.313   7.903
 1077POPC   C4B18454   9.272  26.205   7.568
 1078POPC   NC318455  24.071  38.328   9.432
 1078POPC   PO418456  23.439  38.659   9.490
 1078POPC   GL118457  23.661  38.538   9.171
 1078POPC   GL218458  23.641  38.236   9.071
 1078POPC   C1A18459  23.919  38.584   8.826
 1078POPC   D2A18460  23.853  38.764   8.424
 1078POPC   C3A18461  24.131  38.727   8.082
 1078POPC   C4A18462  23.977  38.579   7.695
 1078POPC   C1B18463  23.451  38.346   8.722
 1078POPC   C2B18464  23.475  38.418   8.325
 1078POPC   C3B18465  23.591  38.310   7.931
 1078POPC   C4B18466  23.319  38.272   7.570
 1079POPC   NC318467  33.655   4.895   9.481
 1079POPC   PO418468  33.738   5.412   9.363
 1079POPC   GL118469  33.678   5.119   8.993
 1079POPC   GL218470  33.834   4.794   9.009
 1079POPC   C1A18471  33.541   4.898   8.591
 1079POPC   D2A18472  33.739   4.770   8.191
 1079POPC   C3A18473  33.650   4.995   7.805
 1079POPC   C4A18474  33.803   5.246   7.466
 1079POPC   C1B18475  34.042   4.963   8.623
 1079POPC   C2B18476  34.237   4.842   8.216
 1079POPC   C3B18477  34.174   4.925   7.760
 1079POPC   C4B18478  34.193   4.932   7.297
 1080POPC   NC318479   4.902   3.306   9.443
 1080POPC   PO418480   4.286   3.090   9.454
 1080POPC   GL118481   4.348   3.272   9.067
 1080POPC   GL218482   4.546   3.553   9.169
 1080POPC   C1A18483   4.307   3.236   8.619
 1080POPC   D2A18484   4.059   3.190   8.255
 1080POPC   C3A18485   4.282   3.358   7.928
 1080POPC   C4A18486   4.407   3.248   7.509
 1080POPC   C1B18487   4.425   3.719   8.778
 1080POPC   C2B18488   4.418   3.674   8.324
 1080POPC   C3B18489   4.234   3.860   7.929
 1080POPC   C4B18490   4.155   3.702   7.492
 1081POPC   NC318491  44.153   7.140   9.568
 1081POPC   PO418492  43.520   7.117   9.429
 1081POPC   GL118493  43.733   7.372   9.134
 1081POPC   GL218494  43.905   7.680   9.239
 1081POPC   C1A18495  43.930   7.264   8.758
 1081POPC   D2A18496  44.152   7.097   8.418
 1081POPC   C3A18497  43.964   7.204   8.064
 1081POPC   C4A18498  43.920   7.099   7.684
 1081POPC   C1B18499  44.012   7.770   8.807
 1081POPC   C2B18500  43.873   7.612   8.379
 1081POPC   C3B18501  43.992   7.673   7.914
 1081POPC   C4B18502  44.057   7.599   7.454
 1082POPC   NC318503  36.357  34.458   9.638
 1082POPC   PO418504  35.802  34.739   9.389
 1082POPC   GL118505  36.151  34.638   9.152
 1082POPC   GL218506  36.103  34.300   9.221
 1082POPC   C1A18507  36.154  34.742   8.715
 1082POPC   D2A18508  35.858  34.755   8.372
 1082POPC   C3A18509  36.097  34.770   8.020
 1082POPC   C4A18510  36.163  34.526   7.658
 1082POPC   C1B18511  36.180  34.234   8.801
 1082POPC   C2B18512  36.261  34.364   8.361
 1082POPC   C3B18513  36.326  34.133   7.977
 1082POPC   C4B18514  36.479  34.159   7.568
 1083POPC   NC318515  28.000  37.980   9.455
 1083POPC   PO418516  27.747  37.340   9.554
 1083POPC   GL118517  27.670  37.593   9.142
 1083POPC   GL218518  27.634  37.958   9.104
 1083POPC   C1A18519  27.520  37.621   8.700
 1083POPC   D2A18520  27.739  37.520   8.306
 1083POPC   C3A18521  27.485  37.509   7.952
 1083POPC   C4A18522  27.196  37.803   7.811
 1083POPC   C1B18523  27.772  38.060   8.679
 1083POPC   C2B18524  27.595  38.008   8.266
 1083POPC   C3B18525  27.693  37.996   7.829
 1083POPC   C4B18526  27.965  37.849   7.500
 1084POPC   NC318527  21.999  10.453   9.822
 1084POPC   PO418528  22.283  10.332   9.221
 1084POPC   GL118529  22.167  10.714   9.060
 1084POPC   GL218530  21.937  10.983   9.215
 1084POPC   C1A18531  22.328  10.684   8.646
 1084POPC   D2A18532  22.271  10.361   8.357
 1084POPC   C3A18533  22.337  10.600   8.008
 1084POPC   C4A18534  22.225  10.364   7.697
 1084POPC   C1B18535  21.812  10.982   8.786
 1084POPC   C2B18536  21.873  10.681   8.443
 1084POPC   C3B18537  21.847  10.547   8.057
 1084POPC   C4B18538  21.913  10.920   7.874
 1085POPC   NC318539  35.171  38.085   9.338
 1085POPC   PO418540  35.131  37.513   9.643
 1085POPC   GL118541  35.322  37.571   9.201
 1085POPC   GL218542  35.566  37.831   9.095
 1085POPC   C1A18543  35.430  37.502   8.738
 1085POPC   D2A18544  35.639  37.713   8.376
 1085POPC   C3A18545  35.578  37.601   7.952
 1085POPC   C4A18546  35.374  37.732   7.569
 1085POPC   C1B18547  35.446  38.007   8.731
 1085POPC   C2B18548  35.128  37.854   8.458
 1085POPC   C3B18549  35.164  37.902   8.027
 1085POPC   C4B18550  35.154  38.210   7.681
 1086POPC   NC318551   8.540  11.998   9.398
 1086POPC   PO418552   8.110  12.409   9.795
 1086POPC   GL118553   8.151  12.333   9.267
 1086POPC   GL218554   7.997  12.043   9.117
 1086POPC   C1A18555   8.376  12.362   8.812
 1086POPC   D2A18556   8.280  12.458   8.362
 1086POPC   C3A18557   8.503  12.208   8.065
 1086POPC   C4A18558   8.456  11.792   7.912
 1086POPC   C1B18559   7.881  12.292   8.769
 1086POPC   C2B18560   7.692  12.194   8.396
 1086POPC   C3B18561   7.974  12.118   8.099
 1086POPC   C4B18562   8.120  12.263   7.756
 1087POPC   NC318563  35.148  28.878   9.658
 1087POPC   PO418564  35.559  29.409   9.487
 1087POPC   GL118565  35.402  29.103   9.173
 1087POPC   GL218566  35.054  29.025   9.171
 1087POPC   C1A18567  35.347  28.908   8.739
 1087POPC   D2A18568  35.512  28.954   8.312
 1087POPC   C3A18569  35.319  29.135   7.987
 1087POPC   C4A18570  35.065  29.533   8.047
 1087POPC   C1B18571  34.980  29.255   8.791
 1087POPC   C2B18572  35.009  29.089   8.376
 1087POPC   C3B18573  34.803  29.103   7.942
 1087POPC   C4B18574  35.035  28.966   7.563
 1088POPC   NC318575   9.313  20.740   9.435
 1088POPC   PO418576   9.779  20.368   9.774
 1088POPC   GL118577   9.778  20.551   9.321
 1088POPC   GL218578  10.036  20.500   9.133
 1088POPC   C1A18579   9.626  20.655   8.871
 1088POPC   D2A18580   9.707  20.910   8.482
 1088POPC   C3A18581   9.605  20.739   8.071
 1088POPC   C4A18582   9.856  20.640   7.729
 1088POPC   C1B18583  10.119  20.690   8.770
 1088POPC   C2B18584  10.254  20.657   8.373
 1088POPC   C3B18585  10.245  20.814   8.000
 1088POPC   C4B18586  10.169  21.038   7.628
 1089POPC   NC318587   9.292   9.792   9.658
 1089POPC   PO418588   9.924   9.847   9.616
 1089POPC   GL118589   9.743   9.851   9.217
 1089POPC   GL218590   9.538  10.155   9.224
 1089POPC   C1A18591   9.893   9.692   8.818
 1089POPC   D2A18592   9.726   9.627   8.402
 1089POPC   C3A18593   9.836   9.462   8.006
 1089POPC   C4A18594   9.635   9.500   7.625
 1089POPC   C1B18595   9.782  10.220   8.824
 1089POPC   C2B18596  10.000  10.058   8.453
 1089POPC   C3B18597   9.849   9.979   8.030
 1089POPC   C4B18598   9.649   9.995   7.624
 1090POPC   NC318599  28.856   5.666   9.527
 1090POPC   PO418600  29.567   5.720   9.581
 1090POPC   GL118601  29.314   5.900   9.230
 1090POPC   GL218602  28.970   6.056   9.203
 1090POPC   C1A18603  29.358   5.739   8.787
 1090POPC   D2A18604  29.255   5.570   8.374
 1090POPC   C3A18605  29.082   5.749   7.998
 1090POPC   C4A18606  29.322   5.742   7.613
 1090POPC   C1B18607  29.123   6.193   8.822
 1090POPC   C2B18608  29.063   6.072   8.426
 1090POPC   C3B18609  29.167   6.255   8.072
 1090POPC   C4B18610  29.026   6.161   7.697
 1091POPC   NC318611   5.024  29.056   9.628
 1091POPC   PO418612   4.748  29.479   9.261
 1091POPC   GL118613   4.909  29.135   9.130
 1091POPC   GL218614   5.261  29.197   9.145
 1091POPC   C1A18615   4.955  29.071   8.712
 1091POPC   D2A18616   5.104  29.243   8.368
 1091POPC   C3A18617   5.009  28.978   8.060
 1091POPC   C4A18618   4.850  29.245   7.761
 1091POPC   C1B18619   5.471  29.120   8.710
 1091POPC   C2B18620   5.533  29.020   8.261
 1091POPC   C3B18621   5.395  29.215   7.848
 1091POPC   C4B18622   5.216  28.940   7.571
 1092POPC   NC318623  23.547   3.309   9.366
 1092POPC   PO418624  24.057   3.314   9.132
 1092POPC   GL118625  23.728   2.990   8.960
 1092POPC   GL218626  23.412   2.857   9.118
 1092POPC   C1A18627  23.653   2.632   8.665
 1092POPC   D2A18628  23.766   2.542   8.214
 1092POPC   C3A18629  23.726   2.900   7.933
 1092POPC   C4A18630  23.385   3.224   7.877
 1092POPC   C1B18631  23.167   2.805   8.721
 1092POPC   C2B18632  23.262   2.618   8.299
 1092POPC   C3B18633  23.271   2.705   7.855
 1092POPC   C4B18634  23.420   2.439   7.512
 1093POPC   NC318635   9.403  19.755   9.287
 1093POPC   PO418636   8.810  19.473   9.354
 1093POPC   GL118637   8.961  19.618   9.012
 1093POPC   GL218638   8.950  19.975   9.090
 1093POPC   C1A18639   8.807  19.732   8.622
 1093POPC   D2A18640   8.870  20.117   8.401
 1093POPC   C3A18641   8.990  20.012   8.001
 1093POPC   C4A18642   9.144  19.910   7.594
 1093POPC   C1B18643   9.249  20.001   8.728
 1093POPC   C2B18644   9.285  19.770   8.370
 1093POPC   C3B18645   9.455  19.812   8.005
 1093POPC   C4B18646   9.491  19.549   7.673
 1094POPC   NC318647  23.432   6.218   9.527
 1094POPC   PO418648  23.968   5.765   9.694
 1094POPC   GL118649  23.836   5.969   9.275
 1094POPC   GL218650  23.519   5.849   9.182
 1094POPC   C1A18651  23.849   6.097   8.802
 1094POPC   D2A18652  23.680   6.183   8.358
 1094POPC   C3A18653  23.790   5.875   8.012
 1094POPC   C4A18654  24.107   5.556   7.901
 1094POPC   C1B18655  23.410   5.813   8.760
 1094POPC   C2B18656  23.360   5.761   8.315
 1094POPC   C3B18657  23.477   5.496   7.930
 1094POPC   C4B18658  23.432   5.648   7.488
 1095POPC   NC318659   1.162   0.975   9.371
 1095POPC   PO418660   1.603   1.409   9.605
 1095POPC   GL118661   1.497   1.332   9.180
 1095POPC   GL218662   1.171   1.454   9.106
 1095POPC   C1A18663   1.443   1.157   8.746
 1095POPC   D2A18664   1.376   0.882   8.400
 1095POPC   C3A18665   1.464   1.015   8.011
 1095POPC   C4A18666   1.354   1.453   7.896
 1095POPC   C1B18667   1.043   1.534   8.700
 1095POPC   C2B18668   0.811   1.303   8.403
 1095POPC   C3B18669   0.953   1.122   8.047
 1095POPC   C4B18670   1.118   1.077   7.629
 1096POPC   NC318671  17.829   6.077   9.635
 1096POPC   PO418672  18.333   5.825   9.622
 1096POPC   GL118673  18.416   5.874   9.163
 1096POPC   GL218674  18.057   5.867   9.092
 1096POPC   C1A18675  18.347   6.087   8.721
 1096POPC   D2A18676  18.150   6.077   8.290
 1096POPC   C3A18677  18.379   5.919   7.914
 1096POPC   C4A18678  18.599   5.537   7.944
 1096POPC   C1B18679  17.992   5.714   8.647
 1096POPC   C2B18680  17.901   5.606   8.199
 1096POPC   C3B18681  17.943   5.708   7.763
 1096POPC   C4B18682  17.946   5.882   7.355
 1097POPC   NC318683  37.787  11.405   9.657
 1097POPC   PO418684  38.342  11.613   9.567
 1097POPC   GL118685  38.081  11.702   9.208
 1097POPC   GL218686  37.847  11.409   9.141
 1097POPC   C1A18687  38.099  11.599   8.761
 1097POPC   D2A18688  37.872  11.605   8.364
 1097POPC   C3A18689  38.001  11.397   7.984
 1097POPC   C4A18690  37.891  10.967   7.803
 1097POPC   C1B18691  37.900  11.139   8.719
 1097POPC   C2B18692  37.715  11.103   8.272
 1097POPC   C3B18693  37.518  11.320   7.858
 1097POPC   C4B18694  37.351  11.369   7.419
 1098POPC   NC318695  36.979   4.668   9.398
 1098POPC   PO418696  36.769   4.085   9.447
 1098POPC   GL118697  36.936   4.267   9.083
 1098POPC   GL218698  37.276   4.320   9.166
 1098POPC   C1A18699  37.071   4.339   8.654
 1098POPC   D2A18700  36.910   4.057   8.342
 1098POPC   C3A18701  36.894   4.308   7.991
 1098POPC   C4A18702  37.007   4.610   7.660
 1098POPC   C1B18703  37.268   3.941   8.887
 1098POPC   C2B18704  37.419   3.932   8.448
 1098POPC   C3B18705  37.284   3.953   7.985
 1098POPC   C4B18706  37.175   3.865   7.523
 1099POPC   NC318707  34.887  25.750   9.288
 1099POPC   PO418708  35.376  26.022   9.666
 1099POPC   GL118709  35.268  26.103   9.249
 1099POPC   GL218710  35.032  26.388   9.220
 1099POPC   C1A18711  35.369  25.900   8.845
 1099POPC   D2A18712  35.288  26.046   8.421
 1099POPC   C3A18713  35.429  25.875   8.029
 1099POPC   C4A18714  35.172  25.721   7.726
 1099POPC   C1B18715  35.269  26.401   8.823
 1099POPC   C2B18716  35.125  26.530   8.408
 1099POPC   C3B18717  34.991  26.360   8.019
 1099POPC   C4B18718  35.213  26.234   7.681
 1100POPC   NC318719  38.122  21.573   9.444
 1100POPC   PO418720  38.631  21.200   9.461
 1100POPC   GL118721  38.431  21.326   9.105
 1100POPC   GL218722  38.188  21.095   9.152
 1100POPC   C1A18723  38.283  21.591   8.779
 1100POPC   D2A18724  38.458  21.484   8.414
 1100POPC   C3A18725  38.350  21.606   8.014
 1100POPC   C4A18726  38.498  21.618   7.582
 1100POPC   C1B18727  38.184  21.095   8.658
 1100POPC   C2B18728  38.360  21.050   8.186
 1100POPC   C3B18729  38.419  21.070   7.685
 1100POPC   C4B18730  38.279  20.904   7.248
 1101POPC   NC318731  35.845  21.696   9.467
 1101POPC   PO418732  36.424  21.341   9.545
 1101POPC   GL118733  36.194  21.451   9.191
 1101POPC   GL218734  36.334  21.336   8.934
 1101POPC   C1A18735  35.916  21.594   8.813
 1101POPC   D2A18736  35.746  21.494   8.386
 1101POPC   C3A18737  35.907  21.163   8.084
 1101POPC   C4A18738  36.137  21.295   7.714
 1101POPC   C1B18739  36.488  21.251   8.557
 1101POPC   C2B18740  36.439  21.249   8.142
 1101POPC   C3B18741  36.700  20.959   7.940
 1101POPC   C4B18742  36.371  20.852   7.754
 1102POPC   NC318743  44.412   0.220   9.560
 1102POPC   PO418744  44.915   0.741   9.403
 1102POPC   GL118745  44.670   0.484   9.162
 1102POPC   GL218746  44.923   0.225   9.117
 1102POPC   C1A18747  44.655   0.454   8.710
 1102POPC   D2A18748  44.806   0.185   8.371
 1102POPC   C3A18749  44.498   0.238   8.019
 1102POPC   C4A18750  44.179   0.487   7.821
 1102POPC   C1B18751   0.169   0.324   8.739
 1102POPC   C2B18752   0.098   0.591   8.376
 1102POPC   C3B18753  44.885   0.571   7.991
 1102POPC   C4B18754  44.850   0.662   7.565
 1103POPC   NC318755  16.863  40.020   9.572
 1103POPC   PO418756  16.166  39.885   9.602
 1103POPC   GL118757  16.461  39.894   9.264
 1103POPC   GL218758  16.587  40.251   9.188
 1103POPC   C1A18759  16.605  39.782   8.846
 1103POPC   D2A18760  16.410  39.903   8.451
 1103POPC   C3A18761  16.588  39.795   8.038
 1103POPC   C4A18762  16.550  40.071   7.677
 1103POPC   C1B18763  16.944  40.245   8.878
 1103POPC   C2B18764  16.925  40.073   8.464
 1103POPC   C3B18765  16.912  40.203   8.040
 1103POPC   C4B18766  16.947  40.376   7.648
 1104POPC   NC318767  29.684  37.447   9.575
 1104POPC   PO418768  30.342  37.624   9.518
 1104POPC   GL118769  30.186  37.803   9.087
 1104POPC   GL218770  29.806  37.870   9.121
 1104POPC   C1A18771  30.363  37.891   8.648
 1104POPC   D2A18772  30.221  37.943   8.187
 1104POPC   C3A18773  29.987  37.577   8.006
 1104POPC   C4A18774  29.551  37.425   7.948
 1104POPC   C1B18775  29.726  37.789   8.681
 1104POPC   C2B18776  29.668  37.934   8.264
 1104POPC   C3B18777  29.667  37.951   7.824
 1104POPC   C4B18778  29.669  38.017   7.415
 1105POPC   NC318779   7.524  25.801   9.547
 1105POPC   PO418780   7.496  26.405   9.753
 1105POPC   GL118781   7.422  26.230   9.284
 1105POPC   GL218782   7.618  25.944   9.063
 1105POPC   C1A18783   7.208  26.155   8.871
 1105POPC   D2A18784   7.004  26.241   8.486
 1105POPC   C3A18785   7.262  26.121   8.140
 1105POPC   C4A18786   7.489  26.055   7.764
 1105POPC   C1B18787   7.552  25.930   8.580
 1105POPC   C2B18788   7.777  26.029   8.197
 1105POPC   C3B18789   7.937  25.784   7.869
 1105POPC   C4B18790   7.847  25.790   7.446
 1106POPC   NC318791  19.421  39.806   9.535
 1106POPC   PO418792  20.052  40.014   9.611
 1106POPC   GL118793  20.026  40.058   9.163
 1106POPC   GL218794  20.212  40.361   9.094
 1106POPC   C1A18795  19.786  39.901   8.800
 1106POPC   D2A18796  19.532  40.012   8.443
 1106POPC   C3A18797  19.653  39.744   8.140
 1106POPC   C4A18798  19.944  39.638   7.837
 1106POPC   C1B18799  20.223  40.149   8.685
 1106POPC   C2B18800  20.195  39.892   8.276
 1106POPC   C3B18801  20.163  40.111   7.875
 1106POPC   C4B18802  20.074  40.346   7.496
 1107POPC   NC318803  27.571   6.909   9.415
 1107POPC   PO418804  28.031   6.551   9.789
 1107POPC   GL118805  27.933   6.556   9.310
 1107POPC   GL218806  27.616   6.460   9.120
 1107POPC   C1A18807  27.929   6.789   8.878
 1107POPC   D2A18808  27.705   6.849   8.477
 1107POPC   C3A18809  27.775   6.579   8.123
 1107POPC   C4A18810  27.567   6.638   7.727
 1107POPC   C1B18811  27.277   6.459   8.773
 1107POPC   C2B18812  27.089   6.411   8.343
 1107POPC   C3B18813  27.092   6.394   7.876
 1107POPC   C4B18814  27.329   6.247   7.514
 1108POPC   NC318815   6.578  26.103   9.475
 1108POPC   PO418816   6.943  26.555   9.283
 1108POPC   GL118817   6.671  26.231   8.986
 1108POPC   GL218818   6.423  25.925   9.030
 1108POPC   C1A18819   6.564  26.006   8.554
 1108POPC   D2A18820   6.373  25.685   8.294
 1108POPC   C3A18821   6.470  25.845   7.889
 1108POPC   C4A18822   6.819  26.152   7.807
 1108POPC   C1B18823   6.867  25.780   8.886
 1108POPC   C2B18824   7.068  25.721   8.477
 1108POPC   C3B18825   6.965  25.711   8.026
 1108POPC   C4B18826   7.077  25.801   7.554
 1109POPC   NC318827  35.646  35.168   9.461
 1109POPC   PO418828  36.303  35.365   9.585
 1109POPC   GL118829  36.120  35.434   9.204
 1109POPC   GL218830  35.986  35.119   9.073
 1109POPC   C1A18831  36.102  35.522   8.765
 1109POPC   D2A18832  36.188  35.201   8.446
 1109POPC   C3A18833  36.205  35.278   8.016
 1109POPC   C4A18834  36.302  35.043   7.646
 1109POPC   C1B18835  35.735  35.140   8.699
 1109POPC   C2B18836  35.736  35.304   8.265
 1109POPC   C3B18837  35.747  35.176   7.818
 1109POPC   C4B18838  35.799  34.836   7.536
 1110POPC   NC318839  12.364  41.047   9.469
 1110POPC   PO418840  12.846  40.578   9.740
 1110POPC   GL118841  13.011  40.721   9.310
 1110POPC   GL218842  12.915  41.077   9.266
 1110POPC   C1A18843  12.923  40.750   8.835
 1110POPC   D2A18844  13.159  40.790   8.442
 1110POPC   C3A18845  13.092  40.531   8.069
 1110POPC   C4A18846  12.686  40.540   7.827
 1110POPC   C1B18847  12.694  41.206   8.882
 1110POPC   C2B18848  12.561  41.047   8.516
 1110POPC   C3B18849  12.728  40.933   8.143
 1110POPC   C4B18850  12.544  41.070   7.761
 1111POPC   NC318851  33.443  21.201   9.488
 1111POPC   PO418852  34.099  21.353   9.318
 1111POPC   GL118853  33.738  21.341   9.095
 1111POPC   GL218854  33.600  21.609   9.210
 1111POPC   C1A18855  33.651  21.243   8.694
 1111POPC   D2A18856  33.992  21.264   8.426
 1111POPC   C3A18857  33.928  21.145   8.019
 1111POPC   C4A18858  34.184  21.270   7.680
 1111POPC   C1B18859  33.603  21.753   8.803
 1111POPC   C2B18860  33.759  21.726   8.419
 1111POPC   C3B18861  33.620  21.767   8.031
 1111POPC   C4B18862  33.766  21.559   7.735
 1112POPC   NC318863  16.223  12.182   9.784
 1112POPC   PO418864  15.839  11.649   9.738
 1112POPC   GL118865  16.134  11.787   9.387
 1112POPC   GL218866  16.176  12.153   9.279
 1112POPC   C1A18867  16.105  11.820   8.925
 1112POPC   D2A18868  16.018  11.881   8.485
 1112POPC   C3A18869  16.359  11.794   8.227
 1112POPC   C4A18870  16.239  11.845   7.812
 1112POPC   C1B18871  15.978  12.329   8.926
 1112POPC   C2B18872  15.879  12.420   8.524
 1112POPC   C3B18873  16.141  12.289   8.178
 1112POPC   C4B18874  16.102  12.352   7.758
 1113POPC   NC318875   5.649  37.703   9.578
 1113POPC   PO418876   6.338  37.923   9.483
 1113POPC   GL118877   6.026  37.763   9.211
 1113POPC   GL218878   5.693  37.905   9.097
 1113POPC   C1A18879   6.009  37.528   8.849
 1113POPC   D2A18880   6.099  37.572   8.425
 1113POPC   C3A18881   5.761  37.713   8.127
 1113POPC   C4A18882   5.768  37.971   7.782
 1113POPC   C1B18883   5.651  37.790   8.644
 1113POPC   C2B18884   5.651  37.353   8.455
 1113POPC   C3B18885   5.504  37.289   7.968
 1113POPC   C4B18886   5.496  37.590   7.574
 1114POPC   NC318887  38.683  20.746   9.484
 1114POPC   PO418888  38.074  20.492   9.483
 1114POPC   GL118889  38.336  20.596   9.116
 1114POPC   GL218890  38.605  20.850   9.003
 1114POPC   C1A18891  38.505  20.436   8.727
 1114POPC   D2A18892  38.569  20.624   8.350
 1114POPC   C3A18893  38.477  20.389   7.977
 1114POPC   C4A18894  38.390  20.545   7.584
 1114POPC   C1B18895  38.701  21.069   8.638
 1114POPC   C2B18896  38.976  20.936   8.295
 1114POPC   C3B18897  38.782  20.792   7.890
 1114POPC   C4B18898  38.822  20.834   7.427
 1115POPC   NC318899  43.348  22.131   9.615
 1115POPC   PO418900  42.757  22.037   9.526
 1115POPC   GL118901  42.960  22.181   9.131
 1115POPC   GL218902  43.331  22.218   9.113
 1115POPC   C1A18903  43.029  22.098   8.666
 1115POPC   D2A18904  42.959  21.827   8.274
 1115POPC   C3A18905  42.892  22.014   7.857
 1115POPC   C4A18906  42.816  22.254   7.470
 1115POPC   C1B18907  43.465  21.871   8.838
 1115POPC   C2B18908  43.493  21.873   8.371
 1115POPC   C3B18909  43.360  21.817   7.904
 1115POPC   C4B18910  43.249  21.954   7.465
 1116POPC   NC318911  36.362  20.195   9.293
 1116POPC   PO418912  36.859  19.842   9.536
 1116POPC   GL118913  36.737  19.833   9.139
 1116POPC   GL218914  36.461  19.634   9.143
 1116POPC   C1A18915  36.911  19.831   8.732
 1116POPC   D2A18916  37.131  20.039   8.433
 1116POPC   C3A18917  37.006  19.876   8.061
 1116POPC   C4A18918  37.086  19.897   7.633
 1116POPC   C1B18919  36.397  19.794   8.730
 1116POPC   C2B18920  36.521  19.932   8.307
 1116POPC   C3B18921  36.551  19.953   7.863
 1116POPC   C4B18922  36.639  20.013   7.418
 1117POPC   NC318923  34.337  33.129   9.528
 1117POPC   PO418924  34.842  32.671   9.427
 1117POPC   GL118925  34.699  32.819   9.056
 1117POPC   GL218926  34.424  33.061   9.020
 1117POPC   C1A18927  34.653  32.798   8.597
 1117POPC   D2A18928  34.436  33.040   8.265
 1117POPC   C3A18929  34.456  32.936   7.803
 1117POPC   C4A18930  34.412  33.124   7.369
 1117POPC   C1B18931  34.819  33.239   8.815
 1117POPC   C2B18932  34.926  33.195   8.399
 1117POPC   C3B18933  34.832  33.225   7.981
 1117POPC   C4B18934  34.896  33.133   7.585
 1118POPC   NC318935  15.120  14.887   9.561
 1118POPC   PO418936  15.412  14.311   9.507
 1118POPC   GL118937  15.142  14.479   9.164
 1118POPC   GL218938  14.897  14.759   9.114
 1118POPC   C1A18939  15.291  14.347   8.744
 1118POPC   D2A18940  15.032  14.348   8.388
 1118POPC   C3A18941  15.273  14.252   8.037
 1118POPC   C4A18942  15.351  14.385   7.627
 1118POPC   C1B18943  15.290  14.836   8.853
 1118POPC   C2B18944  15.392  14.898   8.423
 1118POPC   C3B18945  15.350  14.776   7.985
 1118POPC   C4B18946  15.409  14.938   7.563
 1119POPC   NC318947  17.806  19.645   9.415
 1119POPC   PO418948  17.261  19.687   9.462
 1119POPC   GL118949  17.422  19.763   9.046
 1119POPC   GL218950  17.655  20.029   9.063
 1119POPC   C1A18951  17.388  19.627   8.605
 1119POPC   D2A18952  17.331  19.442   8.174
 1119POPC   C3A18953  17.267  19.715   7.818
 1119POPC   C4A18954  17.431  19.835   7.445
 1119POPC   C1B18955  17.610  20.100   8.603
 1119POPC   C2B18956  17.570  19.901   8.205
 1119POPC   C3B18957  17.721  19.965   7.816
 1119POPC   C4B18958  17.779  20.284   7.503
 1120POPC   NC318959  18.008  42.204   9.381
 1120POPC   PO418960  18.313  42.734   9.544
 1120POPC   GL118961  18.291  42.555   9.125
 1120POPC   GL218962  17.971  42.690   9.105
 1120POPC   C1A18963  18.391  42.213   8.801
 1120POPC   D2A18964  18.567  42.151   8.360
 1120POPC   C3A18965  18.438  42.374   7.986
 1120POPC   C4A18966  18.298  42.175   7.617
 1120POPC   C1B18967  17.890  42.364   8.774
 1120POPC   C2B18968  18.086  42.334   8.390
 1120POPC   C3B18969  17.928  42.363   8.010
 1120POPC   C4B18970  17.793  42.233   7.641
 1121POPC   NC318971  26.380  41.421   9.343
 1121POPC   PO418972  25.839  41.643   9.629
 1121POPC   GL118973  26.002  41.734   9.236
 1121POPC   GL218974  25.905  41.407   9.125
 1121POPC   C1A18975  25.991  41.801   8.791
 1121POPC   D2A18976  26.235  41.688   8.416
 1121POPC   C3A18977  26.133  41.846   8.028
 1121POPC   C4A18978  25.999  41.760   7.638
 1121POPC   C1B18979  25.873  41.151   8.774
 1121POPC   C2B18980  25.995  41.229   8.374
 1121POPC   C3B18981  26.085  41.358   8.000
 1121POPC   C4B18982  25.829  41.264   7.687
 1122POPC   NC318983   2.955  19.476   9.699
 1122POPC   PO418984   3.005  20.165   9.478
 1122POPC   GL118985   2.880  19.893   9.129
 1122POPC   GL218986   2.519  19.934   9.133
 1122POPC   C1A18987   2.907  19.679   8.705
 1122POPC   D2A18988   2.868  19.820   8.260
 1122POPC   C3A18989   3.154  19.691   7.898
 1122POPC   C4A18990   3.170  19.855   7.437
 1122POPC   C1B18991   2.415  19.817   8.705
 1122POPC   C2B18992   2.426  19.522   8.334
 1122POPC   C3B18993   2.523  19.710   7.913
 1122POPC   C4B18994   2.802  20.013   7.745
 1123POPC   NC318995  11.419  14.780   9.739
 1123POPC   PO418996  10.943  14.323   9.802
 1123POPC   GL118997  11.301  14.389   9.413
 1123POPC   GL218998  11.079  14.555   9.190
 1123POPC   C1A18999  11.508  14.574   8.946
 1123POPC   D2A19000  11.213  14.584   8.566
 1123POPC   C3A19001  11.330  14.593   8.109
 1123POPC   C4A19002  11.035  14.606   7.755
 1123POPC   C1B19003  11.210  14.164   8.936
 1123POPC   C2B19004  11.219  14.082   8.488
 1123POPC   C3B19005  11.106  14.130   8.071
 1123POPC   C4B19006  11.346  14.193   7.701
 1124POPC   NC319007  26.036  10.963   9.403
 1124POPC   PO419008  26.293  11.596   9.322
 1124POPC   GL119009  26.063  11.362   9.065
 1124POPC   GL219010  26.319  11.180   8.898
 1124POPC   C1A19011  25.975  11.415   8.639
 1124POPC   D2A19012  26.163  11.167   8.329
 1124POPC   C3A19013  26.039  11.416   8.038
 1124POPC   C4A19014  26.005  11.442   7.640
 1124POPC   C1B19015  25.962  10.907   8.734
 1124POPC   C2B19016  25.813  10.745   8.316
 1124POPC   C3B19017  25.859  10.939   7.886
 1124POPC   C4B19018  25.919  10.989   7.425
 1125POPC   NC319019  23.508  34.875   9.600
 1125POPC   PO419020  24.084  34.661   9.538
 1125POPC   GL119021  23.959  34.701   9.133
 1125POPC   GL219022  23.648  34.871   9.116
 1125POPC   C1A19023  23.941  34.531   8.716
 1125POPC   D2A19024  23.953  34.744   8.311
 1125POPC   C3A19025  23.910  34.452   7.944
 1125POPC   C4A19026  23.519  34.250   7.704
 1125POPC   C1B19027  23.799  35.019   8.746
 1125POPC   C2B19028  23.571  35.125   8.371
 1125POPC   C3B19029  23.375  34.891   8.092
 1125POPC   C4B19030  23.567  34.760   7.749
 1126POPC   NC319031  13.424   9.548   9.625
 1126POPC   PO419032  13.914   9.914   9.389
 1126POPC   GL119033  13.797   9.719   9.044
 1126POPC   GL219034  13.447   9.627   9.122
 1126POPC   C1A19035  13.920   9.913   8.658
 1126POPC   D2A19036  13.715   9.901   8.278
 1126POPC   C3A19037  13.835   9.787   7.888
 1126POPC   C4A19038  13.470  10.027   7.786
 1126POPC   C1B19039  13.410   9.836   8.723
 1126POPC   C2B19040  13.254   9.687   8.353
 1126POPC   C3B19041  13.321   9.574   7.953
 1126POPC   C4B19042  13.067   9.658   7.623
 1127POPC   NC319043  35.959  33.500   9.587
 1127POPC   PO419044  36.461  34.001   9.533
 1127POPC   GL119045  36.188  33.799   9.238
 1127POPC   GL219046  36.379  33.561   9.146
 1127POPC   C1A19047  35.966  33.778   8.826
 1127POPC   D2A19048  36.161  33.809   8.405
 1127POPC   C3A19049  35.926  33.802   8.028
 1127POPC   C4A19050  35.947  34.041   7.621
 1127POPC   C1B19051  36.316  33.411   8.770
 1127POPC   C2B19052  36.500  33.399   8.382
 1127POPC   C3B19053  36.419  33.585   7.975
 1127POPC   C4B19054  36.296  33.689   7.556
 1128POPC   NC319055  41.378   4.813   9.626
 1128POPC   PO419056  41.754   5.481   9.536
 1128POPC   GL119057  41.620   5.270   9.200
 1128POPC   GL219058  41.915   5.393   9.033
 1128POPC   C1A19059  41.682   4.933   8.887
 1128POPC   D2A19060  41.450   4.733   8.534
 1128POPC   C3A19061  41.521   4.925   8.118
 1128POPC   C4A19062  41.433   4.869   7.678
 1128POPC   C1B19063  41.648   5.467   8.720
 1128POPC   C2B19064  41.458   5.397   8.368
 1128POPC   C3B19065  41.614   5.425   7.992
 1128POPC   C4B19066  41.503   5.385   7.607
 1129POPC   NC319067  30.227  17.451   9.473
 1129POPC   PO419068  29.731  17.148   9.751
 1129POPC   GL119069  29.712  17.250   9.248
 1129POPC   GL219070  29.822  17.574   9.143
 1129POPC   C1A19071  29.670  17.270   8.748
 1129POPC   D2A19072  29.859  17.107   8.315
 1129POPC   C3A19073  29.729  17.250   7.883
 1129POPC   C4A19074  29.694  17.136   7.435
 1129POPC   C1B19075  30.121  17.489   8.807
 1129POPC   C2B19076  29.979  17.598   8.393
 1129POPC   C3B19077  29.952  17.719   7.961
 1129POPC   C4B19078  29.990  17.547   7.534
 1130POPC   NC319079   2.226  13.129   9.414
 1130POPC   PO419080   2.693  12.650   9.716
 1130POPC   GL119081   2.692  12.906   9.350
 1130POPC   GL219082   2.450  12.703   9.208
 1130POPC   C1A19083   2.858  12.983   8.920
 1130POPC   D2A19084   2.712  13.036   8.468
 1130POPC   C3A19085   2.827  12.752   8.121
 1130POPC   C4A19086   2.948  12.973   7.765
 1130POPC   C1B19087   2.366  12.816   8.785
 1130POPC   C2B19088   2.438  12.558   8.424
 1130POPC   C3B19089   2.441  12.396   8.020
 1130POPC   C4B19090   2.540  12.637   7.668
 1131POPC   NC319091  34.020  26.106   9.414
 1131POPC   PO419092  33.723  25.545   9.600
 1131POPC   GL119093  33.667  25.799   9.171
 1131POPC   GL219094  33.666  26.177   9.051
 1131POPC   C1A19095  33.744  25.812   8.720
 1131POPC   D2A19096  34.072  25.817   8.409
 1131POPC   C3A19097  33.914  26.076   8.112
 1131POPC   C4A19098  33.978  26.070   7.698
 1131POPC   C1B19099  33.390  26.387   8.736
 1131POPC   C2B19100  33.403  26.339   8.283
 1131POPC   C3B19101  33.405  26.002   7.983
 1131POPC   C4B19102  33.554  25.825   7.588
 1132POPC   NC319103  39.209  44.219   9.761
 1132POPC   PO419104  39.527  43.716   9.307
 1132POPC   GL119105  39.412  43.880   8.953
 1132POPC   GL219106  39.071  43.849   8.905
 1132POPC   C1A19107  39.347  43.741   8.513
 1132POPC   D2A19108  39.404  44.049   8.206
 1132POPC   C3A19109  39.549  43.868   7.847
 1132POPC   C4A19110  39.357  44.000   7.468
 1132POPC   C1B19111  38.750  44.057   8.641
 1132POPC   C2B19112  38.643  44.241   8.241
 1132POPC   C3B19113  38.938  44.185   7.887
 1132POPC   C4B19114  38.859  43.910   7.561
 1133POPC   NC319115  44.476  24.789   9.370
 1133POPC   PO419116  44.708  25.360   9.603
 1133POPC   GL119117  44.598  25.274   9.175
 1133POPC   GL219118  44.802  25.037   9.046
 1133POPC   C1A19119  44.413  25.240   8.743
 1133POPC   D2A19120  44.228  25.415   8.357
 1133POPC   C3A19121  44.320  25.456   7.923
 1133POPC   C4A19122  44.361  25.160   7.596
 1133POPC   C1B19123  44.897  25.375   8.723
 1133POPC   C2B19124  44.738  25.374   8.268
 1133POPC   C3B19125  44.810  25.235   7.828
 1133POPC   C4B19126  44.847  25.132   7.377
 1134POPC   NC319127  27.445  34.168   9.708
 1134POPC   PO419128  27.977  33.835   9.516
 1134POPC   GL119129  27.811  34.058   9.134
 1134POPC   GL219130  27.487  34.011   8.967
 1134POPC   C1A19131  27.924  34.068   8.693
 1134POPC   D2A19132  27.944  34.281   8.310
 1134POPC   C3A19133  27.830  34.029   7.953
 1134POPC   C4A19134  27.425  33.877   7.823
 1134POPC   C1B19135  27.430  33.756   8.571
 1134POPC   C2B19136  27.348  33.504   8.169
 1134POPC   C3B19137  27.076  33.462   7.751
 1134POPC   C4B19138  27.094  33.356   7.233
 1135POPC   NC319139  21.304   5.715   9.498
 1135POPC   PO419140  21.772   6.223   9.394
 1135POPC   GL119141  21.463   6.030   9.139
 1135POPC   GL219142  21.641   5.682   9.123
 1135POPC   C1A19143  21.211   5.867   8.776
 1135POPC   D2A19144  20.995   5.911   8.368
 1135POPC   C3A19145  21.202   6.075   8.047
 1135POPC   C4A19146  21.420   5.766   7.815
 1135POPC   C1B19147  21.730   5.884   8.750
 1135POPC   C2B19148  21.551   5.889   8.373
 1135POPC   C3B19149  21.815   5.697   8.098
 1135POPC   C4B19150  21.978   5.407   7.832
 1136POPC   NC319151  36.247  24.065   9.486
 1136POPC   PO419152  35.775  23.648   9.514
 1136POPC   GL119153  35.968  23.784   9.136
 1136POPC   GL219154  35.878  24.104   9.110
 1136POPC   C1A19155  35.975  23.621   8.718
 1136POPC   D2A19156  35.780  23.572   8.326
 1136POPC   C3A19157  36.050  23.593   7.975
 1136POPC   C4A19158  36.076  23.345   7.602
 1136POPC   C1B19159  35.810  24.138   8.704
 1136POPC   C2B19160  35.946  24.140   8.266
 1136POPC   C3B19161  35.888  24.053   7.822
 1136POPC   C4B19162  36.107  23.834   7.467
 1137POPC   NC319163  27.474  14.397   9.762
 1137POPC   PO419164  26.834  14.307   9.521
 1137POPC   GL119165  26.861  14.431   9.134
 1137POPC   GL219166  26.972  14.128   9.060
 1137POPC   C1A19167  26.742  14.484   8.720
 1137POPC   D2A19168  26.885  14.763   8.413
 1137POPC   C3A19169  26.774  14.587   8.037
 1137POPC   C4A19170  26.706  14.778   7.666
 1137POPC   C1B19171  26.766  13.932   8.741
 1137POPC   C2B19172  26.869  14.027   8.324
 1137POPC   C3B19173  26.658  13.981   7.955
 1137POPC   C4B19174  26.767  14.261   7.632
 1138POPC   NC319175  10.374  37.107   9.439
 1138POPC   PO419176  10.907  36.616   9.470
 1138POPC   GL119177  10.828  36.689   9.049
 1138POPC   GL219178  10.546  36.887   9.036
 1138POPC   C1A19179  10.787  36.839   8.608
 1138POPC   D2A19180  10.982  37.152   8.352
 1138POPC   C3A19181  10.830  37.188   7.921
 1138POPC   C4A19182  10.464  37.119   7.667
 1138POPC   C1B19183  10.335  37.184   8.761
 1138POPC   C2B19184  10.022  37.080   8.439
 1138POPC   C3B19185  10.042  36.771   8.091
 1138POPC   C4B19186  10.296  36.645   7.724
 1139POPC   NC319187  27.540  20.676   9.474
 1139POPC   PO419188  27.297  20.099   9.207
 1139POPC   GL119189  27.640  20.353   9.062
 1139POPC   GL219190  27.387  20.585   9.011
 1139POPC   C1A19191  27.752  20.546   8.652
 1139POPC   D2A19192  27.729  20.497   8.192
 1139POPC   C3A19193  27.638  20.851   7.954
 1139POPC   C4A19194  27.656  20.793   7.560
 1139POPC   C1B19195  27.248  20.486   8.642
 1139POPC   C2B19196  27.250  20.651   8.237
 1139POPC   C3B19197  27.316  20.444   7.847
 1139POPC   C4B19198  27.177  20.065   7.658
 1140POPC   NC319199  40.736  21.166   9.479
 1140POPC   PO419200  41.236  20.883   9.401
 1140POPC   GL119201  41.000  21.108   9.053
 1140POPC   GL219202  40.897  21.461   9.091
 1140POPC   C1A19203  40.828  21.217   8.640
 1140POPC   D2A19204  40.720  21.432   8.277
 1140POPC   C3A19205  40.705  21.245   7.872
 1140POPC   C4A19206  41.034  21.093   7.581
 1140POPC   C1B19207  40.857  21.735   8.720
 1140POPC   C2B19208  41.033  21.858   8.295
 1140POPC   C3B19209  40.821  21.763   7.905
 1140POPC   C4B19210  40.363  21.686   7.934
 1141POPC   NC319211  43.014  10.214   9.723
 1141POPC   PO419212  42.891   9.525   9.644
 1141POPC   GL119213  42.861   9.694   9.244
 1141POPC   GL219214  42.622   9.513   9.095
 1141POPC   C1A19215  43.062   9.649   8.847
 1141POPC   D2A19216  43.014   9.841   8.465
 1141POPC   C3A19217  43.129   9.767   8.062
 1141POPC   C4A19218  42.887   9.599   7.762
 1141POPC   C1B19219  42.625   9.905   8.805
 1141POPC   C2B19220  42.763  10.267   8.461
 1141POPC   C3B19221  42.922  10.385   8.016
 1141POPC   C4B19222  43.045  10.110   7.689
 1142POPC   NC319223  30.481  15.021   9.402
 1142POPC   PO419224  30.968  15.372   9.709
 1142POPC   GL119225  30.849  15.406   9.224
 1142POPC   GL219226  30.490  15.397   9.070
 1142POPC   C1A19227  30.862  15.208   8.801
 1142POPC   D2A19228  30.663  15.305   8.452
 1142POPC   C3A19229  30.702  15.067   8.116
 1142POPC   C4A19230  30.591  15.263   7.748
 1142POPC   C1B19231  30.391  15.014   8.764
 1142POPC   C2B19232  30.299  14.841   8.333
 1142POPC   C3B19233  30.270  14.899   7.866
 1142POPC   C4B19234  30.325  14.977   7.414
 1143POPC   NC319235   2.177  40.123   9.571
 1143POPC   PO419236   1.852  39.527   9.535
 1143POPC   GL119237   1.958  39.819   9.211
 1143POPC   GL219238   1.943  39.583   8.957
 1143POPC   C1A19239   1.972  40.058   8.819
 1143POPC   D2A19240   1.839  40.272   8.474
 1143POPC   C3A19241   2.000  40.237   8.067
 1143POPC   C4A19242   2.149  40.214   7.680
 1143POPC   C1B19243   2.049  39.633   8.515
 1143POPC   C2B19244   1.875  39.745   8.113
 1143POPC   C3B19245   2.027  39.724   7.691
 1143POPC   C4B19246   2.182  39.679   7.235
 1144POPC   NC319247  37.546   2.043   9.642
 1144POPC   PO419248  38.196   2.005   9.688
 1144POPC   GL119249  37.919   2.209   9.277
 1144POPC   GL219250  37.525   2.294   9.196
 1144POPC   C1A19251  37.734   2.037   8.836
 1144POPC   D2A19252  37.449   1.776   8.580
 1144POPC   C3A19253  37.400   1.820   8.132
 1144POPC   C4A19254  37.602   2.066   7.813
 1144POPC   C1B19255  37.294   2.377   8.817
 1144POPC   C2B19256  37.196   2.234   8.391
 1144POPC   C3B19257  37.215   2.369   7.936
 1144POPC   C4B19258  37.311   2.307   7.463
 1145POPC   NC319259   1.423   9.489   9.686
 1145POPC   PO419260   0.829   9.962   9.591
 1145POPC   GL119261   1.154   9.879   9.298
 1145POPC   GL219262   1.163   9.564   9.243
 1145POPC   C1A19263   1.146   9.981   8.858
 1145POPC   D2A19264   0.893   9.911   8.477
 1145POPC   C3A19265   1.128   9.890   8.091
 1145POPC   C4A19266   1.378   9.994   7.736
 1145POPC   C1B19267   1.267   9.488   8.778
 1145POPC   C2B19268   1.155   9.436   8.330
 1145POPC   C3B19269   1.455   9.473   7.964
 1145POPC   C4B19270   1.468   9.524   7.502
 1146POPC   NC319271  33.407  28.559   9.376
 1146POPC   PO419272  33.982  28.302   9.699
 1146POPC   GL119273  33.802  28.204   9.249
 1146POPC   GL219274  33.510  27.931   9.252
 1146POPC   C1A19275  33.891  28.433   8.822
 1146POPC   D2A19276  33.824  28.625   8.367
 1146POPC   C3A19277  33.905  28.452   7.906
 1146POPC   C4A19278  33.929  28.388   7.399
 1146POPC   C1B19279  33.659  27.977   8.796
 1146POPC   C2B19280  33.941  28.073   8.443
 1146POPC   C3B19281  33.814  27.933   8.056
 1146POPC   C4B19282  33.658  28.000   7.648
 1147POPC   NC319283   4.494   2.645   9.465
 1147POPC   PO419284   3.978   2.173   9.363
 1147POPC   GL119285   4.169   2.525   9.068
 1147POPC   GL219286   4.466   2.755   8.995
 1147POPC   C1A19287   4.039   2.801   8.722
 1147POPC   D2A19288   3.697   2.849   8.428
 1147POPC   C3A19289   3.895   2.743   8.041
 1147POPC   C4A19290   4.264   2.830   7.807
 1147POPC   C1B19291   4.640   2.830   8.645
 1147POPC   C2B19292   4.490   2.881   8.262
 1147POPC   C3B19293   4.699   3.098   7.950
 1147POPC   C4B19294   4.886   3.045   7.592
 1148POPC   NC319295   4.468  10.784   9.651
 1148POPC   PO419296   3.981  10.428   9.435
 1148POPC   GL119297   4.399  10.514   9.214
 1148POPC   GL219298   4.175  10.594   8.967
 1148POPC   C1A19299   4.637  10.753   8.849
 1148POPC   D2A19300   4.378  10.712   8.448
 1148POPC   C3A19301   4.549  10.714   8.006
 1148POPC   C4A19302   4.445  10.574   7.572
 1148POPC   C1B19303   4.035  10.334   8.686
 1148POPC   C2B19304   4.209  10.198   8.344
 1148POPC   C3B19305   4.193  10.357   7.949
 1148POPC   C4B19306   4.006  10.285   7.522
 1149POPC   NC319307  28.434  25.567   9.441
 1149POPC   PO419308  28.511  24.947   9.633
 1149POPC   GL119309  28.460  25.096   9.215
 1149POPC   GL219310  28.168  24.915   9.151
 1149POPC   C1A19311  28.636  25.366   8.867
 1149POPC   D2A19312  28.673  25.575   8.499
 1149POPC   C3A19313  28.820  25.302   8.162
 1149POPC   C4A19314  28.561  25.083   7.877
 1149POPC   C1B19315  28.183  25.092   8.766
 1149POPC   C2B19316  28.323  25.227   8.375
 1149POPC   C3B19317  28.143  25.389   8.023
 1149POPC   C4B19318  28.086  25.181   7.626
 1150POPC   NC319319  44.862  43.717   9.470
 1150POPC   PO419320  44.223  44.073   9.481
 1150POPC   GL119321  44.523  44.008   9.191
 1150POPC   GL219322  44.449  43.658   9.127
 1150POPC   C1A19323  44.787  43.968   8.828
 1150POPC   D2A19324   0.009  44.066   8.449
 1150POPC   C3A19325  44.789  43.908   8.101
 1150POPC   C4A19326  44.562  43.939   7.723
 1150POPC   C1B19327  44.523  43.554   8.681
 1150POPC   C2B19328  44.470  43.528   8.230
 1150POPC   C3B19329  44.540  43.450   7.786
 1150POPC   C4B19330  44.803  43.495   7.390
 1151POPC   NC319331   3.332  16.953   9.576
 1151POPC   PO419332   3.663  16.396   9.437
 1151POPC   GL119333   3.582  16.703   9.162
 1151POPC   GL219334   3.218  16.688   9.165
 1151POPC   C1A19335   3.755  16.684   8.741
 1151POPC   D2A19336   3.699  16.343   8.448
 1151POPC   C3A19337   3.620  16.577   8.118
 1151POPC   C4A19338   3.852  16.643   7.776
 1151POPC   C1B19339   3.289  16.881   8.785
 1151POPC   C2B19340   3.384  16.953   8.399
 1151POPC   C3B19341   3.177  16.823   8.045
 1151POPC   C4B19342   3.378  16.798   7.698
 1152POPC   NC319343  20.231  39.601   9.783
 1152POPC   PO419344  20.596  39.128   9.506
 1152POPC   GL119345  20.806  39.105   9.149
 1152POPC   GL219346  20.572  38.901   9.040
 1152POPC   C1A19347  20.791  39.367   8.789
 1152POPC   D2A19348  20.578  39.358   8.406
 1152POPC   C3A19349  20.829  39.350   8.063
 1152POPC   C4A19350  20.696  39.209   7.686
 1152POPC   C1B19351  20.640  38.899   8.611
 1152POPC   C2B19352  20.611  38.892   8.152
 1152POPC   C3B19353  20.627  38.702   7.775
 1152POPC   C4B19354  20.860  38.799   7.442
 1153POPC   NC319355  17.975  23.923   9.447
 1153POPC   PO419356  18.709  24.011   9.462
 1153POPC   GL119357  18.388  23.783   9.179
 1153POPC   GL219358  18.466  23.441   9.158
 1153POPC   C1A19359  18.089  23.967   8.806
 1153POPC   D2A19360  17.892  23.892   8.404
 1153POPC   C3A19361  18.083  23.600   8.096
 1153POPC   C4A19362  18.309  23.678   7.681
 1153POPC   C1B19363  18.351  23.537   8.729
 1153POPC   C2B19364  18.425  23.329   8.354
 1153POPC   C3B19365  18.619  23.450   7.987
 1153POPC   C4B19366  18.849  23.615   7.614
 1154POPC   NC319367  15.175  35.669   9.444
 1154POPC   PO419368  15.516  36.257   9.461
 1154POPC   GL119369  15.197  36.102   9.164
 1154POPC   GL219370  14.848  35.965   9.152
 1154POPC   C1A19371  15.125  36.126   8.728
 1154POPC   D2A19372  15.418  36.138   8.389
 1154POPC   C3A19373  15.196  36.287   8.033
 1154POPC   C4A19374  15.268  36.048   7.692
 1154POPC   C1B19375  14.863  35.686   8.780
 1154POPC   C2B19376  15.095  35.706   8.374
 1154POPC   C3B19377  14.942  35.757   7.959
 1154POPC   C4B19378  14.940  35.696   7.535
 1155POPC   NC319379   7.437  38.069   9.735
 1155POPC   PO419380   7.293  37.516   9.363
 1155POPC   GL119381   7.506  37.595   8.997
 1155POPC   GL219382   7.828  37.401   9.050
 1155POPC   C1A19383   7.332  37.829   8.614
 1155POPC   D2A19384   7.113  37.605   8.278
 1155POPC   C3A19385   7.191  37.736   7.833
 1155POPC   C4A19386   7.285  37.587   7.411
 1155POPC   C1B19387   7.780  37.605   8.581
 1155POPC   C2B19388   7.613  37.637   8.149
 1155POPC   C3B19389   7.657  37.413   7.737
 1155POPC   C4B19390   7.715  37.389   7.246
 1156POPC   NC319391   9.893  14.910   9.425
 1156POPC   PO419392   9.758  14.264   9.330
 1156POPC   GL119393   9.536  14.427   9.014
 1156POPC   GL219394   9.769  14.678   9.005
 1156POPC   C1A19395   9.486  14.414   8.577
 1156POPC   D2A19396   9.635  14.145   8.276
 1156POPC   C3A19397   9.746  14.323   7.906
 1156POPC   C4A19398   9.590  14.299   7.497
 1156POPC   C1B19399   9.950  14.863   8.701
 1156POPC   C2B19400   9.956  14.593   8.350
 1156POPC   C3B19401  10.037  14.766   7.965
 1156POPC   C4B19402   9.812  14.743   7.609
 1157POPC   NC319403   1.473  23.501   9.674
 1157POPC   PO419404   1.245  22.808   9.556
 1157POPC   GL119405   1.183  22.647   9.139
 1157POPC   GL219406   1.258  22.984   9.077
 1157POPC   C1A19407   1.272  22.687   8.661
 1157POPC   D2A19408   1.051  22.829   8.266
 1157POPC   C3A19409   1.295  22.743   7.849
 1157POPC   C4A19410   1.639  22.764   7.508
 1157POPC   C1B19411   0.993  23.126   8.799
 1157POPC   C2B19412   1.110  23.331   8.459
 1157POPC   C3B19413   1.315  23.241   8.102
 1157POPC   C4B19414   0.978  23.166   7.850
 1158POPC   NC319415   6.986  31.530   9.247
 1158POPC   PO419416   6.477  31.099   8.990
 1158POPC   GL119417   6.545  31.572   8.987
 1158POPC   GL219418   6.298  31.767   9.199
 1158POPC   C1A19419   6.734  31.658   8.595
 1158POPC   D2A19420   6.661  31.367   8.272
 1158POPC   C3A19421   6.921  31.226   7.940
 1158POPC   C4A19422   6.798  31.278   7.494
 1158POPC   C1B19423   6.090  31.709   8.785
 1158POPC   C2B19424   6.269  31.729   8.347
 1158POPC   C3B19425   6.418  31.647   7.907
 1158POPC   C4B19426   6.870  31.703   7.825
 1159POPC   NC319427  15.067  32.343   9.626
 1159POPC   PO419428  15.518  31.932   9.546
 1159POPC   GL119429  15.303  32.175   9.218
 1159POPC   GL219430  15.114  32.478   9.127
 1159POPC   C1A19431  15.349  32.137   8.802
 1159POPC   D2A19432  15.136  32.182   8.422
 1159POPC   C3A19433  15.280  32.210   8.012
 1159POPC   C4A19434  14.947  32.321   7.718
 1159POPC   C1B19435  15.226  32.627   8.693
 1159POPC   C2B19436  15.095  32.678   8.239
 1159POPC   C3B19437  15.263  32.689   7.808
 1159POPC   C4B19438  15.132  32.787   7.351
 1160POPC   NC319439  37.253  38.284   9.463
 1160POPC   PO419440  37.804  38.563   9.629
 1160POPC   GL119441  37.601  38.588   9.209
 1160POPC   GL219442  37.865  38.845   9.129
 1160POPC   C1A19443  37.440  38.369   8.821
 1160POPC   D2A19444  37.483  38.162   8.394
 1160POPC   C3A19445  37.741  38.318   8.027
 1160POPC   C4A19446  38.019  38.625   7.801
 1160POPC   C1B19447  37.576  38.865   8.761
 1160POPC   C2B19448  37.686  38.904   8.290
 1160POPC   C3B19449  37.543  38.765   7.884
 1160POPC   C4B19450  37.301  38.718   7.496
 1161POPC   NC319451  44.214   7.978   9.543
 1161POPC   PO419452  43.552   8.009   9.422
 1161POPC   GL119453  43.646   8.196   9.072
 1161POPC   GL219454  43.987   8.212   9.148
 1161POPC   C1A19455  43.764   8.199   8.646
 1161POPC   D2A19456  43.977   8.098   8.289
 1161POPC   C3A19457  43.725   8.111   7.973
 1161POPC   C4A19458  43.581   7.956   7.631
 1161POPC   C1B19459  44.248   8.236   8.803
 1161POPC   C2B19460  44.414   8.282   8.433
 1161POPC   C3B19461  44.260   8.454   8.021
 1161POPC   C4B19462  44.184   8.106   7.764
 1162POPC   NC319463  20.411   7.399   9.555
 1162POPC   PO419464  20.970   7.693   9.412
 1162POPC   GL119465  20.737   7.495   9.075
 1162POPC   GL219466  20.781   7.177   9.001
 1162POPC   C1A19467  20.916   7.473   8.622
 1162POPC   D2A19468  20.877   7.716   8.261
 1162POPC   C3A19469  20.700   7.524   7.903
 1162POPC   C4A19470  20.773   7.658   7.478
 1162POPC   C1B19471  20.480   7.209   8.680
 1162POPC   C2B19472  20.370   7.413   8.287
 1162POPC   C3B19473  20.210   7.362   7.853
 1162POPC   C4B19474  20.421   7.283   7.472
 1163POPC   NC319475  41.066  11.871   9.532
 1163POPC   PO419476  40.488  11.844   9.802
 1163POPC   GL119477  40.682  11.673   9.270
 1163POPC   GL219478  40.612  11.944   8.979
 1163POPC   C1A19479  40.869  11.556   8.842
 1163POPC   D2A19480  40.863  11.867   8.512
 1163POPC   C3A19481  40.787  11.937   8.093
 1163POPC   C4A19482  40.926  12.194   7.739
 1163POPC   C1B19483  40.811  12.309   8.736
 1163POPC   C2B19484  40.935  12.377   8.316
 1163POPC   C3B19485  40.571  12.408   8.058
 1163POPC   C4B19486  40.450  12.422   7.648
 1164POPC   NC319487   0.228  41.913   9.317
 1164POPC   PO419488   0.724  42.388   9.342
 1164POPC   GL119489   0.481  42.252   9.049
 1164POPC   GL219490   0.689  41.992   9.017
 1164POPC   C1A19491   0.496  42.291   8.640
 1164POPC   D2A19492   0.559  42.521   8.313
 1164POPC   C3A19493   0.428  42.353   7.971
 1164POPC   C4A19494   0.614  42.508   7.634
 1164POPC   C1B19495   0.773  41.802   8.661
 1164POPC   C2B19496   0.519  41.884   8.316
 1164POPC   C3B19497   0.398  41.851   7.916
 1164POPC   C4B19498   0.552  41.959   7.527
 1165POPC   NC319499  19.145  10.172   9.674
 1165POPC   PO419500  19.075  10.836   9.591
 1165POPC   GL119501  19.102  10.555   9.259
 1165POPC   GL219502  18.786  10.401   9.327
 1165POPC   C1A19503  19.238  10.695   8.834
 1165POPC   D2A19504  19.079  10.781   8.405
 1165POPC   C3A19505  19.233  10.522   8.029
 1165POPC   C4A19506  19.151  10.637   7.590
 1165POPC   C1B19507  18.782  10.449   8.847
 1165POPC   C2B19508  18.861  10.304   8.372
 1165POPC   C3B19509  18.779  10.283   7.903
 1165POPC   C4B19510  18.832  10.282   7.428
 1166POPC   NC319511  31.140  36.859   9.482
 1166POPC   PO419512  31.680  36.545   9.370
 1166POPC   GL119513  31.466  36.863   9.072
 1166POPC   GL219514  31.228  37.157   9.083
 1166POPC   C1A19515  31.682  37.040   8.723
 1166POPC   D2A19516  31.906  36.822   8.378
 1166POPC   C3A19517  31.849  36.871   7.939
 1166POPC   C4A19518  31.558  36.722   7.622
 1166POPC   C1B19519  31.272  37.358   8.686
 1166POPC   C2B19520  31.330  37.143   8.332
 1166POPC   C3B19521  31.409  37.105   7.928
 1166POPC   C4B19522  31.257  37.209   7.571
 1167POPC   NC319523   2.757  11.612   9.484
 1167POPC   PO419524   3.058  11.038   9.775
 1167POPC   GL119525   2.873  11.140   9.326
 1167POPC   GL219526   3.094  11.387   9.176
 1167POPC   C1A19527   2.763  11.170   8.849
 1167POPC   D2A19528   2.638  11.210   8.406
 1167POPC   C3A19529   2.597  11.382   8.002
 1167POPC   C4A19530   2.608  11.045   7.706
 1167POPC   C1B19531   3.145  11.503   8.756
 1167POPC   C2B19532   2.906  11.665   8.409
 1167POPC   C3B19533   3.041  11.734   7.998
 1167POPC   C4B19534   3.038  11.641   7.587
 1168POPC   NC319535  25.368  16.429   9.470
 1168POPC   PO419536  25.439  15.757   9.592
 1168POPC   GL119537  25.491  15.969   9.262
 1168POPC   GL219538  25.813  16.074   9.370
 1168POPC   C1A19539  25.309  16.074   8.869
 1168POPC   D2A19540  25.107  15.975   8.503
 1168POPC   C3A19541  25.264  15.992   8.096
 1168POPC   C4A19542  25.124  16.257   7.766
 1168POPC   C1B19543  25.818  16.068   8.909
 1168POPC   C2B19544  25.669  16.066   8.499
 1168POPC   C3B19545  25.785  16.088   8.081
 1168POPC   C4B19546  25.606  16.085   7.696
 1169POPC   NC319547  38.641   1.587   9.208
 1169POPC   PO419548  38.291   1.134   9.629
 1169POPC   GL119549  38.391   1.081   9.184
 1169POPC   GL219550  38.216   1.335   9.054
 1169POPC   C1A19551  38.614   1.093   8.756
 1169POPC   D2A19552  38.484   0.882   8.345
 1169POPC   C3A19553  38.545   1.133   7.964
 1169POPC   C4A19554  38.824   1.452   7.742
 1169POPC   C1B19555  38.104   1.088   8.712
 1169POPC   C2B19556  38.289   1.348   8.408
 1169POPC   C3B19557  38.344   1.614   8.099
 1169POPC   C4B19558  38.298   1.493   7.710
 1170POPC   NC319559  15.465  15.560   9.529
 1170POPC   PO419560  14.841  15.301   9.484
 1170POPC   GL119561  15.060  15.247   9.130
 1170POPC   GL219562  15.394  15.166   9.211
 1170POPC   C1A19563  14.973  15.172   8.681
 1170POPC   D2A19564  14.854  14.854   8.343
 1170POPC   C3A19565  14.839  15.079   7.927
 1170POPC   C4A19566  14.909  15.035   7.481
 1170POPC   C1B19567  15.409  15.458   8.842
 1170POPC   C2B19568  15.258  15.498   8.435
 1170POPC   C3B19569  15.292  15.280   8.077
 1170POPC   C4B19570  15.232  15.443   7.682
 1171POPC   NC319571  21.656  13.674   9.537
 1171POPC   PO419572  22.285  13.435   9.497
 1171POPC   GL119573  22.168  13.472   9.099
 1171POPC   GL219574  21.842  13.430   9.111
 1171POPC   C1A19575  22.226  13.381   8.674
 1171POPC   D2A19576  22.024  13.582   8.341
 1171POPC   C3A19577  22.256  13.649   7.972
 1171POPC   C4A19578  22.583  13.946   7.837
 1171POPC   C1B19579  21.654  13.347   8.710
 1171POPC   C2B19580  21.552  13.404   8.276
 1171POPC   C3B19581  21.866  13.290   7.953
 1171POPC   C4B19582  21.987  13.503   7.555
 1172POPC   NC319583  40.207   1.760   9.506
 1172POPC   PO419584  39.812   2.282   9.364
 1172POPC   GL119585  39.868   1.905   9.124
 1172POPC   GL219586  40.207   2.038   9.089
 1172POPC   C1A19587  40.015   1.813   8.677
 1172POPC   D2A19588  40.120   2.100   8.316
 1172POPC   C3A19589  39.933   2.123   7.918
 1172POPC   C4A19590  39.636   1.851   7.732
 1172POPC   C1B19591  40.411   2.180   8.732
 1172POPC   C2B19592  40.626   2.107   8.352
 1172POPC   C3B19593  40.487   1.942   7.974
 1172POPC   C4B19594  40.358   2.182   7.628
 1173POPC   NC319595  33.575  29.478   9.513
 1173POPC   PO419596  34.082  30.004   9.521
 1173POPC   GL119597  33.877  29.768   9.201
 1173POPC   GL219598  33.525  29.862   9.112
 1173POPC   C1A19599  34.070  29.698   8.809
 1173POPC   D2A19600  34.050  29.569   8.374
 1173POPC   C3A19601  34.015  29.946   8.133
 1173POPC   C4A19602  33.869  30.276   7.839
 1173POPC   C1B19603  33.690  30.049   8.708
 1173POPC   C2B19604  33.541  30.098   8.265
 1173POPC   C3B19605  33.547  29.874   7.834
 1173POPC   C4B19606  33.467  29.654   7.415
 1174POPC   NC319607   1.475   3.716   9.466
 1174POPC   PO419608   1.226   3.104   9.517
 1174POPC   GL119609   1.176   3.430   9.182
 1174POPC   GL219610   0.850   3.538   9.094
 1174POPC   C1A19611   1.242   3.683   8.811
 1174POPC   D2A19612   1.180   3.625   8.389
 1174POPC   C3A19613   1.220   3.883   8.022
 1174POPC   C4A19614   1.124   3.807   7.548
 1174POPC   C1B19615   0.952   3.265   8.738
 1174POPC   C2B19616   1.136   3.088   8.396
 1174POPC   C3B19617   1.156   3.277   8.032
 1174POPC   C4B19618   1.348   3.366   7.685
 1175POPC   NC319619  25.879  40.397   9.480
 1175POPC   PO419620  26.140  41.038   9.417
 1175POPC   GL119621  25.900  40.814   9.170
 1175POPC   GL219622  26.165  40.576   9.110
 1175POPC   C1A19623  25.719  40.639   8.810
 1175POPC   D2A19624  25.769  40.770   8.402
 1175POPC   C3A19625  25.668  40.544   8.031
 1175POPC   C4A19626  25.851  40.551   7.617
 1175POPC   C1B19627  26.256  40.779   8.752
 1175POPC   C2B19628  26.274  40.800   8.330
 1175POPC   C3B19629  26.073  40.866   7.952
 1175POPC   C4B19630  26.277  41.014   7.561
 1176POPC   NC319631  11.661  18.267   9.561
 1176POPC   PO419632  11.034  18.396   9.435
 1176POPC   GL119633  11.362  18.272   9.124
 1176POPC   GL219634  11.545  17.934   9.184
 1176POPC   C1A19635  11.163  18.262   8.713
 1176POPC   D2A19636  11.215  18.475   8.319
 1176POPC   C3A19637  11.195  18.189   7.991
 1176POPC   C4A19638  11.043  18.464   7.696
 1176POPC   C1B19639  11.461  17.844   8.740
 1176POPC   C2B19640  11.534  18.091   8.385
 1176POPC   C3B19641  11.713  18.203   8.005
 1176POPC   C4B19642  11.530  18.192   7.602
 1177POPC   NC319643  13.162  17.802   9.509
 1177POPC   PO419644  12.745  17.297   9.677
 1177POPC   GL119645  12.868  17.397   9.259
 1177POPC   GL219646  12.755  17.759   9.183
 1177POPC   C1A19647  12.811  17.394   8.803
 1177POPC   D2A19648  13.055  17.558   8.455
 1177POPC   C3A19649  12.901  17.394   8.052
 1177POPC   C4A19650  12.621  17.425   7.689
 1177POPC   C1B19651  12.881  17.929   8.778
 1177POPC   C2B19652  13.074  18.073   8.401
 1177POPC   C3B19653  13.063  17.886   8.044
 1177POPC   C4B19654  13.062  17.866   7.611
 1178POPC   NC319655  34.390  40.251   9.399
 1178POPC   PO419656  33.732  40.037   9.473
 1178POPC   GL119657  33.866  40.118   9.095
 1178POPC   GL219658  33.979  40.468   9.036
 1178POPC   C1A19659  33.613  40.146   8.742
 1178POPC   D2A19660  33.412  40.211   8.335
 1178POPC   C3A19661  33.619  39.984   8.014
 1178POPC   C4A19662  33.798  40.049   7.602
 1178POPC   C1B19663  34.167  40.253   8.715
 1178POPC   C2B19664  34.000  40.061   8.367
 1178POPC   C3B19665  34.066  40.262   7.982
 1178POPC   C4B19666  34.243  40.335   7.591
 1179POPC   NC319667   1.213  26.566   9.501
 1179POPC   PO419668   1.149  27.173   9.500
 1179POPC   GL119669   1.328  26.971   9.130
 1179POPC   GL219670   1.108  27.177   8.954
 1179POPC   C1A19671   1.518  26.980   8.689
 1179POPC   D2A19672   1.474  26.623   8.385
 1179POPC   C3A19673   1.335  26.587   7.936
 1179POPC   C4A19674   1.243  26.970   7.673
 1179POPC   C1B19675   1.026  26.909   8.607
 1179POPC   C2B19676   1.092  26.950   8.184
 1179POPC   C3B19677   0.822  26.776   7.875
 1179POPC   C4B19678   0.725  26.948   7.471
 1180POPC   NC319679  40.310   9.060   9.477
 1180POPC   PO419680  39.850   9.492   9.534
 1180POPC   GL119681  40.041   9.163   9.085
 1180POPC   GL219682  40.248   8.810   9.030
 1180POPC   C1A19683  39.987   9.058   8.667
 1180POPC   D2A19684  40.000   9.063   8.253
 1180POPC   C3A19685  39.737   9.358   8.068
 1180POPC   C4A19686  39.961   9.191   7.725
 1180POPC   C1B19687  40.080   8.562   8.653
 1180POPC   C2B19688  40.139   8.573   8.239
 1180POPC   C3B19689  40.192   8.735   7.869
 1180POPC   C4B19690  40.243   8.478   7.550
 1181POPC   NC319691   0.406   6.247   9.541
 1181POPC   PO419692   0.534   7.000   9.521
 1181POPC   GL119693   0.584   6.713   9.167
 1181POPC   GL219694   0.297   6.549   9.148
 1181POPC   C1A19695   0.563   6.673   8.709
 1181POPC   D2A19696   0.426   6.497   8.316
 1181POPC   C3A19697   0.193   6.826   8.099
 1181POPC   C4A19698   0.253   7.047   7.715
 1181POPC   C1B19699   0.137   6.368   8.770
 1181POPC   C2B19700   0.122   6.068   8.440
 1181POPC   C3B19701   0.048   6.216   8.022
 1181POPC   C4B19702   0.319   6.460   7.742
 1182POPC   NC319703   9.224  43.599   9.294
 1182POPC   PO419704   9.174  42.886   9.427
 1182POPC   GL119705   9.067  43.035   9.046
 1182POPC   GL219706   8.862  43.308   9.031
 1182POPC   C1A19707   9.135  42.850   8.653
 1182POPC   D2A19708   9.235  42.627   8.291
 1182POPC   C3A19709   9.049  42.886   8.004
 1182POPC   C4A19710   8.932  43.150   7.641
 1182POPC   C1B19711   8.700  43.263   8.603
 1182POPC   C2B19712   8.931  43.369   8.232
 1182POPC   C3B19713   8.768  43.567   7.877
 1182POPC   C4B19714   8.467  43.379   7.620
 1183POPC   NC319715  37.501  31.460   9.371
 1183POPC   PO419716  38.096  31.513   9.366
 1183POPC   GL119717  37.831  31.496   8.988
 1183POPC   GL219718  37.532  31.732   8.939
 1183POPC   C1A19719  37.865  31.462   8.564
 1183POPC   D2A19720  37.959  31.193   8.263
 1183POPC   C3A19721  37.841  31.416   7.906
 1183POPC   C4A19722  37.722  31.369   7.487
 1183POPC   C1B19723  37.371  31.437   8.635
 1183POPC   C2B19724  37.459  31.302   8.224
 1183POPC   C3B19725  37.294  31.351   7.782
 1183POPC   C4B19726  37.263  31.238   7.321
 1184POPC   NC319727  31.831   1.456   9.600
 1184POPC   PO419728  31.248   1.030   9.550
 1184POPC   GL119729  31.410   1.309   9.217
 1184POPC   GL219730  31.748   1.214   9.160
 1184POPC   C1A19731  31.211   1.311   8.790
 1184POPC   D2A19732  31.142   0.974   8.459
 1184POPC   C3A19733  31.157   1.072   8.010
 1184POPC   C4A19734  31.201   1.162   7.568
 1184POPC   C1B19735  31.692   1.457   8.776
 1184POPC   C2B19736  31.542   1.323   8.347
 1184POPC   C3B19737  31.664   1.144   7.915
 1184POPC   C4B19738  31.701   1.195   7.407
 1185POPC   NC319739  13.515  31.441   9.462
 1185POPC   PO419740  13.815  31.877   9.822
 1185POPC   GL119741  13.680  31.898   9.291
 1185POPC   GL219742  13.361  31.868   9.164
 1185POPC   C1A19743  13.814  31.835   8.855
 1185POPC   D2A19744  13.763  31.513   8.524
 1185POPC   C3A19745  13.725  31.638   8.113
 1185POPC   C4A19746  13.961  31.502   7.723
 1185POPC   C1B19747  13.337  31.586   8.784
 1185POPC   C2B19748  13.229  31.506   8.320
 1185POPC   C3B19749  13.332  31.374   7.876
 1185POPC   C4B19750  13.468  31.248   7.436
 1186POPC   NC319751  13.332  38.183   9.337
 1186POPC   PO419752  13.838  37.791   9.581
 1186POPC   GL119753  13.751  37.857   9.176
 1186POPC   GL219754  13.500  37.631   9.142
 1186POPC   C1A19755  13.846  37.854   8.767
 1186POPC   D2A19756  13.844  37.614   8.425
 1186POPC   C3A19757  13.681  37.776   8.035
 1186POPC   C4A19758  13.747  37.542   7.628
 1186POPC   C1B19759  13.345  37.796   8.747
 1186POPC   C2B19760  13.285  37.607   8.345
 1186POPC   C3B19761  13.277  37.459   7.939
 1186POPC   C4B19762  13.300  37.759   7.653
 1187POPC   NC319763   2.275  26.962   9.508
 1187POPC   PO419764   1.667  26.654   9.474
 1187POPC   GL119765   1.930  26.776   9.152
 1187POPC   GL219766   2.282  26.633   9.133
 1187POPC   C1A19767   1.944  26.693   8.743
 1187POPC   D2A19768   1.960  26.885   8.411
 1187POPC   C3A19769   1.664  27.022   8.131
 1187POPC   C4A19770   1.713  26.842   7.756
 1187POPC   C1B19771   2.400  26.892   8.799
 1187POPC   C2B19772   2.459  27.050   8.411
 1187POPC   C3B19773   2.241  27.068   8.054
 1187POPC   C4B19774   2.200  26.801   7.747
 1188POPC   NC319775  22.814  20.678   9.490
 1188POPC   PO419776  23.131  21.210   9.495
 1188POPC   GL119777  23.194  20.947   9.112
 1188POPC   GL219778  23.208  20.563   9.130
 1188POPC   C1A19779  23.276  20.830   8.654
 1188POPC   D2A19780  23.340  20.725   8.198
 1188POPC   C3A19781  22.961  20.733   7.957
 1188POPC   C4A19782  22.771  20.493   7.612
 1188POPC   C1B19783  23.233  20.315   8.709
 1188POPC   C2B19784  23.042  20.305   8.272
 1188POPC   C3B19785  23.174  20.275   7.828
 1188POPC   C4B19786  23.044  20.115   7.404
 1189POPC   NC319787   2.986   8.049   9.485
 1189POPC   PO419788   2.445   8.523   9.527
 1189POPC   GL119789   2.674   8.330   9.192
 1189POPC   GL219790   3.034   8.464   9.195
 1189POPC   C1A19791   2.588   8.267   8.764
 1189POPC   D2A19792   2.411   8.158   8.351
 1189POPC   C3A19793   2.680   8.332   8.061
 1189POPC   C4A19794   2.658   8.151   7.681
 1189POPC   C1B19795   3.080   8.171   8.839
 1189POPC   C2B19796   2.903   8.008   8.441
 1189POPC   C3B19797   2.795   7.824   8.048
 1189POPC   C4B19798   3.059   7.815   7.666
 1190POPC   NC319799  37.424  17.367   9.321
 1190POPC   PO419800  37.842  17.674   9.710
 1190POPC   GL119801  37.941  17.719   9.253
 1190POPC   GL219802  37.851  17.441   9.078
 1190POPC   C1A19803  37.809  17.857   8.790
 1190POPC   D2A19804  37.660  17.733   8.347
 1190POPC   C3A19805  37.909  17.563   8.022
 1190POPC   C4A19806  37.967  17.955   7.786
 1190POPC   C1B19807  37.602  17.382   8.710
 1190POPC   C2B19808  37.442  17.273   8.336
 1190POPC   C3B19809  37.329  17.466   7.998
 1190POPC   C4B19810  37.563  17.666   7.681
 1191POPC   NC319811  38.048  27.723   9.472
 1191POPC   PO419812  38.173  28.291   9.407
 1191POPC   GL119813  38.103  28.056   9.010
 1191POPC   GL219814  38.234  27.691   9.002
 1191POPC   C1A19815  38.288  27.966   8.587
 1191POPC   D2A19816  38.120  27.755   8.219
 1191POPC   C3A19817  38.339  27.520   7.953
 1191POPC   C4A19818  38.230  27.193   7.726
 1191POPC   C1B19819  38.294  27.434   8.594
 1191POPC   C2B19820  38.348  27.114   8.241
 1191POPC   C3B19821  38.657  26.994   7.868
 1191POPC   C4B19822  38.671  27.189   7.412
 1192POPC   NC319823   5.900  21.144   9.514
 1192POPC   PO419824   5.476  21.646   9.371
 1192POPC   GL119825   5.690  21.355   9.106
 1192POPC   GL219826   6.051  21.462   9.109
 1192POPC   C1A19827   5.829  21.150   8.746
 1192POPC   D2A19828   6.045  21.149   8.353
 1192POPC   C3A19829   5.786  21.083   7.990
 1192POPC   C4A19830   5.646  21.182   7.588
 1192POPC   C1B19831   5.820  21.691   8.747
 1192POPC   C2B19832   5.749  21.575   8.310
 1192POPC   C3B19833   5.999  21.613   7.918
 1192POPC   C4B19834   6.068  21.929   7.561
 1193POPC   NC319835  21.612  24.503   9.551
 1193POPC   PO419836  20.919  24.724   9.557
 1193POPC   GL119837  21.219  24.587   9.227
 1193POPC   GL219838  21.092  24.316   9.153
 1193POPC   C1A19839  21.235  24.643   8.729
 1193POPC   D2A19840  21.439  24.708   8.280
 1193POPC   C3A19841  21.268  24.518   7.891
 1193POPC   C4A19842  20.869  24.538   7.607
 1193POPC   C1B19843  21.224  24.137   8.760
 1193POPC   C2B19844  21.306  24.212   8.336
 1193POPC   C3B19845  21.403  24.039   7.933
 1193POPC   C4B19846  21.196  24.143   7.521
 1194POPC   NC319847   4.748  29.703   9.649
 1194POPC   PO419848   4.132  30.001   9.523
 1194POPC   GL119849   4.380  29.978   9.158
 1194POPC   GL219850   4.331  29.670   9.031
 1194POPC   C1A19851   4.217  30.087   8.739
 1194POPC   D2A19852   4.201  29.826   8.338
 1194POPC   C3A19853   4.211  30.054   7.950
 1194POPC   C4A19854   4.253  30.393   7.630
 1194POPC   C1B19855   4.604  29.744   8.696
 1194POPC   C2B19856   4.798  29.665   8.325
 1194POPC   C3B19857   4.566  29.660   7.945
 1194POPC   C4B19858   4.160  29.586   7.744
 1195POPC   NC319859  33.987  11.418   9.971
 1195POPC   PO419860  33.869  11.505   9.531
 1195POPC   GL119861  33.926  11.306   9.113
 1195POPC   GL219862  33.908  10.948   9.114
 1195POPC   C1A19863  33.888  11.313   8.633
 1195POPC   D2A19864  33.714  11.446   8.211
 1195POPC   C3A19865  33.997  11.427   7.840
 1195POPC   C4A19866  34.169  11.418   7.403
 1195POPC   C1B19867  33.704  10.847   8.695
 1195POPC   C2B19868  33.638  10.939   8.230
 1195POPC   C3B19869  33.561  11.154   7.797
 1195POPC   C4B19870  33.417  11.178   7.339
 1196POPC   NC319871   6.563  14.043   9.489
 1196POPC   PO419872   6.378  14.728   9.434
 1196POPC   GL119873   6.542  14.702   9.028
 1196POPC   GL219874   6.718  14.374   9.073
 1196POPC   C1A19875   6.477  14.517   8.644
 1196POPC   D2A19876   6.311  14.422   8.280
 1196POPC   C3A19877   6.484  14.622   7.990
 1196POPC   C4A19878   6.607  14.355   7.707
 1196POPC   C1B19879   6.936  14.254   8.715
 1196POPC   C2B19880   6.791  14.217   8.310
 1196POPC   C3B19881   6.941  14.043   7.950
 1196POPC   C4B19882   6.958  14.039   7.519
 1197POPC   NC319883   8.361  34.301   9.497
 1197POPC   PO419884   8.155  35.009   9.548
 1197POPC   GL119885   8.191  34.754   9.209
 1197POPC   GL219886   8.530  34.686   9.204
 1197POPC   C1A19887   8.098  34.538   8.828
 1197POPC   D2A19888   7.849  34.621   8.443
 1197POPC   C3A19889   8.031  34.632   8.073
 1197POPC   C4A19890   8.146  34.441   7.734
 1197POPC   C1B19891   8.563  34.806   8.795
 1197POPC   C2B19892   8.425  34.656   8.419
 1197POPC   C3B19893   8.523  34.768   8.012
 1197POPC   C4B19894   8.517  34.997   7.659
 1198POPC   NC319895  25.803  13.773   9.530
 1198POPC   PO419896  26.488  13.655   9.363
 1198POPC   GL119897  26.237  13.628   9.062
 1198POPC   GL219898  25.900  13.572   9.077
 1198POPC   C1A19899  26.227  13.673   8.656
 1198POPC   D2A19900  26.119  13.405   8.342
 1198POPC   C3A19901  26.219  13.618   8.024
 1198POPC   C4A19902  26.001  13.497   7.689
 1198POPC   C1B19903  25.804  13.930   8.832
 1198POPC   C2B19904  25.849  13.895   8.364
 1198POPC   C3B19905  25.727  13.844   7.920
 1198POPC   C4B19906  25.771  13.900   7.409
 1199POPC   NC319907  35.024  33.829   9.723
 1199POPC   PO419908  35.683  33.912   9.573
 1199POPC   GL119909  35.339  33.925   9.260
 1199POPC   GL219910  35.210  33.591   9.289
 1199POPC   C1A19911  35.468  33.985   8.818
 1199POPC   D2A19912  35.581  33.741   8.451
 1199POPC   C3A19913  35.447  34.007   8.098
 1199POPC   C4A19914  35.497  33.810   7.715
 1199POPC   C1B19915  35.252  33.527   8.862
 1199POPC   C2B19916  35.065  33.678   8.498
 1199POPC   C3B19917  35.181  33.578   8.097
 1199POPC   C4B19918  35.011  33.630   7.709
 1200POPC   NC319919  32.823  21.114   9.503
 1200POPC   PO419920  33.255  21.660   9.574
 1200POPC   GL119921  32.994  21.529   9.243
 1200POPC   GL219922  33.154  21.802   9.064
 1200POPC   C1A19923  32.706  21.355   8.869
 1200POPC   D2A19924  32.857  21.160   8.489
 1200POPC   C3A19925  32.856  21.411   8.114
 1200POPC   C4A19926  32.858  21.179   7.738
 1200POPC   C1B19927  33.178  21.493   8.764
 1200POPC   C2B19928  33.316  21.467   8.370
 1200POPC   C3B19929  33.373  21.297   7.984
 1200POPC   C4B19930  33.258  21.497   7.627
 1201POPC   NC319931  21.224  10.892   9.630
 1201POPC   PO419932  21.507  11.544   9.464
 1201POPC   GL119933  21.375  11.285   9.127
 1201POPC   GL219934  21.030  11.197   9.209
 1201POPC   C1A19935  21.424  11.328   8.671
 1201POPC   D2A19936  21.616  11.111   8.299
 1201POPC   C3A19937  21.455  11.281   7.893
 1201POPC   C4A19938  21.103  11.569   7.768
 1201POPC   C1B19939  20.964  11.038   8.776
 1201POPC   C2B19940  21.024  10.968   8.300
 1201POPC   C3B19941  20.980  11.054   7.844
 1201POPC   C4B19942  21.273  10.956   7.492
 1202POPC   NC319943  39.440  41.503   9.469
 1202POPC   PO419944  38.873  41.643   9.597
 1202POPC   GL119945  39.069  41.657   9.155
 1202POPC   GL219946  39.432  41.703   9.013
 1202POPC   C1A19947  39.083  41.441   8.762
 1202POPC   D2A19948  38.888  41.495   8.383
 1202POPC   C3A19949  39.132  41.694   8.091
 1202POPC   C4A19950  39.003  41.494   7.714
 1202POPC   C1B19951  39.650  41.460   8.713
 1202POPC   C2B19952  39.464  41.327   8.339
 1202POPC   C3B19953  39.498  41.385   7.909
 1202POPC   C4B19954  39.571  41.781   7.757
 1203POPC   NC319955  23.447  44.257   9.540
 1203POPC   PO419956  23.498  44.884   9.229
 1203POPC   GL119957  23.431  44.478   9.071
 1203POPC   GL219958  23.792  44.369   9.059
 1203POPC   C1A19959  23.460  44.489   8.642
 1203POPC   D2A19960  23.761  44.628   8.332
 1203POPC   C3A19961  23.588  44.906   7.978
 1203POPC   C4A19962  23.711   0.031   7.562
 1203POPC   C1B19963  23.773  44.100   8.666
 1203POPC   C2B19964  23.425  44.109   8.314
 1203POPC   C3B19965  23.425  44.434   8.013
 1203POPC   C4B19966  23.888  44.372   7.875
 1204POPC   NC319967   0.989  31.624   9.721
 1204POPC   PO419968   1.334  32.134   9.691
 1204POPC   GL119969   1.000  32.266   9.285
 1204POPC   GL219970   1.250  32.312   9.075
 1204POPC   C1A19971   0.846  32.382   8.809
 1204POPC   D2A19972   0.760  32.174   8.390
 1204POPC   C3A19973   0.915  32.344   7.976
 1204POPC   C4A19974   0.994  32.139   7.560
 1204POPC   C1B19975   1.438  32.257   8.675
 1204POPC   C2B19976   1.285  32.277   8.319
 1204POPC   C3B19977   1.382  32.123   7.930
 1204POPC   C4B19978   1.456  32.337   7.570
 1205POPC   NC319979  37.418  15.497   9.761
 1205POPC   PO419980  37.863  15.044   9.534
 1205POPC   GL119981  37.595  15.112   9.216
 1205POPC   GL219982  37.489  15.449   9.250
 1205POPC   C1A19983  37.641  14.966   8.799
 1205POPC   D2A19984  37.663  15.150   8.410
 1205POPC   C3A19985  37.803  15.004   8.048
 1205POPC   C4A19986  37.504  14.784   7.837
 1205POPC   C1B19987  37.626  15.480   8.801
 1205POPC   C2B19988  37.708  15.655   8.376
 1205POPC   C3B19989  37.545  15.489   8.007
 1205POPC   C4B19990  37.338  15.338   7.648
 1206POPC   NC319991   9.381  34.886   9.483
 1206POPC   PO419992   8.718  34.647   9.696
 1206POPC   GL119993   8.996  34.550   9.334
 1206POPC   GL219994   8.886  34.239   9.299
 1206POPC   C1A19995   9.049  34.556   8.866
 1206POPC   D2A19996   8.953  34.753   8.452
 1206POPC   C3A19997   8.996  34.545   8.079
 1206POPC   C4A19998   8.967  34.757   7.704
 1206POPC   C1B19999   8.642  34.261   8.911
 1206POPC   C2B20000   8.756  34.261   8.474
 1206POPC   C3B20001   8.525  34.258   8.095
 1206POPC   C4B20002   8.655  34.367   7.696
 1207POPC   NC320003  41.643   2.450   9.473
 1207POPC   PO420004  41.199   2.872   9.520
 1207POPC   GL120005  41.389   2.765   9.159
 1207POPC   GL220006  41.239   2.456   9.129
 1207POPC   C1A20007  41.645   2.881   8.813
 1207POPC   D2A20008  41.821   2.760   8.443
 1207POPC   C3A20009  41.623   2.843   8.097
 1207POPC   C4A20010  41.635   2.805   7.701
 1207POPC   C1B20011  41.467   2.417   8.754
 1207POPC   C2B20012  41.628   2.283   8.358
 1207POPC   C3B20013  41.491   2.345   7.968
 1207POPC   C4B20014  41.428   2.352   7.565
 1208POPC   NC320015  17.282  23.805   9.790
 1208POPC   PO420016  17.852  23.600   9.773
 1208POPC   GL120017  17.503  23.767   9.356
 1208POPC   GL220018  17.302  23.468   9.363
 1208POPC   C1A20019  17.522  23.888   8.874
 1208POPC   D2A20020  17.341  23.950   8.441
 1208POPC   C3A20021  17.568  24.058   8.053
 1208POPC   C4A20022  17.824  23.850   7.756
 1208POPC   C1B20023  17.271  23.448   8.923
 1208POPC   C2B20024  17.228  23.441   8.475
 1208POPC   C3B20025  17.522  23.548   8.146
 1208POPC   C4B20026  17.341  23.684   7.785
 1209POPC   NC320027   1.785  20.981   9.573
 1209POPC   PO420028   2.069  21.544   9.519
 1209POPC   GL120029   2.254  21.465   9.123
 1209POPC   GL220030   2.160  21.113   9.100
 1209POPC   C1A20031   2.156  21.481   8.702
 1209POPC   D2A20032   1.851  21.383   8.361
 1209POPC   C3A20033   2.097  21.366   8.008
 1209POPC   C4A20034   2.074  21.513   7.600
 1209POPC   C1B20035   1.818  21.109   8.804
 1209POPC   C2B20036   1.777  20.874   8.442
 1209POPC   C3B20037   1.873  20.868   8.050
 1209POPC   C4B20038   1.863  21.066   7.675
 1210POPC   NC320039  13.076   6.408   9.498
 1210POPC   PO420040  12.396   6.596   9.574
 1210POPC   GL120041  12.721   6.728   9.202
 1210POPC   GL220042  12.922   6.465   9.016
 1210POPC   C1A20043  12.736   6.795   8.693
 1210POPC   D2A20044  12.750   6.548   8.283
 1210POPC   C3A20045  12.714   6.708   7.876
 1210POPC   C4A20046  12.978   6.993   7.690
 1210POPC   C1B20047  13.076   6.261   8.617
 1210POPC   C2B20048  13.178   6.225   8.172
 1210POPC   C3B20049  13.172   6.484   7.834
 1210POPC   C4B20050  12.996   6.540   7.457
 1211POPC   NC320051   6.823  42.985   9.608
 1211POPC   PO420052   6.918  43.594   9.334
 1211POPC   GL120053   6.776  43.244   9.095
 1211POPC   GL220054   6.817  42.874   9.133
 1211POPC   C1A20055   6.490  43.379   8.790
 1211POPC   D2A20056   6.334  43.460   8.391
 1211POPC   C3A20057   6.319  43.083   8.166
 1211POPC   C4A20058   6.374  43.269   7.805
 1211POPC   C1B20059   6.642  42.874   8.765
 1211POPC   C2B20060   6.760  43.136   8.445
 1211POPC   C3B20061   6.826  43.186   8.038
 1211POPC   C4B20062   6.703  42.880   7.765
 1212POPC   NC320063  37.482   4.657   9.671
 1212POPC   PO420064  37.502   4.034   9.545
 1212POPC   GL120065  37.764   4.182   9.199
 1212POPC   GL220066  37.795   4.536   9.187
 1212POPC   C1A20067  37.614   4.312   8.764
 1212POPC   D2A20068  37.812   4.297   8.356
 1212POPC   C3A20069  37.544   4.423   8.018
 1212POPC   C4A20070  37.456   4.269   7.615
 1212POPC   C1B20071  38.090   4.476   8.804
 1212POPC   C2B20072  38.102   4.718   8.386
 1212POPC   C3B20073  38.079   4.526   7.957
 1212POPC   C4B20074  37.927   4.147   7.693
 1213POPC   NC320075   0.268  31.689   9.486
 1213POPC   PO420076   0.706  31.290   9.600
 1213POPC   GL120077   0.527  31.186   9.205
 1213POPC   GL220078   0.149  31.327   9.162
 1213POPC   C1A20079   0.759  31.142   8.811
 1213POPC   D2A20080   0.773  31.498   8.544
 1213POPC   C3A20081   0.614  31.514   8.153
 1213POPC   C4A20082   0.435  31.640   7.774
 1213POPC   C1B20083   0.253  31.187   8.761
 1213POPC   C2B20084   0.444  31.092   8.378
 1213POPC   C3B20085   0.253  31.194   7.974
 1213POPC   C4B20086  44.865  31.178   7.792
 1214POPC   NC320087  15.799  23.758   9.549
 1214POPC   PO420088  16.216  23.204   9.458
 1214POPC   GL120089  15.906  23.415   9.163
 1214POPC   GL220090  15.963  23.754   9.065
 1214POPC   C1A20091  15.677  23.481   8.755
 1214POPC   D2A20092  15.665  23.746   8.375
 1214POPC   C3A20093  15.805  23.709   7.953
 1214POPC   C4A20094  15.906  23.709   7.526
 1214POPC   C1B20095  16.075  23.898   8.646
 1214POPC   C2B20096  16.071  24.060   8.211
 1214POPC   C3B20097  16.042  24.156   7.763
 1214POPC   C4B20098  16.047  24.133   7.292
 1215POPC   NC320099  12.021   4.904   9.903
 1215POPC   PO420100  12.132   5.472   9.431
 1215POPC   GL120101  11.961   5.159   9.116
 1215POPC   GL220102  12.230   4.965   9.096
 1215POPC   C1A20103  11.885   5.002   8.655
 1215POPC   D2A20104  11.889   4.653   8.319
 1215POPC   C3A20105  11.973   4.852   7.905
 1215POPC   C4A20106  11.806   5.117   7.550
 1215POPC   C1B20107  12.385   4.893   8.681
 1215POPC   C2B20108  12.359   4.883   8.239
 1215POPC   C3B20109  12.564   4.804   7.862
 1215POPC   C4B20110  12.775   5.026   7.504
 1216POPC   NC320111  41.753  13.177   9.442
 1216POPC   PO420112  42.180  12.732   9.489
 1216POPC   GL120113  42.297  12.617   9.082
 1216POPC   GL220114  42.004  12.479   9.014
 1216POPC   C1A20115  42.473  12.819   8.714
 1216POPC   D2A20116  42.450  12.759   8.298
 1216POPC   C3A20117  42.530  13.050   7.963
 1216POPC   C4A20118  42.518  12.857   7.578
 1216POPC   C1B20119  41.954  12.861   8.747
 1216POPC   C2B20120  41.988  12.974   8.300
 1216POPC   C3B20121  42.099  12.734   7.912
 1216POPC   C4B20122  42.030  12.784   7.462
 1217POPC   NC320123  20.330   3.863   9.617
 1217POPC   PO420124  19.778   3.380   9.611
 1217POPC   GL120125  19.784   3.384   9.200
 1217POPC   GL220126  20.150   3.487   9.256
 1217POPC   C1A20127  19.679   3.357   8.741
 1217POPC   D2A20128  19.590   3.262   8.298
 1217POPC   C3A20129  19.667   3.579   7.968
 1217POPC   C4A20130  19.942   3.506   7.584
 1217POPC   C1B20131  20.161   3.221   8.911
 1217POPC   C2B20132  20.218   3.298   8.484
 1217POPC   C3B20133  20.076   3.299   8.061
 1217POPC   C4B20134  20.147   3.030   7.715
 1218POPC   NC320135  21.316  38.124   9.423
 1218POPC   PO420136  21.417  37.521   9.585
 1218POPC   GL120137  21.510  37.687   9.220
 1218POPC   GL220138  21.171  37.759   9.119
 1218POPC   C1A20139  21.636  37.877   8.849
 1218POPC   D2A20140  21.717  37.664   8.477
 1218POPC   C3A20141  21.823  37.873   8.116
 1218POPC   C4A20142  21.562  37.740   7.784
 1218POPC   C1B20143  21.283  37.498   8.782
 1218POPC   C2B20144  21.069  37.516   8.379
 1218POPC   C3B20145  21.179  37.375   7.960
 1218POPC   C4B20146  21.233  37.463   7.537
 1219POPC   NC320147   2.520  25.388   9.429
 1219POPC   PO420148   3.029  24.945   9.578
 1219POPC   GL120149   2.821  25.058   9.179
 1219POPC   GL220150   2.605  24.833   9.061
 1219POPC   C1A20151   2.613  25.239   8.773
 1219POPC   D2A20152   2.585  25.137   8.341
 1219POPC   C3A20153   2.626  25.488   8.088
 1219POPC   C4A20154   2.857  25.602   7.734
 1219POPC   C1B20155   2.939  24.820   8.690
 1219POPC   C2B20156   2.954  24.822   8.204
 1219POPC   C3B20157   2.793  25.041   7.813
 1219POPC   C4B20158   2.951  24.943   7.383
 1220POPC   NC320159  31.013  29.662   9.426
 1220POPC   PO420160  30.825  30.303   9.426
 1220POPC   GL120161  30.816  29.990   9.096
 1220POPC   GL220162  30.593  29.701   9.116
 1220POPC   C1A20163  30.974  29.799   8.741
 1220POPC   D2A20164  30.890  30.026   8.356
 1220POPC   C3A20165  30.860  29.913   7.916
 1220POPC   C4A20166  30.659  29.667   7.603
 1220POPC   C1B20167  30.475  29.830   8.660
 1220POPC   C2B20168  30.403  29.844   8.187
 1220POPC   C3B20169  30.275  30.010   7.769
 1220POPC   C4B20170  30.175  30.300   7.392
 1221POPC   NC320171  38.612   3.327   9.358
 1221POPC   PO420172  38.292   3.916   9.418
 1221POPC   GL120173  38.400   3.671   9.046
 1221POPC   GL220174  38.208   3.355   9.050
 1221POPC   C1A20175  38.739   3.536   8.729
 1221POPC   D2A20176  38.715   3.390   8.265
 1221POPC   C3A20177  38.598   3.660   7.933
 1221POPC   C4A20178  38.181   3.668   7.682
 1221POPC   C1B20179  38.262   3.415   8.606
 1221POPC   C2B20180  38.142   3.441   8.177
 1221POPC   C3B20181  38.348   3.225   7.867
 1221POPC   C4B20182  38.754   3.215   7.727
 1222POPC   NC320183  25.600  22.892   9.661
 1222POPC   PO420184  24.917  22.849   9.433
 1222POPC   GL120185  25.224  23.128   9.256
 1222POPC   GL220186  25.405  22.868   9.163
 1222POPC   C1A20187  25.256  23.291   8.822
 1222POPC   D2A20188  25.162  23.433   8.387
 1222POPC   C3A20189  25.424  23.285   8.029
 1222POPC   C4A20190  25.375  22.944   7.713
 1222POPC   C1B20191  25.307  22.741   8.769
 1222POPC   C2B20192  25.278  22.939   8.399
 1222POPC   C3B20193  25.014  22.962   8.082
 1222POPC   C4B20194  24.937  22.603   7.774
 1223POPC   NC320195  38.817  36.380   9.519
 1223POPC   PO420196  38.884  35.774   9.513
 1223POPC   GL120197  39.019  36.047   9.127
 1223POPC   GL220198  39.161  36.398   9.133
 1223POPC   C1A20199  39.204  36.083   8.673
 1223POPC   D2A20200  39.171  35.859   8.245
 1223POPC   C3A20201  39.284  36.016   7.834
 1223POPC   C4A20202  39.558  35.883   7.517
 1223POPC   C1B20203  38.826  36.399   8.800
 1223POPC   C2B20204  38.812  36.203   8.358
 1223POPC   C3B20205  38.914  36.373   7.950
 1223POPC   C4B20206  39.119  36.409   7.537
 1224POPC   NC320207  26.838  17.408   9.409
 1224POPC   PO420208  26.384  16.929   9.116
 1224POPC   GL120209  26.588  17.296   8.992
 1224POPC   GL220210  26.956  17.185   8.966
 1224POPC   C1A20211  26.779  17.632   8.760
 1224POPC   D2A20212  26.659  17.687   8.344
 1224POPC   C3A20213  26.650  17.449   7.945
 1224POPC   C4A20214  26.712  17.648   7.501
 1224POPC   C1B20215  27.369  17.235   8.753
 1224POPC   C2B20216  27.454  17.399   8.384
 1224POPC   C3B20217  27.152  17.554   8.116
 1224POPC   C4B20218  27.102  17.430   7.712
 1225POPC   NC320219  18.228  40.771   9.409
 1225POPC   PO420220  17.855  40.362   9.116
 1225POPC   GL120221  18.223  40.519   8.973
 1225POPC   GL220222  18.532  40.428   9.167
 1225POPC   C1A20223  18.370  40.864   8.733
 1225POPC   D2A20224  18.127  41.025   8.398
 1225POPC   C3A20225  18.297  41.125   8.012
 1225POPC   C4A20226  18.119  41.044   7.596
 1225POPC   C1B20227  18.615  40.404   8.699
 1225POPC   C2B20228  18.254  40.479   8.384
 1225POPC   C3B20229  18.174  40.624   7.953
 1225POPC   C4B20230  18.517  40.750   7.711
 1226POPC   NC320231  38.254   2.478   9.748
 1226POPC   PO420232  37.658   2.517   9.618
 1226POPC   GL120233  37.780   2.745   9.238
 1226POPC   GL220234  38.136   2.798   9.249
 1226POPC   C1A20235  37.587   2.853   8.828
 1226POPC   D2A20236  37.381   2.725   8.439
 1226POPC   C3A20237  37.628   2.581   8.111
 1226POPC   C4A20238  37.609   2.654   7.649
 1226POPC   C1B20239  38.129   2.916   8.799
 1226POPC   C2B20240  37.894   2.977   8.398
 1226POPC   C3B20241  37.984   2.901   7.964
 1226POPC   C4B20242  38.045   2.473   7.815
 1227POPC   NC320243  21.152  36.369   9.474
 1227POPC   PO420244  20.934  35.722   9.478
 1227POPC   GL120245  21.247  35.897   9.202
 1227POPC   GL220246  21.072  36.125   9.036
 1227POPC   C1A20247  21.578  36.132   8.934
 1227POPC   D2A20248  21.726  36.252   8.513
 1227POPC   C3A20249  21.692  36.293   8.058
 1227POPC   C4A20250  21.589  36.472   7.644
 1227POPC   C1B20251  21.195  35.940   8.662
 1227POPC   C2B20252  21.314  35.967   8.231
 1227POPC   C3B20253  21.233  36.121   7.827
 1227POPC   C4B20254  21.281  36.078   7.385
 1228POPC   NC320255  35.394  25.535   9.735
 1228POPC   PO420256  35.174  25.074   9.366
 1228POPC   GL120257  35.275  25.358   9.082
 1228POPC   GL220258  35.576  25.166   9.030
 1228POPC   C1A20259  35.247  25.446   8.637
 1228POPC   D2A20260  35.054  25.591   8.264
 1228POPC   C3A20261  35.182  25.295   8.002
 1228POPC   C4A20262  35.013  24.958   7.811
 1228POPC   C1B20263  35.749  25.491   8.748
 1228POPC   C2B20264  35.726  25.518   8.292
 1228POPC   C3B20265  35.670  25.431   7.841
 1228POPC   C4B20266  35.648  25.745   7.507
 1229POPC   NC320267  32.757   0.672   9.566
 1229POPC   PO420268  33.052   1.327   9.513
 1229POPC   GL120269  32.942   1.064   9.204
 1229POPC   GL220270  32.737   1.317   9.061
 1229POPC   C1A20271  32.949   0.946   8.781
 1229POPC   D2A20272  33.111   1.199   8.424
 1229POPC   C3A20273  33.127   0.975   8.047
 1229POPC   C4A20274  32.985   1.005   7.665
 1229POPC   C1B20275  32.697   1.428   8.658
 1229POPC   C2B20276  32.840   1.610   8.282
 1229POPC   C3B20277  33.002   1.472   7.935
 1229POPC   C4B20278  32.616   1.338   7.767
 1230POPC   NC320279   6.889  34.772   9.415
 1230POPC   PO420280   6.397  34.386   9.703
 1230POPC   GL120281   6.474  34.362   9.241
 1230POPC   GL220282   6.818  34.346   9.107
 1230POPC   C1A20283   6.413  34.209   8.803
 1230POPC   D2A20284   6.347  34.413   8.386
 1230POPC   C3A20285   6.565  34.429   7.980
 1230POPC   C4A20286   6.494  34.756   7.671
 1230POPC   C1B20287   6.807  34.665   8.737
 1230POPC   C2B20288   6.770  34.819   8.276
 1230POPC   C3B20289   7.002  34.835   7.871
 1230POPC   C4B20290   7.345  34.776   7.546
 1231POPC   NC320291  30.250  25.878   9.695
 1231POPC   PO420292  29.650  26.086   9.407
 1231POPC   GL120293  29.875  26.055   9.077
 1231POPC   GL220294  30.209  26.091   9.218
 1231POPC   C1A20295  29.847  25.861   8.681
 1231POPC   D2A20296  29.949  25.991   8.312
 1231POPC   C3A20297  29.695  25.850   8.010
 1231POPC   C4A20298  29.513  25.956   7.623
 1231POPC   C1B20299  30.329  26.049   8.783
 1231POPC   C2B20300  30.326  26.309   8.390
 1231POPC   C3B20301  30.177  26.312   7.967
 1231POPC   C4B20302  30.003  26.047   7.660
 1232POPC   NC320303  21.856  39.130   9.542
 1232POPC   PO420304  22.559  39.242   9.553
 1232POPC   GL120305  22.256  39.263   9.187
 1232POPC   GL220306  22.019  39.527   9.250
 1232POPC   C1A20307  22.164  39.047   8.763
 1232POPC   D2A20308  22.204  38.808   8.335
 1232POPC   C3A20309  22.203  38.998   7.914
 1232POPC   C4A20310  21.851  39.043   7.641
 1232POPC   C1B20311  21.960  39.527   8.800
 1232POPC   C2B20312  21.763  39.404   8.392
 1232POPC   C3B20313  21.905  39.464   7.949
 1232POPC   C4B20314  22.370  39.495   7.813
 1233POPC   NC320315   5.345  40.988   9.347
 1233POPC   PO420316   4.785  40.794   9.631
 1233POPC   GL120317   4.815  40.933   9.196
 1233POPC   GL220318   4.821  41.279   9.124
 1233POPC   C1A20319   5.002  40.803   8.815
 1233POPC   D2A20320   4.799  40.497   8.600
 1233POPC   C3A20321   4.737  40.519   8.190
 1233POPC   C4A20322   5.089  40.545   7.934
 1233POPC   C1B20323   4.943  41.294   8.669
 1233POPC   C2B20324   5.051  40.994   8.323
 1233POPC   C3B20325   5.212  41.035   7.887
 1233POPC   C4B20326   5.096  41.030   7.443
 1234POPC   NC320327  29.584  43.097   9.411
 1234POPC   PO420328  29.209  42.768   9.895
 1234POPC   GL120329  29.158  42.853   9.306
 1234POPC   GL220330  28.886  42.992   9.190
 1234POPC   C1A20331  29.249  43.060   8.846
 1234POPC   D2A20332  29.014  43.090   8.451
 1234POPC   C3A20333  29.183  43.050   8.025
 1234POPC   C4A20334  29.048  43.199   7.611
 1234POPC   C1B20335  28.787  42.777   8.800
 1234POPC   C2B20336  28.841  42.631   8.381
 1234POPC   C3B20337  28.728  42.825   8.003
 1234POPC   C4B20338  28.600  42.890   7.573
 1235POPC   NC320339  43.022   0.921   9.491
 1235POPC   PO420340  43.472   1.398   9.606
 1235POPC   GL120341  43.254   1.307   9.228
 1235POPC   GL220342  42.891   1.414   9.234
 1235POPC   C1A20343  43.381   1.101   8.855
 1235POPC   D2A20344  43.393   1.260   8.423
 1235POPC   C3A20345  43.437   1.074   8.012
 1235POPC   C4A20346  43.264   1.312   7.654
 1235POPC   C1B20347  42.875   1.126   8.871
 1235POPC   C2B20348  42.854   1.229   8.421
 1235POPC   C3B20349  42.926   1.123   7.988
 1235POPC   C4B20350  42.746   1.255   7.580
 1236POPC   NC320351   9.731   1.220   9.557
 1236POPC   PO420352  10.232   0.885   9.302
 1236POPC   GL120353   9.836   0.967   9.101
 1236POPC   GL220354   9.838   1.323   9.056
 1236POPC   C1A20355   9.761   0.958   8.658
 1236POPC   D2A20356   9.746   1.313   8.394
 1236POPC   C3A20357   9.699   1.324   7.948
 1236POPC   C4A20358   9.703   1.179   7.522
 1236POPC   C1B20359   9.435   1.341   8.816
 1236POPC   C2B20360   9.283   1.532   8.411
 1236POPC   C3B20361   9.207   1.402   8.017
 1236POPC   C4B20362   9.235   1.405   7.589
 1237POPC   NC320363  34.239  20.012   9.344
 1237POPC   PO420364  33.582  20.051   9.546
 1237POPC   GL120365  33.739  19.971   9.150
 1237POPC   GL220366  33.922  19.648   9.131
 1237POPC   C1A20367  33.593  19.915   8.747
 1237POPC   D2A20368  33.469  20.026   8.349
 1237POPC   C3A20369  33.549  19.745   7.984
 1237POPC   C4A20370  33.777  19.784   7.624
 1237POPC   C1B20371  34.094  19.851   8.750
 1237POPC   C2B20372  33.972  20.086   8.410
 1237POPC   C3B20373  34.069  19.881   8.041
 1237POPC   C4B20374  34.281  19.709   7.704
 1238POPC   NC320375  15.553  43.083   9.587
 1238POPC   PO420376  14.933  42.860   9.399
 1238POPC   GL120377  15.165  43.145   9.223
 1238POPC   GL220378  14.896  43.257   9.041
 1238POPC   C1A20379  15.372  43.337   8.854
 1238POPC   D2A20380  15.457  43.163   8.470
 1238POPC   C3A20381  15.252  43.311   8.120
 1238POPC   C4A20382  15.241  43.200   7.685
 1238POPC   C1B20383  14.920  43.326   8.604
 1238POPC   C2B20384  14.728  43.283   8.228
 1238POPC   C3B20385  14.766  43.046   7.873
 1238POPC   C4B20386  14.838  42.957   7.422
 1239POPC   NC320387   1.661  41.082   9.422
 1239POPC   PO420388   2.329  41.334   9.620
 1239POPC   GL120389   2.207  41.529   9.240
 1239POPC   GL220390   1.855  41.516   9.218
 1239POPC   C1A20391   2.128  41.692   8.825
 1239POPC   D2A20392   1.895  41.761   8.439
 1239POPC   C3A20393   2.030  41.570   8.047
 1239POPC   C4A20394   2.183  41.484   7.617
 1239POPC   C1B20395   1.707  41.398   8.795
 1239POPC   C2B20396   1.621  41.062   8.520
 1239POPC   C3B20397   1.613  41.135   8.067
 1239POPC   C4B20398   1.681  41.393   7.727
 1240POPC   NC320399   2.656   0.847   9.370
 1240POPC   PO420400   2.856   1.370   9.733
 1240POPC   GL120401   3.019   1.162   9.190
 1240POPC   GL220402   2.694   1.063   8.913
 1240POPC   C1A20403   3.010   1.421   8.755
 1240POPC   D2A20404   2.626   1.407   8.492
 1240POPC   C3A20405   2.708   1.210   8.090
 1240POPC   C4A20406   2.639   1.064   7.686
 1240POPC   C1B20407   2.969   0.924   8.673
 1240POPC   C2B20408   2.885   0.744   8.301
 1240POPC   C3B20409   2.955   0.738   7.895
 1240POPC   C4B20410   3.091   0.826   7.456
 1241POPC   NC320411  16.404  13.338   9.427
 1241POPC   PO420412  16.932  13.732   9.405
 1241POPC   GL120413  16.787  13.513   9.063
 1241POPC   GL220414  16.758  13.150   9.103
 1241POPC   C1A20415  16.685  13.741   8.691
 1241POPC   D2A20416  16.782  13.874   8.267
 1241POPC   C3A20417  16.616  13.593   7.951
 1241POPC   C4A20418  16.427  13.648   7.557
 1241POPC   C1B20419  17.018  13.182   8.745
 1241POPC   C2B20420  16.941  13.386   8.359
 1241POPC   C3B20421  17.122  13.563   8.018
 1241POPC   C4B20422  17.051  13.417   7.605
 1242POPC   NC320423  32.573   4.704   9.591
 1242POPC   PO420424  32.164   4.195   9.771
 1242POPC   GL120425  32.145   4.121   9.342
 1242POPC   GL220426  32.424   4.309   9.271
 1242POPC   C1A20427  31.876   4.201   8.971
 1242POPC   D2A20428  31.779   4.244   8.535
 1242POPC   C3A20429  31.984   4.452   8.225
 1242POPC   C4A20430  31.999   4.244   7.859
 1242POPC   C1B20431  32.583   4.127   8.906
 1242POPC   C2B20432  32.510   4.275   8.506
 1242POPC   C3B20433  32.630   4.115   8.096
 1242POPC   C4B20434  32.482   4.127   7.690
 1243POPC   NC320435  27.734  17.229   9.413
 1243POPC   PO420436  27.483  16.667   9.756
 1243POPC   GL120437  27.667  16.666   9.324
 1243POPC   GL220438  27.892  16.405   9.175
 1243POPC   C1A20439  27.664  16.814   8.892
 1243POPC   D2A20440  27.789  17.024   8.497
 1243POPC   C3A20441  27.795  16.769   8.132
 1243POPC   C4A20442  27.766  16.772   7.686
 1243POPC   C1B20443  27.979  16.455   8.709
 1243POPC   C2B20444  27.960  16.290   8.271
 1243POPC   C3B20445  28.113  16.435   7.855
 1243POPC   C4B20446  28.137  16.539   7.382
 1244POPC   NC320447   5.913  41.275   9.478
 1244POPC   PO420448   6.030  42.015   9.504
 1244POPC   GL120449   6.139  41.698   9.179
 1244POPC   GL220450   5.800  41.527   9.047
 1244POPC   C1A20451   6.072  41.856   8.761
 1244POPC   D2A20452   5.716  41.727   8.547
 1244POPC   C3A20453   5.751  41.737   8.136
 1244POPC   C4A20454   6.009  41.657   7.845
 1244POPC   C1B20455   5.556  41.266   8.700
 1244POPC   C2B20456   5.397  41.389   8.270
 1244POPC   C3B20457   5.615  41.328   7.841
 1244POPC   C4B20458   5.574  41.128   7.405
 1245POPC   NC320459  13.998   1.882   9.583
 1245POPC   PO420460  13.371   1.895   9.746
 1245POPC   GL120461  13.546   1.949   9.276
 1245POPC   GL220462  13.304   2.175   9.103
 1245POPC   C1A20463  13.694   1.979   8.819
 1245POPC   D2A20464  13.679   2.325   8.513
 1245POPC   C3A20465  13.799   2.188   8.097
 1245POPC   C4A20466  14.026   2.311   7.744
 1245POPC   C1B20467  13.228   2.132   8.680
 1245POPC   C2B20468  13.420   1.902   8.364
 1245POPC   C3B20469  13.370   1.964   7.967
 1245POPC   C4B20470  13.617   1.950   7.621
 1246POPC   NC320471   6.175  12.493   9.414
 1246POPC   PO420472   5.816  12.956   9.797
 1246POPC   GL120473   5.729  12.745   9.337
 1246POPC   GL220474   6.023  12.868   9.107
 1246POPC   C1A20475   5.668  12.604   8.877
 1246POPC   D2A20476   5.824  12.593   8.445
 1246POPC   C3A20477   5.623  12.758   8.094
 1246POPC   C4A20478   5.743  12.779   7.667
 1246POPC   C1B20479   6.221  12.649   8.772
 1246POPC   C2B20480   6.332  12.505   8.372
 1246POPC   C3B20481   6.147  12.658   8.012
 1246POPC   C4B20482   6.214  12.562   7.627
 1247POPC   NC320483  38.748  40.788   9.571
 1247POPC   PO420484  39.413  40.737   9.523
 1247POPC   GL120485  39.275  40.742   9.126
 1247POPC   GL220486  38.967  40.961   9.126
 1247POPC   C1A20487  39.325  40.992   8.760
 1247POPC   D2A20488  39.085  40.999   8.393
 1247POPC   C3A20489  39.400  40.854   8.117
 1247POPC   C4A20490  39.578  40.525   7.846
 1247POPC   C1B20491  38.898  40.675   8.765
 1247POPC   C2B20492  38.697  40.652   8.342
 1247POPC   C3B20493  38.865  40.858   7.939
 1247POPC   C4B20494  38.836  40.832   7.481
 1248POPC   NC320495   6.272  18.347   9.512
 1248POPC   PO420496   7.015  18.304   9.495
 1248POPC   GL120497   6.681  18.226   9.201
 1248POPC   GL220498   6.465  18.518   9.075
 1248POPC   C1A20499   6.686  18.191   8.754
 1248POPC   D2A20500   6.717  18.450   8.385
 1248POPC   C3A20501   6.577  18.202   8.050
 1248POPC   C4A20502   6.728  17.998   7.674
 1248POPC   C1B20503   6.208  18.599   8.697
 1248POPC   C2B20504   6.116  18.466   8.264
 1248POPC   C3B20505   6.280  18.624   7.893
 1248POPC   C4B20506   6.609  18.496   7.622
 1249POPC   NC320507  30.002  19.341   9.457
 1249POPC   PO420508  29.790  18.809   9.759
 1249POPC   GL120509  29.765  18.920   9.261
 1249POPC   GL220510  29.611  19.194   9.108
 1249POPC   C1A20511  29.925  18.778   8.843
 1249POPC   D2A20512  30.043  18.923   8.445
 1249POPC   C3A20513  29.825  18.877   8.098
 1249POPC   C4A20514  29.832  18.975   7.693
 1249POPC   C1B20515  29.893  19.323   8.776
 1249POPC   C2B20516  30.095  19.420   8.381
 1249POPC   C3B20517  29.974  19.405   7.968
 1249POPC   C4B20518  30.186  19.346   7.621
 1250POPC   NC320519  26.763  24.233   9.518
 1250POPC   PO420520  26.403  24.756   9.651
 1250POPC   GL120521  26.567  24.612   9.223
 1250POPC   GL220522  26.896  24.775   9.161
 1250POPC   C1A20523  26.702  24.383   8.825
 1250POPC   D2A20524  26.896  24.342   8.397
 1250POPC   C3A20525  26.610  24.301   8.021
 1250POPC   C4A20526  26.441  24.412   7.628
 1250POPC   C1B20527  27.049  24.774   8.721
 1250POPC   C2B20528  27.027  24.937   8.315
 1250POPC   C3B20529  26.953  24.669   7.977
 1250POPC   C4B20530  27.102  24.252   7.939
 1251POPC   NC320531  39.439  11.683   9.404
 1251POPC   PO420532  39.190  11.051   9.650
 1251POPC   GL120533  39.175  11.258   9.227
 1251POPC   GL220534  39.379  11.013   9.028
 1251POPC   C1A20535  39.340  11.438   8.786
 1251POPC   D2A20536  39.538  11.201   8.429
 1251POPC   C3A20537  39.488  11.446   8.051
 1251POPC   C4A20538  39.353  11.455   7.618
 1251POPC   C1B20539  38.948  11.078   8.813
 1251POPC   C2B20540  38.798  11.080   8.363
 1251POPC   C3B20541  39.003  11.253   7.964
 1251POPC   C4B20542  38.850  11.464   7.584
 1252POPC   NC320543   4.623  33.126   9.407
 1252POPC   PO420544   4.068  32.626   9.450
 1252POPC   GL120545   4.296  32.827   9.089
 1252POPC   GL220546   4.305  33.204   9.015
 1252POPC   C1A20547   4.463  32.730   8.666
 1252POPC   D2A20548   4.513  32.629   8.251
 1252POPC   C3A20549   4.270  32.867   8.015
 1252POPC   C4A20550   4.319  32.985   7.611
 1252POPC   C1B20551   4.685  33.177   8.737
 1252POPC   C2B20552   4.795  33.054   8.311
 1252POPC   C3B20553   4.608  33.253   7.967
 1252POPC   C4B20554   4.696  33.326   7.556
 1253POPC   NC320555   2.668  24.561   9.486
 1253POPC   PO420556   3.295  24.220   9.490
 1253POPC   GL120557   2.935  24.219   9.214
 1253POPC   GL220558   3.065  24.535   9.124
 1253POPC   C1A20559   2.682  24.389   8.847
 1253POPC   D2A20560   2.442  24.676   8.594
 1253POPC   C3A20561   2.422  24.675   8.134
 1253POPC   C4A20562   2.597  24.416   7.826
 1253POPC   C1B20563   3.134  24.222   8.760
 1253POPC   C2B20564   2.909  24.343   8.398
 1253POPC   C3B20565   3.057  24.322   8.027
 1253POPC   C4B20566   3.058  24.608   7.735
 1254POPC   NC320567  22.620   9.197   9.571
 1254POPC   PO420568  21.985   8.930   9.572
 1254POPC   GL120569  22.244   8.888   9.180
 1254POPC   GL220570  22.264   9.248   9.190
 1254POPC   C1A20571  22.344   8.931   8.696
 1254POPC   D2A20572  22.158   9.171   8.299
 1254POPC   C3A20573  21.948   8.987   7.903
 1254POPC   C4A20574  21.733   8.871   7.496
 1254POPC   C1B20575  22.228   9.407   8.785
 1254POPC   C2B20576  22.565   9.440   8.485
 1254POPC   C3B20577  22.622   9.236   8.098
 1254POPC   C4B20578  22.411   9.401   7.706
 1255POPC   NC320579  27.443  15.478   9.416
 1255POPC   PO420580  27.704  14.791   9.432
 1255POPC   GL120581  27.572  15.103   9.095
 1255POPC   GL220582  27.729  15.465   9.005
 1255POPC   C1A20583  27.637  15.068   8.644
 1255POPC   D2A20584  27.965  14.922   8.369
 1255POPC   C3A20585  27.763  14.953   8.012
 1255POPC   C4A20586  27.519  15.220   7.781
 1255POPC   C1B20587  27.445  15.548   8.691
 1255POPC   C2B20588  27.447  15.453   8.249
 1255POPC   C3B20589  27.177  15.597   7.915
 1255POPC   C4B20590  27.167  15.605   7.476
 1256POPC   NC320591   4.947   1.580   9.488
 1256POPC   PO420592   4.792   2.262   9.500
 1256POPC   GL120593   5.025   2.028   9.120
 1256POPC   GL220594   5.123   1.669   9.035
 1256POPC   C1A20595   4.843   1.887   8.687
 1256POPC   D2A20596   4.633   1.939   8.283
 1256POPC   C3A20597   4.865   2.060   7.913
 1256POPC   C4A20598   5.169   2.370   7.887
 1256POPC   C1B20599   5.337   1.904   8.732
 1256POPC   C2B20600   5.198   2.059   8.340
 1256POPC   C3B20601   5.364   1.905   7.967
 1256POPC   C4B20602   5.167   1.524   7.863
 1257POPC   NC320603   9.408  39.299   9.637
 1257POPC   PO420604  10.102  39.281   9.647
 1257POPC   GL120605   9.795  39.431   9.280
 1257POPC   GL220606   9.938  39.147   9.124
 1257POPC   C1A20607   9.518  39.533   8.857
 1257POPC   D2A20608   9.376  39.734   8.423
 1257POPC   C3A20609   9.504  39.479   8.050
 1257POPC   C4A20610   9.468  39.079   7.817
 1257POPC   C1B20611   9.774  39.102   8.707
 1257POPC   C2B20612   9.746  39.075   8.263
 1257POPC   C3B20613   9.987  39.098   7.869
 1257POPC   C4B20614   9.827  39.184   7.463
 1258POPC   NC320615   2.186   9.623   9.320
 1258POPC   PO420616   2.894   9.521   9.510
 1258POPC   GL120617   2.683   9.368   9.136
 1258POPC   GL220618   2.611   9.701   9.055
 1258POPC   C1A20619   2.851   9.411   8.697
 1258POPC   D2A20620   2.900   9.682   8.335
 1258POPC   C3A20621   2.945   9.454   7.953
 1258POPC   C4A20622   3.017   9.697   7.604
 1258POPC   C1B20623   2.578   9.913   8.670
 1258POPC   C2B20624   2.524  10.038   8.252
 1258POPC   C3B20625   2.764  10.049   7.865
 1258POPC   C4B20626   2.715  10.035   7.379
 1259POPC   NC320627  19.514  43.955   9.432
 1259POPC   PO420628  18.950  43.500   9.455
 1259POPC   GL120629  19.036  43.884   9.214
 1259POPC   GL220630  19.299  43.743   9.012
 1259POPC   C1A20631  19.060  44.147   8.802
 1259POPC   D2A20632  19.065  43.978   8.360
 1259POPC   C3A20633  19.042  44.247   7.988
 1259POPC   C4A20634  19.214  44.159   7.597
 1259POPC   C1B20635  18.872  43.666   8.783
 1259POPC   C2B20636  18.768  43.309   8.526
 1259POPC   C3B20637  18.877  43.451   8.127
 1259POPC   C4B20638  18.936  43.759   7.792
 1260POPC   NC320639  32.089  13.957   9.595
 1260POPC   PO420640  32.459  13.429   9.589
 1260POPC   GL120641  32.387  13.719   9.238
 1260POPC   GL220642  32.045  13.688   9.171
 1260POPC   C1A20643  32.297  13.939   8.819
 1260POPC   D2A20644  32.178  13.743   8.438
 1260POPC   C3A20645  32.291  13.530   8.060
 1260POPC   C4A20646  32.316  13.785   7.711
 1260POPC   C1B20647  31.897  13.444   8.843
 1260POPC   C2B20648  32.002  13.265   8.445
 1260POPC   C3B20649  31.754  13.311   8.070
 1260POPC   C4B20650  31.888  13.495   7.678
 1261POPC   NC320651   7.242  36.340   9.295
 1261POPC   PO420652   6.732  35.971   9.613
 1261POPC   GL120653   6.558  36.127   9.243
 1261POPC   GL220654   6.849  36.061   9.125
 1261POPC   C1A20655   6.492  35.988   8.796
 1261POPC   D2A20656   6.507  36.180   8.403
 1261POPC   C3A20657   6.536  36.044   7.981
 1261POPC   C4A20658   6.368  36.400   7.727
 1261POPC   C1B20659   6.990  36.034   8.730
 1261POPC   C2B20660   6.940  35.895   8.338
 1261POPC   C3B20661   7.049  36.130   8.013
 1261POPC   C4B20662   6.879  36.267   7.644
 1262POPC   NC320663  32.463  36.657   9.608
 1262POPC   PO420664  33.135  36.808   9.500
 1262POPC   GL120665  33.073  36.951   9.107
 1262POPC   GL220666  32.754  36.992   9.061
 1262POPC   C1A20667  33.108  37.085   8.691
 1262POPC   D2A20668  33.362  37.190   8.407
 1262POPC   C3A20669  33.352  36.875   8.082
 1262POPC   C4A20670  33.124  36.943   7.721
 1262POPC   C1B20671  32.664  36.833   8.651
 1262POPC   C2B20672  32.838  36.866   8.217
 1262POPC   C3B20673  32.662  37.085   7.839
 1262POPC   C4B20674  32.769  37.173   7.385
 1263POPC   NC320675  27.888  30.452   9.703
 1263POPC   PO420676  28.430  30.482   9.569
 1263POPC   GL120677  28.537  30.597   9.114
 1263POPC   GL220678  28.762  30.875   9.136
 1263POPC   C1A20679  28.365  30.653   8.661
 1263POPC   D2A20680  28.207  30.894   8.263
 1263POPC   C3A20681  28.072  30.701   7.856
 1263POPC   C4A20682  27.852  30.752   7.445
 1263POPC   C1B20683  28.741  30.998   8.719
 1263POPC   C2B20684  28.713  30.840   8.315
 1263POPC   C3B20685  28.595  30.806   7.911
 1263POPC   C4B20686  28.853  30.900   7.567
 1264POPC   NC320687  30.157  43.710   9.955
 1264POPC   PO420688  30.402  44.234   9.549
 1264POPC   GL120689  30.212  43.964   9.163
 1264POPC   GL220690  30.017  43.634   9.150
 1264POPC   C1A20691  30.082  43.891   8.683
 1264POPC   D2A20692  29.896  44.098   8.278
 1264POPC   C3A20693  29.884  43.821   7.900
 1264POPC   C4A20694  30.246  43.613   7.718
 1264POPC   C1B20695  29.756  43.467   8.789
 1264POPC   C2B20696  29.667  43.645   8.366
 1264POPC   C3B20697  29.432  43.954   8.109
 1264POPC   C4B20698  29.588  44.263   7.797
 1265POPC   NC320699  34.155  26.900   9.466
 1265POPC   PO420700  34.756  26.562   9.621
 1265POPC   GL120701  34.554  26.646   9.214
 1265POPC   GL220702  34.817  26.891   9.187
 1265POPC   C1A20703  34.283  26.722   8.811
 1265POPC   D2A20704  34.207  26.957   8.398
 1265POPC   C3A20705  34.209  26.764   7.991
 1265POPC   C4A20706  34.423  26.832   7.625
 1265POPC   C1B20707  34.858  26.722   8.813
 1265POPC   C2B20708  34.635  26.651   8.442
 1265POPC   C3B20709  34.717  26.791   8.038
 1265POPC   C4B20710  34.946  26.742   7.634
 1266POPC   NC320711  15.151  30.730   9.574
 1266POPC   PO420712  15.397  30.274   9.413
 1266POPC   GL120713  15.159  30.573   9.086
 1266POPC   GL220714  14.981  30.917   9.127
 1266POPC   C1A20715  15.284  30.821   8.717
 1266POPC   D2A20716  15.498  30.843   8.327
 1266POPC   C3A20717  15.368  30.758   7.902
 1266POPC   C4A20718  15.248  30.932   7.499
 1266POPC   C1B20719  14.788  30.931   8.714
 1266POPC   C2B20720  14.954  30.862   8.281
 1266POPC   C3B20721  14.880  30.885   7.845
 1266POPC   C4B20722  14.799  30.632   7.467
 1267POPC   NC320723   1.131  42.440   9.554
 1267POPC   PO420724   1.545  41.839   9.500
 1267POPC   GL120725   1.475  42.131   9.187
 1267POPC   GL220726   1.143  42.199   9.121
 1267POPC   C1A20727   1.495  42.380   8.807
 1267POPC   D2A20728   1.302  42.586   8.433
 1267POPC   C3A20729   1.457  42.406   8.059
 1267POPC   C4A20730   1.426  42.262   7.674
 1267POPC   C1B20731   0.984  42.326   8.748
 1267POPC   C2B20732   0.954  42.205   8.368
 1267POPC   C3B20733   0.950  42.303   7.980
 1267POPC   C4B20734   0.938  41.907   7.854
 1268POPC   NC320735  33.934  15.737   9.472
 1268POPC   PO420736  33.665  16.464   9.594
 1268POPC   GL120737  33.770  16.161   9.275
 1268POPC   GL220738  33.586  15.887   9.124
 1268POPC   C1A20739  33.902  16.179   8.840
 1268POPC   D2A20740  34.153  16.006   8.533
 1268POPC   C3A20741  33.995  16.104   8.116
 1268POPC   C4A20742  34.124  16.042   7.709
 1268POPC   C1B20743  33.803  15.685   8.769
 1268POPC   C2B20744  33.936  15.616   8.295
 1268POPC   C3B20745  33.792  15.689   7.859
 1268POPC   C4B20746  33.772  15.567   7.411
 1269POPC   NC320747  23.478  24.639   9.648
 1269POPC   PO420748  23.966  24.152   9.544
 1269POPC   GL120749  23.982  24.530   9.248
 1269POPC   GL220750  23.673  24.639   9.107
 1269POPC   C1A20751  24.103  24.788   8.844
 1269POPC   D2A20752  24.168  24.619   8.391
 1269POPC   C3A20753  23.858  24.654   8.065
 1269POPC   C4A20754  23.767  24.326   7.787
 1269POPC   C1B20755  23.703  24.578   8.635
 1269POPC   C2B20756  23.419  24.745   8.316
 1269POPC   C3B20757  23.326  24.666   7.878
 1269POPC   C4B20758  23.464  24.526   7.457
 1270POPC   NC320759  11.321  16.099   9.557
 1270POPC   PO420760  10.779  15.781   9.518
 1270POPC   GL120761  11.095  15.719   9.190
 1270POPC   GL220762  11.441  15.885   9.123
 1270POPC   C1A20763  11.113  15.780   8.743
 1270POPC   D2A20764  11.386  15.764   8.368
 1270POPC   C3A20765  11.278  15.890   7.950
 1270POPC   C4A20766  11.222  15.701   7.558
 1270POPC   C1B20767  11.655  16.028   8.755
 1270POPC   C2B20768  11.859  15.966   8.376
 1270POPC   C3B20769  11.787  15.786   8.003
 1270POPC   C4B20770  11.697  15.886   7.584
 1271POPC   NC320771  13.179  42.168   9.538
 1271POPC   PO420772  12.544  42.470   9.618
 1271POPC   GL120773  12.841  42.464   9.240
 1271POPC   GL220774  13.176  42.581   9.180
 1271POPC   C1A20775  12.720  42.454   8.788
 1271POPC   D2A20776  12.814  42.182   8.419
 1271POPC   C3A20777  12.877  42.364   8.015
 1271POPC   C4A20778  12.868  42.196   7.605
 1271POPC   C1B20779  13.186  42.274   8.824
 1271POPC   C2B20780  13.289  42.383   8.405
 1271POPC   C3B20781  13.361  42.536   8.011
 1271POPC   C4B20782  13.359  42.250   7.691
 1272POPC   NC320783  19.117  38.023   9.449
 1272POPC   PO420784  19.209  38.640   9.491
 1272POPC   GL120785  19.187  38.593   9.097
 1272POPC   GL220786  19.422  38.296   9.102
 1272POPC   C1A20787  18.944  38.706   8.712
 1272POPC   D2A20788  18.971  38.475   8.315
 1272POPC   C3A20789  18.890  38.492   7.873
 1272POPC   C4A20790  18.693  38.201   7.588
 1272POPC   C1B20791  19.384  38.413   8.663
 1272POPC   C2B20792  19.456  38.324   8.259
 1272POPC   C3B20793  19.419  38.473   7.856
 1272POPC   C4B20794  19.198  38.276   7.501
 1273POPC   NC320795  13.352  36.318   9.602
 1273POPC   PO420796  13.174  35.813   9.279
 1273POPC   GL120797  13.440  36.109   9.133
 1273POPC   GL220798  13.824  36.085   9.142
 1273POPC   C1A20799  13.505  36.274   8.759
 1273POPC   D2A20800  13.654  36.163   8.383
 1273POPC   C3A20801  13.541  36.010   8.005
 1273POPC   C4A20802  13.632  36.190   7.618
 1273POPC   C1B20803  13.966  35.876   8.745
 1273POPC   C2B20804  14.121  35.990   8.314
 1273POPC   C3B20805  14.014  35.834   7.865
 1273POPC   C4B20806  13.949  35.877   7.376
 1274POPC   NC320807   3.815  40.281   9.406
 1274POPC   PO420808   3.522  39.708   9.413
 1274POPC   GL120809   3.667  39.827   9.039
 1274POPC   GL220810   3.479  40.094   9.062
 1274POPC   C1A20811   3.596  39.950   8.584
 1274POPC   D2A20812   3.840  40.146   8.313
 1274POPC   C3A20813   3.870  39.866   8.017
 1274POPC   C4A20814   3.664  39.951   7.658
 1274POPC   C1B20815   3.157  40.141   8.798
 1274POPC   C2B20816   3.243  40.281   8.400
 1274POPC   C3B20817   3.381  40.070   8.068
 1274POPC   C4B20818   3.266  40.314   7.751
 1275POPC   NC320819   5.336   2.302   9.443
 1275POPC   PO420820   5.276   3.038   9.444
 1275POPC   GL120821   4.975   2.904   9.118
 1275POPC   GL220822   4.939   2.550   9.107
 1275POPC   C1A20823   5.151   2.854   8.704
 1275POPC   D2A20824   5.017   2.886   8.283
 1275POPC   C3A20825   5.267   2.899   7.911
 1275POPC   C4A20826   5.365   3.186   7.531
 1275POPC   C1B20827   4.910   2.388   8.697
 1275POPC   C2B20828   4.806   2.432   8.275
 1275POPC   C3B20829   4.738   2.601   7.853
 1275POPC   C4B20830   4.852   2.347   7.452
 1276POPC   NC320831  32.069   5.350   9.400
 1276POPC   PO420832  32.026   5.873   9.774
 1276POPC   GL120833  31.961   5.867   9.277
 1276POPC   GL220834  32.198   5.676   9.046
 1276POPC   C1A20835  31.906   6.016   8.813
 1276POPC   D2A20836  31.721   5.916   8.391
 1276POPC   C3A20837  31.911   5.989   7.951
 1276POPC   C4A20838  32.374   6.039   7.842
 1276POPC   C1B20839  32.019   5.551   8.648
 1276POPC   C2B20840  32.125   5.617   8.206
 1276POPC   C3B20841  32.183   5.577   7.771
 1276POPC   C4B20842  31.961   5.675   7.399
 1277POPC   NC320843   0.237  35.659   9.637
 1277POPC   PO420844   0.371  35.045   9.748
 1277POPC   GL120845   0.559  35.325   9.401
 1277POPC   GL220846   0.275  35.417   9.193
 1277POPC   C1A20847   0.696  35.344   8.934
 1277POPC   D2A20848   0.768  35.502   8.489
 1277POPC   C3A20849   0.547  35.562   8.046
 1277POPC   C4A20850   0.609  35.202   7.790
 1277POPC   C1B20851   0.262  35.564   8.788
 1277POPC   C2B20852   0.264  35.386   8.425
 1277POPC   C3B20853   0.004  35.362   8.111
 1277POPC   C4B20854   0.137  35.395   7.724
 1278POPC   NC320855  25.631  37.125   9.497
 1278POPC   PO420856  24.970  36.827   9.489
 1278POPC   GL120857  25.229  37.001   9.192
 1278POPC   GL220858  25.438  36.759   9.022
 1278POPC   C1A20859  25.095  37.074   8.774
 1278POPC   D2A20860  25.321  36.900   8.456
 1278POPC   C3A20861  25.194  36.984   8.050
 1278POPC   C4A20862  24.993  36.682   7.819
 1278POPC   C1B20863  25.589  37.170   8.849
 1278POPC   C2B20864  25.653  37.284   8.444
 1278POPC   C3B20865  25.725  36.941   8.135
 1278POPC   C4B20866  25.576  37.012   7.720
 1279POPC   NC320867  26.392  21.458   9.430
 1279POPC   PO420868  27.006  21.284   9.513
 1279POPC   GL120869  26.939  21.443   9.109
 1279POPC   GL220870  26.609  21.338   8.979
 1279POPC   C1A20871  26.892  21.677   8.721
 1279POPC   D2A20872  26.533  21.644   8.427
 1279POPC   C3A20873  26.741  21.493   8.066
 1279POPC   C4A20874  27.116  21.602   7.854
 1279POPC   C1B20875  26.432  21.004   8.718
 1279POPC   C2B20876  26.364  20.875   8.275
 1279POPC   C3B20877  26.471  21.112   7.886
 1279POPC   C4B20878  26.480  21.554   7.639
 1280POPC   NC320879  12.197  32.816   9.389
 1280POPC   PO420880  11.799  33.402   9.379
 1280POPC   GL120881  11.945  33.111   9.076
 1280POPC   GL220882  12.288  33.052   8.955
 1280POPC   C1A20883  11.795  33.067   8.693
 1280POPC   D2A20884  11.703  33.335   8.359
 1280POPC   C3A20885  11.702  33.067   8.021
 1280POPC   C4A20886  11.925  32.883   7.709
 1280POPC   C1B20887  12.218  32.776   8.625
 1280POPC   C2B20888  12.134  33.016   8.291
 1280POPC   C3B20889  12.369  33.019   7.949
 1280POPC   C4B20890  12.404  32.691   7.690
 1281POPC   NC320891   9.472  37.381   9.682
 1281POPC   PO420892   9.229  36.811   9.440
 1281POPC   GL120893   9.636  36.991   9.257
 1281POPC   GL220894   9.947  37.141   9.129
 1281POPC   C1A20895   9.783  36.770   8.825
 1281POPC   D2A20896   9.581  36.786   8.445
 1281POPC   C3A20897   9.495  36.565   8.044
 1281POPC   C4A20898   9.768  36.636   7.674
 1281POPC   C1B20899   9.563  37.241   8.834
 1281POPC   C2B20900   9.560  37.317   8.419
 1281POPC   C3B20901   9.642  37.100   8.035
 1281POPC   C4B20902   9.940  37.163   7.736
 1282POPC   NC320903   0.707   2.166   9.419
 1282POPC   PO420904   0.221   1.689   9.494
 1282POPC   GL120905   0.398   1.843   9.143
 1282POPC   GL220906   0.663   1.618   9.134
 1282POPC   C1A20907   0.349   2.243   8.875
 1282POPC   D2A20908   0.131   2.348   8.485
 1282POPC   C3A20909   0.175   2.082   8.100
 1282POPC   C4A20910   0.326   2.215   7.684
 1282POPC   C1B20911   0.629   1.844   8.706
 1282POPC   C2B20912   0.895   1.883   8.358
 1282POPC   C3B20913   0.861   1.646   7.978
 1282POPC   C4B20914   0.470   1.724   7.721
 1283POPC   NC320915   8.912  24.749   9.578
 1283POPC   PO420916   9.322  24.261   9.547
 1283POPC   GL120917   9.029  24.463   9.174
 1283POPC   GL220918   8.733  24.762   9.125
 1283POPC   C1A20919   8.881  24.448   8.766
 1283POPC   D2A20920   9.000  24.590   8.391
 1283POPC   C3A20921   9.088  24.309   8.082
 1283POPC   C4A20922   9.001  24.360   7.632
 1283POPC   C1B20923   8.462  24.729   8.775
 1283POPC   C2B20924   8.496  24.475   8.394
 1283POPC   C3B20925   8.664  24.588   7.979
 1283POPC   C4B20926   8.543  24.684   7.562
 1284POPC   NC320927   0.897  37.390   9.483
 1284POPC   PO420928   0.399  37.684   9.593
 1284POPC   GL120929   0.423  37.982   9.230
 1284POPC   GL220930   0.760  38.107   9.257
 1284POPC   C1A20931   0.277  38.064   8.788
 1284POPC   D2A20932   0.184  37.883   8.385
 1284POPC   C3A20933   0.153  37.846   7.943
 1284POPC   C4A20934   0.384  37.650   7.585
 1284POPC   C1B20935   0.757  37.786   8.910
 1284POPC   C2B20936   0.703  37.847   8.473
 1284POPC   C3B20937   0.676  37.829   8.006
 1284POPC   C4B20938   0.815  37.438   7.772
 1285POPC   NC320939  25.633  27.196   9.787
 1285POPC   PO420940  25.315  26.635   9.542
 1285POPC   GL120941  25.232  26.683   9.121
 1285POPC   GL220942  25.575  26.701   9.050
 1285POPC   C1A20943  25.015  26.796   8.739
 1285POPC   D2A20944  25.131  27.052   8.356
 1285POPC   C3A20945  25.236  26.842   7.954
 1285POPC   C4A20946  25.032  26.585   7.634
 1285POPC   C1B20947  25.519  26.762   8.598
 1285POPC   C2B20948  25.652  27.021   8.262
 1285POPC   C3B20949  25.669  27.101   7.817
 1285POPC   C4B20950  25.748  27.183   7.360
 1286POPC   NC320951  25.143  22.445   9.406
 1286POPC   PO420952  25.059  21.859   9.404
 1286POPC   GL120953  25.145  22.076   9.055
 1286POPC   GL220954  24.809  22.268   9.088
 1286POPC   C1A20955  25.481  22.244   8.781
 1286POPC   D2A20956  25.549  22.185   8.347
 1286POPC   C3A20957  25.220  22.046   8.094
 1286POPC   C4A20958  25.212  22.163   7.685
 1286POPC   C1B20959  24.954  22.372   8.679
 1286POPC   C2B20960  25.030  22.490   8.282
 1286POPC   C3B20961  25.370  22.558   8.037
 1286POPC   C4B20962  25.651  22.460   7.738
 1287POPC   NC320963  28.701  18.761   9.282
 1287POPC   PO420964  28.134  18.618   9.652
 1287POPC   GL120965  28.224  18.974   9.293
 1287POPC   GL220966  28.232  18.783   9.021
 1287POPC   C1A20967  28.387  19.230   8.848
 1287POPC   D2A20968  28.325  19.361   8.386
 1287POPC   C3A20969  28.390  19.292   7.918
 1287POPC   C4A20970  28.156  19.352   7.495
 1287POPC   C1B20971  28.543  18.782   8.661
 1287POPC   C2B20972  28.631  18.942   8.264
 1287POPC   C3B20973  28.516  18.765   7.883
 1287POPC   C4B20974  28.202  18.787   7.616
 1288POPC   NC320975  33.996  34.782   9.464
 1288POPC   PO420976  33.476  34.313   9.456
 1288POPC   GL120977  33.772  34.436   9.163
 1288POPC   GL220978  33.646  34.758   9.079
 1288POPC   C1A20979  33.954  34.467   8.767
 1288POPC   D2A20980  33.979  34.667   8.377
 1288POPC   C3A20981  34.016  34.452   8.055
 1288POPC   C4A20982  33.730  34.405   7.793
 1288POPC   C1B20983  33.800  34.967   8.739
 1288POPC   C2B20984  33.610  35.047   8.367
 1288POPC   C3B20985  33.742  34.915   7.978
 1288POPC   C4B20986  34.166  34.860   7.799
 1289POPC   NC320987   4.590  42.174   9.575
 1289POPC   PO420988   3.951  42.530   9.553
 1289POPC   GL120989   4.224  42.372   9.228
 1289POPC   GL220990   4.225  42.041   9.228
 1289POPC   C1A20991   4.430  42.499   8.836
 1289POPC   D2A20992   4.558  42.672   8.449
 1289POPC   C3A20993   4.599  42.467   8.034
 1289POPC   C4A20994   4.291  42.439   7.673
 1289POPC   C1B20995   4.381  41.983   8.801
 1289POPC   C2B20996   4.449  42.119   8.367
 1289POPC   C3B20997   4.399  41.941   7.911
 1289POPC   C4B20998   4.337  41.984   7.426
 1290POPC   NC320999  26.663  41.878   9.726
 1290POPC   PO421000  26.798  41.242   9.461
 1290POPC   GL121001  26.763  41.423   9.023
 1290POPC   GL221002  26.482  41.685   8.919
 1290POPC   C1A21003  26.851  41.406   8.602
 1290POPC   D2A21004  27.136  41.598   8.364
 1290POPC   C3A21005  27.040  41.857   8.030
 1290POPC   C4A21006  26.890  41.755   7.622
 1290POPC   C1B21007  26.372  41.285   8.711
 1290POPC   C2B21008  26.501  41.248   8.290
 1290POPC   C3B21009  26.598  41.560   8.036
 1290POPC   C4B21010  26.436  41.506   7.660
 1291POPC   NC321011  25.786  18.829   9.516
 1291POPC   PO421012  25.104  18.837   9.319
 1291POPC   GL121013  25.303  19.139   9.054
 1291POPC   GL221014  25.637  19.173   9.158
 1291POPC   C1A21015  25.435  19.243   8.650
 1291POPC   D2A21016  25.406  19.502   8.264
 1291POPC   C3A21017  25.331  19.328   7.871
 1291POPC   C4A21018  25.108  19.350   7.461
 1291POPC   C1B21019  25.577  18.746   8.919
 1291POPC   C2B21020  25.334  18.726   8.556
 1291POPC   C3B21021  25.297  18.626   8.129
 1291POPC   C4B21022  25.351  18.846   7.730
 1292POPC   NC321023   9.241  28.981   9.288
 1292POPC   PO421024   8.643  29.294   9.487
 1292POPC   GL121025   8.719  29.218   9.066
 1292POPC   GL221026   8.797  28.866   9.067
 1292POPC   C1A21027   9.029  29.329   8.753
 1292POPC   D2A21028   9.211  29.278   8.355
 1292POPC   C3A21029   9.152  28.895   8.132
 1292POPC   C4A21030   9.157  29.116   7.756
 1292POPC   C1B21031   8.904  28.818   8.645
 1292POPC   C2B21032   8.695  29.014   8.323
 1292POPC   C3B21033   8.678  29.075   7.904
 1292POPC   C4B21034   8.431  29.299   7.643
 1293POPC   NC321035  43.393  42.894   9.733
 1293POPC   PO421036  43.206  42.298   9.522
 1293POPC   GL121037  43.174  42.188   9.118
 1293POPC   GL221038  43.095  42.541   9.079
 1293POPC   C1A21039  43.287  42.147   8.685
 1293POPC   D2A21040  43.482  42.093   8.292
 1293POPC   C3A21041  43.251  42.211   7.986
 1293POPC   C4A21042  42.948  42.168   7.710
 1293POPC   C1B21043  43.396  42.637   8.784
 1293POPC   C2B21044  43.287  42.556   8.374
 1293POPC   C3B21045  42.958  42.630   8.098
 1293POPC   C4B21046  43.093  42.660   7.723
 1294POPC   NC321047   6.908  37.270   9.448
 1294POPC   PO421048   7.005  37.910   9.658
 1294POPC   GL121049   6.822  37.740   9.238
 1294POPC   GL221050   6.534  37.561   9.176
 1294POPC   C1A21051   6.876  37.630   8.792
 1294POPC   D2A21052   6.612  37.496   8.427
 1294POPC   C3A21053   6.717  37.554   7.966
 1294POPC   C4A21054   6.461  37.424   7.621
 1294POPC   C1B21055   6.408  37.853   8.819
 1294POPC   C2B21056   6.355  38.008   8.394
 1294POPC   C3B21057   6.265  37.784   7.992
 1294POPC   C4B21058   6.329  37.909   7.576
 1295POPC   NC321059   5.377  39.493   9.383
 1295POPC   PO421060   5.082  38.970   9.691
 1295POPC   GL121061   4.956  39.136   9.245
 1295POPC   GL221062   4.963  39.496   9.088
 1295POPC   C1A21063   4.924  39.087   8.767
 1295POPC   D2A21064   5.017  39.289   8.343
 1295POPC   C3A21065   4.894  39.085   7.947
 1295POPC   C4A21066   4.988  39.152   7.507
 1295POPC   C1B21067   5.311  39.517   8.722
 1295POPC   C2B21068   5.509  39.479   8.260
 1295POPC   C3B21069   5.297  39.424   7.849
 1295POPC   C4B21070   4.871  39.594   7.785
 1296POPC   NC321071  28.975  38.934   9.527
 1296POPC   PO421072  29.373  39.424   9.374
 1296POPC   GL121073  29.105  39.230   9.076
 1296POPC   GL221074  28.745  39.173   9.141
 1296POPC   C1A21075  29.185  39.174   8.652
 1296POPC   D2A21076  29.392  39.235   8.258
 1296POPC   C3A21077  29.137  39.220   7.918
 1296POPC   C4A21078  29.114  39.126   7.477
 1296POPC   C1B21079  28.692  39.001   8.733
 1296POPC   C2B21080  28.800  39.131   8.313
 1296POPC   C3B21081  28.619  39.216   7.921
 1296POPC   C4B21082  28.661  39.368   7.498
 1297POPC   NC321083   1.340  15.839   9.504
 1297POPC   PO421084   0.756  16.171   9.510
 1297POPC   GL121085   1.063  16.083   9.126
 1297POPC   GL221086   1.181  15.704   9.044
 1297POPC   C1A21087   1.175  16.087   8.661
 1297POPC   D2A21088   1.349  16.191   8.242
 1297POPC   C3A21089   1.062  16.092   7.878
 1297POPC   C4A21090   0.899  15.905   7.471
 1297POPC   C1B21091   1.567  15.763   8.804
 1297POPC   C2B21092   1.632  15.701   8.371
 1297POPC   C3B21093   1.461  15.784   7.937
 1297POPC   C4B21094   1.413  15.971   7.494
 1298POPC   NC321095  29.908   6.097   9.555
 1298POPC   PO421096  30.256   5.453   9.543
 1298POPC   GL121097  30.095   5.742   9.215
 1298POPC   GL221098  30.056   6.111   9.088
 1298POPC   C1A21099  29.896   5.686   8.839
 1298POPC   D2A21100  29.759   5.642   8.446
 1298POPC   C3A21101  30.023   5.680   8.113
 1298POPC   C4A21102  29.993   5.999   7.806
 1298POPC   C1B21103  29.648   6.144   8.936
 1298POPC   C2B21104  29.555   6.123   8.503
 1298POPC   C3B21105  29.561   5.940   8.089
 1298POPC   C4B21106  29.537   6.187   7.730
 1299POPC   NC321107  24.502  22.611   9.465
 1299POPC   PO421108  24.240  23.256   9.342
 1299POPC   GL121109  24.496  22.933   9.085
 1299POPC   GL221110  24.852  22.973   8.940
 1299POPC   C1A21111  24.527  22.628   8.793
 1299POPC   D2A21112  24.680  22.832   8.442
 1299POPC   C3A21113  24.524  22.732   8.041
 1299POPC   C4A21114  24.382  22.548   7.680
 1299POPC   C1B21115  24.622  23.280   8.697
 1299POPC   C2B21116  24.676  23.339   8.288
 1299POPC   C3B21117  24.582  23.208   7.895
 1299POPC   C4B21118  24.868  23.075   7.629
 1300POPC   NC321119  28.960  33.333   9.770
 1300POPC   PO421120  29.239  33.878   9.643
 1300POPC   GL121121  29.292  33.919   9.209
 1300POPC   GL221122  29.416  33.598   9.158
 1300POPC   C1A21123  29.443  33.927   8.773
 1300POPC   D2A21124  29.555  33.689   8.401
 1300POPC   C3A21125  29.408  33.888   8.026
 1300POPC   C4A21126  29.028  34.108   7.806
 1300POPC   C1B21127  29.085  33.575   8.799
 1300POPC   C2B21128  29.034  33.680   8.323
 1300POPC   C3B21129  29.046  33.574   7.841
 1300POPC   C4B21130  29.192  33.383   7.414
 1301POPC   NC321131  38.097   0.743   9.479
 1301POPC   PO421132  37.593   0.417   9.646
 1301POPC   GL121133  37.568   0.593   9.244
 1301POPC   GL221134  37.237   0.607   9.112
 1301POPC   C1A21135  37.796   0.676   8.850
 1301POPC   D2A21136  37.928   0.412   8.504
 1301POPC   C3A21137  37.753   0.385   8.088
 1301POPC   C4A21138  37.688   0.580   7.678
 1301POPC   C1B21139  37.408   0.347   8.779
 1301POPC   C2B21140  37.278   0.329   8.372
 1301POPC   C3B21141  37.265   0.548   7.979
 1301POPC   C4B21142  37.239   0.317   7.607
 1302POPC   NC321143  21.728  28.647   9.477
 1302POPC   PO421144  21.243  28.263   9.734
 1302POPC   GL121145  21.206  28.220   9.257
 1302POPC   GL221146  21.352  28.516   9.151
 1302POPC   C1A21147  21.306  28.135   8.802
 1302POPC   D2A21148  21.676  28.146   8.474
 1302POPC   C3A21149  21.565  28.259   8.022
 1302POPC   C4A21150  21.217  28.145   7.754
 1302POPC   C1B21151  21.546  28.580   8.758
 1302POPC   C2B21152  21.706  28.645   8.322
 1302POPC   C3B21153  21.569  28.786   7.913
 1302POPC   C4B21154  21.541  28.943   7.471
 1303POPC   NC321155  33.476  25.275   9.297
 1303POPC   PO421156  34.189  24.953   9.485
 1303POPC   GL121157  33.927  25.027   9.140
 1303POPC   GL221158  33.976  25.384   9.169
 1303POPC   C1A21159  33.780  24.971   8.694
 1303POPC   D2A21160  33.369  25.054   8.437
 1303POPC   C3A21161  33.457  25.183   8.009
 1303POPC   C4A21162  33.787  25.118   7.727
 1303POPC   C1B21163  34.045  25.409   8.746
 1303POPC   C2B21164  33.759  25.402   8.381
 1303POPC   C3B21165  33.803  25.582   7.970
 1303POPC   C4B21166  34.179  25.599   7.706
 1304POPC   NC321167  24.575  14.746   9.523
 1304POPC   PO421168  24.580  15.441   9.546
 1304POPC   GL121169  24.502  15.187   9.184
 1304POPC   GL221170  24.249  14.919   9.151
 1304POPC   C1A21171  24.646  15.212   8.783
 1304POPC   D2A21172  24.692  15.111   8.389
 1304POPC   C3A21173  24.612  15.307   8.009
 1304POPC   C4A21174  24.745  15.050   7.702
 1304POPC   C1B21175  24.194  14.944   8.709
 1304POPC   C2B21176  24.297  14.764   8.304
 1304POPC   C3B21177  24.276  14.930   7.908
 1304POPC   C4B21178  24.084  14.986   7.524
 1305POPC   NC321179   3.495  41.206   9.203
 1305POPC   PO421180   3.438  41.740   9.582
 1305POPC   GL121181   3.467  41.793   9.149
 1305POPC   GL221182   3.766  41.944   9.053
 1305POPC   C1A21183   3.475  41.645   8.739
 1305POPC   D2A21184   3.438  41.834   8.373
 1305POPC   C3A21185   3.375  41.587   8.051
 1305POPC   C4A21186   3.535  41.274   7.820
 1305POPC   C1B21187   3.922  41.844   8.616
 1305POPC   C2B21188   3.974  42.019   8.198
 1305POPC   C3B21189   3.923  42.028   7.744
 1305POPC   C4B21190   3.614  41.769   7.633
 1306POPC   NC321191   5.428  24.872   9.497
 1306POPC   PO421192   4.900  24.521   9.747
 1306POPC   GL121193   5.121  24.554   9.290
 1306POPC   GL221194   5.232  24.234   9.139
 1306POPC   C1A21195   5.105  24.700   8.853
 1306POPC   D2A21196   4.838  24.667   8.478
 1306POPC   C3A21197   4.986  24.654   8.047
 1306POPC   C4A21198   4.885  24.737   7.602
 1306POPC   C1B21199   5.008  24.235   8.702
 1306POPC   C2B21200   5.179  24.212   8.283
 1306POPC   C3B21201   5.419  24.352   7.903
 1306POPC   C4B21202   5.238  24.386   7.465
 1307POPC   NC321203  38.183  31.112   9.588
 1307POPC   PO421204  38.568  31.739   9.624
 1307POPC   GL121205  38.537  31.601   9.174
 1307POPC   GL221206  38.568  31.201   9.103
 1307POPC   C1A21207  38.343  31.513   8.757
 1307POPC   D2A21208  38.300  31.605   8.330
 1307POPC   C3A21209  38.365  31.331   7.995
 1307POPC   C4A21210  38.226  31.486   7.588
 1307POPC   C1B21211  38.848  31.452   8.836
 1307POPC   C2B21212  38.782  31.632   8.486
 1307POPC   C3B21213  38.838  31.527   8.107
 1307POPC   C4B21214  38.710  31.597   7.706
 1308POPC   NC321215  28.057  42.806   9.441
 1308POPC   PO421216  28.479  42.203   9.511
 1308POPC   GL121217  28.418  42.234   9.071
 1308POPC   GL221218  28.165  42.480   9.069
 1308POPC   C1A21219  28.698  42.272   8.713
 1308POPC   D2A21220  28.877  42.123   8.311
 1308POPC   C3A21221  28.749  42.319   7.901
 1308POPC   C4A21222  28.469  42.202   7.518
 1308POPC   C1B21223  28.309  42.609   8.680
 1308POPC   C2B21224  28.386  42.450   8.265
 1308POPC   C3B21225  28.293  42.580   7.849
 1308POPC   C4B21226  28.097  42.586   7.447
 1309POPC   NC321227   6.804   1.105   9.480
 1309POPC   PO421228   7.423   1.349   9.504
 1309POPC   GL121229   7.338   1.079   9.137
 1309POPC   GL221230   6.993   1.138   9.009
 1309POPC   C1A21231   7.622   1.067   8.750
 1309POPC   D2A21232   7.831   1.405   8.512
 1309POPC   C3A21233   7.647   1.465   8.131
 1309POPC   C4A21234   7.555   1.119   7.872
 1309POPC   C1B21235   7.123   1.034   8.608
 1309POPC   C2B21236   7.085   1.055   8.169
 1309POPC   C3B21237   7.155   1.431   7.945
 1309POPC   C4B21238   7.446   1.624   7.661
 1310POPC   NC321239   4.966  44.905   9.754
 1310POPC   PO421240   5.372  44.387   9.538
 1310POPC   GL121241   5.342  44.323   9.133
 1310POPC   GL221242   5.019  44.486   9.064
 1310POPC   C1A21243   5.404  44.562   8.745
 1310POPC   D2A21244   5.240  44.398   8.384
 1310POPC   C3A21245   5.330  44.546   8.018
 1310POPC   C4A21246   5.256  44.358   7.646
 1310POPC   C1B21247   4.838  44.539   8.649
 1310POPC   C2B21248   4.943  44.801   8.267
 1310POPC   C3B21249   4.888  44.729   7.821
 1310POPC   C4B21250   4.561  44.476   7.652
 1311POPC   NC321251   9.312  38.359   9.548
 1311POPC   PO421252   9.962  38.527   9.669
 1311POPC   GL121253   9.972  38.360   9.210
 1311POPC   GL221254   9.771  38.646   9.100
 1311POPC   C1A21255   9.762  38.252   8.770
 1311POPC   D2A21256   9.548  38.248   8.372
 1311POPC   C3A21257   9.777  38.104   7.999
 1311POPC   C4A21258   9.574  38.245   7.627
 1311POPC   C1B21259  10.065  38.654   8.738
 1311POPC   C2B21260  10.122  38.703   8.302
 1311POPC   C3B21261   9.777  38.627   7.999
 1311POPC   C4B21262   9.322  38.584   7.930
 1312POPC   NC321263  39.026  29.655   9.458
 1312POPC   PO421264  39.273  30.289   9.503
 1312POPC   GL121265  39.085  30.070   9.155
 1312POPC   GL221266  39.370  29.886   9.134
 1312POPC   C1A21267  39.065  30.071   8.694
 1312POPC   D2A21268  39.127  30.268   8.277
 1312POPC   C3A21269  39.236  30.089   7.908
 1312POPC   C4A21270  39.053  29.768   7.642
 1312POPC   C1B21271  39.463  29.686   8.761
 1312POPC   C2B21272  39.427  29.844   8.348
 1312POPC   C3B21273  39.442  29.633   7.929
 1312POPC   C4B21274  39.541  29.734   7.510
 1313POPC   NC321275   7.401  23.336   9.436
 1313POPC   PO421276   7.735  23.882   9.556
 1313POPC   GL121277   7.657  23.701   9.176
 1313POPC   GL221278   7.308  23.790   9.173
 1313POPC   C1A21279   7.551  23.532   8.781
 1313POPC   D2A21280   7.539  23.751   8.406
 1313POPC   C3A21281   7.372  23.567   8.062
 1313POPC   C4A21282   7.540  23.645   7.695
 1313POPC   C1B21283   7.220  23.953   8.779
 1313POPC   C2B21284   7.040  23.705   8.423
 1313POPC   C3B21285   6.840  23.747   8.051
 1313POPC   C4B21286   7.044  23.817   7.675
 1314POPC   NC321287   7.962  35.491   9.559
 1314POPC   PO421288   7.305  35.311   9.593
 1314POPC   GL121289   7.343  35.335   9.161
 1314POPC   GL221290   7.645  35.473   9.163
 1314POPC   C1A21291   7.460  35.204   8.745
 1314POPC   D2A21292   7.161  35.240   8.406
 1314POPC   C3A21293   7.358  35.200   8.023
 1314POPC   C4A21294   7.238  35.254   7.614
 1314POPC   C1B21295   7.851  35.618   8.824
 1314POPC   C2B21296   7.832  35.499   8.427
 1314POPC   C3B21297   7.860  35.646   8.020
 1314POPC   C4B21298   7.674  35.471   7.701
 1315POPC   NC321299  36.705  38.946   9.976
 1315POPC   PO421300  37.046  39.405   9.573
 1315POPC   GL121301  37.108  39.169   9.186
 1315POPC   GL221302  36.864  39.476   9.112
 1315POPC   C1A21303  36.852  39.075   8.803
 1315POPC   D2A21304  36.586  38.869   8.516
 1315POPC   C3A21305  36.771  39.035   8.187
 1315POPC   C4A21306  36.840  39.062   7.785
 1315POPC   C1B21307  36.748  39.601   8.736
 1315POPC   C2B21308  36.904  39.501   8.380
 1315POPC   C3B21309  36.787  39.584   8.000
 1315POPC   C4B21310  37.062  39.549   7.681
 1316POPC   NC321311  38.444  35.717   9.495
 1316POPC   PO421312  38.360  36.407   9.498
 1316POPC   GL121313  38.507  36.143   9.175
 1316POPC   GL221314  38.174  36.029   9.135
 1316POPC   C1A21315  38.493  36.025   8.734
 1316POPC   D2A21316  38.304  36.228   8.375
 1316POPC   C3A21317  38.447  36.136   7.981
 1316POPC   C4A21318  38.795  35.878   7.873
 1316POPC   C1B21319  38.101  36.375   8.822
 1316POPC   C2B21320  37.862  36.455   8.424
 1316POPC   C3B21321  38.015  36.432   8.004
 1316POPC   C4B21322  38.144  36.365   7.586
 1317POPC   NC321323  11.600  40.025   9.513
 1317POPC   PO421324  10.958  39.788   9.541
 1317POPC   GL121325  11.203  40.057   9.220
 1317POPC   GL221326  11.483  39.880   9.039
 1317POPC   C1A21327  11.288  40.276   8.839
 1317POPC   D2A21328  11.338  40.007   8.481
 1317POPC   C3A21329  11.379  40.141   8.067
 1317POPC   C4A21330  11.188  40.243   7.696
 1317POPC   C1B21331  11.440  39.556   8.744
 1317POPC   C2B21332  11.198  39.522   8.382
 1317POPC   C3B21333  11.117  39.706   8.010
 1317POPC   C4B21334  11.295  39.730   7.611
 1318POPC   NC321335  21.834   2.570   9.447
 1318POPC   PO421336  22.190   3.090   9.456
 1318POPC   GL121337  22.076   2.943   9.079
 1318POPC   GL221338  21.754   2.920   9.068
 1318POPC   C1A21339  22.148   2.930   8.639
 1318POPC   D2A21340  22.080   3.155   8.246
 1318POPC   C3A21341  22.362   2.973   7.931
 1318POPC   C4A21342  22.506   2.769   7.540
 1318POPC   C1B21343  21.932   2.501   8.816
 1318POPC   C2B21344  22.203   2.445   8.436
 1318POPC   C3B21345  22.009   2.652   8.106
 1318POPC   C4B21346  22.021   2.681   7.677
 1319POPC   NC321347  34.530   0.805   9.325
 1319POPC   PO421348  34.856   0.226   9.358
 1319POPC   GL121349  34.686   0.417   9.039
 1319POPC   GL221350  34.392   0.345   9.120
 1319POPC   C1A21351  34.627   0.676   8.646
 1319POPC   D2A21352  34.602   0.944   8.277
 1319POPC   C3A21353  34.401   0.808   7.899
 1319POPC   C4A21354  34.643   0.633   7.570
 1319POPC   C1B21355  34.176   0.487   8.756
 1319POPC   C2B21356  34.208   0.472   8.283
 1319POPC   C3B21357  34.213   0.318   7.845
 1319POPC   C4B21358  34.164   0.561   7.471
 1320POPC   NC321359  31.138  38.560   9.582
 1320POPC   PO421360  31.806  38.188   9.551
 1320POPC   GL121361  31.588  38.319   9.206
 1320POPC   GL221362  31.498  38.669   9.232
 1320POPC   C1A21363  31.667  38.351   8.775
 1320POPC   D2A21364  31.347  38.362   8.437
 1320POPC   C3A21365  31.502  38.608   8.092
 1320POPC   C4A21366  31.768  38.403   7.820
 1320POPC   C1B21367  31.305  38.708   8.848
 1320POPC   C2B21368  31.195  38.850   8.439
 1320POPC   C3B21369  30.954  38.609   8.116
 1320POPC   C4B21370  30.920  38.272   7.784
 1321POPC   NC321371  37.449  17.939   9.748
 1321POPC   PO421372  37.679  18.577   9.779
 1321POPC   GL121373  37.566  18.438   9.312
 1321POPC   GL221374  37.480  18.072   9.229
 1321POPC   C1A21375  37.655  18.366   8.827
 1321POPC   D2A21376  37.838  18.233   8.403
 1321POPC   C3A21377  37.645  18.328   7.984
 1321POPC   C4A21378  37.711  18.353   7.511
 1321POPC   C1B21379  37.226  18.072   8.827
 1321POPC   C2B21380  37.327  18.111   8.374
 1321POPC   C3B21381  37.260  17.984   7.936
 1321POPC   C4B21382  37.298  18.022   7.455
 1322POPC   NC321383  35.768  13.186   9.453
 1322POPC   PO421384  35.976  12.473   9.611
 1322POPC   GL121385  36.125  12.756   9.228
 1322POPC   GL221386  35.883  12.946   9.023
 1322POPC   C1A21387  36.346  12.834   8.792
 1322POPC   D2A21388  36.219  12.912   8.342
 1322POPC   C3A21389  36.303  13.223   8.034
 1322POPC   C4A21390  36.315  13.073   7.656
 1322POPC   C1B21391  35.979  13.209   8.667
 1322POPC   C2B21392  35.825  13.227   8.238
 1322POPC   C3B21393  35.910  12.900   7.916
 1322POPC   C4B21394  35.632  12.748   7.617
 1323POPC   NC321395   0.324  42.451   9.548
 1323POPC   PO421396   0.856  42.768   9.764
 1323POPC   GL121397   0.727  42.898   9.271
 1323POPC   GL221398   0.400  42.747   9.125
 1323POPC   C1A21399   0.545  43.149   8.858
 1323POPC   D2A21400   0.331  43.153   8.416
 1323POPC   C3A21401   0.534  43.334   8.041
 1323POPC   C4A21402   0.938  43.435   7.862
 1323POPC   C1B21403   0.200  42.723   8.697
 1323POPC   C2B21404   0.105  42.720   8.241
 1323POPC   C3B21405   0.401  42.865   7.927
 1323POPC   C4B21406   0.710  43.035   7.626
 1324POPC   NC321407  11.519  11.646   9.524
 1324POPC   PO421408  11.056  12.191   9.572
 1324POPC   GL121409  11.307  12.410   9.257
 1324POPC   GL221410  11.563  12.158   9.178
 1324POPC   C1A21411  11.174  12.274   8.859
 1324POPC   D2A21412  11.312  12.072   8.472
 1324POPC   C3A21413  11.222  12.141   8.045
 1324POPC   C4A21414  11.021  11.827   7.758
 1324POPC   C1B21415  11.681  11.857   8.803
 1324POPC   C2B21416  11.573  11.638   8.399
 1324POPC   C3B21417  11.471  11.664   7.948
 1324POPC   C4B21418  11.863  11.640   7.663
 1325POPC   NC321419  33.884  20.357   9.756
 1325POPC   PO421420  33.383  20.753   9.674
 1325POPC   GL121421  33.606  20.547   9.241
 1325POPC   GL221422  33.963  20.436   9.201
 1325POPC   C1A21423  33.682  20.450   8.764
 1325POPC   D2A21424  33.844  20.760   8.432
 1325POPC   C3A21425  33.778  20.638   8.010
 1325POPC   C4A21426  33.707  20.222   7.892
 1325POPC   C1B21427  34.129  20.749   8.894
 1325POPC   C2B21428  34.391  20.947   8.569
 1325POPC   C3B21429  34.406  20.904   8.090
 1325POPC   C4B21430  34.161  20.771   7.705
 1326POPC   NC321431  15.097   9.239   9.520
 1326POPC   PO421432  15.571   8.869   9.466
 1326POPC   GL121433  15.421   9.185   9.128
 1326POPC   GL221434  15.178   8.966   9.066
 1326POPC   C1A21435  15.303   9.244   8.667
 1326POPC   D2A21436  15.522   9.003   8.326
 1326POPC   C3A21437  15.335   8.998   7.898
 1326POPC   C4A21438  14.908   8.921   7.724
 1326POPC   C1B21439  15.253   8.725   8.672
 1326POPC   C2B21440  15.086   8.718   8.247
 1326POPC   C3B21441  15.174   8.484   7.867
 1326POPC   C4B21442  14.983   8.325   7.472
 1327POPC   NC321443  32.134  38.625   9.526
 1327POPC   PO421444  32.587  38.059   9.521
 1327POPC   GL121445  32.389  38.300   9.210
 1327POPC   GL221446  32.489  38.674   9.156
 1327POPC   C1A21447  32.223  38.192   8.818
 1327POPC   D2A21448  31.990  38.069   8.458
 1327POPC   C3A21449  32.195  38.269   8.119
 1327POPC   C4A21450  32.217  38.219   7.710
 1327POPC   C1B21451  32.094  38.707   8.853
 1327POPC   C2B21452  31.930  38.619   8.418
 1327POPC   C3B21453  32.030  38.797   8.006
 1327POPC   C4B21454  32.134  38.689   7.571
 1328POPC   NC321455   0.537  33.228   9.637
 1328POPC   PO421456   0.149  32.761   9.332
 1328POPC   GL121457   0.378  33.012   9.034
 1328POPC   GL221458   0.691  33.182   9.156
 1328POPC   C1A21459   0.273  32.908   8.606
 1328POPC   D2A21460  44.996  32.873   8.248
 1328POPC   C3A21461   0.307  32.992   7.941
 1328POPC   C4A21462   0.751  32.844   7.913
 1328POPC   C1B21463   0.675  33.351   8.751
 1328POPC   C2B21464   0.633  33.180   8.340
 1328POPC   C3B21465   0.709  33.346   7.957
 1328POPC   C4B21466   0.551  33.376   7.590
 1329POPC   NC321467  31.624   2.357   9.563
 1329POPC   PO421468  31.449   1.730   9.580
 1329POPC   GL121469  31.633   1.780   9.192
 1329POPC   GL221470  31.958   1.678   9.162
 1329POPC   C1A21471  31.515   1.970   8.804
 1329POPC   D2A21472  31.557   2.238   8.421
 1329POPC   C3A21473  31.606   2.019   8.018
 1329POPC   C4A21474  31.386   2.037   7.607
 1329POPC   C1B21475  32.022   1.923   8.820
 1329POPC   C2B21476  31.849   1.803   8.439
 1329POPC   C3B21477  31.920   1.568   8.092
 1329POPC   C4B21478  31.702   1.618   7.712
 1330POPC   NC321479  13.974  16.096   9.544
 1330POPC   PO421480  13.397  15.851   9.307
 1330POPC   GL121481  13.659  16.096   9.136
 1330POPC   GL221482  13.944  15.925   9.071
 1330POPC   C1A21483  13.655  16.242   8.736
 1330POPC   D2A21484  13.336  16.024   8.493
 1330POPC   C3A21485  13.508  15.957   8.110
 1330POPC   C4A21486  13.410  16.029   7.715
 1330POPC   C1B21487  13.928  15.807   8.652
 1330POPC   C2B21488  14.020  15.694   8.210
 1330POPC   C3B21489  13.909  15.913   7.819
 1330POPC   C4B21490  13.923  15.826   7.371
 1331POPC   NC321491  31.489   8.972   9.566
 1331POPC   PO421492  32.007   9.045   9.348
 1331POPC   GL121493  31.595   8.980   9.050
 1331POPC   GL221494  31.272   9.149   9.128
 1331POPC   C1A21495  31.276   8.854   8.674
 1331POPC   D2A21496  31.163   8.759   8.205
 1331POPC   C3A21497  31.502   8.860   7.894
 1331POPC   C4A21498  31.593   9.141   7.537
 1331POPC   C1B21499  31.374   9.351   8.715
 1331POPC   C2B21500  31.296   9.251   8.265
 1331POPC   C3B21501  31.147   9.225   7.828
 1331POPC   C4B21502  31.180   9.476   7.432
 1332POPC   NC321503  18.388   8.474   9.729
 1332POPC   PO421504  18.335   9.013   9.678
 1332POPC   GL121505  18.329   9.014   9.219
 1332POPC   GL221506  18.240   8.661   9.217
 1332POPC   C1A21507  18.330   9.219   8.765
 1332POPC   D2A21508  18.400   9.382   8.305
 1332POPC   C3A21509  18.126   9.182   7.999
 1332POPC   C4A21510  17.849   9.303   7.642
 1332POPC   C1B21511  18.426   8.707   8.783
 1332POPC   C2B21512  18.434   8.869   8.332
 1332POPC   C3B21513  18.548   8.888   7.870
 1332POPC   C4B21514  18.522   8.721   7.419
 1333POPC   NC321515  39.725  30.153   9.423
 1333POPC   PO421516  39.917  30.783   9.494
 1333POPC   GL121517  39.814  30.783   9.082
 1333POPC   GL221518  39.962  30.471   9.052
 1333POPC   C1A21519  39.747  30.727   8.635
 1333POPC   D2A21520  40.067  30.656   8.321
 1333POPC   C3A21521  40.193  30.852   7.974
 1333POPC   C4A21522  39.998  30.862   7.582
 1333POPC   C1B21523  40.044  30.291   8.659
 1333POPC   C2B21524  40.131  30.159   8.223
 1333POPC   C3B21525  40.114  30.368   7.796
 1333POPC   C4B21526  40.026  30.428   7.333
 1334POPC   NC321527  31.445  37.900   9.510
 1334POPC   PO421528  31.467  37.245   9.519
 1334POPC   GL121529  31.627  37.492   9.199
 1334POPC   GL221530  31.313  37.654   9.107
 1334POPC   C1A21531  31.719  37.633   8.781
 1334POPC   D2A21532  31.779  37.423   8.398
 1334POPC   C3A21533  31.554  37.568   8.057
 1334POPC   C4A21534  31.706  37.451   7.651
 1334POPC   C1B21535  31.320  37.984   8.835
 1334POPC   C2B21536  31.278  37.844   8.428
 1334POPC   C3B21537  31.259  37.993   8.025
 1334POPC   C4B21538  31.284  37.759   7.644
 1335POPC   NC321539   9.974  23.142   9.743
 1335POPC   PO421540   9.393  22.906   9.421
 1335POPC   GL121541   9.690  22.800   9.100
 1335POPC   GL221542   9.718  23.071   8.868
 1335POPC   C1A21543   9.670  22.589   8.745
 1335POPC   D2A21544   9.465  22.628   8.426
 1335POPC   C3A21545   9.596  22.784   8.065
 1335POPC   C4A21546   9.569  22.571   7.678
 1335POPC   C1B21547  10.000  22.992   8.581
 1335POPC   C2B21548  10.228  23.126   8.252
 1335POPC   C3B21549  10.007  23.305   7.950
 1335POPC   C4B21550   9.914  22.952   7.713
 1336POPC   NC321551  19.401  42.271   9.497
 1336POPC   PO421552  20.051  42.503   9.596
 1336POPC   GL121553  20.063  42.375   9.151
 1336POPC   GL221554  19.710  42.297   9.069
 1336POPC   C1A21555  20.095  42.520   8.692
 1336POPC   D2A21556  19.919  42.393   8.283
 1336POPC   C3A21557  19.984  42.647   7.929
 1336POPC   C4A21558  19.926  42.537   7.519
 1336POPC   C1B21559  19.807  42.092   8.689
 1336POPC   C2B21560  19.862  41.892   8.305
 1336POPC   C3B21561  19.760  42.034   7.909
 1336POPC   C4B21562  19.367  42.027   7.766
 1337POPC   NC321563   4.192  25.884   9.506
 1337POPC   PO421564   4.735  26.351   9.559
 1337POPC   GL121565   4.539  26.145   9.205
 1337POPC   GL221566   4.594  25.796   9.177
 1337POPC   C1A21567   4.402  26.056   8.771
 1337POPC   D2A21568   4.119  26.135   8.424
 1337POPC   C3A21569   4.112  25.929   8.031
 1337POPC   C4A21570   4.167  26.124   7.658
 1337POPC   C1B21571   4.870  25.870   8.866
 1337POPC   C2B21572   4.837  26.060   8.472
 1337POPC   C3B21573   4.598  26.063   8.112
 1337POPC   C4B21574   4.675  25.995   7.690
 1338POPC   NC321575  38.106  29.263  10.291
 1338POPC   PO421576  38.235  29.257   9.565
 1338POPC   GL121577  38.425  29.385   9.174
 1338POPC   GL221578  38.200  29.161   9.007
 1338POPC   C1A21579  38.594  29.330   8.729
 1338POPC   D2A21580  38.535  29.472   8.281
 1338POPC   C3A21581  38.482  29.147   7.940
 1338POPC   C4A21582  38.257  28.755   7.758
 1338POPC   C1B21583  38.156  29.591   8.764
 1338POPC   C2B21584  38.105  29.750   8.321
 1338POPC   C3B21585  38.168  29.550   7.893
 1338POPC   C4B21586  38.225  29.688   7.439
 1339POPC   NC321587   1.029  44.982   9.399
 1339POPC   PO421588   1.208  44.281   9.440
 1339POPC   GL121589   1.147  44.404   9.048
 1339POPC   GL221590   1.339  44.705   9.084
 1339POPC   C1A21591   1.089  44.540   8.632
 1339POPC   D2A21592   0.936  44.799   8.332
 1339POPC   C3A21593   1.193  44.679   7.987
 1339POPC   C4A21594   1.151  44.338   7.655
 1339POPC   C1B21595   1.594  44.515   8.789
 1339POPC   C2B21596   1.623  44.332   8.370
 1339POPC   C3B21597   1.675  44.460   7.951
 1339POPC   C4B21598   1.642  44.370   7.528
 1340POPC   NC321599  32.486  35.133   9.554
 1340POPC   PO421600  31.985  35.596   9.446
 1340POPC   GL121601  32.291  35.447   9.161
 1340POPC   GL221602  32.380  35.091   9.074
 1340POPC   C1A21603  32.188  35.386   8.730
 1340POPC   D2A21604  31.925  35.182   8.472
 1340POPC   C3A21605  32.022  35.305   8.070
 1340POPC   C4A21606  31.948  35.130   7.703
 1340POPC   C1B21607  32.639  35.129   8.712
 1340POPC   C2B21608  32.478  35.051   8.290
 1340POPC   C3B21609  32.447  35.129   7.839
 1340POPC   C4B21610  32.354  35.034   7.382
 1341POPC   NC321611   9.996  29.088   9.564
 1341POPC   PO421612   9.415  29.397   9.401
 1341POPC   GL121613   9.686  29.205   9.098
 1341POPC   GL221614  10.024  29.361   9.102
 1341POPC   C1A21615   9.627  29.135   8.651
 1341POPC   D2A21616   9.858  29.220   8.251
 1341POPC   C3A21617   9.626  29.263   7.859
 1341POPC   C4A21618   9.562  28.965   7.505
 1341POPC   C1B21619  10.087  28.975   8.836
 1341POPC   C2B21620  10.278  28.915   8.420
 1341POPC   C3B21621  10.131  28.874   7.973
 1341POPC   C4B21622  10.122  29.276   7.771
 1342POPC   NC321623  29.895  24.696   9.567
 1342POPC   PO421624  30.570  24.587   9.556
 1342POPC   GL121625  30.205  24.469   9.210
 1342POPC   GL221626  29.948  24.686   9.073
 1342POPC   C1A21627  30.088  24.368   8.722
 1342POPC   D2A21628  30.010  24.612   8.312
 1342POPC   C3A21629  29.978  24.426   7.917
 1342POPC   C4A21630  30.265  24.397   7.533
 1342POPC   C1B21631  29.749  24.828   8.690
 1342POPC   C2B21632  29.626  24.960   8.260
 1342POPC   C3B21633  29.742  24.870   7.814
 1342POPC   C4B21634  29.912  24.742   7.433
 1343POPC   NC321635  36.070  38.314   9.532
 1343POPC   PO421636  36.583  38.646   9.590
 1343POPC   GL121637  36.458  38.376   9.196
 1343POPC   GL221638  36.136  38.358   9.035
 1343POPC   C1A21639  36.530  38.403   8.739
 1343POPC   D2A21640  36.208  38.496   8.412
 1343POPC   C3A21641  36.183  38.310   7.992
 1343POPC   C4A21642  36.029  38.244   7.564
 1343POPC   C1B21643  35.825  38.353   8.731
 1343POPC   C2B21644  35.787  38.185   8.310
 1343POPC   C3B21645  35.627  38.113   7.866
 1343POPC   C4B21646  35.573  38.137   7.362
 1344POPC   NC321647  23.464  16.077   9.656
 1344POPC   PO421648  24.128  16.083   9.586
 1344POPC   GL121649  23.784  15.894   9.292
 1344POPC   GL221650  23.678  16.153   9.122
 1344POPC   C1A21651  23.801  15.754   8.836
 1344POPC   D2A21652  23.848  15.666   8.367
 1344POPC   C3A21653  23.980  15.892   7.969
 1344POPC   C4A21654  24.012  15.940   7.477
 1344POPC   C1B21655  23.822  16.259   8.701
 1344POPC   C2B21656  23.649  16.180   8.295
 1344POPC   C3B21657  23.448  15.849   8.049
 1344POPC   C4B21658  23.576  15.696   7.655
 1345POPC   NC321659  33.377  14.067   9.504
 1345POPC   PO421660  33.996  14.123   9.744
 1345POPC   GL121661  33.764  14.245   9.278
 1345POPC   GL221662  33.781  14.534   9.134
 1345POPC   C1A21663  33.642  14.260   8.750
 1345POPC   D2A21664  33.805  14.130   8.353
 1345POPC   C3A21665  33.677  14.232   7.940
 1345POPC   C4A21666  34.025  14.165   7.631
 1345POPC   C1B21667  33.939  14.717   8.741
 1345POPC   C2B21668  33.740  14.662   8.342
 1345POPC   C3B21669  33.853  14.706   7.916
 1345POPC   C4B21670  33.522  14.748   7.615
 1346POPC   NC321671  19.332  14.241   9.490
 1346POPC   PO421672  18.754  14.572   9.554
 1346POPC   GL121673  18.950  14.352   9.149
 1346POPC   GL221674  19.317  14.447   9.025
 1346POPC   C1A21675  18.997  14.265   8.685
 1346POPC   D2A21676  18.994  14.628   8.379
 1346POPC   C3A21677  18.810  14.534   7.983
 1346POPC   C4A21678  19.037  14.249   7.794
 1346POPC   C1B21679  19.485  14.412   8.595
 1346POPC   C2B21680  19.413  14.415   8.152
 1346POPC   C3B21681  19.284  14.699   7.808
 1346POPC   C4B21682  19.296  14.654   7.349
 1347POPC   NC321683   7.272  37.961   9.265
 1347POPC   PO421684   7.434  38.527   9.650
 1347POPC   GL121685   7.447  38.506   9.189
 1347POPC   GL221686   7.147  38.471   9.206
 1347POPC   C1A21687   7.304  38.359   8.741
 1347POPC   D2A21688   7.305  38.280   8.311
 1347POPC   C3A21689   7.555  38.502   8.009
 1347POPC   C4A21690   7.464  38.218   7.682
 1347POPC   C1B21691   6.956  38.697   8.862
 1347POPC   C2B21692   6.854  38.513   8.473
 1347POPC   C3B21693   6.899  38.549   8.056
 1347POPC   C4B21694   7.133  38.683   7.746
 1348POPC   NC321695  37.595  26.117   9.709
 1348POPC   PO421696  37.947  25.614   9.470
 1348POPC   GL121697  37.657  25.922   9.226
 1348POPC   GL221698  37.676  26.292   9.202
 1348POPC   C1A21699  37.372  26.049   8.866
 1348POPC   D2A21700  37.348  25.911   8.435
 1348POPC   C3A21701  37.692  25.974   8.141
 1348POPC   C4A21702  37.399  26.126   7.855
 1348POPC   C1B21703  37.727  26.379   8.711
 1348POPC   C2B21704  37.585  26.446   8.254
 1348POPC   C3B21705  37.740  26.542   7.809
 1348POPC   C4B21706  37.863  26.697   7.343
 1349POPC   NC321707  32.018   4.639   9.744
 1349POPC   PO421708  32.448   5.105   9.439
 1349POPC   GL121709  32.211   4.918   9.137
 1349POPC   GL221710  32.005   4.626   9.206
 1349POPC   C1A21711  32.274   5.097   8.729
 1349POPC   D2A21712  32.065   5.146   8.352
 1349POPC   C3A21713  32.248   5.102   7.948
 1349POPC   C4A21714  32.603   5.296   7.706
 1349POPC   C1B21715  32.109   4.605   8.727
 1349POPC   C2B21716  32.380   4.741   8.353
 1349POPC   C3B21717  32.377   4.596   7.919
 1349POPC   C4B21718  31.994   4.717   7.697
 1350POPC   NC321719   4.845  44.254   9.476
 1350POPC   PO421720   5.195  43.605   9.508
 1350POPC   GL121721   5.285  43.756   9.126
 1350POPC   GL221722   4.981  43.920   9.131
 1350POPC   C1A21723   5.416  43.636   8.713
 1350POPC   D2A21724   5.357  43.900   8.351
 1350POPC   C3A21725   5.166  43.834   7.986
 1350POPC   C4A21726   5.279  43.838   7.550
 1350POPC   C1B21727   5.085  44.068   8.757
 1350POPC   C2B21728   4.864  44.064   8.400
 1350POPC   C3B21729   4.845  44.280   8.057
 1350POPC   C4B21730   4.846  44.072   7.684
 1351POPC   NC321731  42.522   7.598   9.438
 1351POPC   PO421732  42.030   7.195   9.327
 1351POPC   GL121733  42.305   7.357   9.044
 1351POPC   GL221734  42.151   7.664   9.069
 1351POPC   C1A21735  42.590   7.310   8.702
 1351POPC   D2A21736  42.725   7.180   8.301
 1351POPC   C3A21737  42.467   7.352   7.964
 1351POPC   C4A21738  42.015   7.261   7.923
 1351POPC   C1B21739  42.056   7.706   8.686
 1351POPC   C2B21740  42.137   7.503   8.345
 1351POPC   C3B21741  42.116   7.762   7.977
 1351POPC   C4B21742  42.323   7.755   7.582
 1352POPC   NC321743   8.804  36.784   9.238
 1352POPC   PO421744   9.005  37.364   9.558
 1352POPC   GL121745   9.130  37.197   9.108
 1352POPC   GL221746   9.264  36.834   8.948
 1352POPC   C1A21747   8.997  37.128   8.655
 1352POPC   D2A21748   9.185  37.014   8.259
 1352POPC   C3A21749   9.033  36.991   7.864
 1352POPC   C4A21750   8.806  37.236   7.574
 1352POPC   C1B21751   9.108  36.618   8.587
 1352POPC   C2B21752   8.887  36.591   8.207
 1352POPC   C3B21753   8.969  36.490   7.789
 1352POPC   C4B21754   9.303  36.538   7.463
 1353POPC   NC321755  18.583  41.514   9.479
 1353POPC   PO421756  19.136  41.887   9.646
 1353POPC   GL121757  18.990  41.620   9.239
 1353POPC   GL221758  18.772  41.885   9.148
 1353POPC   C1A21759  18.856  41.415   8.830
 1353POPC   D2A21760  18.601  41.255   8.461
 1353POPC   C3A21761  18.802  41.308   8.053
 1353POPC   C4A21762  19.206  41.251   7.833
 1353POPC   C1B21763  18.840  41.937   8.749
 1353POPC   C2B21764  18.824  41.714   8.393
 1353POPC   C3B21765  19.075  41.772   8.073
 1353POPC   C4B21766  19.011  41.687   7.645
 1354POPC   NC321767  29.129  19.648   9.454
 1354POPC   PO421768  29.708  20.076   9.483
 1354POPC   GL121769  29.333  20.014   9.133
 1354POPC   GL221770  29.276  19.673   8.984
 1354POPC   C1A21771  29.078  20.052   8.718
 1354POPC   D2A21772  28.868  19.696   8.443
 1354POPC   C3A21773  28.970  19.688   7.974
 1354POPC   C4A21774  29.300  19.952   7.761
 1354POPC   C1B21775  29.390  19.402   8.679
 1354POPC   C2B21776  29.599  19.292   8.311
 1354POPC   C3B21777  29.470  19.463   7.912
 1354POPC   C4B21778  29.206  19.477   7.566
 1355POPC   NC321779  22.570  33.299   9.462
 1355POPC   PO421780  21.856  33.153   9.416
 1355POPC   GL121781  22.191  33.098   9.154
 1355POPC   GL221782  22.318  32.775   9.275
 1355POPC   C1A21783  22.194  33.268   8.723
 1355POPC   D2A21784  21.989  33.357   8.329
 1355POPC   C3A21785  22.151  33.294   7.896
 1355POPC   C4A21786  22.072  33.402   7.461
 1355POPC   C1B21787  22.337  32.773   8.795
 1355POPC   C2B21788  22.329  32.900   8.351
 1355POPC   C3B21789  22.260  32.748   7.938
 1355POPC   C4B21790  22.235  32.926   7.532
 1356POPC   NC321791  11.075  20.614   9.466
 1356POPC   PO421792  11.653  20.900   9.344
 1356POPC   GL121793  11.362  20.731   9.004
 1356POPC   GL221794  11.016  20.561   8.971
 1356POPC   C1A21795  11.348  20.528   8.604
 1356POPC   D2A21796  11.278  20.652   8.185
 1356POPC   C3A21797  11.513  20.459   7.875
 1356POPC   C4A21798  11.105  20.340   7.743
 1356POPC   C1B21799  10.965  20.879   8.614
 1356POPC   C2B21800  11.026  21.101   8.208
 1356POPC   C3B21801  11.073  20.884   7.776
 1356POPC   C4B21802  11.412  20.832   7.512
 1357POPC   NC321803  26.994   6.096   9.491
 1357POPC   PO421804  26.304   6.033   9.442
 1357POPC   GL121805  26.661   6.038   9.114
 1357POPC   GL221806  27.040   5.921   9.019
 1357POPC   C1A21807  26.784   6.230   8.741
 1357POPC   D2A21808  26.809   5.991   8.378
 1357POPC   C3A21809  26.571   6.120   8.069
 1357POPC   C4A21810  26.314   5.853   7.792
 1357POPC   C1B21811  27.270   5.972   8.595
 1357POPC   C2B21812  27.267   5.967   8.114
 1357POPC   C3B21813  27.017   5.885   7.712
 1357POPC   C4B21814  27.024   5.974   7.231
 1358POPC   NC321815  27.588  16.237   9.627
 1358POPC   PO421816  27.863  15.578   9.593
 1358POPC   GL121817  27.781  15.903   9.268
 1358POPC   GL221818  27.416  15.937   9.189
 1358POPC   C1A21819  27.721  16.000   8.807
 1358POPC   D2A21820  27.821  15.808   8.439
 1358POPC   C3A21821  27.668  15.914   8.067
 1358POPC   C4A21822  27.645  15.700   7.721
 1358POPC   C1B21823  27.374  16.335   8.953
 1358POPC   C2B21824  27.511  16.438   8.519
 1358POPC   C3B21825  27.426  16.376   8.079
 1358POPC   C4B21826  27.300  16.072   7.748
 1359POPC   NC321827  15.527   2.226   9.544
 1359POPC   PO421828  15.253   1.639   9.580
 1359POPC   GL121829  15.095   1.763   9.155
 1359POPC   GL221830  14.781   1.601   9.060
 1359POPC   C1A21831  15.198   1.948   8.699
 1359POPC   D2A21832  15.402   1.781   8.290
 1359POPC   C3A21833  15.428   2.087   7.947
 1359POPC   C4A21834  15.141   2.200   7.563
 1359POPC   C1B21835  15.032   1.487   8.734
 1359POPC   C2B21836  14.936   1.586   8.372
 1359POPC   C3B21837  14.928   1.912   8.123
 1359POPC   C4B21838  15.117   1.710   7.795
 1360POPC   NC321839  16.963  37.151   9.568
 1360POPC   PO421840  16.354  37.276   9.444
 1360POPC   GL121841  16.647  37.124   9.130
 1360POPC   GL221842  16.568  36.785   9.116
 1360POPC   C1A21843  16.823  37.166   8.687
 1360POPC   D2A21844  17.026  37.227   8.293
 1360POPC   C3A21845  16.829  37.022   7.975
 1360POPC   C4A21846  17.077  36.797   7.690
 1360POPC   C1B21847  16.587  36.730   8.706
 1360POPC   C2B21848  16.808  36.648   8.348
 1360POPC   C3B21849  16.722  36.509   7.935
 1360POPC   C4B21850  16.363  36.526   7.659
 1361POPC   NC321851  30.950  10.542   9.764
 1361POPC   PO421852  30.285  10.545   9.718
 1361POPC   GL121853  30.416  10.583   9.241
 1361POPC   GL221854  30.803  10.602   9.222
 1361POPC   C1A21855  30.277  10.506   8.771
 1361POPC   D2A21856  30.353  10.690   8.348
 1361POPC   C3A21857  30.542  10.480   7.995
 1361POPC   C4A21858  30.645  10.033   7.897
 1361POPC   C1B21859  30.787  10.613   8.740
 1361POPC   C2B21860  30.903  10.710   8.296
 1361POPC   C3B21861  31.042  10.482   7.919
 1361POPC   C4B21862  30.966  10.236   7.554
 1362POPC   NC321863  26.902  28.356   9.915
 1362POPC   PO421864  27.346  28.131   9.681
 1362POPC   GL121865  27.308  28.153   9.206
 1362POPC   GL221866  27.176  28.496   9.133
 1362POPC   C1A21867  27.168  28.156   8.735
 1362POPC   D2A21868  26.937  28.298   8.337
 1362POPC   C3A21869  26.881  28.109   7.917
 1362POPC   C4A21870  26.549  28.176   7.606
 1362POPC   C1B21871  27.030  28.671   8.725
 1362POPC   C2B21872  26.840  28.807   8.324
 1362POPC   C3B21873  26.846  28.622   7.901
 1362POPC   C4B21874  27.203  28.441   7.666
 1363POPC   NC321875   4.361  24.234   9.747
 1363POPC   PO421876   4.632  24.738   9.367
 1363POPC   GL121877   4.330  24.518   9.140
 1363POPC   GL221878   4.258  24.177   9.208
 1363POPC   C1A21879   4.448  24.415   8.736
 1363POPC   D2A21880   4.345  24.646   8.381
 1363POPC   C3A21881   4.488  24.460   8.062
 1363POPC   C4A21882   4.411  24.576   7.675
 1363POPC   C1B21883   4.108  24.039   8.836
 1363POPC   C2B21884   4.017  24.241   8.437
 1363POPC   C3B21885   3.874  24.304   8.014
 1363POPC   C4B21886   3.894  24.085   7.633
 1364POPC   NC321887  41.793  42.189   9.497
 1364POPC   PO421888  41.235  42.586   9.431
 1364POPC   GL121889  41.438  42.364   9.105
 1364POPC   GL221890  41.814  42.392   9.036
 1364POPC   C1A21891  41.450  42.487   8.681
 1364POPC   D2A21892  41.376  42.294   8.284
 1364POPC   C3A21893  41.473  42.494   7.884
 1364POPC   C4A21894  41.251  42.347   7.528
 1364POPC   C1B21895  41.761  42.074   8.690
 1364POPC   C2B21896  41.849  42.003   8.218
 1364POPC   C3B21897  41.753  42.060   7.745
 1364POPC   C4B21898  41.717  42.285   7.321
 1365POPC   NC321899  25.378  14.361   9.436
 1365POPC   PO421900  24.664  14.285   9.535
 1365POPC   GL121901  24.971  14.163   9.181
 1365POPC   GL221902  25.133  14.506   9.020
 1365POPC   C1A21903  25.222  14.057   8.808
 1365POPC   D2A21904  25.189  14.372   8.502
 1365POPC   C3A21905  25.067  14.252   8.075
 1365POPC   C4A21906  25.392  14.181   7.765
 1365POPC   C1B21907  25.080  14.916   8.803
 1365POPC   C2B21908  25.225  15.070   8.410
 1365POPC   C3B21909  25.300  14.735   8.144
 1365POPC   C4B21910  25.162  14.643   7.757
 1366POPC   NC321911  21.652  33.147   9.828
 1366POPC   PO421912  21.419  32.660   9.537
 1366POPC   GL121913  21.336  33.019   9.218
 1366POPC   GL221914  20.989  32.996   9.074
 1366POPC   C1A21915  21.498  33.086   8.774
 1366POPC   D2A21916  21.821  32.883   8.500
 1366POPC   C3A21917  21.804  32.954   8.049
 1366POPC   C4A21918  21.725  32.981   7.582
 1366POPC   C1B21919  21.042  32.890   8.634
 1366POPC   C2B21920  21.328  32.925   8.273
 1366POPC   C3B21921  21.392  33.213   7.902
 1366POPC   C4B21922  21.222  33.152   7.499
 1367POPC   NC321923  27.197   8.615   9.912
 1367POPC   PO421924  27.438   8.099   9.530
 1367POPC   GL121925  27.619   8.282   9.149
 1367POPC   GL221926  27.649   7.959   9.053
 1367POPC   C1A21927  27.666   8.409   8.685
 1367POPC   D2A21928  27.824   8.231   8.268
 1367POPC   C3A21929  27.508   8.144   8.006
 1367POPC   C4A21930  27.399   8.540   7.816
 1367POPC   C1B21931  27.531   7.914   8.626
 1367POPC   C2B21932  27.823   7.718   8.354
 1367POPC   C3B21933  27.909   7.784   7.934
 1367POPC   C4B21934  27.677   7.839   7.581
 1368POPC   NC321935  14.123   0.150   9.505
 1368POPC   PO421936  14.734   0.338   9.466
 1368POPC   GL121937  14.554   0.472   9.114
 1368POPC   GL221938  14.824   0.723   9.100
 1368POPC   C1A21939  14.216   0.482   8.816
 1368POPC   D2A21940  14.274   0.258   8.438
 1368POPC   C3A21941  14.235   0.405   8.030
 1368POPC   C4A21942  14.560   0.373   7.754
 1368POPC   C1B21943  14.645   0.714   8.674
 1368POPC   C2B21944  14.718   0.535   8.272
 1368POPC   C3B21945  14.756   0.782   7.923
 1368POPC   C4B21946  14.731   0.825   7.457
 1369POPC   NC321947   2.708  36.991   9.845
 1369POPC   PO421948   2.100  36.934   9.556
 1369POPC   GL121949   1.976  36.999   9.137
 1369POPC   GL221950   1.929  36.671   9.091
 1369POPC   C1A21951   1.892  36.989   8.671
 1369POPC   D2A21952   1.894  37.139   8.230
 1369POPC   C3A21953   2.000  36.879   7.891
 1369POPC   C4A21954   1.781  36.842   7.526
 1369POPC   C1B21955   2.138  36.533   8.717
 1369POPC   C2B21956   2.146  36.624   8.291
 1369POPC   C3B21957   2.247  36.432   7.861
 1369POPC   C4B21958   2.309  36.554   7.402
 1370POPC   NC321959   9.312  10.540   9.574
 1370POPC   PO421960   8.690  10.816   9.570
 1370POPC   GL121961   8.802  10.536   9.194
 1370POPC   GL221962   9.133  10.460   9.117
 1370POPC   C1A21963   8.795  10.404   8.741
 1370POPC   D2A21964   8.936  10.198   8.341
 1370POPC   C3A21965   8.820  10.490   8.031
 1370POPC   C4A21966   9.018  10.624   7.668
 1370POPC   C1B21967   9.281  10.260   8.734
 1370POPC   C2B21968   9.475  10.192   8.328
 1370POPC   C3B21969   9.278  10.221   7.906
 1370POPC   C4B21970   9.266  10.247   7.437
 1371POPC   NC321971   2.327   4.058   9.466
 1371POPC   PO421972   1.874   4.534   9.341
 1371POPC   GL121973   1.969   4.153   9.102
 1371POPC   GL221974   2.181   3.843   9.020
 1371POPC   C1A21975   1.947   4.196   8.696
 1371POPC   D2A21976   2.032   4.590   8.493
 1371POPC   C3A21977   1.882   4.469   8.115
 1371POPC   C4A21978   1.927   4.233   7.727
 1371POPC   C1B21979   1.746   3.755   8.866
 1371POPC   C2B21980   1.553   3.947   8.512
 1371POPC   C3B21981   1.709   4.000   8.135
 1371POPC   C4B21982   1.622   3.836   7.730
 1372POPC   NC321983  44.278   4.237   9.508
 1372POPC   PO421984  43.601   4.421   9.693
 1372POPC   GL121985  43.870   4.488   9.251
 1372POPC   GL221986  44.049   4.212   9.051
 1372POPC   C1A21987  44.076   4.643   8.815
 1372POPC   D2A21988  44.235   4.387   8.459
 1372POPC   C3A21989  44.155   4.489   8.030
 1372POPC   C4A21990  44.010   4.518   7.605
 1372POPC   C1B21991  44.034   3.936   8.655
 1372POPC   C2B21992  44.090   3.947   8.210
 1372POPC   C3B21993  44.092   4.044   7.786
 1372POPC   C4B21994  43.773   4.020   7.475
 1373POPC   NC321995  22.696  39.667   9.798
 1373POPC   PO421996  22.175  39.958   9.454
 1373POPC   GL121997  22.301  40.183   9.135
 1373POPC   GL221998  22.527  40.475   9.283
 1373POPC   C1A21999  22.281  40.003   8.711
 1373POPC   D2A22000  22.079  39.810   8.322
 1373POPC   C3A22001  22.129  39.931   7.867
 1373POPC   C4A22002  21.936  40.156   7.498
 1373POPC   C1B22003  22.532  40.494   8.831
 1373POPC   C2B22004  22.604  40.273   8.425
 1373POPC   C3B22005  22.521  40.197   8.005
 1373POPC   C4B22006  22.349  40.442   7.669
 1374POPC   NC322007  11.972  37.097   9.362
 1374POPC   PO422008  12.164  37.507   9.866
 1374POPC   GL122009  12.150  37.614   9.380
 1374POPC   GL222010  11.874  37.581   9.204
 1374POPC   C1A22011  12.344  37.590   8.942
 1374POPC   D2A22012  12.397  37.405   8.524
 1374POPC   C3A22013  12.299  37.556   8.108
 1374POPC   C4A22014  12.103  37.416   7.775
 1374POPC   C1B22015  11.869  37.696   8.767
 1374POPC   C2B22016  11.834  37.563   8.346
 1374POPC   C3B22017  11.710  37.722   7.958
 1374POPC   C4B22018  11.600  37.356   7.759
 1375POPC   NC322019  16.102  15.051   9.657
 1375POPC   PO422020  15.941  15.691   9.490
 1375POPC   GL122021  15.883  15.343   9.207
 1375POPC   GL222022  16.187  15.141   9.171
 1375POPC   C1A22023  15.734  15.084   8.814
 1375POPC   D2A22024  15.895  15.022   8.375
 1375POPC   C3A22025  15.763  15.101   7.955
 1375POPC   C4A22026  15.988  15.453   7.837
 1375POPC   C1B22027  16.228  15.173   8.740
 1375POPC   C2B22028  16.385  14.902   8.399
 1375POPC   C3B22029  16.280  15.044   7.953
 1375POPC   C4B22030  16.410  15.286   7.561
 1376POPC   NC322031  16.796  25.297   9.596
 1376POPC   PO422032  17.161  24.848   9.399
 1376POPC   GL122033  17.025  25.145   9.070
 1376POPC   GL222034  16.844  25.465   9.115
 1376POPC   C1A22035  16.885  25.187   8.634
 1376POPC   D2A22036  16.605  24.948   8.350
 1376POPC   C3A22037  16.655  24.981   7.899
 1376POPC   C4A22038  16.931  25.153   7.589
 1376POPC   C1B22039  16.704  25.661   8.722
 1376POPC   C2B22040  16.568  25.477   8.304
 1376POPC   C3B22041  16.494  25.468   7.846
 1376POPC   C4B22042  16.441  25.256   7.435
 1377POPC   NC322043  43.857   9.700   9.595
 1377POPC   PO422044  44.181  10.270   9.703
 1377POPC   GL122045  43.932  10.013   9.209
 1377POPC   GL222046  43.910   9.626   9.103
 1377POPC   C1A22047  44.017   9.920   8.703
 1377POPC   D2A22048  44.042   9.720   8.279
 1377POPC   C3A22049  43.931   9.974   7.916
 1377POPC   C4A22050  44.044   9.923   7.465
 1377POPC   C1B22051  43.577   9.636   8.782
 1377POPC   C2B22052  43.537   9.785   8.354
 1377POPC   C3B22053  43.626   9.583   7.939
 1377POPC   C4B22054  43.587   9.503   7.483
 1378POPC   NC322055  27.373  26.765   9.533
 1378POPC   PO422056  28.078  26.630   9.552
 1378POPC   GL122057  27.825  26.771   9.231
 1378POPC   GL222058  27.759  26.473   9.092
 1378POPC   C1A22059  27.903  26.893   8.818
 1378POPC   D2A22060  27.771  26.797   8.397
 1378POPC   C3A22061  27.976  26.989   8.061
 1378POPC   C4A22062  27.558  27.062   7.925
 1378POPC   C1B22063  27.534  26.510   8.744
 1378POPC   C2B22064  27.301  26.366   8.441
 1378POPC   C3B22065  27.368  26.527   8.026
 1378POPC   C4B22066  27.752  26.575   7.894
 1379POPC   NC322067  15.860  15.918   9.874
 1379POPC   PO422068  16.232  16.308   9.461
 1379POPC   GL122069  16.118  16.030   9.106
 1379POPC   GL222070  15.758  15.886   9.068
 1379POPC   C1A22071  16.048  16.032   8.658
 1379POPC   D2A22072  16.111  15.865   8.246
 1379POPC   C3A22073  15.964  15.972   7.820
 1379POPC   C4A22074  16.141  15.725   7.446
 1379POPC   C1B22075  15.896  15.567   8.749
 1379POPC   C2B22076  15.757  15.500   8.325
 1379POPC   C3B22077  15.566  15.701   7.977
 1379POPC   C4B22078  15.592  15.828   7.513
 1380POPC   NC322079  12.358  11.670   9.433
 1380POPC   PO422080  11.846  11.435   9.773
 1380POPC   GL122081  11.944  11.384   9.221
 1380POPC   GL222082  12.141  11.649   8.987
 1380POPC   C1A22083  12.055  11.265   8.711
 1380POPC   D2A22084  12.015  11.407   8.263
 1380POPC   C3A22085  11.998  11.166   7.864
 1380POPC   C4A22086  12.197  11.221   7.463
 1380POPC   C1B22087  12.491  11.548   8.693
 1380POPC   C2B22088  12.569  11.497   8.240
 1380POPC   C3B22089  12.307  11.577   7.873
 1380POPC   C4B22090  12.339  11.703   7.394
 1381POPC   NC322091  28.061  18.098   9.581
 1381POPC   PO422092  27.715  18.389  10.071
 1381POPC   GL122093  27.614  18.338   9.507
 1381POPC   GL222094  27.780  18.596   9.269
 1381POPC   C1A22095  27.523  18.218   8.995
 1381POPC   D2A22096  27.357  18.377   8.536
 1381POPC   C3A22097  27.479  18.314   8.038
 1381POPC   C4A22098  27.288  18.437   7.600
 1381POPC   C1B22099  27.816  18.588   8.803
 1381POPC   C2B22100  27.842  18.430   8.402
 1381POPC   C3B22101  27.962  18.537   8.000
 1381POPC   C4B22102  27.789  18.507   7.599
 1382POPC   NC322103  30.289  27.256   9.541
 1382POPC   PO422104  29.899  27.862   9.614
 1382POPC   GL122105  29.909  27.708   9.090
 1382POPC   GL222106  30.075  27.370   9.060
 1382POPC   C1A22107  29.755  27.529   8.686
 1382POPC   D2A22108  29.536  27.517   8.271
 1382POPC   C3A22109  29.737  27.419   7.894
 1382POPC   C4A22110  29.918  27.567   7.487
 1382POPC   C1B22111  30.329  27.406   8.697
 1382POPC   C2B22112  30.414  27.309   8.252
 1382POPC   C3B22113  30.241  27.477   7.889
 1382POPC   C4B22114  30.388  27.749   7.579
 1383POPC   NC322115  29.360  28.124   9.852
 1383POPC   PO422116  29.902  28.440   9.487
 1383POPC   GL122117  29.634  28.128   9.255
 1383POPC   GL222118  29.281  28.038   9.216
 1383POPC   C1A22119  29.620  28.018   8.820
 1383POPC   D2A22120  29.562  27.994   8.394
 1383POPC   C3A22121  29.538  28.303   8.072
 1383POPC   C4A22122  29.274  28.466   7.773
 1383POPC   C1B22123  29.115  28.045   8.763
 1383POPC   C2B22124  29.091  28.270   8.338
 1383POPC   C3B22125  28.846  28.226   7.945
 1383POPC   C4B22126  28.541  28.228   7.585
 1384POPC   NC322127  15.631  11.892   9.404
 1384POPC   PO422128  14.940  12.125   9.517
 1384POPC   GL122129  15.209  12.083   9.190
 1384POPC   GL222130  15.483  12.295   9.122
 1384POPC   C1A22131  15.124  12.031   8.790
 1384POPC   D2A22132  15.014  11.864   8.443
 1384POPC   C3A22133  15.187  11.887   8.024
 1384POPC   C4A22134  15.137  12.063   7.632
 1384POPC   C1B22135  15.620  12.006   8.786
 1384POPC   C2B22136  15.513  12.043   8.397
 1384POPC   C3B22137  15.608  12.324   8.092
 1384POPC   C4B22138  15.617  12.204   7.706
 1385POPC   NC322139  36.942  43.065   9.789
 1385POPC   PO422140  36.393  43.443   9.521
 1385POPC   GL122141  36.818  43.359   9.290
 1385POPC   GL222142  36.850  43.009   9.285
 1385POPC   C1A22143  37.013  43.335   8.855
 1385POPC   D2A22144  36.870  43.189   8.435
 1385POPC   C3A22145  37.109  43.310   8.089
 1385POPC   C4A22146  37.143  43.410   7.670
 1385POPC   C1B22147  36.783  42.894   8.861
 1385POPC   C2B22148  36.524  42.742   8.568
 1385POPC   C3B22149  36.542  42.798   8.113
 1385POPC   C4B22150  36.897  42.910   7.829
 1386POPC   NC322151  14.747   1.600   9.554
 1386POPC   PO422152  14.381   2.119   9.680
 1386POPC   GL122153  14.391   1.872   9.262
 1386POPC   GL222154  14.058   1.766   9.106
 1386POPC   C1A22155  14.450   1.923   8.809
 1386POPC   D2A22156  14.173   2.078   8.460
 1386POPC   C3A22157  14.413   2.127   8.048
 1386POPC   C4A22158  14.685   1.979   7.680
 1386POPC   C1B22159  14.082   1.592   8.692
 1386POPC   C2B22160  13.921   1.685   8.259
 1386POPC   C3B22161  14.075   1.806   7.844
 1386POPC   C4B22162  14.035   1.809   7.387
 1387POPC   NC322163  27.988   6.101   9.768
 1387POPC   PO422164  28.678   6.120   9.631
 1387POPC   GL122165  28.461   5.928   9.264
 1387POPC   GL222166  28.106   6.039   9.244
 1387POPC   C1A22167  28.414   5.834   8.806
 1387POPC   D2A22168  28.198   5.618   8.459
 1387POPC   C3A22169  28.284   5.617   8.003
 1387POPC   C4A22170  28.599   5.765   7.703
 1387POPC   C1B22171  28.111   6.284   8.845
 1387POPC   C2B22172  28.218   6.144   8.426
 1387POPC   C3B22173  28.129   6.134   8.013
 1387POPC   C4B22174  27.724   6.139   7.819
 1388POPC   NC322175  15.291  22.379   9.419
 1388POPC   PO422176  14.835  21.953   9.642
 1388POPC   GL122177  14.918  21.947   9.188
 1388POPC   GL222178  14.759  22.258   9.109
 1388POPC   C1A22179  15.113  22.109   8.764
 1388POPC   D2A22180  15.151  22.247   8.349
 1388POPC   C3A22181  15.481  22.189   8.085
 1388POPC   C4A22182  15.415  22.048   7.696
 1388POPC   C1B22183  14.917  22.573   8.783
 1388POPC   C2B22184  15.088  22.733   8.365
 1388POPC   C3B22185  14.881  22.535   8.017
 1388POPC   C4B22186  14.922  22.211   7.718
 1389POPC   NC322187  21.049  43.416   9.647
 1389POPC   PO422188  20.598  43.960   9.582
 1389POPC   GL122189  20.633  43.834   9.173
 1389POPC   GL222190  20.424  43.639   9.089
 1389POPC   C1A22191  20.655  43.941   8.743
 1389POPC   D2A22192  20.895  43.886   8.361
 1389POPC   C3A22193  20.787  44.052   7.957
 1389POPC   C4A22194  21.060  44.091   7.572
 1389POPC   C1B22195  20.245  43.618   8.729
 1389POPC   C2B22196  20.273  43.817   8.357
 1389POPC   C3B22197  20.410  43.695   7.981
 1389POPC   C4B22198  20.255  43.474   7.670
 1390POPC   NC322199  18.116   2.075   9.522
 1390POPC   PO422200  18.726   1.727   9.501
 1390POPC   GL122201  18.433   1.841   9.146
 1390POPC   GL222202  18.217   2.139   9.049
 1390POPC   C1A22203  18.189   1.675   8.814
 1390POPC   D2A22204  17.996   1.629   8.430
 1390POPC   C3A22205  18.213   1.731   8.049
 1390POPC   C4A22206  18.496   1.776   7.701
 1390POPC   C1B22207  18.259   2.184   8.644
 1390POPC   C2B22208  18.317   2.389   8.263
 1390POPC   C3B22209  18.161   2.248   7.882
 1390POPC   C4B22210  18.051   2.436   7.513
 1391POPC   NC322211  11.712  38.509   9.458
 1391POPC   PO422212  12.307  38.769   9.505
 1391POPC   GL122213  12.156  38.485   9.185
 1391POPC   GL222214  11.972  38.127   9.227
 1391POPC   C1A22215  12.177  38.590   8.781
 1391POPC   D2A22216  12.077  38.409   8.410
 1391POPC   C3A22217  12.289  38.550   8.074
 1391POPC   C4A22218  11.999  38.541   7.754
 1391POPC   C1B22219  12.236  38.084   8.850
 1391POPC   C2B22220  12.207  37.917   8.449
 1391POPC   C3B22221  12.123  38.039   8.012
 1391POPC   C4B22222  11.888  38.078   7.591
 1392POPC   NC322223  15.696  18.287   9.539
 1392POPC   PO422224  16.352  18.400   9.607
 1392POPC   GL122225  16.065  18.357   9.201
 1392POPC   GL222226  15.747  18.587   9.121
 1392POPC   C1A22227  15.962  18.166   8.784
 1392POPC   D2A22228  16.146  18.099   8.339
 1392POPC   C3A22229  16.089  18.455   8.047
 1392POPC   C4A22230  16.021  18.474   7.591
 1392POPC   C1B22231  15.702  18.604   8.665
 1392POPC   C2B22232  15.650  18.262   8.370
 1392POPC   C3B22233  15.629  18.258   7.939
 1392POPC   C4B22234  15.507  18.586   7.665
 1393POPC   NC322235   0.653   5.000   9.545
 1393POPC   PO422236  44.929   5.207   9.494
 1393POPC   GL122237   0.289   5.234   9.259
 1393POPC   GL222238   0.278   4.885   9.124
 1393POPC   C1A22239   0.568   5.267   8.892
 1393POPC   D2A22240   0.526   5.029   8.498
 1393POPC   C3A22241   0.533   5.181   8.064
 1393POPC   C4A22242   0.565   5.392   7.653
 1393POPC   C1B22243   0.698   4.770   8.924
 1393POPC   C2B22244   0.864   4.617   8.526
 1393POPC   C3B22245   0.755   4.722   8.109
 1393POPC   C4B22246   0.747   4.716   7.666
 1394POPC   NC322247  34.938  26.141   9.761
 1394POPC   PO422248  34.433  25.826   9.396
 1394POPC   GL122249  34.482  26.117   9.099
 1394POPC   GL222250  34.196  25.928   8.936
 1394POPC   C1A22251  34.768  26.219   8.762
 1394POPC   D2A22252  34.776  26.043   8.352
 1394POPC   C3A22253  34.542  25.887   7.987
 1394POPC   C4A22254  34.741  25.948   7.582
 1394POPC   C1B22255  34.272  26.250   8.605
 1394POPC   C2B22256  34.361  26.326   8.170
 1394POPC   C3B22257  34.455  26.336   7.723
 1394POPC   C4B22258  34.319  26.091   7.323
 1395POPC   NC322259  13.801  28.174   9.557
 1395POPC   PO422260  13.254  28.286   9.611
 1395POPC   GL122261  13.462  28.256   9.168
 1395POPC   GL222262  13.325  28.557   9.040
 1395POPC   C1A22263  13.723  28.133   8.754
 1395POPC   D2A22264  13.868  27.949   8.322
 1395POPC   C3A22265  13.537  27.968   7.975
 1395POPC   C4A22266  13.588  28.129   7.554
 1395POPC   C1B22267  13.536  28.586   8.631
 1395POPC   C2B22268  13.639  28.396   8.238
 1395POPC   C3B22269  13.659  28.614   7.853
 1395POPC   C4B22270  13.836  28.970   7.599
 1396POPC   NC322271  42.657  14.464   9.554
 1396POPC   PO422272  43.291  14.364   9.546
 1396POPC   GL122273  43.074  14.311   9.150
 1396POPC   GL222274  42.783  14.516   9.058
 1396POPC   C1A22275  43.154  14.407   8.708
 1396POPC   D2A22276  43.075  14.194   8.319
 1396POPC   C3A22277  43.213  14.279   7.889
 1396POPC   C4A22278  43.542  14.233   7.561
 1396POPC   C1B22279  42.721  14.139   8.767
 1396POPC   C2B22280  42.639  13.952   8.342
 1396POPC   C3B22281  42.681  14.213   7.955
 1396POPC   C4B22282  42.657  14.637   7.722
 1397POPC   NC322283   8.841   9.474   9.335
 1397POPC   PO422284   8.963  10.121   9.573
 1397POPC   GL122285   9.037   9.966   9.167
 1397POPC   GL222286   9.241   9.712   9.156
 1397POPC   C1A22287   8.881   9.876   8.756
 1397POPC   D2A22288   8.730   9.605   8.401
 1397POPC   C3A22289   8.884   9.733   8.020
 1397POPC   C4A22290   8.820  10.070   7.745
 1397POPC   C1B22291   9.396   9.773   8.794
 1397POPC   C2B22292   9.234   9.757   8.406
 1397POPC   C3B22293   9.393   9.739   8.013
 1397POPC   C4B22294   9.204   9.774   7.601
 1398POPC   NC322295  44.907   4.710   9.494
 1398POPC   PO422296  44.685   4.068   9.660
 1398POPC   GL122297  44.651   4.246   9.188
 1398POPC   GL222298  44.861   4.507   9.033
 1398POPC   C1A22299  44.555   4.149   8.769
 1398POPC   D2A22300  44.777   4.287   8.405
 1398POPC   C3A22301  44.624   4.198   7.989
 1398POPC   C4A22302  44.937   4.065   7.644
 1398POPC   C1B22303  44.593   4.670   8.708
 1398POPC   C2B22304  44.485   4.806   8.277
 1398POPC   C3B22305  44.604   4.711   7.828
 1398POPC   C4B22306  44.434   4.753   7.393
 1399POPC   NC322307  30.919   3.639   9.542
 1399POPC   PO422308  30.499   3.160   9.552
 1399POPC   GL122309  30.579   3.473   9.166
 1399POPC   GL222310  30.794   3.793   9.086
 1399POPC   C1A22311  30.654   3.428   8.694
 1399POPC   D2A22312  30.846   3.248   8.289
 1399POPC   C3A22313  30.716   3.344   7.870
 1399POPC   C4A22314  30.615   3.205   7.436
 1399POPC   C1B22315  31.023   3.765   8.712
 1399POPC   C2B22316  30.876   3.774   8.289
 1399POPC   C3B22317  30.767   3.897   7.887
 1399POPC   C4B22318  30.781   3.683   7.497
 1400POPC   NC322319  33.348  27.052   9.406
 1400POPC   PO422320  33.774  26.529   9.433
 1400POPC   GL122321  33.620  26.752   9.077
 1400POPC   GL222322  33.883  26.992   9.055
 1400POPC   C1A22323  33.652  26.838   8.611
 1400POPC   D2A22324  33.878  26.555   8.329
 1400POPC   C3A22325  33.767  26.519   7.878
 1400POPC   C4A22326  34.035  26.528   7.502
 1400POPC   C1B22327  34.008  27.267   8.753
 1400POPC   C2B22328  33.800  27.288   8.373
 1400POPC   C3B22329  33.759  27.015   8.053
 1400POPC   C4B22330  33.907  27.015   7.655
 1401POPC   NC322331   1.908  25.405   9.491
 1401POPC   PO422332   1.260  25.240   9.635
 1401POPC   GL122333   1.564  25.149   9.205
 1401POPC   GL222334   1.726  25.479   9.043
 1401POPC   C1A22335   1.798  25.065   8.767
 1401POPC   D2A22336   2.095  25.005   8.415
 1401POPC   C3A22337   1.974  24.960   7.966
 1401POPC   C4A22338   1.733  25.282   7.722
 1401POPC   C1B22339   2.142  25.442   8.868
 1401POPC   C2B22340   2.245  25.507   8.458
 1401POPC   C3B22341   2.082  25.476   8.069
 1401POPC   C4B22342   2.279  25.343   7.723
 1402POPC   NC322343  11.384   0.666   9.323
 1402POPC   PO422344  11.454  44.977   9.441
 1402POPC   GL122345  11.186   0.205   9.110
 1402POPC   GL222346  10.926   0.480   9.102
 1402POPC   C1A22347  11.286   0.358   8.686
 1402POPC   D2A22348  11.177   0.594   8.308
 1402POPC   C3A22349  11.413   0.547   7.920
 1402POPC   C4A22350  11.447   0.523   7.471
 1402POPC   C1B22351  10.970   0.800   8.754
 1402POPC   C2B22352  10.745   0.877   8.328
 1402POPC   C3B22353  10.936   0.816   7.884
 1402POPC   C4B22354  10.975   0.694   7.401
 1403POPC   NC322355  10.082  39.739   9.583
 1403POPC   PO422356   9.455  39.869   9.540
 1403POPC   GL122357   9.603  39.930   9.159
 1403POPC   GL222358   9.954  39.946   9.133
 1403POPC   C1A22359   9.616  40.050   8.742
 1403POPC   D2A22360   9.921  40.073   8.430
 1403POPC   C3A22361   9.755  40.020   8.032
 1403POPC   C4A22362   9.809  40.175   7.615
 1403POPC   C1B22363  10.032  39.588   8.852
 1403POPC   C2B22364   9.853  39.557   8.447
 1403POPC   C3B22365  10.026  39.581   8.034
 1403POPC   C4B22366   9.783  39.654   7.650
 1404POPC   NC322367   2.948  40.718   9.342
 1404POPC   PO422368   2.454  40.462   9.713
 1404POPC   GL122369   2.448  40.528   9.245
 1404POPC   GL222370   2.364  40.198   9.110
 1404POPC   C1A22371   2.537  40.813   8.844
 1404POPC   D2A22372   2.614  41.082   8.469
 1404POPC   C3A22373   2.621  40.884   8.081
 1404POPC   C4A22374   2.872  40.773   7.695
 1404POPC   C1B22375   2.669  40.314   8.811
 1404POPC   C2B22376   2.714  40.489   8.407
 1404POPC   C3B22377   2.499  40.401   8.014
 1404POPC   C4B22378   2.665  40.325   7.592
 1405POPC   NC322379  39.737  14.123   9.562
 1405POPC   PO422380  40.238  14.350   9.365
 1405POPC   GL122381  39.943  14.107   9.071
 1405POPC   GL222382  39.570  13.918   9.121
 1405POPC   C1A22383  40.107  14.130   8.621
 1405POPC   D2A22384  40.305  14.366   8.267
 1405POPC   C3A22385  40.388  14.263   7.820
 1405POPC   C4A22386  40.339  14.468   7.404
 1405POPC   C1B22387  39.579  14.184   8.741
 1405POPC   C2B22388  39.708  14.098   8.303
 1405POPC   C3B22389  39.892  14.326   7.939
 1405POPC   C4B22390  39.866  14.300   7.477
 1406POPC   NC322391   4.567  21.604   9.496
 1406POPC   PO422392   4.094  21.196   9.288
 1406POPC   GL122393   4.327  21.394   9.040
 1406POPC   GL222394   4.292  21.740   9.082
 1406POPC   C1A22395   4.160  21.328   8.635
 1406POPC   D2A22396   3.950  21.092   8.319
 1406POPC   C3A22397   4.147  21.211   7.940
 1406POPC   C4A22398   4.401  21.045   7.583
 1406POPC   C1B22399   4.523  21.891   8.736
 1406POPC   C2B22400   4.703  21.741   8.366
 1406POPC   C3B22401   4.453  21.646   8.010
 1406POPC   C4B22402   4.269  21.569   7.599
 1407POPC   NC322403  41.608   6.618   9.532
 1407POPC   PO422404  41.035   6.402   9.760
 1407POPC   GL122405  41.096   6.471   9.283
 1407POPC   GL222406  41.309   6.774   9.149
 1407POPC   C1A22407  41.201   6.396   8.833
 1407POPC   D2A22408  41.392   6.690   8.544
 1407POPC   C3A22409  41.312   6.677   8.135
 1407POPC   C4A22410  41.524   6.514   7.792
 1407POPC   C1B22411  41.612   7.008   8.866
 1407POPC   C2B22412  41.918   6.860   8.544
 1407POPC   C3B22413  41.832   6.766   8.112
 1407POPC   C4B22414  41.864   6.873   7.674
 1408POPC   NC322415  34.427  30.244   9.342
 1408POPC   PO422416  34.882  30.764   9.485
 1408POPC   GL122417  34.876  30.715   9.058
 1408POPC   GL222418  34.497  30.599   8.999
 1408POPC   C1A22419  34.753  30.929   8.694
 1408POPC   D2A22420  34.441  30.844   8.419
 1408POPC   C3A22421  34.624  30.753   8.004
 1408POPC   C4A22422  34.797  31.070   7.711
 1408POPC   C1B22423  34.288  30.248   8.736
 1408POPC   C2B22424  34.445  30.339   8.374
 1408POPC   C3B22425  34.394  30.250   8.029
 1408POPC   C4B22426  34.360  30.399   7.700
 1409POPC   NC322427  14.362  19.335   9.508
 1409POPC   PO422428  14.517  18.823   9.183
 1409POPC   GL122429  14.216  18.897   8.908
 1409POPC   GL222430  14.202  19.264   8.986
 1409POPC   C1A22431  14.340  18.712   8.514
 1409POPC   D2A22432  14.774  18.831   8.387
 1409POPC   C3A22433  14.704  19.055   8.013
 1409POPC   C4A22434  14.412  18.959   7.673
 1409POPC   C1B22435  14.390  19.216   8.550
 1409POPC   C2B22436  14.120  19.069   8.200
 1409POPC   C3B22437  14.019  19.426   7.983
 1409POPC   C4B22438  14.416  19.442   7.816
 1410POPC   NC322439   9.987   2.878   9.615
 1410POPC   PO422440  10.520   2.508   9.550
 1410POPC   GL122441  10.516   2.490   9.089
 1410POPC   GL222442  10.173   2.413   9.049
 1410POPC   C1A22443  10.761   2.690   8.691
 1410POPC   D2A22444  10.530   2.845   8.279
 1410POPC   C3A22445  10.491   2.971   7.819
 1410POPC   C4A22446  10.245   3.100   7.401
 1410POPC   C1B22447  10.322   2.465   8.622
 1410POPC   C2B22448  10.601   2.351   8.307
 1410POPC   C3B22449  10.535   2.405   7.877
 1410POPC   C4B22450  10.338   2.586   7.510
 1411POPC   NC322451  19.836  11.691   9.442
 1411POPC   PO422452  19.991  12.366   9.534
 1411POPC   GL122453  20.007  12.109   9.187
 1411POPC   GL222454  19.664  12.071   9.150
 1411POPC   C1A22455  20.026  12.101   8.744
 1411POPC   D2A22456  19.754  12.111   8.362
 1411POPC   C3A22457  19.960  12.136   7.937
 1411POPC   C4A22458  19.942  12.149   7.462
 1411POPC   C1B22459  19.643  12.441   8.871
 1411POPC   C2B22460  19.519  12.563   8.455
 1411POPC   C3B22461  19.599  12.497   8.034
 1411POPC   C4B22462  19.528  12.414   7.613
 1412POPC   NC322463   0.130  27.982   9.683
 1412POPC   PO422464   0.546  27.629   9.846
 1412POPC   GL122465   0.520  27.742   9.355
 1412POPC   GL222466   0.769  27.529   9.147
 1412POPC   C1A22467   0.496  27.867   8.875
 1412POPC   D2A22468   0.234  28.091   8.544
 1412POPC   C3A22469   0.264  27.882   8.142
 1412POPC   C4A22470   0.579  27.724   7.875
 1412POPC   C1B22471   0.729  27.401   8.695
 1412POPC   C2B22472   0.777  27.364   8.242
 1412POPC   C3B22473   0.504  27.199   7.907
 1412POPC   C4B22474   0.185  27.102   7.573
 1413POPC   NC322475  32.457  24.896   9.493
 1413POPC   PO422476  31.998  24.315   9.416
 1413POPC   GL122477  32.297  24.330   9.059
 1413POPC   GL222478  32.428  24.696   9.025
 1413POPC   C1A22479  32.450  24.410   8.616
 1413POPC   D2A22480  32.330  24.607   8.223
 1413POPC   C3A22481  32.021  24.386   7.981
 1413POPC   C4A22482  32.055  24.311   7.549
 1413POPC   C1B22483  32.025  24.706   8.807
 1413POPC   C2B22484  31.811  24.661   8.413
 1413POPC   C3B22485  31.880  24.896   8.045
 1413POPC   C4B22486  32.155  24.818   7.706
 1414POPC   NC322487   4.189   7.185   9.680
 1414POPC   PO422488   3.738   6.940   9.520
 1414POPC   GL122489   4.015   7.047   9.170
 1414POPC   GL222490   4.159   7.401   9.185
 1414POPC   C1A22491   4.068   7.200   8.723
 1414POPC   D2A22492   4.266   7.449   8.368
 1414POPC   C3A22493   4.196   7.312   7.940
 1414POPC   C4A22494   4.293   7.075   7.575
 1414POPC   C1B22495   4.129   7.725   8.818
 1414POPC   C2B22496   4.063   7.938   8.399
 1414POPC   C3B22497   4.203   7.814   7.979
 1414POPC   C4B22498   4.623   7.600   7.879
 1415POPC   NC322499  28.509  40.382   9.372
 1415POPC   PO422500  27.987  40.093   9.645
 1415POPC   GL122501  28.222  39.942   9.295
 1415POPC   GL222502  28.004  40.159   9.104
 1415POPC   C1A22503  28.445  39.914   8.879
 1415POPC   D2A22504  28.176  39.852   8.521
 1415POPC   C3A22505  28.211  40.068   8.126
 1415POPC   C4A22506  28.475  39.906   7.792
 1415POPC   C1B22507  28.217  40.363   8.766
 1415POPC   C2B22508  28.547  40.245   8.483
 1415POPC   C3B22509  28.697  40.279   8.063
 1415POPC   C4B22510  28.375  40.403   7.754
 1416POPC   NC322511  11.056  10.349   9.580
 1416POPC   PO422512  11.683  10.562   9.744
 1416POPC   GL122513  11.500  10.500   9.324
 1416POPC   GL222514  11.209  10.692   9.229
 1416POPC   C1A22515  11.358  10.306   8.913
 1416POPC   D2A22516  11.133  10.422   8.529
 1416POPC   C3A22517  11.367  10.411   8.145
 1416POPC   C4A22518  11.240  10.374   7.702
 1416POPC   C1B22519  11.318  10.836   8.796
 1416POPC   C2B22520  11.213  10.897   8.324
 1416POPC   C3B22521  11.318  10.838   7.852
 1416POPC   C4B22522  11.347  10.780   7.366
 1417POPC   NC322523  41.174   0.033   9.391
 1417POPC   PO422524  40.867   0.609   9.416
 1417POPC   GL122525  40.790   0.516   8.992
 1417POPC   GL222526  40.818   0.205   9.048
 1417POPC   C1A22527  40.656   0.530   8.548
 1417POPC   D2A22528  40.332   0.298   8.287
 1417POPC   C3A22529  40.505   0.213   7.864
 1417POPC   C4A22530  40.711   0.524   7.661
 1417POPC   C1B22531  40.852   0.072   8.632
 1417POPC   C2B22532  40.827   0.140   8.235
 1417POPC   C3B22533  40.927  44.915   7.865
 1417POPC   C4B22534  41.016   0.141   7.465
 1418POPC   NC322535   7.514  29.698   9.779
 1418POPC   PO422536   7.208  30.172   9.451
 1418POPC   GL122537   7.464  30.074   9.134
 1418POPC   GL222538   7.607  29.761   9.224
 1418POPC   C1A22539   7.301  30.066   8.709
 1418POPC   D2A22540   7.301  29.727   8.412
 1418POPC   C3A22541   7.257  29.890   8.000
 1418POPC   C4A22542   7.340  30.081   7.601
 1418POPC   C1B22543   7.681  29.726   8.793
 1418POPC   C2B22544   7.772  29.489   8.434
 1418POPC   C3B22545   7.621  29.546   8.020
 1418POPC   C4B22546   7.788  29.842   7.730
 1419POPC   NC322547  22.760  25.616   9.499
 1419POPC   PO422548  22.779  26.328   9.459
 1419POPC   GL122549  23.025  26.203   9.124
 1419POPC   GL222550  23.035  25.845   9.124
 1419POPC   C1A22551  22.977  26.185   8.687
 1419POPC   D2A22552  22.891  26.007   8.306
 1419POPC   C3A22553  23.016  26.174   7.917
 1419POPC   C4A22554  23.053  26.404   7.528
 1419POPC   C1B22555  22.788  25.717   8.779
 1419POPC   C2B22556  22.517  25.697   8.383
 1419POPC   C3B22557  22.686  25.576   7.994
 1419POPC   C4B22558  22.864  25.732   7.651
 1420POPC   NC322559  24.850  26.670   9.455
 1420POPC   PO422560  24.315  27.154   9.487
 1420POPC   GL122561  24.345  26.880   9.096
 1420POPC   GL222562  24.590  26.615   9.042
 1420POPC   C1A22563  24.341  26.829   8.631
 1420POPC   D2A22564  24.715  26.758   8.329
 1420POPC   C3A22565  24.684  26.828   7.889
 1420POPC   C4A22566  24.286  26.796   7.722
 1420POPC   C1B22567  24.530  26.355   8.706
 1420POPC   C2B22568  24.330  26.431   8.275
 1420POPC   C3B22569  24.473  26.322   7.868
 1420POPC   C4B22570  24.199  26.315   7.541
 1421POPC   NC322571  11.229  26.244   9.544
 1421POPC   PO422572  11.846  26.057   9.651
 1421POPC   GL122573  11.605  25.961   9.286
 1421POPC   GL222574  11.486  26.254   9.100
 1421POPC   C1A22575  11.553  25.822   8.852
 1421POPC   D2A22576  11.464  26.055   8.461
 1421POPC   C3A22577  11.502  25.780   8.123
 1421POPC   C4A22578  11.381  25.814   7.706
 1421POPC   C1B22579  11.123  26.091   8.834
 1421POPC   C2B22580  10.984  26.226   8.431
 1421POPC   C3B22581  11.061  26.061   8.015
 1421POPC   C4B22582  10.971  26.141   7.548
 1422POPC   NC322583  36.168  20.967   9.669
 1422POPC   PO422584  35.948  20.410   9.364
 1422POPC   GL122585  36.136  20.728   9.127
 1422POPC   GL222586  35.952  21.003   9.053
 1422POPC   C1A22587  36.337  20.749   8.719
 1422POPC   D2A22588  36.323  20.783   8.293
 1422POPC   C3A22589  36.426  20.440   8.041
 1422POPC   C4A22590  36.349  20.374   7.613
 1422POPC   C1B22591  35.820  20.670   8.735
 1422POPC   C2B22592  35.754  20.714   8.330
 1422POPC   C3B22593  35.948  20.632   7.978
 1422POPC   C4B22594  35.888  20.851   7.627
 1423POPC   NC322595   1.969  32.627   9.337
 1423POPC   PO422596   1.637  32.076   9.253
 1423POPC   GL122597   1.952  32.192   9.030
 1423POPC   GL222598   2.275  32.233   9.200
 1423POPC   C1A22599   1.951  32.424   8.668
 1423POPC   D2A22600   1.796  32.393   8.282
 1423POPC   C3A22601   1.882  32.223   7.929
 1423POPC   C4A22602   1.887  32.561   7.664
 1423POPC   C1B22603   2.379  32.135   8.779
 1423POPC   C2B22604   2.194  32.033   8.394
 1423POPC   C3B22605   2.373  32.128   8.019
 1423POPC   C4B22606   2.262  32.247   7.580
 1424POPC   NC322607  29.563  38.582   9.480
 1424POPC   PO422608  30.058  38.278   9.307
 1424POPC   GL122609  29.924  38.344   8.949
 1424POPC   GL222610  29.743  38.638   8.936
 1424POPC   C1A22611  29.992  38.253   8.557
 1424POPC   D2A22612  30.036  38.563   8.276
 1424POPC   C3A22613  29.875  38.427   7.942
 1424POPC   C4A22614  30.073  38.236   7.633
 1424POPC   C1B22615  29.688  38.891   8.541
 1424POPC   C2B22616  29.799  38.975   8.086
 1424POPC   C3B22617  29.925  38.857   7.671
 1424POPC   C4B22618  30.070  38.676   7.303
 1425POPC   NC322619   1.020  20.727   9.517
 1425POPC   PO422620   0.459  20.484   9.916
 1425POPC   GL122621   0.583  20.477   9.452
 1425POPC   GL222622   0.505  20.734   9.287
 1425POPC   C1A22623   0.790  20.528   8.936
 1425POPC   D2A22624   0.904  20.538   8.424
 1425POPC   C3A22625   0.618  20.622   7.999
 1425POPC   C4A22626   0.200  20.710   7.743
 1425POPC   C1B22627   0.398  20.856   8.870
 1425POPC   C2B22628   0.518  20.857   8.443
 1425POPC   C3B22629   0.381  21.086   8.057
 1425POPC   C4B22630   0.588  21.032   7.668
 1426POPC   NC322631  31.232  35.511   9.807
 1426POPC   PO422632  30.566  35.500   9.580
 1426POPC   GL122633  30.773  35.422   9.173
 1426POPC   GL222634  30.864  35.678   9.003
 1426POPC   C1A22635  30.845  35.170   8.816
 1426POPC   D2A22636  30.583  35.150   8.465
 1426POPC   C3A22637  30.755  35.184   8.081
 1426POPC   C4A22638  30.713  35.160   7.705
 1426POPC   C1B22639  30.636  35.616   8.663
 1426POPC   C2B22640  30.946  35.528   8.397
 1426POPC   C3B22641  31.034  35.623   7.997
 1426POPC   C4B22642  30.821  35.648   7.609
 1427POPC   NC322643  30.430  39.065   9.600
 1427POPC   PO422644  29.722  39.014   9.575
 1427POPC   GL122645  29.647  39.119   9.085
 1427POPC   GL222646  29.977  39.124   8.950
 1427POPC   C1A22647  29.645  39.393   8.678
 1427POPC   D2A22648  29.878  39.447   8.283
 1427POPC   C3A22649  29.664  39.546   7.935
 1427POPC   C4A22650  29.587  39.248   7.632
 1427POPC   C1B22651  30.164  39.466   8.684
 1427POPC   C2B22652  30.491  39.483   8.371
 1427POPC   C3B22653  30.478  39.402   7.947
 1427POPC   C4B22654  30.089  39.324   7.801
 1428POPC   NC322655  38.560  11.992   9.417
 1428POPC   PO422656  38.726  12.608   9.640
 1428POPC   GL122657  38.859  12.437   9.166
 1428POPC   GL222658  38.848  12.098   9.031
 1428POPC   C1A22659  38.688  12.386   8.684
 1428POPC   D2A22660  38.401  12.277   8.360
 1428POPC   C3A22661  38.650  12.193   8.033
 1428POPC   C4A22662  38.522  12.148   7.653
 1428POPC   C1B22663  38.459  11.947   8.781
 1428POPC   C2B22664  38.365  11.772   8.365
 1428POPC   C3B22665  38.265  11.841   7.964
 1428POPC   C4B22666  38.074  11.860   7.578
 1429POPC   NC322667   8.310  37.770   9.351
 1429POPC   PO422668   7.704  38.115   9.343
 1429POPC   GL122669   7.945  37.885   9.014
 1429POPC   GL222670   8.211  38.017   8.913
 1429POPC   C1A22671   8.242  37.558   8.745
 1429POPC   D2A22672   8.181  37.392   8.314
 1429POPC   C3A22673   8.082  37.655   7.934
 1429POPC   C4A22674   8.144  37.435   7.532
 1429POPC   C1B22675   8.249  38.259   8.559
 1429POPC   C2B22676   8.484  38.155   8.224
 1429POPC   C3B22677   8.459  38.032   7.844
 1429POPC   C4B22678   8.265  37.922   7.483
 1430POPC   NC322679  29.851  39.446   9.429
 1430POPC   PO422680  29.679  40.180   9.434
 1430POPC   GL122681  29.895  39.909   9.181
 1430POPC   GL222682  29.643  39.709   9.055
 1430POPC   C1A22683  30.132  39.970   8.803
 1430POPC   D2A22684  30.398  39.991   8.431
 1430POPC   C3A22685  30.186  39.800   8.075
 1430POPC   C4A22686  30.020  39.810   7.655
 1430POPC   C1B22687  29.507  39.974   8.754
 1430POPC   C2B22688  29.707  40.171   8.418
 1430POPC   C3B22689  29.810  40.150   7.993
 1430POPC   C4B22690  29.610  40.097   7.602
 1431POPC   NC322691  16.096  39.498   9.321
 1431POPC   PO422692  16.693  39.573   9.656
 1431POPC   GL122693  16.620  39.391   9.259
 1431POPC   GL222694  16.840  39.121   9.188
 1431POPC   C1A22695  16.499  39.262   8.840
 1431POPC   D2A22696  16.581  39.408   8.426
 1431POPC   C3A22697  16.655  39.044   8.157
 1431POPC   C4A22698  16.757  38.933   7.740
 1431POPC   C1B22699  16.988  39.377   8.851
 1431POPC   C2B22700  17.065  39.278   8.408
 1431POPC   C3B22701  16.964  39.409   7.965
 1431POPC   C4B22702  16.983  39.337   7.505
 1432POPC   NC322703  11.159  30.817   9.591
 1432POPC   PO422704  11.224  30.171   9.507
 1432POPC   GL122705  11.202  30.313   9.105
 1432POPC   GL222706  11.338  30.645   9.157
 1432POPC   C1A22707  11.333  30.452   8.697
 1432POPC   D2A22708  11.503  30.569   8.352
 1432POPC   C3A22709  11.371  30.414   7.960
 1432POPC   C4A22710  11.368  30.405   7.498
 1432POPC   C1B22711  11.436  30.963   8.860
 1432POPC   C2B22712  11.302  31.043   8.449
 1432POPC   C3B22713  11.494  30.987   8.059
 1432POPC   C4B22714  11.334  30.852   7.694
 1433POPC   NC322715  19.372   1.386   9.519
 1433POPC   PO422716  19.200   0.772   9.592
 1433POPC   GL122717  19.079   1.041   9.228
 1433POPC   GL222718  18.999   1.398   9.161
 1433POPC   C1A22719  18.945   1.002   8.799
 1433POPC   D2A22720  19.071   1.064   8.384
 1433POPC   C3A22721  19.017   1.166   7.972
 1433POPC   C4A22722  19.198   0.806   7.745
 1433POPC   C1B22723  19.077   1.476   8.697
 1433POPC   C2B22724  19.111   1.679   8.345
 1433POPC   C3B22725  18.920   1.693   7.988
 1433POPC   C4B22726  18.938   1.521   7.595
 1434POPC   NC322727  41.241   5.588   9.489
 1434POPC   PO422728  41.533   6.188   9.375
 1434POPC   GL122729  41.566   5.821   9.099
 1434POPC   GL222730  41.260   5.604   9.006
 1434POPC   C1A22731  41.422   5.949   8.676
 1434POPC   D2A22732  41.277   6.199   8.353
 1434POPC   C3A22733  41.518   5.999   8.077
 1434POPC   C4A22734  41.782   5.854   7.782
 1434POPC   C1B22735  41.057   5.584   8.645
 1434POPC   C2B22736  41.092   5.740   8.238
 1434POPC   C3B22737  41.179   5.728   7.817
 1434POPC   C4B22738  41.064   5.602   7.430
 1435POPC   NC322739  17.106  34.508   9.760
 1435POPC   PO422740  17.738  34.664   9.599
 1435POPC   GL122741  17.698  34.727   9.145
 1435POPC   GL222742  17.375  34.843   8.951
 1435POPC   C1A22743  17.697  34.496   8.768
 1435POPC   D2A22744  17.612  34.678   8.386
 1435POPC   C3A22745  17.689  34.489   8.023
 1435POPC   C4A22746  17.972  34.791   7.877
 1435POPC   C1B22747  17.189  34.603   8.641
 1435POPC   C2B22748  17.107  34.716   8.239
 1435POPC   C3B22749  17.402  34.920   7.974
 1435POPC   C4B22750  17.332  34.908   7.574
 1436POPC   NC322751  18.673  34.020   9.543
 1436POPC   PO422752  19.041  33.489   9.458
 1436POPC   GL122753  19.130  33.889   9.214
 1436POPC   GL222754  18.823  33.959   9.053
 1436POPC   C1A22755  19.327  33.939   8.770
 1436POPC   D2A22756  19.433  33.711   8.346
 1436POPC   C3A22757  19.441  33.922   7.939
 1436POPC   C4A22758  19.356  33.836   7.494
 1436POPC   C1B22759  18.829  33.900   8.598
 1436POPC   C2B22760  18.983  33.919   8.191
 1436POPC   C3B22761  18.921  33.788   7.773
 1436POPC   C4B22762  18.851  33.943   7.366
 1437POPC   NC322763  14.896  44.925   9.291
 1437POPC   PO422764  15.332   0.408   9.608
 1437POPC   GL122765  15.248   0.322   9.182
 1437POPC   GL222766  15.431  44.983   9.196
 1437POPC   C1A22767  15.172   0.507   8.742
 1437POPC   D2A22768  15.200   0.743   8.314
 1437POPC   C3A22769  15.176   0.460   7.973
 1437POPC   C4A22770  15.068   0.485   7.537
 1437POPC   C1B22771  15.597   0.193   8.807
 1437POPC   C2B22772  15.585   0.399   8.414
 1437POPC   C3B22773  15.650   0.258   8.009
 1437POPC   C4B22774  15.428   0.145   7.620
 1438POPC   NC322775  11.858  42.628   9.375
 1438POPC   PO422776  12.238  43.269   9.323
 1438POPC   GL122777  12.134  42.945   9.109
 1438POPC   GL222778  12.359  42.668   9.129
 1438POPC   C1A22779  11.847  42.931   8.774
 1438POPC   D2A22780  12.025  42.968   8.391
 1438POPC   C3A22781  11.836  43.122   8.051
 1438POPC   C4A22782  12.013  43.313   7.727
 1438POPC   C1B22783  12.466  42.887   8.732
 1438POPC   C2B22784  12.519  43.072   8.339
 1438POPC   C3B22785  12.338  42.959   7.952
 1438POPC   C4B22786  12.486  43.121   7.584
 1439POPC   NC322787  24.217  20.816   9.451
 1439POPC   PO422788  24.804  20.410   9.534
 1439POPC   GL122789  24.661  20.408   9.157
 1439POPC   GL222790  24.598  20.767   9.103
 1439POPC   C1A22791  24.676  20.233   8.763
 1439POPC   D2A22792  24.475  20.419   8.429
 1439POPC   C3A22793  24.616  20.421   8.017
 1439POPC   C4A22794  24.493  20.706   7.707
 1439POPC   C1B22795  24.855  20.735   8.724
 1439POPC   C2B22796  24.720  20.861   8.297
 1439POPC   C3B22797  24.955  20.855   7.925
 1439POPC   C4B22798  24.933  20.874   7.489
 1440POPC   NC322799  34.228  31.211   9.504
 1440POPC   PO422800  33.628  31.497   9.660
 1440POPC   GL122801  33.699  31.496   9.229
 1440POPC   GL222802  33.515  31.198   9.158
 1440POPC   C1A22803  33.931  31.539   8.833
 1440POPC   D2A22804  33.814  31.531   8.397
 1440POPC   C3A22805  34.082  31.606   8.033
 1440POPC   C4A22806  33.910  31.513   7.619
 1440POPC   C1B22807  33.718  31.063   8.788
 1440POPC   C2B22808  33.929  31.026   8.394
 1440POPC   C3B22809  33.785  31.188   8.004
 1440POPC   C4B22810  33.518  31.154   7.658
 1441POPC   NC322811  24.137  39.883   9.455
 1441POPC   PO422812  24.742  40.170   9.505
 1441POPC   GL122813  24.589  39.989   9.181
 1441POPC   GL222814  24.584  39.691   9.296
 1441POPC   C1A22815  24.398  40.010   8.791
 1441POPC   D2A22816  24.455  40.188   8.409
 1441POPC   C3A22817  24.309  39.961   8.088
 1441POPC   C4A22818  24.331  40.128   7.692
 1441POPC   C1B22819  24.572  39.546   8.867
 1441POPC   C2B22820  24.700  39.698   8.454
 1441POPC   C3B22821  24.614  39.554   8.038
 1441POPC   C4B22822  24.638  39.741   7.634
 1442POPC   NC322823  35.082  29.502   9.418
 1442POPC   PO422824  35.143  30.219   9.599
 1442POPC   GL122825  35.397  30.137   9.212
 1442POPC   GL222826  35.442  29.793   9.163
 1442POPC   C1A22827  35.301  30.044   8.746
 1442POPC   D2A22828  35.520  30.014   8.331
 1442POPC   C3A22829  35.286  29.990   7.934
 1442POPC   C4A22830  35.239  30.312   7.617
 1442POPC   C1B22831  35.448  29.509   8.837
 1442POPC   C2B22832  35.378  29.443   8.442
 1442POPC   C3B22833  35.610  29.549   8.096
 1442POPC   C4B22834  35.724  29.774   7.755
 1443POPC   NC322835  28.151   3.837   9.467
 1443POPC   PO422836  28.181   4.390   9.549
 1443POPC   GL122837  28.254   4.534   9.113
 1443POPC   GL222838  28.226   4.205   8.980
 1443POPC   C1A22839  28.082   4.625   8.676
 1443POPC   D2A22840  28.290   4.610   8.272
 1443POPC   C3A22841  28.119   4.589   7.856
 1443POPC   C4A22842  28.356   4.540   7.455
 1443POPC   C1B22843  28.548   4.388   8.699
 1443POPC   C2B22844  28.735   4.356   8.291
 1443POPC   C3B22845  28.538   4.293   7.884
 1443POPC   C4B22846  28.176   4.097   7.658
 1444POPC   NC322847  41.834   3.384   9.435
 1444POPC   PO422848  41.175   3.593   9.433
 1444POPC   GL122849  41.485   3.646   9.148
 1444POPC   GL222850  41.452   3.286   9.078
 1444POPC   C1A22851  41.611   3.877   8.789
 1444POPC   D2A22852  41.431   3.771   8.397
 1444POPC   C3A22853  41.540   3.540   8.005
 1444POPC   C4A22854  41.304   3.179   7.851
 1444POPC   C1B22855  41.792   3.372   8.782
 1444POPC   C2B22856  41.930   3.284   8.362
 1444POPC   C3B22857  41.944   3.190   7.940
 1444POPC   C4B22858  41.768   3.300   7.561
 1445POPC   NC322859   5.490  18.206   9.521
 1445POPC   PO422860   6.095  18.024   9.219
 1445POPC   GL122861   5.959  18.226   8.929
 1445POPC   GL222862   5.927  18.498   9.133
 1445POPC   C1A22863   5.779  18.178   8.530
 1445POPC   D2A22864   5.580  18.157   8.106
 1445POPC   C3A22865   5.887  18.262   7.819
 1445POPC   C4A22866   6.230  18.104   7.685
 1445POPC   C1B22867   5.549  18.529   8.867
 1445POPC   C2B22868   5.490  18.580   8.420
 1445POPC   C3B22869   5.651  18.670   8.015
 1445POPC   C4B22870   5.602  18.595   7.570
 1446POPC   NC322871  25.945  36.175   9.494
 1446POPC   PO422872  26.419  36.651   9.411
 1446POPC   GL122873  26.177  36.433   9.128
 1446POPC   GL222874  26.413  36.380   8.884
 1446POPC   C1A22875  25.786  36.414   8.861
 1446POPC   D2A22876  25.597  36.473   8.446
 1446POPC   C3A22877  25.806  36.255   8.142
 1446POPC   C4A22878  25.971  36.190   7.738
 1446POPC   C1B22879  26.120  36.044   8.825
 1446POPC   C2B22880  25.943  35.898   8.488
 1446POPC   C3B22881  25.999  35.791   8.081
 1446POPC   C4B22882  26.291  35.803   7.786
 1447POPC   NC322883  33.344   1.710   9.558
 1447POPC   PO422884  32.796   2.011   9.478
 1447POPC   GL122885  32.936   2.028   9.111
 1447POPC   GL222886  33.068   1.695   9.124
 1447POPC   C1A22887  33.290   2.177   8.907
 1447POPC   D2A22888  33.353   2.236   8.471
 1447POPC   C3A22889  33.249   1.929   8.163
 1447POPC   C4A22890  33.113   2.130   7.798
 1447POPC   C1B22891  33.102   1.754   8.695
 1447POPC   C2B22892  32.869   2.075   8.492
 1447POPC   C3B22893  32.691   2.067   8.085
 1447POPC   C4B22894  32.734   1.847   7.666
 1448POPC   NC322895  27.324  44.187   9.390
 1448POPC   PO422896  27.677  43.659   9.461
 1448POPC   GL122897  27.519  43.776   9.085
 1448POPC   GL222898  27.157  43.744   9.126
 1448POPC   C1A22899  27.728  43.863   8.682
 1448POPC   D2A22900  27.956  43.738   8.295
 1448POPC   C3A22901  27.746  43.853   7.903
 1448POPC   C4A22902  27.722  43.878   7.455
 1448POPC   C1B22903  27.206  43.933   8.707
 1448POPC   C2B22904  27.407  43.974   8.294
 1448POPC   C3B22905  27.237  43.865   7.907
 1448POPC   C4B22906  27.233  43.692   7.505
 1449POPC   NC322907  20.522  16.501  10.268
 1449POPC   PO422908  20.655  16.190   9.692
 1449POPC   GL122909  20.694  16.397   9.253
 1449POPC   GL222910  20.620  16.791   9.211
 1449POPC   C1A22911  20.699  16.509   8.786
 1449POPC   D2A22912  20.437  16.537   8.391
 1449POPC   C3A22913  20.705  16.586   8.033
 1449POPC   C4A22914  21.070  16.280   8.017
 1449POPC   C1B22915  20.466  16.965   8.775
 1449POPC   C2B22916  20.416  17.043   8.302
 1449POPC   C3B22917  20.362  16.958   7.841
 1449POPC   C4B22918  20.222  16.843   7.400
 1450POPC   NC322919   2.473  34.761   9.434
 1450POPC   PO422920   1.846  34.550   9.651
 1450POPC   GL122921   2.050  34.514   9.259
 1450POPC   GL222922   1.824  34.721   9.094
 1450POPC   C1A22923   2.158  34.407   8.833
 1450POPC   D2A22924   2.057  34.661   8.468
 1450POPC   C3A22925   2.117  34.512   8.049
 1450POPC   C4A22926   2.400  34.768   7.818
 1450POPC   C1B22927   1.651  34.506   8.745
 1450POPC   C2B22928   1.688  34.307   8.354
 1450POPC   C3B22929   1.585  34.488   7.962
 1450POPC   C4B22930   1.770  34.421   7.598
 1451POPC   NC322931  24.356   5.931   9.454
 1451POPC   PO422932  24.791   6.415   9.214
 1451POPC   GL122933  24.658   6.023   9.029
 1451POPC   GL222934  24.749   5.673   9.145
 1451POPC   C1A22935  24.415   5.974   8.653
 1451POPC   D2A22936  24.187   6.039   8.283
 1451POPC   C3A22937  24.355   6.000   7.872
 1451POPC   C4A22938  24.335   6.191   7.463
 1451POPC   C1B22939  24.837   5.671   8.676
 1451POPC   C2B22940  24.635   5.693   8.238
 1451POPC   C3B22941  24.641   5.543   7.789
 1451POPC   C4B22942  24.797   5.526   7.344
 1452POPC   NC322943  18.187  23.343   9.569
 1452POPC   PO422944  17.980  22.718   9.639
 1452POPC   GL122945  18.162  22.943   9.264
 1452POPC   GL222946  18.001  22.732   9.080
 1452POPC   C1A22947  18.347  23.031   8.826
 1452POPC   D2A22948  18.603  22.860   8.441
 1452POPC   C3A22949  18.481  22.947   7.994
 1452POPC   C4A22950  18.140  23.190   7.789
 1452POPC   C1B22951  18.117  22.613   8.669
 1452POPC   C2B22952  18.073  22.767   8.243
 1452POPC   C3B22953  18.257  22.491   7.914
 1452POPC   C4B22954  18.267  22.245   7.525
 1453POPC   NC322955  29.573   8.753   9.529
 1453POPC   PO422956  29.556   8.080   9.530
 1453POPC   GL122957  29.703   8.339   9.194
 1453POPC   GL222958  29.874   8.047   9.079
 1453POPC   C1A22959  29.827   8.417   8.759
 1453POPC   D2A22960  29.811   8.214   8.357
 1453POPC   C3A22961  29.605   8.330   8.004
 1453POPC   C4A22962  29.885   8.316   7.667
 1453POPC   C1B22963  29.982   7.868   8.699
 1453POPC   C2B22964  29.831   7.702   8.324
 1453POPC   C3B22965  29.907   7.861   7.939
 1453POPC   C4B22966  30.068   7.844   7.498
 1454POPC   NC322967  10.920  27.991   9.272
 1454POPC   PO422968  11.027  27.451   9.690
 1454POPC   GL122969  11.051  27.457   9.250
 1454POPC   GL222970  11.358  27.492   9.127
 1454POPC   C1A22971  10.970  27.397   8.799
 1454POPC   D2A22972  10.977  27.641   8.396
 1454POPC   C3A22973  11.129  27.479   7.987
 1454POPC   C4A22974  10.982  27.363   7.548
 1454POPC   C1B22975  11.433  27.627   8.727
 1454POPC   C2B22976  11.441  27.861   8.370
 1454POPC   C3B22977  11.528  27.890   7.941
 1454POPC   C4B22978  11.596  27.525   7.734
 1455POPC   NC322979   8.674  36.779   9.718
 1455POPC   PO422980   8.308  37.348   9.561
 1455POPC   GL122981   8.325  37.193   9.129
 1455POPC   GL222982   8.109  36.912   9.046
 1455POPC   C1A22983   8.467  37.105   8.680
 1455POPC   D2A22984   8.674  37.120   8.252
 1455POPC   C3A22985   8.545  36.859   7.899
 1455POPC   C4A22986   8.367  36.972   7.521
 1455POPC   C1B22987   7.922  37.101   8.668
 1455POPC   C2B22988   7.739  37.147   8.261
 1455POPC   C3B22989   8.046  37.045   7.956
 1455POPC   C4B22990   8.090  36.609   7.794
 1456POPC   NC322991  16.294  43.167   9.411
 1456POPC   PO422992  15.799  43.530   9.602
 1456POPC   GL122993  15.836  43.313   9.168
 1456POPC   GL222994  15.640  43.011   9.095
 1456POPC   C1A22995  15.970  43.136   8.736
 1456POPC   D2A22996  16.201  43.240   8.337
 1456POPC   C3A22997  16.190  43.045   7.940
 1456POPC   C4A22998  16.226  43.268   7.571
 1456POPC   C1B22999  15.624  42.767   8.748
 1456POPC   C2B23000  15.835  42.830   8.346
 1456POPC   C3B23001  15.660  42.990   7.968
 1456POPC   C4B23002  15.568  42.769   7.603
 1457POPC   NC323003  43.887  10.650   9.768
 1457POPC   PO423004  43.476  10.157   9.572
 1457POPC   GL123005  43.843  10.479   9.304
 1457POPC   GL223006  43.794  10.828   9.177
 1457POPC   C1A23007  43.847  10.400   8.843
 1457POPC   D2A23008  43.772  10.241   8.412
 1457POPC   C3A23009  43.877  10.475   8.069
 1457POPC   C4A23010  43.996  10.412   7.665
 1457POPC   C1B23011  44.140  10.824   8.818
 1457POPC   C2B23012  44.170  10.844   8.340
 1457POPC   C3B23013  43.813  10.968   8.011
 1457POPC   C4B23014  43.765  10.905   7.571
 1458POPC   NC323015   9.019  23.265   9.474
 1458POPC   PO423016   8.745  22.682   9.568
 1458POPC   GL123017   8.959  22.881   9.138
 1458POPC   GL223018   9.243  23.177   9.039
 1458POPC   C1A23019   8.816  22.863   8.710
 1458POPC   D2A23020   8.757  22.544   8.368
 1458POPC   C3A23021   8.733  22.752   7.951
 1458POPC   C4A23022   8.827  22.860   7.476
 1458POPC   C1B23023   9.275  23.077   8.625
 1458POPC   C2B23024   9.107  22.939   8.247
 1458POPC   C3B23025   9.194  22.975   7.804
 1458POPC   C4B23026   9.270  23.116   7.370
 1459POPC   NC323027  20.241  36.112   9.795
 1459POPC   PO423028  19.713  36.334   9.466
 1459POPC   GL123029  19.785  36.273   9.074
 1459POPC   GL223030  19.884  35.956   9.109
 1459POPC   C1A23031  19.851  36.182   8.650
 1459POPC   D2A23032  19.749  35.853   8.365
 1459POPC   C3A23033  19.701  36.089   8.023
 1459POPC   C4A23034  19.824  36.042   7.620
 1459POPC   C1B23035  19.538  35.802   8.856
 1459POPC   C2B23036  19.247  35.863   8.534
 1459POPC   C3B23037  19.299  35.720   8.116
 1459POPC   C4B23038  19.267  36.002   7.783
 1460POPC   NC323039  39.480   3.975   9.463
 1460POPC   PO423040  39.023   3.501   9.473
 1460POPC   GL123041  39.371   3.469   9.194
 1460POPC   GL223042  39.483   3.106   9.222
 1460POPC   C1A23043  39.326   3.578   8.755
 1460POPC   D2A23044  39.061   3.842   8.481
 1460POPC   C3A23045  39.107   3.694   8.084
 1460POPC   C4A23046  39.095   3.570   7.655
 1460POPC   C1B23047  39.144   3.083   8.900
 1460POPC   C2B23048  39.138   3.194   8.449
 1460POPC   C3B23049  39.203   3.202   7.991
 1460POPC   C4B23050  39.509   3.281   7.617
 1461POPC   NC323051  31.225  21.717   9.518
 1461POPC   PO423052  31.637  21.182   9.529
 1461POPC   GL123053  31.701  21.297   9.119
 1461POPC   GL223054  31.611  21.628   9.176
 1461POPC   C1A23055  31.582  21.193   8.686
 1461POPC   D2A23056  31.220  20.925   8.465
 1461POPC   C3A23057  31.195  20.925   7.997
 1461POPC   C4A23058  31.220  21.299   7.733
 1461POPC   C1B23059  31.816  21.664   8.771
 1461POPC   C2B23060  31.894  21.505   8.349
 1461POPC   C3B23061  31.680  21.491   7.957
 1461POPC   C4B23062  31.584  21.609   7.544
 1462POPC   NC323063  34.742  34.747   9.533
 1462POPC   PO423064  34.242  34.258   9.385
 1462POPC   GL123065  34.317  34.616   9.115
 1462POPC   GL223066  34.646  34.549   9.082
 1462POPC   C1A23067  34.390  34.732   8.678
 1462POPC   D2A23068  34.424  34.891   8.243
 1462POPC   C3A23069  34.530  34.524   7.969
 1462POPC   C4A23070  34.813  34.157   8.040
 1462POPC   C1B23071  34.897  34.833   8.849
 1462POPC   C2B23072  34.912  34.774   8.414
 1462POPC   C3B23073  34.890  34.913   7.999
 1462POPC   C4B23074  34.942  35.089   7.593
 1463POPC   NC323075   6.568  39.861   9.700
 1463POPC   PO423076   7.242  40.151   9.665
 1463POPC   GL123077   6.892  40.047   9.334
 1463POPC   GL223078   6.790  39.687   9.263
 1463POPC   C1A23079   6.757  40.085   8.890
 1463POPC   D2A23080   6.599  40.285   8.508
 1463POPC   C3A23081   6.758  40.104   8.131
 1463POPC   C4A23082   6.588  40.001   7.720
 1463POPC   C1B23083   6.535  39.609   8.873
 1463POPC   C2B23084   6.543  39.764   8.464
 1463POPC   C3B23085   6.510  39.626   8.049
 1463POPC   C4B23086   6.263  39.609   7.630
 1464POPC   NC323087  23.347  38.142   9.480
 1464POPC   PO423088  22.685  38.361   9.493
 1464POPC   GL123089  22.791  38.474   9.110
 1464POPC   GL223090  23.134  38.433   9.111
 1464POPC   C1A23091  22.730  38.203   8.712
 1464POPC   D2A23092  22.682  37.967   8.295
 1464POPC   C3A23093  22.772  38.193   7.890
 1464POPC   C4A23094  22.792  38.302   7.428
 1464POPC   C1B23095  23.025  38.648   8.710
 1464POPC   C2B23096  22.940  38.468   8.329
 1464POPC   C3B23097  23.130  38.545   7.971
 1464POPC   C4B23098  22.996  38.712   7.643
 1465POPC   NC323099  42.524  41.772   9.460
 1465POPC   PO423100  41.907  41.750   9.426
 1465POPC   GL123101  42.127  41.733   9.068
 1465POPC   GL223102  42.272  41.405   9.190
 1465POPC   C1A23103  42.510  41.657   8.807
 1465POPC   D2A23104  42.694  41.504   8.432
 1465POPC   C3A23105  42.497  41.815   8.177
 1465POPC   C4A23106  42.261  41.914   7.801
 1465POPC   C1B23107  42.111  41.317   8.778
 1465POPC   C2B23108  42.099  41.565   8.425
 1465POPC   C3B23109  42.186  41.426   8.025
 1465POPC   C4B23110  42.091  41.461   7.616
 1466POPC   NC323111  20.321   1.823   9.836
 1466POPC   PO423112  19.708   1.661   9.677
 1466POPC   GL123113  19.819   2.030   9.336
 1466POPC   GL223114  19.560   2.112   9.098
 1466POPC   C1A23115  20.004   2.185   8.902
 1466POPC   D2A23116  19.943   2.411   8.509
 1466POPC   C3A23117  19.784   2.242   8.110
 1466POPC   C4A23118  19.744   2.093   7.660
 1466POPC   C1B23119  19.611   2.000   8.618
 1466POPC   C2B23120  19.755   1.757   8.287
 1466POPC   C3B23121  19.861   1.639   7.844
 1466POPC   C4B23122  19.774   1.557   7.412
 1467POPC   NC323123  44.042  41.036   9.780
 1467POPC   PO423124  44.687  40.797   9.717
 1467POPC   GL123125  44.641  40.565   9.293
 1467POPC   GL223126  44.906  40.670   9.126
 1467POPC   C1A23127  44.550  40.659   8.792
 1467POPC   D2A23128  44.351  40.627   8.372
 1467POPC   C3A23129  44.393  40.952   8.068
 1467POPC   C4A23130  44.340  40.661   7.724
 1467POPC   C1B23131   0.031  40.858   8.725
 1467POPC   C2B23132  44.835  40.820   8.339
 1467POPC   C3B23133  44.831  40.745   7.915
 1467POPC   C4B23134  44.963  41.090   7.669
 1468POPC   NC323135   2.843  32.135   9.566
 1468POPC   PO423136   2.407  32.660   9.486
 1468POPC   GL123137   2.740  32.456   9.191
 1468POPC   GL223138   2.767  32.070   9.089
 1468POPC   C1A23139   2.820  32.456   8.765
 1468POPC   D2A23140   2.773  32.138   8.449
 1468POPC   C3A23141   2.837  32.325   8.111
 1468POPC   C4A23142   2.713  32.399   7.724
 1468POPC   C1B23143   2.765  31.753   8.779
 1468POPC   C2B23144   2.571  31.651   8.396
 1468POPC   C3B23145   2.729  31.778   8.016
 1468POPC   C4B23146   2.566  31.851   7.626
 1469POPC   NC323147   4.062  44.525   9.560
 1469POPC   PO423148   4.673  44.714   9.456
 1469POPC   GL123149   4.514  44.606   9.063
 1469POPC   GL223150   4.540  44.277   9.018
 1469POPC   C1A23151   4.407  44.808   8.658
 1469POPC   D2A23152   4.469  44.635   8.251
 1469POPC   C3A23153   4.409  44.868   7.934
 1469POPC   C4A23154   4.141  44.806   7.586
 1469POPC   C1B23155   4.074  44.457   8.856
 1469POPC   C2B23156   3.951  44.660   8.437
 1469POPC   C3B23157   4.005  44.524   8.010
 1469POPC   C4B23158   3.833  44.378   7.633
 1470POPC   NC323159  21.024   3.147   9.550
 1470POPC   PO423160  21.420   3.724   9.524
 1470POPC   GL123161  21.380   3.369   9.203
 1470POPC   GL223162  21.114   3.485   9.169
 1470POPC   C1A23163  21.444   3.205   8.759
 1470POPC   D2A23164  21.232   3.235   8.320
 1470POPC   C3A23165  21.422   3.434   7.956
 1470POPC   C4A23166  21.495   3.315   7.471
 1470POPC   C1B23167  21.009   3.455   8.747
 1470POPC   C2B23168  20.844   3.678   8.389
 1470POPC   C3B23169  20.895   3.504   7.969
 1470POPC   C4B23170  21.110   3.633   7.588
 1471POPC   NC323171   6.580   8.857   9.536
 1471POPC   PO423172   7.078   9.301   9.388
 1471POPC   GL123173   6.700   9.169   9.086
 1471POPC   GL223174   6.417   8.917   9.059
 1471POPC   C1A23175   6.526   9.274   8.660
 1471POPC   D2A23176   6.742   9.523   8.337
 1471POPC   C3A23177   6.663   9.393   7.926
 1471POPC   C4A23178   6.403   9.081   7.832
 1471POPC   C1B23179   6.673   8.798   8.692
 1471POPC   C2B23180   6.734   8.957   8.267
 1471POPC   C3B23181   6.764   8.724   7.870
 1471POPC   C4B23182   6.869   8.516   7.462
 1472POPC   NC323183  13.935  41.935   9.476
 1472POPC   PO423184  13.528  42.494   9.527
 1472POPC   GL123185  13.676  42.374   9.164
 1472POPC   GL223186  13.525  42.081   9.147
 1472POPC   C1A23187  13.625  42.522   8.754
 1472POPC   D2A23188  13.807  42.608   8.332
 1472POPC   C3A23189  13.827  42.323   7.936
 1472POPC   C4A23190  13.814  42.186   7.476
 1472POPC   C1B23191  13.830  41.998   8.835
 1472POPC   C2B23192  13.768  42.115   8.435
 1472POPC   C3B23193  13.497  42.015   8.127
 1472POPC   C4B23194  13.621  41.833   7.794
 1473POPC   NC323195  14.004   8.592   9.803
 1473POPC   PO423196  13.688   9.145   9.553
 1473POPC   GL123197  13.569   9.125   9.088
 1473POPC   GL223198  13.510   8.755   9.054
 1473POPC   C1A23199  13.446   9.320   8.691
 1473POPC   D2A23200  13.672   9.401   8.292
 1473POPC   C3A23201  13.739   9.251   7.856
 1473POPC   C4A23202  14.146   9.371   7.683
 1473POPC   C1B23203  13.358   8.821   8.645
 1473POPC   C2B23204  13.569   8.895   8.256
 1473POPC   C3B23205  13.623   8.713   7.863
 1473POPC   C4B23206  13.523   8.828   7.475
 1474POPC   NC323207   9.227  30.575   9.877
 1474POPC   PO423208   9.771  30.889   9.610
 1474POPC   GL123209   9.664  30.712   9.185
 1474POPC   GL223210   9.385  30.518   8.966
 1474POPC   C1A23211   9.826  30.656   8.767
 1474POPC   D2A23212   9.708  30.923   8.411
 1474POPC   C3A23213   9.775  30.883   7.978
 1474POPC   C4A23214  10.022  30.587   7.756
 1474POPC   C1B23215   9.532  30.223   8.643
 1474POPC   C2B23216   9.760  30.393   8.296
 1474POPC   C3B23217   9.580  30.411   7.915
 1474POPC   C4B23218   9.566  30.238   7.515
 1475POPC   NC323219  25.444  17.084   9.753
 1475POPC   PO423220  24.991  16.579   9.686
 1475POPC   GL123221  25.008  16.828   9.302
 1475POPC   GL223222  25.340  16.840   9.134
 1475POPC   C1A23223  24.812  16.830   8.882
 1475POPC   D2A23224  24.981  16.954   8.486
 1475POPC   C3A23225  24.922  16.786   8.075
 1475POPC   C4A23226  25.203  16.850   7.745
 1475POPC   C1B23227  25.519  16.557   8.778
 1475POPC   C2B23228  25.365  16.453   8.340
 1475POPC   C3B23229  25.545  16.530   7.925
 1475POPC   C4B23230  25.454  16.511   7.447
 1476POPC   NC323231   0.896  14.950   9.553
 1476POPC   PO423232   1.376  15.388   9.455
 1476POPC   GL123233   1.355  15.105   9.106
 1476POPC   GL223234   1.050  14.908   9.065
 1476POPC   C1A23235   1.452  15.264   8.703
 1476POPC   D2A23236   1.225  15.398   8.359
 1476POPC   C3A23237   1.363  15.297   7.957
 1476POPC   C4A23238   1.137  15.476   7.618
 1476POPC   C1B23239   0.959  14.914   8.636
 1476POPC   C2B23240   1.132  14.899   8.238
 1476POPC   C3B23241   0.989  14.967   7.832
 1476POPC   C4B23242   0.887  15.059   7.422
 1477POPC   NC323243   2.428   2.491   9.384
 1477POPC   PO423244   2.577   3.068   9.798
 1477POPC   GL123245   2.803   3.015   9.332
 1477POPC   GL223246   2.899   2.671   9.230
 1477POPC   C1A23247   2.828   3.033   8.862
 1477POPC   D2A23248   2.643   3.058   8.437
 1477POPC   C3A23249   2.857   2.993   8.045
 1477POPC   C4A23250   2.774   2.789   7.681
 1477POPC   C1B23251   2.832   2.525   8.799
 1477POPC   C2B23252   2.837   2.543   8.347
 1477POPC   C3B23253   2.531   2.521   8.033
 1477POPC   C4B23254   2.489   2.315   7.647
 1478POPC   NC323255  27.648  11.807   9.446
 1478POPC   PO423256  27.268  12.358   9.504
 1478POPC   GL123257  27.357  12.102   9.151
 1478POPC   GL223258  27.706  12.184   9.089
 1478POPC   C1A23259  27.380  12.146   8.704
 1478POPC   D2A23260  27.516  12.313   8.349
 1478POPC   C3A23261  27.282  12.170   8.059
 1478POPC   C4A23262  27.458  12.091   7.692
 1478POPC   C1B23263  27.901  12.148   8.672
 1478POPC   C2B23264  28.022  12.237   8.262
 1478POPC   C3B23265  27.888  12.345   7.842
 1478POPC   C4B23266  27.900  12.101   7.433
 1479POPC   NC323267  33.665  13.945  10.014
 1479POPC   PO423268  33.452  13.538   9.533
 1479POPC   GL123269  33.681  13.735   9.190
 1479POPC   GL223270  33.924  13.466   9.113
 1479POPC   C1A23271  33.784  13.774   8.742
 1479POPC   D2A23272  33.716  13.608   8.350
 1479POPC   C3A23273  33.896  13.758   7.975
 1479POPC   C4A23274  33.610  13.808   7.640
 1479POPC   C1B23275  33.697  13.250   8.728
 1479POPC   C2B23276  33.567  13.135   8.264
 1479POPC   C3B23277  33.714  13.292   7.827
 1479POPC   C4B23278  33.656  13.371   7.355
 1480POPC   NC323279   0.946  27.581   9.614
 1480POPC   PO423280   1.660  27.654   9.483
 1480POPC   GL123281   1.315  27.587   9.218
 1480POPC   GL223282   1.551  27.422   9.025
 1480POPC   C1A23283   1.136  27.694   8.806
 1480POPC   D2A23284   0.867  27.843   8.455
 1480POPC   C3A23285   1.049  27.760   8.041
 1480POPC   C4A23286   0.964  27.386   7.758
 1480POPC   C1B23287   1.584  27.501   8.608
 1480POPC   C2B23288   1.342  27.410   8.264
 1480POPC   C3B23289   1.457  27.429   7.836
 1480POPC   C4B23290   1.735  27.692   7.578
 1481POPC   NC323291   0.487  36.539   9.994
 1481POPC   PO423292   0.658  36.002   9.688
 1481POPC   GL123293   0.627  35.825   9.272
 1481POPC   GL223294   0.289  35.932   9.175
 1481POPC   C1A23295   0.677  35.889   8.822
 1481POPC   D2A23296   0.447  35.903   8.421
 1481POPC   C3A23297   0.500  36.188   8.087
 1481POPC   C4A23298   0.512  36.023   7.702
 1481POPC   C1B23299   0.069  36.024   8.762
 1481POPC   C2B23300  44.950  35.793   8.381
 1481POPC   C3B23301   0.111  35.856   7.970
 1481POPC   C4B23302   0.069  36.268   7.714
 1482POPC   NC323303  34.733  30.389   9.720
 1482POPC   PO423304  34.643  29.798   9.388
 1482POPC   GL123305  34.931  29.888   9.107
 1482POPC   GL223306  34.901  30.227   9.161
 1482POPC   C1A23307  34.858  29.746   8.703
 1482POPC   D2A23308  34.493  29.846   8.473
 1482POPC   C3A23309  34.623  29.812   8.064
 1482POPC   C4A23310  34.340  29.840   7.732
 1482POPC   C1B23311  34.802  30.258   8.750
 1482POPC   C2B23312  34.937  30.124   8.352
 1482POPC   C3B23313  34.886  30.307   7.983
 1482POPC   C4B23314  34.790  30.065   7.637
 1483POPC   NC323315   3.129  33.740   9.567
 1483POPC   PO423316   3.652  34.163   9.446
 1483POPC   GL123317   3.442  33.922   9.131
 1483POPC   GL223318   3.491  33.577   9.207
 1483POPC   C1A23319   3.610  33.785   8.721
 1483POPC   D2A23320   3.730  34.030   8.346
 1483POPC   C3A23321   3.517  33.975   7.964
 1483POPC   C4A23322   3.713  33.591   7.769
 1483POPC   C1B23323   3.233  33.463   8.848
 1483POPC   C2B23324   3.188  33.682   8.443
 1483POPC   C3B23325   3.272  33.540   8.029
 1483POPC   C4B23326   3.265  33.689   7.589
 1484POPC   NC323327   4.810  28.080   9.609
 1484POPC   PO423328   5.286  28.624   9.545
 1484POPC   GL123329   5.103  28.345   9.231
 1484POPC   GL223330   4.762  28.235   9.133
 1484POPC   C1A23331   5.035  28.561   8.845
 1484POPC   D2A23332   5.180  28.684   8.454
 1484POPC   C3A23333   4.996  28.460   8.113
 1484POPC   C4A23334   5.225  28.462   7.754
 1484POPC   C1B23335   4.965  28.044   8.769
 1484POPC   C2B23336   5.190  28.044   8.367
 1484POPC   C3B23337   5.105  27.983   7.912
 1484POPC   C4B23338   4.795  28.211   7.628
 1485POPC   NC323339  32.204  34.350   9.381
 1485POPC   PO423340  32.860  34.487   9.486
 1485POPC   GL123341  32.815  34.370   9.108
 1485POPC   GL223342  32.510  34.591   9.066
 1485POPC   C1A23343  33.170  34.384   8.812
 1485POPC   D2A23344  33.469  34.541   8.498
 1485POPC   C3A23345  33.299  34.500   8.060
 1485POPC   C4A23346  33.101  34.630   7.648
 1485POPC   C1B23347  32.739  34.637   8.695
 1485POPC   C2B23348  32.887  34.425   8.359
 1485POPC   C3B23349  32.781  34.718   8.040
 1485POPC   C4B23350  32.594  34.688   7.652
 1486POPC   NC323351  39.365  25.923   9.548
 1486POPC   PO423352  38.778  25.950   9.573
 1486POPC   GL123353  39.019  26.063   9.170
 1486POPC   GL223354  39.240  25.791   9.073
 1486POPC   C1A23355  39.099  26.148   8.700
 1486POPC   D2A23356  38.910  26.060   8.306
 1486POPC   C3A23357  38.717  26.350   8.009
 1486POPC   C4A23358  38.993  26.605   7.768
 1486POPC   C1B23359  39.576  25.964   8.825
 1486POPC   C2B23360  39.544  25.945   8.377
 1486POPC   C3B23361  39.269  25.804   8.043
 1486POPC   C4B23362  39.039  26.054   7.756
 1487POPC   NC323363  22.808  38.824   9.548
 1487POPC   PO423364  23.072  39.517   9.491
 1487POPC   GL123365  23.157  39.297   9.119
 1487POPC   GL223366  23.128  38.940   9.153
 1487POPC   C1A23367  23.125  39.224   8.697
 1487POPC   D2A23368  23.275  39.444   8.375
 1487POPC   C3A23369  23.075  39.229   8.060
 1487POPC   C4A23370  23.266  39.137   7.736
 1487POPC   C1B23371  22.729  39.024   8.933
 1487POPC   C2B23372  22.685  39.005   8.487
 1487POPC   C3B23373  22.706  38.858   8.075
 1487POPC   C4B23374  22.693  39.110   7.707
 1488POPC   NC323375   6.352  40.763   9.327
 1488POPC   PO423376   5.762  40.811   9.417
 1488POPC   GL123377   5.918  41.001   9.038
 1488POPC   GL223378   6.232  41.188   9.029
 1488POPC   C1A23379   5.879  40.867   8.607
 1488POPC   D2A23380   5.555  40.905   8.284
 1488POPC   C3A23381   5.716  40.846   7.890
 1488POPC   C4A23382   5.856  40.479   7.780
 1488POPC   C1B23383   6.068  41.340   8.667
 1488POPC   C2B23384   5.904  41.281   8.285
 1488POPC   C3B23385   6.114  41.170   7.955
 1488POPC   C4B23386   6.253  40.812   7.772
 1489POPC   NC323387  40.909   0.991   9.149
 1489POPC   PO423388  40.520   1.399   9.483
 1489POPC   GL123389  40.611   1.472   9.068
 1489POPC   GL223390  40.966   1.485   9.045
 1489POPC   C1A23391  40.699   1.340   8.632
 1489POPC   D2A23392  40.528   1.025   8.387
 1489POPC   C3A23393  40.839   0.820   8.145
 1489POPC   C4A23394  40.943   0.998   7.772
 1489POPC   C1B23395  41.220   1.415   8.720
 1489POPC   C2B23396  41.149   1.168   8.387
 1489POPC   C3B23397  41.278   1.352   8.045
 1489POPC   C4B23398  41.123   1.464   7.677
 1490POPC   NC323399  29.517  11.904   9.639
 1490POPC   PO423400  30.115  12.254   9.674
 1490POPC   GL123401  29.851  12.216   9.305
 1490POPC   GL223402  29.761  11.877   9.213
 1490POPC   C1A23403  30.015  12.182   8.884
 1490POPC   D2A23404  29.845  12.090   8.471
 1490POPC   C3A23405  29.994  12.305   8.115
 1490POPC   C4A23406  29.847  12.282   7.707
 1490POPC   C1B23407  29.780  11.724   8.829
 1490POPC   C2B23408  30.040  11.548   8.558
 1490POPC   C3B23409  30.009  11.689   8.160
 1490POPC   C4B23410  29.831  11.796   7.798
 1491POPC   NC323411  16.331   0.473   9.398
 1491POPC   PO423412  16.834   0.130   9.575
 1491POPC   GL123413  16.780   0.259   9.156
 1491POPC   GL223414  16.497   0.062   9.138
 1491POPC   C1A23415  16.697   0.551   8.788
 1491POPC   D2A23416  16.527   0.738   8.401
 1491POPC   C3A23417  16.667   0.554   7.963
 1491POPC   C4A23418  16.910   0.616   7.562
 1491POPC   C1B23419  16.551   0.062   8.727
 1491POPC   C2B23420  16.633   0.223   8.348
 1491POPC   C3B23421  16.706   0.018   7.970
 1491POPC   C4B23422  16.793   0.121   7.552
 1492POPC   NC323423  10.685  15.347   9.366
 1492POPC   PO423424  11.339  15.227   9.642
 1492POPC   GL123425  11.394  15.001   9.258
 1492POPC   GL223426  11.448  15.344   9.149
 1492POPC   C1A23427  11.237  15.015   8.840
 1492POPC   D2A23428  11.184  15.300   8.511
 1492POPC   C3A23429  11.332  15.126   8.138
 1492POPC   C4A23430  11.147  15.112   7.744
 1492POPC   C1B23431  11.555  15.516   8.790
 1492POPC   C2B23432  11.722  15.384   8.429
 1492POPC   C3B23433  11.808  15.272   8.048
 1492POPC   C4B23434  11.619  15.391   7.681
 1493POPC   NC323435  27.610  20.144   9.539
 1493POPC   PO423436  27.874  19.481   9.514
 1493POPC   GL123437  27.607  19.642   9.161
 1493POPC   GL223438  27.251  19.623   9.015
 1493POPC   C1A23439  27.704  19.845   8.780
 1493POPC   D2A23440  27.763  20.058   8.429
 1493POPC   C3A23441  27.544  20.009   8.060
 1493POPC   C4A23442  27.694  20.056   7.692
 1493POPC   C1B23443  27.472  19.381   8.698
 1493POPC   C2B23444  27.814  19.491   8.420
 1493POPC   C3B23445  27.933  19.635   8.037
 1493POPC   C4B23446  27.698  19.511   7.676
 1494POPC   NC323447   0.685   9.502   9.575
 1494POPC   PO423448   0.073   9.896   9.446
 1494POPC   GL123449   0.474   9.795   9.212
 1494POPC   GL223450   0.696  10.061   9.104
 1494POPC   C1A23451   0.764   9.589   8.898
 1494POPC   D2A23452   0.648   9.439   8.492
 1494POPC   C3A23453   0.631   9.627   8.097
 1494POPC   C4A23454   0.336   9.496   7.783
 1494POPC   C1B23455   0.449   9.953   8.732
 1494POPC   C2B23456   0.392  10.047   8.310
 1494POPC   C3B23457   0.337  10.009   7.872
 1494POPC   C4B23458   0.772  10.027   7.757
 1495POPC   NC323459  20.507  12.241   9.563
 1495POPC   PO423460  20.335  11.632   9.434
 1495POPC   GL123461  20.486  11.945   9.087
 1495POPC   GL223462  20.788  12.148   9.082
 1495POPC   C1A23463  20.595  11.926   8.622
 1495POPC   D2A23464  20.358  12.112   8.320
 1495POPC   C3A23465  20.553  12.306   8.026
 1495POPC   C4A23466  20.403  12.224   7.665
 1495POPC   C1B23467  21.054  11.817   8.787
 1495POPC   C2B23468  20.972  11.624   8.382
 1495POPC   C3B23469  20.725  11.814   8.032
 1495POPC   C4B23470  20.712  11.830   7.545
 1496POPC   NC323471  28.328  18.567  10.086
 1496POPC   PO423472  28.558  18.109   9.611
 1496POPC   GL123473  28.531  18.177   9.174
 1496POPC   GL223474  28.549  17.831   9.082
 1496POPC   C1A23475  28.296  18.344   8.794
 1496POPC   D2A23476  28.345  18.428   8.351
 1496POPC   C3A23477  28.561  18.144   8.072
 1496POPC   C4A23478  28.336  18.291   7.726
 1496POPC   C1B23479  28.117  17.907   8.972
 1496POPC   C2B23480  28.017  17.969   8.582
 1496POPC   C3B23481  28.073  18.019   8.174
 1496POPC   C4B23482  27.892  18.049   7.817
 1497POPC   NC323483   2.405   3.348   9.468
 1497POPC   PO423484   1.923   3.821   9.500
 1497POPC   GL123485   1.945   3.437   9.236
 1497POPC   GL223486   1.684   3.226   9.315
 1497POPC   C1A23487   2.077   3.368   8.803
 1497POPC   D2A23488   2.073   3.718   8.479
 1497POPC   C3A23489   2.117   3.695   8.023
 1497POPC   C4A23490   2.351   3.581   7.653
 1497POPC   C1B23491   1.541   3.250   8.889
 1497POPC   C2B23492   1.639   3.406   8.500
 1497POPC   C3B23493   1.627   3.496   8.093
 1497POPC   C4B23494   1.851   3.405   7.667
 1498POPC   NC323495  22.698  10.735   9.485
 1498POPC   PO423496  23.099  11.323   9.543
 1498POPC   GL123497  22.905  11.290   9.206
 1498POPC   GL223498  23.189  11.469   9.051
 1498POPC   C1A23499  22.864  11.158   8.805
 1498POPC   D2A23500  23.094  11.192   8.445
 1498POPC   C3A23501  22.866  11.421   8.144
 1498POPC   C4A23502  22.806  11.333   7.729
 1498POPC   C1B23503  23.362  11.570   8.644
 1498POPC   C2B23504  23.212  11.796   8.276
 1498POPC   C3B23505  23.133  11.731   7.825
 1498POPC   C4B23506  22.948  11.676   7.370
 1499POPC   NC323507  44.641  21.692   9.523
 1499POPC   PO423508  44.686  21.044   9.778
 1499POPC   GL123509  44.652  21.220   9.379
 1499POPC   GL223510  44.740  21.006   9.212
 1499POPC   C1A23511  44.524  21.374   8.926
 1499POPC   D2A23512  44.280  21.431   8.548
 1499POPC   C3A23513  44.437  21.466   8.126
 1499POPC   C4A23514  44.567  21.493   7.687
 1499POPC   C1B23515  44.937  21.057   8.850
 1499POPC   C2B23516   0.036  20.950   8.454
 1499POPC   C3B23517  44.895  20.869   8.095
 1499POPC   C4B23518  44.799  21.045   7.727
 1500POPC   NC323519  16.124  35.977   9.491
 1500POPC   PO423520  16.442  36.620   9.572
 1500POPC   GL123521  16.169  36.452   9.238
 1500POPC   GL223522  15.882  36.219   9.114
 1500POPC   C1A23523  16.179  36.449   8.793
 1500POPC   D2A23524  15.925  36.284   8.468
 1500POPC   C3A23525  15.999  36.400   8.040
 1500POPC   C4A23526  15.637  36.403   7.766
 1500POPC   C1B23527  15.782  35.891   8.806
 1500POPC   C2B23528  16.043  35.780   8.450
 1500POPC   C3B23529  15.808  35.925   8.064
 1500POPC   C4B23530  15.748  35.887   7.608
 1501POPC   NC323531   8.896  27.146   9.542
 1501POPC   PO423532   8.700  26.530   9.363
 1501POPC   GL123533   8.739  26.847   9.160
 1501POPC   GL223534   9.064  26.798   9.102
 1501POPC   C1A23535   8.677  26.912   8.764
 1501POPC   D2A23536   8.605  26.677   8.413
 1501POPC   C3A23537   8.679  26.968   8.089
 1501POPC   C4A23538   8.794  26.760   7.757
 1501POPC   C1B23539   9.234  26.830   8.748
 1501POPC   C2B23540   9.061  26.966   8.427
 1501POPC   C3B23541   9.200  26.950   8.047
 1501POPC   C4B23542   9.293  26.703   7.703
 1502POPC   NC323543   2.204  21.988   9.411
 1502POPC   PO423544   2.707  22.365   9.582
 1502POPC   GL123545   2.804  22.423   9.147
 1502POPC   GL223546   2.497  22.294   9.051
 1502POPC   C1A23547   2.888  22.226   8.725
 1502POPC   D2A23548   2.677  22.082   8.345
 1502POPC   C3A23549   2.954  21.944   7.993
 1502POPC   C4A23550   2.808  21.927   7.584
 1502POPC   C1B23551   2.434  22.499   8.654
 1502POPC   C2B23552   2.493  22.560   8.220
 1502POPC   C3B23553   2.501  22.259   7.879
 1502POPC   C4B23554   2.326  22.316   7.468
 1503POPC   NC323555  10.977  41.004   9.289
 1503POPC   PO423556  11.342  40.450   9.523
 1503POPC   GL123557  11.354  40.705   9.153
 1503POPC   GL223558  11.508  41.045   9.134
 1503POPC   C1A23559  11.206  40.782   8.724
 1503POPC   D2A23560  11.303  40.522   8.398
 1503POPC   C3A23561  11.246  40.636   8.020
 1503POPC   C4A23562  11.275  40.728   7.612
 1503POPC   C1B23563  11.558  41.172   8.715
 1503POPC   C2B23564  11.391  41.092   8.296
 1503POPC   C3B23565  11.641  40.925   7.967
 1503POPC   C4B23566  11.763  40.905   7.583
 1504POPC   NC323567   2.286  12.836   9.849
 1504POPC   PO423568   1.768  13.082   9.403
 1504POPC   GL123569   1.856  13.078   9.036
 1504POPC   GL223570   1.952  12.738   9.073
 1504POPC   C1A23571   1.960  13.139   8.634
 1504POPC   D2A23572   2.045  12.850   8.317
 1504POPC   C3A23573   2.331  12.951   8.022
 1504POPC   C4A23574   2.185  12.979   7.605
 1504POPC   C1B23575   1.977  12.491   8.698
 1504POPC   C2B23576   1.720  12.459   8.319
 1504POPC   C3B23577   1.946  12.491   7.903
 1504POPC   C4B23578   1.942  12.555   7.449
 1505POPC   NC323579  31.940  43.243   9.435
 1505POPC   PO423580  32.475  42.917   9.417
 1505POPC   GL123581  32.271  43.055   9.059
 1505POPC   GL223582  32.270  43.420   9.065
 1505POPC   C1A23583  32.402  43.150   8.645
 1505POPC   D2A23584  32.577  43.296   8.270
 1505POPC   C3A23585  32.407  42.981   8.010
 1505POPC   C4A23586  32.031  42.817   7.836
 1505POPC   C1B23587  32.007  43.476   8.723
 1505POPC   C2B23588  32.114  43.523   8.297
 1505POPC   C3B23589  32.141  43.417   7.866
 1505POPC   C4B23590  32.159  43.422   7.404
 1506POPC   NC323591  24.058  42.847   9.377
 1506POPC   PO423592  23.440  43.093   9.536
 1506POPC   GL123593  23.640  43.145   9.168
 1506POPC   GL223594  23.389  43.393   9.087
 1506POPC   C1A23595  23.858  43.146   8.777
 1506POPC   D2A23596  23.722  43.082   8.388
 1506POPC   C3A23597  23.796  43.253   7.987
 1506POPC   C4A23598  23.802  42.819   7.860
 1506POPC   C1B23599  23.348  43.061   8.764
 1506POPC   C2B23600  23.234  43.107   8.320
 1506POPC   C3B23601  23.304  43.238   7.912
 1506POPC   C4B23602  23.519  43.103   7.542
 1507POPC   NC323603  44.167  40.377   9.455
 1507POPC   PO423604  43.639  39.876   9.583
 1507POPC   GL123605  43.807  40.069   9.246
 1507POPC   GL223606  43.694  40.407   9.244
 1507POPC   C1A23607  43.994  40.083   8.853
 1507POPC   D2A23608  43.840  39.933   8.481
 1507POPC   C3A23609  44.078  39.839   8.107
 1507POPC   C4A23610  43.869  39.712   7.721
 1507POPC   C1B23611  43.600  40.431   8.846
 1507POPC   C2B23612  43.877  40.480   8.520
 1507POPC   C3B23613  43.823  40.298   8.132
 1507POPC   C4B23614  43.996  40.211   7.776
 1508POPC   NC323615  15.765  44.619   9.466
 1508POPC   PO423616  16.399  44.330   9.616
 1508POPC   GL123617  16.160  44.379   9.193
 1508POPC   GL223618  16.144  44.711   9.163
 1508POPC   C1A23619  15.878  44.475   8.780
 1508POPC   D2A23620  15.963  44.473   8.338
 1508POPC   C3A23621  15.648  44.443   8.006
 1508POPC   C4A23622  15.649  44.271   7.596
 1508POPC   C1B23623  16.057  44.949   8.797
 1508POPC   C2B23624  16.002   0.084   8.388
 1508POPC   C3B23625  15.966  44.865   7.993
 1508POPC   C4B23626  15.760  44.772   7.619
 1509POPC   NC323627   2.298  43.542   9.467
 1509POPC   PO423628   1.974  44.193   9.502
 1509POPC   GL123629   2.093  44.198   9.117
 1509POPC   GL223630   2.129  43.855   9.085
 1509POPC   C1A23631   1.943  44.158   8.730
 1509POPC   D2A23632   2.003  43.889   8.449
 1509POPC   C3A23633   2.034  44.117   8.127
 1509POPC   C4A23634   1.911  44.010   7.735
 1509POPC   C1B23635   2.265  43.534   8.789
 1509POPC   C2B23636   2.179  43.396   8.401
 1509POPC   C3B23637   2.034  43.569   8.026
 1509POPC   C4B23638   2.147  43.573   7.613
 1510POPC   NC323639  15.372  10.966   9.419
 1510POPC   PO423640  14.952  10.405   9.571
 1510POPC   GL123641  14.967  10.559   9.140
 1510POPC   GL223642  15.260  10.754   8.987
 1510POPC   C1A23643  15.056  10.378   8.732
 1510POPC   D2A23644  15.313  10.572   8.451
 1510POPC   C3A23645  15.215  10.355   8.133
 1510POPC   C4A23646  15.285  10.372   7.761
 1510POPC   C1B23647  15.294  11.047   8.646
 1510POPC   C2B23648  14.974  10.977   8.315
 1510POPC   C3B23649  14.974  10.785   7.922
 1510POPC   C4B23650  15.384  10.874   7.799
 1511POPC   NC323651  32.623  17.143   9.527
 1511POPC   PO423652  33.157  17.598   9.575
 1511POPC   GL123653  32.854  17.527   9.251
 1511POPC   GL223654  32.976  17.176   9.167
 1511POPC   C1A23655  32.856  17.532   8.805
 1511POPC   D2A23656  33.225  17.674   8.553
 1511POPC   C3A23657  33.175  17.645   8.118
 1511POPC   C4A23658  32.951  17.368   7.863
 1511POPC   C1B23659  33.322  17.322   8.921
 1511POPC   C2B23660  33.545  17.241   8.519
 1511POPC   C3B23661  33.480  17.221   8.068
 1511POPC   C4B23662  33.336  17.116   7.640
 1512POPC   NC323663  10.229  28.272   9.388
 1512POPC   PO423664  10.920  28.421   9.469
 1512POPC   GL123665  10.756  28.481   9.064
 1512POPC   GL223666  10.535  28.179   8.975
 1512POPC   C1A23667  10.741  28.481   8.619
 1512POPC   D2A23668  10.612  28.138   8.367
 1512POPC   C3A23669  10.723  28.382   8.014
 1512POPC   C4A23670  10.612  28.528   7.639
 1512POPC   C1B23671  10.235  28.444   8.714
 1512POPC   C2B23672  10.214  28.439   8.257
 1512POPC   C3B23673  10.236  28.248   7.870
 1512POPC   C4B23674  10.184  28.323   7.433
 1513POPC   NC323675  30.842  20.950   9.375
 1513POPC   PO423676  30.761  21.663   9.494
 1513POPC   GL123677  30.811  21.552   9.101
 1513POPC   GL223678  31.122  21.691   9.026
 1513POPC   C1A23679  30.607  21.390   8.724
 1513POPC   D2A23680  30.696  21.033   8.466
 1513POPC   C3A23681  30.725  21.135   8.047
 1513POPC   C4A23682  30.519  21.497   7.876
 1513POPC   C1B23683  31.128  21.395   8.708
 1513POPC   C2B23684  31.275  21.402   8.289
 1513POPC   C3B23685  30.974  21.603   8.070
 1513POPC   C4B23686  30.932  21.769   7.666
 1514POPC   NC323687  40.965  40.094   9.769
 1514POPC   PO423688  40.570  39.767   9.481
 1514POPC   GL123689  40.738  39.920   9.088
 1514POPC   GL223690  41.033  39.917   9.237
 1514POPC   C1A23691  40.757  40.261   8.772
 1514POPC   D2A23692  40.525  40.442   8.450
 1514POPC   C3A23693  40.601  40.254   8.091
 1514POPC   C4A23694  40.939  40.294   7.843
 1514POPC   C1B23695  41.137  39.922   8.764
 1514POPC   C2B23696  41.004  40.024   8.306
 1514POPC   C3B23697  40.801  39.810   7.898
 1514POPC   C4B23698  41.007  39.546   7.564
 1515POPC   NC323699  32.374  29.639   9.318
 1515POPC   PO423700  32.268  30.308   9.478
 1515POPC   GL123701  32.371  30.131   9.113
 1515POPC   GL223702  32.049  29.968   9.076
 1515POPC   C1A23703  32.365  29.954   8.682
 1515POPC   D2A23704  32.158  30.146   8.349
 1515POPC   C3A23705  32.331  30.037   7.952
 1515POPC   C4A23706  32.651  29.788   7.733
 1515POPC   C1B23707  31.765  30.086   8.746
 1515POPC   C2B23708  31.702  29.909   8.336
 1515POPC   C3B23709  31.813  30.031   7.940
 1515POPC   C4B23710  31.783  29.927   7.518
 1516POPC   NC323711   1.824  18.905   9.552
 1516POPC   PO423712   2.397  19.041   9.410
 1516POPC   GL123713   2.070  19.163   9.116
 1516POPC   GL223714   1.780  18.968   9.066
 1516POPC   C1A23715   2.023  19.143   8.675
 1516POPC   D2A23716   2.297  19.005   8.401
 1516POPC   C3A23717   2.116  19.119   8.043
 1516POPC   C4A23718   2.085  18.927   7.660
 1516POPC   C1B23719   1.707  18.682   8.734
 1516POPC   C2B23720   1.794  18.814   8.318
 1516POPC   C3B23721   1.657  18.798   7.878
 1516POPC   C4B23722   1.669  18.762   7.383
 1517POPC   NC323723  17.644  35.953   9.711
 1517POPC   PO423724  17.325  36.540   9.565
 1517POPC   GL123725  17.376  36.249   9.226
 1517POPC   GL223726  17.730  36.107   9.189
 1517POPC   C1A23727  17.427  36.347   8.800
 1517POPC   D2A23728  17.226  36.302   8.425
 1517POPC   C3A23729  17.460  36.298   8.057
 1517POPC   C4A23730  17.240  36.258   7.688
 1517POPC   C1B23731  17.736  35.947   8.746
 1517POPC   C2B23732  17.538  35.874   8.334
 1517POPC   C3B23733  17.663  35.857   7.884
 1517POPC   C4B23734  17.734  36.161   7.486
 1518POPC   NC323735  38.697   9.261   9.671
 1518POPC   PO423736  38.242   9.729   9.416
 1518POPC   GL123737  38.557   9.544   9.146
 1518POPC   GL223738  38.601   9.846   8.934
 1518POPC   C1A23739  38.567   9.333   8.739
 1518POPC   D2A23740  38.650   9.627   8.442
 1518POPC   C3A23741  38.500   9.798   8.070
 1518POPC   C4A23742  38.794  10.024   7.854
 1518POPC   C1B23743  38.217   9.718   8.715
 1518POPC   C2B23744  38.076   9.532   8.318
 1518POPC   C3B23745  38.082   9.628   7.858
 1518POPC   C4B23746  38.136  10.058   7.721
 1519POPC   NC323747  24.399  24.267   9.540
 1519POPC   PO423748  24.729  24.796   9.492
 1519POPC   GL123749  24.797  24.498   9.180
 1519POPC   GL223750  24.460  24.502   9.086
 1519POPC   C1A23751  24.759  24.189   8.836
 1519POPC   D2A23752  24.480  24.200   8.464
 1519POPC   C3A23753  24.627  24.214   8.047
 1519POPC   C4A23754  24.686  24.273   7.629
 1519POPC   C1B23755  24.581  24.659   8.685
 1519POPC   C2B23756  24.731  24.816   8.289
 1519POPC   C3B23757  24.636  24.730   7.881
 1519POPC   C4B23758  24.268  24.498   7.795
 1520POPC   NC323759  38.451   2.225   9.325
 1520POPC   PO423760  38.579   2.893   9.521
 1520POPC   GL123761  38.643   2.899   9.088
 1520POPC   GL223762  38.536   2.599   8.985
 1520POPC   C1A23763  38.657   3.030   8.677
 1520POPC   D2A23764  38.396   3.001   8.342
 1520POPC   C3A23765  38.584   2.765   8.077
 1520POPC   C4A23766  38.462   2.765   7.678
 1520POPC   C1B23767  38.464   2.537   8.558
 1520POPC   C2B23768  38.349   2.196   8.260
 1520POPC   C3B23769  38.512   2.298   7.870
 1520POPC   C4B23770  38.787   2.347   7.512
 1521POPC   NC323771  12.291   8.890   9.587
 1521POPC   PO423772  11.758   9.231   9.446
 1521POPC   GL123773  12.117   9.126   9.156
 1521POPC   GL223774  12.124   8.762   9.128
 1521POPC   C1A23775  12.049   9.067   8.705
 1521POPC   D2A23776  11.662   9.060   8.451
 1521POPC   C3A23777  11.735   9.263   8.074
 1521POPC   C4A23778  12.202   9.344   7.964
 1521POPC   C1B23779  11.878   8.580   8.813
 1521POPC   C2B23780  11.954   8.635   8.383
 1521POPC   C3B23781  12.024   8.853   8.036
 1521POPC   C4B23782  12.345   8.892   7.777
 1522POPC   NC323783  35.516  12.530   9.709
 1522POPC   PO423784  35.328  13.081   9.642
 1522POPC   GL123785  35.316  13.233   9.231
 1522POPC   GL223786  35.002  13.157   9.159
 1522POPC   C1A23787  35.496  13.242   8.820
 1522POPC   D2A23788  35.545  12.900   8.503
 1522POPC   C3A23789  35.427  12.951   8.056
 1522POPC   C4A23790  35.191  12.982   7.660
 1522POPC   C1B23791  35.066  12.961   8.725
 1522POPC   C2B23792  34.987  12.865   8.269
 1522POPC   C3B23793  35.119  12.555   7.924
 1522POPC   C4B23794  35.236  12.472   7.469
 1523POPC   NC323795  23.694   5.431   9.503
 1523POPC   PO423796  24.198   5.612   9.153
 1523POPC   GL123797  23.841   5.566   8.914
 1523POPC   GL223798  23.637   5.292   9.017
 1523POPC   C1A23799  23.711   5.452   8.500
 1523POPC   D2A23800  23.683   5.079   8.251
 1523POPC   C3A23801  23.872   5.097   7.859
 1523POPC   C4A23802  23.931   4.903   7.465
 1523POPC   C1B23803  23.337   5.155   8.712
 1523POPC   C2B23804  23.228   5.265   8.320
 1523POPC   C3B23805  23.246   5.022   7.943
 1523POPC   C4B23806  23.468   5.130   7.560
 1524POPC   NC323807  37.344  29.043   9.435
 1524POPC   PO423808  37.833  29.264   9.918
 1524POPC   GL123809  37.787  29.258   9.351
 1524POPC   GL223810  37.745  28.913   9.168
 1524POPC   C1A23811  37.752  29.290   8.833
 1524POPC   D2A23812  38.035  29.224   8.428
 1524POPC   C3A23813  37.807  29.172   8.028
 1524POPC   C4A23814  37.380  29.268   7.861
 1524POPC   C1B23815  37.477  28.857   8.818
 1524POPC   C2B23816  37.423  29.062   8.411
 1524POPC   C3B23817  37.445  28.785   8.076
 1524POPC   C4B23818  37.361  28.738   7.678
 1525POPC   NC323819  14.698  12.518   9.360
 1525POPC   PO423820  14.295  13.016   9.501
 1525POPC   GL123821  14.339  12.815   9.120
 1525POPC   GL223822  14.040  12.606   9.023
 1525POPC   C1A23823  14.635  12.936   8.786
 1525POPC   D2A23824  14.666  12.773   8.364
 1525POPC   C3A23825  14.485  13.021   8.006
 1525POPC   C4A23826  14.504  13.180   7.561
 1525POPC   C1B23827  14.270  12.595   8.662
 1525POPC   C2B23828  14.253  12.473   8.241
 1525POPC   C3B23829  14.268  12.586   7.820
 1525POPC   C4B23830  13.988  12.691   7.500
 1526POPC   NC323831  32.808  22.751   9.366
 1526POPC   PO423832  32.835  23.372   9.293
 1526POPC   GL123833  33.177  23.124   9.126
 1526POPC   GL223834  33.336  22.826   9.256
 1526POPC   C1A23835  33.098  22.906   8.731
 1526POPC   D2A23836  32.919  22.680   8.381
 1526POPC   C3A23837  33.090  22.883   8.003
 1526POPC   C4A23838  32.834  23.168   7.775
 1526POPC   C1B23839  33.526  22.690   8.861
 1526POPC   C2B23840  33.421  22.526   8.415
 1526POPC   C3B23841  33.175  22.380   8.058
 1526POPC   C4B23842  33.226  22.529   7.636
 1527POPC   NC323843  14.746  40.096   9.547
 1527POPC   PO423844  14.139  40.388   9.406
 1527POPC   GL123845  14.406  40.094   9.162
 1527POPC   GL223846  14.162  39.978   8.925
 1527POPC   C1A23847  14.657  39.965   8.802
 1527POPC   D2A23848  14.487  39.953   8.415
 1527POPC   C3A23849  14.679  39.837   8.041
 1527POPC   C4A23850  14.523  39.807   7.656
 1527POPC   C1B23851  14.086  40.293   8.630
 1527POPC   C2B23852  14.090  40.315   8.175
 1527POPC   C3B23853  14.132  40.185   7.723
 1527POPC   C4B23854  13.966  40.239   7.292
 1528POPC   NC323855  34.391  28.689   9.495
 1528POPC   PO423856  34.437  28.027   9.700
 1528POPC   GL123857  34.539  28.238   9.288
 1528POPC   GL223858  34.799  28.548   9.202
 1528POPC   C1A23859  34.403  28.222   8.860
 1528POPC   D2A23860  34.288  28.459   8.504
 1528POPC   C3A23861  34.340  28.278   8.124
 1528POPC   C4A23862  34.647  28.139   7.842
 1528POPC   C1B23863  34.824  28.750   8.770
 1528POPC   C2B23864  34.677  28.712   8.322
 1528POPC   C3B23865  34.839  28.603   7.912
 1528POPC   C4B23866  34.833  28.494   7.475
 1529POPC   NC323867  43.868  35.146   9.657
 1529POPC   PO423868  43.723  35.745   9.640
 1529POPC   GL123869  43.764  35.475   9.248
 1529POPC   GL223870  43.848  35.125   9.128
 1529POPC   C1A23871  43.795  35.493   8.780
 1529POPC   D2A23872  43.690  35.413   8.336
 1529POPC   C3A23873  44.009  35.442   8.059
 1529POPC   C4A23874  44.216  35.456   7.697
 1529POPC   C1B23875  43.786  34.997   8.663
 1529POPC   C2B23876  43.938  34.951   8.215
 1529POPC   C3B23877  44.023  35.004   7.777
 1529POPC   C4B23878  43.907  34.980   7.343
 1530POPC   NC323879  44.727  38.943   9.647
 1530POPC   PO423880  44.832  38.325   9.790
 1530POPC   GL123881  44.905  38.553   9.363
 1530POPC   GL223882  44.609  38.768   9.186
 1530POPC   C1A23883  44.904  38.441   8.932
 1530POPC   D2A23884  44.837  38.349   8.511
 1530POPC   C3A23885   0.082  38.412   8.157
 1530POPC   C4A23886  44.862  38.284   7.802
 1530POPC   C1B23887  44.596  38.812   8.715
 1530POPC   C2B23888  44.584  38.738   8.254
 1530POPC   C3B23889  44.499  38.717   7.810
 1530POPC   C4B23890  44.241  38.801   7.408
 1531POPC   NC323891   7.939  24.556   9.452
 1531POPC   PO423892   8.590  24.392   9.457
 1531POPC   GL123893   8.289  24.380   9.134
 1531POPC   GL223894   8.099  24.051   9.170
 1531POPC   C1A23895   7.991  24.568   8.792
 1531POPC   D2A23896   8.098  24.791   8.378
 1531POPC   C3A23897   8.153  24.522   7.983
 1531POPC   C4A23898   7.940  24.660   7.638
 1531POPC   C1B23899   8.225  24.125   8.724
 1531POPC   C2B23900   7.995  24.263   8.381
 1531POPC   C3B23901   7.806  24.086   8.034
 1531POPC   C4B23902   7.954  24.165   7.626
 1532POPC   NC323903  14.614  37.509   9.571
 1532POPC   PO423904  14.586  38.099   9.234
 1532POPC   GL123905  14.305  37.858   9.023
 1532POPC   GL223906  14.203  37.613   9.254
 1532POPC   C1A23907  14.338  37.798   8.606
 1532POPC   D2A23908  14.668  37.636   8.348
 1532POPC   C3A23909  14.609  37.899   8.048
 1532POPC   C4A23910  14.659  38.008   7.680
 1532POPC   C1B23911  14.080  37.408   8.884
 1532POPC   C2B23912  14.333  37.306   8.557
 1532POPC   C3B23913  14.308  37.340   8.137
 1532POPC   C4B23914  14.165  37.671   7.904
 1533POPC   NC323915  31.607  39.435   9.469
 1533POPC   PO423916  31.112  39.041   9.584
 1533POPC   GL123917  31.269  39.169   9.170
 1533POPC   GL223918  31.264  39.535   9.069
 1533POPC   C1A23919  31.525  39.156   8.791
 1533POPC   D2A23920  31.683  39.072   8.360
 1533POPC   C3A23921  31.386  39.131   8.034
 1533POPC   C4A23922  31.316  39.241   7.619
 1533POPC   C1B23923  31.554  39.670   8.694
 1533POPC   C2B23924  31.807  39.596   8.307
 1533POPC   C3B23925  31.719  39.512   7.841
 1533POPC   C4B23926  31.780  39.456   7.358
 1534POPC   NC323927  43.288   7.620   9.423
 1534POPC   PO423928  42.781   7.119   9.350
 1534POPC   GL123929  42.895   7.518   9.086
 1534POPC   GL223930  43.238   7.400   8.969
 1534POPC   C1A23931  43.009   7.755   8.682
 1534POPC   D2A23932  43.162   7.493   8.374
 1534POPC   C3A23933  43.020   7.402   7.951
 1534POPC   C4A23934  42.826   6.978   7.816
 1534POPC   C1B23935  43.500   7.752   8.785
 1534POPC   C2B23936  43.440   7.924   8.356
 1534POPC   C3B23937  43.502   7.611   8.021
 1534POPC   C4B23938  43.580   7.459   7.630
 1535POPC   NC323939  30.800  35.080   9.532
 1535POPC   PO423940  30.764  34.457   9.482
 1535POPC   GL123941  30.637  34.741   9.173
 1535POPC   GL223942  30.963  34.787   9.135
 1535POPC   C1A23943  30.580  34.711   8.735
 1535POPC   D2A23944  30.708  34.400   8.403
 1535POPC   C3A23945  30.433  34.396   8.052
 1535POPC   C4A23946  30.388  34.764   7.795
 1535POPC   C1B23947  31.069  34.680   8.735
 1535POPC   C2B23948  30.980  34.829   8.364
 1535POPC   C3B23949  30.878  34.689   7.955
 1535POPC   C4B23950  31.042  34.797   7.526
 1536POPC   NC323951  27.403  35.760   9.658
 1536POPC   PO423952  27.930  36.153   9.581
 1536POPC   GL123953  27.514  36.218   9.331
 1536POPC   GL223954  27.372  35.913   9.175
 1536POPC   C1A23955  27.430  36.323   8.891
 1536POPC   D2A23956  27.688  36.284   8.521
 1536POPC   C3A23957  27.520  36.103   8.156
 1536POPC   C4A23958  27.385  36.286   7.786
 1536POPC   C1B23959  27.619  35.854   8.809
 1536POPC   C2B23960  27.801  35.771   8.412
 1536POPC   C3B23961  27.926  35.802   7.976
 1536POPC   C4B23962  27.895  36.203   7.783
 1537POPC   NC323963  44.128  29.189   9.642
 1537POPC   PO423964  43.489  29.356   9.602
 1537POPC   GL123965  43.821  29.259   9.232
 1537POPC   GL223966  44.204  29.408   9.202
 1537POPC   C1A23967  43.753  28.953   8.882
 1537POPC   D2A23968  43.906  28.903   8.452
 1537POPC   C3A23969  43.720  29.065   8.068
 1537POPC   C4A23970  43.868  28.968   7.645
 1537POPC   C1B23971  44.151  29.256   8.779
 1537POPC   C2B23972  44.028  29.398   8.371
 1537POPC   C3B23973  44.192  29.230   7.997
 1537POPC   C4B23974  44.324  29.337   7.614
 1538POPC   NC323975  42.983  40.993   9.484
 1538POPC   PO423976  43.667  40.873   9.521
 1538POPC   GL123977  43.345  40.824   9.169
 1538POPC   GL223978  43.107  40.575   9.141
 1538POPC   C1A23979  43.076  40.994   8.829
 1538POPC   D2A23980  43.133  41.188   8.437
 1538POPC   C3A23981  43.058  40.908   8.123
 1538POPC   C4A23982  42.994  40.831   7.747
 1538POPC   C1B23983  42.799  40.550   8.804
 1538POPC   C2B23984  43.029  40.540   8.452
 1538POPC   C3B23985  43.089  40.370   8.035
 1538POPC   C4B23986  42.972  40.353   7.596
 1539POPC   NC323987   4.736  40.332   9.792
 1539POPC   PO423988   5.190  39.909   9.397
 1539POPC   GL123989   4.857  40.014   9.122
 1539POPC   GL223990   4.694  40.368   9.120
 1539POPC   C1A23991   5.030  39.966   8.714
 1539POPC   D2A23992   5.140  40.187   8.348
 1539POPC   C3A23993   5.218  39.895   8.049
 1539POPC   C4A23994   5.304  40.138   7.707
 1539POPC   C1B23995   4.546  40.094   8.735
 1539POPC   C2B23996   4.707  39.916   8.311
 1539POPC   C3B23997   4.785  40.106   7.881
 1539POPC   C4B23998   4.867  40.003   7.458
 1540POPC   NC323999  35.880  26.384   9.531
 1540POPC   PO424000  36.344  25.928   9.435
 1540POPC   GL124001  36.093  26.080   9.078
 1540POPC   GL224002  35.744  26.268   9.068
 1540POPC   C1A24003  36.135  25.873   8.679
 1540POPC   D2A24004  36.199  26.015   8.274
 1540POPC   C3A24005  35.943  25.898   7.934
 1540POPC   C4A24006  36.099  26.042   7.551
 1540POPC   C1B24007  35.742  26.201   8.641
 1540POPC   C2B24008  35.723  26.250   8.228
 1540POPC   C3B24009  35.688  26.341   7.825
 1540POPC   C4B24010  35.667  26.244   7.400
 1541POPC   NC324011  20.152  37.748   9.498
 1541POPC   PO424012  19.561  37.941   9.467
 1541POPC   GL124013  19.541  37.787   9.061
 1541POPC   GL224014  19.808  37.563   9.087
 1541POPC   C1A24015  19.478  37.693   8.643
 1541POPC   D2A24016  19.747  37.829   8.302
 1541POPC   C3A24017  19.793  37.579   7.952
 1541POPC   C4A24018  19.732  37.459   7.555
 1541POPC   C1B24019  19.958  37.507   8.683
 1541POPC   C2B24020  20.108  37.419   8.318
 1541POPC   C3B24021  20.195  37.252   7.938
 1541POPC   C4B24022  20.220  37.505   7.607
 1542POPC   NC324023  37.960   8.550  10.046
 1542POPC   PO424024  38.213   8.057   9.632
 1542POPC   GL124025  38.499   8.246   9.298
 1542POPC   GL224026  38.327   8.454   9.069
 1542POPC   C1A24027  38.612   8.098   8.860
 1542POPC   D2A24028  38.727   8.223   8.414
 1542POPC   C3A24029  38.501   8.001   8.106
 1542POPC   C4A24030  38.496   7.938   7.667
 1542POPC   C1B24031  38.262   8.391   8.641
 1542POPC   C2B24032  38.266   8.462   8.251
 1542POPC   C3B24033  38.452   8.459   7.893
 1542POPC   C4B24034  38.207   8.742   7.697
 1543POPC   NC324035  41.710  43.751   9.627
 1543POPC   PO424036  41.085  43.933   9.601
 1543POPC   GL124037  41.264  43.818   9.203
 1543POPC   GL224038  41.456  43.485   9.228
 1543POPC   C1A24039  41.346  44.034   8.809
 1543POPC   D2A24040  41.521  43.922   8.419
 1543POPC   C3A24041  41.407  44.073   8.012
 1543POPC   C4A24042  41.469  43.992   7.576
 1543POPC   C1B24043  41.701  43.360   8.854
 1543POPC   C2B24044  41.859  43.532   8.458
 1543POPC   C3B24045  41.788  43.687   8.021
 1543POPC   C4B24046  41.851  43.670   7.560
 1544POPC   NC324047  40.023  44.411   9.628
 1544POPC   PO424048  40.038   0.076   9.588
 1544POPC   GL124049  39.883  44.791   9.242
 1544POPC   GL224050  40.221  44.795   9.174
 1544POPC   C1A24051  39.930  44.608   8.793
 1544POPC   D2A24052  40.089  44.370   8.403
 1544POPC   C3A24053  39.973  44.471   7.970
 1544POPC   C4A24054  40.075  44.593   7.529
 1544POPC   C1B24055  40.173   0.077   8.792
 1544POPC   C2B24056  39.981  44.934   8.376
 1544POPC   C3B24057  40.065  44.962   7.926
 1544POPC   C4B24058  40.175   0.092   7.496
 1545POPC   NC324059  27.477  25.277   9.478
 1545POPC   PO424060  27.984  25.678   9.259
 1545POPC   GL124061  27.754  25.223   9.069
 1545POPC   GL224062  27.344  25.116   9.034
 1545POPC   C1A24063  27.673  24.948   8.697
 1545POPC   D2A24064  27.814  25.177   8.383
 1545POPC   C3A24065  27.720  25.115   8.004
 1545POPC   C4A24066  27.586  25.476   7.840
 1545POPC   C1B24067  27.416  25.405   8.706
 1545POPC   C2B24068  27.311  25.375   8.288
 1545POPC   C3B24069  27.109  25.560   7.947
 1545POPC   C4B24070  27.156  25.412   7.529
 1546POPC   NC324071  30.372  36.759   9.490
 1546POPC   PO424072  29.718  36.927   9.554
 1546POPC   GL124073  29.680  36.834   9.141
 1546POPC   GL224074  30.023  36.974   9.130
 1546POPC   C1A24075  29.651  36.945   8.707
 1546POPC   D2A24076  29.821  37.248   8.389
 1546POPC   C3A24077  29.928  37.018   8.022
 1546POPC   C4A24078  29.770  36.639   7.772
 1546POPC   C1B24079  30.152  37.030   8.740
 1546POPC   C2B24080  30.390  36.871   8.445
 1546POPC   C3B24081  30.437  36.902   8.034
 1546POPC   C4B24082  30.254  36.794   7.668
 1547POPC   NC324083  25.680   9.466   9.429
 1547POPC   PO424084  26.246   9.889   9.471
 1547POPC   GL124085  26.050   9.703   9.142
 1547POPC   GL224086  26.305   9.442   9.055
 1547POPC   C1A24087  25.944   9.870   8.749
 1547POPC   D2A24088  25.957   9.688   8.332
 1547POPC   C3A24089  25.786   9.873   7.921
 1547POPC   C4A24090  25.692   9.993   7.455
 1547POPC   C1B24091  26.440   9.795   8.780
 1547POPC   C2B24092  26.419   9.901   8.329
 1547POPC   C3B24093  26.262   9.690   7.920
 1547POPC   C4B24094  26.074   9.687   7.482
 1548POPC   NC324095  16.489  38.407   9.552
 1548POPC   PO424096  16.996  38.842   9.589
 1548POPC   GL124097  17.020  38.639   9.189
 1548POPC   GL224098  16.716  38.459   9.093
 1548POPC   C1A24099  16.965  38.849   8.776
 1548POPC   D2A24100  17.051  38.742   8.355
 1548POPC   C3A24101  16.750  38.505   8.104
 1548POPC   C4A24102  16.491  38.487   7.720
 1548POPC   C1B24103  17.056  38.207   8.920
 1548POPC   C2B24104  17.147  38.151   8.497
 1548POPC   C3B24105  16.963  37.979   8.148
 1548POPC   C4B24106  16.904  38.167   7.759
 1549POPC   NC324107  13.819  21.802   9.604
 1549POPC   PO424108  13.331  22.279   9.722
 1549POPC   GL124109  13.515  22.325   9.258
 1549POPC   GL224110  13.748  22.086   9.154
 1549POPC   C1A24111  13.442  22.516   8.807
 1549POPC   D2A24112  13.623  22.452   8.372
 1549POPC   C3A24113  13.405  22.447   7.990
 1549POPC   C4A24114  13.538  22.306   7.628
 1549POPC   C1B24115  13.904  22.263   8.782
 1549POPC   C2B24116  14.169  22.047   8.494
 1549POPC   C3B24117  14.025  22.018   8.083
 1549POPC   C4B24118  13.895  21.944   7.671
 1550POPC   NC324119  30.821  18.845   9.416
 1550POPC   PO424120  30.417  19.539   9.487
 1550POPC   GL124121  30.558  19.248   9.172
 1550POPC   GL224122  30.249  19.098   9.076
 1550POPC   C1A24123  30.857  19.179   8.823
 1550POPC   D2A24124  30.997  19.328   8.419
 1550POPC   C3A24125  30.974  18.987   8.114
 1550POPC   C4A24126  30.759  19.048   7.748
 1550POPC   C1B24127  30.458  18.882   8.731
 1550POPC   C2B24128  30.522  19.098   8.342
 1550POPC   C3B24129  30.301  18.999   7.966
 1550POPC   C4B24130  30.308  18.876   7.522
 1551POPC   NC324131  35.150   1.364   9.584
 1551POPC   PO424132  35.726   1.096   9.578
 1551POPC   GL124133  35.370   1.019   9.265
 1551POPC   GL224134  35.184   1.313   9.095
 1551POPC   C1A24135  35.348   0.938   8.816
 1551POPC   D2A24136  35.362   1.195   8.444
 1551POPC   C3A24137  35.439   1.006   8.081
 1551POPC   C4A24138  35.398   0.889   7.663
 1551POPC   C1B24139  35.512   1.478   8.843
 1551POPC   C2B24140  35.618   1.646   8.443
 1551POPC   C3B24141  35.499   1.536   8.049
 1551POPC   C4B24142  35.631   1.340   7.709
 1552POPC   NC324143  12.897  25.699   9.329
 1552POPC   PO424144  12.926  25.023   9.343
 1552POPC   GL124145  12.702  25.256   9.079
 1552POPC   GL224146  12.425  25.462   9.158
 1552POPC   C1A24147  12.816  25.201   8.685
 1552POPC   D2A24148  12.969  24.975   8.395
 1552POPC   C3A24149  12.861  25.176   8.017
 1552POPC   C4A24150  13.127  25.397   7.721
 1552POPC   C1B24151  12.566  25.653   8.754
 1552POPC   C2B24152  12.701  25.567   8.328
 1552POPC   C3B24153  12.760  25.706   7.907
 1552POPC   C4B24154  12.707  25.819   7.479
 1553POPC   NC324155  25.012  12.286   9.514
 1553POPC   PO424156  25.651  12.263   9.496
 1553POPC   GL124157  25.337  12.366   9.121
 1553POPC   GL224158  24.970  12.487   9.057
 1553POPC   C1A24159  25.227  11.941   8.899
 1553POPC   D2A24160  25.391  11.650   8.532
 1553POPC   C3A24161  25.363  11.803   8.105
 1553POPC   C4A24162  25.270  11.767   7.661
 1553POPC   C1B24163  25.109  12.367   8.641
 1553POPC   C2B24164  25.136  12.307   8.193
 1553POPC   C3B24165  25.014  12.176   7.758
 1553POPC   C4B24166  25.014  12.430   7.347
 1554POPC   NC324167  31.055  30.638   9.642
 1554POPC   PO424168  31.733  30.693   9.578
 1554POPC   GL124169  31.426  30.675   9.217
 1554POPC   GL224170  31.399  30.998   9.030
 1554POPC   C1A24171  31.554  30.608   8.769
 1554POPC   D2A24172  31.801  30.504   8.435
 1554POPC   C3A24173  31.668  30.545   8.042
 1554POPC   C4A24174  31.736  30.872   7.750
 1554POPC   C1B24175  31.329  31.057   8.611
 1554POPC   C2B24176  31.266  30.718   8.294
 1554POPC   C3B24177  31.254  30.790   7.814
 1554POPC   C4B24178  31.071  30.945   7.414
 1555POPC   NC324179  13.351  18.574   9.360
 1555POPC   PO424180  13.917  18.169   9.434
 1555POPC   GL124181  13.718  18.205   9.059
 1555POPC   GL224182  13.403  18.097   9.168
 1555POPC   C1A24183  13.792  18.366   8.640
 1555POPC   D2A24184  13.785  18.585   8.210
 1555POPC   C3A24185  13.856  18.294   7.877
 1555POPC   C4A24186  13.784  18.093   7.476
 1555POPC   C1B24187  13.273  18.318   8.799
 1555POPC   C2B24188  13.352  18.538   8.455
 1555POPC   C3B24189  13.319  18.394   8.034
 1555POPC   C4B24190  13.476  18.590   7.686
 1556POPC   NC324191  29.148   6.267   9.622
 1556POPC   PO424192  28.841   6.876   9.546
 1556POPC   GL124193  28.898   6.588   9.233
 1556POPC   GL224194  29.226   6.538   9.180
 1556POPC   C1A24195  28.931   6.685   8.789
 1556POPC   D2A24196  29.096   6.645   8.391
 1556POPC   C3A24197  28.838   6.632   8.039
 1556POPC   C4A24198  29.005   6.667   7.672
 1556POPC   C1B24199  29.440   6.588   8.771
 1556POPC   C2B24200  29.586   6.717   8.361
 1556POPC   C3B24201  29.453   6.666   7.938
 1556POPC   C4B24202  29.462   6.612   7.468
 1557POPC   NC324203  28.617  11.520   9.434
 1557POPC   PO424204  28.028  11.719   9.720
 1557POPC   GL124205  28.189  11.333   9.275
 1557POPC   GL224206  27.994  11.047   9.134
 1557POPC   C1A24207  28.472  11.155   8.901
 1557POPC   D2A24208  28.663  11.164   8.478
 1557POPC   C3A24209  28.459  11.394   8.177
 1557POPC   C4A24210  28.675  11.607   7.868
 1557POPC   C1B24211  28.002  11.318   8.747
 1557POPC   C2B24212  28.105  11.692   8.491
 1557POPC   C3B24213  28.018  11.683   8.056
 1557POPC   C4B24214  28.155  11.354   7.753
 1558POPC   NC324215   6.984  38.955   9.626
 1558POPC   PO424216   7.517  39.330   9.497
 1558POPC   GL124217   7.237  39.299   9.188
 1558POPC   GL224218   7.246  38.977   9.185
 1558POPC   C1A24219   7.373  39.317   8.769
 1558POPC   D2A24220   7.642  39.264   8.445
 1558POPC   C3A24221   7.489  39.505   8.100
 1558POPC   C4A24222   7.666  39.402   7.725
 1558POPC   C1B24223   7.473  38.835   8.823
 1558POPC   C2B24224   7.272  38.830   8.443
 1558POPC   C3B24225   7.348  39.005   8.070
 1558POPC   C4B24226   7.184  39.256   7.766
 1559POPC   NC324227  27.853   7.316   9.940
 1559POPC   PO424228  27.252   7.241   9.530
 1559POPC   GL124229  27.381   7.497   9.212
 1559POPC   GL224230  27.720   7.522   9.339
 1559POPC   C1A24231  27.328   7.484   8.792
 1559POPC   D2A24232  27.508   7.322   8.418
 1559POPC   C3A24233  27.426   7.563   8.041
 1559POPC   C4A24234  27.328   7.463   7.625
 1559POPC   C1B24235  27.836   7.531   8.880
 1559POPC   C2B24236  28.010   7.262   8.573
 1559POPC   C3B24237  27.934   7.257   8.133
 1559POPC   C4B24238  27.700   7.132   7.760
 1560POPC   NC324239   4.465  23.352   9.511
 1560POPC   PO424240   4.027  22.867   9.489
 1560POPC   GL124241   4.080  23.129   9.142
 1560POPC   GL224242   4.414  23.169   9.052
 1560POPC   C1A24243   4.045  23.037   8.721
 1560POPC   D2A24244   3.859  22.807   8.395
 1560POPC   C3A24245   4.003  22.967   8.039
 1560POPC   C4A24246   4.344  23.225   7.894
 1560POPC   C1B24247   4.544  22.924   8.731
 1560POPC   C2B24248   4.373  22.817   8.346
 1560POPC   C3B24249   4.443  22.698   7.944
 1560POPC   C4B24250   4.799  22.555   7.741
 1561POPC   NC324251  44.808  28.743   9.342
 1561POPC   PO424252  44.566  29.213   9.791
 1561POPC   GL124253  44.718  29.248   9.262
 1561POPC   GL224254  44.617  29.029   8.962
 1561POPC   C1A24255  44.608  29.502   8.860
 1561POPC   D2A24256  44.534  29.301   8.413
 1561POPC   C3A24257  44.712  29.374   7.972
 1561POPC   C4A24258  44.816  29.108   7.579
 1561POPC   C1B24259  44.942  29.101   8.693
 1561POPC   C2B24260   0.049  29.140   8.290
 1561POPC   C3B24261  44.878  28.850   8.028
 1561POPC   C4B24262  44.925  28.485   7.822
 1562POPC   NC324263  38.180   5.941   9.390
 1562POPC   PO424264  38.718   5.527   9.470
 1562POPC   GL124265  38.819   5.898   9.198
 1562POPC   GL224266  38.516   5.975   8.998
 1562POPC   C1A24267  38.968   6.044   8.796
 1562POPC   D2A24268  38.731   6.028   8.398
 1562POPC   C3A24269  38.950   6.116   7.995
 1562POPC   C4A24270  38.759   6.233   7.587
 1562POPC   C1B24271  38.557   5.602   8.710
 1562POPC   C2B24272  38.612   5.542   8.260
 1562POPC   C3B24273  38.532   5.827   7.922
 1562POPC   C4B24274  38.175   5.670   7.736
 1563POPC   NC324275  43.187  28.988   9.576
 1563POPC   PO424276  42.779  29.443   9.629
 1563POPC   GL124277  43.064  29.351   9.230
 1563POPC   GL224278  43.383  29.505   9.138
 1563POPC   C1A24279  43.257  29.093   8.877
 1563POPC   D2A24280  43.388  28.958   8.444
 1563POPC   C3A24281  43.188  29.154   8.064
 1563POPC   C4A24282  42.936  29.169   7.680
 1563POPC   C1B24283  43.656  29.442   8.762
 1563POPC   C2B24284  43.513  29.471   8.333
 1563POPC   C3B24285  43.524  29.503   7.890
 1563POPC   C4B24286  43.439  29.238   7.530
 1564POPC   NC324287  20.699  35.344   9.348
 1564POPC   PO424288  20.209  35.790   9.464
 1564POPC   GL124289  20.444  35.703   9.052
 1564POPC   GL224290  20.781  35.713   9.007
 1564POPC   C1A24291  20.476  35.402   8.674
 1564POPC   D2A24292  20.622  35.171   8.307
 1564POPC   C3A24293  20.369  35.221   7.961
 1564POPC   C4A24294  20.540  35.583   7.891
 1564POPC   C1B24295  20.974  35.499   8.725
 1564POPC   C2B24296  20.892  35.641   8.331
 1564POPC   C3B24297  21.036  35.493   7.968
 1564POPC   C4B24298  20.846  35.093   7.829
 1565POPC   NC324299   8.484  34.988   9.914
 1565POPC   PO424300   8.415  35.587   9.538
 1565POPC   GL124301   8.252  35.610   9.149
 1565POPC   GL224302   8.118  35.282   9.116
 1565POPC   C1A24303   8.359  35.558   8.723
 1565POPC   D2A24304   8.293  35.716   8.323
 1565POPC   C3A24305   8.335  35.386   8.039
 1565POPC   C4A24306   8.136  35.305   7.692
 1565POPC   C1B24307   7.979  35.051   8.794
 1565POPC   C2B24308   8.112  35.066   8.392
 1565POPC   C3B24309   7.856  35.114   8.065
 1565POPC   C4B24310   7.813  34.901   7.686
 1566POPC   NC324311   6.909  41.208   9.535
 1566POPC   PO424312   6.765  40.556   9.349
 1566POPC   GL124313   6.762  40.960   9.118
 1566POPC   GL224314   7.089  41.080   9.060
 1566POPC   C1A24315   6.695  41.147   8.720
 1566POPC   D2A24316   6.502  41.204   8.319
 1566POPC   C3A24317   6.699  40.937   7.988
 1566POPC   C4A24318   6.655  40.508   7.784
 1566POPC   C1B24319   6.996  40.715   8.750
 1566POPC   C2B24320   6.942  40.653   8.344
 1566POPC   C3B24321   7.101  40.467   8.018
 1566POPC   C4B24322   7.048  40.181   7.704
 1567POPC   NC324323   3.285  17.701   9.328
 1567POPC   PO424324   2.682  17.554   9.527
 1567POPC   GL124325   2.698  17.561   9.123
 1567POPC   GL224326   2.694  17.902   9.105
 1567POPC   C1A24327   2.586  17.565   8.718
 1567POPC   D2A24328   2.679  17.391   8.363
 1567POPC   C3A24329   2.646  17.635   7.994
 1567POPC   C4A24330   2.868  17.427   7.688
 1567POPC   C1B24331   2.993  17.849   8.769
 1567POPC   C2B24332   2.928  17.877   8.365
 1567POPC   C3B24333   3.282  17.887   8.127
 1567POPC   C4B24334   3.279  17.739   7.715
 1568POPC   NC324335  18.606  24.506   9.474
 1568POPC   PO424336  17.987  24.493   9.343
 1568POPC   GL124337  18.301  24.601   9.073
 1568POPC   GL224338  18.411  24.270   9.076
 1568POPC   C1A24339  18.461  24.550   8.668
 1568POPC   D2A24340  18.199  24.341   8.383
 1568POPC   C3A24341  18.225  24.586   7.983
 1568POPC   C4A24342  18.531  24.908   7.888
 1568POPC   C1B24343  18.590  24.029   8.741
 1568POPC   C2B24344  18.444  23.881   8.328
 1568POPC   C3B24345  18.248  24.081   7.954
 1568POPC   C4B24346  18.273  24.179   7.498
 1569POPC   NC324347  39.307   6.740   9.442
 1569POPC   PO424348  38.854   6.247   9.691
 1569POPC   GL124349  38.905   6.423   9.292
 1569POPC   GL224350  39.201   6.279   9.218
 1569POPC   C1A24351  38.998   6.614   8.869
 1569POPC   D2A24352  39.106   6.873   8.535
 1569POPC   C3A24353  39.093   6.718   8.161
 1569POPC   C4A24354  39.097   6.801   7.764
 1569POPC   C1B24355  39.402   6.337   8.817
 1569POPC   C2B24356  39.236   6.264   8.407
 1569POPC   C3B24357  39.431   6.364   8.015
 1569POPC   C4B24358  39.279   6.300   7.630
 1570POPC   NC324359  15.349  12.325   9.642
 1570POPC   PO424360  15.043  12.920   9.397
 1570POPC   GL124361  15.230  12.776   9.065
 1570POPC   GL224362  15.037  12.521   8.978
 1570POPC   C1A24363  15.162  12.946   8.655
 1570POPC   D2A24364  15.403  12.846   8.283
 1570POPC   C3A24365  15.051  12.887   8.059
 1570POPC   C4A24366  14.951  13.063   7.732
 1570POPC   C1B24367  15.309  12.459   8.617
 1570POPC   C2B24368  15.110  12.378   8.205
 1570POPC   C3B24369  15.219  12.530   7.769
 1570POPC   C4B24370  15.411  12.500   7.358
 1571POPC   NC324371  28.867  30.581   9.545
 1571POPC   PO424372  29.375  30.806   9.615
 1571POPC   GL124373  29.251  30.705   9.180
 1571POPC   GL224374  29.034  30.429   9.083
 1571POPC   C1A24375  29.223  30.819   8.737
 1571POPC   D2A24376  29.149  31.103   8.385
 1571POPC   C3A24377  29.138  30.911   7.988
 1571POPC   C4A24378  29.351  30.571   7.801
 1571POPC   C1B24379  28.861  30.475   8.655
 1571POPC   C2B24380  29.024  30.450   8.202
 1571POPC   C3B24381  28.881  30.415   7.761
 1571POPC   C4B24382  28.810  30.108   7.437
 1572POPC   NC324383  19.228  27.799   9.384
 1572POPC   PO424384  19.860  27.744   9.783
 1572POPC   GL124385  19.739  27.591   9.378
 1572POPC   GL224386  19.705  27.879   9.240
 1572POPC   C1A24387  19.866  27.550   8.898
 1572POPC   D2A24388  19.808  27.332   8.485
 1572POPC   C3A24389  19.884  27.421   8.036
 1572POPC   C4A24390  19.981  27.252   7.615
 1572POPC   C1B24391  19.738  28.045   8.825
 1572POPC   C2B24392  19.856  27.848   8.432
 1572POPC   C3B24393  19.747  27.905   8.002
 1572POPC   C4B24394  19.722  27.707   7.614
 1573POPC   NC324395  30.142  28.106   9.280
 1573POPC   PO424396  30.451  28.660   9.561
 1573POPC   GL124397  30.140  28.718   9.114
 1573POPC   GL224398  29.980  28.378   8.925
 1573POPC   C1A24399  29.931  28.764   8.653
 1573POPC   D2A24400  29.940  28.370   8.404
 1573POPC   C3A24401  30.024  28.428   7.983
 1573POPC   C4A24402  29.751  28.637   7.691
 1573POPC   C1B24403  30.122  27.963   8.669
 1573POPC   C2B24404  30.035  27.715   8.306
 1573POPC   C3B24405  29.843  27.900   7.963
 1573POPC   C4B24406  29.936  28.104   7.599
 1574POPC   NC324407  38.181   4.372   9.478
 1574POPC   PO424408  38.854   4.542   9.576
 1574POPC   GL124409  38.623   4.593   9.169
 1574POPC   GL224410  38.492   4.279   9.089
 1574POPC   C1A24411  38.639   4.532   8.683
 1574POPC   D2A24412  38.480   4.381   8.297
 1574POPC   C3A24413  38.658   4.478   7.866
 1574POPC   C4A24414  38.558   4.566   7.404
 1574POPC   C1B24415  38.391   4.060   8.734
 1574POPC   C2B24416  38.481   3.847   8.388
 1574POPC   C3B24417  38.261   4.009   8.050
 1574POPC   C4B24418  38.424   4.105   7.639
 1575POPC   NC324419  12.568  29.779   9.670
 1575POPC   PO424420  13.109  29.655   9.547
 1575POPC   GL124421  12.814  29.925   9.224
 1575POPC   GL224422  12.434  29.929   9.186
 1575POPC   C1A24423  12.703  30.248   8.873
 1575POPC   D2A24424  12.819  30.317   8.418
 1575POPC   C3A24425  13.041  29.972   8.247
 1575POPC   C4A24426  13.036  29.758   7.858
 1575POPC   C1B24427  12.426  29.834   8.728
 1575POPC   C2B24428  12.534  29.879   8.265
 1575POPC   C3B24429  12.512  29.847   7.807
 1575POPC   C4B24430  12.277  29.782   7.374
 1576POPC   NC324431  12.293  23.813   9.562
 1576POPC   PO424432  11.758  23.477   9.363
 1576POPC   GL124433  12.129  23.546   9.108
 1576POPC   GL224434  12.368  23.814   9.078
 1576POPC   C1A24435  12.296  23.431   8.704
 1576POPC   D2A24436  12.163  23.314   8.285
 1576POPC   C3A24437  12.235  23.570   7.921
 1576POPC   C4A24438  11.953  23.905   7.852
 1576POPC   C1B24439  12.291  24.000   8.720
 1576POPC   C2B24440  12.392  23.890   8.319
 1576POPC   C3B24441  12.395  24.153   7.973
 1576POPC   C4B24442  12.399  23.969   7.607
 1577POPC   NC324443  31.057  13.856   9.540
 1577POPC   PO424444  31.753  13.611   9.586
 1577POPC   GL124445  31.547  13.839   9.268
 1577POPC   GL224446  31.775  14.146   9.219
 1577POPC   C1A24447  31.354  13.690   8.874
 1577POPC   D2A24448  31.206  13.529   8.471
 1577POPC   C3A24449  31.284  13.727   8.103
 1577POPC   C4A24450  31.384  13.535   7.739
 1577POPC   C1B24451  31.787  13.945   8.825
 1577POPC   C2B24452  31.677  13.709   8.453
 1577POPC   C3B24453  31.796  13.819   8.051
 1577POPC   C4B24454  31.875  14.014   7.665
 1578POPC   NC324455  17.624  24.764   9.423
 1578POPC   PO424456  17.422  24.230   9.702
 1578POPC   GL124457  17.551  24.272   9.212
 1578POPC   GL224458  17.374  24.547   9.029
 1578POPC   C1A24459  17.719  24.331   8.729
 1578POPC   D2A24460  17.441  24.459   8.367
 1578POPC   C3A24461  17.520  24.550   7.924
 1578POPC   C4A24462  17.847  24.348   7.717
 1578POPC   C1B24463  17.206  24.790   8.671
 1578POPC   C2B24464  17.095  24.825   8.192
 1578POPC   C3B24465  17.028  24.645   7.751
 1578POPC   C4B24466  17.027  24.438   7.339
 1579POPC   NC324467  10.210  37.918   9.532
 1579POPC   PO424468  10.752  37.413   9.418
 1579POPC   GL124469  10.574  37.730   9.161
 1579POPC   GL224470  10.261  37.572   9.149
 1579POPC   C1A24471  10.527  37.716   8.700
 1579POPC   D2A24472  10.561  37.465   8.334
 1579POPC   C3A24473  10.764  37.698   7.994
 1579POPC   C4A24474  10.629  37.584   7.595
 1579POPC   C1B24475  10.150  37.971   8.914
 1579POPC   C2B24476  10.306  38.196   8.581
 1579POPC   C3B24477  10.365  37.929   8.199
 1579POPC   C4B24478  10.231  37.843   7.779
 1580POPC   NC324479  11.758  11.018   9.599
 1580POPC   PO424480  11.081  11.337   9.553
 1580POPC   GL124481  11.083  11.180   9.141
 1580POPC   GL224482  11.442  11.166   9.211
 1580POPC   C1A24483  10.965  11.189   8.692
 1580POPC   D2A24484  11.083  11.451   8.330
 1580POPC   C3A24485  11.063  11.285   7.912
 1580POPC   C4A24486  11.026  11.384   7.484
 1580POPC   C1B24487  11.536  11.315   8.812
 1580POPC   C2B24488  11.668  11.062   8.463
 1580POPC   C3B24489  11.556  11.199   8.087
 1580POPC   C4B24490  11.534  11.234   7.621
 1581POPC   NC324491  23.620  35.805   9.455
 1581POPC   PO424492  24.080  36.376   9.562
 1581POPC   GL124493  23.804  36.272   9.229
 1581POPC   GL224494  23.734  36.574   9.087
 1581POPC   C1A24495  23.529  36.200   8.840
 1581POPC   D2A24496  23.733  35.982   8.516
 1581POPC   C3A24497  23.677  36.109   8.097
 1581POPC   C4A24498  23.834  35.920   7.715
 1581POPC   C1B24499  23.992  36.398   8.717
 1581POPC   C2B24500  24.125  36.304   8.261
 1581POPC   C3B24501  24.030  36.380   7.793
 1581POPC   C4B24502  23.874  36.352   7.341
 1582POPC   NC324503  44.262  41.988   9.565
 1582POPC   PO424504  44.872  42.345   9.432
 1582POPC   GL124505  44.944  42.403   9.027
 1582POPC   GL224506  44.708  42.098   8.991
 1582POPC   C1A24507  44.722  42.534   8.628
 1582POPC   D2A24508  44.310  42.657   8.416
 1582POPC   C3A24509  44.347  42.507   7.966
 1582POPC   C4A24510  44.697  42.550   7.650
 1582POPC   C1B24511   0.062  42.046   8.707
 1582POPC   C2B24512   0.089  42.229   8.346
 1582POPC   C3B24513  44.886  42.214   7.988
 1582POPC   C4B24514   0.103  42.165   7.622
 1583POPC   NC324515  21.122  40.735   9.484
 1583POPC   PO424516  21.623  40.351   9.599
 1583POPC   GL124517  21.590  40.702   9.269
 1583POPC   GL224518  21.314  40.624   9.031
 1583POPC   C1A24519  21.731  40.888   8.847
 1583POPC   D2A24520  21.835  40.791   8.398
 1583POPC   C3A24521  21.471  40.892   8.155
 1583POPC   C4A24522  21.280  40.885   7.753
 1583POPC   C1B24523  21.520  40.441   8.680
 1583POPC   C2B24524  21.532  40.384   8.243
 1583POPC   C3B24525  21.401  40.349   7.804
 1583POPC   C4B24526  21.071  40.477   7.502
 1584POPC   NC324527   3.221  16.228   9.431
 1584POPC   PO424528   3.670  15.712   9.359
 1584POPC   GL124529   3.517  15.926   9.026
 1584POPC   GL224530   3.716  16.228   8.967
 1584POPC   C1A24531   3.730  15.845   8.633
 1584POPC   D2A24532   3.917  15.686   8.268
 1584POPC   C3A24533   3.649  15.910   8.012
 1584POPC   C4A24534   3.392  15.742   7.696
 1584POPC   C1B24535   3.332  16.365   8.803
 1584POPC   C2B24536   3.156  16.466   8.433
 1584POPC   C3B24537   3.214  16.278   8.058
 1584POPC   C4B24538   3.457  16.287   7.722
 1585POPC   NC324539  26.834  40.114   9.569
 1585POPC   PO424540  26.576  39.482   9.474
 1585POPC   GL124541  26.869  39.789   9.179
 1585POPC   GL224542  26.689  40.117   9.099
 1585POPC   C1A24543  27.047  40.034   8.753
 1585POPC   D2A24544  27.234  40.088   8.294
 1585POPC   C3A24545  27.017  39.993   7.891
 1585POPC   C4A24546  26.577  40.000   7.809
 1585POPC   C1B24547  26.503  40.048   8.722
 1585POPC   C2B24548  26.689  40.045   8.353
 1585POPC   C3B24549  26.758  40.373   8.127
 1585POPC   C4B24550  26.901  40.480   7.759
 1586POPC   NC324551  21.885  43.316   9.655
 1586POPC   PO424552  21.257  42.983   9.660
 1586POPC   GL124553  21.430  43.143   9.331
 1586POPC   GL224554  21.395  42.828   9.177
 1586POPC   C1A24555  21.448  43.245   8.886
 1586POPC   D2A24556  21.173  43.217   8.531
 1586POPC   C3A24557  21.353  43.238   8.136
 1586POPC   C4A24558  21.328  43.140   7.733
 1586POPC   C1B24559  21.244  42.715   8.776
 1586POPC   C2B24560  21.430  42.717   8.375
 1586POPC   C3B24561  21.294  42.697   7.961
 1586POPC   C4B24562  21.224  42.593   7.511
 1587POPC   NC324563  30.882  19.598   9.417
 1587POPC   PO424564  30.453  20.113   9.570
 1587POPC   GL124565  30.554  19.999   9.151
 1587POPC   GL224566  30.905  19.983   9.049
 1587POPC   C1A24567  30.542  20.131   8.707
 1587POPC   D2A24568  30.480  20.220   8.274
 1587POPC   C3A24569  30.654  19.996   7.974
 1587POPC   C4A24570  30.748  20.101   7.590
 1587POPC   C1B24571  30.750  19.674   8.769
 1587POPC   C2B24572  30.542  19.670   8.382
 1587POPC   C3B24573  30.530  19.483   7.981
 1587POPC   C4B24574  30.829  19.580   7.658
 1588POPC   NC324575  34.831  20.119   9.537
 1588POPC   PO424576  34.424  19.606   9.279
 1588POPC   GL124577  34.612  19.675   8.982
 1588POPC   GL224578  34.667  20.002   9.050
 1588POPC   C1A24579  34.516  19.629   8.583
 1588POPC   D2A24580  34.483  20.005   8.346
 1588POPC   C3A24581  34.650  19.965   7.962
 1588POPC   C4A24582  34.779  19.610   7.737
 1588POPC   C1B24583  34.889  20.035   8.679
 1588POPC   C2B24584  35.081  20.146   8.301
 1588POPC   C3B24585  35.052  20.266   7.844
 1588POPC   C4B24586  34.901  20.405   7.440
 1589POPC   NC324587   1.971  42.864   9.570
 1589POPC   PO424588   1.876  43.473   9.309
 1589POPC   GL124589   2.072  43.161   9.144
 1589POPC   GL224590   1.782  42.949   9.128
 1589POPC   C1A24591   2.097  43.021   8.743
 1589POPC   D2A24592   2.278  42.896   8.384
 1589POPC   C3A24593   2.077  43.036   8.024
 1589POPC   C4A24594   1.861  43.156   7.659
 1589POPC   C1B24595   1.612  42.864   8.776
 1589POPC   C2B24596   1.757  42.827   8.383
 1589POPC   C3B24597   1.578  42.883   8.011
 1589POPC   C4B24598   1.643  42.701   7.651
 1590POPC   NC324599  21.821   1.664   9.430
 1590POPC   PO424600  21.259   1.975   9.331
 1590POPC   GL124601  21.431   2.246   9.092
 1590POPC   GL224602  21.727   2.068   9.022
 1590POPC   C1A24603  21.405   2.197   8.648
 1590POPC   D2A24604  21.722   2.276   8.383
 1590POPC   C3A24605  21.568   2.410   8.020
 1590POPC   C4A24606  21.332   2.246   7.710
 1590POPC   C1B24607  21.682   1.776   8.701
 1590POPC   C2B24608  21.454   1.811   8.326
 1590POPC   C3B24609  21.599   1.889   7.959
 1590POPC   C4B24610  21.882   1.591   7.798
 1591POPC   NC324611  39.227  17.390   9.677
 1591POPC   PO424612  39.700  17.335   9.376
 1591POPC   GL124613  39.275  17.447   9.140
 1591POPC   GL224614  39.014  17.680   9.270
 1591POPC   C1A24615  38.946  17.443   8.769
 1591POPC   D2A24616  38.708  17.529   8.352
 1591POPC   C3A24617  38.921  17.522   7.915
 1591POPC   C4A24618  39.242  17.731   7.652
 1591POPC   C1B24619  39.145  17.901   8.863
 1591POPC   C2B24620  39.080  17.922   8.391
 1591POPC   C3B24621  38.844  18.017   8.008
 1591POPC   C4B24622  38.825  18.030   7.553
 1592POPC   NC324623  15.844  35.017   9.494
 1592POPC   PO424624  16.203  35.565   9.683
 1592POPC   GL124625  16.127  35.509   9.236
 1592POPC   GL224626  16.235  35.778   9.007
 1592POPC   C1A24627  15.832  35.375   8.893
 1592POPC   D2A24628  15.916  35.061   8.538
 1592POPC   C3A24629  15.773  35.198   8.123
 1592POPC   C4A24630  15.697  35.039   7.721
 1592POPC   C1B24631  16.307  35.383   8.757
 1592POPC   C2B24632  16.305  35.310   8.319
 1592POPC   C3B24633  16.144  35.544   8.005
 1592POPC   C4B24634  16.093  35.333   7.658
 1593POPC   NC324635  18.828  33.106   9.306
 1593POPC   PO424636  18.179  32.992   9.600
 1593POPC   GL124637  18.310  32.966   9.189
 1593POPC   GL224638  18.347  33.300   9.197
 1593POPC   C1A24639  18.396  32.888   8.735
 1593POPC   D2A24640  18.164  32.851   8.338
 1593POPC   C3A24641  18.455  32.942   8.012
 1593POPC   C4A24642  18.583  32.749   7.636
 1593POPC   C1B24643  18.187  33.356   8.803
 1593POPC   C2B24644  18.395  33.324   8.442
 1593POPC   C3B24645  18.145  33.341   8.121
 1593POPC   C4B24646  18.174  33.268   7.717
 1594POPC   NC324647   5.728   2.965   9.451
 1594POPC   PO424648   5.812   2.341   9.453
 1594POPC   GL124649   5.755   2.589   9.100
 1594POPC   GL224650   5.439   2.676   9.113
 1594POPC   C1A24651   5.702   2.810   8.689
 1594POPC   D2A24652   5.682   2.937   8.247
 1594POPC   C3A24653   6.054   2.869   7.987
 1594POPC   C4A24654   6.236   2.933   7.562
 1594POPC   C1B24655   5.403   2.406   8.757
 1594POPC   C2B24656   5.384   2.524   8.329
 1594POPC   C3B24657   5.635   2.536   7.934
 1594POPC   C4B24658   5.713   2.841   7.620
 1595POPC   NC324659   0.329   1.241   9.440
 1595POPC   PO424660   0.813   1.061   9.100
 1595POPC   GL124661   0.439   1.222   8.922
 1595POPC   GL224662   0.110   1.405   9.011
 1595POPC   C1A24663   0.355   1.451   8.580
 1595POPC   D2A24664   0.434   1.676   8.253
 1595POPC   C3A24665   0.444   1.335   8.023
 1595POPC   C4A24666   0.616   1.145   7.673
 1595POPC   C1B24667   0.057   1.059   8.646
 1595POPC   C2B24668  44.963   1.081   8.200
 1595POPC   C3B24669   0.166   0.961   7.830
 1595POPC   C4B24670   0.170   1.041   7.417
 1596POPC   NC324671   4.151  18.016   9.500
 1596POPC   PO424672   4.057  18.707   9.493
 1596POPC   GL124673   4.310  18.535   9.128
 1596POPC   GL224674   4.292  18.163   9.053
 1596POPC   C1A24675   4.366  18.501   8.675
 1596POPC   D2A24676   4.111  18.457   8.310
 1596POPC   C3A24677   4.272  18.641   7.965
 1596POPC   C4A24678   4.557  18.542   7.641
 1596POPC   C1B24679   4.576  18.022   8.775
 1596POPC   C2B24680   4.534  18.104   8.367
 1596POPC   C3B24681   4.569  17.861   8.029
 1596POPC   C4B24682   4.630  17.978   7.632
 1597POPC   NC324683   7.227  35.590   9.956
 1597POPC   PO424684   7.715  35.871   9.513
 1597POPC   GL124685   7.627  35.992   9.100
 1597POPC   GL224686   7.306  35.851   9.107
 1597POPC   C1A24687   7.475  36.180   8.707
 1597POPC   D2A24688   7.431  36.370   8.317
 1597POPC   C3A24689   7.557  36.200   7.939
 1597POPC   C4A24690   7.622  35.966   7.587
 1597POPC   C1B24691   7.357  35.687   8.693
 1597POPC   C2B24692   7.436  35.810   8.271
 1597POPC   C3B24693   7.265  35.706   7.868
 1597POPC   C4B24694   6.927  35.717   7.565
 1598POPC   NC324695  21.636  22.803   9.415
 1598POPC   PO424696  21.193  23.188   9.370
 1598POPC   GL124697  21.416  23.287   8.987
 1598POPC   GL224698  21.692  23.071   8.964
 1598POPC   C1A24699  21.409  23.334   8.543
 1598POPC   D2A24700  21.428  23.046   8.212
 1598POPC   C3A24701  21.380  23.166   7.766
 1598POPC   C4A24702  21.094  23.305   7.439
 1598POPC   C1B24703  21.488  22.813   8.672
 1598POPC   C2B24704  21.399  22.514   8.325
 1598POPC   C3B24705  21.392  22.655   7.901
 1598POPC   C4B24706  21.244  22.751   7.497
 1599POPC   NC324707   0.554  23.845   9.867
 1599POPC   PO424708   0.137  23.490   9.711
 1599POPC   GL124709   0.482  23.617   9.373
 1599POPC   GL224710   0.551  23.363   9.114
 1599POPC   C1A24711   0.538  23.879   8.956
 1599POPC   D2A24712   0.364  23.885   8.492
 1599POPC   C3A24713   0.473  24.023   8.029
 1599POPC   C4A24714   0.513  24.194   7.576
 1599POPC   C1B24715   0.650  23.478   8.671
 1599POPC   C2B24716   0.754  23.637   8.274
 1599POPC   C3B24717   0.731  23.617   7.862
 1599POPC   C4B24718   0.379  23.694   7.555
 1600POPC   NC324719  20.552  40.230   9.467
 1600POPC   PO424720  20.583  40.855   9.508
 1600POPC   GL124721  20.519  40.804   9.101
 1600POPC   GL224722  20.740  40.538   9.111
 1600POPC   C1A24723  20.386  40.653   8.702
 1600POPC   D2A24724  20.601  40.755   8.332
 1600POPC   C3A24725  20.352  40.604   8.001
 1600POPC   C4A24726  20.247  40.813   7.655
 1600POPC   C1B24727  20.900  40.776   8.773
 1600POPC   C2B24728  21.109  40.631   8.432
 1600POPC   C3B24729  20.987  40.556   8.029
 1600POPC   C4B24730  20.758  40.844   7.788
 1601POPC   NC324731  23.021  35.422   9.515
 1601POPC   PO424732  23.085  34.694   9.583
 1601POPC   GL124733  23.145  35.016   9.230
 1601POPC   GL224734  22.845  35.236   9.075
 1601POPC   C1A24735  23.305  35.197   8.844
 1601POPC   D2A24736  23.071  35.120   8.475
 1601POPC   C3A24737  23.147  35.350   8.108
 1601POPC   C4A24738  22.948  35.427   7.778
 1601POPC   C1B24739  22.858  35.530   8.704
 1601POPC   C2B24740  22.863  35.758   8.276
 1601POPC   C3B24741  22.552  35.695   7.958
 1601POPC   C4B24742  22.485  35.498   7.539
 1602POPC   NC324743  20.957  25.856   9.476
 1602POPC   PO424744  20.328  25.996   9.763
 1602POPC   GL124745  20.468  26.065   9.286
 1602POPC   GL224746  20.632  25.837   9.065
 1602POPC   C1A24747  20.489  26.261   8.847
 1602POPC   D2A24748  20.588  26.066   8.441
 1602POPC   C3A24749  20.656  26.363   8.110
 1602POPC   C4A24750  20.441  26.270   7.716
 1602POPC   C1B24751  20.954  25.849   8.722
 1602POPC   C2B24752  21.061  25.927   8.266
 1602POPC   C3B24753  20.777  25.924   7.874
 1602POPC   C4B24754  20.820  26.088   7.360
 1603POPC   NC324755   4.191  24.917   9.457
 1603POPC   PO424756   4.555  25.517   9.595
 1603POPC   GL124757   4.481  25.280   9.199
 1603POPC   GL224758   4.107  25.211   9.061
 1603POPC   C1A24759   4.506  25.478   8.791
 1603POPC   D2A24760   4.394  25.676   8.409
 1603POPC   C3A24761   4.242  25.413   8.075
 1603POPC   C4A24762   4.325  25.600   7.687
 1603POPC   C1B24763   4.389  24.969   8.790
 1603POPC   C2B24764   4.539  25.129   8.404
 1603POPC   C3B24765   4.587  24.974   8.022
 1603POPC   C4B24766   4.437  25.101   7.665
 1604POPC   NC324767   6.055  34.985   9.407
 1604POPC   PO424768   5.803  35.606   9.544
 1604POPC   GL124769   5.955  35.418   9.162
 1604POPC   GL224770   5.623  35.272   9.074
 1604POPC   C1A24771   5.995  35.122   8.785
 1604POPC   D2A24772   5.696  35.125   8.485
 1604POPC   C3A24773   5.708  35.424   8.125
 1604POPC   C4A24774   5.953  35.390   7.769
 1604POPC   C1B24775   5.716  35.585   8.729
 1604POPC   C2B24776   5.553  35.856   8.399
 1604POPC   C3B24777   5.306  35.816   8.055
 1604POPC   C4B24778   5.609  35.781   7.767
 1605POPC   NC324779  38.689  39.787   9.640
 1605POPC   PO424780  38.272  40.356   9.519
 1605POPC   GL124781  38.477  40.125   9.227
 1605POPC   GL224782  38.462  39.826   9.098
 1605POPC   C1A24783  38.675  40.206   8.832
 1605POPC   D2A24784  38.536  40.101   8.428
 1605POPC   C3A24785  38.737  39.943   8.058
 1605POPC   C4A24786  38.658  39.748   7.634
 1605POPC   C1B24787  38.184  39.939   8.772
 1605POPC   C2B24788  38.017  39.819   8.399
 1605POPC   C3B24789  38.247  39.781   8.046
 1605POPC   C4B24790  38.092  39.792   7.638
 1606POPC   NC324791  36.755  38.161   9.552
 1606POPC   PO424792  37.151  38.738   9.521
 1606POPC   GL124793  36.932  38.576   9.159
 1606POPC   GL224794  36.925  38.189   9.075
 1606POPC   C1A24795  37.000  38.602   8.717
 1606POPC   D2A24796  37.264  38.630   8.370
 1606POPC   C3A24797  37.070  38.645   7.980
 1606POPC   C4A24798  37.159  38.286   7.722
 1606POPC   C1B24799  37.000  38.085   8.651
 1606POPC   C2B24800  36.825  38.307   8.304
 1606POPC   C3B24801  36.671  38.346   7.884
 1606POPC   C4B24802  36.536  38.155   7.514
 1607POPC   NC324803  38.786  30.381   9.473
 1607POPC   PO424804  38.457  30.823   9.826
 1607POPC   GL124805  38.383  30.719   9.324
 1607POPC   GL224806  37.996  30.700   9.261
 1607POPC   C1A24807  38.551  30.701   8.860
 1607POPC   D2A24808  38.789  30.606   8.462
 1607POPC   C3A24809  38.634  30.614   8.055
 1607POPC   C4A24810  38.405  30.390   7.779
 1607POPC   C1B24811  38.034  30.646   8.806
 1607POPC   C2B24812  38.262  30.765   8.422
 1607POPC   C3B24813  38.150  30.794   7.999
 1607POPC   C4B24814  38.064  31.016   7.636
 1608POPC   NC324815  25.531   7.963   9.476
 1608POPC   PO424816  24.936   8.262   9.532
 1608POPC   GL124817  25.067   8.046   9.200
 1608POPC   GL224818  25.355   8.216   9.058
 1608POPC   C1A24819  25.007   7.992   8.768
 1608POPC   D2A24820  25.267   8.148   8.473
 1608POPC   C3A24821  25.134   8.132   8.062
 1608POPC   C4A24822  25.035   8.148   7.653
 1608POPC   C1B24823  25.636   8.414   8.752
 1608POPC   C2B24824  25.529   8.594   8.360
 1608POPC   C3B24825  25.580   8.380   7.997
 1608POPC   C4B24826  25.461   8.419   7.566
 1609POPC   NC324827  32.579   1.594   9.478
 1609POPC   PO424828  32.090   1.056   9.545
 1609POPC   GL124829  32.264   1.242   9.224
 1609POPC   GL224830  32.453   0.923   9.210
 1609POPC   C1A24831  32.202   1.408   8.810
 1609POPC   D2A24832  32.009   1.134   8.492
 1609POPC   C3A24833  32.189   1.116   8.085
 1609POPC   C4A24834  32.110   1.278   7.697
 1609POPC   C1B24835  32.440   0.958   8.773
 1609POPC   C2B24836  32.642   1.017   8.363
 1609POPC   C3B24837  32.618   0.852   7.975
 1609POPC   C4B24838  32.439   0.885   7.612
 1610POPC   NC324839  23.747  23.256   9.341
 1610POPC   PO424840  23.432  22.687   9.495
 1610POPC   GL124841  23.625  22.828   9.078
 1610POPC   GL224842  24.001  22.802   9.105
 1610POPC   C1A24843  23.704  23.138   8.709
 1610POPC   D2A24844  23.744  23.048   8.281
 1610POPC   C3A24845  23.462  22.769   8.134
 1610POPC   C4A24846  23.560  22.837   7.728
 1610POPC   C1B24847  24.181  22.980   8.689
 1610POPC   C2B24848  24.236  23.108   8.262
 1610POPC   C3B24849  24.087  22.976   7.837
 1610POPC   C4B24850  23.957  22.775   7.411
 1611POPC   NC324851  44.755  32.892   9.545
 1611POPC   PO424852   0.102  33.458   9.614
 1611POPC   GL124853  44.911  33.204   9.163
 1611POPC   GL224854  44.577  32.975   9.089
 1611POPC   C1A24855  44.808  33.115   8.676
 1611POPC   D2A24856  44.643  33.334   8.318
 1611POPC   C3A24857  44.773  33.225   7.907
 1611POPC   C4A24858  44.797  32.835   7.776
 1611POPC   C1B24859  44.371  32.843   8.680
 1611POPC   C2B24860  44.463  32.848   8.218
 1611POPC   C3B24861  44.278  32.853   7.810
 1611POPC   C4B24862  44.252  32.762   7.371
 1612POPC   NC324863   0.666  28.490   9.577
 1612POPC   PO424864  44.939  28.398   9.663
 1612POPC   GL124865   0.241  28.300   9.266
 1612POPC   GL224866   0.620  28.276   9.130
 1612POPC   C1A24867   0.265  28.519   8.853
 1612POPC   D2A24868   0.223  28.688   8.443
 1612POPC   C3A24869   0.309  28.415   8.146
 1612POPC   C4A24870   0.361  28.226   7.782
 1612POPC   C1B24871   0.801  28.617   8.846
 1612POPC   C2B24872   0.754  28.645   8.378
 1612POPC   C3B24873   0.775  28.235   8.138
 1612POPC   C4B24874   0.847  28.127   7.720
 1613POPC   NC324875   7.854  28.415   9.643
 1613POPC   PO424876   7.225  28.390   9.611
 1613POPC   GL124877   7.497  28.284   9.240
 1613POPC   GL224878   7.734  28.514   9.110
 1613POPC   C1A24879   7.469  28.233   8.770
 1613POPC   D2A24880   7.669  28.349   8.374
 1613POPC   C3A24881   7.413  28.282   7.995
 1613POPC   C4A24882   7.374  28.153   7.544
 1613POPC   C1B24883   7.494  28.736   8.757
 1613POPC   C2B24884   7.212  28.660   8.437
 1613POPC   C3B24885   7.240  28.758   8.018
 1613POPC   C4B24886   7.251  28.638   7.601
 1614POPC   NC324887  24.042  19.046   9.615
 1614POPC   PO424888  24.147  19.657   9.573
 1614POPC   GL124889  23.909  19.343   9.221
 1614POPC   GL224890  23.768  18.990   9.193
 1614POPC   C1A24891  23.627  19.407   8.859
 1614POPC   D2A24892  23.457  19.365   8.428
 1614POPC   C3A24893  23.609  19.119   8.109
 1614POPC   C4A24894  23.805  19.224   7.743
 1614POPC   C1B24895  23.919  19.003   8.771
 1614POPC   C2B24896  24.051  19.016   8.334
 1614POPC   C3B24897  23.990  18.780   7.966
 1614POPC   C4B24898  23.613  18.744   7.726
 1615POPC   NC324899  33.272  24.316   9.492
 1615POPC   PO424900  32.598  24.468   9.451
 1615POPC   GL124901  32.926  24.567   9.202
 1615POPC   GL224902  32.814  24.335   8.994
 1615POPC   C1A24903  33.174  24.612   8.802
 1615POPC   D2A24904  33.080  24.336   8.447
 1615POPC   C3A24905  33.341  24.321   8.085
 1615POPC   C4A24906  33.126  24.555   7.784
 1615POPC   C1B24907  32.774  24.005   8.727
 1615POPC   C2B24908  32.669  24.058   8.292
 1615POPC   C3B24909  32.704  24.290   7.890
 1615POPC   C4B24910  32.926  24.216   7.462
 1616POPC   NC324911  21.155  12.854   9.486
 1616POPC   PO424912  21.831  12.539   9.469
 1616POPC   GL124913  21.540  12.744   9.196
 1616POPC   GL224914  21.216  12.518   9.134
 1616POPC   C1A24915  21.330  12.924   8.838
 1616POPC   D2A24916  21.402  12.671   8.488
 1616POPC   C3A24917  21.395  12.941   8.146
 1616POPC   C4A24918  21.443  13.070   7.744
 1616POPC   C1B24919  20.973  12.513   8.761
 1616POPC   C2B24920  21.027  12.298   8.374
 1616POPC   C3B24921  21.298  12.457   8.033
 1616POPC   C4B24922  21.043  12.730   7.790
 1617POPC   NC324923   6.374  32.418   9.309
 1617POPC   PO424924   6.782  31.912   9.396
 1617POPC   GL124925   6.696  32.092   9.079
 1617POPC   GL224926   6.876  32.382   9.109
 1617POPC   C1A24927   6.456  32.063   8.746
 1617POPC   D2A24928   6.653  32.167   8.423
 1617POPC   C3A24929   6.608  32.074   8.073
 1617POPC   C4A24930   6.695  32.141   7.675
 1617POPC   C1B24931   6.868  32.537   8.678
 1617POPC   C2B24932   6.745  32.628   8.234
 1617POPC   C3B24933   6.480  32.545   7.908
 1617POPC   C4B24934   6.441  32.564   7.446
 1618POPC   NC324935  20.946  34.551   9.770
 1618POPC   PO424936  21.509  34.911   9.585
 1618POPC   GL124937  21.241  34.841   9.249
 1618POPC   GL224938  21.106  34.496   9.271
 1618POPC   C1A24939  21.284  34.736   8.828
 1618POPC   D2A24940  21.583  34.526   8.612
 1618POPC   C3A24941  21.473  34.598   8.213
 1618POPC   C4A24942  21.555  34.727   7.811
 1618POPC   C1B24943  21.239  34.247   8.896
 1618POPC   C2B24944  21.104  34.238   8.480
 1618POPC   C3B24945  21.254  34.173   8.071
 1618POPC   C4B24946  21.371  34.304   7.648
 1619POPC   NC324947   8.115  16.337   9.346
 1619POPC   PO424948   8.629  16.760   9.276
 1619POPC   GL124949   8.341  17.060   9.042
 1619POPC   GL224950   7.994  17.055   9.178
 1619POPC   C1A24951   8.277  17.042   8.638
 1619POPC   D2A24952   8.293  16.691   8.411
 1619POPC   C3A24953   8.430  16.704   8.026
 1619POPC   C4A24954   8.215  16.507   7.676
 1619POPC   C1B24955   7.850  16.808   8.819
 1619POPC   C2B24956   7.797  16.823   8.385
 1619POPC   C3B24957   7.960  16.850   7.978
 1619POPC   C4B24958   8.028  16.972   7.551
 1620POPC   NC324959   5.513  20.375   9.492
 1620POPC   PO424960   6.165  20.358   9.484
 1620POPC   GL124961   5.979  20.676   9.209
 1620POPC   GL224962   6.185  20.953   9.138
 1620POPC   C1A24963   5.725  20.640   8.817
 1620POPC   D2A24964   5.643  20.361   8.457
 1620POPC   C3A24965   5.749  20.519   8.045
 1620POPC   C4A24966   5.983  20.374   7.702
 1620POPC   C1B24967   6.224  20.819   8.749
 1620POPC   C2B24968   6.108  20.635   8.391
 1620POPC   C3B24969   6.195  20.753   7.986
 1620POPC   C4B24970   6.171  20.878   7.547
 1621POPC   NC324971  23.485  11.668   9.499
 1621POPC   PO424972  23.824  11.062   9.505
 1621POPC   GL124973  23.824  11.085   9.115
 1621POPC   GL224974  23.687  11.378   9.114
 1621POPC   C1A24975  23.675  11.022   8.705
 1621POPC   D2A24976  23.721  11.287   8.370
 1621POPC   C3A24977  23.707  11.187   7.967
 1621POPC   C4A24978  23.327  11.278   7.736
 1621POPC   C1B24979  23.896  11.556   8.780
 1621POPC   C2B24980  23.875  11.767   8.407
 1621POPC   C3B24981  23.648  11.723   8.036
 1621POPC   C4B24982  23.733  11.608   7.648
 1622POPC   NC324983  36.447  29.405   9.444
 1622POPC   PO424984  37.031  29.231   9.715
 1622POPC   GL124985  36.892  29.175   9.231
 1622POPC   GL224986  36.613  29.203   8.999
 1622POPC   C1A24987  37.046  29.150   8.775
 1622POPC   D2A24988  36.751  29.038   8.437
 1622POPC   C3A24989  36.980  28.981   8.082
 1622POPC   C4A24990  36.938  29.005   7.663
 1622POPC   C1B24991  36.708  29.504   8.644
 1622POPC   C2B24992  36.842  29.494   8.230
 1622POPC   C3B24993  36.597  29.318   7.884
 1622POPC   C4B24994  36.546  29.300   7.420
 1623POPC   NC324995   6.941  10.912   9.439
 1623POPC   PO424996   6.517  11.459   9.576
 1623POPC   GL124997   6.579  11.229   9.189
 1623POPC   GL224998   6.395  11.512   9.070
 1623POPC   C1A24999   6.619  10.934   8.836
 1623POPC   D2A25000   6.526  10.884   8.392
 1623POPC   C3A25001   6.636  11.181   8.061
 1623POPC   C4A25002   6.931  11.310   7.741
 1623POPC   C1B25003   6.611  11.417   8.696
 1623POPC   C2B25004   6.605  11.615   8.338
 1623POPC   C3B25005   6.380  11.655   7.991
 1623POPC   C4B25006   6.560  11.631   7.600
 1624POPC   NC325007   6.583  16.745   9.584
 1624POPC   PO425008   6.170  17.163   9.397
 1624POPC   GL125009   6.356  16.828   9.135
 1624POPC   GL225010   6.747  16.702   9.113
 1624POPC   C1A25011   6.419  16.637   8.744
 1624POPC   D2A25012   6.653  16.454   8.456
 1624POPC   C3A25013   6.494  16.572   8.102
 1624POPC   C4A25014   6.650  16.650   7.728
 1624POPC   C1B25015   6.919  16.848   8.738
 1624POPC   C2B25016   6.791  16.935   8.337
 1624POPC   C3B25017   7.006  16.643   8.074
 1624POPC   C4B25018   7.167  16.744   7.684
 1625POPC   NC325019  28.923   9.511   9.578
 1625POPC   PO425020  28.826  10.188   9.627
 1625POPC   GL125021  28.875   9.925   9.217
 1625POPC   GL225022  29.185   9.717   9.203
 1625POPC   C1A25023  28.778   9.955   8.728
 1625POPC   D2A25024  28.716   9.816   8.292
 1625POPC   C3A25025  28.963   9.887   7.927
 1625POPC   C4A25026  29.080   9.564   7.655
 1625POPC   C1B25027  29.251   9.752   8.757
 1625POPC   C2B25028  29.299   9.556   8.371
 1625POPC   C3B25029  29.423   9.693   8.002
 1625POPC   C4B25030  29.410   9.934   7.627
 1626POPC   NC325031   2.001  31.879   9.463
 1626POPC   PO425032   2.038  31.242   9.350
 1626POPC   GL125033   2.177  31.567   9.080
 1626POPC   GL225034   1.832  31.657   9.040
 1626POPC   C1A25035   2.106  31.562   8.627
 1626POPC   D2A25036   1.775  31.373   8.361
 1626POPC   C3A25037   2.026  31.306   7.999
 1626POPC   C4A25038   2.140  31.717   7.856
 1626POPC   C1B25039   1.589  31.759   8.689
 1626POPC   C2B25040   1.676  31.895   8.309
 1626POPC   C3B25041   1.639  31.673   7.949
 1626POPC   C4B25042   1.720  31.871   7.592
 1627POPC   NC325043  14.707  13.272   9.485
 1627POPC   PO425044  14.300  13.857   9.634
 1627POPC   GL125045  14.382  13.652   9.235
 1627POPC   GL225046  14.701  13.787   9.174
 1627POPC   C1A25047  14.210  13.532   8.807
 1627POPC   D2A25048  13.974  13.592   8.400
 1627POPC   C3A25049  14.233  13.550   8.032
 1627POPC   C4A25050  14.411  13.834   7.792
 1627POPC   C1B25051  14.730  13.495   8.798
 1627POPC   C2B25052  14.649  13.359   8.354
 1627POPC   C3B25053  14.744  13.483   7.901
 1627POPC   C4B25054  14.699  13.645   7.423
 1628POPC   NC325055   3.029   3.189   9.745
 1628POPC   PO425056   2.692   3.743   9.483
 1628POPC   GL125057   2.867   3.513   9.169
 1628POPC   GL225058   2.560   3.471   8.989
 1628POPC   C1A25059   3.020   3.487   8.728
 1628POPC   D2A25060   2.993   3.463   8.277
 1628POPC   C3A25061   2.586   3.434   8.079
 1628POPC   C4A25062   2.352   3.080   7.842
 1628POPC   C1B25063   2.584   3.767   8.622
 1628POPC   C2B25064   2.747   3.947   8.228
 1628POPC   C3B25065   2.768   3.874   7.775
 1628POPC   C4B25066   2.935   3.611   7.435
 1629POPC   NC325067  24.131  35.108   9.399
 1629POPC   PO425068  23.505  35.344   9.509
 1629POPC   GL125069  23.724  35.421   9.088
 1629POPC   GL225070  23.849  35.797   9.005
 1629POPC   C1A25071  23.793  35.492   8.623
 1629POPC   D2A25072  24.074  35.260   8.349
 1629POPC   C3A25073  23.902  35.109   7.954
 1629POPC   C4A25074  23.537  35.269   7.765
 1629POPC   C1B25075  23.383  35.719   8.863
 1629POPC   C2B25076  23.322  35.592   8.498
 1629POPC   C3B25077  23.594  35.604   8.150
 1629POPC   C4B25078  23.364  35.752   7.801
 1630POPC   NC325079   9.192  12.315   9.292
 1630POPC   PO425080   9.238  12.937   9.547
 1630POPC   GL125081   9.269  12.843   9.134
 1630POPC   GL225082   8.929  12.761   9.120
 1630POPC   C1A25083   9.279  12.750   8.685
 1630POPC   D2A25084   9.341  12.533   8.283
 1630POPC   C3A25085   9.331  12.810   7.936
 1630POPC   C4A25086   9.208  12.810   7.489
 1630POPC   C1B25087   8.785  12.858   8.717
 1630POPC   C2B25088   8.955  13.073   8.347
 1630POPC   C3B25089   8.827  12.949   7.938
 1630POPC   C4B25090   8.463  12.654   7.838
 1631POPC   NC325091  37.581   0.015   9.416
 1631POPC   PO425092  37.988  44.532   9.398
 1631POPC   GL125093  37.716  44.612   9.100
 1631POPC   GL225094  37.368  44.566   9.196
 1631POPC   C1A25095  37.705  44.426   8.717
 1631POPC   D2A25096  37.541  44.300   8.344
 1631POPC   C3A25097  37.688  44.564   8.002
 1631POPC   C4A25098  37.689  44.583   7.549
 1631POPC   C1B25099  37.359  44.806   8.781
 1631POPC   C2B25100  37.291  44.774   8.335
 1631POPC   C3B25101  37.414   0.008   7.988
 1631POPC   C4B25102  37.711   0.066   7.671
 1632POPC   NC325103  21.640   4.135   9.640
 1632POPC   PO425104  20.977   4.427   9.660
 1632POPC   GL125105  21.286   4.401   9.314
 1632POPC   GL225106  21.381   4.084   9.171
 1632POPC   C1A25107  21.559   4.492   8.949
 1632POPC   D2A25108  21.666   4.462   8.521
 1632POPC   C3A25109  21.594   4.239   8.151
 1632POPC   C4A25110  21.348   4.459   7.824
 1632POPC   C1B25111  21.439   3.744   8.864
 1632POPC   C2B25112  21.341   3.733   8.440
 1632POPC   C3B25113  21.217   3.902   8.047
 1632POPC   C4B25114  21.485   3.971   7.712
 1633POPC   NC325115  42.496  21.672   9.564
 1633POPC   PO425116  42.570  21.073   9.580
 1633POPC   GL125117  42.397  21.296   9.190
 1633POPC   GL225118  42.172  21.619   9.160
 1633POPC   C1A25119  42.398  21.407   8.744
 1633POPC   D2A25120  42.437  21.747   8.452
 1633POPC   C3A25121  42.450  21.603   8.033
 1633POPC   C4A25122  42.752  21.508   7.697
 1633POPC   C1B25123  41.972  21.712   8.743
 1633POPC   C2B25124  41.945  21.657   8.274
 1633POPC   C3B25125  41.991  21.724   7.810
 1633POPC   C4B25126  42.003  21.640   7.360
 1634POPC   NC325127  11.964  43.619   9.468
 1634POPC   PO425128  12.532  44.014   9.404
 1634POPC   GL125129  12.200  43.895   9.125
 1634POPC   GL225130  11.872  44.068   9.216
 1634POPC   C1A25131  12.025  43.711   8.744
 1634POPC   D2A25132  12.232  43.522   8.361
 1634POPC   C3A25133  12.100  43.768   8.009
 1634POPC   C4A25134  12.224  44.019   7.656
 1634POPC   C1B25135  11.716  44.137   8.793
 1634POPC   C2B25136  11.883  44.087   8.363
 1634POPC   C3B25137  11.828  44.243   7.916
 1634POPC   C4B25138  11.886  44.320   7.458
 1635POPC   NC325139  31.767  35.206   9.311
 1635POPC   PO425140  31.204  35.666   9.381
 1635POPC   GL125141  31.359  35.489   9.076
 1635POPC   GL225142  31.237  35.199   9.195
 1635POPC   C1A25143  31.391  35.550   8.641
 1635POPC   D2A25144  31.477  35.736   8.266
 1635POPC   C3A25145  31.533  35.430   7.954
 1635POPC   C4A25146  31.241  35.324   7.654
 1635POPC   C1B25147  31.357  35.074   8.794
 1635POPC   C2B25148  31.443  35.044   8.363
 1635POPC   C3B25149  31.329  34.930   7.954
 1635POPC   C4B25150  31.531  34.914   7.541
 1636POPC   NC325151  28.551  20.441   9.463
 1636POPC   PO425152  27.935  20.474   9.614
 1636POPC   GL125153  28.100  20.627   9.197
 1636POPC   GL225154  28.412  20.849   9.196
 1636POPC   C1A25155  28.206  20.734   8.755
 1636POPC   D2A25156  28.034  20.876   8.351
 1636POPC   C3A25157  28.133  20.711   7.920
 1636POPC   C4A25158  28.141  20.744   7.424
 1636POPC   C1B25159  28.711  20.833   8.830
 1636POPC   C2B25160  28.586  20.733   8.387
 1636POPC   C3B25161  28.696  20.833   7.956
 1636POPC   C4B25162  28.538  20.546   7.671
 1637POPC   NC325163  12.494  40.303   9.864
 1637POPC   PO425164  12.365  39.706   9.831
 1637POPC   GL125165  12.299  39.994   9.412
 1637POPC   GL225166  12.011  39.885   9.223
 1637POPC   C1A25167  12.258  40.206   8.932
 1637POPC   D2A25168  12.340  40.100   8.479
 1637POPC   C3A25169  12.241  40.205   8.027
 1637POPC   C4A25170  12.295  39.819   7.774
 1637POPC   C1B25171  11.916  39.831   8.764
 1637POPC   C2B25172  11.836  39.975   8.333
 1637POPC   C3B25173  11.800  39.945   7.883
 1637POPC   C4B25174  11.830  39.710   7.532
 1638POPC   NC325175  24.916  40.664   9.397
 1638POPC   PO425176  25.566  40.733   9.563
 1638POPC   GL125177  25.378  40.754   9.171
 1638POPC   GL225178  25.450  41.122   9.132
 1638POPC   C1A25179  25.193  40.548   8.783
 1638POPC   D2A25180  25.258  40.687   8.353
 1638POPC   C3A25181  25.153  40.434   8.009
 1638POPC   C4A25182  25.374  40.352   7.623
 1638POPC   C1B25183  25.377  41.034   8.723
 1638POPC   C2B25184  25.490  41.198   8.346
 1638POPC   C3B25185  25.362  41.205   7.938
 1638POPC   C4B25186  25.471  40.894   7.662
 1639POPC   NC325187   4.172  10.012   9.466
 1639POPC   PO425188   4.736   9.646   9.441
 1639POPC   GL125189   4.482   9.737   9.058
 1639POPC   GL225190   4.312  10.051   8.999
 1639POPC   C1A25191   4.399   9.766   8.600
 1639POPC   D2A25192   4.071   9.697   8.320
 1639POPC   C3A25193   4.197   9.514   7.961
 1639POPC   C4A25194   4.628   9.487   7.796
 1639POPC   C1B25195   4.566  10.256   8.744
 1639POPC   C2B25196   4.739  10.114   8.368
 1639POPC   C3B25197   4.523   9.890   8.094
 1639POPC   C4B25198   4.417   9.968   7.706
 1640POPC   NC325199  12.379  15.855   9.785
 1640POPC   PO425200  11.806  16.104   9.524
 1640POPC   GL125201  11.963  15.941   9.160
 1640POPC   GL225202  11.908  15.592   9.161
 1640POPC   C1A25203  12.159  16.131   8.800
 1640POPC   D2A25204  12.368  15.983   8.466
 1640POPC   C3A25205  12.256  16.162   8.089
 1640POPC   C4A25206  12.168  16.026   7.701
 1640POPC   C1B25207  12.047  15.644   8.726
 1640POPC   C2B25208  12.205  15.532   8.293
 1640POPC   C3B25209  12.198  15.533   7.840
 1640POPC   C4B25210  12.026  15.555   7.377
 1641POPC   NC325211  29.386  18.953   9.611
 1641POPC   PO425212  28.771  19.219   9.393
 1641POPC   GL125213  29.069  19.192   9.079
 1641POPC   GL225214  29.205  18.885   9.119
 1641POPC   C1A25215  28.980  19.073   8.642
 1641POPC   D2A25216  29.089  19.257   8.242
 1641POPC   C3A25217  28.886  19.163   7.862
 1641POPC   C4A25218  28.937  18.857   7.562
 1641POPC   C1B25219  29.452  18.893   8.729
 1641POPC   C2B25220  29.365  18.820   8.304
 1641POPC   C3B25221  29.358  18.970   7.864
 1641POPC   C4B25222  29.419  18.980   7.385
 1642POPC   NC325223  35.014  13.409   9.633
 1642POPC   PO425224  35.611  13.653   9.449
 1642POPC   GL125225  35.434  13.697   9.066
 1642POPC   GL225226  35.106  13.702   9.157
 1642POPC   C1A25227  35.298  13.889   8.690
 1642POPC   D2A25228  35.362  14.113   8.334
 1642POPC   C3A25229  35.391  13.821   7.981
 1642POPC   C4A25230  35.516  13.396   7.845
 1642POPC   C1B25231  35.039  13.469   8.771
 1642POPC   C2B25232  35.241  13.336   8.377
 1642POPC   C3B25233  35.025  13.325   7.997
 1642POPC   C4B25234  34.843  13.662   7.823
 1643POPC   NC325235   7.880  38.536   9.473
 1643POPC   PO425236   8.481  38.153   9.545
 1643POPC   GL125237   8.310  38.430   9.187
 1643POPC   GL225238   7.948  38.436   8.987
 1643POPC   C1A25239   8.507  38.605   8.825
 1643POPC   D2A25240   8.521  38.669   8.376
 1643POPC   C3A25241   8.201  38.556   8.040
 1643POPC   C4A25242   8.300  38.450   7.570
 1643POPC   C1B25243   7.757  38.169   8.642
 1643POPC   C2B25244   7.884  38.073   8.223
 1643POPC   C3B25245   7.947  38.180   7.800
 1643POPC   C4B25246   7.820  38.511   7.462
 1644POPC   NC325247  16.815  19.705   9.535
 1644POPC   PO425248  16.322  20.019   9.550
 1644POPC   GL125249  16.599  20.008   9.163
 1644POPC   GL225250  16.975  20.015   9.145
 1644POPC   C1A25251  16.592  19.986   8.696
 1644POPC   D2A25252  16.308  19.820   8.374
 1644POPC   C3A25253  16.383  19.916   7.934
 1644POPC   C4A25254  16.440  19.878   7.497
 1644POPC   C1B25255  17.108  20.055   8.699
 1644POPC   C2B25256  17.044  19.872   8.282
 1644POPC   C3B25257  16.877  20.018   7.883
 1644POPC   C4B25258  16.944  19.968   7.446
 1645POPC   NC325259  35.490  22.407   9.455
 1645POPC   PO425260  35.424  21.810   9.594
 1645POPC   GL125261  35.242  22.023   9.200
 1645POPC   GL225262  35.173  22.398   9.058
 1645POPC   C1A25263  35.543  22.066   8.845
 1645POPC   D2A25264  35.781  22.012   8.449
 1645POPC   C3A25265  35.545  21.888   8.091
 1645POPC   C4A25266  35.451  21.996   7.655
 1645POPC   C1B25267  35.532  22.595   8.789
 1645POPC   C2B25268  35.739  22.594   8.339
 1645POPC   C3B25269  35.533  22.403   7.973
 1645POPC   C4B25270  35.079  22.266   7.936
 1646POPC   NC325271  42.758  40.167   9.519
 1646POPC   PO425272  42.001  40.154   9.586
 1646POPC   GL125273  42.311  40.144   9.257
 1646POPC   GL225274  42.495  39.841   9.194
 1646POPC   C1A25275  42.389  40.194   8.807
 1646POPC   D2A25276  42.098  40.151   8.445
 1646POPC   C3A25277  42.215  40.220   8.005
 1646POPC   C4A25278  42.545  40.093   7.709
 1646POPC   C1B25279  42.574  39.723   8.750
 1646POPC   C2B25280  42.523  39.877   8.303
 1646POPC   C3B25281  42.575  39.629   7.900
 1646POPC   C4B25282  42.491  39.615   7.427
 1647POPC   NC325283  30.588  18.057   9.450
 1647POPC   PO425284  30.352  18.675   9.346
 1647POPC   GL125285  30.686  18.520   9.049
 1647POPC   GL225286  30.688  18.156   8.963
 1647POPC   C1A25287  31.024  18.465   8.742
 1647POPC   D2A25288  31.019  18.074   8.518
 1647POPC   C3A25289  30.825  18.149   8.108
 1647POPC   C4A25290  31.053  18.088   7.724
 1647POPC   C1B25291  30.536  18.344   8.584
 1647POPC   C2B25292  30.420  18.589   8.247
 1647POPC   C3B25293  30.594  18.573   7.849
 1647POPC   C4B25294  30.578  18.222   7.617
 1648POPC   NC325295  17.415  38.656   9.550
 1648POPC   PO425296  17.511  38.039   9.373
 1648POPC   GL125297  17.514  38.410   9.120
 1648POPC   GL225298  17.775  38.672   9.184
 1648POPC   C1A25299  17.370  38.547   8.748
 1648POPC   D2A25300  17.515  38.522   8.358
 1648POPC   C3A25301  17.276  38.390   8.040
 1648POPC   C4A25302  17.153  38.597   7.678
 1648POPC   C1B25303  17.886  38.507   8.781
 1648POPC   C2B25304  17.979  38.678   8.387
 1648POPC   C3B25305  17.905  38.404   8.028
 1648POPC   C4B25306  17.637  38.347   7.688
 1649POPC   NC325307  12.049  10.424   9.487
 1649POPC   PO425308  11.868  10.880   9.175
 1649POPC   GL125309  11.852  10.537   8.962
 1649POPC   GL225310  12.168  10.339   8.997
 1649POPC   C1A25311  11.666  10.536   8.585
 1649POPC   D2A25312  11.892  10.428   8.317
 1649POPC   C3A25313  11.800  10.711   8.024
 1649POPC   C4A25314  11.704  10.567   7.635
 1649POPC   C1B25315  12.273  10.603   8.656
 1649POPC   C2B25316  12.381  10.531   8.236
 1649POPC   C3B25317  12.183  10.395   7.887
 1649POPC   C4B25318  12.163  10.737   7.617
 1650POPC   NC325319   7.321  16.199   9.447
 1650POPC   PO425320   7.648  15.620   9.571
 1650POPC   GL125321   7.484  15.711   9.115
 1650POPC   GL225322   7.362  16.052   8.973
 1650POPC   C1A25323   7.495  15.651   8.630
 1650POPC   D2A25324   7.651  15.867   8.242
 1650POPC   C3A25325   7.590  15.667   7.820
 1650POPC   C4A25326   7.471  15.783   7.381
 1650POPC   C1B25327   7.012  16.277   8.781
 1650POPC   C2B25328   7.074  16.201   8.350
 1650POPC   C3B25329   7.250  16.053   7.974
 1650POPC   C4B25330   7.256  16.251   7.595
 1651POPC   NC325331  32.380  17.970   9.451
 1651POPC   PO425332  31.861  18.393   9.394
 1651POPC   GL125333  32.082  18.197   9.093
 1651POPC   GL225334  31.943  17.831   9.178
 1651POPC   C1A25335  32.427  18.198   8.761
 1651POPC   D2A25336  32.701  18.334   8.416
 1651POPC   C3A25337  32.430  18.230   8.092
 1651POPC   C4A25338  32.299  18.379   7.718
 1651POPC   C1B25339  32.003  17.880   8.718
 1651POPC   C2B25340  32.035  18.250   8.443
 1651POPC   C3B25341  31.919  18.209   8.037
 1651POPC   C4B25342  32.102  17.875   7.776
 1652POPC   NC325343  25.802  37.954   9.561
 1652POPC   PO425344  26.454  38.210   9.636
 1652POPC   GL125345  26.204  38.300   9.260
 1652POPC   GL225346  25.843  38.310   9.176
 1652POPC   C1A25347  26.207  38.568   8.878
 1652POPC   D2A25348  26.391  38.806   8.540
 1652POPC   C3A25349  26.356  38.707   8.091
 1652POPC   C4A25350  26.224  38.599   7.673
 1652POPC   C1B25351  25.728  38.440   8.731
 1652POPC   C2B25352  25.543  38.428   8.318
 1652POPC   C3B25353  25.728  38.478   7.893
 1652POPC   C4B25354  25.863  38.277   7.486
 1653POPC   NC325355   2.948  37.850   9.571
 1653POPC   PO425356   3.134  37.185   9.678
 1653POPC   GL125357   3.003  37.440   9.271
 1653POPC   GL225358   2.668  37.632   9.198
 1653POPC   C1A25359   3.080  37.766   8.896
 1653POPC   D2A25360   2.929  37.947   8.437
 1653POPC   C3A25361   2.876  37.810   8.007
 1653POPC   C4A25362   2.794  37.403   7.789
 1653POPC   C1B25363   2.614  37.654   8.736
 1653POPC   C2B25364   2.671  37.436   8.340
 1653POPC   C3B25365   2.372  37.255   8.062
 1653POPC   C4B25366   2.289  37.529   7.755
 1654POPC   NC325367   4.449  18.973   9.430
 1654POPC   PO425368   4.285  19.552   9.635
 1654POPC   GL125369   4.221  19.327   9.181
 1654POPC   GL225370   4.543  19.328   8.994
 1654POPC   C1A25371   4.185  18.974   8.839
 1654POPC   D2A25372   4.109  18.961   8.392
 1654POPC   C3A25373   4.356  19.168   8.069
 1654POPC   C4A25374   4.334  19.021   7.636
 1654POPC   C1B25375   4.671  18.953   8.751
 1654POPC   C2B25376   4.625  18.770   8.326
 1654POPC   C3B25377   4.806  18.899   7.935
 1654POPC   C4B25378   4.792  19.196   7.581
 1655POPC   NC325379  30.014  20.840   9.667
 1655POPC   PO425380  29.629  21.321   9.566
 1655POPC   GL125381  29.823  21.363   9.177
 1655POPC   GL225382  29.962  21.045   9.201
 1655POPC   C1A25383  29.790  21.307   8.720
 1655POPC   D2A25384  29.992  21.545   8.366
 1655POPC   C3A25385  29.770  21.478   7.983
 1655POPC   C4A25386  29.674  21.578   7.554
 1655POPC   C1B25387  30.236  21.016   8.858
 1655POPC   C2B25388  30.113  20.995   8.441
 1655POPC   C3B25389  30.174  21.162   8.036
 1655POPC   C4B25390  30.104  21.325   7.626
 1656POPC   NC325391  25.201  24.844   9.552
 1656POPC   PO425392  25.546  24.240   9.644
 1656POPC   GL125393  25.291  24.294   9.234
 1656POPC   GL225394  25.311  24.641   9.119
 1656POPC   C1A25395  25.286  24.263   8.755
 1656POPC   D2A25396  24.979  24.341   8.396
 1656POPC   C3A25397  25.147  24.325   7.961
 1656POPC   C4A25398  25.596  24.276   7.919
 1656POPC   C1B25399  25.071  24.724   8.757
 1656POPC   C2B25400  25.232  24.779   8.337
 1656POPC   C3B25401  25.137  24.846   7.883
 1656POPC   C4B25402  25.013  24.635   7.492
 1657POPC   NC325403  10.631  22.998   9.408
 1657POPC   PO425404  10.009  22.759   9.499
 1657POPC   GL125405  10.302  22.705   9.182
 1657POPC   GL225406  10.210  23.001   9.045
 1657POPC   C1A25407  10.645  22.642   8.860
 1657POPC   D2A25408  10.651  22.842   8.462
 1657POPC   C3A25409  10.538  22.617   8.098
 1657POPC   C4A25410  10.410  22.896   7.780
 1657POPC   C1B25411  10.435  23.242   8.727
 1657POPC   C2B25412  10.666  23.364   8.334
 1657POPC   C3B25413  10.555  23.387   7.860
 1657POPC   C4B25414  10.234  23.389   7.514
 1658POPC   NC325415  10.887  44.832   9.478
 1658POPC   PO425416  10.130  44.656   9.411
 1658POPC   GL125417  10.359  44.504   9.118
 1658POPC   GL225418  10.665  44.576   9.128
 1658POPC   C1A25419  10.397  44.568   8.694
 1658POPC   D2A25420  10.338  44.264   8.394
 1658POPC   C3A25421  10.371  44.505   8.036
 1658POPC   C4A25422  10.210  44.471   7.630
 1658POPC   C1B25423  10.852  44.810   8.781
 1658POPC   C2B25424  10.717  44.830   8.344
 1658POPC   C3B25425  10.854  44.797   7.907
 1658POPC   C4B25426  10.653  44.689   7.495
 1659POPC   NC325427  38.525  41.542   9.871
 1659POPC   PO425428  38.007  41.665   9.469
 1659POPC   GL125429  38.226  41.363   9.149
 1659POPC   GL225430  38.622  41.375   9.052
 1659POPC   C1A25431  38.205  41.378   8.708
 1659POPC   D2A25432  38.055  41.339   8.290
 1659POPC   C3A25433  38.438  41.385   8.073
 1659POPC   C4A25434  38.556  41.213   7.678
 1659POPC   C1B25435  38.673  41.763   8.785
 1659POPC   C2B25436  38.746  41.997   8.426
 1659POPC   C3B25437  38.641  41.876   8.042
 1659POPC   C4B25438  38.519  41.721   7.689
 1660POPC   NC325439  29.729  27.428   9.447
 1660POPC   PO425440  29.133  27.748   9.618
 1660POPC   GL125441  29.235  27.508   9.204
 1660POPC   GL225442  28.992  27.235   9.134
 1660POPC   C1A25443  29.227  27.520   8.714
 1660POPC   D2A25444  29.080  27.768   8.320
 1660POPC   C3A25445  29.219  27.668   7.890
 1660POPC   C4A25446  29.499  27.842   7.581
 1660POPC   C1B25447  28.746  27.287   8.753
 1660POPC   C2B25448  28.925  27.296   8.317
 1660POPC   C3B25449  28.843  27.291   7.879
 1660POPC   C4B25450  29.001  27.104   7.510
 1661POPC   NC325451  26.366   8.481   9.522
 1661POPC   PO425452  25.614   8.426   9.453
 1661POPC   GL125453  25.907   8.181   9.145
 1661POPC   GL225454  26.284   8.268   9.090
 1661POPC   C1A25455  26.053   8.040   8.717
 1661POPC   D2A25456  26.015   8.290   8.345
 1661POPC   C3A25457  25.987   8.035   8.010
 1661POPC   C4A25458  25.695   7.983   7.696
 1661POPC   C1B25459  26.202   8.536   8.762
 1661POPC   C2B25460  26.409   8.644   8.357
 1661POPC   C3B25461  26.371   8.567   7.917
 1661POPC   C4B25462  26.004   8.414   7.679
 1662POPC   NC325463  11.211  33.621   9.699
 1662POPC   PO425464  11.395  34.273   9.659
 1662POPC   GL125465  11.257  34.046   9.262
 1662POPC   GL225466  11.211  33.681   9.194
 1662POPC   C1A25467  11.244  34.036   8.807
 1662POPC   D2A25468  11.512  33.846   8.488
 1662POPC   C3A25469  11.372  33.984   8.091
 1662POPC   C4A25470  11.486  34.119   7.679
 1662POPC   C1B25471  11.185  33.520   8.770
 1662POPC   C2B25472  11.103  33.604   8.321
 1662POPC   C3B25473  11.405  33.496   7.966
 1662POPC   C4B25474  11.395  33.187   7.657
 1663POPC   NC325475  33.847  33.997   9.444
 1663POPC   PO425476  33.329  33.603   9.481
 1663POPC   GL125477  33.419  33.866   9.149
 1663POPC   GL225478  33.707  33.664   9.083
 1663POPC   C1A25479  33.597  34.105   8.813
 1663POPC   D2A25480  33.779  34.142   8.395
 1663POPC   C3A25481  33.655  33.933   8.010
 1663POPC   C4A25482  33.962  33.697   7.763
 1663POPC   C1B25483  33.740  33.646   8.649
 1663POPC   C2B25484  33.497  33.481   8.343
 1663POPC   C3B25485  33.577  33.407   7.924
 1663POPC   C4B25486  33.427  33.234   7.580
 1664POPC   NC325487  34.681  43.641   9.802
 1664POPC   PO425488  34.151  43.268   9.425
 1664POPC   GL125489  34.370  43.608   9.203
 1664POPC   GL225490  34.396  43.981   9.304
 1664POPC   C1A25491  34.616  43.712   8.843
 1664POPC   D2A25492  34.452  43.733   8.425
 1664POPC   C3A25493  34.581  43.942   8.086
 1664POPC   C4A25494  34.528  43.763   7.703
 1664POPC   C1B25495  34.620  44.206   8.967
 1664POPC   C2B25496  34.689  44.192   8.528
 1664POPC   C3B25497  34.914  44.334   8.139
 1664POPC   C4B25498  34.830  44.181   7.709
 1665POPC   NC325499  44.945  14.135   9.742
 1665POPC   PO425500  44.363  13.912   9.769
 1665POPC   GL125501  44.481  14.126   9.317
 1665POPC   GL225502  44.792  14.304   9.171
 1665POPC   C1A25503  44.461  14.175   8.820
 1665POPC   D2A25504  44.489  14.510   8.501
 1665POPC   C3A25505  44.536  14.410   8.075
 1665POPC   C4A25506  44.832  14.451   7.793
 1665POPC   C1B25507  44.942  14.453   8.741
 1665POPC   C2B25508   0.060  14.540   8.260
 1665POPC   C3B25509  44.999  14.899   7.909
 1665POPC   C4B25510  44.596  14.958   7.655
 1666POPC   NC325511  21.180  25.209   9.525
 1666POPC   PO425512  21.750  24.899   9.348
 1666POPC   GL125513  21.489  25.220   9.106
 1666POPC   GL225514  21.163  25.047   9.045
 1666POPC   C1A25515  21.292  25.386   8.698
 1666POPC   D2A25516  21.271  25.213   8.276
 1666POPC   C3A25517  21.200  25.527   7.967
 1666POPC   C4A25518  21.416  25.540   7.568
 1666POPC   C1B25519  20.857  25.037   8.734
 1666POPC   C2B25520  20.806  24.981   8.322
 1666POPC   C3B25521  20.947  24.889   7.982
 1666POPC   C4B25522  21.291  25.065   7.767
 1667POPC   NC325523  30.107  40.410   9.500
 1667POPC   PO425524  29.668  40.905   9.662
 1667POPC   GL125525  29.792  40.793   9.248
 1667POPC   GL225526  30.170  40.851   9.223
 1667POPC   C1A25527  29.788  40.770   8.791
 1667POPC   D2A25528  29.663  40.683   8.343
 1667POPC   C3A25529  29.958  40.650   7.988
 1667POPC   C4A25530  29.789  40.732   7.566
 1667POPC   C1B25531  30.244  41.061   8.836
 1667POPC   C2B25532  30.081  41.002   8.434
 1667POPC   C3B25533  30.270  41.069   8.053
 1667POPC   C4B25534  30.193  41.017   7.651
 1668POPC   NC325535   7.408  20.992   9.474
 1668POPC   PO425536   7.238  21.577   9.442
 1668POPC   GL125537   7.449  21.380   9.121
 1668POPC   GL225538   7.718  21.619   9.148
 1668POPC   C1A25539   7.292  21.295   8.714
 1668POPC   D2A25540   7.381  21.524   8.370
 1668POPC   C3A25541   7.325  21.281   8.038
 1668POPC   C4A25542   7.416  21.347   7.607
 1668POPC   C1B25543   7.777  21.471   8.725
 1668POPC   C2B25544   7.926  21.530   8.327
 1668POPC   C3B25545   7.790  21.482   7.941
 1668POPC   C4B25546   7.882  21.444   7.498
 1669POPC   NC325547  27.394  42.124   9.449
 1669POPC   PO425548  27.687  42.694   9.199
 1669POPC   GL125549  27.660  42.268   9.033
 1669POPC   GL225550  27.925  42.032   9.105
 1669POPC   C1A25551  27.449  42.076   8.674
 1669POPC   D2A25552  27.556  41.855   8.289
 1669POPC   C3A25553  27.533  42.010   7.863
 1669POPC   C4A25554  27.629  42.423   7.648
 1669POPC   C1B25555  28.010  42.159   8.675
 1669POPC   C2B25556  27.986  42.113   8.213
 1669POPC   C3B25557  28.028  42.133   7.770
 1669POPC   C4B25558  27.847  42.067   7.342
 1670POPC   NC325559   3.576  26.543   9.361
 1670POPC   PO425560   3.373  27.023   9.723
 1670POPC   GL125561   3.554  27.013   9.177
 1670POPC   GL225562   3.350  27.190   8.896
 1670POPC   C1A25563   3.777  26.781   8.762
 1670POPC   D2A25564   3.753  26.486   8.351
 1670POPC   C3A25565   3.705  26.616   7.874
 1670POPC   C4A25566   3.457  26.388   7.526
 1670POPC   C1B25567   3.276  26.802   8.664
 1670POPC   C2B25568   3.304  26.685   8.229
 1670POPC   C3B25569   3.222  26.778   7.803
 1670POPC   C4B25570   3.393  27.070   7.513
 1671POPC   NC325571  44.996   5.701   9.400
 1671POPC   PO425572   0.625   5.834   9.533
 1671POPC   GL125573   0.457   5.727   9.159
 1671POPC   GL225574   0.299   6.020   9.102
 1671POPC   C1A25575   0.336   5.687   8.724
 1671POPC   D2A25576   0.201   5.466   8.369
 1671POPC   C3A25577   0.401   5.689   8.044
 1671POPC   C4A25578   0.330   5.937   7.697
 1671POPC   C1B25579   0.605   6.162   8.812
 1671POPC   C2B25580   0.630   6.008   8.392
 1671POPC   C3B25581   0.687   6.174   7.973
 1671POPC   C4B25582   0.732   6.201   7.480
 1672POPC   NC325583  33.385   1.002   9.482
 1672POPC   PO425584  33.983   1.326   9.579
 1672POPC   GL125585  33.813   1.242   9.185
 1672POPC   GL225586  33.493   1.409   9.174
 1672POPC   C1A25587  34.000   1.247   8.776
 1672POPC   D2A25588  34.097   0.987   8.393
 1672POPC   C3A25589  34.017   1.166   7.972
 1672POPC   C4A25590  34.009   1.035   7.534
 1672POPC   C1B25591  33.422   1.146   8.834
 1672POPC   C2B25592  33.614   1.162   8.439
 1672POPC   C3B25593  33.526   1.324   8.026
 1672POPC   C4B25594  33.506   1.051   7.671
 1673POPC   NC325595  26.460  37.760   9.478
 1673POPC   PO425596  25.979  37.403   9.330
 1673POPC   GL125597  26.000  37.794   9.132
 1673POPC   GL225598  26.259  37.664   8.999
 1673POPC   C1A25599  26.114  38.088   8.802
 1673POPC   D2A25600  25.943  38.119   8.395
 1673POPC   C3A25601  26.152  38.227   8.051
 1673POPC   C4A25602  26.294  38.060   7.703
 1673POPC   C1B25603  26.035  37.637   8.614
 1673POPC   C2B25604  26.289  37.756   8.266
 1673POPC   C3B25605  26.146  37.613   7.909
 1673POPC   C4B25606  25.769  37.422   7.937
 1674POPC   NC325607  40.019  21.041   9.542
 1674POPC   PO425608  40.472  21.529   9.403
 1674POPC   GL125609  40.048  21.472   9.143
 1674POPC   GL225610  39.762  21.745   9.110
 1674POPC   C1A25611  39.972  21.280   8.745
 1674POPC   D2A25612  40.229  21.403   8.376
 1674POPC   C3A25613  40.141  21.227   7.952
 1674POPC   C4A25614  40.045  21.066   7.533
 1674POPC   C1B25615  39.907  21.768   8.666
 1674POPC   C2B25616  39.827  21.665   8.215
 1674POPC   C3B25617  39.857  21.646   7.802
 1674POPC   C4B25618  40.013  21.926   7.526
 1675POPC   NC325619  29.891  18.478   9.452
 1675POPC   PO425620  30.156  17.894   9.358
 1675POPC   GL125621  29.910  18.103   9.097
 1675POPC   GL225622  30.185  18.333   9.001
 1675POPC   C1A25623  29.749  18.294   8.740
 1675POPC   D2A25624  29.936  18.423   8.370
 1675POPC   C3A25625  29.656  18.398   8.039
 1675POPC   C4A25626  29.677  18.099   7.722
 1675POPC   C1B25627  30.197  17.984   8.693
 1675POPC   C2B25628  30.364  17.923   8.281
 1675POPC   C3B25629  30.195  18.175   7.970
 1675POPC   C4B25630  30.079  18.527   7.790
 1676POPC   NC325631  40.643  10.979   9.864
 1676POPC   PO425632  41.016  11.217   9.422
 1676POPC   GL125633  40.969  11.080   9.042
 1676POPC   GL225634  40.626  11.150   9.094
 1676POPC   C1A25635  41.114  11.169   8.624
 1676POPC   D2A25636  40.878  11.380   8.327
 1676POPC   C3A25637  41.026  11.529   7.964
 1676POPC   C4A25638  40.744  11.683   7.654
 1676POPC   C1B25639  40.584  11.148   8.664
 1676POPC   C2B25640  40.465  11.024   8.230
 1676POPC   C3B25641  40.672  11.207   7.878
 1676POPC   C4B25642  40.615  11.235   7.404
 1677POPC   NC325643  11.698  28.269   9.412
 1677POPC   PO425644  12.346  28.217   9.497
 1677POPC   GL125645  12.091  28.230   9.081
 1677POPC   GL225646  11.832  28.522   9.003
 1677POPC   C1A25647  12.054  28.245   8.619
 1677POPC   D2A25648  12.378  28.123   8.321
 1677POPC   C3A25649  12.188  28.223   7.945
 1677POPC   C4A25650  11.807  28.333   7.761
 1677POPC   C1B25651  12.235  28.672   8.794
 1677POPC   C2B25652  12.299  28.628   8.332
 1677POPC   C3B25653  12.025  28.728   7.995
 1677POPC   C4B25654  11.574  28.786   7.924
 1678POPC   NC325655   4.076  29.514   9.452
 1678POPC   PO425656   4.560  29.127   9.734
 1678POPC   GL125657   4.371  29.151   9.214
 1678POPC   GL225658   4.052  29.254   9.016
 1678POPC   C1A25659   4.450  29.249   8.721
 1678POPC   D2A25660   4.606  29.178   8.305
 1678POPC   C3A25661   4.385  29.167   7.918
 1678POPC   C4A25662   4.340  29.020   7.482
 1678POPC   C1B25663   4.055  28.915   8.758
 1678POPC   C2B25664   4.087  29.064   8.347
 1678POPC   C3B25665   3.879  29.186   7.967
 1678POPC   C4B25666   4.060  28.781   7.847
 1679POPC   NC325667  42.842  39.093   9.455
 1679POPC   PO425668  42.892  39.706   9.503
 1679POPC   GL125669  42.887  39.499   9.107
 1679POPC   GL225670  43.151  39.254   9.082
 1679POPC   C1A25671  43.090  39.584   8.693
 1679POPC   D2A25672  43.463  39.584   8.405
 1679POPC   C3A25673  43.352  39.457   7.967
 1679POPC   C4A25674  43.494  39.239   7.593
 1679POPC   C1B25675  43.488  39.240   8.791
 1679POPC   C2B25676  43.630  39.040   8.416
 1679POPC   C3B25677  43.476  38.948   8.001
 1679POPC   C4B25678  43.069  38.998   7.764
 1680POPC   NC325679   5.383  35.285   9.549
 1680POPC   PO425680   4.953  35.818   9.390
 1680POPC   GL125681   5.092  35.436   9.132
 1680POPC   GL225682   5.164  35.067   9.145
 1680POPC   C1A25683   5.202  35.292   8.719
 1680POPC   D2A25684   5.300  35.427   8.400
 1680POPC   C3A25685   5.045  35.377   8.080
 1680POPC   C4A25686   5.285  35.382   7.741
 1680POPC   C1B25687   4.881  34.915   8.840
 1680POPC   C2B25688   4.786  35.096   8.428
 1680POPC   C3B25689   4.831  34.914   8.023
 1680POPC   C4B25690   4.928  34.896   7.556
 1681POPC   NC325691  15.125  31.725   9.673
 1681POPC   PO425692  14.879  31.105   9.614
 1681POPC   GL125693  15.162  31.358   9.316
 1681POPC   GL225694  15.119  31.710   9.159
 1681POPC   C1A25695  15.312  31.325   8.888
 1681POPC   D2A25696  15.129  31.270   8.511
 1681POPC   C3A25697  15.274  31.244   8.092
 1681POPC   C4A25698  15.146  31.382   7.704
 1681POPC   C1B25699  15.021  31.743   8.712
 1681POPC   C2B25700  15.038  31.697   8.259
 1681POPC   C3B25701  14.922  31.825   7.876
 1681POPC   C4B25702  15.230  31.905   7.581
 1682POPC   NC325703  21.994  27.687   9.568
 1682POPC   PO425704  22.433  27.261   9.362
 1682POPC   GL125705  22.168  27.473   9.113
 1682POPC   GL225706  22.231  27.824   9.153
 1682POPC   C1A25707  21.995  27.401   8.718
 1682POPC   D2A25708  22.050  27.176   8.343
 1682POPC   C3A25709  22.050  27.445   7.985
 1682POPC   C4A25710  22.101  27.352   7.573
 1682POPC   C1B25711  22.033  27.929   8.795
 1682POPC   C2B25712  22.145  27.821   8.392
 1682POPC   C3B25713  21.972  27.949   8.012
 1682POPC   C4B25714  22.144  27.850   7.654
 1683POPC   NC325715  25.121  37.979   9.589
 1683POPC   PO425716  25.620  37.558   9.693
 1683POPC   GL125717  25.509  37.594   9.225
 1683POPC   GL225718  25.448  37.941   9.171
 1683POPC   C1A25719  25.285  37.570   8.781
 1683POPC   D2A25720  25.138  37.404   8.351
 1683POPC   C3A25721  25.265  37.534   7.908
 1683POPC   C4A25722  25.086  37.632   7.477
 1683POPC   C1B25723  25.631  37.934   8.774
 1683POPC   C2B25724  25.559  37.789   8.335
 1683POPC   C3B25725  25.712  37.939   7.926
 1683POPC   C4B25726  25.461  37.960   7.543
 1684POPC   NC325727   9.140  40.811   9.567
 1684POPC   PO425728   8.751  40.377   9.313
 1684POPC   GL125729   9.031  40.622   9.072
 1684POPC   GL225730   8.970  40.985   9.118
 1684POPC   C1A25731   9.017  40.760   8.640
 1684POPC   D2A25732   8.896  40.608   8.227
 1684POPC   C3A25733   9.113  40.866   7.931
 1684POPC   C4A25734   9.487  41.063   7.844
 1684POPC   C1B25735   8.712  41.170   8.806
 1684POPC   C2B25736   8.656  41.297   8.362
 1684POPC   C3B25737   8.642  41.069   7.936
 1684POPC   C4B25738   8.777  41.116   7.492
 1685POPC   NC325739  13.080  16.971   9.598
 1685POPC   PO425740  12.624  16.475   9.428
 1685POPC   GL125741  12.913  16.649   9.106
 1685POPC   GL225742  13.194  16.905   9.123
 1685POPC   C1A25743  12.879  16.674   8.651
 1685POPC   D2A25744  12.939  16.656   8.205
 1685POPC   C3A25745  12.662  16.473   7.894
 1685POPC   C4A25746  12.651  16.721   7.498
 1685POPC   C1B25747  13.282  17.174   8.796
 1685POPC   C2B25748  13.160  17.064   8.409
 1685POPC   C3B25749  13.286  16.996   8.011
 1685POPC   C4B25750  13.032  17.029   7.657
 1686POPC   NC325751   6.189  33.350   9.389
 1686POPC   PO425752   6.686  32.745   9.440
 1686POPC   GL125753   6.638  32.831   9.046
 1686POPC   GL225754   6.547  33.166   9.025
 1686POPC   C1A25755   6.434  32.812   8.653
 1686POPC   D2A25756   6.760  33.072   8.492
 1686POPC   C3A25757   6.758  33.189   8.071
 1686POPC   C4A25758   6.609  33.040   7.651
 1686POPC   C1B25759   6.938  33.371   8.876
 1686POPC   C2B25760   7.185  33.359   8.471
 1686POPC   C3B25761   7.227  33.437   8.030
 1686POPC   C4B25762   7.106  33.149   7.681
 1687POPC   NC325763  12.103  42.516   9.846
 1687POPC   PO425764  11.848  42.032   9.388
 1687POPC   GL125765  12.111  42.218   9.109
 1687POPC   GL225766  12.458  42.161   9.140
 1687POPC   C1A25767  12.107  42.471   8.741
 1687POPC   D2A25768  11.786  42.520   8.446
 1687POPC   C3A25769  11.964  42.587   8.038
 1687POPC   C4A25770  11.871  42.329   7.690
 1687POPC   C1B25771  12.415  42.046   8.716
 1687POPC   C2B25772  12.311  42.257   8.306
 1687POPC   C3B25773  12.382  42.337   7.862
 1687POPC   C4B25774  12.322  42.148   7.451
 1688POPC   NC325775  29.364  25.078   9.749
 1688POPC   PO425776  28.937  25.453   9.462
 1688POPC   GL125777  29.234  25.300   9.198
 1688POPC   GL225778  29.446  25.593   9.112
 1688POPC   C1A25779  29.284  25.034   8.823
 1688POPC   D2A25780  29.271  24.679   8.525
 1688POPC   C3A25781  29.102  24.839   8.121
 1688POPC   C4A25782  29.296  25.103   7.831
 1688POPC   C1B25783  29.161  25.541   8.736
 1688POPC   C2B25784  29.333  25.625   8.318
 1688POPC   C3B25785  29.232  25.604   7.887
 1688POPC   C4B25786  28.920  25.387   7.644
 1689POPC   NC325787  37.257  25.203   9.488
 1689POPC   PO425788  36.587  25.327   9.603
 1689POPC   GL125789  36.796  25.385   9.239
 1689POPC   GL225790  36.759  25.734   9.177
 1689POPC   C1A25791  36.712  25.321   8.798
 1689POPC   D2A25792  36.729  25.155   8.404
 1689POPC   C3A25793  36.728  25.442   8.086
 1689POPC   C4A25794  36.794  25.468   7.665
 1689POPC   C1B25795  37.110  25.614   8.876
 1689POPC   C2B25796  37.157  25.429   8.445
 1689POPC   C3B25797  37.233  25.592   8.015
 1689POPC   C4B25798  37.622  25.605   7.810
 1690POPC   NC325799  29.043  34.315   9.597
 1690POPC   PO425800  29.211  34.995   9.508
 1690POPC   GL125801  29.195  34.695   9.184
 1690POPC   GL225802  29.453  34.402   9.251
 1690POPC   C1A25803  29.110  34.861   8.758
 1690POPC   D2A25804  28.883  34.900   8.342
 1690POPC   C3A25805  29.100  34.810   7.981
 1690POPC   C4A25806  29.006  34.605   7.616
 1690POPC   C1B25807  29.646  34.397   8.816
 1690POPC   C2B25808  29.498  34.241   8.384
 1690POPC   C3B25809  29.419  34.394   7.961
 1690POPC   C4B25810  29.403  34.328   7.507
 1691POPC   NC325811  14.870  34.979   9.430
 1691POPC   PO425812  15.465  35.304   9.459
 1691POPC   GL125813  15.174  35.299   9.103
 1691POPC   GL225814  14.998  35.034   8.950
 1691POPC   C1A25815  15.346  35.539   8.782
 1691POPC   D2A25816  15.591  35.566   8.411
 1691POPC   C3A25817  15.429  35.570   7.959
 1691POPC   C4A25818  15.311  35.335   7.571
 1691POPC   C1B25819  14.758  35.182   8.629
 1691POPC   C2B25820  14.772  35.338   8.216
 1691POPC   C3B25821  14.862  35.230   7.763
 1691POPC   C4B25822  14.952  35.003   7.334
 1692POPC   NC325823  13.074  44.639   9.440
 1692POPC   PO425824  12.374  44.873   9.443
 1692POPC   GL125825  12.679  44.751   9.141
 1692POPC   GL225826  12.766  44.413   9.126
 1692POPC   C1A25827  12.891  44.777   8.740
 1692POPC   D2A25828  12.764   0.024   8.373
 1692POPC   C3A25829  12.620  44.819   7.994
 1692POPC   C4A25830  12.982  44.800   7.721
 1692POPC   C1B25831  12.740  44.275   8.744
 1692POPC   C2B25832  12.730  44.468   8.364
 1692POPC   C3B25833  12.861  44.357   7.974
 1692POPC   C4B25834  12.666  44.313   7.604
 1693POPC   NC325835  43.301   9.293   9.634
 1693POPC   PO425836  42.944   8.700   9.522
 1693POPC   GL125837  42.958   8.887   9.160
 1693POPC   GL225838  43.035   9.210   9.200
 1693POPC   C1A25839  43.027   8.713   8.767
 1693POPC   D2A25840  42.808   8.683   8.407
 1693POPC   C3A25841  43.056   8.803   8.114
 1693POPC   C4A25842  42.939   8.901   7.733
 1693POPC   C1B25843  43.236   9.180   8.798
 1693POPC   C2B25844  43.193   9.362   8.389
 1693POPC   C3B25845  43.238   9.268   7.954
 1693POPC   C4B25846  43.458   8.942   7.789
 1694POPC   NC325847  28.980  12.926   9.913
 1694POPC   PO425848  29.444  12.431   9.606
 1694POPC   GL125849  29.462  12.543   9.167
 1694POPC   GL225850  29.231  12.834   9.156
 1694POPC   C1A25851  29.255  12.563   8.741
 1694POPC   D2A25852  29.146  12.911   8.505
 1694POPC   C3A25853  29.241  12.930   8.075
 1694POPC   C4A25854  29.134  12.891   7.630
 1694POPC   C1B25855  29.517  13.001   8.882
 1694POPC   C2B25856  29.628  13.015   8.447
 1694POPC   C3B25857  29.659  13.235   8.099
 1694POPC   C4B25858  29.589  13.142   7.714
 1695POPC   NC325859  35.314  14.015   9.511
 1695POPC   PO425860  34.996  14.621   9.513
 1695POPC   GL125861  35.324  14.530   9.137
 1695POPC   GL225862  35.444  14.202   9.067
 1695POPC   C1A25863  35.408  14.713   8.750
 1695POPC   D2A25864  35.086  14.732   8.436
 1695POPC   C3A25865  35.232  14.543   8.073
 1695POPC   C4A25866  35.138  14.401   7.666
 1695POPC   C1B25867  35.680  14.283   8.748
 1695POPC   C2B25868  35.696  14.512   8.352
 1695POPC   C3B25869  35.676  14.287   7.953
 1695POPC   C4B25870  35.573  14.215   7.525
 1696POPC   NC325871  38.125  15.449   9.486
 1696POPC   PO425872  38.574  14.907   9.421
 1696POPC   GL125873  38.205  14.944   9.073
 1696POPC   GL225874  38.030  15.264   9.034
 1696POPC   C1A25875  38.110  15.007   8.624
 1696POPC   D2A25876  38.148  15.290   8.303
 1696POPC   C3A25877  38.376  15.117   7.936
 1696POPC   C4A25878  38.749  15.198   7.667
 1696POPC   C1B25879  38.106  15.604   8.737
 1696POPC   C2B25880  38.221  15.817   8.359
 1696POPC   C3B25881  38.378  15.638   7.993
 1696POPC   C4B25882  38.014  15.455   7.841
 1697POPC   NC325883   6.069  24.827   9.684
 1697POPC   PO425884   5.584  24.417   9.522
 1697POPC   GL125885   5.833  24.638   9.245
 1697POPC   GL225886   5.574  24.674   9.045
 1697POPC   C1A25887   6.012  24.472   8.858
 1697POPC   D2A25888   5.902  24.337   8.420
 1697POPC   C3A25889   5.893  24.599   8.083
 1697POPC   C4A25890   6.076  24.441   7.731
 1697POPC   C1B25891   5.498  24.403   8.719
 1697POPC   C2B25892   5.389  24.666   8.379
 1697POPC   C3B25893   5.453  24.853   7.996
 1697POPC   C4B25894   5.658  24.694   7.586
 1698POPC   NC325895  28.046  34.294   9.530
 1698POPC   PO425896  28.650  34.575   9.584
 1698POPC   GL125897  28.671  34.689   9.167
 1698POPC   GL225898  28.313  34.626   9.150
 1698POPC   C1A25899  28.614  34.715   8.727
 1698POPC   D2A25900  28.439  34.537   8.342
 1698POPC   C3A25901  28.662  34.471   7.965
 1698POPC   C4A25902  28.596  34.304   7.530
 1698POPC   C1B25903  28.112  34.597   8.740
 1698POPC   C2B25904  28.013  34.795   8.357
 1698POPC   C3B25905  27.980  34.619   7.923
 1698POPC   C4B25906  28.157  34.612   7.481
 1699POPC   NC325907   8.656  37.631   9.748
 1699POPC   PO425908   9.152  37.941   9.692
 1699POPC   GL125909   8.798  37.818   9.308
 1699POPC   GL225910   8.682  38.065   9.091
 1699POPC   C1A25911   8.758  37.526   8.917
 1699POPC   D2A25912   9.075  37.609   8.563
 1699POPC   C3A25913   9.049  37.485   8.111
 1699POPC   C4A25914   9.329  37.388   7.755
 1699POPC   C1B25915   8.654  37.947   8.669
 1699POPC   C2B25916   8.609  37.635   8.370
 1699POPC   C3B25917   8.569  37.524   7.938
 1699POPC   C4B25918   8.850  37.737   7.673
 1700POPC   NC325919  32.754  18.743   9.610
 1700POPC   PO425920  33.239  19.141   9.473
 1700POPC   GL125921  33.123  18.983   9.101
 1700POPC   GL225922  33.122  18.598   9.168
 1700POPC   C1A25923  33.171  19.149   8.656
 1700POPC   D2A25924  33.329  19.429   8.319
 1700POPC   C3A25925  33.165  19.294   7.928
 1700POPC   C4A25926  32.781  19.051   7.791
 1700POPC   C1B25927  33.422  18.713   8.801
 1700POPC   C2B25928  33.321  18.704   8.355
 1700POPC   C3B25929  33.193  18.699   7.916
 1700POPC   C4B25930  33.388  18.850   7.532
 1701POPC   NC325931  13.946  41.404   9.851
 1701POPC   PO425932  13.480  41.788   9.565
 1701POPC   GL125933  13.594  41.582   9.198
 1701POPC   GL225934  13.843  41.420   9.274
 1701POPC   C1A25935  13.496  41.610   8.782
 1701POPC   D2A25936  13.659  41.615   8.390
 1701POPC   C3A25937  13.367  41.474   8.075
 1701POPC   C4A25938  13.440  41.375   7.653
 1701POPC   C1B25939  13.893  41.255   8.835
 1701POPC   C2B25940  14.047  41.275   8.374
 1701POPC   C3B25941  13.896  41.450   7.960
 1701POPC   C4B25942  13.962  41.277   7.516
 1702POPC   NC325943  16.436  15.776   9.463
 1702POPC   PO425944  17.049  15.892   9.791
 1702POPC   GL125945  16.936  15.889   9.361
 1702POPC   GL225946  16.698  16.164   9.243
 1702POPC   C1A25947  16.912  15.791   8.932
 1702POPC   D2A25948  16.993  15.982   8.548
 1702POPC   C3A25949  16.729  15.978   8.181
 1702POPC   C4A25950  16.949  15.999   7.772
 1702POPC   C1B25951  16.551  16.135   8.803
 1702POPC   C2B25952  16.372  16.379   8.469
 1702POPC   C3B25953  16.252  16.307   8.069
 1702POPC   C4B25954  16.453  16.054   7.739
 1703POPC   NC325955  27.716  17.232   9.943
 1703POPC   PO425956  27.273  17.220   9.393
 1703POPC   GL125957  27.279  17.586   9.117
 1703POPC   GL225958  27.621  17.720   9.109
 1703POPC   C1A25959  27.312  17.792   8.692
 1703POPC   D2A25960  27.582  17.910   8.328
 1703POPC   C3A25961  27.646  17.625   7.973
 1703POPC   C4A25962  27.499  17.167   7.918
 1703POPC   C1B25963  27.801  17.519   8.764
 1703POPC   C2B25964  27.971  17.508   8.359
 1703POPC   C3B25965  28.013  17.242   8.039
 1703POPC   C4B25966  27.904  17.301   7.652
 1704POPC   NC325967  28.008  33.377   9.467
 1704POPC   PO425968  27.904  32.842   9.418
 1704POPC   GL125969  27.665  33.154   9.131
 1704POPC   GL225970  27.641  33.537   9.147
 1704POPC   C1A25971  27.507  33.229   8.705
 1704POPC   D2A25972  27.714  33.172   8.310
 1704POPC   C3A25973  27.466  33.067   7.930
 1704POPC   C4A25974  27.597  32.866   7.542
 1704POPC   C1B25975  27.881  33.568   8.769
 1704POPC   C2B25976  27.861  33.665   8.314
 1704POPC   C3B25977  27.775  33.500   7.880
 1704POPC   C4B25978  27.502  33.383   7.526
 1705POPC   NC325979   7.598  11.666   9.447
 1705POPC   PO425980   7.411  11.024   9.460
 1705POPC   GL125981   7.349  11.091   9.059
 1705POPC   GL225982   7.425  11.442   8.972
 1705POPC   C1A25983   7.086  11.139   8.709
 1705POPC   D2A25984   7.085  11.303   8.282
 1705POPC   C3A25985   7.314  11.053   7.957
 1705POPC   C4A25986   7.384  11.167   7.498
 1705POPC   C1B25987   7.674  11.181   8.663
 1705POPC   C2B25988   7.811  11.125   8.227
 1705POPC   C3B25989   7.687  11.369   7.867
 1705POPC   C4B25990   7.444  11.661   7.587
 1706POPC   NC325991  21.882  43.928   9.504
 1706POPC   PO425992  22.385  44.292   9.481
 1706POPC   GL125993  22.273  44.040   9.165
 1706POPC   GL225994  21.950  44.168   9.054
 1706POPC   C1A25995  22.100  43.727   8.881
 1706POPC   D2A25996  21.883  43.763   8.492
 1706POPC   C3A25997  22.004  43.558   8.110
 1706POPC   C4A25998  22.191  43.590   7.694
 1706POPC   C1B25999  22.194  44.156   8.643
 1706POPC   C2B26000  22.194  44.084   8.183
 1706POPC   C3B26001  22.061  44.226   7.784
 1706POPC   C4B26002  22.312  44.422   7.448
 1707POPC   NC326003  15.861  33.716   9.670
 1707POPC   PO426004  16.483  33.674   9.478
 1707POPC   GL126005  16.095  33.733   9.182
 1707POPC   GL226006  15.709  33.841   9.189
 1707POPC   C1A26007  16.034  33.926   8.773
 1707POPC   D2A26008  16.228  33.976   8.391
 1707POPC   C3A26009  15.991  33.720   8.163
 1707POPC   C4A26010  15.969  33.680   7.722
 1707POPC   C1B26011  15.532  34.043   8.789
 1707POPC   C2B26012  15.713  34.119   8.375
 1707POPC   C3B26013  15.661  34.040   7.949
 1707POPC   C4B26014  15.792  34.134   7.543
 1708POPC   NC326015   7.193  25.075   9.464
 1708POPC   PO426016   7.702  25.416   9.736
 1708POPC   GL126017   7.550  25.393   9.263
 1708POPC   GL226018   7.510  25.076   9.055
 1708POPC   C1A26019   7.351  25.543   8.884
 1708POPC   D2A26020   7.499  25.382   8.494
 1708POPC   C3A26021   7.462  25.628   8.145
 1708POPC   C4A26022   7.477  25.552   7.733
 1708POPC   C1B26023   7.137  25.090   8.740
 1708POPC   C2B26024   7.067  25.216   8.273
 1708POPC   C3B26025   7.354  25.080   7.920
 1708POPC   C4B26026   7.351  25.158   7.447
 1709POPC   NC326027  36.541   6.260   9.844
 1709POPC   PO426028  36.806   5.731   9.588
 1709POPC   GL126029  36.799   5.600   9.140
 1709POPC   GL226030  36.458   5.458   9.068
 1709POPC   C1A26031  36.945   5.701   8.707
 1709POPC   D2A26032  37.124   5.661   8.297
 1709POPC   C3A26033  36.993   6.020   8.057
 1709POPC   C4A26034  36.708   6.093   7.712
 1709POPC   C1B26035  36.626   5.289   8.681
 1709POPC   C2B26036  36.689   5.382   8.231
 1709POPC   C3B26037  36.860   5.571   7.828
 1709POPC   C4B26038  36.737   5.418   7.427
 1710POPC   NC326039   4.396  37.198   9.610
 1710POPC   PO426040   4.051  36.668   9.489
 1710POPC   GL126041   4.208  36.893   9.138
 1710POPC   GL226042   4.477  36.702   8.930
 1710POPC   C1A26043   4.140  37.090   8.754
 1710POPC   D2A26044   3.994  37.144   8.334
 1710POPC   C3A26045   4.288  36.928   8.070
 1710POPC   C4A26046   4.368  36.789   7.654
 1710POPC   C1B26047   4.070  36.575   8.754
 1710POPC   C2B26048   3.897  36.630   8.332
 1710POPC   C3B26049   3.999  36.545   7.912
 1710POPC   C4B26050   4.036  36.468   7.448
 1711POPC   NC326051  11.406  27.228   9.570
 1711POPC   PO426052  11.076  26.683   9.527
 1711POPC   GL126053  11.113  26.635   9.125
 1711POPC   GL226054  11.247  26.972   9.118
 1711POPC   C1A26055  11.301  26.558   8.720
 1711POPC   D2A26056  11.547  26.694   8.375
 1711POPC   C3A26057  11.426  26.452   8.020
 1711POPC   C4A26058  11.354  26.574   7.592
 1711POPC   C1B26059  11.355  27.076   8.721
 1711POPC   C2B26060  11.398  27.229   8.333
 1711POPC   C3B26061  11.476  27.037   7.927
 1711POPC   C4B26062  11.410  27.099   7.477
 1712POPC   NC326063  38.738   0.790   9.633
 1712POPC   PO426064  38.296   0.302   9.446
 1712POPC   GL126065  38.528   0.575   9.216
 1712POPC   GL226066  38.868   0.440   9.288
 1712POPC   C1A26067  38.471   0.601   8.791
 1712POPC   D2A26068  38.419   0.266   8.505
 1712POPC   C3A26069  38.295   0.405   8.098
 1712POPC   C4A26070  38.440   0.173   7.764
 1712POPC   C1B26071  38.951   0.755   8.994
 1712POPC   C2B26072  38.930   0.709   8.578
 1712POPC   C3B26073  38.792   0.501   8.244
 1712POPC   C4B26074  38.711   0.630   7.834
 1713POPC   NC326075  16.543  34.410   9.440
 1713POPC   PO426076  17.189  34.587   9.319
 1713POPC   GL126077  16.890  34.495   9.045
 1713POPC   GL226078  16.593  34.693   9.021
 1713POPC   C1A26079  16.872  34.220   8.693
 1713POPC   D2A26080  17.041  34.120   8.288
 1713POPC   C3A26081  16.778  34.356   8.003
 1713POPC   C4A26082  16.882  34.702   7.750
 1713POPC   C1B26083  16.438  34.895   8.642
 1713POPC   C2B26084  16.580  34.850   8.213
 1713POPC   C3B26085  16.477  35.030   7.809
 1713POPC   C4B26086  16.510  34.817   7.386
 1714POPC   NC326087   0.042  11.874   9.336
 1714POPC   PO426088  44.541  12.270   9.394
 1714POPC   GL126089  44.766  12.157   9.029
 1714POPC   GL226090  44.629  11.806   9.004
 1714POPC   C1A26091  44.886  12.038   8.612
 1714POPC   D2A26092  44.891  12.356   8.308
 1714POPC   C3A26093  44.827  12.203   7.912
 1714POPC   C4A26094  44.875  11.863   7.643
 1714POPC   C1B26095  44.377  12.087   8.714
 1714POPC   C2B26096  44.464  12.089   8.294
 1714POPC   C3B26097  44.473  11.805   7.974
 1714POPC   C4B26098  44.393  12.074   7.683
 1715POPC   NC326099  34.969  31.250   9.372
 1715POPC   PO426100  34.386  31.632   9.460
 1715POPC   GL126101  34.568  31.446   9.107
 1715POPC   GL226102  34.542  31.085   9.141
 1715POPC   C1A26103  34.690  31.526   8.682
 1715POPC   D2A26104  34.817  31.398   8.255
 1715POPC   C3A26105  34.578  31.525   7.894
 1715POPC   C4A26106  34.318  31.819   7.615
 1715POPC   C1B26107  34.268  31.151   8.801
 1715POPC   C2B26108  34.309  31.355   8.407
 1715POPC   C3B26109  34.291  31.137   8.024
 1715POPC   C4B26110  34.323  31.202   7.604
 1716POPC   NC326111   9.837  24.229   9.483
 1716POPC   PO426112  10.168  24.770   9.642
 1716POPC   GL126113   9.847  24.669   9.246
 1716POPC   GL226114   9.544  24.494   9.144
 1716POPC   C1A26115   9.878  24.581   8.767
 1716POPC   D2A26116  10.047  24.627   8.344
 1716POPC   C3A26117   9.819  24.810   8.022
 1716POPC   C4A26118   9.814  24.688   7.604
 1716POPC   C1B26119   9.399  24.393   8.704
 1716POPC   C2B26120   9.573  24.408   8.263
 1716POPC   C3B26121   9.515  24.345   7.798
 1716POPC   C4B26122   9.422  24.153   7.373
 1717POPC   NC326123  25.111  20.744   9.675
 1717POPC   PO426124  25.608  20.339   9.482
 1717POPC   GL126125  25.346  20.466   9.128
 1717POPC   GL226126  25.105  20.720   9.175
 1717POPC   C1A26127  25.199  20.312   8.725
 1717POPC   D2A26128  25.005  20.426   8.346
 1717POPC   C3A26129  25.265  20.446   8.015
 1717POPC   C4A26130  25.356  20.315   7.608
 1717POPC   C1B26131  25.392  20.913   8.899
 1717POPC   C2B26132  25.381  20.761   8.505
 1717POPC   C3B26133  25.423  20.935   8.120
 1717POPC   C4B26134  25.479  20.793   7.723
 1718POPC   NC326135  23.598  14.796   9.317
 1718POPC   PO426136  23.675  14.166   9.629
 1718POPC   GL126137  23.835  14.216   9.201
 1718POPC   GL226138  23.501  14.139   9.118
 1718POPC   C1A26139  24.033  14.152   8.770
 1718POPC   D2A26140  24.037  14.237   8.326
 1718POPC   C3A26141  23.819  14.570   8.230
 1718POPC   C4A26142  23.767  14.751   7.840
 1718POPC   C1B26143  23.566  14.400   8.768
 1718POPC   C2B26144  23.363  14.407   8.401
 1718POPC   C3B26145  23.419  14.406   7.972
 1718POPC   C4B26146  23.759  14.199   7.762
 1719POPC   NC326147  13.875  13.727   9.476
 1719POPC   PO426148  13.630  13.131   9.478
 1719POPC   GL126149  13.503  13.516   9.222
 1719POPC   GL226150  13.263  13.828   9.224
 1719POPC   C1A26151  13.678  13.516   8.821
 1719POPC   D2A26152  13.575  13.224   8.487
 1719POPC   C3A26153  13.455  13.447   8.119
 1719POPC   C4A26154  13.734  13.540   7.803
 1719POPC   C1B26155  13.482  13.990   8.857
 1719POPC   C2B26156  13.649  14.005   8.449
 1719POPC   C3B26157  13.557  13.977   8.028
 1719POPC   C4B26158  13.463  14.024   7.604
 1720POPC   NC326159  26.093  24.798   9.315
 1720POPC   PO426160  26.123  25.395   9.584
 1720POPC   GL126161  26.084  25.459   9.159
 1720POPC   GL226162  25.860  25.211   9.082
 1720POPC   C1A26163  26.313  25.472   8.772
 1720POPC   D2A26164  26.100  25.417   8.374
 1720POPC   C3A26165  26.307  25.508   7.961
 1720POPC   C4A26166  26.038  25.584   7.555
 1720POPC   C1B26167  26.064  25.026   8.733
 1720POPC   C2B26168  26.089  24.860   8.361
 1720POPC   C3B26169  26.048  25.071   8.012
 1720POPC   C4B26170  26.237  25.121   7.642
 1721POPC   NC326171  36.951  32.698   9.707
 1721POPC   PO426172  37.119  33.251   9.465
 1721POPC   GL126173  36.796  33.114   9.194
 1721POPC   GL226174  36.811  32.746   9.203
 1721POPC   C1A26175  36.652  33.023   8.765
 1721POPC   D2A26176  36.926  33.024   8.406
 1721POPC   C3A26177  36.770  33.159   8.016
 1721POPC   C4A26178  36.921  33.269   7.582
 1721POPC   C1B26179  37.082  32.769   8.837
 1721POPC   C2B26180  37.347  32.712   8.472
 1721POPC   C3B26181  37.430  32.851   8.069
 1721POPC   C4B26182  37.258  32.924   7.690
 1722POPC   NC326183   3.344   6.710   9.436
 1722POPC   PO426184   3.361   6.020   9.408
 1722POPC   GL126185   3.485   6.336   9.086
 1722POPC   GL226186   3.791   6.528   9.177
 1722POPC   C1A26187   3.374   6.502   8.648
 1722POPC   D2A26188   3.260   6.388   8.200
 1722POPC   C3A26189   3.446   6.625   7.846
 1722POPC   C4A26190   3.869   6.506   7.643
 1722POPC   C1B26191   3.862   6.646   8.718
 1722POPC   C2B26192   3.729   6.682   8.264
 1722POPC   C3B26193   3.853   6.948   7.853
 1722POPC   C4B26194   3.853   6.953   7.345
 1723POPC   NC326195  11.789   5.535   9.737
 1723POPC   PO426196  11.179   5.616   9.699
 1723POPC   GL126197  11.385   5.748   9.294
 1723POPC   GL226198  11.631   5.527   9.212
 1723POPC   C1A26199  11.278   5.792   8.814
 1723POPC   D2A26200  11.255   5.572   8.371
 1723POPC   C3A26201  11.131   5.755   7.935
 1723POPC   C4A26202  11.004   5.665   7.475
 1723POPC   C1B26203  11.640   5.439   8.747
 1723POPC   C2B26204  11.748   5.431   8.287
 1723POPC   C3B26205  11.563   5.472   7.844
 1723POPC   C4B26206  11.447   5.426   7.373
 1724POPC   NC326207  34.261  41.915   9.355
 1724POPC   PO426208  34.640  41.347   9.530
 1724POPC   GL126209  34.847  41.471   9.156
 1724POPC   GL226210  34.534  41.592   9.066
 1724POPC   C1A26211  34.903  41.642   8.742
 1724POPC   D2A26212  34.765  41.494   8.378
 1724POPC   C3A26213  34.810  41.648   7.970
 1724POPC   C4A26214  35.111  41.498   7.688
 1724POPC   C1B26215  34.396  41.782   8.692
 1724POPC   C2B26216  34.452  41.910   8.280
 1724POPC   C3B26217  34.553  42.087   7.905
 1724POPC   C4B26218  34.467  41.999   7.524
 1725POPC   NC326219  37.393  44.037   9.505
 1725POPC   PO426220  37.928  43.709   9.655
 1725POPC   GL126221  37.976  43.754   9.183
 1725POPC   GL226222  37.654  43.638   9.152
 1725POPC   C1A26223  37.830  43.882   8.703
 1725POPC   D2A26224  37.877  43.909   8.221
 1725POPC   C3A26225  37.579  44.020   7.922
 1725POPC   C4A26226  37.293  44.325   7.785
 1725POPC   C1B26227  37.480  43.507   8.777
 1725POPC   C2B26228  37.444  43.650   8.345
 1725POPC   C3B26229  37.567  43.497   7.961
 1725POPC   C4B26230  37.574  43.644   7.557
 1726POPC   NC326231   9.563  41.370   9.481
 1726POPC   PO426232  10.232  41.726   9.470
 1726POPC   GL126233   9.951  41.546   9.189
 1726POPC   GL226234  10.006  41.189   9.242
 1726POPC   C1A26235   9.675  41.566   8.827
 1726POPC   D2A26236   9.622  41.791   8.444
 1726POPC   C3A26237   9.593  41.539   8.077
 1726POPC   C4A26238   9.898  41.785   7.910
 1726POPC   C1B26239  10.094  41.238   8.789
 1726POPC   C2B26240   9.987  41.430   8.396
 1726POPC   C3B26241  10.176  41.374   7.978
 1726POPC   C4B26242  10.315  41.578   7.603
 1727POPC   NC326243   7.894  44.497   9.397
 1727POPC   PO426244   8.475  44.895   9.389
 1727POPC   GL126245   8.131  44.848   9.091
 1727POPC   GL226246   8.208  44.503   8.987
 1727POPC   C1A26247   7.849  44.760   8.725
 1727POPC   D2A26248   7.810  44.481   8.336
 1727POPC   C3A26249   8.035  44.612   7.946
 1727POPC   C4A26250   8.072  44.550   7.486
 1727POPC   C1B26251   8.480  44.559   8.628
 1727POPC   C2B26252   8.475  44.653   8.186
 1727POPC   C3B26253   8.527  44.618   7.739
 1727POPC   C4B26254   8.513  44.331   7.382
 1728POPC   NC326255  44.282  22.279   9.640
 1728POPC   PO426256  43.683  22.413   9.540
 1728POPC   GL126257  43.841  22.106   9.201
 1728POPC   GL226258  44.163  21.937   9.241
 1728POPC   C1A26259  43.905  22.100   8.736
 1728POPC   D2A26260  43.945  22.331   8.356
 1728POPC   C3A26261  43.792  22.104   8.022
 1728POPC   C4A26262  43.636  22.211   7.652
 1728POPC   C1B26263  44.359  21.862   8.798
 1728POPC   C2B26264  44.139  21.861   8.334
 1728POPC   C3B26265  44.204  21.849   7.842
 1728POPC   C4B26266  44.113  22.039   7.409
 1729POPC   NC326267  22.860  27.193   9.495
 1729POPC   PO426268  22.530  27.810   9.637
 1729POPC   GL126269  22.711  27.629   9.193
 1729POPC   GL226270  22.765  27.332   9.003
 1729POPC   C1A26271  22.936  27.778   8.845
 1729POPC   D2A26272  22.898  27.742   8.420
 1729POPC   C3A26273  23.212  27.542   8.193
 1729POPC   C4A26274  23.094  27.460   7.810
 1729POPC   C1B26275  22.497  27.525   8.689
 1729POPC   C2B26276  22.495  27.446   8.235
 1729POPC   C3B26277  22.558  27.534   7.784
 1729POPC   C4B26278  22.475  27.568   7.319
 1730POPC   NC326279  15.998  32.022   9.454
 1730POPC   PO426280  15.936  32.646   9.633
 1730POPC   GL126281  16.043  32.528   9.182
 1730POPC   GL226282  15.773  32.304   9.089
 1730POPC   C1A26283  15.933  32.581   8.711
 1730POPC   D2A26284  15.685  32.304   8.448
 1730POPC   C3A26285  15.846  32.295   8.044
 1730POPC   C4A26286  15.673  32.412   7.655
 1730POPC   C1B26287  16.048  32.095   8.777
 1730POPC   C2B26288  16.043  31.912   8.365
 1730POPC   C3B26289  16.281  32.001   7.986
 1730POPC   C4B26290  16.157  32.204   7.609
 1731POPC   NC326291   7.137  42.114   9.433
 1731POPC   PO426292   7.719  42.349   9.402
 1731POPC   GL126293   7.311  42.545   9.247
 1731POPC   GL226294   7.321  42.864   9.221
 1731POPC   C1A26295   7.102  42.563   8.848
 1731POPC   D2A26296   7.325  42.345   8.566
 1731POPC   C3A26297   7.338  42.389   8.139
 1731POPC   C4A26298   7.425  42.364   7.718
 1731POPC   C1B26299   7.595  42.734   8.846
 1731POPC   C2B26300   7.765  42.604   8.432
 1731POPC   C3B26301   7.699  42.759   8.030
 1731POPC   C4B26302   7.885  42.683   7.649
 1732POPC   NC326303  37.853   3.745   9.495
 1732POPC   PO426304  37.415   3.340   9.527
 1732POPC   GL126305  37.528   3.568   9.157
 1732POPC   GL226306  37.713   3.258   9.127
 1732POPC   C1A26307  37.761   3.821   8.847
 1732POPC   D2A26308  37.981   3.831   8.482
 1732POPC   C3A26309  37.782   3.851   8.088
 1732POPC   C4A26310  37.651   3.685   7.717
 1732POPC   C1B26311  37.783   3.339   8.732
 1732POPC   C2B26312  37.637   3.438   8.354
 1732POPC   C3B26313  37.496   3.131   8.102
 1732POPC   C4B26314  37.583   3.156   7.694
 1733POPC   NC326315  15.752  38.662   9.503
 1733POPC   PO426316  16.203  38.223   9.246
 1733POPC   GL126317  15.932  38.581   9.028
 1733POPC   GL226318  15.588  38.738   9.047
 1733POPC   C1A26319  15.801  38.626   8.591
 1733POPC   D2A26320  15.874  38.253   8.375
 1733POPC   C3A26321  16.155  38.362   8.095
 1733POPC   C4A26322  16.047  38.203   7.742
 1733POPC   C1B26323  15.321  38.693   8.738
 1733POPC   C2B26324  15.283  38.711   8.307
 1733POPC   C3B26325  15.506  38.556   7.997
 1733POPC   C4B26326  15.855  38.692   7.848
 1734POPC   NC326327  29.578  36.456   9.500
 1734POPC   PO426328  30.331  36.137   9.554
 1734POPC   GL126329  29.978  36.143   9.296
 1734POPC   GL226330  30.043  36.468   9.193
 1734POPC   C1A26331  29.835  36.115   8.880
 1734POPC   D2A26332  29.892  36.143   8.426
 1734POPC   C3A26333  29.708  36.068   8.011
 1734POPC   C4A26334  29.962  35.930   7.657
 1734POPC   C1B26335  30.157  36.499   8.737
 1734POPC   C2B26336  30.333  36.378   8.305
 1734POPC   C3B26337  30.142  36.338   7.920
 1734POPC   C4B26338  30.212  36.334   7.457
 1735POPC   NC326339  10.513  25.736   9.664
 1735POPC   PO426340  10.278  26.288   9.394
 1735POPC   GL126341  10.577  26.013   9.200
 1735POPC   GL226342  10.844  26.204   9.211
 1735POPC   C1A26343  10.619  25.868   8.761
 1735POPC   D2A26344  10.581  25.659   8.351
 1735POPC   C3A26345  10.563  25.952   8.000
 1735POPC   C4A26346  10.274  26.276   7.851
 1735POPC   C1B26347  10.663  26.377   8.820
 1735POPC   C2B26348  10.456  26.244   8.437
 1735POPC   C3B26349  10.656  26.453   8.119
 1735POPC   C4B26350  10.934  26.527   7.853
 1736POPC   NC326351  25.119  20.098   9.365
 1736POPC   PO426352  25.362  19.479   9.489
 1736POPC   GL126353  25.358  19.657   9.065
 1736POPC   GL226354  25.561  19.963   9.101
 1736POPC   C1A26355  25.098  19.658   8.648
 1736POPC   D2A26356  24.834  19.481   8.280
 1736POPC   C3A26357  24.966  19.665   7.903
 1736POPC   C4A26358  24.956  20.093   7.830
 1736POPC   C1B26359  25.551  19.915   8.642
 1736POPC   C2B26360  25.278  19.984   8.265
 1736POPC   C3B26361  25.448  19.884   7.857
 1736POPC   C4B26362  25.689  19.992   7.436
 1737POPC   NC326363  21.452  26.855   9.684
 1737POPC   PO426364  21.188  26.281   9.521
 1737POPC   GL126365  21.308  26.648   9.244
 1737POPC   GL226366  21.289  27.043   9.246
 1737POPC   C1A26367  21.447  26.721   8.841
 1737POPC   D2A26368  21.625  26.597   8.488
 1737POPC   C3A26369  21.487  26.744   8.129
 1737POPC   C4A26370  21.327  26.762   7.728
 1737POPC   C1B26371  21.559  27.203   8.943
 1737POPC   C2B26372  21.570  27.150   8.504
 1737POPC   C3B26373  21.608  27.221   8.060
 1737POPC   C4B26374  21.792  26.985   7.739
 1738POPC   NC326375  12.351  20.031   9.833
 1738POPC   PO426376  12.304  19.443   9.537
 1738POPC   GL126377  12.110  19.578   9.162
 1738POPC   GL226378  11.805  19.432   9.049
 1738POPC   C1A26379  12.268  19.740   8.763
 1738POPC   D2A26380  12.141  19.567   8.393
 1738POPC   C3A26381  12.291  19.679   8.019
 1738POPC   C4A26382  12.154  19.442   7.652
 1738POPC   C1B26383  11.721  19.714   8.677
 1738POPC   C2B26384  11.798  19.958   8.269
 1738POPC   C3B26385  11.886  19.926   7.789
 1738POPC   C4B26386  11.935  20.060   7.309
 1739POPC   NC326387  31.663  14.633   9.371
 1739POPC   PO426388  31.090  14.358   9.638
 1739POPC   GL126389  31.277  14.301   9.232
 1739POPC   GL226390  31.227  14.620   9.116
 1739POPC   C1A26391  31.457  14.326   8.792
 1739POPC   D2A26392  31.375  14.131   8.416
 1739POPC   C3A26393  31.559  14.278   8.035
 1739POPC   C4A26394  31.371  14.071   7.726
 1739POPC   C1B26395  31.123  14.755   8.703
 1739POPC   C2B26396  31.248  14.640   8.276
 1739POPC   C3B26397  31.160  14.548   7.836
 1739POPC   C4B26398  31.189  14.799   7.471
 1740POPC   NC326399   1.615  36.921   9.476
 1740POPC   PO426400   1.770  37.461   9.167
 1740POPC   GL126401   1.482  37.179   9.018
 1740POPC   GL226402   1.189  36.996   9.158
 1740POPC   C1A26403   1.398  36.947   8.657
 1740POPC   D2A26404   1.582  36.743   8.330
 1740POPC   C3A26405   1.469  36.855   7.929
 1740POPC   C4A26406   1.360  36.562   7.629
 1740POPC   C1B26407   0.936  36.820   8.768
 1740POPC   C2B26408   1.050  36.791   8.271
 1740POPC   C3B26409   0.957  36.898   7.793
 1740POPC   C4B26410   0.793  37.109   7.375
 1741POPC   NC326411  25.899  15.609   9.648
 1741POPC   PO426412  26.392  16.050   9.519
 1741POPC   GL126413  26.283  16.048   9.130
 1741POPC   GL226414  26.133  15.714   9.177
 1741POPC   C1A26415  26.482  16.093   8.738
 1741POPC   D2A26416  26.229  16.116   8.370
 1741POPC   C3A26417  26.410  16.076   7.982
 1741POPC   C4A26418  26.118  16.092   7.681
 1741POPC   C1B26419  26.127  15.725   8.727
 1741POPC   C2B26420  25.956  15.678   8.345
 1741POPC   C3B26421  26.087  15.672   7.957
 1741POPC   C4B26422  25.868  15.687   7.539
 1742POPC   NC326423  31.015  40.895   9.491
 1742POPC   PO426424  30.562  40.491   9.493
 1742POPC   GL126425  30.711  40.661   9.134
 1742POPC   GL226426  31.012  40.464   9.152
 1742POPC   C1A26427  30.501  40.619   8.744
 1742POPC   D2A26428  30.575  40.788   8.361
 1742POPC   C3A26429  30.567  40.605   7.964
 1742POPC   C4A26430  30.713  40.961   7.757
 1742POPC   C1B26431  31.038  40.610   8.731
 1742POPC   C2B26432  31.238  40.644   8.326
 1742POPC   C3B26433  31.130  40.714   7.899
 1742POPC   C4B26434  31.271  40.653   7.474
 1743POPC   NC326435  16.031  21.886   9.560
 1743POPC   PO426436  15.420  21.956   9.304
 1743POPC   GL126437  15.598  22.205   9.013
 1743POPC   GL226438  15.917  22.177   9.151
 1743POPC   C1A26439  15.629  22.229   8.575
 1743POPC   D2A26440  15.959  22.313   8.218
 1743POPC   C3A26441  15.928  21.981   7.919
 1743POPC   C4A26442  15.601  21.653   7.936
 1743POPC   C1B26443  16.132  22.105   8.775
 1743POPC   C2B26444  16.377  22.096   8.413
 1743POPC   C3B26445  16.424  22.206   7.993
 1743POPC   C4B26446  16.238  22.533   7.784
 1744POPC   NC326447  26.043  11.961   9.473
 1744POPC   PO426448  26.324  12.669   9.399
 1744POPC   GL126449  26.093  12.308   9.097
 1744POPC   GL226450  25.761  12.110   9.031
 1744POPC   C1A26451  26.085  11.912   8.738
 1744POPC   D2A26452  25.892  11.813   8.323
 1744POPC   C3A26453  26.193  11.906   7.979
 1744POPC   C4A26454  26.394  12.216   7.750
 1744POPC   C1B26455  25.569  12.134   8.579
 1744POPC   C2B26456  25.652  12.209   8.103
 1744POPC   C3B26457  25.758  11.901   7.724
 1744POPC   C4B26458  25.707  11.879   7.232
 1745POPC   NC326459  27.523  23.168   9.451
 1745POPC   PO426460  27.773  22.542   9.592
 1745POPC   GL126461  27.653  22.698   9.209
 1745POPC   GL226462  27.309  22.769   9.228
 1745POPC   C1A26463  27.597  22.965   8.835
 1745POPC   D2A26464  27.405  23.251   8.539
 1745POPC   C3A26465  27.629  23.241   8.155
 1745POPC   C4A26466  27.529  23.294   7.722
 1745POPC   C1B26467  27.198  22.615   8.850
 1745POPC   C2B26468  27.359  22.724   8.457
 1745POPC   C3B26469  27.564  22.705   8.090
 1745POPC   C4B26470  27.389  22.799   7.734
 1746POPC   NC326471  23.946   9.362   9.532
 1746POPC   PO426472  23.599   8.785   9.525
 1746POPC   GL126473  23.549   9.107   9.256
 1746POPC   GL226474  23.885   9.076   9.101
 1746POPC   C1A26475  23.420   9.033   8.862
 1746POPC   D2A26476  23.628   8.819   8.545
 1746POPC   C3A26477  23.535   8.871   8.123
 1746POPC   C4A26478  23.482   9.055   7.709
 1746POPC   C1B26479  23.923   9.217   8.666
 1746POPC   C2B26480  24.051   9.016   8.262
 1746POPC   C3B26481  23.971   9.025   7.817
 1746POPC   C4B26482  24.046   9.129   7.412
 1747POPC   NC326483  11.667  23.867   9.130
 1747POPC   PO426484  11.119  23.913   9.579
 1747POPC   GL126485  11.152  23.961   9.146
 1747POPC   GL226486  11.223  23.591   9.053
 1747POPC   C1A26487  11.135  23.938   8.695
 1747POPC   D2A26488  11.104  23.600   8.414
 1747POPC   C3A26489  11.275  23.722   8.034
 1747POPC   C4A26490  11.087  23.636   7.664
 1747POPC   C1B26491  11.452  23.355   8.693
 1747POPC   C2B26492  11.546  23.290   8.223
 1747POPC   C3B26493  11.542  23.382   7.759
 1747POPC   C4B26494  11.536  23.432   7.278
 1748POPC   NC326495   4.836  25.892   9.612
 1748POPC   PO426496   5.471  26.006   9.580
 1748POPC   GL126497   5.307  25.998   9.168
 1748POPC   GL226498   5.052  26.205   9.198
 1748POPC   C1A26499   5.281  26.164   8.735
 1748POPC   D2A26500   5.347  25.876   8.390
 1748POPC   C3A26501   5.104  25.888   8.048
 1748POPC   C4A26502   5.311  26.042   7.694
 1748POPC   C1B26503   4.841  26.438   8.862
 1748POPC   C2B26504   4.846  26.562   8.414
 1748POPC   C3B26505   5.008  26.391   8.005
 1748POPC   C4B26506   4.978  26.416   7.533
 1749POPC   NC326507  29.650  42.101   9.477
 1749POPC   PO426508  30.010  42.758   9.496
 1749POPC   GL126509  29.915  42.405   9.189
 1749POPC   GL226510  29.961  42.066   9.087
 1749POPC   C1A26511  29.732  42.389   8.763
 1749POPC   D2A26512  29.839  42.550   8.361
 1749POPC   C3A26513  29.701  42.340   8.010
 1749POPC   C4A26514  29.740  42.529   7.623
 1749POPC   C1B26515  30.150  42.087   8.725
 1749POPC   C2B26516  29.922  42.034   8.388
 1749POPC   C3B26517  30.078  41.972   8.056
 1749POPC   C4B26518  30.080  42.166   7.703
 1750POPC   NC326519   4.763  22.511   9.355
 1750POPC   PO426520   5.470  22.529   9.347
 1750POPC   GL126521   5.207  22.346   9.067
 1750POPC   GL226522   5.085  22.039   9.223
 1750POPC   C1A26523   5.201  22.401   8.621
 1750POPC   D2A26524   5.371  22.335   8.207
 1750POPC   C3A26525   5.123  22.150   7.909
 1750POPC   C4A26526   5.248  21.917   7.555
 1750POPC   C1B26527   5.124  21.919   8.769
 1750POPC   C2B26528   5.260  21.809   8.330
 1750POPC   C3B26529   5.018  21.655   7.974
 1750POPC   C4B26530   4.763  21.755   7.642
 1751POPC   NC326531  22.228  24.208   9.394
 1751POPC   PO426532  22.099  24.751   9.732
 1751POPC   GL126533  22.151  24.657   9.209
 1751POPC   GL226534  21.834  24.408   9.106
 1751POPC   C1A26535  22.210  24.426   8.769
 1751POPC   D2A26536  22.320  24.547   8.340
 1751POPC   C3A26537  22.276  24.351   7.939
 1751POPC   C4A26538  22.301  24.627   7.598
 1751POPC   C1B26539  21.725  24.242   8.676
 1751POPC   C2B26540  21.812  24.274   8.203
 1751POPC   C3B26541  21.800  24.583   7.838
 1751POPC   C4B26542  21.821  24.644   7.366
 1752POPC   NC326543  21.143   9.989   9.590
 1752POPC   PO426544  20.629   9.554   9.451
 1752POPC   GL126545  20.634   9.748   9.098
 1752POPC   GL226546  20.926   9.943   9.121
 1752POPC   C1A26547  20.380   9.795   8.773
 1752POPC   D2A26548  20.308   9.593   8.393
 1752POPC   C3A26549  20.429   9.767   8.019
 1752POPC   C4A26550  20.268   9.900   7.682
 1752POPC   C1B26551  20.765  10.118   8.744
 1752POPC   C2B26552  20.775   9.871   8.380
 1752POPC   C3B26553  20.932   9.759   7.959
 1752POPC   C4B26554  20.767   9.819   7.544
 1753POPC   NC326555  31.314  31.787   9.462
 1753POPC   PO426556  31.526  32.437   9.467
 1753POPC   GL126557  31.524  32.185   9.150
 1753POPC   GL226558  31.200  32.188   9.156
 1753POPC   C1A26559  31.479  32.331   8.741
 1753POPC   D2A26560  31.734  32.583   8.473
 1753POPC   C3A26561  31.452  32.497   8.144
 1753POPC   C4A26562  31.543  32.535   7.707
 1753POPC   C1B26563  31.123  31.976   8.795
 1753POPC   C2B26564  31.248  32.024   8.380
 1753POPC   C3B26565  31.048  32.134   8.006
 1753POPC   C4B26566  31.140  32.215   7.596
 1754POPC   NC326567   8.725  32.386   9.470
 1754POPC   PO426568   9.083  31.812   9.513
 1754POPC   GL126569   9.070  32.098   9.162
 1754POPC   GL226570   9.201  32.427   9.112
 1754POPC   C1A26571   8.876  32.175   8.744
 1754POPC   D2A26572   8.842  32.485   8.405
 1754POPC   C3A26573   8.927  32.442   7.995
 1754POPC   C4A26574   8.836  32.068   7.843
 1754POPC   C1B26575   9.233  32.616   8.706
 1754POPC   C2B26576   9.310  32.740   8.249
 1754POPC   C3B26577   9.399  32.602   7.833
 1754POPC   C4B26578   9.449  32.615   7.362
 1755POPC   NC326579   7.442   0.389   9.416
 1755POPC   PO426580   6.837   0.700   9.237
 1755POPC   GL126581   7.177   0.467   8.994
 1755POPC   GL226582   7.518   0.631   8.980
 1755POPC   C1A26583   7.535   0.163   8.817
 1755POPC   D2A26584   7.787   0.292   8.468
 1755POPC   C3A26585   7.555   0.195   8.114
 1755POPC   C4A26586   7.586   0.300   7.716
 1755POPC   C1B26587   7.405   0.616   8.561
 1755POPC   C2B26588   7.541   0.703   8.176
 1755POPC   C3B26589   7.284   0.683   7.869
 1755POPC   C4B26590   6.877   0.719   7.838
 1756POPC   NC326591  17.225   1.888   9.497
 1756POPC   PO426592  17.946   1.615   9.469
 1756POPC   GL126593  17.661   1.802   9.222
 1756POPC   GL226594  17.718   2.129   9.190
 1756POPC   C1A26595  17.377   1.770   8.870
 1756POPC   D2A26596  17.507   1.772   8.428
 1756POPC   C3A26597  17.262   1.991   8.148
 1756POPC   C4A26598  17.277   1.810   7.752
 1756POPC   C1B26599  17.808   1.994   8.768
 1756POPC   C2B26600  17.887   2.107   8.325
 1756POPC   C3B26601  17.751   1.947   7.980
 1756POPC   C4B26602  17.676   2.090   7.625
 1757POPC   NC326603  30.463  42.682   9.517
 1757POPC   PO426604  30.890  42.193   9.447
 1757POPC   GL126605  30.733  42.412   9.147
 1757POPC   GL226606  30.418  42.251   9.204
 1757POPC   C1A26607  30.680  42.239   8.738
 1757POPC   D2A26608  30.985  42.038   8.489
 1757POPC   C3A26609  30.945  42.135   8.056
 1757POPC   C4A26610  30.768  42.374   7.720
 1757POPC   C1B26611  30.290  42.548   8.895
 1757POPC   C2B26612  30.335  42.531   8.481
 1757POPC   C3B26613  30.402  42.375   8.086
 1757POPC   C4B26614  30.293  42.613   7.728
 1758POPC   NC326615  40.813  12.836   9.510
 1758POPC   PO426616  40.705  12.167   9.408
 1758POPC   GL126617  40.594  12.507   9.160
 1758POPC   GL226618  40.975  12.581   9.118
 1758POPC   C1A26619  40.458  12.753   8.780
 1758POPC   D2A26620  40.616  12.824   8.336
 1758POPC   C3A26621  40.547  13.142   7.993
 1758POPC   C4A26622  40.799  13.254   7.624
 1758POPC   C1B26623  40.977  12.814   8.750
 1758POPC   C2B26624  41.130  12.852   8.348
 1758POPC   C3B26625  41.086  12.997   7.979
 1758POPC   C4B26626  40.808  12.745   7.781
 1759POPC   NC326627  10.018  34.565   9.740
 1759POPC   PO426628   9.427  34.372   9.531
 1759POPC   GL126629   9.772  34.594   9.264
 1759POPC   GL226630   9.545  34.748   9.039
 1759POPC   C1A26631  10.008  34.754   8.877
 1759POPC   D2A26632   9.714  34.810   8.521
 1759POPC   C3A26633   9.745  34.616   8.118
 1759POPC   C4A26634   9.852  34.775   7.709
 1759POPC   C1B26635   9.527  34.375   8.834
 1759POPC   C2B26636   9.350  34.372   8.445
 1759POPC   C3B26637   9.432  34.223   8.052
 1759POPC   C4B26638   9.405  34.473   7.726
 1760POPC   NC326639  24.141  26.070   9.519
 1760POPC   PO426640  23.544  26.057   9.592
 1760POPC   GL126641  23.737  26.039   9.205
 1760POPC   GL226642  23.524  25.799   9.047
 1760POPC   C1A26643  23.973  25.963   8.836
 1760POPC   D2A26644  23.830  25.986   8.398
 1760POPC   C3A26645  24.020  26.080   8.000
 1760POPC   C4A26646  23.829  25.998   7.551
 1760POPC   C1B26647  23.480  26.123   8.756
 1760POPC   C2B26648  23.366  26.207   8.326
 1760POPC   C3B26649  23.517  26.170   7.917
 1760POPC   C4B26650  23.342  25.882   7.608
 1761POPC   NC326651  38.177  14.705   9.511
 1761POPC   PO426652  38.506  14.182   9.400
 1761POPC   GL126653  38.303  14.406   9.112
 1761POPC   GL226654  38.025  14.150   9.147
 1761POPC   C1A26655  38.406  14.594   8.701
 1761POPC   D2A26656  38.283  14.711   8.250
 1761POPC   C3A26657  38.595  14.654   7.939
 1761POPC   C4A26658  38.571  14.742   7.519
 1761POPC   C1B26659  38.166  14.115   8.722
 1761POPC   C2B26660  38.170  14.224   8.312
 1761POPC   C3B26661  38.330  14.231   7.885
 1761POPC   C4B26662  38.646  14.226   7.563
 1762POPC   NC326663  15.321   0.819   9.370
 1762POPC   PO426664  14.727   1.169   9.375
 1762POPC   GL126665  15.066   1.177   9.120
 1762POPC   GL226666  15.376   1.310   9.214
 1762POPC   C1A26667  15.058   1.001   8.719
 1762POPC   D2A26668  14.795   1.094   8.344
 1762POPC   C3A26669  14.996   1.240   7.984
 1762POPC   C4A26670  15.204   0.935   7.779
 1762POPC   C1B26671  15.505   1.257   8.787
 1762POPC   C2B26672  15.339   1.265   8.364
 1762POPC   C3B26673  15.513   1.276   7.956
 1762POPC   C4B26674  15.391   1.369   7.541
 1763POPC   NC326675  32.862  32.181   9.261
 1763POPC   PO426676  33.208  32.701   9.489
 1763POPC   GL126677  33.288  32.469   9.137
 1763POPC   GL226678  33.476  32.748   9.048
 1763POPC   C1A26679  33.226  32.241   8.729
 1763POPC   D2A26680  32.884  32.226   8.418
 1763POPC   C3A26681  32.917  32.414   7.989
 1763POPC   C4A26682  33.051  32.095   7.671
 1763POPC   C1B26683  33.552  32.626   8.675
 1763POPC   C2B26684  33.358  32.529   8.308
 1763POPC   C3B26685  33.417  32.302   7.953
 1763POPC   C4B26686  33.450  32.391   7.552
 1764POPC   NC326687  22.078   6.573   9.353
 1764POPC   PO426688  22.703   6.530   9.194
 1764POPC   GL126689  22.407   6.789   8.991
 1764POPC   GL226690  22.089   6.684   8.873
 1764POPC   C1A26691  22.494   6.778   8.579
 1764POPC   D2A26692  22.198   6.789   8.292
 1764POPC   C3A26693  22.203   6.422   8.112
 1764POPC   C4A26694  22.083   6.337   7.706
 1764POPC   C1B26695  21.760   6.402   8.774
 1764POPC   C2B26696  21.785   6.435   8.381
 1764POPC   C3B26697  21.745   6.198   8.041
 1764POPC   C4B26698  21.557   6.248   7.696
 1765POPC   NC326699   4.480  35.595   9.471
 1765POPC   PO426700   4.952  35.114   9.647
 1765POPC   GL126701   4.665  35.151   9.241
 1765POPC   GL226702   4.318  35.164   9.099
 1765POPC   C1A26703   4.650  35.409   8.822
 1765POPC   D2A26704   4.401  35.585   8.437
 1765POPC   C3A26705   4.519  35.386   8.044
 1765POPC   C4A26706   4.450  35.042   7.748
 1765POPC   C1B26707   4.096  35.490   8.850
 1765POPC   C2B26708   3.905  35.438   8.425
 1765POPC   C3B26709   4.003  35.508   8.021
 1765POPC   C4B26710   4.056  35.647   7.628
 1766POPC   NC326711   7.880  37.044   9.517
 1766POPC   PO426712   7.238  36.727   9.546
 1766POPC   GL126713   7.236  36.920   9.163
 1766POPC   GL226714   7.581  36.942   9.070
 1766POPC   C1A26715   7.206  36.739   8.746
 1766POPC   D2A26716   7.292  36.860   8.316
 1766POPC   C3A26717   7.067  37.137   8.013
 1766POPC   C4A26718   6.933  37.264   7.595
 1766POPC   C1B26719   7.729  36.630   8.745
 1766POPC   C2B26720   7.888  36.623   8.302
 1766POPC   C3B26721   7.627  36.732   7.956
 1766POPC   C4B26722   7.220  36.594   7.867
 1767POPC   NC326723  25.045  42.740   9.501
 1767POPC   PO426724  25.157  43.356   9.385
 1767POPC   GL126725  25.294  43.027   9.130
 1767POPC   GL226726  24.976  42.969   9.074
 1767POPC   C1A26727  25.338  42.783   8.716
 1767POPC   D2A26728  25.546  42.592   8.308
 1767POPC   C3A26729  25.504  42.901   7.947
 1767POPC   C4A26730  25.563  43.035   7.500
 1767POPC   C1B26731  25.098  43.267   8.721
 1767POPC   C2B26732  25.129  43.103   8.306
 1767POPC   C3B26733  25.151  43.274   7.894
 1767POPC   C4B26734  25.047  43.086   7.507
 1768POPC   NC326735  35.505  27.965   9.462
 1768POPC   PO426736  35.317  28.602   9.352
 1768POPC   GL126737  35.301  28.256   9.070
 1768POPC   GL226738  34.990  28.074   9.114
 1768POPC   C1A26739  35.385  28.336   8.641
 1768POPC   D2A26740  35.160  28.595   8.354
 1768POPC   C3A26741  35.371  28.608   7.973
 1768POPC   C4A26742  35.666  28.285   7.857
 1768POPC   C1B26743  34.886  28.239   8.672
 1768POPC   C2B26744  35.052  28.110   8.232
 1768POPC   C3B26745  35.142  28.190   7.780
 1768POPC   C4B26746  35.014  28.037   7.332
 1769POPC   NC326747  38.806  18.935   9.530
 1769POPC   PO426748  39.340  18.787   9.595
 1769POPC   GL126749  39.140  18.801   9.172
 1769POPC   GL226750  39.037  19.140   9.088
 1769POPC   C1A26751  39.091  18.749   8.726
 1769POPC   D2A26752  39.096  18.950   8.331
 1769POPC   C3A26753  39.253  18.768   7.954
 1769POPC   C4A26754  39.415  19.022   7.584
 1769POPC   C1B26755  38.825  19.243   8.679
 1769POPC   C2B26756  38.819  19.362   8.220
 1769POPC   C3B26757  38.990  19.204   7.853
 1769POPC   C4B26758  38.918  18.871   7.573
 1770POPC   NC326759  32.996  40.965   9.529
 1770POPC   PO426760  33.201  40.412   9.375
 1770POPC   GL126761  33.050  40.673   9.061
 1770POPC   GL226762  33.005  41.055   9.034
 1770POPC   C1A26763  32.751  40.636   8.739
 1770POPC   D2A26764  32.794  40.898   8.391
 1770POPC   C3A26765  32.710  40.679   8.020
 1770POPC   C4A26766  32.713  40.535   7.600
 1770POPC   C1B26767  33.378  41.162   8.841
 1770POPC   C2B26768  33.445  41.028   8.420
 1770POPC   C3B26769  33.156  41.093   8.063
 1770POPC   C4B26770  33.118  40.875   7.680
 1771POPC   NC326771  44.114  12.243   9.539
 1771POPC   PO426772  43.683  11.778   9.537
 1771POPC   GL126773  43.804  12.013   9.198
 1771POPC   GL226774  44.142  11.899   9.158
 1771POPC   C1A26775  43.904  12.308   8.872
 1771POPC   D2A26776  43.836  12.183   8.440
 1771POPC   C3A26777  44.063  12.331   8.081
 1771POPC   C4A26778  43.925  12.247   7.672
 1771POPC   C1B26779  43.951  11.809   8.765
 1771POPC   C2B26780  44.115  11.741   8.372
 1771POPC   C3B26781  43.976  11.826   7.946
 1771POPC   C4B26782  44.010  11.797   7.447
 1772POPC   NC326783  36.404   3.806   9.505
 1772POPC   PO426784  35.888   3.294   9.559
 1772POPC   GL126785  36.045   3.505   9.198
 1772POPC   GL226786  36.323   3.587   9.005
 1772POPC   C1A26787  35.879   3.520   8.785
 1772POPC   D2A26788  36.059   3.487   8.394
 1772POPC   C3A26789  35.792   3.570   8.079
 1772POPC   C4A26790  35.819   3.294   7.754
 1772POPC   C1B26791  36.334   3.838   8.640
 1772POPC   C2B26792  36.477   3.763   8.243
 1772POPC   C3B26793  36.281   3.584   7.875
 1772POPC   C4B26794  35.964   3.824   7.681
 1773POPC   NC326795   3.614  15.264   9.482
 1773POPC   PO426796   3.594  14.584   9.466
 1773POPC   GL126797   3.632  14.863   9.143
 1773POPC   GL226798   3.335  15.055   9.069
 1773POPC   C1A26799   3.854  15.014   8.788
 1773POPC   D2A26800   3.651  15.096   8.398
 1773POPC   C3A26801   3.776  15.258   8.016
 1773POPC   C4A26802   3.662  14.913   7.770
 1773POPC   C1B26803   3.470  15.409   8.784
 1773POPC   C2B26804   3.402  15.533   8.330
 1773POPC   C3B26805   3.271  15.187   8.018
 1773POPC   C4B26806   3.334  15.244   7.564
 1774POPC   NC326807  34.170   4.012   9.346
 1774POPC   PO426808  33.673   4.449   9.625
 1774POPC   GL126809  33.679   4.312   9.168
 1774POPC   GL226810  33.770   4.010   9.010
 1774POPC   C1A26811  33.772   4.405   8.694
 1774POPC   D2A26812  33.951   4.302   8.308
 1774POPC   C3A26813  33.690   4.207   7.976
 1774POPC   C4A26814  33.863   4.531   7.741
 1774POPC   C1B26815  34.133   4.016   8.687
 1774POPC   C2B26816  34.366   3.893   8.323
 1774POPC   C3B26817  34.132   3.958   7.978
 1774POPC   C4B26818  34.058   4.092   7.564
 1775POPC   NC326819  31.816   0.663   9.486
 1775POPC   PO426820  32.479   0.289   9.471
 1775POPC   GL126821  32.189   0.470   9.154
 1775POPC   GL226822  31.997   0.779   9.024
 1775POPC   C1A26823  32.329   0.455   8.734
 1775POPC   D2A26824  32.265   0.684   8.361
 1775POPC   C3A26825  32.341   0.416   8.008
 1775POPC   C4A26826  32.385   0.388   7.569
 1775POPC   C1B26827  31.823   0.485   8.714
 1775POPC   C2B26828  31.887   0.366   8.287
 1775POPC   C3B26829  31.918   0.675   7.951
 1775POPC   C4B26830  31.812   0.358   7.692
 1776POPC   NC326831   3.136  39.949   9.481
 1776POPC   PO426832   2.511  39.795   9.434
 1776POPC   GL126833   2.768  39.845   9.086
 1776POPC   GL226834   3.125  39.667   9.067
 1776POPC   C1A26835   2.472  39.847   8.749
 1776POPC   D2A26836   2.330  40.110   8.434
 1776POPC   C3A26837   2.380  39.890   8.042
 1776POPC   C4A26838   2.513  39.851   7.619
 1776POPC   C1B26839   2.968  39.676   8.653
 1776POPC   C2B26840   2.826  39.988   8.395
 1776POPC   C3B26841   2.873  40.059   7.989
 1776POPC   C4B26842   2.968  39.699   7.803
 1777POPC   NC326843  17.033  11.611   9.372
 1777POPC   PO426844  16.582  11.207   9.525
 1777POPC   GL126845  16.395  11.394   9.138
 1777POPC   GL226846  16.751  11.431   8.993
 1777POPC   C1A26847  16.365  11.469   8.678
 1777POPC   D2A26848  16.718  11.380   8.457
 1777POPC   C3A26849  16.637  11.369   8.054
 1777POPC   C4A26850  16.427  11.312   7.702
 1777POPC   C1B26851  17.134  11.527   8.731
 1777POPC   C2B26852  17.223  11.430   8.317
 1777POPC   C3B26853  17.120  11.169   7.993
 1777POPC   C4B26854  16.942  11.280   7.608
 1778POPC   NC326855  24.700  43.262   9.440
 1778POPC   PO426856  24.086  43.318   9.361
 1778POPC   GL126857  24.320  43.115   9.037
 1778POPC   GL226858  24.595  43.248   8.927
 1778POPC   C1A26859  24.284  42.946   8.618
 1778POPC   D2A26860  24.182  43.025   8.189
 1778POPC   C3A26861  24.302  42.813   7.815
 1778POPC   C4A26862  24.218  43.293   7.703
 1778POPC   C1B26863  24.768  42.896   8.646
 1778POPC   C2B26864  24.647  42.867   8.242
 1778POPC   C3B26865  24.670  43.137   7.882
 1778POPC   C4B26866  24.555  43.081   7.421
 1779POPC   NC326867  41.194  29.851   9.498
 1779POPC   PO426868  41.707  29.439   9.333
 1779POPC   GL126869  41.522  29.808   9.071
 1779POPC   GL226870  41.243  30.074   9.024
 1779POPC   C1A26871  41.494  29.854   8.616
 1779POPC   D2A26872  41.420  29.668   8.210
 1779POPC   C3A26873  41.643  29.871   7.878
 1779POPC   C4A26874  41.881  30.264   7.897
 1779POPC   C1B26875  41.366  30.344   8.638
 1779POPC   C2B26876  41.427  30.197   8.210
 1779POPC   C3B26877  41.084  29.979   7.935
 1779POPC   C4B26878  40.857  29.877   7.542
 1780POPC   NC326879  23.479  39.131   9.484
 1780POPC   PO426880  24.073  39.431   9.425
 1780POPC   GL126881  23.774  39.355   9.141
 1780POPC   GL226882  23.780  39.025   9.070
 1780POPC   C1A26883  23.565  39.447   8.801
 1780POPC   D2A26884  23.747  39.249   8.465
 1780POPC   C3A26885  23.644  39.296   8.045
 1780POPC   C4A26886  23.868  39.091   7.688
 1780POPC   C1B26887  23.484  38.874   8.780
 1780POPC   C2B26888  23.340  38.904   8.352
 1780POPC   C3B26889  23.571  38.804   7.985
 1780POPC   C4B26890  23.511  38.735   7.547
 1781POPC   NC326891  14.404  21.922   9.496
 1781POPC   PO426892  13.890  22.274   9.590
 1781POPC   GL126893  14.204  22.325   9.215
 1781POPC   GL226894  14.275  22.006   9.014
 1781POPC   C1A26895  14.399  22.433   8.791
 1781POPC   D2A26896  14.659  22.251   8.460
 1781POPC   C3A26897  14.469  22.267   8.085
 1781POPC   C4A26898  14.342  22.181   7.701
 1781POPC   C1B26899  14.623  21.871   8.780
 1781POPC   C2B26900  14.650  21.734   8.348
 1781POPC   C3B26901  14.620  21.798   7.888
 1781POPC   C4B26902  14.671  21.891   7.407
 1782POPC   NC326903  36.938   1.455   9.605
 1782POPC   PO426904  36.826   0.819   9.768
 1782POPC   GL126905  36.956   1.012   9.323
 1782POPC   GL226906  36.780   1.326   9.140
 1782POPC   C1A26907  36.918   0.936   8.853
 1782POPC   D2A26908  36.789   1.175   8.462
 1782POPC   C3A26909  36.968   0.971   8.077
 1782POPC   C4A26910  36.891   1.124   7.654
 1782POPC   C1B26911  37.126   1.413   8.816
 1782POPC   C2B26912  37.252   1.347   8.366
 1782POPC   C3B26913  37.061   1.471   7.982
 1782POPC   C4B26914  37.325   1.412   7.623
 1783POPC   NC326915   6.117  31.036   9.265
 1783POPC   PO426916   5.825  31.649   9.510
 1783POPC   GL126917   5.552  31.606   9.168
 1783POPC   GL226918   5.511  31.280   9.157
 1783POPC   C1A26919   5.531  31.810   8.772
 1783POPC   D2A26920   5.792  31.918   8.415
 1783POPC   C3A26921   5.649  31.799   8.005
 1783POPC   C4A26922   5.939  31.680   7.665
 1783POPC   C1B26923   5.749  31.316   8.766
 1783POPC   C2B26924   6.100  31.231   8.446
 1783POPC   C3B26925   6.110  31.238   7.988
 1783POPC   C4B26926   5.710  31.245   7.778
 1784POPC   NC326927  37.703  23.509   9.444
 1784POPC   PO426928  38.320  23.425   9.391
 1784POPC   GL126929  38.453  23.556   9.014
 1784POPC   GL226930  38.707  23.313   9.014
 1784POPC   C1A26931  38.313  23.905   8.781
 1784POPC   D2A26932  38.181  24.081   8.380
 1784POPC   C3A26933  38.335  23.864   7.976
 1784POPC   C4A26934  38.317  23.894   7.527
 1784POPC   C1B26935  38.797  23.514   8.618
 1784POPC   C2B26936  38.718  23.469   8.144
 1784POPC   C3B26937  38.578  23.462   7.708
 1784POPC   C4B26938  38.844  23.500   7.341
 1785POPC   NC326939  33.047  18.038   9.668
 1785POPC   PO426940  32.544  18.434   9.341
 1785POPC   GL126941  32.843  18.104   9.189
 1785POPC   GL226942  33.206  17.947   9.180
 1785POPC   C1A26943  32.905  18.021   8.762
 1785POPC   D2A26944  32.762  17.827   8.366
 1785POPC   C3A26945  32.893  18.068   7.991
 1785POPC   C4A26946  32.757  18.220   7.573
 1785POPC   C1B26947  33.358  18.216   8.847
 1785POPC   C2B26948  33.235  18.179   8.387
 1785POPC   C3B26949  33.396  18.212   7.948
 1785POPC   C4B26950  33.238  18.345   7.512
 1786POPC   NC326951   3.763  24.039   9.495
 1786POPC   PO426952   3.365  23.483   9.429
 1786POPC   GL126953   3.628  23.658   9.160
 1786POPC   GL226954   3.431  23.947   9.111
 1786POPC   C1A26955   3.713  23.535   8.761
 1786POPC   D2A26956   3.838  23.349   8.377
 1786POPC   C3A26957   3.710  23.521   7.976
 1786POPC   C4A26958   3.580  23.698   7.598
 1786POPC   C1B26959   3.617  24.056   8.756
 1786POPC   C2B26960   3.667  23.875   8.363
 1786POPC   C3B26961   3.426  23.951   8.022
 1786POPC   C4B26962   3.395  24.193   7.672
 1787POPC   NC326963  15.966  20.175   9.775
 1787POPC   PO426964  15.619  19.648   9.550
 1787POPC   GL126965  15.987  19.677   9.248
 1787POPC   GL226966  16.079  19.989   9.075
 1787POPC   C1A26967  16.002  19.552   8.782
 1787POPC   D2A26968  16.062  19.353   8.353
 1787POPC   C3A26969  15.972  19.617   8.007
 1787POPC   C4A26970  15.617  19.714   7.815
 1787POPC   C1B26971  15.852  20.023   8.655
 1787POPC   C2B26972  15.917  20.109   8.206
 1787POPC   C3B26973  15.953  20.143   7.776
 1787POPC   C4B26974  16.145  20.288   7.383
 1788POPC   NC326975  13.807  32.817   9.306
 1788POPC   PO426976  13.339  33.227   9.472
 1788POPC   GL126977  13.543  33.193   9.104
 1788POPC   GL226978  13.334  32.882   9.083
 1788POPC   C1A26979  13.811  33.242   8.747
 1788POPC   D2A26980  13.818  33.421   8.361
 1788POPC   C3A26981  13.905  33.259   7.980
 1788POPC   C4A26982  13.664  33.205   7.638
 1788POPC   C1B26983  13.588  32.787   8.711
 1788POPC   C2B26984  13.760  32.910   8.314
 1788POPC   C3B26985  13.769  32.742   7.870
 1788POPC   C4B26986  13.413  32.714   7.565
 1789POPC   NC326987  12.067  25.702   9.464
 1789POPC   PO426988  11.799  25.092   9.734
 1789POPC   GL126989  11.968  25.189   9.290
 1789POPC   GL226990  12.257  24.988   9.117
 1789POPC   C1A26991  11.847  25.098   8.851
 1789POPC   D2A26992  12.021  24.863   8.512
 1789POPC   C3A26993  11.933  25.075   8.136
 1789POPC   C4A26994  11.983  25.070   7.732
 1789POPC   C1B26995  12.317  25.215   8.712
 1789POPC   C2B26996  12.415  25.152   8.266
 1789POPC   C3B26997  12.379  25.370   7.858
 1789POPC   C4B26998  12.265  25.578   7.463
 1790POPC   NC326999  30.263  29.075   9.505
 1790POPC   PO427000  29.754  29.427   9.549
 1790POPC   GL127001  29.930  29.224   9.130
 1790POPC   GL227002  30.280  29.282   9.043
 1790POPC   C1A27003  29.955  29.283   8.649
 1790POPC   D2A27004  30.126  29.241   8.200
 1790POPC   C3A27005  29.791  29.152   7.864
 1790POPC   C4A27006  29.538  29.379   7.557
 1790POPC   C1B27007  30.370  28.986   8.693
 1790POPC   C2B27008  30.303  28.769   8.281
 1790POPC   C3B27009  30.206  28.864   7.821
 1790POPC   C4B27010  30.391  28.928   7.436
 1791POPC   NC327011  19.511  33.219   9.495
 1791POPC   PO427012  19.919  32.676   9.398
 1791POPC   GL127013  19.743  32.817   9.073
 1791POPC   GL227014  19.872  33.144   9.122
 1791POPC   C1A27015  19.652  32.975   8.675
 1791POPC   D2A27016  19.506  33.186   8.321
 1791POPC   C3A27017  19.565  32.989   7.919
 1791POPC   C4A27018  19.725  33.174   7.535
 1791POPC   C1B27019  20.106  33.245   8.769
 1791POPC   C2B27020  20.134  33.005   8.380
 1791POPC   C3B27021  20.080  33.128   7.935
 1791POPC   C4B27022  20.217  33.350   7.563
 1792POPC   NC327023  16.084  36.912   9.540
 1792POPC   PO427024  15.588  37.208   9.508
 1792POPC   GL127025  15.702  36.907   9.185
 1792POPC   GL227026  16.059  36.917   9.045
 1792POPC   C1A27027  15.697  36.660   8.812
 1792POPC   D2A27028  15.951  36.817   8.480
 1792POPC   C3A27029  15.752  36.847   8.090
 1792POPC   C4A27030  15.934  36.812   7.714
 1792POPC   C1B27031  16.272  37.131   8.758
 1792POPC   C2B27032  16.440  37.094   8.349
 1792POPC   C3B27033  16.303  37.296   7.987
 1792POPC   C4B27034  16.196  37.208   7.582
 1793POPC   NC327035  19.441   2.892   9.543
 1793POPC   PO427036  20.076   2.647   9.517
 1793POPC   GL127037  19.873   2.868   9.207
 1793POPC   GL227038  19.619   2.613   9.149
 1793POPC   C1A27039  19.818   2.863   8.757
 1793POPC   D2A27040  19.925   2.899   8.339
 1793POPC   C3A27041  20.126   2.643   8.084
 1793POPC   C4A27042  19.895   2.579   7.721
 1793POPC   C1B27043  19.476   2.479   8.733
 1793POPC   C2B27044  19.459   2.600   8.277
 1793POPC   C3B27045  19.394   2.457   7.801
 1793POPC   C4B27046  19.581   2.456   7.330
 1794POPC   NC327047  27.679  40.309   9.925
 1794POPC   PO427048  27.269  39.853   9.530
 1794POPC   GL127049  27.462  39.817   9.092
 1794POPC   GL227050  27.506  40.142   8.947
 1794POPC   C1A27051  27.516  39.783   8.610
 1794POPC   D2A27052  27.756  39.830   8.230
 1794POPC   C3A27053  27.514  39.929   7.884
 1794POPC   C4A27054  27.505  40.090   7.462
 1794POPC   C1B27055  27.700  40.455   8.780
 1794POPC   C2B27056  27.833  40.314   8.437
 1794POPC   C3B27057  27.640  40.371   8.104
 1794POPC   C4B27058  27.854  40.303   7.769
 1795POPC   NC327059  41.619  32.074   9.742
 1795POPC   PO427060  41.160  31.676   9.523
 1795POPC   GL127061  41.437  31.440   9.195
 1795POPC   GL227062  41.522  31.087   9.082
 1795POPC   C1A27063  41.524  31.468   8.733
 1795POPC   D2A27064  41.481  31.252   8.329
 1795POPC   C3A27065  41.561  31.505   7.965
 1795POPC   C4A27066  41.734  31.511   7.572
 1795POPC   C1B27067  41.866  31.098   8.742
 1795POPC   C2B27068  41.964  31.036   8.298
 1795POPC   C3B27069  41.991  31.126   7.849
 1795POPC   C4B27070  42.012  31.111   7.379
 1796POPC   NC327071  21.312  27.840   9.584
 1796POPC   PO427072  21.686  27.275   9.651
 1796POPC   GL127073  21.603  27.579   9.258
 1796POPC   GL227074  21.225  27.587   9.145
 1796POPC   C1A27075  21.579  27.702   8.798
 1796POPC   D2A27076  21.683  27.631   8.361
 1796POPC   C3A27077  21.488  27.731   7.967
 1796POPC   C4A27078  21.616  27.512   7.613
 1796POPC   C1B27079  21.150  27.409   8.710
 1796POPC   C2B27080  21.165  27.414   8.241
 1796POPC   C3B27081  21.167  27.240   7.807
 1796POPC   C4B27082  21.271  27.234   7.370
 1797POPC   NC327083  23.275  12.450   9.648
 1797POPC   PO427084  23.850  11.978   9.633
 1797POPC   GL127085  23.872  11.892   9.187
 1797POPC   GL227086  23.567  11.853   8.994
 1797POPC   C1A27087  23.971  12.109   8.782
 1797POPC   D2A27088  24.187  12.185   8.385
 1797POPC   C3A27089  24.104  12.012   8.011
 1797POPC   C4A27090  23.824  12.101   7.711
 1797POPC   C1B27091  23.501  12.069   8.621
 1797POPC   C2B27092  23.652  12.214   8.225
 1797POPC   C3B27093  23.367  12.183   7.877
 1797POPC   C4B27094  23.380  11.980   7.456
 1798POPC   NC327095   7.676  30.350   9.524
 1798POPC   PO427096   7.295  30.884   9.472
 1798POPC   GL127097   7.338  30.576   9.141
 1798POPC   GL227098   7.676  30.580   9.079
 1798POPC   C1A27099   7.360  30.602   8.681
 1798POPC   D2A27100   7.512  30.972   8.439
 1798POPC   C3A27101   7.592  30.872   8.000
 1798POPC   C4A27102   7.653  30.801   7.548
 1798POPC   C1B27103   7.781  30.242   8.792
 1798POPC   C2B27104   7.704  30.040   8.361
 1798POPC   C3B27105   7.645  30.266   7.966
 1798POPC   C4B27106   7.779  30.324   7.522
 1799POPC   NC327107  10.546  14.325   9.562
 1799POPC   PO427108  10.264  14.854   9.958
 1799POPC   GL127109  10.207  14.565   9.336
 1799POPC   GL227110  10.567  14.631   9.166
 1799POPC   C1A27111  10.246  14.481   8.822
 1799POPC   D2A27112  10.424  14.785   8.457
 1799POPC   C3A27113  10.534  14.615   8.017
 1799POPC   C4A27114  10.264  14.342   7.763
 1799POPC   C1B27115  10.714  14.270   8.918
 1799POPC   C2B27116  10.706  14.164   8.487
 1799POPC   C3B27117  10.584  14.098   8.081
 1799POPC   C4B27118  10.761  14.183   7.685
 1800POPC   NC327119  24.270  24.945   9.456
 1800POPC   PO427120  24.206  25.633   9.410
 1800POPC   GL127121  24.468  25.366   9.100
 1800POPC   GL227122  24.565  25.012   9.048
 1800POPC   C1A27123  24.277  25.282   8.703
 1800POPC   D2A27124  24.094  25.532   8.371
 1800POPC   C3A27125  24.119  25.351   8.005
 1800POPC   C4A27126  24.187  24.990   7.803
 1800POPC   C1B27127  24.787  25.171   8.676
 1800POPC   C2B27128  24.588  25.324   8.293
 1800POPC   C3B27129  24.626  25.301   7.871
 1800POPC   C4B27130  24.823  25.098   7.540
 1801POPC   NC327131   5.427  32.711   9.440
 1801POPC   PO427132   4.788  32.734   9.231
 1801POPC   GL127133   5.042  33.008   9.055
 1801POPC   GL227134   5.334  33.158   9.168
 1801POPC   C1A27135   5.121  32.862   8.657
 1801POPC   D2A27136   5.430  32.768   8.360
 1801POPC   C3A27137   5.235  32.810   7.952
 1801POPC   C4A27138   4.772  32.795   7.821
 1801POPC   C1B27139   5.511  33.153   8.754
 1801POPC   C2B27140   5.301  33.286   8.348
 1801POPC   C3B27141   5.113  33.303   7.917
 1801POPC   C4B27142   5.127  33.056   7.507
 1802POPC   NC327143   8.593  41.634   9.410
 1802POPC   PO427144   9.115  41.275   9.562
 1802POPC   GL127145   9.150  41.469   9.162
 1802POPC   GL227146   8.868  41.641   8.991
 1802POPC   C1A27147   9.207  41.332   8.753
 1802POPC   D2A27148   9.168  41.564   8.396
 1802POPC   C3A27149   9.061  41.383   8.027
 1802POPC   C4A27150   8.760  41.546   7.758
 1802POPC   C1B27151   8.779  41.866   8.617
 1802POPC   C2B27152   8.760  41.803   8.194
 1802POPC   C3B27153   8.444  41.931   7.915
 1802POPC   C4B27154   8.484  41.901   7.468
 1803POPC   NC327155  38.740  11.126   9.541
 1803POPC   PO427156  38.970  11.737   9.357
 1803POPC   GL127157  38.638  11.565   9.114
 1803POPC   GL227158  38.399  11.277   9.159
 1803POPC   C1A27159  38.582  11.434   8.701
 1803POPC   D2A27160  38.304  11.253   8.406
 1803POPC   C3A27161  38.503  11.383   8.040
 1803POPC   C4A27162  38.350  11.410   7.626
 1803POPC   C1B27163  38.441  10.938   8.829
 1803POPC   C2B27164  38.314  10.710   8.450
 1803POPC   C3B27165  38.330  10.861   8.037
 1803POPC   C4B27166  38.617  11.000   7.738
 1804POPC   NC327167  12.135  22.229   9.437
 1804POPC   PO427168  11.595  21.828   9.549
 1804POPC   GL127169  11.907  21.873   9.159
 1804POPC   GL227170  12.251  21.949   9.036
 1804POPC   C1A27171  11.839  22.088   8.756
 1804POPC   D2A27172  11.921  22.327   8.392
 1804POPC   C3A27173  12.075  22.063   8.082
 1804POPC   C4A27174  11.990  22.187   7.682
 1804POPC   C1B27175  12.319  22.315   8.754
 1804POPC   C2B27176  12.454  22.376   8.326
 1804POPC   C3B27177  12.246  22.534   7.954
 1804POPC   C4B27178  12.211  22.701   7.554
 1805POPC   NC327179  37.699  21.834   9.872
 1805POPC   PO427180  37.399  22.317   9.530
 1805POPC   GL127181  37.510  22.525   9.153
 1805POPC   GL227182  37.762  22.257   9.141
 1805POPC   C1A27183  37.477  22.388   8.739
 1805POPC   D2A27184  37.486  22.059   8.432
 1805POPC   C3A27185  37.510  22.235   8.044
 1805POPC   C4A27186  37.463  22.020   7.680
 1805POPC   C1B27187  37.822  21.977   8.823
 1805POPC   C2B27188  37.978  21.891   8.412
 1805POPC   C3B27189  37.918  21.920   7.991
 1805POPC   C4B27190  37.921  22.264   7.701
 1806POPC   NC327191  37.373  32.459   9.330
 1806POPC   PO427192  36.744  32.306   9.542
 1806POPC   GL127193  36.965  32.241   9.130
 1806POPC   GL227194  36.737  32.042   8.976
 1806POPC   C1A27195  37.139  32.288   8.702
 1806POPC   D2A27196  36.865  32.502   8.415
 1806POPC   C3A27197  36.960  32.660   8.023
 1806POPC   C4A27198  36.730  32.800   7.669
 1806POPC   C1B27199  36.999  31.811   8.668
 1806POPC   C2B27200  37.106  31.936   8.240
 1806POPC   C3B27201  36.889  32.166   7.907
 1806POPC   C4B27202  36.696  32.088   7.470
 1807POPC   NC327203  43.649   0.165   9.401
 1807POPC   PO427204  44.114   0.634   9.546
 1807POPC   GL127205  44.037   0.759   9.123
 1807POPC   GL227206  43.749   0.516   9.028
 1807POPC   C1A27207  44.092   0.666   8.676
 1807POPC   D2A27208  43.712   0.497   8.481
 1807POPC   C3A27209  43.655   0.543   8.026
 1807POPC   C4A27210  43.841   0.856   7.745
 1807POPC   C1B27211  43.993   0.162   8.761
 1807POPC   C2B27212  44.044   0.174   8.278
 1807POPC   C3B27213  43.889   0.084   7.856
 1807POPC   C4B27214  44.066   0.083   7.417
 1808POPC   NC327215   1.048  25.454   9.990
 1808POPC   PO427216   1.494  25.715   9.498
 1808POPC   GL127217   1.240  25.543   9.132
 1808POPC   GL227218   1.075  25.266   9.124
 1808POPC   C1A27219   1.373  25.366   8.719
 1808POPC   D2A27220   1.514  25.447   8.304
 1808POPC   C3A27221   1.159  25.501   8.047
 1808POPC   C4A27222   1.212  25.406   7.615
 1808POPC   C1B27223   1.038  24.986   8.781
 1808POPC   C2B27224   1.098  25.099   8.361
 1808POPC   C3B27225   1.326  25.012   7.978
 1808POPC   C4B27226   1.079  24.929   7.629
 1809POPC   NC327227   3.413  24.683   9.485
 1809POPC   PO427228   4.007  24.446   9.546
 1809POPC   GL127229   3.745  24.423   9.165
 1809POPC   GL227230   3.819  24.750   9.146
 1809POPC   C1A27231   3.488  24.568   8.790
 1809POPC   D2A27232   3.453  24.376   8.370
 1809POPC   C3A27233   3.476  24.641   8.011
 1809POPC   C4A27234   3.635  24.629   7.605
 1809POPC   C1B27235   3.987  24.640   8.762
 1809POPC   C2B27236   3.854  24.730   8.336
 1809POPC   C3B27237   4.033  24.811   7.914
 1809POPC   C4B27238   4.043  24.844   7.424
 1810POPC   NC327239   0.386  19.962   9.625
 1810POPC   PO427240   0.789  19.419   9.674
 1810POPC   GL127241   0.729  19.716   9.249
 1810POPC   GL227242   0.644  20.085   9.158
 1810POPC   C1A27243   0.580  19.788   8.773
 1810POPC   D2A27244   0.681  20.071   8.404
 1810POPC   C3A27245   0.635  19.891   7.977
 1810POPC   C4A27246   0.520  19.593   7.628
 1810POPC   C1B27247   0.370  20.303   8.770
 1810POPC   C2B27248   0.252  20.406   8.290
 1810POPC   C3B27249   0.282  20.227   7.814
 1810POPC   C4B27250   0.118  20.346   7.372
 1811POPC   NC327251  11.170  22.487   9.410
 1811POPC   PO427252  11.769  22.482   9.284
 1811POPC   GL127253  11.456  22.133   9.132
 1811POPC   GL227254  11.431  21.747   9.075
 1811POPC   C1A27255  11.154  22.171   8.801
 1811POPC   D2A27256  11.071  22.547   8.523
 1811POPC   C3A27257  11.068  22.456   8.073
 1811POPC   C4A27258  11.126  22.055   7.839
 1811POPC   C1B27259  11.457  21.759   8.635
 1811POPC   C2B27260  11.350  22.077   8.332
 1811POPC   C3B27261  11.582  22.200   7.997
 1811POPC   C4B27262  11.701  21.783   7.789
 1812POPC   NC327263  11.787  15.215   9.514
 1812POPC   PO427264  12.355  15.409   9.681
 1812POPC   GL127265  12.340  15.309   9.224
 1812POPC   GL227266  12.129  15.018   9.181
 1812POPC   C1A27267  12.313  15.225   8.761
 1812POPC   D2A27268  12.111  15.043   8.427
 1812POPC   C3A27269  12.266  15.039   8.025
 1812POPC   C4A27270  12.051  15.098   7.630
 1812POPC   C1B27271  11.798  15.059   8.865
 1812POPC   C2B27272  11.633  14.874   8.498
 1812POPC   C3B27273  11.819  14.760   8.106
 1812POPC   C4B27274  11.610  14.872   7.750
 1813POPC   NC327275  37.438  42.371   9.395
 1813POPC   PO427276  37.929  42.792   9.423
 1813POPC   GL127277  37.949  42.681   9.005
 1813POPC   GL227278  37.626  42.516   8.935
 1813POPC   C1A27279  37.833  42.883   8.624
 1813POPC   D2A27280  37.503  42.634   8.445
 1813POPC   C3A27281  37.614  42.329   8.179
 1813POPC   C4A27282  37.581  42.423   7.733
 1813POPC   C1B27283  37.494  42.146   8.663
 1813POPC   C2B27284  37.152  42.077   8.361
 1813POPC   C3B27285  37.276  42.045   7.932
 1813POPC   C4B27286  37.716  41.946   7.849
 1814POPC   NC327287  11.408  24.267   9.663
 1814POPC   PO427288  11.154  24.894   9.537
 1814POPC   GL127289  11.165  24.540   9.219
 1814POPC   GL227290  11.506  24.394   9.107
 1814POPC   C1A27291  11.094  24.440   8.786
 1814POPC   D2A27292  11.097  24.679   8.381
 1814POPC   C3A27293  11.244  24.454   8.017
 1814POPC   C4A27294  11.177  24.148   7.710
 1814POPC   C1B27295  11.531  24.700   8.717
 1814POPC   C2B27296  11.641  24.643   8.262
 1814POPC   C3B27297  11.560  24.821   7.835
 1814POPC   C4B27298  11.488  25.000   7.397
 1815POPC   NC327299   7.501  34.054   9.412
 1815POPC   PO427300   6.982  33.681   9.631
 1815POPC   GL127301   7.222  33.611   9.239
 1815POPC   GL227302   7.605  33.574   9.240
 1815POPC   C1A27303   7.322  33.792   8.830
 1815POPC   D2A27304   7.205  33.876   8.420
 1815POPC   C3A27305   7.470  33.904   8.077
 1815POPC   C4A27306   7.218  33.889   7.735
 1815POPC   C1B27307   7.496  33.332   8.865
 1815POPC   C2B27308   7.646  33.573   8.473
 1815POPC   C3B27309   7.805  33.507   8.041
 1815POPC   C4B27310   7.611  33.561   7.632
 1816POPC   NC327311   6.754  10.105   9.470
 1816POPC   PO427312   6.355  10.734   9.410
 1816POPC   GL127313   6.470  10.384   9.140
 1816POPC   GL227314   6.763  10.488   9.122
 1816POPC   C1A27315   6.577  10.221   8.709
 1816POPC   D2A27316   6.847  10.286   8.301
 1816POPC   C3A27317   6.562  10.348   7.928
 1816POPC   C4A27318   6.350  10.281   7.514
 1816POPC   C1B27319   6.951  10.561   8.741
 1816POPC   C2B27320   7.035  10.778   8.353
 1816POPC   C3B27321   6.961  10.696   7.935
 1816POPC   C4B27322   6.628  10.820   7.709
 1817POPC   NC327323  30.051  10.978   9.706
 1817POPC   PO427324  29.648  11.452   9.571
 1817POPC   GL127325  29.764  11.350   9.176
 1817POPC   GL227326  29.859  11.053   9.193
 1817POPC   C1A27327  29.604  11.265   8.771
 1817POPC   D2A27328  29.574  11.470   8.364
 1817POPC   C3A27329  29.730  11.301   7.978
 1817POPC   C4A27330  30.164  11.420   7.751
 1817POPC   C1B27331  30.072  11.020   8.744
 1817POPC   C2B27332  30.139  11.136   8.249
 1817POPC   C3B27333  30.231  10.922   7.821
 1817POPC   C4B27334  30.323  11.088   7.374
 1818POPC   NC327335  10.578  24.962   9.665
 1818POPC   PO427336  10.285  24.395   9.311
 1818POPC   GL127337  10.636  24.476   9.077
 1818POPC   GL227338  10.691  24.154   8.943
 1818POPC   C1A27339  10.662  24.691   8.682
 1818POPC   D2A27340  10.540  24.679   8.265
 1818POPC   C3A27341  10.498  24.284   8.083
 1818POPC   C4A27342  10.776  24.463   7.815
 1818POPC   C1B27343  10.313  24.262   8.660
 1818POPC   C2B27344  10.035  24.122   8.313
 1818POPC   C3B27345  10.031  24.297   7.874
 1818POPC   C4B27346  10.372  24.364   7.525
 1819POPC   NC327347  13.399  19.379   9.245
 1819POPC   PO427348  13.746  18.848   9.359
 1819POPC   GL127349  13.713  18.722   8.990
 1819POPC   GL227350  13.433  18.913   8.961
 1819POPC   C1A27351  13.815  18.898   8.605
 1819POPC   D2A27352  13.583  19.116   8.312
 1819POPC   C3A27353  13.661  19.040   7.914
 1819POPC   C4A27354  13.956  18.780   7.779
 1819POPC   C1B27355  13.076  18.814   8.797
 1819POPC   C2B27356  13.112  19.011   8.451
 1819POPC   C3B27357  13.189  18.886   8.057
 1819POPC   C4B27358  13.089  18.948   7.662
 1820POPC   NC327359  42.583  30.787   9.597
 1820POPC   PO427360  41.866  31.013   9.450
 1820POPC   GL127361  42.152  30.859   9.108
 1820POPC   GL227362  42.521  30.867   9.081
 1820POPC   C1A27363  42.238  30.722   8.665
 1820POPC   D2A27364  42.398  30.482   8.297
 1820POPC   C3A27365  42.232  30.657   7.898
 1820POPC   C4A27366  42.376  30.754   7.461
 1820POPC   C1B27367  42.605  31.070   8.693
 1820POPC   C2B27368  42.476  30.977   8.247
 1820POPC   C3B27369  42.528  31.078   7.826
 1820POPC   C4B27370  42.863  30.979   7.564
 1821POPC   NC327371   0.929  25.607   9.501
 1821POPC   PO427372   1.130  26.218   9.796
 1821POPC   GL127373   1.194  26.070   9.314
 1821POPC   GL227374   0.917  25.985   9.127
 1821POPC   C1A27375   1.359  25.932   8.871
 1821POPC   D2A27376   1.360  26.147   8.496
 1821POPC   C3A27377   1.481  26.110   8.098
 1821POPC   C4A27378   1.529  25.748   7.844
 1821POPC   C1B27379   0.926  26.240   8.735
 1821POPC   C2B27380   0.972  26.418   8.288
 1821POPC   C3B27381   0.952  26.261   7.854
 1821POPC   C4B27382   1.003  26.500   7.465
 1822POPC   NC327383  20.120  32.245   9.516
 1822POPC   PO427384  19.431  31.950   9.523
 1822POPC   GL127385  19.725  32.207   9.182
 1822POPC   GL227386  20.086  32.018   9.075
 1822POPC   C1A27387  19.805  32.409   8.748
 1822POPC   D2A27388  19.751  32.626   8.306
 1822POPC   C3A27389  19.856  32.417   7.906
 1822POPC   C4A27390  19.732  32.184   7.509
 1822POPC   C1B27391  20.172  31.983   8.658
 1822POPC   C2B27392  19.923  32.056   8.313
 1822POPC   C3B27393  20.068  31.785   7.998
 1822POPC   C4B27394  20.277  31.591   7.644
 1823POPC   NC327395   1.737   6.215   9.380
 1823POPC   PO427396   2.096   6.904   9.559
 1823POPC   GL127397   2.166   6.697   9.144
 1823POPC   GL227398   1.831   6.615   9.109
 1823POPC   C1A27399   2.082   6.475   8.704
 1823POPC   D2A27400   1.897   6.630   8.327
 1823POPC   C3A27401   2.106   6.667   7.952
 1823POPC   C4A27402   2.408   6.387   7.804
 1823POPC   C1B27403   1.569   6.511   8.709
 1823POPC   C2B27404   1.403   6.687   8.290
 1823POPC   C3B27405   1.602   6.522   7.879
 1823POPC   C4B27406   1.911   6.432   7.521
 1824POPC   NC327407  20.483  38.663   9.546
 1824POPC   PO427408  20.894  38.201   9.283
 1824POPC   GL127409  20.554  38.380   9.125
 1824POPC   GL227410  20.790  38.484   8.864
 1824POPC   C1A27411  20.277  38.391   8.792
 1824POPC   D2A27412  20.453  38.471   8.397
 1824POPC   C3A27413  20.404  38.298   8.013
 1824POPC   C4A27414  20.189  38.444   7.664
 1824POPC   C1B27415  20.686  38.090   8.677
 1824POPC   C2B27416  20.782  38.032   8.279
 1824POPC   C3B27417  20.941  38.349   7.999
 1824POPC   C4B27418  20.800  38.262   7.586
 1825POPC   NC327419  20.625  34.309   9.250
 1825POPC   PO427420  20.838  34.942   9.538
 1825POPC   GL127421  20.746  34.836   9.098
 1825POPC   GL227422  20.817  34.526   8.842
 1825POPC   C1A27423  20.878  35.004   8.712
 1825POPC   D2A27424  20.976  34.744   8.355
 1825POPC   C3A27425  20.593  34.699   8.113
 1825POPC   C4A27426  20.421  34.749   7.711
 1825POPC   C1B27427  20.568  34.231   8.578
 1825POPC   C2B27428  20.321  34.268   8.203
 1825POPC   C3B27429  20.513  34.274   7.817
 1825POPC   C4B27430  20.917  34.548   7.729
 1826POPC   NC327431  22.645  39.645   9.285
 1826POPC   PO427432  22.887  40.097   9.738
 1826POPC   GL127433  22.869  40.094   9.226
 1826POPC   GL227434  23.117  39.827   9.061
 1826POPC   C1A27435  22.972  40.225   8.778
 1826POPC   D2A27436  23.106  40.030   8.381
 1826POPC   C3A27437  23.046  40.242   7.988
 1826POPC   C4A27438  22.825  40.329   7.589
 1826POPC   C1B27439  22.892  39.685   8.695
 1826POPC   C2B27440  22.820  39.627   8.263
 1826POPC   C3B27441  23.154  39.725   7.955
 1826POPC   C4B27442  22.806  39.834   7.754
 1827POPC   NC327443  18.603  43.817   9.537
 1827POPC   PO427444  18.074  44.225   9.438
 1827POPC   GL127445  18.316  43.947   9.108
 1827POPC   GL227446  18.489  43.576   9.121
 1827POPC   C1A27447  18.136  44.046   8.710
 1827POPC   D2A27448  17.992  44.136   8.301
 1827POPC   C3A27449  18.311  44.067   7.992
 1827POPC   C4A27450  18.048  43.754   7.836
 1827POPC   C1B27451  18.333  43.558   8.713
 1827POPC   C2B27452  18.395  43.621   8.255
 1827POPC   C3B27453  18.467  43.457   7.817
 1827POPC   C4B27454  18.563  43.715   7.448
 1828POPC   NC327455  25.769  19.677   9.561
 1828POPC   PO427456  26.348  20.058   9.518
 1828POPC   GL127457  26.060  19.959   9.244
 1828POPC   GL227458  26.210  19.670   9.145
 1828POPC   C1A27459  26.016  20.057   8.848
 1828POPC   D2A27460  26.111  19.832   8.511
 1828POPC   C3A27461  25.852  19.886   8.183
 1828POPC   C4A27462  25.922  19.709   7.787
 1828POPC   C1B27463  25.860  19.542   8.883
 1828POPC   C2B27464  25.869  19.411   8.452
 1828POPC   C3B27465  26.179  19.446   8.142
 1828POPC   C4B27466  26.264  19.317   7.736
 1829POPC   NC327467  26.854  36.589   9.550
 1829POPC   PO427468  27.006  35.929   9.521
 1829POPC   GL127469  26.851  36.153   9.179
 1829POPC   GL227470  26.552  35.983   9.177
 1829POPC   C1A27471  26.917  36.328   8.765
 1829POPC   D2A27472  27.205  36.435   8.441
 1829POPC   C3A27473  27.010  36.325   8.107
 1829POPC   C4A27474  26.883  36.461   7.743
 1829POPC   C1B27475  26.593  35.892   8.757
 1829POPC   C2B27476  26.421  36.083   8.405
 1829POPC   C3B27477  26.530  36.180   8.016
 1829POPC   C4B27478  26.750  35.999   7.679
 1830POPC   NC327479  19.596  12.655   9.554
 1830POPC   PO427480  20.015  13.261   9.618
 1830POPC   GL127481  19.649  13.089   9.290
 1830POPC   GL227482  19.872  12.786   9.166
 1830POPC   C1A27483  19.557  12.958   8.803
 1830POPC   D2A27484  19.832  12.962   8.410
 1830POPC   C3A27485  19.742  12.977   7.972
 1830POPC   C4A27486  19.705  13.333   7.762
 1830POPC   C1B27487  20.068  12.693   8.777
 1830POPC   C2B27488  20.059  12.506   8.410
 1830POPC   C3B27489  20.142  12.622   8.026
 1830POPC   C4B27490  20.000  12.613   7.644
 1831POPC   NC327491   5.757  31.259   9.731
 1831POPC   PO427492   5.197  31.567   9.548
 1831POPC   GL127493   5.024  31.462   9.133
 1831POPC   GL227494   4.712  31.566   9.055
 1831POPC   C1A27495   5.197  31.316   8.749
 1831POPC   D2A27496   5.406  31.116   8.400
 1831POPC   C3A27497   5.300  31.392   8.055
 1831POPC   C4A27498   5.249  31.327   7.593
 1831POPC   C1B27499   4.682  31.217   8.766
 1831POPC   C2B27500   4.881  31.098   8.347
 1831POPC   C3B27501   4.858  31.176   7.899
 1831POPC   C4B27502   4.769  31.502   7.584
 1832POPC   NC327503  14.305  24.972   9.456
 1832POPC   PO427504  14.888  24.865   9.397
 1832POPC   GL127505  14.616  25.081   9.059
 1832POPC   GL227506  14.398  25.380   9.142
 1832POPC   C1A27507  14.463  25.094   8.627
 1832POPC   D2A27508  14.405  25.393   8.280
 1832POPC   C3A27509  14.479  25.183   7.902
 1832POPC   C4A27510  14.690  24.784   7.820
 1832POPC   C1B27511  14.132  25.431   8.773
 1832POPC   C2B27512  13.964  25.172   8.404
 1832POPC   C3B27513  13.951  25.269   7.938
 1832POPC   C4B27514  14.181  25.410   7.532
 1833POPC   NC327515  37.869  40.349   9.755
 1833POPC   PO427516  37.530  40.907   9.453
 1833POPC   GL127517  37.589  40.605   9.151
 1833POPC   GL227518  37.339  40.629   8.971
 1833POPC   C1A27519  37.798  40.698   8.727
 1833POPC   D2A27520  37.643  40.580   8.309
 1833POPC   C3A27521  37.907  40.662   7.976
 1833POPC   C4A27522  37.948  41.090   7.825
 1833POPC   C1B27523  37.433  41.045   8.770
 1833POPC   C2B27524  37.613  41.086   8.356
 1833POPC   C3B27525  37.465  40.920   7.951
 1833POPC   C4B27526  37.191  41.115   7.706
 1834POPC   NC327527  12.458   5.743   9.580
 1834POPC   PO427528  13.021   5.959   9.410
 1834POPC   GL127529  12.699   5.989   9.104
 1834POPC   GL227530  12.495   6.268   9.168
 1834POPC   C1A27531  12.773   5.820   8.685
 1834POPC   D2A27532  13.092   5.756   8.360
 1834POPC   C3A27533  12.982   5.772   7.911
 1834POPC   C4A27534  12.890   5.541   7.513
 1834POPC   C1B27535  12.568   6.288   8.688
 1834POPC   C2B27536  12.689   6.067   8.245
 1834POPC   C3B27537  12.712   6.212   7.780
 1834POPC   C4B27538  12.624   6.257   7.274
 1835POPC   NC327539  28.500  16.644   9.683
 1835POPC   PO427540  28.132  17.206   9.665
 1835POPC   GL127541  28.119  16.917   9.281
 1835POPC   GL227542  28.357  16.664   9.198
 1835POPC   C1A27543  28.178  16.964   8.829
 1835POPC   D2A27544  28.314  17.107   8.424
 1835POPC   C3A27545  28.341  16.819   8.095
 1835POPC   C4A27546  28.250  16.942   7.692
 1835POPC   C1B27547  28.467  16.459   8.831
 1835POPC   C2B27548  28.451  16.332   8.403
 1835POPC   C3B27549  28.596  16.306   7.992
 1835POPC   C4B27550  28.583  16.578   7.655
 1836POPC   NC327551  22.922  37.237   9.449
 1836POPC   PO427552  22.509  36.700   9.335
 1836POPC   GL127553  22.769  36.920   9.031
 1836POPC   GL227554  23.128  37.019   9.023
 1836POPC   C1A27555  22.906  36.841   8.608
 1836POPC   D2A27556  23.124  37.071   8.304
 1836POPC   C3A27557  22.844  37.054   7.974
 1836POPC   C4A27558  22.505  36.769   7.867
 1836POPC   C1B27559  23.400  36.773   8.768
 1836POPC   C2B27560  23.313  36.580   8.366
 1836POPC   C3B27561  23.227  36.707   7.941
 1836POPC   C4B27562  23.387  37.079   7.743
 1837POPC   NC327563  28.512   7.246   9.464
 1837POPC   PO427564  28.114   7.685   9.774
 1837POPC   GL127565  28.216   7.617   9.253
 1837POPC   GL227566  28.231   7.271   9.045
 1837POPC   C1A27567  28.364   7.666   8.772
 1837POPC   D2A27568  28.448   7.426   8.373
 1837POPC   C3A27569  28.354   7.542   7.973
 1837POPC   C4A27570  28.502   7.507   7.567
 1837POPC   C1B27571  28.628   7.204   8.798
 1837POPC   C2B27572  28.713   6.982   8.405
 1837POPC   C3B27573  28.598   7.084   7.975
 1837POPC   C4B27574  28.206   7.078   7.750
 1838POPC   NC327575  20.289  39.390   9.262
 1838POPC   PO427576  19.794  39.076   9.582
 1838POPC   GL127577  19.778  39.011   9.175
 1838POPC   GL227578  20.105  38.861   9.226
 1838POPC   C1A27579  19.752  39.340   8.863
 1838POPC   D2A27580  19.941  39.480   8.485
 1838POPC   C3A27581  19.759  39.222   8.171
 1838POPC   C4A27582  19.541  39.237   7.821
 1838POPC   C1B27583  20.129  38.946   8.792
 1838POPC   C2B27584  20.186  39.033   8.391
 1838POPC   C3B27585  20.257  39.257   8.015
 1838POPC   C4B27586  20.230  38.998   7.681
 1839POPC   NC327587  18.028  13.389   9.453
 1839POPC   PO427588  18.564  13.760   9.540
 1839POPC   GL127589  18.356  13.637   9.142
 1839POPC   GL227590  18.058  13.818   9.179
 1839POPC   C1A27591  18.435  13.498   8.718
 1839POPC   D2A27592  18.554  13.710   8.342
 1839POPC   C3A27593  18.525  13.531   7.942
 1839POPC   C4A27594  18.267  13.618   7.597
 1839POPC   C1B27595  18.001  13.960   8.769
 1839POPC   C2B27596  18.117  14.057   8.364
 1839POPC   C3B27597  18.090  13.891   7.980
 1839POPC   C4B27598  17.809  13.815   7.628
 1840POPC   NC327599  20.335   4.540   9.310
 1840POPC   PO427600  20.669   5.084   9.629
 1840POPC   GL127601  20.731   4.966   9.188
 1840POPC   GL227602  20.833   4.641   9.218
 1840POPC   C1A27603  20.883   5.174   8.766
 1840POPC   D2A27604  21.088   5.317   8.352
 1840POPC   C3A27605  20.833   5.166   7.975
 1840POPC   C4A27606  20.383   5.103   7.845
 1840POPC   C1B27607  20.819   4.630   8.755
 1840POPC   C2B27608  20.763   4.710   8.296
 1840POPC   C3B27609  20.873   4.657   7.854
 1840POPC   C4B27610  20.731   4.924   7.521
 1841POPC   NC327611  31.797  17.150   9.371
 1841POPC   PO427612  31.616  17.677   9.705
 1841POPC   GL127613  31.369  17.623   9.267
 1841POPC   GL227614  31.339  17.289   9.095
 1841POPC   C1A27615  31.151  17.658   8.818
 1841POPC   D2A27616  31.394  17.633   8.422
 1841POPC   C3A27617  31.291  17.555   7.984
 1841POPC   C4A27618  31.237  17.668   7.522
 1841POPC   C1B27619  31.663  17.498   8.839
 1841POPC   C2B27620  31.853  17.359   8.455
 1841POPC   C3B27621  31.815  17.567   8.064
 1841POPC   C4B27622  31.738  17.472   7.610
 1842POPC   NC327623  31.391  28.181   9.543
 1842POPC   PO427624  32.032  28.173   9.330
 1842POPC   GL127625  31.717  28.401   9.066
 1842POPC   GL227626  31.338  28.380   9.076
 1842POPC   C1A27627  31.696  28.415   8.617
 1842POPC   D2A27628  31.582  28.132   8.302
 1842POPC   C3A27629  31.752  28.200   7.876
 1842POPC   C4A27630  31.629  28.303   7.474
 1842POPC   C1B27631  31.332  28.712   8.768
 1842POPC   C2B27632  31.311  28.599   8.297
 1842POPC   C3B27633  31.356  28.572   7.830
 1842POPC   C4B27634  31.236  28.581   7.343
 1843POPC   NC327635  36.449  27.892   9.785
 1843POPC   PO427636  36.003  27.530   9.542
 1843POPC   GL127637  36.145  27.666   9.169
 1843POPC   GL227638  36.216  27.368   9.061
 1843POPC   C1A27639  36.197  27.792   8.726
 1843POPC   D2A27640  36.314  27.630   8.320
 1843POPC   C3A27641  36.061  27.365   8.102
 1843POPC   C4A27642  36.183  27.570   7.769
 1843POPC   C1B27643  35.982  27.330   8.660
 1843POPC   C2B27644  35.765  27.656   8.406
 1843POPC   C3B27645  35.752  27.780   7.965
 1843POPC   C4B27646  35.718  27.583   7.574
 1844POPC   NC327647  35.761  28.741   9.346
 1844POPC   PO427648  36.443  28.947   9.413
 1844POPC   GL127649  36.178  28.968   9.098
 1844POPC   GL227650  35.956  29.188   9.230
 1844POPC   C1A27651  36.296  28.956   8.665
 1844POPC   D2A27652  36.429  28.652   8.330
 1844POPC   C3A27653  36.508  28.826   7.953
 1844POPC   C4A27654  36.218  29.014   7.685
 1844POPC   C1B27655  35.796  29.127   8.819
 1844POPC   C2B27656  35.866  29.268   8.465
 1844POPC   C3B27657  35.937  29.136   8.085
 1844POPC   C4B27658  35.748  29.242   7.708
 1845POPC   NC327659  22.664  34.490   9.587
 1845POPC   PO427660  22.615  33.796   9.513
 1845POPC   GL127661  22.567  34.166   9.210
 1845POPC   GL227662  22.888  34.412   9.145
 1845POPC   C1A27663  22.534  34.346   8.781
 1845POPC   D2A27664  22.847  34.338   8.457
 1845POPC   C3A27665  22.722  34.431   8.034
 1845POPC   C4A27666  22.524  34.690   7.742
 1845POPC   C1B27667  22.831  34.771   8.832
 1845POPC   C2B27668  22.671  34.810   8.394
 1845POPC   C3B27669  22.853  34.951   8.012
 1845POPC   C4B27670  23.062  34.708   7.713
 1846POPC   NC327671  42.042  11.678   9.624
 1846POPC   PO427672  41.501  12.049   9.616
 1846POPC   GL127673  41.451  11.978   9.192
 1846POPC   GL227674  41.777  12.056   9.169
 1846POPC   C1A27675  41.285  12.079   8.785
 1846POPC   D2A27676  41.452  12.174   8.384
 1846POPC   C3A27677  41.290  12.025   8.047
 1846POPC   C4A27678  41.455  12.047   7.695
 1846POPC   C1B27679  41.868  12.029   8.744
 1846POPC   C2B27680  41.962  12.318   8.405
 1846POPC   C3B27681  41.790  12.319   7.991
 1846POPC   C4B27682  41.887  12.295   7.586
 1847POPC   NC327683  28.914  43.043   9.699
 1847POPC   PO427684  28.274  43.165   9.645
 1847POPC   GL127685  28.202  43.243   9.186
 1847POPC   GL227686  28.398  42.950   9.088
 1847POPC   C1A27687  28.156  43.152   8.712
 1847POPC   D2A27688  28.459  43.011   8.389
 1847POPC   C3A27689  28.305  43.122   7.957
 1847POPC   C4A27690  28.130  43.112   7.523
 1847POPC   C1B27691  28.643  43.270   8.824
 1847POPC   C2B27692  28.686  43.467   8.401
 1847POPC   C3B27693  28.766  43.349   8.012
 1847POPC   C4B27694  28.585  43.413   7.633
 1848POPC   NC327695   1.610  27.174   9.502
 1848POPC   PO427696   2.255  27.339   9.771
 1848POPC   GL127697   2.189  27.491   9.307
 1848POPC   GL227698   2.008  27.279   9.209
 1848POPC   C1A27699   2.006  27.716   8.901
 1848POPC   D2A27700   1.900  27.901   8.465
 1848POPC   C3A27701   2.223  27.897   8.150
 1848POPC   C4A27702   2.235  27.688   7.764
 1848POPC   C1B27703   1.974  27.199   8.814
 1848POPC   C2B27704   2.068  27.400   8.447
 1848POPC   C3B27705   1.888  27.493   8.089
 1848POPC   C4B27706   1.943  27.268   7.704
 1849POPC   NC327707  18.946  44.935   9.496
 1849POPC   PO427708  19.258  44.343   9.426
 1849POPC   GL127709  19.280  44.701   9.123
 1849POPC   GL227710  19.072  45.000   9.014
 1849POPC   C1A27711  19.276  44.632   8.714
 1849POPC   D2A27712  18.996  44.517   8.429
 1849POPC   C3A27713  19.173  44.732   8.140
 1849POPC   C4A27714  19.118  44.839   7.728
 1849POPC   C1B27715  18.733  44.813   8.778
 1849POPC   C2B27716  18.587  44.868   8.371
 1849POPC   C3B27717  18.687  44.680   7.991
 1849POPC   C4B27718  18.617  44.927   7.647
 1850POPC   NC327719  14.138  35.157   9.437
 1850POPC   PO427720  14.752  35.473   9.398
 1850POPC   GL127721  14.533  35.390   9.062
 1850POPC   GL227722  14.497  35.074   9.081
 1850POPC   C1A27723  14.377  35.520   8.670
 1850POPC   D2A27724  14.243  35.495   8.238
 1850POPC   C3A27725  14.462  35.543   7.843
 1850POPC   C4A27726  14.184  35.468   7.537
 1850POPC   C1B27727  14.289  34.948   8.745
 1850POPC   C2B27728  14.420  34.863   8.366
 1850POPC   C3B27729  14.415  35.058   7.991
 1850POPC   C4B27730  14.458  34.995   7.577
 1851POPC   NC327731   0.820  26.120  10.152
 1851POPC   PO427732   0.506  25.789   9.633
 1851POPC   GL127733   0.443  25.752   9.187
 1851POPC   GL227734   0.673  25.552   9.067
 1851POPC   C1A27735   0.509  25.886   8.724
 1851POPC   D2A27736   0.385  25.848   8.279
 1851POPC   C3A27737   0.471  26.212   8.006
 1851POPC   C4A27738   0.509  26.413   7.586
 1851POPC   C1B27739   0.956  25.654   8.709
 1851POPC   C2B27740   0.932  25.898   8.317
 1851POPC   C3B27741   0.748  25.782   7.920
 1851POPC   C4B27742   0.520  25.885   7.579
 1852POPC   NC327743  23.219  26.453   9.559
 1852POPC   PO427744  22.613  26.815   9.704
 1852POPC   GL127745  22.688  26.784   9.230
 1852POPC   GL227746  22.511  26.502   9.060
 1852POPC   C1A27747  22.953  26.896   8.855
 1852POPC   D2A27748  22.884  27.203   8.491
 1852POPC   C3A27749  22.840  27.085   8.034
 1852POPC   C4A27750  22.993  26.934   7.626
 1852POPC   C1B27751  22.645  26.560   8.658
 1852POPC   C2B27752  22.877  26.545   8.281
 1852POPC   C3B27753  22.710  26.597   7.879
 1852POPC   C4B27754  22.600  26.620   7.424
 1853POPC   NC327755  21.593  34.494   9.416
 1853POPC   PO427756  22.196  34.438   9.639
 1853POPC   GL127757  22.077  34.670   9.283
 1853POPC   GL227758  22.105  34.386   9.105
 1853POPC   C1A27759  21.980  34.834   8.862
 1853POPC   D2A27760  22.167  34.779   8.466
 1853POPC   C3A27761  21.971  34.590   8.136
 1853POPC   C4A27762  22.036  34.702   7.728
 1853POPC   C1B27763  22.043  34.317   8.679
 1853POPC   C2B27764  22.282  34.236   8.306
 1853POPC   C3B27765  22.264  34.237   7.836
 1853POPC   C4B27766  22.617  34.204   7.577
 1854POPC   NC327767   6.486  43.509   9.423
 1854POPC   PO427768   6.917  44.090   9.515
 1854POPC   GL127769   6.603  43.940   9.119
 1854POPC   GL227770   6.370  44.204   8.997
 1854POPC   C1A27771   6.593  43.854   8.687
 1854POPC   D2A27772   6.854  43.965   8.348
 1854POPC   C3A27773   6.676  43.909   7.975
 1854POPC   C4A27774   6.771  43.579   7.692
 1854POPC   C1B27775   6.112  44.011   8.665
 1854POPC   C2B27776   6.143  44.013   8.204
 1854POPC   C3B27777   6.123  44.245   7.833
 1854POPC   C4B27778   6.466  44.200   7.581
 1855POPC   NC327779  35.387  40.329   9.470
 1855POPC   PO427780  35.255  41.021   9.616
 1855POPC   GL127781  35.382  40.872   9.241
 1855POPC   GL227782  35.074  41.006   9.108
 1855POPC   C1A27783  35.448  40.785   8.813
 1855POPC   D2A27784  35.219  40.846   8.437
 1855POPC   C3A27785  35.391  40.532   8.179
 1855POPC   C4A27786  35.579  40.591   7.794
 1855POPC   C1B27787  34.957  40.666   8.862
 1855POPC   C2B27788  34.904  40.451   8.511
 1855POPC   C3B27789  34.902  40.505   8.073
 1855POPC   C4B27790  35.032  40.746   7.729
 1856POPC   NC327791   4.648  39.736   9.499
 1856POPC   PO427792   4.292  40.339   9.500
 1856POPC   GL127793   4.222  40.168   9.124
 1856POPC   GL227794   4.317  39.817   9.117
 1856POPC   C1A27795   4.041  40.073   8.770
 1856POPC   D2A27796   4.216  39.840   8.438
 1856POPC   C3A27797   4.308  40.120   8.074
 1856POPC   C4A27798   4.076  40.274   7.742
 1856POPC   C1B27799   4.554  39.586   8.785
 1856POPC   C2B27800   4.502  39.398   8.379
 1856POPC   C3B27801   4.354  39.595   8.012
 1856POPC   C4B27802   4.416  39.822   7.636
 1857POPC   NC327803  10.441  16.148   9.473
 1857POPC   PO427804  10.239  15.530   9.425
 1857POPC   GL127805  10.469  15.733   9.093
 1857POPC   GL227806  10.710  16.035   9.061
 1857POPC   C1A27807  10.584  15.690   8.664
 1857POPC   D2A27808  10.865  15.815   8.304
 1857POPC   C3A27809  10.749  15.980   7.906
 1857POPC   C4A27810  10.720  15.686   7.588
 1857POPC   C1B27811  10.358  16.155   8.793
 1857POPC   C2B27812  10.437  16.113   8.369
 1857POPC   C3B27813  10.257  16.086   7.994
 1857POPC   C4B27814   9.959  16.172   7.727
 1858POPC   NC327815  25.176   8.595   9.342
 1858POPC   PO427816  25.319   9.184   9.586
 1858POPC   GL127817  25.453   9.012   9.196
 1858POPC   GL227818  25.111   8.990   9.026
 1858POPC   C1A27819  25.508   8.942   8.746
 1858POPC   D2A27820  25.183   9.002   8.405
 1858POPC   C3A27821  25.355   9.141   8.027
 1858POPC   C4A27822  25.584   8.860   7.796
 1858POPC   C1B27823  25.119   8.590   8.728
 1858POPC   C2B27824  24.962   8.534   8.344
 1858POPC   C3B27825  25.120   8.668   7.980
 1858POPC   C4B27826  24.921   9.034   7.790
 1859POPC   NC327827  22.183   8.500   9.544
 1859POPC   PO427828  22.337   7.760   9.505
 1859POPC   GL127829  22.108   8.033   9.197
 1859POPC   GL227830  22.066   8.388   9.079
 1859POPC   C1A27831  21.931   8.017   8.780
 1859POPC   D2A27832  21.950   8.176   8.376
 1859POPC   C3A27833  22.388   8.221   8.202
 1859POPC   C4A27834  22.533   7.987   7.882
 1859POPC   C1B27835  21.990   8.573   8.693
 1859POPC   C2B27836  22.126   8.655   8.278
 1859POPC   C3B27837  21.994   8.409   7.912
 1859POPC   C4B27838  21.762   8.347   7.546
 1860POPC   NC327839  20.741  38.055   9.681
 1860POPC   PO427840  20.802  37.363   9.726
 1860POPC   GL127841  20.729  37.590   9.323
 1860POPC   GL227842  20.532  37.872   9.209
 1860POPC   C1A27843  20.774  37.592   8.849
 1860POPC   D2A27844  20.566  37.577   8.456
 1860POPC   C3A27845  20.688  37.595   8.028
 1860POPC   C4A27846  20.740  37.524   7.595
 1860POPC   C1B27847  20.293  37.835   8.848
 1860POPC   C2B27848  20.244  37.952   8.423
 1860POPC   C3B27849  20.238  37.823   8.009
 1860POPC   C4B27850  20.420  37.955   7.591
 1861POPC   NC327851  35.731  29.893   9.565
 1861POPC   PO427852  36.437  29.887   9.480
 1861POPC   GL127853  36.100  29.994   9.205
 1861POPC   GL227854  36.053  29.670   9.184
 1861POPC   C1A27855  35.825  29.909   8.818
 1861POPC   D2A27856  35.977  29.763   8.421
 1861POPC   C3A27857  36.008  30.056   8.082
 1861POPC   C4A27858  35.705  30.296   7.855
 1861POPC   C1B27859  36.206  29.448   8.805
 1861POPC   C2B27860  36.334  29.393   8.338
 1861POPC   C3B27861  36.158  29.575   7.964
 1861POPC   C4B27862  36.127  29.533   7.533
 1862POPC   NC327863  30.650  31.441   9.559
 1862POPC   PO427864  31.207  31.444   9.180
 1862POPC   GL127865  30.960  31.326   8.882
 1862POPC   GL227866  30.649  31.404   9.030
 1862POPC   C1A27867  30.999  31.556   8.525
 1862POPC   D2A27868  30.866  31.661   8.168
 1862POPC   C3A27869  30.696  31.271   8.049
 1862POPC   C4A27870  30.640  31.046   7.676
 1862POPC   C1B27871  30.521  31.376   8.564
 1862POPC   C2B27872  30.346  31.606   8.174
 1862POPC   C3B27873  30.352  31.475   7.712
 1862POPC   C4B27874  30.349  31.234   7.298
 1863POPC   NC327875  20.381   0.894   9.466
 1863POPC   PO427876  20.383   1.619   9.427
 1863POPC   GL127877  20.635   1.495   9.084
 1863POPC   GL227878  20.623   1.160   9.111
 1863POPC   C1A27879  20.746   1.354   8.658
 1863POPC   D2A27880  20.436   1.272   8.320
 1863POPC   C3A27881  20.356   1.458   7.912
 1863POPC   C4A27882  20.743   1.386   7.726
 1863POPC   C1B27883  20.335   1.074   8.778
 1863POPC   C2B27884  20.060   0.882   8.481
 1863POPC   C3B27885  20.211   0.881   8.052
 1863POPC   C4B27886  20.392   1.002   7.667
 1864POPC   NC327887  41.274  43.044   9.473
 1864POPC   PO427888  41.886  43.341   9.506
 1864POPC   GL127889  41.737  42.930   9.258
 1864POPC   GL227890  41.433  42.880   9.036
 1864POPC   C1A27891  41.859  42.844   8.816
 1864POPC   D2A27892  41.545  42.990   8.517
 1864POPC   C3A27893  41.629  43.186   8.127
 1864POPC   C4A27894  41.517  43.027   7.732
 1864POPC   C1B27895  41.207  43.231   8.856
 1864POPC   C2B27896  41.197  43.561   8.582
 1864POPC   C3B27897  41.295  43.589   8.136
 1864POPC   C4B27898  41.374  43.514   7.708
 1865POPC   NC327899  40.188   0.984   9.499
 1865POPC   PO427900  39.745   1.509   9.543
 1865POPC   GL127901  39.947   1.348   9.171
 1865POPC   GL227902  39.751   1.033   9.105
 1865POPC   C1A27903  40.184   1.328   8.754
 1865POPC   D2A27904  40.349   1.590   8.367
 1865POPC   C3A27905  40.033   1.659   8.054
 1865POPC   C4A27906  39.816   1.385   7.750
 1865POPC   C1B27907  39.781   0.982   8.658
 1865POPC   C2B27908  39.899   1.251   8.317
 1865POPC   C3B27909  40.223   1.200   7.999
 1865POPC   C4B27910  40.409   0.856   7.874
 1866POPC   NC327911  24.185  18.130   9.452
 1866POPC   PO427912  24.883  18.005   9.426
 1866POPC   GL127913  24.655  18.137   9.082
 1866POPC   GL227914  24.517  18.484   9.062
 1866POPC   C1A27915  24.616  18.177   8.642
 1866POPC   D2A27916  24.427  18.162   8.232
 1866POPC   C3A27917  24.630  18.098   7.826
 1866POPC   C4A27918  24.451  18.183   7.410
 1866POPC   C1B27919  24.763  18.673   8.710
 1866POPC   C2B27920  24.816  18.539   8.284
 1866POPC   C3B27921  24.518  18.616   7.946
 1866POPC   C4B27922  24.556  18.670   7.517
 1867POPC   NC327923  44.552  42.649   9.268
 1867POPC   PO427924  44.590  43.301   9.518
 1867POPC   GL127925  44.594  43.147   9.131
 1867POPC   GL227926  44.912  42.938   9.076
 1867POPC   C1A27927  44.503  43.029   8.740
 1867POPC   D2A27928  44.741  43.031   8.400
 1867POPC   C3A27929  44.481  43.037   8.111
 1867POPC   C4A27930  44.417  42.963   7.750
 1867POPC   C1B27931  44.976  43.269   8.790
 1867POPC   C2B27932  44.944  43.504   8.390
 1867POPC   C3B27933   0.006  43.395   7.994
 1867POPC   C4B27934  44.915  42.985   7.851
 1868POPC   NC327935   2.344  14.488   9.536
 1868POPC   PO427936   1.870  14.086   9.538
 1868POPC   GL127937   1.919  14.319   9.198
 1868POPC   GL227938   1.947  14.678   9.219
 1868POPC   C1A27939   1.752  14.374   8.802
 1868POPC   D2A27940   1.914  14.533   8.443
 1868POPC   C3A27941   1.691  14.398   8.143
 1868POPC   C4A27942   1.717  14.365   7.719
 1868POPC   C1B27943   2.228  14.577   8.862
 1868POPC   C2B27944   2.397  14.358   8.502
 1868POPC   C3B27945   2.447  14.555   8.109
 1868POPC   C4B27946   2.311  14.404   7.712
 1869POPC   NC327947   7.904  32.691   9.436
 1869POPC   PO427948   8.455  33.147   9.397
 1869POPC   GL127949   8.281  32.877   9.113
 1869POPC   GL227950   7.993  33.049   9.056
 1869POPC   C1A27951   8.117  32.692   8.729
 1869POPC   D2A27952   8.094  32.564   8.299
 1869POPC   C3A27953   8.434  32.699   8.035
 1869POPC   C4A27954   8.571  33.075   7.791
 1869POPC   C1B27955   7.931  33.194   8.685
 1869POPC   C2B27956   8.100  33.090   8.357
 1869POPC   C3B27957   8.088  33.059   7.983
 1869POPC   C4B27958   8.039  33.264   7.623
 1870POPC   NC327959  40.022   6.047   9.404
 1870POPC   PO427960  40.084   5.412   9.439
 1870POPC   GL127961  40.307   5.561   9.115
 1870POPC   GL227962  40.035   5.760   8.981
 1870POPC   C1A27963  40.423   5.610   8.698
 1870POPC   D2A27964  40.080   5.778   8.459
 1870POPC   C3A27965  40.151   5.631   8.077
 1870POPC   C4A27966  40.030   5.760   7.681
 1870POPC   C1B27967  39.876   6.155   8.796
 1870POPC   C2B27968  39.745   6.211   8.423
 1870POPC   C3B27969  39.842   6.056   8.056
 1870POPC   C4B27970  39.814   6.245   7.649
 1871POPC   NC327971   8.937  14.937   9.702
 1871POPC   PO427972   8.450  15.087   9.302
 1871POPC   GL127973   8.831  15.064   9.149
 1871POPC   GL227974   9.046  15.296   9.270
 1871POPC   C1A27975   8.918  15.038   8.724
 1871POPC   D2A27976   9.093  14.944   8.322
 1871POPC   C3A27977   8.939  15.140   7.975
 1871POPC   C4A27978   8.955  14.955   7.595
 1871POPC   C1B27979   9.193  15.440   8.895
 1871POPC   C2B27980   9.262  15.407   8.468
 1871POPC   C3B27981   9.408  15.397   8.047
 1871POPC   C4B27982   9.166  15.495   7.663
 1872POPC   NC327983   8.698  14.065   9.772
 1872POPC   PO427984   8.038  14.271   9.568
 1872POPC   GL127985   8.109  14.376   9.175
 1872POPC   GL227986   7.820  14.564   9.128
 1872POPC   C1A27987   8.012  14.226   8.771
 1872POPC   D2A27988   7.791  14.272   8.398
 1872POPC   C3A27989   8.033  14.223   8.040
 1872POPC   C4A27990   8.264  14.135   7.676
 1872POPC   C1B27991   8.095  14.739   8.772
 1872POPC   C2B27992   8.172  14.639   8.321
 1872POPC   C3B27993   8.029  14.710   7.883
 1872POPC   C4B27994   8.031  14.899   7.453
 1873POPC   NC327995  36.737  33.543   9.504
 1873POPC   PO427996  37.371  33.911   9.517
 1873POPC   GL127997  37.084  33.706   9.182
 1873POPC   GL227998  36.762  33.914   9.128
 1873POPC   C1A27999  36.842  33.494   8.834
 1873POPC   D2A28000  37.005  33.529   8.418
 1873POPC   C3A28001  36.987  33.616   7.974
 1873POPC   C4A28002  36.785  33.758   7.615
 1873POPC   C1B28003  36.559  33.898   8.715
 1873POPC   C2B28004  36.676  33.914   8.270
 1873POPC   C3B28005  36.896  34.153   7.901
 1873POPC   C4B28006  36.967  34.230   7.440
 1874POPC   NC328007  28.046  27.129   9.516
 1874POPC   PO428008  28.699  27.049   9.513
 1874POPC   GL128009  28.374  26.846   9.178
 1874POPC   GL228010  28.262  26.509   9.113
 1874POPC   C1A28011  28.418  26.871   8.740
 1874POPC   D2A28012  28.687  26.865   8.377
 1874POPC   C3A28013  28.485  26.938   7.982
 1874POPC   C4A28014  28.561  26.859   7.551
 1874POPC   C1B28015  28.095  26.438   8.702
 1874POPC   C2B28016  28.235  26.620   8.325
 1874POPC   C3B28017  28.264  26.484   7.923
 1874POPC   C4B28018  28.044  26.277   7.611
 1875POPC   NC328019   2.881  22.781   9.528
 1875POPC   PO428020   2.694  23.411   9.487
 1875POPC   GL128021   2.766  23.103   9.150
 1875POPC   GL228022   3.142  23.070   9.176
 1875POPC   C1A28023   2.627  22.973   8.722
 1875POPC   D2A28024   2.385  23.149   8.349
 1875POPC   C3A28025   2.573  23.037   7.958
 1875POPC   C4A28026   2.685  22.695   7.720
 1875POPC   C1B28027   3.066  23.211   8.753
 1875POPC   C2B28028   2.922  23.167   8.315
 1875POPC   C3B28029   3.081  22.914   7.948
 1875POPC   C4B28030   3.131  22.791   7.488
 1876POPC   NC328031  31.805   3.195   9.378
 1876POPC   PO428032  31.384   2.720   9.707
 1876POPC   GL128033  31.526   2.768   9.235
 1876POPC   GL228034  31.502   3.066   9.008
 1876POPC   C1A28035  31.668   2.617   8.806
 1876POPC   D2A28036  31.686   2.758   8.347
 1876POPC   C3A28037  31.576   2.525   7.920
 1876POPC   C4A28038  31.612   2.447   7.436
 1876POPC   C1B28039  31.821   3.173   8.675
 1876POPC   C2B28040  31.759   3.267   8.236
 1876POPC   C3B28041  31.444   3.122   7.955
 1876POPC   C4B28042  31.508   2.915   7.577
 1877POPC   NC328043   1.572  34.333   9.364
 1877POPC   PO428044   1.150  34.750   9.487
 1877POPC   GL128045   1.308  34.721   9.086
 1877POPC   GL228046   1.208  34.356   9.017
 1877POPC   C1A28047   1.172  34.702   8.660
 1877POPC   D2A28048   1.191  34.447   8.298
 1877POPC   C3A28049   1.086  34.708   7.934
 1877POPC   C4A28050   1.106  35.065   7.705
 1877POPC   C1B28051   1.444  34.049   8.764
 1877POPC   C2B28052   1.369  33.896   8.377
 1877POPC   C3B28053   1.472  33.989   7.953
 1877POPC   C4B28054   1.126  34.217   7.831
 1878POPC   NC328055  27.695  35.004   9.501
 1878POPC   PO428056  27.170  35.344   9.772
 1878POPC   GL128057  27.339  35.367   9.302
 1878POPC   GL228058  27.658  35.486   9.192
 1878POPC   C1A28059  27.346  35.386   8.805
 1878POPC   D2A28060  27.318  35.603   8.386
 1878POPC   C3A28061  27.527  35.499   8.009
 1878POPC   C4A28062  27.570  35.318   7.593
 1878POPC   C1B28063  27.899  35.434   8.807
 1878POPC   C2B28064  27.979  35.312   8.389
 1878POPC   C3B28065  27.885  35.137   8.009
 1878POPC   C4B28066  28.033  35.064   7.656
 1879POPC   NC328067  13.581  38.980   9.444
 1879POPC   PO428068  13.760  38.360   9.286
 1879POPC   GL128069  13.579  38.280   8.906
 1879POPC   GL228070  13.703  38.614   8.835
 1879POPC   C1A28071  13.594  38.235   8.473
 1879POPC   D2A28072  13.731  38.615   8.269
 1879POPC   C3A28073  13.791  38.559   7.843
 1879POPC   C4A28074  13.636  38.170   7.711
 1879POPC   C1B28075  13.299  38.655   8.639
 1879POPC   C2B28076  13.070  38.588   8.269
 1879POPC   C3B28077  13.273  38.633   7.884
 1879POPC   C4B28078  13.258  38.945   7.584
 1880POPC   NC328079  26.941  38.172   9.530
 1880POPC   PO428080  26.904  38.753   9.774
 1880POPC   GL128081  26.674  38.574   9.335
 1880POPC   GL228082  26.630  38.787   9.027
 1880POPC   C1A28083  26.608  38.252   8.948
 1880POPC   D2A28084  26.455  38.284   8.491
 1880POPC   C3A28085  26.663  38.186   8.113
 1880POPC   C4A28086  26.706  38.415   7.751
 1880POPC   C1B28087  26.850  38.620   8.683
 1880POPC   C2B28088  26.840  38.666   8.241
 1880POPC   C3B28089  27.084  38.738   7.875
 1880POPC   C4B28090  26.995  38.694   7.430
 1881POPC   NC328091  12.798  15.347   9.616
 1881POPC   PO428092  13.282  14.912   9.518
 1881POPC   GL128093  13.060  15.141   9.207
 1881POPC   GL228094  13.060  15.492   9.205
 1881POPC   C1A28095  12.814  15.188   8.826
 1881POPC   D2A28096  12.654  15.040   8.422
 1881POPC   C3A28097  12.727  15.260   8.029
 1881POPC   C4A28098  12.609  15.079   7.645
 1881POPC   C1B28099  13.276  15.399   8.804
 1881POPC   C2B28100  13.142  15.264   8.389
 1881POPC   C3B28101  13.148  15.557   8.041
 1881POPC   C4B28102  13.081  15.383   7.635
 1882POPC   NC328103   7.930  39.276   9.674
 1882POPC   PO428104   8.362  38.856   9.476
 1882POPC   GL128105   8.122  39.172   9.207
 1882POPC   GL228106   7.789  39.022   9.193
 1882POPC   C1A28107   8.102  39.412   8.805
 1882POPC   D2A28108   8.159  39.259   8.387
 1882POPC   C3A28109   8.334  39.541   8.066
 1882POPC   C4A28110   8.164  39.447   7.666
 1882POPC   C1B28111   7.997  38.900   8.790
 1882POPC   C2B28112   7.817  38.757   8.402
 1882POPC   C3B28113   7.861  38.977   8.011
 1882POPC   C4B28114   8.098  38.917   7.642
 1883POPC   NC328115   9.339  12.491   9.741
 1883POPC   PO428116   9.420  11.903   9.318
 1883POPC   GL128117   9.592  12.131   9.026
 1883POPC   GL228118   9.905  12.195   9.087
 1883POPC   C1A28119   9.434  12.210   8.664
 1883POPC   D2A28120   9.322  11.972   8.333
 1883POPC   C3A28121   9.470  12.144   7.956
 1883POPC   C4A28122   9.654  11.922   7.622
 1883POPC   C1B28123   9.956  12.057   8.671
 1883POPC   C2B28124   9.830  12.218   8.295
 1883POPC   C3B28125  10.013  12.107   7.906
 1883POPC   C4B28126  10.131  11.979   7.440
 1884POPC   NC328127  42.666  44.456   9.428
 1884POPC   PO428128  43.261  44.870   9.475
 1884POPC   GL128129  43.161  44.660   9.117
 1884POPC   GL228130  42.847  44.791   9.101
 1884POPC   C1A28131  43.152  44.801   8.669
 1884POPC   D2A28132  43.470   0.006   8.374
 1884POPC   C3A28133  43.534  44.756   8.009
 1884POPC   C4A28134  43.176  44.716   7.774
 1884POPC   C1B28135  42.768  44.453   8.790
 1884POPC   C2B28136  42.874  44.316   8.395
 1884POPC   C3B28137  42.824  44.432   7.989
 1884POPC   C4B28138  42.652  44.250   7.639
 1885POPC   NC328139   4.054  31.391   9.564
 1885POPC   PO428140   4.672  31.105   9.456
 1885POPC   GL128141   4.334  31.204   9.173
 1885POPC   GL228142   4.191  31.548   9.106
 1885POPC   C1A28143   4.169  31.066   8.809
 1885POPC   D2A28144   4.003  31.004   8.409
 1885POPC   C3A28145   4.122  31.341   8.177
 1885POPC   C4A28146   4.370  31.304   7.836
 1885POPC   C1B28147   4.356  31.672   8.718
 1885POPC   C2B28148   4.659  31.586   8.402
 1885POPC   C3B28149   4.592  31.734   8.008
 1885POPC   C4B28150   4.144  31.778   7.847
 1886POPC   NC328151  11.043  35.516   9.460
 1886POPC   PO428152  11.624  35.169   9.450
 1886POPC   GL128153  11.332  35.252   9.120
 1886POPC   GL228154  11.310  35.613   9.030
 1886POPC   C1A28155  11.236  35.204   8.686
 1886POPC   D2A28156  11.275  34.870   8.399
 1886POPC   C3A28157  11.104  34.955   8.028
 1886POPC   C4A28158  10.955  35.163   7.695
 1886POPC   C1B28159  11.489  35.650   8.619
 1886POPC   C2B28160  11.513  35.311   8.269
 1886POPC   C3B28161  11.406  35.334   7.855
 1886POPC   C4B28162  11.133  35.661   7.705
 1887POPC   NC328163  36.636  43.833   9.378
 1887POPC   PO428164  37.032  44.313   9.566
 1887POPC   GL128165  37.059  44.032   9.133
 1887POPC   GL228166  36.832  43.785   8.937
 1887POPC   C1A28167  37.248  43.953   8.714
 1887POPC   D2A28168  36.950  43.732   8.411
 1887POPC   C3A28169  37.107  43.816   7.967
 1887POPC   C4A28170  37.151  43.921   7.513
 1887POPC   C1B28171  36.497  43.879   8.682
 1887POPC   C2B28172  36.523  44.109   8.326
 1887POPC   C3B28173  36.593  43.818   8.049
 1887POPC   C4B28174  36.697  43.756   7.642
 1888POPC   NC328175   5.501   1.349   9.539
 1888POPC   PO428176   5.894   0.833   9.477
 1888POPC   GL128177   5.984   0.927   9.076
 1888POPC   GL228178   5.896   1.290   9.063
 1888POPC   C1A28179   6.096   1.014   8.679
 1888POPC   D2A28180   5.930   1.278   8.406
 1888POPC   C3A28181   5.958   1.000   8.059
 1888POPC   C4A28182   5.901   0.803   7.675
 1888POPC   C1B28183   5.494   1.389   8.827
 1888POPC   C2B28184   5.400   1.525   8.408
 1888POPC   C3B28185   5.626   1.475   8.052
 1888POPC   C4B28186   5.937   1.446   7.807
 1889POPC   NC328187  22.353  26.439   9.558
 1889POPC   PO428188  22.272  25.713   9.516
 1889POPC   GL128189  22.203  26.060   9.221
 1889POPC   GL228190  22.541  25.992   9.142
 1889POPC   C1A28191  21.945  26.135   8.830
 1889POPC   D2A28192  22.033  25.911   8.447
 1889POPC   C3A28193  21.995  26.096   8.040
 1889POPC   C4A28194  22.154  25.914   7.655
 1889POPC   C1B28195  22.445  26.099   8.721
 1889POPC   C2B28196  22.421  26.263   8.306
 1889POPC   C3B28197  22.515  26.064   7.970
 1889POPC   C4B28198  22.619  26.154   7.590
 1890POPC   NC328199  32.170  44.939   9.553
 1890POPC   PO428200  32.696  44.725   9.657
 1890POPC   GL128201  32.433  44.705   9.198
 1890POPC   GL228202  32.380   0.010   9.041
 1890POPC   C1A28203  32.403  44.466   8.797
 1890POPC   D2A28204  32.587  44.493   8.356
 1890POPC   C3A28205  32.544  44.274   7.946
 1890POPC   C4A28206  32.535  44.350   7.434
 1890POPC   C1B28207  32.070  44.861   8.741
 1890POPC   C2B28208  32.035  44.509   8.437
 1890POPC   C3B28209  32.135  44.596   8.034
 1890POPC   C4B28210  32.136  44.997   7.796
 1891POPC   NC328211  14.443  31.225   9.667
 1891POPC   PO428212  13.981  31.492   9.404
 1891POPC   GL128213  14.402  31.607   9.242
 1891POPC   GL228214  14.696  31.587   9.416
 1891POPC   C1A28215  14.476  31.790   8.849
 1891POPC   D2A28216  14.189  31.790   8.478
 1891POPC   C3A28217  14.280  31.529   8.136
 1891POPC   C4A28218  14.463  31.652   7.746
 1891POPC   C1B28219  14.770  31.380   8.973
 1891POPC   C2B28220  14.652  31.438   8.508
 1891POPC   C3B28221  14.744  31.326   8.061
 1891POPC   C4B28222  14.430  31.143   7.757
 1892POPC   NC328223   6.083  17.612   9.431
 1892POPC   PO428224   5.445  17.476   9.488
 1892POPC   GL128225   5.752  17.352   9.110
 1892POPC   GL228226   6.106  17.418   8.964
 1892POPC   C1A28227   5.736  17.190   8.688
 1892POPC   D2A28228   5.791  17.361   8.291
 1892POPC   C3A28229   5.854  17.104   7.981
 1892POPC   C4A28230   6.039  17.253   7.623
 1892POPC   C1B28231   5.976  17.696   8.648
 1892POPC   C2B28232   6.081  17.853   8.236
 1892POPC   C3B28233   5.878  17.743   7.875
 1892POPC   C4B28234   5.537  17.910   7.631
 1893POPC   NC328235   2.910   9.044   9.506
 1893POPC   PO428236   2.243   9.172   9.379
 1893POPC   GL128237   2.339   8.888   9.096
 1893POPC   GL228238   2.679   8.831   9.118
 1893POPC   C1A28239   2.482   9.057   8.721
 1893POPC   D2A28240   2.675   8.931   8.362
 1893POPC   C3A28241   2.602   9.010   7.959
 1893POPC   C4A28242   2.745   8.679   7.670
 1893POPC   C1B28243   2.912   8.698   8.750
 1893POPC   C2B28244   3.071   8.604   8.310
 1893POPC   C3B28245   3.196   8.796   7.891
 1893POPC   C4B28246   3.483   8.854   7.511
 1894POPC   NC328247  44.426  16.463   9.815
 1894POPC   PO428248  44.867  16.379   9.442
 1894POPC   GL128249   0.001  16.633   9.058
 1894POPC   GL228250   0.059  16.299   8.929
 1894POPC   C1A28251  44.989  16.930   8.634
 1894POPC   D2A28252   0.001  17.105   8.165
 1894POPC   C3A28253  44.652  17.127   7.860
 1894POPC   C4A28254  44.618  17.138   7.405
 1894POPC   C1B28255  44.757  16.467   8.626
 1894POPC   C2B28256  44.700  16.693   8.230
 1894POPC   C3B28257  44.883  16.673   7.826
 1894POPC   C4B28258  44.837  16.405   7.490
 1895POPC   NC328259  25.121  23.975   9.618
 1895POPC   PO428260  25.545  23.474   9.469
 1895POPC   GL128261  25.397  23.773   9.212
 1895POPC   GL228262  25.050  23.678   9.194
 1895POPC   C1A28263  25.464  23.777   8.786
 1895POPC   D2A28264  25.628  23.615   8.407
 1895POPC   C3A28265  25.409  23.806   8.063
 1895POPC   C4A28266  25.540  23.823   7.644
 1895POPC   C1B28267  24.937  23.713   8.762
 1895POPC   C2B28268  24.838  23.825   8.322
 1895POPC   C3B28269  24.955  23.568   7.929
 1895POPC   C4B28270  25.217  23.440   7.582
 1896POPC   NC328271  35.115  26.836   9.585
 1896POPC   PO428272  35.700  26.783   9.364
 1896POPC   GL128273  35.347  26.831   9.129
 1896POPC   GL228274  35.266  27.175   9.181
 1896POPC   C1A28275  35.366  26.884   8.722
 1896POPC   D2A28276  35.607  26.707   8.401
 1896POPC   C3A28277  35.389  26.744   8.010
 1896POPC   C4A28278  35.613  26.821   7.656
 1896POPC   C1B28279  34.979  27.247   8.855
 1896POPC   C2B28280  34.978  27.055   8.446
 1896POPC   C3B28281  35.061  27.166   8.052
 1896POPC   C4B28282  34.777  27.226   7.716
 1897POPC   NC328283  34.521  22.522   9.526
 1897POPC   PO428284  34.749  21.904   9.418
 1897POPC   GL128285  34.544  21.972   9.035
 1897POPC   GL228286  34.396  22.291   9.081
 1897POPC   C1A28287  34.674  22.061   8.630
 1897POPC   D2A28288  34.729  21.913   8.233
 1897POPC   C3A28289  34.609  22.078   7.833
 1897POPC   C4A28290  34.931  22.008   7.497
 1897POPC   C1B28291  34.215  22.246   8.696
 1897POPC   C2B28292  34.369  22.343   8.264
 1897POPC   C3B28293  34.148  22.456   7.876
 1897POPC   C4B28294  34.104  22.449   7.426
 1898POPC   NC328295  12.532  44.431   9.601
 1898POPC   PO428296  11.902  44.519   9.746
 1898POPC   GL128297  12.011  44.556   9.289
 1898POPC   GL228298  12.269  44.406   9.169
 1898POPC   C1A28299  11.927  44.646   8.860
 1898POPC   D2A28300  11.726  44.594   8.476
 1898POPC   C3A28301  11.907  44.704   8.099
 1898POPC   C4A28302  11.742  44.733   7.690
 1898POPC   C1B28303  12.225  44.239   8.770
 1898POPC   C2B28304  12.230  44.475   8.436
 1898POPC   C3B28305  12.328  44.367   8.039
 1898POPC   C4B28306  12.230  44.567   7.718
 1899POPC   NC328307  28.325  13.139   9.463
 1899POPC   PO428308  28.591  12.535   9.590
 1899POPC   GL128309  28.458  12.709   9.212
 1899POPC   GL228310  28.731  12.958   9.213
 1899POPC   C1A28311  28.319  12.925   8.826
 1899POPC   D2A28312  28.218  13.043   8.391
 1899POPC   C3A28313  28.244  12.726   8.060
 1899POPC   C4A28314  28.263  13.066   7.796
 1899POPC   C1B28315  28.791  12.733   8.834
 1899POPC   C2B28316  28.660  12.793   8.421
 1899POPC   C3B28317  28.739  12.867   7.991
 1899POPC   C4B28318  28.738  13.233   7.706
 1900POPC   NC328319   2.471  31.126   9.455
 1900POPC   PO428320   2.466  31.859   9.513
 1900POPC   GL128321   2.676  31.532   9.214
 1900POPC   GL228322   3.038  31.435   9.133
 1900POPC   C1A28323   2.566  31.284   8.804
 1900POPC   D2A28324   2.411  31.136   8.369
 1900POPC   C3A28325   2.690  31.241   7.993
 1900POPC   C4A28326   2.886  31.451   7.615
 1900POPC   C1B28327   3.099  31.156   8.749
 1900POPC   C2B28328   3.068  31.002   8.294
 1900POPC   C3B28329   3.207  31.146   7.885
 1900POPC   C4B28330   3.144  31.056   7.425
 1901POPC   NC328331   7.076  29.765   9.267
 1901POPC   PO428332   6.522  30.164   9.420
 1901POPC   GL128333   6.535  29.984   9.060
 1901POPC   GL228334   6.540  29.629   8.997
 1901POPC   C1A28335   6.726  30.020   8.684
 1901POPC   D2A28336   6.779  29.877   8.288
 1901POPC   C3A28337   6.837  30.183   7.971
 1901POPC   C4A28338   6.868  29.875   7.662
 1901POPC   C1B28339   6.223  29.779   8.701
 1901POPC   C2B28340   6.135  29.857   8.279
 1901POPC   C3B28341   6.411  29.902   7.928
 1901POPC   C4B28342   6.414  29.631   7.569
 1902POPC   NC328343  17.991  12.723   9.504
 1902POPC   PO428344  18.451  13.203   9.538
 1902POPC   GL128345  18.325  13.053   9.155
 1902POPC   GL228346  18.391  12.682   9.176
 1902POPC   C1A28347  18.470  12.952   8.741
 1902POPC   D2A28348  18.450  12.746   8.352
 1902POPC   C3A28349  18.292  13.085   8.070
 1902POPC   C4A28350  18.360  13.140   7.601
 1902POPC   C1B28351  18.062  12.607   8.865
 1902POPC   C2B28352  18.016  12.465   8.462
 1902POPC   C3B28353  18.043  12.636   8.061
 1902POPC   C4B28354  18.430  12.676   7.831
 1903POPC   NC328355  39.985   2.688   9.518
 1903POPC   PO428356  40.340   3.109   9.171
 1903POPC   GL128357  39.971   2.908   9.057
 1903POPC   GL228358  40.124   2.556   9.042
 1903POPC   C1A28359  39.894   2.805   8.646
 1903POPC   D2A28360  40.217   2.596   8.394
 1903POPC   C3A28361  40.251   2.889   8.046
 1903POPC   C4A28362  39.925   3.044   7.767
 1903POPC   C1B28363  39.913   2.308   8.748
 1903POPC   C2B28364  39.687   2.393   8.427
 1903POPC   C3B28365  39.820   2.594   8.063
 1903POPC   C4B28366  39.979   2.562   7.636
 1904POPC   NC328367  30.915  17.113   9.481
 1904POPC   PO428368  30.621  17.625   9.620
 1904POPC   GL128369  30.812  17.566   9.222
 1904POPC   GL228370  30.526  17.686   9.078
 1904POPC   C1A28371  30.798  17.260   8.861
 1904POPC   D2A28372  30.958  17.308   8.457
 1904POPC   C3A28373  30.818  17.630   8.170
 1904POPC   C4A28374  30.842  17.444   7.774
 1904POPC   C1B28375  30.640  17.708   8.666
 1904POPC   C2B28376  30.447  17.385   8.421
 1904POPC   C3B28377  30.343  17.371   8.000
 1904POPC   C4B28378  30.423  17.755   7.786
 1905POPC   NC328379  33.788  14.817   9.539
 1905POPC   PO428380  33.506  15.507   9.485
 1905POPC   GL128381  33.847  15.350   9.177
 1905POPC   GL228382  33.799  15.043   9.102
 1905POPC   C1A28383  34.052  15.262   8.747
 1905POPC   D2A28384  34.048  15.091   8.358
 1905POPC   C3A28385  33.813  15.201   7.992
 1905POPC   C4A28386  33.890  15.095   7.543
 1905POPC   C1B28387  33.513  15.231   8.826
 1905POPC   C2B28388  33.550  15.362   8.447
 1905POPC   C3B28389  33.371  15.480   8.095
 1905POPC   C4B28390  33.412  15.318   7.669
 1906POPC   NC328391   3.707  39.297   9.550
 1906POPC   PO428392   3.933  38.725   9.211
 1906POPC   GL128393   3.567  38.931   9.079
 1906POPC   GL228394   3.512  39.301   9.089
 1906POPC   C1A28395   3.679  39.057   8.678
 1906POPC   D2A28396   3.433  39.135   8.365
 1906POPC   C3A28397   3.327  38.830   8.128
 1906POPC   C4A28398   3.565  38.993   7.796
 1906POPC   C1B28399   3.445  39.506   8.713
 1906POPC   C2B28400   3.322  39.618   8.279
 1906POPC   C3B28401   3.463  39.531   7.847
 1906POPC   C4B28402   3.288  39.618   7.430
 1907POPC   NC328403  36.485  15.857   9.783
 1907POPC   PO428404  35.961  15.953   9.439
 1907POPC   GL128405  36.141  16.052   9.056
 1907POPC   GL228406  36.451  15.877   9.107
 1907POPC   C1A28407  36.054  16.160   8.624
 1907POPC   D2A28408  35.802  16.126   8.265
 1907POPC   C3A28409  35.947  15.975   7.901
 1907POPC   C4A28410  36.060  15.571   7.897
 1907POPC   C1B28411  36.393  15.790   8.664
 1907POPC   C2B28412  36.344  15.874   8.215
 1907POPC   C3B28413  36.453  15.869   7.763
 1907POPC   C4B28414  36.516  15.947   7.319
 1908POPC   NC328415  36.982  20.248   9.728
 1908POPC   PO428416  36.461  20.625   9.491
 1908POPC   GL128417  36.806  20.448   9.296
 1908POPC   GL228418  36.971  20.714   9.254
 1908POPC   C1A28419  36.895  20.308   8.896
 1908POPC   D2A28420  36.651  20.376   8.527
 1908POPC   C3A28421  36.903  20.414   8.171
 1908POPC   C4A28422  36.852  20.353   7.752
 1908POPC   C1B28423  37.014  20.794   8.824
 1908POPC   C2B28424  36.842  20.864   8.445
 1908POPC   C3B28425  37.173  20.846   8.162
 1908POPC   C4B28426  37.149  20.764   7.745
 1909POPC   NC328427  25.537  21.921   9.430
 1909POPC   PO428428  25.324  21.243   9.723
 1909POPC   GL128429  25.236  21.260   9.276
 1909POPC   GL228430  25.401  21.556   9.116
 1909POPC   C1A28431  25.054  21.308   8.864
 1909POPC   D2A28432  25.089  21.168   8.444
 1909POPC   C3A28433  25.065  21.364   8.029
 1909POPC   C4A28434  25.276  21.247   7.667
 1909POPC   C1B28435  25.589  21.407   8.709
 1909POPC   C2B28436  25.536  21.426   8.234
 1909POPC   C3B28437  25.474  21.686   7.822
 1909POPC   C4B28438  25.153  21.722   7.447
 1910POPC   NC328439  18.449  22.622   9.574
 1910POPC   PO428440  18.733  22.063   9.568
 1910POPC   GL128441  18.937  22.228   9.199
 1910POPC   GL228442  18.937  22.578   9.241
 1910POPC   C1A28443  19.126  22.175   8.780
 1910POPC   D2A28444  19.029  21.906   8.424
 1910POPC   C3A28445  19.047  22.058   7.995
 1910POPC   C4A28446  18.762  22.198   7.623
 1910POPC   C1B28447  18.746  22.534   8.820
 1910POPC   C2B28448  18.935  22.451   8.380
 1910POPC   C3B28449  18.987  22.548   7.938
 1910POPC   C4B28450  19.229  22.352   7.552
 1911POPC   NC328451  14.118   9.497   9.394
 1911POPC   PO428452  14.753   9.529   9.558
 1911POPC   GL128453  14.563   9.700   9.163
 1911POPC   GL228454  14.419  10.034   9.213
 1911POPC   C1A28455  14.420   9.777   8.715
 1911POPC   D2A28456  14.215   9.727   8.278
 1911POPC   C3A28457  14.509   9.752   7.925
 1911POPC   C4A28458  14.840   9.458   7.747
 1911POPC   C1B28459  14.559  10.260   8.834
 1911POPC   C2B28460  14.364  10.219   8.423
 1911POPC   C3B28461  14.104  10.188   8.081
 1911POPC   C4B28462  14.218  10.111   7.681
 1912POPC   NC328463  13.944   6.759   9.780
 1912POPC   PO428464  13.385   6.686   9.694
 1912POPC   GL128465  13.577   6.656   9.272
 1912POPC   GL228466  13.415   6.392   9.082
 1912POPC   C1A28467  13.773   6.643   8.824
 1912POPC   D2A28468  13.593   6.409   8.461
 1912POPC   C3A28469  13.655   6.530   8.023
 1912POPC   C4A28470  13.876   6.894   7.834
 1912POPC   C1B28471  13.272   6.718   8.753
 1912POPC   C2B28472  13.215   6.712   8.305
 1912POPC   C3B28473  13.380   6.947   7.972
 1912POPC   C4B28474  13.453   6.814   7.522
 1913POPC   NC328475   5.140  31.089   9.456
 1913POPC   PO428476   4.905  30.422   9.554
 1913POPC   GL128477   4.915  30.686   9.202
 1913POPC   GL228478   5.264  30.650   9.197
 1913POPC   C1A28479   4.983  30.792   8.768
 1913POPC   D2A28480   4.905  30.553   8.400
 1913POPC   C3A28481   5.014  30.692   8.017
 1913POPC   C4A28482   5.353  30.906   7.896
 1913POPC   C1B28483   5.409  30.484   8.797
 1913POPC   C2B28484   5.430  30.570   8.350
 1913POPC   C3B28485   5.421  30.373   7.957
 1913POPC   C4B28486   5.389  30.526   7.552
 1914POPC   NC328487  44.262  21.237   9.912
 1914POPC   PO428488  43.714  20.822   9.688
 1914POPC   GL128489  43.949  20.625   9.338
 1914POPC   GL228490  43.871  20.280   9.244
 1914POPC   C1A28491  44.015  20.619   8.879
 1914POPC   D2A28492  43.808  20.525   8.474
 1914POPC   C3A28493  44.032  20.615   8.080
 1914POPC   C4A28494  43.956  20.826   7.663
 1914POPC   C1B28495  43.950  20.125   8.788
 1914POPC   C2B28496  44.185  20.189   8.380
 1914POPC   C3B28497  44.277  20.198   7.916
 1914POPC   C4B28498  44.094  20.215   7.493
 1915POPC   NC328499  39.538  40.278   9.443
 1915POPC   PO428500  39.136  39.807   9.515
 1915POPC   GL128501  38.953  39.954   9.188
 1915POPC   GL228502  38.982  40.322   9.265
 1915POPC   C1A28503  38.971  39.811   8.753
 1915POPC   D2A28504  39.333  39.904   8.487
 1915POPC   C3A28505  39.233  39.897   8.070
 1915POPC   C4A28506  39.309  40.111   7.717
 1915POPC   C1B28507  39.206  40.265   8.866
 1915POPC   C2B28508  39.025  40.281   8.459
 1915POPC   C3B28509  39.111  40.419   8.083
 1915POPC   C4B28510  38.866  40.375   7.750
 1916POPC   NC328511  40.462   5.150   9.439
 1916POPC   PO428512  41.098   5.185   9.670
 1916POPC   GL128513  40.956   5.082   9.218
 1916POPC   GL228514  41.248   4.898   9.144
 1916POPC   C1A28515  40.721   5.154   8.757
 1916POPC   D2A28516  40.718   5.410   8.328
 1916POPC   C3A28517  40.896   5.278   7.943
 1916POPC   C4A28518  40.552   5.003   7.876
 1916POPC   C1B28519  41.233   5.132   8.776
 1916POPC   C2B28520  41.074   5.044   8.366
 1916POPC   C3B28521  41.053   4.754   8.018
 1916POPC   C4B28522  40.932   4.821   7.595
 1917POPC   NC328523  37.087  40.673   9.423
 1917POPC   PO428524  36.538  41.043   9.467
 1917POPC   GL128525  36.703  40.853   9.109
 1917POPC   GL228526  37.016  41.043   9.065
 1917POPC   C1A28527  36.499  40.614   8.762
 1917POPC   D2A28528  36.680  40.516   8.361
 1917POPC   C3A28529  36.871  40.870   8.164
 1917POPC   C4A28530  36.848  40.751   7.733
 1917POPC   C1B28531  36.978  40.800   8.683
 1917POPC   C2B28532  37.163  40.451   8.510
 1917POPC   C3B28533  37.184  40.456   8.071
 1917POPC   C4B28534  37.515  40.371   7.805
 1918POPC   NC328535  10.157  19.306   9.413
 1918POPC   PO428536  10.808  19.121   9.504
 1918POPC   GL128537  10.827  19.274   9.140
 1918POPC   GL228538  10.518  19.120   9.072
 1918POPC   C1A28539  10.969  19.040   8.814
 1918POPC   D2A28540  10.893  19.155   8.385
 1918POPC   C3A28541  10.875  18.833   8.079
 1918POPC   C4A28542  10.672  18.911   7.700
 1918POPC   C1B28543  10.499  18.977   8.656
 1918POPC   C2B28544  10.367  18.826   8.256
 1918POPC   C3B28545  10.247  19.086   7.925
 1918POPC   C4B28546  10.524  19.411   7.790
 1919POPC   NC328547  43.385   2.498   9.355
 1919POPC   PO428548  43.838   3.004   9.497
 1919POPC   GL128549  43.761   2.934   9.096
 1919POPC   GL228550  43.418   3.056   9.096
 1919POPC   C1A28551  43.874   2.673   8.709
 1919POPC   D2A28552  43.841   2.458   8.293
 1919POPC   C3A28553  43.984   2.753   7.964
 1919POPC   C4A28554  44.327   2.928   7.742
 1919POPC   C1B28555  43.571   3.099   8.665
 1919POPC   C2B28556  43.631   2.939   8.293
 1919POPC   C3B28557  43.523   3.003   7.883
 1919POPC   C4B28558  43.545   2.751   7.515
 1920POPC   NC328559   3.173  10.006   9.431
 1920POPC   PO428560   3.806   9.720   9.476
 1920POPC   GL128561   3.575   9.886   9.148
 1920POPC   GL228562   3.816  10.100   9.076
 1920POPC   C1A28563   3.271   9.838   8.795
 1920POPC   D2A28564   3.383   9.580   8.444
 1920POPC   C3A28565   3.329   9.776   8.047
 1920POPC   C4A28566   3.523   9.724   7.671
 1920POPC   C1B28567   3.769   9.901   8.674
 1920POPC   C2B28568   3.709  10.055   8.252
 1920POPC   C3B28569   3.918   9.942   7.888
 1920POPC   C4B28570   4.022   9.770   7.477
 1921POPC   NC328571  37.787  13.784   9.482
 1921POPC   PO428572  37.156  13.544   9.373
 1921POPC   GL128573  37.469  13.662   9.096
 1921POPC   GL228574  37.695  13.367   9.168
 1921POPC   C1A28575  37.733  13.841   8.749
 1921POPC   D2A28576  38.021  13.730   8.366
 1921POPC   C3A28577  37.753  13.770   7.984
 1921POPC   C4A28578  37.323  13.687   7.860
 1921POPC   C1B28579  37.659  13.344   8.741
 1921POPC   C2B28580  37.575  13.484   8.359
 1921POPC   C3B28581  37.597  13.279   7.982
 1921POPC   C4B28582  37.957  13.310   7.841
 1922POPC   NC328583  16.289  16.860   9.411
 1922POPC   PO428584  17.046  16.821   9.537
 1922POPC   GL128585  16.789  16.677   9.221
 1922POPC   GL228586  16.672  16.968   9.112
 1922POPC   C1A28587  16.756  16.619   8.752
 1922POPC   D2A28588  16.878  16.451   8.354
 1922POPC   C3A28589  16.684  16.535   7.962
 1922POPC   C4A28590  16.713  16.456   7.535
 1922POPC   C1B28591  16.690  17.130   8.709
 1922POPC   C2B28592  16.592  16.948   8.289
 1922POPC   C3B28593  16.605  17.033   7.823
 1922POPC   C4B28594  16.894  16.931   7.460
 1923POPC   NC328595  39.325  13.621   9.509
 1923POPC   PO428596  38.769  13.338   9.224
 1923POPC   GL128597  39.198  13.488   9.043
 1923POPC   GL228598  39.529  13.364   9.135
 1923POPC   C1A28599  39.286  13.753   8.698
 1923POPC   D2A28600  39.026  13.782   8.317
 1923POPC   C3A28601  39.232  13.686   7.931
 1923POPC   C4A28602  39.087  13.409   7.617
 1923POPC   C1B28603  39.606  13.291   8.722
 1923POPC   C2B28604  39.391  13.378   8.344
 1923POPC   C3B28605  39.505  13.241   7.970
 1923POPC   C4B28606  39.572  13.407   7.582
 1924POPC   NC328607   2.932  32.877   9.441
 1924POPC   PO428608   2.502  33.341   9.361
 1924POPC   GL128609   2.769  33.205   9.086
 1924POPC   GL228610   2.587  32.922   9.061
 1924POPC   C1A28611   2.946  33.029   8.721
 1924POPC   D2A28612   3.024  32.737   8.390
 1924POPC   C3A28613   2.792  32.839   8.022
 1924POPC   C4A28614   2.866  32.936   7.597
 1924POPC   C1B28615   2.359  32.693   8.797
 1924POPC   C2B28616   2.416  32.512   8.399
 1924POPC   C3B28617   2.255  32.606   8.012
 1924POPC   C4B28618   2.386  32.778   7.648
 1925POPC   NC328619  18.496  27.412   9.738
 1925POPC   PO428620  18.010  27.137   9.678
 1925POPC   GL128621  18.256  27.320   9.285
 1925POPC   GL228622  18.028  27.545   9.104
 1925POPC   C1A28623  18.495  27.501   8.886
 1925POPC   D2A28624  18.532  27.506   8.381
 1925POPC   C3A28625  18.401  27.838   8.037
 1925POPC   C4A28626  18.297  27.810   7.578
 1925POPC   C1B28627  18.064  27.277   8.717
 1925POPC   C2B28628  18.149  27.172   8.270
 1925POPC   C3B28629  18.229  27.383   7.898
 1925POPC   C4B28630  18.023  27.345   7.518
 1926POPC   NC328631  31.530  18.101   9.528
 1926POPC   PO428632  30.941  18.382   9.481
 1926POPC   GL128633  31.268  18.423   9.191
 1926POPC   GL228634  31.178  18.084   9.114
 1926POPC   C1A28635  31.536  18.518   8.825
 1926POPC   D2A28636  31.652  18.647   8.410
 1926POPC   C3A28637  31.315  18.572   8.170
 1926POPC   C4A28638  31.510  18.432   7.823
 1926POPC   C1B28639  31.529  18.005   8.875
 1926POPC   C2B28640  31.549  18.132   8.475
 1926POPC   C3B28641  31.370  18.048   8.121
 1926POPC   C4B28642  31.577  17.931   7.771
 1927POPC   NC328643  10.940  19.625   9.517
 1927POPC   PO428644  10.209  19.818   9.574
 1927POPC   GL128645  10.429  19.655   9.176
 1927POPC   GL228646  10.713  19.790   9.088
 1927POPC   C1A28647  10.482  19.490   8.745
 1927POPC   D2A28648  10.229  19.359   8.396
 1927POPC   C3A28649  10.307  19.737   8.147
 1927POPC   C4A28650  10.421  19.894   7.744
 1927POPC   C1B28651  10.726  19.974   8.656
 1927POPC   C2B28652  10.832  19.889   8.192
 1927POPC   C3B28653  10.917  19.856   7.710
 1927POPC   C4B28654  10.681  19.732   7.325
 1928POPC   NC328655   8.290  22.591   9.497
 1928POPC   PO428656   7.822  23.123   9.425
 1928POPC   GL128657   8.170  22.988   9.180
 1928POPC   GL228658   8.513  23.130   9.274
 1928POPC   C1A28659   8.320  22.726   8.824
 1928POPC   D2A28660   8.221  22.572   8.395
 1928POPC   C3A28661   7.963  22.856   8.176
 1928POPC   C4A28662   8.123  23.137   7.852
 1928POPC   C1B28663   8.439  23.240   8.826
 1928POPC   C2B28664   8.254  23.315   8.411
 1928POPC   C3B28665   8.450  23.506   8.052
 1928POPC   C4B28666   8.627  23.219   7.774
 1929POPC   NC328667  23.132   8.810   9.477
 1929POPC   PO428668  23.017   9.416   9.698
 1929POPC   GL128669  23.017   9.269   9.233
 1929POPC   GL228670  22.759   8.998   9.128
 1929POPC   C1A28671  22.966   9.259   8.760
 1929POPC   D2A28672  23.083   8.971   8.435
 1929POPC   C3A28673  23.141   9.201   8.046
 1929POPC   C4A28674  22.909   9.142   7.688
 1929POPC   C1B28675  22.791   8.691   8.787
 1929POPC   C2B28676  22.698   8.635   8.341
 1929POPC   C3B28677  22.970   8.727   7.977
 1929POPC   C4B28678  23.175   8.698   7.556
 1930POPC   NC328679  40.651  43.636   9.653
 1930POPC   PO428680  40.849  42.962   9.641
 1930POPC   GL128681  40.684  43.137   9.280
 1930POPC   GL228682  40.905  43.437   9.245
 1930POPC   C1A28683  40.505  42.914   8.899
 1930POPC   D2A28684  40.602  42.735   8.482
 1930POPC   C3A28685  40.545  43.004   8.099
 1930POPC   C4A28686  40.606  42.949   7.668
 1930POPC   C1B28687  40.717  43.394   8.832
 1930POPC   C2B28688  40.864  43.180   8.467
 1930POPC   C3B28689  41.071  43.152   8.069
 1930POPC   C4B28690  40.881  43.361   7.748
 1931POPC   NC328691   9.358  33.869   9.367
 1931POPC   PO428692  10.002  33.558   9.450
 1931POPC   GL128693   9.820  33.785   9.106
 1931POPC   GL228694   9.817  34.091   9.288
 1931POPC   C1A28695   9.830  33.841   8.628
 1931POPC   D2A28696  10.072  33.611   8.292
 1931POPC   C3A28697  10.017  33.701   7.841
 1931POPC   C4A28698  10.048  33.767   7.371
 1931POPC   C1B28699  10.008  34.237   8.920
 1931POPC   C2B28700   9.949  34.347   8.511
 1931POPC   C3B28701   9.920  34.115   8.154
 1931POPC   C4B28702   9.848  34.215   7.725
 1932POPC   NC328703  28.051  39.498   9.580
 1932POPC   PO428704  28.515  38.991   9.632
 1932POPC   GL128705  28.248  39.120   9.290
 1932POPC   GL228706  28.046  38.855   9.198
 1932POPC   C1A28707  28.329  39.422   8.934
 1932POPC   D2A28708  28.364  39.352   8.470
 1932POPC   C3A28709  28.240  39.535   8.060
 1932POPC   C4A28710  28.168  39.358   7.609
 1932POPC   C1B28711  28.152  38.980   8.783
 1932POPC   C2B28712  28.258  38.859   8.374
 1932POPC   C3B28713  28.160  38.977   7.966
 1932POPC   C4B28714  27.952  38.900   7.598
 1933POPC   NC328715   8.925   0.025   9.478
 1933POPC   PO428716   9.282  44.464   9.554
 1933POPC   GL128717   9.203  44.699   9.154
 1933POPC   GL228718   9.223   0.088   9.062
 1933POPC   C1A28719   8.992  44.705   8.751
 1933POPC   D2A28720   9.102  44.797   8.323
 1933POPC   C3A28721   9.002  44.643   7.927
 1933POPC   C4A28722   9.250  44.301   7.754
 1933POPC   C1B28723   9.096   0.188   8.658
 1933POPC   C2B28724   8.677   0.036   8.469
 1933POPC   C3B28725   8.703   0.065   8.031
 1933POPC   C4B28726   9.153   0.150   7.966
 1934POPC   NC328727  20.681   6.394   9.584
 1934POPC   PO428728  20.535   6.996   9.393
 1934POPC   GL128729  20.772   6.688   9.123
 1934POPC   GL228730  20.622   6.356   9.086
 1934POPC   C1A28731  20.805   6.784   8.653
 1934POPC   D2A28732  20.736   7.053   8.235
 1934POPC   C3A28733  20.496   6.911   7.851
 1934POPC   C4A28734  20.257   6.595   7.598
 1934POPC   C1B28735  20.849   6.260   8.720
 1934POPC   C2B28736  20.896   6.455   8.276
 1934POPC   C3B28737  20.896   6.552   7.836
 1934POPC   C4B28738  20.698   6.363   7.453
 1935POPC   NC328739  31.095   0.557   9.496
 1935POPC   PO428740  30.488   0.383   9.494
 1935POPC   GL128741  30.723   0.265   9.101
 1935POPC   GL228742  31.091   0.163   9.148
 1935POPC   C1A28743  30.731   0.460   8.674
 1935POPC   D2A28744  30.964   0.519   8.286
 1935POPC   C3A28745  30.789   0.709   7.935
 1935POPC   C4A28746  30.686   1.040   7.664
 1935POPC   C1B28747  31.058   0.065   8.712
 1935POPC   C2B28748  30.775   0.042   8.368
 1935POPC   C3B28749  30.681   0.214   7.984
 1935POPC   C4B28750  30.858   0.182   7.618
 1936POPC   NC328751  41.588  41.418   9.462
 1936POPC   PO428752  41.340  42.044   9.530
 1936POPC   GL128753  41.502  41.855   9.166
 1936POPC   GL228754  41.191  41.690   9.131
 1936POPC   C1A28755  41.658  41.583   8.797
 1936POPC   D2A28756  41.634  41.347   8.377
 1936POPC   C3A28757  41.682  41.570   7.952
 1936POPC   C4A28758  41.624  41.596   7.467
 1936POPC   C1B28759  41.258  41.956   8.758
 1936POPC   C2B28760  41.395  41.800   8.398
 1936POPC   C3B28761  41.170  41.678   8.071
 1936POPC   C4B28762  41.258  41.849   7.702
 1937POPC   NC328763  21.705  38.283   9.812
 1937POPC   PO428764  21.142  38.477   9.681
 1937POPC   GL128765  21.237  38.565   9.171
 1937POPC   GL228766  21.267  38.265   8.945
 1937POPC   C1A28767  21.482  38.677   8.765
 1937POPC   D2A28768  21.621  38.899   8.376
 1937POPC   C3A28769  21.492  38.673   8.000
 1937POPC   C4A28770  21.526  38.236   7.871
 1937POPC   C1B28771  21.178  37.976   8.636
 1937POPC   C2B28772  21.305  37.934   8.224
 1937POPC   C3B28773  21.078  37.878   7.853
 1937POPC   C4B28774  21.222  38.008   7.479
 1938POPC   NC328775  25.177   5.322   9.488
 1938POPC   PO428776  24.939   4.943   9.079
 1938POPC   GL128777  25.178   5.312   8.974
 1938POPC   GL228778  25.495   5.157   9.110
 1938POPC   C1A28779  25.204   5.341   8.528
 1938POPC   D2A28780  25.387   4.997   8.290
 1938POPC   C3A28781  25.207   4.922   7.888
 1938POPC   C4A28782  25.284   4.803   7.458
 1938POPC   C1B28783  25.651   5.183   8.707
 1938POPC   C2B28784  25.663   5.440   8.332
 1938POPC   C3B28785  25.613   5.279   7.921
 1938POPC   C4B28786  25.689   5.094   7.527
 1939POPC   NC328787   6.111  30.367   9.483
 1939POPC   PO428788   5.651  30.899   9.462
 1939POPC   GL128789   5.726  30.811   9.044
 1939POPC   GL228790   6.017  30.569   9.021
 1939POPC   C1A28791   5.796  30.816   8.631
 1939POPC   D2A28792   5.958  30.513   8.408
 1939POPC   C3A28793   6.038  30.731   8.084
 1939POPC   C4A28794   5.807  30.737   7.726
 1939POPC   C1B28795   6.277  30.303   8.751
 1939POPC   C2B28796   6.425  30.283   8.302
 1939POPC   C3B28797   6.399  30.443   7.859
 1939POPC   C4B28798   6.289  30.860   7.649
 1940POPC   NC328799  23.844  36.776   9.540
 1940POPC   PO428800  23.339  37.043   9.479
 1940POPC   GL128801  23.682  37.078   9.165
 1940POPC   GL228802  23.867  37.389   9.096
 1940POPC   C1A28803  23.943  36.922   8.794
 1940POPC   D2A28804  24.058  36.794   8.377
 1940POPC   C3A28805  23.741  36.674   8.088
 1940POPC   C4A28806  23.769  36.786   7.655
 1940POPC   C1B28807  23.643  37.323   8.739
 1940POPC   C2B28808  23.613  37.071   8.418
 1940POPC   C3B28809  23.756  37.193   8.082
 1940POPC   C4B28810  23.855  37.326   7.723
 1941POPC   NC328811  43.206  43.523   9.801
 1941POPC   PO428812  42.737  44.024   9.572
 1941POPC   GL128813  43.028  44.144   9.178
 1941POPC   GL228814  43.242  43.841   9.015
 1941POPC   C1A28815  43.241  44.279   8.783
 1941POPC   D2A28816  43.405  44.412   8.385
 1941POPC   C3A28817  43.280  44.113   8.069
 1941POPC   C4A28818  43.127  44.091   7.669
 1941POPC   C1B28819  43.224  43.521   8.720
 1941POPC   C2B28820  43.230  43.574   8.282
 1941POPC   C3B28821  43.217  43.622   7.863
 1941POPC   C4B28822  43.169  43.644   7.412
 1942POPC   NC328823  42.577   2.495   9.463
 1942POPC   PO428824  42.185   3.094   9.487
 1942POPC   GL128825  42.041   2.983   9.108
 1942POPC   GL228826  42.143   2.642   9.178
 1942POPC   C1A28827  42.218   3.007   8.691
 1942POPC   D2A28828  42.586   2.936   8.395
 1942POPC   C3A28829  42.557   3.003   7.950
 1942POPC   C4A28830  42.225   2.827   7.695
 1942POPC   C1B28831  42.081   2.478   8.779
 1942POPC   C2B28832  42.252   2.506   8.361
 1942POPC   C3B28833  41.980   2.470   7.971
 1942POPC   C4B28834  41.917   2.468   7.462
 1943POPC   NC328835  14.007  11.952   9.808
 1943POPC   PO428836  14.258  12.357   9.390
 1943POPC   GL128837  14.359  12.177   9.035
 1943POPC   GL228838  14.697  12.075   9.057
 1943POPC   C1A28839  14.262  12.084   8.629
 1943POPC   D2A28840  14.088  11.865   8.305
 1943POPC   C3A28841  14.181  12.066   7.913
 1943POPC   C4A28842  14.245  11.773   7.574
 1943POPC   C1B28843  14.717  12.310   8.651
 1943POPC   C2B28844  14.621  12.132   8.262
 1943POPC   C3B28845  14.700  12.052   7.882
 1943POPC   C4B28846  14.718  12.385   7.629
 1944POPC   NC328847  40.244  41.843   9.500
 1944POPC   PO428848  39.877  41.388   9.540
 1944POPC   GL128849  39.917  41.616   9.148
 1944POPC   GL228850  39.972  41.974   9.076
 1944POPC   C1A28851  40.219  41.624   8.808
 1944POPC   D2A28852  40.186  41.620   8.392
 1944POPC   C3A28853  39.951  41.339   8.157
 1944POPC   C4A28854  40.037  41.396   7.715
 1944POPC   C1B28855  39.723  41.987   8.695
 1944POPC   C2B28856  39.706  41.797   8.281
 1944POPC   C3B28857  40.024  41.845   7.965
 1944POPC   C4B28858  39.928  42.175   7.707
 1945POPC   NC328859  14.029  42.679   9.413
 1945POPC   PO428860  14.392  42.006   9.406
 1945POPC   GL128861  14.187  42.255   9.140
 1945POPC   GL228862  14.488  42.415   9.077
 1945POPC   C1A28863  14.115  42.415   8.724
 1945POPC   D2A28864  14.243  42.303   8.314
 1945POPC   C3A28865  14.138  41.940   8.077
 1945POPC   C4A28866  14.292  42.202   7.745
 1945POPC   C1B28867  14.624  42.476   8.643
 1945POPC   C2B28868  14.604  42.659   8.203
 1945POPC   C3B28869  14.640  42.576   7.740
 1945POPC   C4B28870  14.610  42.521   7.267
 1946POPC   NC328871  22.704  44.018   9.636
 1946POPC   PO428872  23.264  43.754   9.524
 1946POPC   GL128873  23.017  43.751   9.172
 1946POPC   GL228874  22.686  43.673   9.254
 1946POPC   C1A28875  22.988  43.505   8.788
 1946POPC   D2A28876  22.880  43.471   8.332
 1946POPC   C3A28877  23.026  43.791   8.025
 1946POPC   C4A28878  22.973  43.882   7.585
 1946POPC   C1B28879  22.600  43.820   8.844
 1946POPC   C2B28880  22.410  43.712   8.468
 1946POPC   C3B28881  22.524  43.706   8.043
 1946POPC   C4B28882  22.495  43.998   7.692
 1947POPC   NC328883  10.048  27.552   9.486
 1947POPC   PO428884   9.499  27.887   9.487
 1947POPC   GL128885   9.811  27.861   9.147
 1947POPC   GL228886   9.780  27.497   9.075
 1947POPC   C1A28887  10.038  27.779   8.741
 1947POPC   D2A28888   9.870  27.704   8.322
 1947POPC   C3A28889  10.029  27.616   7.945
 1947POPC   C4A28890   9.752  27.527   7.606
 1947POPC   C1B28891   9.526  27.206   8.888
 1947POPC   C2B28892   9.562  27.109   8.441
 1947POPC   C3B28893   9.591  27.320   8.056
 1947POPC   C4B28894   9.279  27.327   7.730
 1948POPC   NC328895  35.768  27.233   9.297
 1948POPC   PO428896  35.160  27.617   9.428
 1948POPC   GL128897  35.328  27.701   9.066
 1948POPC   GL228898  35.663  27.661   9.014
 1948POPC   C1A28899  35.204  27.835   8.697
 1948POPC   D2A28900  35.025  27.565   8.432
 1948POPC   C3A28901  35.289  27.621   8.099
 1948POPC   C4A28902  35.214  27.714   7.676
 1948POPC   C1B28903  35.456  27.381   8.713
 1948POPC   C2B28904  35.509  27.203   8.337
 1948POPC   C3B28905  35.600  27.240   7.938
 1948POPC   C4B28906  35.317  27.237   7.626
 1949POPC   NC328907  20.253  32.998   9.486
 1949POPC   PO428908  20.834  33.471   9.543
 1949POPC   GL128909  20.565  33.278   9.195
 1949POPC   GL228910  20.643  33.381   8.904
 1949POPC   C1A28911  20.504  32.911   8.845
 1949POPC   D2A28912  20.613  32.755   8.416
 1949POPC   C3A28913  20.377  32.716   8.024
 1949POPC   C4A28914  20.478  32.930   7.671
 1949POPC   C1B28915  20.536  33.325   8.493
 1949POPC   C2B28916  20.605  33.163   8.100
 1949POPC   C3B28917  20.933  32.966   7.906
 1949POPC   C4B28918  21.221  32.640   7.813
 1950POPC   NC328919  30.977  27.662   9.438
 1950POPC   PO428920  30.327  27.687   9.369
 1950POPC   GL128921  30.588  27.716   9.105
 1950POPC   GL228922  30.647  27.368   9.146
 1950POPC   C1A28923  30.776  27.827   8.760
 1950POPC   D2A28924  30.544  27.782   8.415
 1950POPC   C3A28925  30.695  27.685   8.051
 1950POPC   C4A28926  30.868  27.809   7.725
 1950POPC   C1B28927  30.861  27.297   8.781
 1950POPC   C2B28928  31.005  27.493   8.421
 1950POPC   C3B28929  31.094  27.378   8.019
 1950POPC   C4B28930  31.231  27.486   7.631
 1951POPC   NC328931  14.278   2.511   9.465
 1951POPC   PO428932  14.531   3.064   9.388
 1951POPC   GL128933  14.382   2.792   9.058
 1951POPC   GL228934  14.042   2.869   9.094
 1951POPC   C1A28935  14.164   2.508   8.750
 1951POPC   D2A28936  14.084   2.557   8.305
 1951POPC   C3A28937  14.338   2.670   7.958
 1951POPC   C4A28938  14.641   2.472   7.709
 1951POPC   C1B28939  14.184   3.019   8.648
 1951POPC   C2B28940  14.062   3.055   8.199
 1951POPC   C3B28941  14.219   3.153   7.762
 1951POPC   C4B28942  13.982   3.151   7.362
 1952POPC   NC328943  23.192  23.978   9.532
 1952POPC   PO428944  22.548  23.897   9.471
 1952POPC   GL128945  22.861  23.754   9.164
 1952POPC   GL228946  23.198  23.871   9.050
 1952POPC   C1A28947  22.877  23.506   8.787
 1952POPC   D2A28948  22.839  23.498   8.353
 1952POPC   C3A28949  22.774  23.870   8.115
 1952POPC   C4A28950  22.784  23.615   7.775
 1952POPC   C1B28951  23.398  23.616   8.770
 1952POPC   C2B28952  23.288  23.790   8.398
 1952POPC   C3B28953  23.229  23.632   8.032
 1952POPC   C4B28954  23.273  23.798   7.667
 1953POPC   NC328955  11.559  41.636   9.406
 1953POPC   PO428956  10.896  41.801   9.590
 1953POPC   GL128957  11.190  41.898   9.165
 1953POPC   GL228958  11.399  41.625   8.934
 1953POPC   C1A28959  11.399  42.084   8.774
 1953POPC   D2A28960  11.253  42.094   8.348
 1953POPC   C3A28961  10.950  41.860   8.162
 1953POPC   C4A28962  11.056  41.650   7.774
 1953POPC   C1B28963  11.195  41.618   8.570
 1953POPC   C2B28964  11.447  41.635   8.213
 1953POPC   C3B28965  11.501  41.395   7.856
 1953POPC   C4B28966  11.107  41.136   7.840
 1954POPC   NC328967  25.890  35.285   9.363
 1954POPC   PO428968  26.255  35.807   9.567
 1954POPC   GL128969  26.153  35.671   9.166
 1954POPC   GL228970  25.824  35.747   9.115
 1954POPC   C1A28971  26.203  35.532   8.733
 1954POPC   D2A28972  26.404  35.578   8.338
 1954POPC   C3A28973  26.241  35.336   7.971
 1954POPC   C4A28974  26.173  35.394   7.502
 1954POPC   C1B28975  25.689  35.521   8.765
 1954POPC   C2B28976  25.808  35.416   8.368
 1954POPC   C3B28977  25.710  35.367   7.967
 1954POPC   C4B28978  25.873  35.055   7.743
 1955POPC   NC328979  32.620  30.606   9.383
 1955POPC   PO428980  33.273  30.567   9.562
 1955POPC   GL128981  33.132  30.835   9.249
 1955POPC   GL228982  32.998  30.533   9.060
 1955POPC   C1A28983  33.191  30.929   8.814
 1955POPC   D2A28984  33.070  30.569   8.550
 1955POPC   C3A28985  33.075  30.611   8.141
 1955POPC   C4A28986  33.163  30.825   7.787
 1955POPC   C1B28987  32.668  30.356   8.749
 1955POPC   C2B28988  32.640  30.342   8.270
 1955POPC   C3B28989  32.734  30.318   7.797
 1955POPC   C4B28990  32.719  30.210   7.354
 1956POPC   NC328991  33.500  43.220   9.683
 1956POPC   PO428992  33.948  42.744   9.547
 1956POPC   GL128993  33.819  42.915   9.141
 1956POPC   GL228994  34.086  43.055   8.951
 1956POPC   C1A28995  33.683  42.955   8.677
 1956POPC   D2A28996  33.918  42.800   8.295
 1956POPC   C3A28997  33.773  43.051   7.966
 1956POPC   C4A28998  33.726  43.088   7.530
 1956POPC   C1B28999  34.187  43.397   8.720
 1956POPC   C2B29000  34.025  43.477   8.312
 1956POPC   C3B29001  34.279  43.407   7.969
 1956POPC   C4B29002  34.160  43.363   7.549
 1957POPC   NC329003   3.367  11.329   9.624
 1957POPC   PO429004   3.901  11.388   9.364
 1957POPC   GL129005   3.602  11.179   9.107
 1957POPC   GL229006   3.339  10.948   9.238
 1957POPC   C1A29007   3.641  11.275   8.668
 1957POPC   D2A29008   3.993  11.433   8.405
 1957POPC   C3A29009   3.801  11.646   8.067
 1957POPC   C4A29010   3.496  11.415   7.809
 1957POPC   C1B29011   3.241  10.963   8.790
 1957POPC   C2B29012   3.156  11.173   8.360
 1957POPC   C3B29013   3.053  11.195   7.907
 1957POPC   C4B29014   3.040  11.160   7.444
 1958POPC   NC329015  31.483  13.274   9.425
 1958POPC   PO429016  31.459  12.678   9.690
 1958POPC   GL129017  31.556  12.768   9.278
 1958POPC   GL229018  31.233  12.886   9.212
 1958POPC   C1A29019  31.457  12.733   8.794
 1958POPC   D2A29020  31.558  13.030   8.501
 1958POPC   C3A29021  31.435  12.900   8.131
 1958POPC   C4A29022  31.434  13.027   7.726
 1958POPC   C1B29023  31.178  13.150   8.837
 1958POPC   C2B29024  31.019  13.041   8.446
 1958POPC   C3B29025  31.064  13.238   8.051
 1958POPC   C4B29026  30.929  13.272   7.637
 1959POPC   NC329027  11.786  33.835   9.195
 1959POPC   PO429028  12.283  34.139   9.553
 1959POPC   GL129029  12.294  33.958   9.114
 1959POPC   GL229030  12.193  33.573   9.054
 1959POPC   C1A29031  12.202  33.974   8.678
 1959POPC   D2A29032  11.885  34.191   8.410
 1959POPC   C3A29033  11.878  33.963   8.006
 1959POPC   C4A29034  12.250  33.866   7.793
 1959POPC   C1B29035  12.143  33.445   8.638
 1959POPC   C2B29036  12.369  33.482   8.251
 1959POPC   C3B29037  12.058  33.428   7.962
 1959POPC   C4B29038  11.850  33.414   7.615
 1960POPC   NC329039  31.744  26.332   9.308
 1960POPC   PO429040  32.283  26.056   9.425
 1960POPC   GL129041  32.228  25.903   9.041
 1960POPC   GL229042  31.861  25.869   9.017
 1960POPC   C1A29043  32.425  25.942   8.666
 1960POPC   D2A29044  32.267  26.084   8.286
 1960POPC   C3A29045  32.089  25.817   7.993
 1960POPC   C4A29046  32.328  25.820   7.635
 1960POPC   C1B29047  31.998  26.250   8.721
 1960POPC   C2B29048  32.001  26.522   8.347
 1960POPC   C3B29049  32.006  26.335   7.907
 1960POPC   C4B29050  31.898  26.066   7.534
 1961POPC   NC329051  25.702  42.071   9.532
 1961POPC   PO429052  26.366  42.144   9.498
 1961POPC   GL129053  26.275  42.145   9.071
 1961POPC   GL229054  25.904  42.222   9.089
 1961POPC   C1A29055  26.326  42.155   8.615
 1961POPC   D2A29056  26.287  42.478   8.317
 1961POPC   C3A29057  26.189  42.398   7.895
 1961POPC   C4A29058  26.417  42.523   7.499
 1961POPC   C1B29059  25.885  42.403   8.686
 1961POPC   C2B29060  25.879  42.145   8.336
 1961POPC   C3B29061  25.732  42.129   7.914
 1961POPC   C4B29062  25.696  42.496   7.727
 1962POPC   NC329063  36.273  22.597   9.492
 1962POPC   PO429064  35.651  22.827   9.514
 1962POPC   GL129065  35.903  22.705   9.150
 1962POPC   GL229066  36.190  22.967   9.158
 1962POPC   C1A29067  35.949  22.882   8.727
 1962POPC   D2A29068  36.155  23.184   8.490
 1962POPC   C3A29069  36.070  23.077   8.090
 1962POPC   C4A29070  35.894  22.771   7.819
 1962POPC   C1B29071  36.415  22.680   8.878
 1962POPC   C2B29072  36.463  22.655   8.465
 1962POPC   C3B29073  36.499  22.692   8.035
 1962POPC   C4B29074  36.396  22.986   7.715
 1963POPC   NC329075   1.239  29.614   9.675
 1963POPC   PO429076   1.167  28.944   9.529
 1963POPC   GL129077   1.071  29.086   9.123
 1963POPC   GL229078   1.327  29.323   9.021
 1963POPC   C1A29079   0.970  29.140   8.685
 1963POPC   D2A29080   1.117  29.259   8.282
 1963POPC   C3A29081   1.215  28.921   8.031
 1963POPC   C4A29082   1.290  28.977   7.597
 1963POPC   C1B29083   1.517  29.273   8.650
 1963POPC   C2B29084   1.683  29.429   8.278
 1963POPC   C3B29085   1.505  29.332   7.889
 1963POPC   C4B29086   1.572  29.364   7.423
 1964POPC   NC329087  22.981  31.376   9.539
 1964POPC   PO429088  23.249  31.990   9.411
 1964POPC   GL129089  23.340  31.715   9.020
 1964POPC   GL229090  23.130  31.426   9.051
 1964POPC   C1A29091  23.197  31.613   8.561
 1964POPC   D2A29092  22.894  31.325   8.328
 1964POPC   C3A29093  22.820  31.431   7.904
 1964POPC   C4A29094  22.819  31.881   7.793
 1964POPC   C1B29095  23.183  31.121   8.720
 1964POPC   C2B29096  23.373  31.124   8.291
 1964POPC   C3B29097  23.255  31.033   7.858
 1964POPC   C4B29098  23.032  31.141   7.479
 1965POPC   NC329099  18.706  42.989   9.532
 1965POPC   PO429100  18.203  43.460   9.558
 1965POPC   GL129101  18.139  43.195   9.199
 1965POPC   GL229102  18.434  43.055   9.125
 1965POPC   C1A29103  18.072  43.096   8.779
 1965POPC   D2A29104  18.293  43.138   8.404
 1965POPC   C3A29105  18.118  42.992   8.048
 1965POPC   C4A29106  17.983  43.261   7.743
 1965POPC   C1B29107  18.558  42.854   8.777
 1965POPC   C2B29108  18.509  42.687   8.374
 1965POPC   C3B29109  18.612  42.871   7.980
 1965POPC   C4B29110  18.380  42.954   7.600
 1966POPC   NC329111  29.726  31.076   9.674
 1966POPC   PO429112  30.334  31.048   9.465
 1966POPC   GL129113  30.106  30.910   9.102
 1966POPC   GL229114  29.768  30.797   9.215
 1966POPC   C1A29115  30.199  30.964   8.645
 1966POPC   D2A29116  30.325  30.857   8.217
 1966POPC   C3A29117  30.016  30.538   8.093
 1966POPC   C4A29118  29.823  30.364   7.751
 1966POPC   C1B29119  29.728  30.722   8.743
 1966POPC   C2B29120  29.554  30.751   8.286
 1966POPC   C3B29121  29.708  30.910   7.861
 1966POPC   C4B29122  29.674  30.732   7.423
 1967POPC   NC329123  10.807   5.468   9.915
 1967POPC   PO429124  10.398   5.046   9.600
 1967POPC   GL129125  10.603   5.008   9.156
 1967POPC   GL229126  10.875   4.773   9.054
 1967POPC   C1A29127  10.603   5.024   8.668
 1967POPC   D2A29128  10.407   5.010   8.247
 1967POPC   C3A29129  10.563   4.971   7.824
 1967POPC   C4A29130  10.292   4.941   7.433
 1967POPC   C1B29131  11.091   4.887   8.642
 1967POPC   C2B29132  10.952   5.124   8.247
 1967POPC   C3B29133  11.026   5.264   7.816
 1967POPC   C4B29134  11.041   5.095   7.399
 1968POPC   NC329135   3.501  18.662   9.503
 1968POPC   PO429136   3.621  17.958   9.503
 1968POPC   GL129137   3.589  18.102   9.109
 1968POPC   GL229138   3.828  18.344   9.209
 1968POPC   C1A29139   3.527  17.990   8.659
 1968POPC   D2A29140   3.637  18.255   8.309
 1968POPC   C3A29141   3.407  18.335   7.936
 1968POPC   C4A29142   3.684  18.023   7.730
 1968POPC   C1B29143   3.867  18.467   8.801
 1968POPC   C2B29144   3.657  18.720   8.518
 1968POPC   C3B29145   3.706  18.742   8.086
 1968POPC   C4B29146   3.832  18.515   7.735
 1969POPC   NC329147  14.872  23.486   9.808
 1969POPC   PO429148  15.473  23.452   9.559
 1969POPC   GL129149  15.402  23.648   9.177
 1969POPC   GL229150  15.022  23.625   9.220
 1969POPC   C1A29151  15.414  23.920   8.796
 1969POPC   D2A29152  15.155  24.025   8.409
 1969POPC   C3A29153  15.328  23.902   7.982
 1969POPC   C4A29154  15.395  23.582   7.612
 1969POPC   C1B29155  15.049  23.573   8.767
 1969POPC   C2B29156  15.212  23.523   8.358
 1969POPC   C3B29157  15.061  23.482   7.970
 1969POPC   C4B29158  14.819  23.761   7.718
 1970POPC   NC329159  26.166  22.221   9.623
 1970POPC   PO429160  25.596  22.477   9.416
 1970POPC   GL129161  25.917  22.241   9.181
 1970POPC   GL229162  26.235  22.004   9.143
 1970POPC   C1A29163  26.176  22.382   8.830
 1970POPC   D2A29164  26.045  22.265   8.426
 1970POPC   C3A29165  26.099  22.478   8.024
 1970POPC   C4A29166  26.122  22.381   7.557
 1970POPC   C1B29167  25.909  21.909   8.809
 1970POPC   C2B29168  25.863  21.775   8.394
 1970POPC   C3B29169  25.894  21.989   7.998
 1970POPC   C4B29170  26.311  22.000   7.845
 1971POPC   NC329171  17.177  37.697   9.400
 1971POPC   PO429172  16.562  37.942   9.638
 1971POPC   GL129173  16.679  37.639   9.304
 1971POPC   GL229174  16.711  37.928   9.144
 1971POPC   C1A29175  16.526  37.558   8.848
 1971POPC   D2A29176  16.635  37.580   8.393
 1971POPC   C3A29177  16.757  37.543   7.958
 1971POPC   C4A29178  17.074  37.376   7.681
 1971POPC   C1B29179  16.605  38.051   8.724
 1971POPC   C2B29180  16.344  37.990   8.380
 1971POPC   C3B29181  16.474  37.984   7.949
 1971POPC   C4B29182  16.478  38.038   7.476
 1972POPC   NC329183  40.936   1.647   9.514
 1972POPC   PO429184  40.528   2.132   9.544
 1972POPC   GL129185  40.703   1.967   9.183
 1972POPC   GL229186  40.771   2.273   9.083
 1972POPC   C1A29187  40.788   1.835   8.745
 1972POPC   D2A29188  40.972   1.681   8.342
 1972POPC   C3A29189  40.737   1.415   8.053
 1972POPC   C4A29190  40.629   1.582   7.636
 1972POPC   C1B29191  40.965   2.320   8.695
 1972POPC   C2B29192  41.128   2.167   8.301
 1972POPC   C3B29193  40.981   2.122   7.882
 1972POPC   C4B29194  40.866   2.386   7.561
 1973POPC   NC329195  31.359  44.730   9.339
 1973POPC   PO429196  31.962  44.474   9.585
 1973POPC   GL129197  31.864  44.688   9.179
 1973POPC   GL229198  31.842   0.067   9.167
 1973POPC   C1A29199  31.644  44.549   8.782
 1973POPC   D2A29200  31.244  44.613   8.547
 1973POPC   C3A29201  31.253  44.540   8.089
 1973POPC   C4A29202  31.271  44.670   7.644
 1973POPC   C1B29203  31.575   0.048   8.794
 1973POPC   C2B29204  31.661  44.868   8.360
 1973POPC   C3B29205  31.667  44.840   7.907
 1973POPC   C4B29206  31.690  44.915   7.446
 1974POPC   NC329207   1.252  31.843   9.337
 1974POPC   PO429208   1.315  31.229   9.581
 1974POPC   GL129209   1.060  31.346   9.215
 1974POPC   GL229210   0.825  31.624   9.109
 1974POPC   C1A29211   1.212  31.415   8.798
 1974POPC   D2A29212   1.185  31.196   8.417
 1974POPC   C3A29213   1.215  31.385   8.045
 1974POPC   C4A29214   0.890  31.351   7.735
 1974POPC   C1B29215   1.017  31.899   8.759
 1974POPC   C2B29216   1.159  31.791   8.362
 1974POPC   C3B29217   0.971  31.824   7.964
 1974POPC   C4B29218   1.237  31.700   7.628
 1975POPC   NC329219  36.938  23.343   9.462
 1975POPC   PO429220  36.713  23.995   9.494
 1975POPC   GL129221  36.591  23.935   9.113
 1975POPC   GL229222  36.434  24.229   9.040
 1975POPC   C1A29223  36.762  23.751   8.757
 1975POPC   D2A29224  37.063  23.832   8.444
 1975POPC   C3A29225  36.880  23.672   8.065
 1975POPC   C4A29226  37.050  23.509   7.703
 1975POPC   C1B29227  36.302  24.006   8.706
 1975POPC   C2B29228  36.401  23.861   8.319
 1975POPC   C3B29229  36.424  23.936   7.894
 1975POPC   C4B29230  36.525  23.561   7.684
 1976POPC   NC329231   1.355  23.942   9.277
 1976POPC   PO429232   0.914  23.609   9.668
 1976POPC   GL129233   1.127  23.447   9.271
 1976POPC   GL229234   0.979  23.638   9.033
 1976POPC   C1A29235   1.408  23.450   8.860
 1976POPC   D2A29236   1.513  23.651   8.442
 1976POPC   C3A29237   1.226  23.727   8.111
 1976POPC   C4A29238   1.231  23.651   7.693
 1976POPC   C1B29239   1.065  23.864   8.630
 1976POPC   C2B29240   0.928  24.125   8.259
 1976POPC   C3B29241   0.947  24.059   7.805
 1976POPC   C4B29242   0.859  23.843   7.424
 1977POPC   NC329243  31.719  40.253   9.515
 1977POPC   PO429244  31.203  39.761   9.559
 1977POPC   GL129245  31.344  40.042   9.263
 1977POPC   GL229246  31.641  39.898   9.132
 1977POPC   C1A29247  31.233  40.092   8.860
 1977POPC   D2A29248  31.298  40.155   8.461
 1977POPC   C3A29249  31.332  39.787   8.212
 1977POPC   C4A29250  31.215  39.732   7.791
 1977POPC   C1B29251  31.735  40.172   8.777
 1977POPC   C2B29252  31.777  40.125   8.328
 1977POPC   C3B29253  31.627  40.076   7.910
 1977POPC   C4B29254  31.786  39.923   7.539
 1978POPC   NC329255  26.600  15.656   9.623
 1978POPC   PO429256  27.137  16.115   9.569
 1978POPC   GL129257  26.877  16.016   9.209
 1978POPC   GL229258  26.686  15.724   9.139
 1978POPC   C1A29259  27.050  15.898   8.795
 1978POPC   D2A29260  27.260  15.917   8.383
 1978POPC   C3A29261  26.919  15.994   8.098
 1978POPC   C4A29262  26.810  15.971   7.658
 1978POPC   C1B29263  26.615  15.580   8.752
 1978POPC   C2B29264  26.472  15.630   8.340
 1978POPC   C3B29265  26.626  15.580   7.938
 1978POPC   C4B29266  26.399  15.689   7.566
 1979POPC   NC329267   0.409  11.647   9.793
 1979POPC   PO429268   0.535  12.226   9.500
 1979POPC   GL129269   0.501  12.100   9.110
 1979POPC   GL229270   0.629  11.812   9.160
 1979POPC   C1A29271   0.380  11.943   8.729
 1979POPC   D2A29272   0.345  12.123   8.339
 1979POPC   C3A29273   0.312  12.074   7.907
 1979POPC   C4A29274   0.554  12.390   7.694
 1979POPC   C1B29275   0.887  11.853   8.805
 1979POPC   C2B29276   0.763  11.750   8.414
 1979POPC   C3B29277   0.779  11.941   8.042
 1979POPC   C4B29278   0.728  11.918   7.626
 1980POPC   NC329279  21.789  14.649   9.450
 1980POPC   PO429280  21.355  14.026   9.508
 1980POPC   GL129281  21.511  14.280   9.238
 1980POPC   GL229282  21.323  14.544   9.116
 1980POPC   C1A29283  21.529  14.237   8.801
 1980POPC   D2A29284  21.425  14.533   8.478
 1980POPC   C3A29285  21.616  14.449   8.103
 1980POPC   C4A29286  21.733  14.380   7.710
 1980POPC   C1B29287  21.111  14.763   8.817
 1980POPC   C2B29288  20.954  14.742   8.375
 1980POPC   C3B29289  21.100  14.507   8.051
 1980POPC   C4B29290  21.272  14.577   7.677
 1981POPC   NC329291  16.898  33.482   9.328
 1981POPC   PO429292  16.913  34.101   9.631
 1981POPC   GL129293  16.754  34.009   9.202
 1981POPC   GL229294  17.046  33.945   9.091
 1981POPC   C1A29295  16.553  33.857   8.795
 1981POPC   D2A29296  16.703  33.734   8.337
 1981POPC   C3A29297  16.442  33.773   7.942
 1981POPC   C4A29298  16.180  34.153   7.878
 1981POPC   C1B29299  17.069  33.683   8.722
 1981POPC   C2B29300  17.311  33.551   8.374
 1981POPC   C3B29301  17.167  33.589   7.958
 1981POPC   C4B29302  16.908  33.895   7.797
 1982POPC   NC329303   0.775  23.174   9.549
 1982POPC   PO429304   0.246  22.773   9.536
 1982POPC   GL129305   0.500  22.653   9.139
 1982POPC   GL229306   0.726  22.883   9.144
 1982POPC   C1A29307   0.787  22.580   8.756
 1982POPC   D2A29308   0.587  22.631   8.355
 1982POPC   C3A29309   0.627  22.779   7.922
 1982POPC   C4A29310   0.221  22.769   7.684
 1982POPC   C1B29311   0.493  22.991   8.726
 1982POPC   C2B29312   0.569  23.150   8.273
 1982POPC   C3B29313   0.430  23.225   7.815
 1982POPC   C4B29314   0.716  23.322   7.447
 1983POPC   NC329315  41.870  39.711   9.580
 1983POPC   PO429316  41.418  40.121   9.889
 1983POPC   GL129317  41.526  39.999   9.348
 1983POPC   GL229318  41.364  40.263   9.074
 1983POPC   C1A29319  41.708  39.947   8.898
 1983POPC   D2A29320  41.527  40.061   8.463
 1983POPC   C3A29321  41.743  40.013   8.086
 1983POPC   C4A29322  41.823  40.144   7.674
 1983POPC   C1B29323  41.245  40.437   8.677
 1983POPC   C2B29324  41.203  40.554   8.242
 1983POPC   C3B29325  41.419  40.370   7.898
 1983POPC   C4B29326  41.318  39.927   7.773
 1984POPC   NC329327  29.650  16.708   9.814
 1984POPC   PO429328  28.972  16.664   9.685
 1984POPC   GL129329  28.872  16.710   9.267
 1984POPC   GL229330  28.974  17.013   9.168
 1984POPC   C1A29331  28.941  16.640   8.819
 1984POPC   D2A29332  28.711  16.773   8.445
 1984POPC   C3A29333  28.878  16.825   8.019
 1984POPC   C4A29334  29.066  16.474   7.777
 1984POPC   C1B29335  29.166  17.125   8.752
 1984POPC   C2B29336  29.336  17.264   8.355
 1984POPC   C3B29337  29.405  16.919   8.088
 1984POPC   C4B29338  29.296  16.922   7.694
 1985POPC   NC329339   8.746  38.562   9.495
 1985POPC   PO429340   9.190  38.119   9.178
 1985POPC   GL129341   8.994  38.453   9.021
 1985POPC   GL229342   9.218  38.704   9.128
 1985POPC   C1A29343   8.918  38.361   8.565
 1985POPC   D2A29344   8.987  38.012   8.244
 1985POPC   C3A29345   8.943  38.224   7.867
 1985POPC   C4A29346   8.693  38.564   7.898
 1985POPC   C1B29347   8.999  38.851   8.720
 1985POPC   C2B29348   9.016  38.788   8.289
 1985POPC   C3B29349   8.963  38.998   7.931
 1985POPC   C4B29350   9.067  39.016   7.510
 1986POPC   NC329351  37.983  40.856   9.366
 1986POPC   PO429352  38.525  41.196   9.560
 1986POPC   GL129353  38.452  40.914   9.178
 1986POPC   GL229354  38.561  40.609   9.135
 1986POPC   C1A29355  38.465  40.942   8.738
 1986POPC   D2A29356  38.179  40.845   8.405
 1986POPC   C3A29357  38.365  40.882   8.020
 1986POPC   C4A29358  38.314  40.673   7.633
 1986POPC   C1B29359  38.257  40.481   8.819
 1986POPC   C2B29360  38.076  40.338   8.437
 1986POPC   C3B29361  38.329  40.379   8.070
 1986POPC   C4B29362  38.411  40.176   7.722
 1987POPC   NC329363  32.569  25.686   9.390
 1987POPC   PO429364  32.019  25.134   9.431
 1987POPC   GL129365  32.159  25.415   9.171
 1987POPC   GL229366  32.448  25.219   9.087
 1987POPC   C1A29367  32.089  25.443   8.748
 1987POPC   D2A29368  32.273  25.060   8.512
 1987POPC   C3A29369  32.439  25.095   8.085
 1987POPC   C4A29370  32.231  25.334   7.779
 1987POPC   C1B29371  32.587  25.442   8.740
 1987POPC   C2B29372  32.410  25.548   8.332
 1987POPC   C3B29373  32.634  25.577   7.968
 1987POPC   C4B29374  32.704  25.508   7.544
 1988POPC   NC329375   3.879   1.765   9.155
 1988POPC   PO429376   3.303   1.848   9.392
 1988POPC   GL129377   3.391   2.011   9.022
 1988POPC   GL229378   3.246   2.325   9.013
 1988POPC   C1A29379   3.381   1.822   8.630
 1988POPC   D2A29380   3.678   1.777   8.293
 1988POPC   C3A29381   3.742   1.717   7.859
 1988POPC   C4A29382   3.593   1.961   7.487
 1988POPC   C1B29383   3.245   2.323   8.587
 1988POPC   C2B29384   3.160   2.104   8.249
 1988POPC   C3B29385   3.382   2.075   7.929
 1988POPC   C4B29386   3.480   2.426   7.678
 1989POPC   NC329387  43.942  41.217   9.309
 1989POPC   PO429388  43.778  41.831   9.593
 1989POPC   GL129389  43.788  41.679   9.135
 1989POPC   GL229390  43.526  41.823   8.993
 1989POPC   C1A29391  44.001  41.461   8.733
 1989POPC   D2A29392  44.213  41.387   8.325
 1989POPC   C3A29393  43.978  41.401   7.886
 1989POPC   C4A29394  43.994  41.302   7.378
 1989POPC   C1B29395  43.797  41.916   8.663
 1989POPC   C2B29396  43.881  41.776   8.260
 1989POPC   C3B29397  43.530  41.661   7.992
 1989POPC   C4B29398  43.286  41.807   7.655
 1990POPC   NC329399   3.081  34.570   9.595
 1990POPC   PO429400   2.478  34.240   9.407
 1990POPC   GL129401   2.650  34.457   9.061
 1990POPC   GL229402   2.910  34.696   9.128
 1990POPC   C1A29403   2.623  34.719   8.710
 1990POPC   D2A29404   2.580  34.732   8.284
 1990POPC   C3A29405   2.650  34.360   8.011
 1990POPC   C4A29406   2.777  34.393   7.569
 1990POPC   C1B29407   3.117  34.476   8.769
 1990POPC   C2B29408   3.322  34.364   8.357
 1990POPC   C3B29409   3.170  34.438   7.941
 1990POPC   C4B29410   2.894  34.801   7.867
 1991POPC   NC329411  19.146  24.167   9.595
 1991POPC   PO429412  18.907  24.808   9.640
 1991POPC   GL129413  19.108  24.583   9.293
 1991POPC   GL229414  18.929  24.324   9.111
 1991POPC   C1A29415  19.370  24.534   8.936
 1991POPC   D2A29416  19.380  24.666   8.515
 1991POPC   C3A29417  19.474  24.443   8.151
 1991POPC   C4A29418  19.232  24.339   7.779
 1991POPC   C1B29419  18.956  24.398   8.659
 1991POPC   C2B29420  18.801  24.561   8.266
 1991POPC   C3B29421  18.694  24.389   7.890
 1991POPC   C4B29422  18.791  24.121   7.562
 1992POPC   NC329423  38.734  33.094   9.442
 1992POPC   PO429424  38.118  33.255   9.512
 1992POPC   GL129425  38.299  32.998   9.183
 1992POPC   GL229426  38.494  33.257   9.011
 1992POPC   C1A29427  38.481  32.787   8.813
 1992POPC   D2A29428  38.288  32.738   8.389
 1992POPC   C3A29429  38.432  32.929   7.984
 1992POPC   C4A29430  38.235  32.943   7.557
 1992POPC   C1B29431  38.235  33.206   8.627
 1992POPC   C2B29432  38.118  33.278   8.184
 1992POPC   C3B29433  38.266  33.402   7.761
 1992POPC   C4B29434  38.535  33.301   7.369
 1993POPC   NC329435  27.256   9.387   9.474
 1993POPC   PO429436  27.844   9.542   9.564
 1993POPC   GL129437  27.643   9.601   9.195
 1993POPC   GL229438  27.758   9.940   9.173
 1993POPC   C1A29439  27.749   9.423   8.802
 1993POPC   D2A29440  27.944   9.461   8.427
 1993POPC   C3A29441  27.655   9.382   8.120
 1993POPC   C4A29442  27.583   9.592   7.736
 1993POPC   C1B29443  27.607  10.027   8.762
 1993POPC   C2B29444  27.748  10.150   8.331
 1993POPC   C3B29445  27.670  10.103   7.884
 1993POPC   C4B29446  27.973  10.200   7.579
 1994POPC   NC329447  15.035  34.096   9.871
 1994POPC   PO429448  15.108  34.538   9.389
 1994POPC   GL129449  15.292  34.622   9.043
 1994POPC   GL229450  15.588  34.768   9.137
 1994POPC   C1A29451  15.161  34.640   8.650
 1994POPC   D2A29452  15.263  34.322   8.434
 1994POPC   C3A29453  15.202  34.431   8.038
 1994POPC   C4A29454  15.302  34.258   7.666
 1994POPC   C1B29455  15.478  35.024   8.786
 1994POPC   C2B29456  15.246  35.156   8.443
 1994POPC   C3B29457  15.269  35.069   8.028
 1994POPC   C4B29458  15.246  34.797   7.685
 1995POPC   NC329459   3.211  27.298   9.406
 1995POPC   PO429460   2.670  27.652   9.391
 1995POPC   GL129461   2.847  27.444   9.099
 1995POPC   GL229462   2.605  27.168   9.173
 1995POPC   C1A29463   2.991  27.595   8.707
 1995POPC   D2A29464   3.185  27.514   8.306
 1995POPC   C3A29465   2.941  27.776   8.013
 1995POPC   C4A29466   2.663  27.986   7.717
 1995POPC   C1B29467   2.440  27.416   8.810
 1995POPC   C2B29468   2.567  27.560   8.396
 1995POPC   C3B29469   2.603  27.401   7.993
 1995POPC   C4B29470   2.443  27.240   7.604
 1996POPC   NC329471  10.761  11.000   9.537
 1996POPC   PO429472  10.312  11.484   9.489
 1996POPC   GL129473  10.571  11.332   9.183
 1996POPC   GL229474  10.416  10.976   9.170
 1996POPC   C1A29475  10.617  11.566   8.781
 1996POPC   D2A29476  10.454  11.770   8.390
 1996POPC   C3A29477  10.656  11.593   8.039
 1996POPC   C4A29478  10.563  11.509   7.615
 1996POPC   C1B29479  10.451  11.080   8.757
 1996POPC   C2B29480  10.522  11.241   8.380
 1996POPC   C3B29481  10.311  11.204   8.007
 1996POPC   C4B29482  10.404  10.992   7.656
 1997POPC   NC329483  40.927  42.119   9.316
 1997POPC   PO429484  40.873  41.420   9.458
 1997POPC   GL129485  40.618  41.617   9.202
 1997POPC   GL229486  40.351  41.365   9.249
 1997POPC   C1A29487  40.773  41.717   8.808
 1997POPC   D2A29488  40.607  41.915   8.488
 1997POPC   C3A29489  40.629  41.777   8.061
 1997POPC   C4A29490  40.821  41.471   7.753
 1997POPC   C1B29491  40.562  41.241   8.852
 1997POPC   C2B29492  40.632  41.389   8.439
 1997POPC   C3B29493  40.444  41.296   8.050
 1997POPC   C4B29494  40.475  41.094   7.671
 1998POPC   NC329495   1.158  38.653   9.493
 1998POPC   PO429496   1.697  38.305   9.517
 1998POPC   GL129497   1.444  38.419   9.161
 1998POPC   GL229498   1.544  38.739   9.135
 1998POPC   C1A29499   1.139  38.599   8.836
 1998POPC   D2A29500   0.850  38.699   8.495
 1998POPC   C3A29501   1.016  38.555   8.111
 1998POPC   C4A29502   1.065  38.288   7.763
 1998POPC   C1B29503   1.604  38.751   8.695
 1998POPC   C2B29504   1.561  38.514   8.334
 1998POPC   C3B29505   1.504  38.646   7.951
 1998POPC   C4B29506   1.252  38.732   7.613
 1999POPC   NC329507  19.187  32.444   9.482
 1999POPC   PO429508  18.565  32.072   9.565
 1999POPC   GL129509  18.863  32.185   9.129
 1999POPC   GL229510  19.212  32.083   9.099
 1999POPC   C1A29511  18.833  32.458   8.706
 1999POPC   D2A29512  18.743  32.651   8.311
 1999POPC   C3A29513  18.778  32.396   7.924
 1999POPC   C4A29514  18.760  32.238   7.453
 1999POPC   C1B29515  19.157  32.071   8.709
 1999POPC   C2B29516  19.094  32.238   8.308
 1999POPC   C3B29517  19.079  32.007   7.946
 1999POPC   C4B29518  19.238  32.118   7.553
 2000POPC   NC329519   2.638  15.439   9.626
 2000POPC   PO429520   3.073  14.963   9.517
 2000POPC   GL129521   2.894  15.303   9.213
 2000POPC   GL229522   3.115  15.611   9.270
 2000POPC   C1A29523   2.610  15.271   8.829
 2000POPC   D2A29524   2.724  14.958   8.483
 2000POPC   C3A29525   2.559  15.135   8.106
 2000POPC   C4A29526   2.460  14.936   7.723
 2000POPC   C1B29527   3.004  15.629   8.828
 2000POPC   C2B29528   2.911  15.439   8.429
 2000POPC   C3B29529   2.960  15.580   8.003
 2000POPC   C4B29530   2.703  15.447   7.708
 2001POPC   NC329531  18.275   9.461   9.612
 2001POPC   PO429532  18.823   9.871   9.523
 2001POPC   GL129533  18.595   9.829   9.132
 2001POPC   GL229534  18.247   9.760   9.165
 2001POPC   C1A29535  18.451   9.718   8.685
 2001POPC   D2A29536  18.439   9.907   8.254
 2001POPC   C3A29537  18.275   9.646   7.853
 2001POPC   C4A29538  18.358   9.630   7.372
 2001POPC   C1B29539  17.988   9.881   8.795
 2001POPC   C2B29540  17.980   9.724   8.356
 2001POPC   C3B29541  17.863   9.914   7.956
 2001POPC   C4B29542  17.886   9.808   7.514
 2002POPC   NC329543  20.577   4.616   9.826
 2002POPC   PO429544  20.563   4.141   9.313
 2002POPC   GL129545  20.842   4.181   9.003
 2002POPC   GL229546  20.963   3.908   8.939
 2002POPC   C1A29547  20.728   4.158   8.555
 2002POPC   D2A29548  20.367   4.316   8.329
 2002POPC   C3A29549  20.388   4.543   7.942
 2002POPC   C4A29550  20.544   4.419   7.542
 2002POPC   C1B29551  21.236   4.196   8.676
 2002POPC   C2B29552  21.118   4.356   8.278
 2002POPC   C3B29553  20.767   4.173   8.024
 2002POPC   C4B29554  20.584   3.929   7.670
 2003POPC   NC329555   3.957  14.276   9.477
 2003POPC   PO429556   4.590  14.546   9.551
 2003POPC   GL129557   4.390  14.362   9.198
 2003POPC   GL229558   4.685  14.380   9.042
 2003POPC   C1A29559   4.267  14.241   8.775
 2003POPC   D2A29560   4.374  14.377   8.346
 2003POPC   C3A29561   4.273  14.150   7.945
 2003POPC   C4A29562   4.250  14.554   7.764
 2003POPC   C1B29563   4.776  14.161   8.711
 2003POPC   C2B29564   4.896  14.375   8.355
 2003POPC   C3B29565   4.745  14.375   7.942
 2003POPC   C4B29566   4.718  14.690   7.607
 2004POPC   NC329567  43.164   6.837   9.352
 2004POPC   PO429568  43.222   6.276   9.671
 2004POPC   GL129569  43.080   6.355   9.210
 2004POPC   GL229570  42.744   6.518   9.129
 2004POPC   C1A29571  43.185   6.480   8.760
 2004POPC   D2A29572  43.291   6.723   8.358
 2004POPC   C3A29573  43.158   6.572   7.928
 2004POPC   C4A29574  43.159   6.719   7.482
 2004POPC   C1B29575  42.755   6.769   8.733
 2004POPC   C2B29576  42.772   6.646   8.305
 2004POPC   C3B29577  42.584   6.421   7.974
 2004POPC   C4B29578  42.766   6.443   7.607
 2005POPC   NC329579   1.639  44.541   9.488
 2005POPC   PO429580   2.292  44.890   9.519
 2005POPC   GL129581   2.045  44.703   9.234
 2005POPC   GL229582   1.822  44.909   9.136
 2005POPC   C1A29583   2.124  44.624   8.822
 2005POPC   D2A29584   1.974  44.670   8.456
 2005POPC   C3A29585   2.156  44.623   8.092
 2005POPC   C4A29586   2.203  44.409   7.713
 2005POPC   C1B29587   1.682   0.024   8.753
 2005POPC   C2B29588   1.502  44.861   8.390
 2005POPC   C3B29589   1.637  44.978   7.998
 2005POPC   C4B29590   1.478  44.845   7.604
 2006POPC   NC329591  16.978  31.827   9.396
 2006POPC   PO429592  16.437  32.125   9.353
 2006POPC   GL129593  16.744  32.139   9.037
 2006POPC   GL229594  16.892  32.461   8.995
 2006POPC   C1A29595  16.802  32.107   8.595
 2006POPC   D2A29596  16.808  32.377   8.249
 2006POPC   C3A29597  16.776  32.176   7.865
 2006POPC   C4A29598  17.058  31.847   7.738
 2006POPC   C1B29599  16.467  32.477   8.744
 2006POPC   C2B29600  16.285  32.367   8.364
 2006POPC   C3B29601  16.386  32.509   7.956
 2006POPC   C4B29602  16.572  32.540   7.543
 2007POPC   NC329603  10.182  10.110   9.330
 2007POPC   PO429604  10.622  10.563   9.602
 2007POPC   GL129605  10.557  10.447   9.193
 2007POPC   GL229606  10.878  10.286   9.097
 2007POPC   C1A29607  10.335  10.585   8.810
 2007POPC   D2A29608  10.202  10.524   8.402
 2007POPC   C3A29609  10.390  10.642   8.034
 2007POPC   C4A29610  10.223  10.516   7.637
 2007POPC   C1B29611  10.832  10.703   8.867
 2007POPC   C2B29612  10.721  10.753   8.437
 2007POPC   C3B29613  10.897  10.618   8.036
 2007POPC   C4B29614  10.713  10.401   7.703
 2008POPC   NC329615  28.583  26.582   9.556
 2008POPC   PO429616  28.381  25.992   9.595
 2008POPC   GL129617  28.445  26.012   9.156
 2008POPC   GL229618  28.684  26.249   9.190
 2008POPC   C1A29619  28.332  25.950   8.715
 2008POPC   D2A29620  28.262  26.113   8.294
 2008POPC   C3A29621  28.367  25.964   7.887
 2008POPC   C4A29622  28.455  25.573   7.684
 2008POPC   C1B29623  28.597  26.400   8.777
 2008POPC   C2B29624  28.690  26.371   8.380
 2008POPC   C3B29625  28.737  26.303   7.989
 2008POPC   C4B29626  28.621  26.349   7.559
 2009POPC   NC329627  35.340  37.112   9.495
 2009POPC   PO429628  35.057  36.623   9.195
 2009POPC   GL129629  35.443  36.819   9.080
 2009POPC   GL229630  35.256  37.097   8.999
 2009POPC   C1A29631  35.656  36.929   8.700
 2009POPC   D2A29632  35.511  36.823   8.281
 2009POPC   C3A29633  35.508  37.064   7.935
 2009POPC   C4A29634  35.571  36.834   7.595
 2009POPC   C1B29635  35.190  37.093   8.574
 2009POPC   C2B29636  35.245  37.370   8.266
 2009POPC   C3B29637  35.124  37.402   7.860
 2009POPC   C4B29638  35.154  37.301   7.427
 2010POPC   NC329639  28.112  43.598   9.569
 2010POPC   PO429640  28.582  44.079   9.382
 2010POPC   GL129641  28.407  43.728   9.142
 2010POPC   GL229642  28.044  43.815   9.109
 2010POPC   C1A29643  28.302  43.647   8.711
 2010POPC   D2A29644  28.430  43.917   8.401
 2010POPC   C3A29645  28.445  43.757   8.017
 2010POPC   C4A29646  28.568  43.953   7.650
 2010POPC   C1B29647  28.145  44.133   8.773
 2010POPC   C2B29648  28.032  44.242   8.314
 2010POPC   C3B29649  28.135  44.170   7.838
 2010POPC   C4B29650  28.157  44.110   7.357
 2011POPC   NC329651  20.056  24.812   9.850
 2011POPC   PO429652  19.508  24.483   9.608
 2011POPC   GL129653  19.795  24.540   9.228
 2011POPC   GL229654  20.008  24.819   9.281
 2011POPC   C1A29655  19.825  24.394   8.775
 2011POPC   D2A29656  19.941  24.245   8.365
 2011POPC   C3A29657  19.952  24.450   7.978
 2011POPC   C4A29658  19.936  24.268   7.574
 2011POPC   C1B29659  19.941  24.877   8.828
 2011POPC   C2B29660  19.865  24.753   8.396
 2011POPC   C3B29661  19.734  24.913   7.969
 2011POPC   C4B29662  19.485  24.763   7.617
 2012POPC   NC329663  22.695   6.956   9.371
 2012POPC   PO429664  23.100   6.494   9.695
 2012POPC   GL129665  23.189   6.595   9.232
 2012POPC   GL229666  23.187   6.279   9.086
 2012POPC   C1A29667  23.139   6.877   8.822
 2012POPC   D2A29668  23.047   6.771   8.364
 2012POPC   C3A29669  22.683   6.827   8.082
 2012POPC   C4A29670  22.445   6.671   7.758
 2012POPC   C1B29671  23.294   6.399   8.674
 2012POPC   C2B29672  23.173   6.283   8.258
 2012POPC   C3B29673  23.150   6.419   7.837
 2012POPC   C4B29674  23.467   6.310   7.538
 2013POPC   NC329675  23.972  17.436   9.589
 2013POPC   PO429676  23.797  18.010   9.252
 2013POPC   GL129677  23.942  17.596   9.105
 2013POPC   GL229678  23.678  17.385   9.161
 2013POPC   C1A29679  24.010  17.298   8.751
 2013POPC   D2A29680  23.737  17.177   8.378
 2013POPC   C3A29681  23.770  17.430   8.018
 2013POPC   C4A29682  24.021  17.376   7.676
 2013POPC   C1B29683  23.512  17.432   8.768
 2013POPC   C2B29684  23.484  17.650   8.380
 2013POPC   C3B29685  23.307  17.631   7.951
 2013POPC   C4B29686  23.273  17.515   7.522
 2014POPC   NC329687  14.988   9.942   9.606
 2014POPC   PO429688  15.449   9.540   9.508
 2014POPC   GL129689  15.099   9.651   9.180
 2014POPC   GL229690  14.954  10.033   9.120
 2014POPC   C1A29691  14.950   9.714   8.736
 2014POPC   D2A29692  14.879  10.012   8.381
 2014POPC   C3A29693  15.085   9.884   7.955
 2014POPC   C4A29694  15.360   9.508   7.856
 2014POPC   C1B29695  15.359  10.005   8.903
 2014POPC   C2B29696  15.523  10.097   8.487
 2014POPC   C3B29697  15.603  10.002   8.058
 2014POPC   C4B29698  15.532   9.921   7.636
 2015POPC   NC329699  34.027  39.340   9.405
 2015POPC   PO429700  33.415  39.110   9.430
 2015POPC   GL129701  33.631  39.304   9.091
 2015POPC   GL229702  33.541  39.661   9.084
 2015POPC   C1A29703  33.862  39.126   8.740
 2015POPC   D2A29704  33.778  38.778   8.448
 2015POPC   C3A29705  33.939  38.942   8.058
 2015POPC   C4A29706  33.866  38.763   7.659
 2015POPC   C1B29707  33.822  39.668   8.726
 2015POPC   C2B29708  33.879  39.539   8.283
 2015POPC   C3B29709  33.621  39.473   7.910
 2015POPC   C4B29710  33.609  39.513   7.433
 2016POPC   NC329711   4.778  14.105   9.463
 2016POPC   PO429712   5.448  14.367   9.501
 2016POPC   GL129713   5.193  14.198   9.159
 2016POPC   GL229714   5.329  13.893   8.991
 2016POPC   C1A29715   5.206  14.459   8.798
 2016POPC   D2A29716   5.502  14.512   8.449
 2016POPC   C3A29717   5.344  14.348   8.084
 2016POPC   C4A29718   5.179  14.453   7.678
 2016POPC   C1B29719   5.244  14.008   8.563
 2016POPC   C2B29720   5.019  13.918   8.173
 2016POPC   C3B29721   5.176  13.964   7.778
 2016POPC   C4B29722   5.578  14.099   7.685
 2017POPC   NC329723   1.697  30.960   9.483
 2017POPC   PO429724   2.324  30.658   9.564
 2017POPC   GL129725   2.192  30.552   9.174
 2017POPC   GL229726   1.832  30.589   9.162
 2017POPC   C1A29727   2.236  30.783   8.815
 2017POPC   D2A29728   2.287  30.610   8.432
 2017POPC   C3A29729   2.151  30.571   8.024
 2017POPC   C4A29730   2.215  30.854   7.682
 2017POPC   C1B29731   1.728  30.764   8.758
 2017POPC   C2B29732   1.862  30.875   8.332
 2017POPC   C3B29733   1.735  30.891   7.893
 2017POPC   C4B29734   1.786  30.903   7.426
 2018POPC   NC329735   3.617  32.763   9.480
 2018POPC   PO429736   3.193  33.278   9.510
 2018POPC   GL129737   3.372  33.067   9.155
 2018POPC   GL229738   3.770  33.125   9.122
 2018POPC   C1A29739   3.447  32.955   8.738
 2018POPC   D2A29740   3.323  33.175   8.393
 2018POPC   C3A29741   3.327  32.960   8.018
 2018POPC   C4A29742   3.336  33.191   7.660
 2018POPC   C1B29743   3.958  32.962   8.719
 2018POPC   C2B29744   3.812  32.970   8.291
 2018POPC   C3B29745   3.817  33.089   7.859
 2018POPC   C4B29746   3.752  32.914   7.465
 2019POPC   NC329747   6.605  33.925   9.838
 2019POPC   PO429748   6.555  33.244   9.640
 2019POPC   GL129749   6.659  33.590   9.270
 2019POPC   GL229750   6.436  33.840   9.218
 2019POPC   C1A29751   6.815  33.860   8.871
 2019POPC   D2A29752   6.761  33.616   8.462
 2019POPC   C3A29753   6.800  33.811   8.070
 2019POPC   C4A29754   6.815  33.563   7.701
 2019POPC   C1B29755   6.360  33.653   8.791
 2019POPC   C2B29756   6.366  33.898   8.389
 2019POPC   C3B29757   6.252  34.022   8.002
 2019POPC   C4B29758   6.499  33.962   7.660
 2020POPC   NC329759   9.966   0.085   9.521
 2020POPC   PO429760   9.921   0.797   9.706
 2020POPC   GL129761   9.916   0.506   9.283
 2020POPC   GL229762   9.637   0.446   9.099
 2020POPC   C1A29763  10.021   0.508   8.811
 2020POPC   D2A29764   9.849   0.493   8.400
 2020POPC   C3A29765   9.758   0.831   8.135
 2020POPC   C4A29766   9.820   0.681   7.730
 2020POPC   C1B29767   9.623   0.181   8.743
 2020POPC   C2B29768   9.547   0.052   8.334
 2020POPC   C3B29769   9.676   0.228   7.951
 2020POPC   C4B29770  10.115   0.205   7.779
 2021POPC   NC329771  24.529  36.704   9.540
 2021POPC   PO429772  24.047  37.209   9.533
 2021POPC   GL129773  24.220  36.988   9.204
 2021POPC   GL229774  24.236  36.616   9.129
 2021POPC   C1A29775  24.371  37.217   8.841
 2021POPC   D2A29776  24.373  37.195   8.392
 2021POPC   C3A29777  24.671  37.006   8.101
 2021POPC   C4A29778  24.627  36.961   7.628
 2021POPC   C1B29779  24.441  36.711   8.724
 2021POPC   C2B29780  24.636  36.523   8.334
 2021POPC   C3B29781  24.473  36.565   7.933
 2021POPC   C4B29782  24.187  36.943   7.890
 2022POPC   NC329783  13.575  15.438   9.410
 2022POPC   PO429784  14.054  15.002   9.249
 2022POPC   GL129785  13.738  15.167   9.017
 2022POPC   GL229786  13.451  14.936   8.934
 2022POPC   C1A29787  13.768  15.317   8.639
 2022POPC   D2A29788  13.559  15.548   8.391
 2022POPC   C3A29789  13.629  15.375   8.017
 2022POPC   C4A29790  13.570  15.545   7.646
 2022POPC   C1B29791  13.801  14.808   8.656
 2022POPC   C2B29792  13.755  14.906   8.241
 2022POPC   C3B29793  13.383  14.919   7.979
 2022POPC   C4B29794  13.502  15.035   7.579
 2023POPC   NC329795  31.656  19.557   9.454
 2023POPC   PO429796  31.128  19.204   9.430
 2023POPC   GL129797  31.263  18.972   9.077
 2023POPC   GL229798  31.476  19.276   8.997
 2023POPC   C1A29799  31.267  18.922   8.613
 2023POPC   D2A29800  31.459  19.127   8.232
 2023POPC   C3A29801  31.408  18.952   7.821
 2023POPC   C4A29802  31.159  19.069   7.439
 2023POPC   C1B29803  31.746  19.120   8.655
 2023POPC   C2B29804  31.968  19.039   8.267
 2023POPC   C3B29805  31.829  19.261   7.880
 2023POPC   C4B29806  31.669  19.234   7.474
 2024POPC   NC329807   2.388   4.822   9.419
 2024POPC   PO429808   2.003   5.204   9.750
 2024POPC   GL129809   2.071   5.197   9.250
 2024POPC   GL229810   1.875   5.404   9.039
 2024POPC   C1A29811   2.183   5.056   8.806
 2024POPC   D2A29812   2.182   5.223   8.374
 2024POPC   C3A29813   2.203   4.860   8.060
 2024POPC   C4A29814   1.835   4.810   7.761
 2024POPC   C1B29815   1.707   5.186   8.658
 2024POPC   C2B29816   1.724   5.027   8.239
 2024POPC   C3B29817   1.965   5.273   7.915
 2024POPC   C4B29818   1.921   5.290   7.517
 2025POPC   NC329819   0.299   0.438   9.423
 2025POPC   PO429820   0.841   0.762   9.642
 2025POPC   GL129821   0.733   0.566   9.201
 2025POPC   GL229822   0.416   0.720   9.036
 2025POPC   C1A29823   0.688   0.323   8.791
 2025POPC   D2A29824   0.573   0.326   8.331
 2025POPC   C3A29825   0.246   0.200   8.019
 2025POPC   C4A29826   0.224   0.335   7.574
 2025POPC   C1B29827   0.501   0.783   8.618
 2025POPC   C2B29828   0.487   0.872   8.206
 2025POPC   C3B29829   0.557   0.634   7.837
 2025POPC   C4B29830   0.565   0.724   7.393
 2026POPC   NC329831  23.386  10.900   9.483
 2026POPC   PO429832  23.985  10.555   9.639
 2026POPC   GL129833  23.790  10.593   9.259
 2026POPC   GL229834  23.876  10.259   9.206
 2026POPC   C1A29835  23.592  10.523   8.860
 2026POPC   D2A29836  23.781  10.471   8.470
 2026POPC   C3A29837  23.581  10.382   8.089
 2026POPC   C4A29838  23.541  10.743   7.788
 2026POPC   C1B29839  24.095  10.236   8.817
 2026POPC   C2B29840  24.068  10.054   8.401
 2026POPC   C3B29841  24.087  10.208   8.005
 2026POPC   C4B29842  23.867  10.362   7.672
 2027POPC   NC329843   1.146   8.662   9.289
 2027POPC   PO429844   0.973   8.091   9.515
 2027POPC   GL129845   0.941   8.143   9.071
 2027POPC   GL229846   1.282   8.225   9.023
 2027POPC   C1A29847   1.064   8.077   8.601
 2027POPC   D2A29848   1.257   8.017   8.189
 2027POPC   C3A29849   1.078   8.258   7.870
 2027POPC   C4A29850   0.923   8.295   7.446
 2027POPC   C1B29851   1.556   8.203   8.638
 2027POPC   C2B29852   1.785   8.133   8.244
 2027POPC   C3B29853   1.609   8.290   7.861
 2027POPC   C4B29854   1.403   8.068   7.531
 2028POPC   NC329855  17.267  40.829   9.459
 2028POPC   PO429856  17.899  41.103   9.459
 2028POPC   GL129857  17.684  40.879   9.088
 2028POPC   GL229858  17.414  40.604   9.048
 2028POPC   C1A29859  17.685  40.782   8.628
 2028POPC   D2A29860  17.728  40.585   8.225
 2028POPC   C3A29861  17.701  40.912   7.885
 2028POPC   C4A29862  17.642  40.880   7.411
 2028POPC   C1B29863  17.169  40.756   8.748
 2028POPC   C2B29864  17.104  40.564   8.380
 2028POPC   C3B29865  17.269  40.614   7.994
 2028POPC   C4B29866  17.157  40.854   7.671
 2029POPC   NC329867  29.695  33.878   9.541
 2029POPC   PO429868  30.247  33.646   9.531
 2029POPC   GL129869  30.168  33.864   9.164
 2029POPC   GL229870  29.846  33.993   9.063
 2029POPC   C1A29871  30.278  33.822   8.760
 2029POPC   D2A29872  30.004  33.924   8.449
 2029POPC   C3A29873  30.147  33.805   8.061
 2029POPC   C4A29874  29.833  33.827   7.750
 2029POPC   C1B29875  29.836  33.594   8.844
 2029POPC   C2B29876  30.030  33.422   8.455
 2029POPC   C3B29877  29.833  33.398   8.046
 2029POPC   C4B29878  29.889  33.173   7.663
 2030POPC   NC329879  12.700  38.508   9.477
 2030POPC   PO429880  13.272  38.641   9.275
 2030POPC   GL129881  12.886  38.670   9.028
 2030POPC   GL229882  12.663  38.325   9.014
 2030POPC   C1A29883  12.691  38.649   8.630
 2030POPC   D2A29884  12.579  38.272   8.465
 2030POPC   C3A29885  12.720  38.248   8.047
 2030POPC   C4A29886  12.762  38.586   7.768
 2030POPC   C1B29887  13.026  38.251   8.770
 2030POPC   C2B29888  13.092  38.088   8.405
 2030POPC   C3B29889  13.261  38.138   8.037
 2030POPC   C4B29890  13.098  38.223   7.619
 2031POPC   NC329891  34.424   6.762   9.584
 2031POPC   PO429892  34.916   6.395   9.824
 2031POPC   GL129893  34.864   6.474   9.326
 2031POPC   GL229894  34.688   6.773   9.152
 2031POPC   C1A29895  34.812   6.407   8.840
 2031POPC   D2A29896  34.909   6.519   8.380
 2031POPC   C3A29897  34.619   6.440   8.018
 2031POPC   C4A29898  34.664   6.385   7.561
 2031POPC   C1B29899  34.627   6.870   8.681
 2031POPC   C2B29900  34.456   6.881   8.240
 2031POPC   C3B29901  34.530   6.896   7.777
 2031POPC   C4B29902  34.351   7.065   7.385
 2032POPC   NC329903  26.740  23.477   9.405
 2032POPC   PO429904  27.253  23.948   9.484
 2032POPC   GL129905  26.956  23.872   9.112
 2032POPC   GL229906  26.593  23.905   9.131
 2032POPC   C1A29907  26.788  23.579   8.771
 2032POPC   D2A29908  26.931  23.431   8.391
 2032POPC   C3A29909  26.699  23.313   8.031
 2032POPC   C4A29910  27.006  23.385   7.689
 2032POPC   C1B29911  26.417  23.940   8.734
 2032POPC   C2B29912  26.653  23.893   8.366
 2032POPC   C3B29913  26.774  23.817   7.966
 2032POPC   C4B29914  26.785  24.036   7.586
 2033POPC   NC329915  44.688  29.626   9.580
 2033POPC   PO429916  44.937  30.277   9.638
 2033POPC   GL129917  44.932  29.980   9.290
 2033POPC   GL229918  44.596  29.975   9.111
 2033POPC   C1A29919   0.027  29.799   8.891
 2033POPC   D2A29920  44.954  29.599   8.499
 2033POPC   C3A29921  44.811  29.878   8.184
 2033POPC   C4A29922  44.847  29.846   7.752
 2033POPC   C1B29923  44.355  30.226   8.794
 2033POPC   C2B29924  44.123  30.243   8.387
 2033POPC   C3B29925  44.212  30.405   7.979
 2033POPC   C4B29926  44.307  30.448   7.556
 2034POPC   NC329927  24.737  23.283   9.344
 2034POPC   PO429928  24.632  23.869   9.565
 2034POPC   GL129929  24.533  23.837   9.152
 2034POPC   GL229930  24.237  24.037   9.117
 2034POPC   C1A29931  24.432  23.771   8.724
 2034POPC   D2A29932  24.262  23.624   8.359
 2034POPC   C3A29933  24.452  23.707   7.974
 2034POPC   C4A29934  24.361  23.528   7.582
 2034POPC   C1B29935  24.064  24.249   8.816
 2034POPC   C2B29936  24.000  24.045   8.467
 2034POPC   C3B29937  24.124  24.090   8.071
 2034POPC   C4B29938  24.223  24.028   7.634
 2035POPC   NC329939   1.475  13.312   9.681
 2035POPC   PO429940   1.090  13.808   9.515
 2035POPC   GL129941   1.146  13.600   9.136
 2035POPC   GL229942   1.432  13.394   9.178
 2035POPC   C1A29943   1.318  13.775   8.758
 2035POPC   D2A29944   1.394  14.029   8.384
 2035POPC   C3A29945   1.180  13.846   8.038
 2035POPC   C4A29946   1.455  13.772   7.710
 2035POPC   C1B29947   1.356  13.255   8.764
 2035POPC   C2B29948   1.184  13.388   8.357
 2035POPC   C3B29949   1.399  13.354   7.971
 2035POPC   C4B29950   1.307  13.214   7.552
 2036POPC   NC329951   3.459  17.882   9.922
 2036POPC   PO429952   3.602  17.348   9.560
 2036POPC   GL129953   3.579  17.224   9.141
 2036POPC   GL229954   3.260  17.230   9.137
 2036POPC   C1A29955   3.533  17.430   8.732
 2036POPC   D2A29956   3.839  17.590   8.444
 2036POPC   C3A29957   3.712  17.601   8.043
 2036POPC   C4A29958   3.730  17.496   7.636
 2036POPC   C1B29959   3.028  17.312   8.744
 2036POPC   C2B29960   3.186  17.418   8.316
 2036POPC   C3B29961   3.335  17.276   7.903
 2036POPC   C4B29962   3.298  17.316   7.430
 2037POPC   NC329963  17.566   2.809   9.533
 2037POPC   PO429964  18.204   2.580   9.517
 2037POPC   GL129965  18.370   2.618   9.111
 2037POPC   GL229966  18.385   2.970   9.056
 2037POPC   C1A29967  18.480   2.641   8.681
 2037POPC   D2A29968  18.461   2.918   8.322
 2037POPC   C3A29969  18.387   2.776   7.882
 2037POPC   C4A29970  18.452   3.075   7.513
 2037POPC   C1B29971  18.070   2.939   8.710
 2037POPC   C2B29972  17.967   2.759   8.280
 2037POPC   C3B29973  17.885   2.884   7.825
 2037POPC   C4B29974  17.983   2.912   7.368
 2038POPC   NC329975  19.249  34.812   9.798
 2038POPC   PO429976  18.721  34.486   9.550
 2038POPC   GL129977  18.882  34.438   9.193
 2038POPC   GL229978  18.668  34.704   9.028
 2038POPC   C1A29979  19.017  34.379   8.807
 2038POPC   D2A29980  18.934  34.513   8.418
 2038POPC   C3A29981  19.218  34.367   8.139
 2038POPC   C4A29982  19.191  34.281   7.699
 2038POPC   C1B29983  18.879  34.958   8.703
 2038POPC   C2B29984  18.821  34.990   8.251
 2038POPC   C3B29985  18.997  34.767   7.875
 2038POPC   C4B29986  18.952  34.929   7.438
 2039POPC   NC329987  30.057  10.262   9.412
 2039POPC   PO429988  29.642  10.744   9.671
 2039POPC   GL129989  29.540  10.633   9.237
 2039POPC   GL229990  29.864  10.573   9.081
 2039POPC   C1A29991  29.491  10.764   8.781
 2039POPC   D2A29992  29.707  10.931   8.413
 2039POPC   C3A29993  29.598  10.774   8.063
 2039POPC   C4A29994  29.548  10.730   7.673
 2039POPC   C1B29995  29.759  10.314   8.764
 2039POPC   C2B29996  29.874  10.442   8.367
 2039POPC   C3B29997  30.026  10.477   7.969
 2039POPC   C4B29998  30.237  10.224   7.665
 2040POPC   NC329999  40.737   6.128   9.549
 2040POPC   PO430000  40.800   5.581   9.272
 2040POPC   GL130001  40.814   5.969   9.053
 2040POPC   GL230002  40.467   6.084   9.129
 2040POPC   C1A30003  40.851   6.042   8.620
 2040POPC   D2A30004  40.585   5.895   8.288
 2040POPC   C3A30005  40.782   6.035   7.940
 2040POPC   C4A30006  41.091   6.287   7.872
 2040POPC   C1B30007  40.368   6.112   8.740
 2040POPC   C2B30008  40.262   6.283   8.377
 2040POPC   C3B30009  40.305   6.168   7.949
 2040POPC   C4B30010  40.367   6.108   7.535
 2041POPC   NC330011  37.254  37.286   9.497
 2041POPC   PO430012  36.646  37.039   9.558
 2041POPC   GL130013  36.730  36.840   9.190
 2041POPC   GL230014  36.910  37.134   9.093
 2041POPC   C1A30015  36.676  36.839   8.746
 2041POPC   D2A30016  36.774  37.089   8.369
 2041POPC   C3A30017  36.867  36.764   8.080
 2041POPC   C4A30018  36.822  36.778   7.657
 2041POPC   C1B30019  37.158  37.088   8.706
 2041POPC   C2B30020  37.277  36.996   8.256
 2041POPC   C3B30021  37.306  36.955   7.793
 2041POPC   C4B30022  37.558  37.011   7.389
 2042POPC   NC330023  10.685  11.821   9.559
 2042POPC   PO430024  10.066  12.131   9.597
 2042POPC   GL130025  10.340  12.044   9.269
 2042POPC   GL230026  10.374  12.404   9.217
 2042POPC   C1A30027  10.459  12.049   8.834
 2042POPC   D2A30028  10.797  12.138   8.540
 2042POPC   C3A30029  10.718  12.120   8.123
 2042POPC   C4A30030  10.495  11.992   7.782
 2042POPC   C1B30031  10.220  12.489   8.802
 2042POPC   C2B30032  10.319  12.340   8.370
 2042POPC   C3B30033  10.360  12.464   7.909
 2042POPC   C4B30034  10.475  12.365   7.409
 2043POPC   NC330035  22.091  19.187   9.695
 2043POPC   PO430036  22.608  18.990   9.607
 2043POPC   GL130037  22.361  19.042   9.203
 2043POPC   GL230038  21.989  19.011   9.177
 2043POPC   C1A30039  22.322  19.130   8.730
 2043POPC   D2A30040  22.181  18.939   8.320
 2043POPC   C3A30041  22.144  19.153   7.916
 2043POPC   C4A30042  22.286  18.996   7.503
 2043POPC   C1B30043  21.824  19.001   8.713
 2043POPC   C2B30044  21.688  19.058   8.253
 2043POPC   C3B30045  21.639  19.261   7.842
 2043POPC   C4B30046  21.943  19.416   7.526
 2044POPC   NC330047  27.674  27.826   9.563
 2044POPC   PO430048  27.588  27.181   9.482
 2044POPC   GL130049  27.814  27.313   9.110
 2044POPC   GL230050  27.807  27.657   9.066
 2044POPC   C1A30051  27.699  27.336   8.659
 2044POPC   D2A30052  27.898  27.434   8.275
 2044POPC   C3A30053  27.646  27.566   7.939
 2044POPC   C4A30054  27.195  27.448   7.840
 2044POPC   C1B30055  27.583  27.849   8.678
 2044POPC   C2B30056  27.326  27.919   8.260
 2044POPC   C3B30057  27.341  27.944   7.782
 2044POPC   C4B30058  27.638  27.829   7.457
 2045POPC   NC330059  12.638  19.095   9.631
 2045POPC   PO430060  13.308  18.920   9.690
 2045POPC   GL130061  13.036  19.016   9.271
 2045POPC   GL230062  12.772  18.828   9.219
 2045POPC   C1A30063  12.815  19.253   8.866
 2045POPC   D2A30064  12.645  19.467   8.459
 2045POPC   C3A30065  12.846  19.282   8.064
 2045POPC   C4A30066  12.662  19.220   7.653
 2045POPC   C1B30067  12.555  18.831   8.804
 2045POPC   C2B30068  12.635  18.964   8.399
 2045POPC   C3B30069  12.662  18.807   7.946
 2045POPC   C4B30070  12.655  18.728   7.479
 2046POPC   NC330071  14.972  14.145   9.501
 2046POPC   PO430072  15.080  13.547   9.407
 2046POPC   GL130073  15.184  13.648   9.008
 2046POPC   GL230074  15.218  13.980   9.095
 2046POPC   C1A30075  15.357  13.450   8.637
 2046POPC   D2A30076  15.170  13.320   8.277
 2046POPC   C3A30077  15.386  13.296   7.889
 2046POPC   C4A30078  15.188  13.493   7.547
 2046POPC   C1B30079  14.898  14.015   8.770
 2046POPC   C2B30080  14.952  13.774   8.412
 2046POPC   C3B30081  15.136  13.761   8.020
 2046POPC   C4B30082  15.058  13.962   7.661
 2047POPC   NC330083  21.915   1.012   9.701
 2047POPC   PO430084  22.276   1.493   9.470
 2047POPC   GL130085  22.223   1.097   9.264
 2047POPC   GL230086  21.886   1.059   9.146
 2047POPC   C1A30087  22.290   0.959   8.833
 2047POPC   D2A30088  22.145   1.022   8.401
 2047POPC   C3A30089  22.208   1.254   8.032
 2047POPC   C4A30090  22.396   1.109   7.672
 2047POPC   C1B30091  21.808   0.783   8.746
 2047POPC   C2B30092  21.713   0.804   8.299
 2047POPC   C3B30093  21.774   1.004   7.883
 2047POPC   C4B30094  21.736   0.905   7.414
 2048POPC   NC330095  40.920  10.076   9.535
 2048POPC   PO430096  40.574   9.491   9.461
 2048POPC   GL130097  40.671   9.837   9.183
 2048POPC   GL230098  40.994   9.738   9.147
 2048POPC   C1A30099  40.702   9.775   8.728
 2048POPC   D2A30100  40.813   9.422   8.456
 2048POPC   C3A30101  40.723   9.564   8.063
 2048POPC   C4A30102  40.819   9.849   7.772
 2048POPC   C1B30103  41.197   9.656   8.776
 2048POPC   C2B30104  41.115   9.809   8.350
 2048POPC   C3B30105  41.245   9.670   7.961
 2048POPC   C4B30106  41.494   9.816   7.628
 2049POPC   NC330107   5.541  13.903   9.450
 2049POPC   PO430108   5.857  13.246   9.372
 2049POPC   GL130109   5.604  13.439   9.112
 2049POPC   GL230110   5.513  13.106   8.992
 2049POPC   C1A30111   5.745  13.692   8.764
 2049POPC   D2A30112   5.617  13.759   8.337
 2049POPC   C3A30113   5.967  13.676   8.122
 2049POPC   C4A30114   6.004  13.824   7.736
 2049POPC   C1B30115   5.831  13.096   8.680
 2049POPC   C2B30116   6.034  13.077   8.277
 2049POPC   C3B30117   5.873  13.236   7.877
 2049POPC   C4B30118   5.542  13.577   7.820
 2050POPC   NC330119  22.507  13.817   9.310
 2050POPC   PO430120  22.212  14.421   9.348
 2050POPC   GL130121  21.974  14.291   9.052
 2050POPC   GL230122  21.919  13.955   9.202
 2050POPC   C1A30123  21.937  14.509   8.673
 2050POPC   D2A30124  22.274  14.577   8.411
 2050POPC   C3A30125  22.099  14.596   8.046
 2050POPC   C4A30126  22.281  14.580   7.694
 2050POPC   C1B30127  21.879  13.837   8.785
 2050POPC   C2B30128  21.793  14.053   8.403
 2050POPC   C3B30129  21.806  13.936   7.988
 2050POPC   C4B30130  22.124  14.072   7.710
 2051POPC   NC330131  11.700   9.691   9.485
 2051POPC   PO430132  12.352  10.034   9.414
 2051POPC   GL130133  12.067   9.843   9.132
 2051POPC   GL230134  11.760  10.069   9.160
 2051POPC   C1A30135  12.194   9.741   8.695
 2051POPC   D2A30136  12.273  10.037   8.335
 2051POPC   C3A30137  12.204   9.879   7.923
 2051POPC   C4A30138  11.853   9.666   7.773
 2051POPC   C1B30139  11.807  10.073   8.722
 2051POPC   C2B30140  11.681   9.937   8.314
 2051POPC   C3B30141  11.743  10.141   7.935
 2051POPC   C4B30142  11.910  10.119   7.527
 2052POPC   NC330143   4.217  28.857   9.600
 2052POPC   PO430144   4.363  28.173   9.510
 2052POPC   GL130145   4.347  28.509   9.248
 2052POPC   GL230146   4.667  28.713   9.356
 2052POPC   C1A30147   4.264  28.438   8.812
 2052POPC   D2A30148   4.239  28.156   8.490
 2052POPC   C3A30149   4.203  28.331   8.110
 2052POPC   C4A30150   4.322  28.368   7.715
 2052POPC   C1B30151   4.586  28.802   8.923
 2052POPC   C2B30152   4.640  28.680   8.499
 2052POPC   C3B30153   4.539  28.708   8.077
 2052POPC   C4B30154   4.746  28.728   7.705
 2053POPC   NC330155  32.513   2.351   9.584
 2053POPC   PO430156  32.170   1.789   9.600
 2053POPC   GL130157  32.341   2.000   9.240
 2053POPC   GL230158  32.107   2.286   9.238
 2053POPC   C1A30159  32.530   1.884   8.838
 2053POPC   D2A30160  32.368   1.771   8.435
 2053POPC   C3A30161  32.176   2.018   8.109
 2053POPC   C4A30162  32.251   1.762   7.742
 2053POPC   C1B30163  32.442   2.389   8.927
 2053POPC   C2B30164  32.452   2.365   8.487
 2053POPC   C3B30165  32.364   2.518   8.085
 2053POPC   C4B30166  32.396   2.270   7.726
 2054POPC   NC330167  24.574  15.912   9.615
 2054POPC   PO430168  24.442  16.375   9.217
 2054POPC   GL130169  24.211  16.029   9.060
 2054POPC   GL230170  24.414  15.733   9.129
 2054POPC   C1A30171  24.238  15.982   8.633
 2054POPC   D2A30172  24.648  16.211   8.445
 2054POPC   C3A30173  24.649  16.338   7.996
 2054POPC   C4A30174  24.441  16.126   7.669
 2054POPC   C1B30175  24.654  15.727   8.717
 2054POPC   C2B30176  24.498  15.765   8.253
 2054POPC   C3B30177  24.787  15.829   7.923
 2054POPC   C4B30178  24.816  15.573   7.592
 2055POPC   NC330179  20.308  12.994   9.362
 2055POPC   PO430180  20.773  12.589   9.445
 2055POPC   GL130181  20.634  12.690   9.108
 2055POPC   GL230182  20.334  12.499   9.157
 2055POPC   C1A30183  20.715  12.972   8.780
 2055POPC   D2A30184  20.980  12.964   8.419
 2055POPC   C3A30185  20.984  13.191   7.999
 2055POPC   C4A30186  20.682  13.197   7.682
 2055POPC   C1B30187  20.461  12.382   8.759
 2055POPC   C2B30188  20.581  12.615   8.428
 2055POPC   C3B30189  20.613  12.826   8.057
 2055POPC   C4B30190  20.543  12.696   7.653
 2056POPC   NC330191   0.567   4.004   9.565
 2056POPC   PO430192   0.380   4.628   9.569
 2056POPC   GL130193   0.316   4.361   9.225
 2056POPC   GL230194   0.099   4.072   9.330
 2056POPC   C1A30195   0.486   4.336   8.778
 2056POPC   D2A30196   0.346   4.555   8.401
 2056POPC   C3A30197   0.411   4.369   7.984
 2056POPC   C4A30198   0.372   4.353   7.537
 2056POPC   C1B30199   0.064   4.066   8.862
 2056POPC   C2B30200   0.262   4.043   8.416
 2056POPC   C3B30201   0.315   3.873   7.969
 2056POPC   C4B30202   0.638   3.945   7.636
 2057POPC   NC330203  38.145  31.940   9.553
 2057POPC   PO430204  37.382  31.996   9.383
 2057POPC   GL130205  37.745  32.161   9.129
 2057POPC   GL230206  38.058  31.957   9.064
 2057POPC   C1A30207  37.670  32.408   8.753
 2057POPC   D2A30208  37.783  32.411   8.334
 2057POPC   C3A30209  37.429  32.344   8.057
 2057POPC   C4A30210  37.610  32.534   7.709
 2057POPC   C1B30211  37.924  31.952   8.667
 2057POPC   C2B30212  37.889  31.898   8.243
 2057POPC   C3B30213  37.875  32.119   7.887
 2057POPC   C4B30214  37.859  31.848   7.565
 2058POPC   NC330215  13.243  11.955   9.345
 2058POPC   PO430216  13.666  12.277   9.741
 2058POPC   GL130217  13.797  12.090   9.255
 2058POPC   GL230218  13.549  12.172   9.002
 2058POPC   C1A30219  13.847  11.832   8.779
 2058POPC   D2A30220  13.576  11.785   8.348
 2058POPC   C3A30221  13.738  11.826   7.900
 2058POPC   C4A30222  13.765  11.838   7.411
 2058POPC   C1B30223  13.814  12.320   8.682
 2058POPC   C2B30224  13.783  12.252   8.251
 2058POPC   C3B30225  13.414  12.205   8.042
 2058POPC   C4B30226  13.237  12.518   7.787
 2059POPC   NC330227  22.631  13.266   9.764
 2059POPC   PO430228  22.936  13.743   9.475
 2059POPC   GL130229  23.061  13.687   9.101
 2059POPC   GL230230  23.055  13.329   9.100
 2059POPC   C1A30231  22.831  13.635   8.724
 2059POPC   D2A30232  22.616  13.718   8.328
 2059POPC   C3A30233  22.937  13.637   8.011
 2059POPC   C4A30234  22.988  13.395   7.620
 2059POPC   C1B30235  23.340  13.445   8.759
 2059POPC   C2B30236  23.300  13.472   8.342
 2059POPC   C3B30237  23.187  13.165   8.033
 2059POPC   C4B30238  23.436  13.104   7.691
 2060POPC   NC330239   4.504  32.436   9.410
 2060POPC   PO430240   4.259  31.833   9.526
 2060POPC   GL130241   4.435  31.997   9.163
 2060POPC   GL230242   4.130  32.192   9.135
 2060POPC   C1A30243   4.490  32.191   8.758
 2060POPC   D2A30244   4.621  32.140   8.330
 2060POPC   C3A30245   4.349  32.232   7.934
 2060POPC   C4A30246   4.538  31.959   7.562
 2060POPC   C1B30247   4.043  32.458   8.789
 2060POPC   C2B30248   4.027  32.503   8.340
 2060POPC   C3B30249   3.860  32.585   7.914
 2060POPC   C4B30250   4.093  32.538   7.569
 2061POPC   NC330251  14.409  35.810   9.350
 2061POPC   PO430252  14.690  36.381   9.445
 2061POPC   GL130253  14.370  36.278   9.129
 2061POPC   GL230254  14.083  36.534   9.132
 2061POPC   C1A30255  14.453  36.028   8.738
 2061POPC   D2A30256  14.608  35.841   8.348
 2061POPC   C3A30257  14.493  36.027   7.964
 2061POPC   C4A30258  14.771  36.200   7.696
 2061POPC   C1B30259  14.056  36.379   8.720
 2061POPC   C2B30260  14.017  36.500   8.325
 2061POPC   C3B30261  13.989  36.346   7.940
 2061POPC   C4B30262  14.220  36.244   7.584
 2062POPC   NC330263  10.592  39.522   9.615
 2062POPC   PO430264  10.350  40.137   9.552
 2062POPC   GL130265  10.447  39.865   9.236
 2062POPC   GL230266  10.719  39.982   9.137
 2062POPC   C1A30267  10.361  39.978   8.793
 2062POPC   D2A30268  10.333  39.738   8.443
 2062POPC   C3A30269  10.348  40.013   8.106
 2062POPC   C4A30270  10.244  39.935   7.709
 2062POPC   C1B30271  10.972  39.827   8.812
 2062POPC   C2B30272  10.829  39.892   8.409
 2062POPC   C3B30273  10.856  40.179   8.084
 2062POPC   C4B30274  10.691  40.158   7.673
 2063POPC   NC330275  33.710  30.358   9.563
 2063POPC   PO430276  34.278  30.711   9.499
 2063POPC   GL130277  34.019  30.847   9.166
 2063POPC   GL230278  33.663  30.714   9.201
 2063POPC   C1A30279  34.035  30.677   8.756
 2063POPC   D2A30280  33.922  30.437   8.397
 2063POPC   C3A30281  34.107  30.655   8.087
 2063POPC   C4A30282  34.028  30.801   7.712
 2063POPC   C1B30283  33.534  30.549   8.800
 2063POPC   C2B30284  33.507  30.757   8.399
 2063POPC   C3B30285  33.613  30.715   7.980
 2063POPC   C4B30286  33.585  30.675   7.491
 2064POPC   NC330287  11.928  12.484   9.474
 2064POPC   PO430288  11.924  11.852   9.403
 2064POPC   GL130289  12.063  12.137   9.107
 2064POPC   GL230290  11.933  12.473   8.970
 2064POPC   C1A30291  12.189  12.100   8.727
 2064POPC   D2A30292  12.230  11.853   8.391
 2064POPC   C3A30293  12.388  12.080   8.073
 2064POPC   C4A30294  12.182  12.066   7.711
 2064POPC   C1B30295  11.660  12.365   8.713
 2064POPC   C2B30296  11.809  12.156   8.393
 2064POPC   C3B30297  11.845  11.967   8.064
 2064POPC   C4B30298  11.623  12.118   7.717
 2065POPC   NC330299  21.013  14.440   9.520
 2065POPC   PO430300  20.554  13.974   9.306
 2065POPC   GL130301  20.772  14.303   9.092
 2065POPC   GL230302  21.058  14.127   9.100
 2065POPC   C1A30303  20.635  14.562   8.743
 2065POPC   D2A30304  20.292  14.420   8.504
 2065POPC   C3A30305  20.338  14.400   8.087
 2065POPC   C4A30306  20.637  14.536   7.788
 2065POPC   C1B30307  21.037  14.231   8.676
 2065POPC   C2B30308  20.765  14.232   8.351
 2065POPC   C3B30309  20.835  14.081   7.977
 2065POPC   C4B30310  20.919  14.208   7.542
 2066POPC   NC330311  22.987  32.366   9.397
 2066POPC   PO430312  22.795  32.892   9.483
 2066POPC   GL130313  22.743  32.972   9.057
 2066POPC   GL230314  23.006  32.735   9.012
 2066POPC   C1A30315  22.685  33.168   8.637
 2066POPC   D2A30316  22.550  33.345   8.213
 2066POPC   C3A30317  22.635  33.075   7.828
 2066POPC   C4A30318  22.779  32.623   7.775
 2066POPC   C1B30319  22.809  32.664   8.621
 2066POPC   C2B30320  22.851  32.871   8.236
 2066POPC   C3B30321  23.195  32.875   7.946
 2066POPC   C4B30322  23.430  32.503   7.774
 2067POPC   NC330323   3.405  31.123   9.740
 2067POPC   PO430324   3.320  30.478   9.489
 2067POPC   GL130325   3.220  30.488   9.073
 2067POPC   GL230326   3.577  30.530   8.968
 2067POPC   C1A30327   3.214  30.653   8.656
 2067POPC   D2A30328   3.571  30.662   8.373
 2067POPC   C3A30329   3.391  30.645   8.021
 2067POPC   C4A30330   3.359  30.451   7.641
 2067POPC   C1B30331   3.617  30.988   8.736
 2067POPC   C2B30332   3.526  31.229   8.380
 2067POPC   C3B30333   3.692  31.069   8.014
 2067POPC   C4B30334   3.593  30.896   7.630
 2068POPC   NC330335  13.541  44.301   9.793
 2068POPC   PO430336  13.736  44.887   9.468
 2068POPC   GL130337  13.616  44.657   9.071
 2068POPC   GL230338  13.297  44.574   9.008
 2068POPC   C1A30339  13.745  44.521   8.677
 2068POPC   D2A30340  13.707  44.664   8.261
 2068POPC   C3A30341  13.847  44.436   7.920
 2068POPC   C4A30342  13.703  44.376   7.497
 2068POPC   C1B30343  13.243  44.428   8.628
 2068POPC   C2B30344  13.202  44.609   8.257
 2068POPC   C3B30345  13.353  44.495   7.880
 2068POPC   C4B30346  13.169  44.309   7.563
 2069POPC   NC330347   9.989  17.170   9.485
 2069POPC   PO430348   9.536  17.704   9.461
 2069POPC   GL130349   9.638  17.396   9.168
 2069POPC   GL230350   9.403  17.176   9.088
 2069POPC   C1A30351   9.701  17.550   8.762
 2069POPC   D2A30352   9.802  17.866   8.482
 2069POPC   C3A30353   9.720  17.727   8.091
 2069POPC   C4A30354   9.848  17.785   7.693
 2069POPC   C1B30355   9.425  17.130   8.676
 2069POPC   C2B30356   9.291  17.001   8.311
 2069POPC   C3B30357   9.344  17.237   7.945
 2069POPC   C4B30358   9.720  17.289   7.731
 2070POPC   NC330359   0.359  10.942   9.484
 2070POPC   PO430360   0.790  11.468   9.593
 2070POPC   GL130361   0.530  11.340   9.236
 2070POPC   GL230362   0.675  11.084   9.107
 2070POPC   C1A30363   0.454  11.445   8.784
 2070POPC   D2A30364   0.269  11.611   8.367
 2070POPC   C3A30365   0.430  11.552   7.936
 2070POPC   C4A30366   0.360  11.618   7.469
 2070POPC   C1B30367   0.378  10.931   8.819
 2070POPC   C2B30368   0.187  11.114   8.447
 2070POPC   C3B30369   0.125  11.019   8.023
 2070POPC   C4B30370   0.420  11.090   7.690
 2071POPC   NC330371  26.483  43.310  10.294
 2071POPC   PO430372  26.488  43.031   9.759
 2071POPC   GL130373  26.789  43.022   9.379
 2071POPC   GL230374  26.854  43.297   9.119
 2071POPC   C1A30375  26.834  42.787   8.982
 2071POPC   D2A30376  26.684  42.724   8.553
 2071POPC   C3A30377  26.939  42.947   8.248
 2071POPC   C4A30378  26.857  43.059   7.807
 2071POPC   C1B30379  26.748  43.235   8.660
 2071POPC   C2B30380  26.666  43.375   8.214
 2071POPC   C3B30381  26.818  43.568   7.820
 2071POPC   C4B30382  26.795  43.446   7.366
 2072POPC   NC330383   3.611  37.274   9.558
 2072POPC   PO430384   3.331  36.605   9.356
 2072POPC   GL130385   3.688  36.785   9.116
 2072POPC   GL230386   3.768  37.167   9.102
 2072POPC   C1A30387   3.663  36.907   8.688
 2072POPC   D2A30388   3.484  37.083   8.337
 2072POPC   C3A30389   3.590  36.860   7.976
 2072POPC   C4A30390   3.560  36.571   7.630
 2072POPC   C1B30391   3.310  37.188   8.943
 2072POPC   C2B30392   3.140  37.411   8.556
 2072POPC   C3B30393   3.218  37.464   8.139
 2072POPC   C4B30394   3.250  37.187   7.774
 2073POPC   NC330395  32.388  15.568   9.411
 2073POPC   PO430396  32.074  16.066   9.525
 2073POPC   GL130397  32.086  15.880   9.138
 2073POPC   GL230398  32.427  15.972   9.095
 2073POPC   C1A30399  31.953  15.920   8.715
 2073POPC   D2A30400  31.846  16.164   8.381
 2073POPC   C3A30401  31.775  15.898   8.082
 2073POPC   C4A30402  31.968  15.622   7.759
 2073POPC   C1B30403  32.227  16.324   8.911
 2073POPC   C2B30404  32.299  16.323   8.495
 2073POPC   C3B30405  32.468  16.104   8.161
 2073POPC   C4B30406  32.268  16.029   7.787
 2074POPC   NC330407  28.048  36.665   9.859
 2074POPC   PO430408  27.403  36.847   9.518
 2074POPC   GL130409  27.574  36.864   9.127
 2074POPC   GL230410  27.861  37.051   9.158
 2074POPC   C1A30411  27.693  36.734   8.740
 2074POPC   D2A30412  27.561  36.883   8.369
 2074POPC   C3A30413  27.655  36.600   8.073
 2074POPC   C4A30414  27.725  36.702   7.669
 2074POPC   C1B30415  27.800  37.211   8.783
 2074POPC   C2B30416  28.032  37.151   8.444
 2074POPC   C3B30417  27.925  37.066   8.012
 2074POPC   C4B30418  27.852  37.296   7.641
 2075POPC   NC330419  10.924   9.529   9.520
 2075POPC   PO430420  11.370  10.013   9.494
 2075POPC   GL130421  11.269   9.773   9.147
 2075POPC   GL230422  10.899   9.716   9.054
 2075POPC   C1A30423  11.471   9.687   8.759
 2075POPC   D2A30424  11.358   9.482   8.387
 2075POPC   C3A30425  11.370   9.622   7.959
 2075POPC   C4A30426  11.440   9.922   7.615
 2075POPC   C1B30427  11.033   9.939   8.710
 2075POPC   C2B30428  11.152   9.957   8.287
 2075POPC   C3B30429  10.996   9.973   7.869
 2075POPC   C4B30430  10.646   9.907   7.621
 2076POPC   NC330431   7.566  17.147   9.473
 2076POPC   PO430432   7.671  16.487   9.362
 2076POPC   GL130433   7.295  16.606   9.127
 2076POPC   GL230434   7.203  16.960   9.157
 2076POPC   C1A30435   7.383  16.597   8.708
 2076POPC   D2A30436   7.557  16.350   8.408
 2076POPC   C3A30437   7.506  16.524   8.020
 2076POPC   C4A30438   7.676  16.605   7.615
 2076POPC   C1B30439   7.384  17.107   8.765
 2076POPC   C2B30440   7.313  16.942   8.345
 2076POPC   C3B30441   7.500  17.033   7.943
 2076POPC   C4B30442   7.529  17.074   7.486
 2077POPC   NC330443   2.000  41.949   9.493
 2077POPC   PO430444   1.598  42.534   9.513
 2077POPC   GL130445   1.908  42.434   9.167
 2077POPC   GL230446   2.159  42.146   9.049
 2077POPC   C1A30447   2.011  42.515   8.730
 2077POPC   D2A30448   2.249  42.400   8.363
 2077POPC   C3A30449   1.992  42.517   8.013
 2077POPC   C4A30450   1.929  42.152   7.755
 2077POPC   C1B30451   2.495  42.039   8.698
 2077POPC   C2B30452   2.607  42.034   8.244
 2077POPC   C3B30453   2.416  41.875   7.856
 2077POPC   C4B30454   2.288  41.950   7.415
 2078POPC   NC330455   7.659  17.788   9.582
 2078POPC   PO430456   7.147  17.356   9.488
 2078POPC   GL130457   7.372  17.486   9.140
 2078POPC   GL230458   7.310  17.806   9.183
 2078POPC   C1A30459   7.486  17.648   8.724
 2078POPC   D2A30460   7.527  17.417   8.351
 2078POPC   C3A30461   7.172  17.372   8.131
 2078POPC   C4A30462   7.231  17.407   7.719
 2078POPC   C1B30463   6.999  17.708   8.828
 2078POPC   C2B30464   7.105  17.831   8.381
 2078POPC   C3B30465   7.389  17.823   8.019
 2078POPC   C4B30466   7.224  17.898   7.612
 2079POPC   NC330467  42.604   8.351   9.537
 2079POPC   PO430468  42.107   7.901   9.495
 2079POPC   GL130469  42.202   8.191   9.168
 2079POPC   GL230470  42.515   8.052   9.140
 2079POPC   C1A30471  42.225   8.198   8.713
 2079POPC   D2A30472  42.451   8.304   8.327
 2079POPC   C3A30473  42.240   8.270   7.956
 2079POPC   C4A30474  42.352   8.282   7.542
 2079POPC   C1B30475  42.539   7.806   8.804
 2079POPC   C2B30476  42.588   7.748   8.369
 2079POPC   C3B30477  42.626   7.898   7.965
 2079POPC   C4B30478  42.767   8.005   7.544
 2080POPC   NC330479  44.880  28.856   9.825
 2080POPC   PO430480  44.349  28.905   9.359
 2080POPC   GL130481  44.458  28.549   9.047
 2080POPC   GL230482  44.725  28.287   9.156
 2080POPC   C1A30483  44.765  28.600   8.699
 2080POPC   D2A30484  44.828  28.398   8.316
 2080POPC   C3A30485  44.481  28.365   8.025
 2080POPC   C4A30486  44.466  28.287   7.564
 2080POPC   C1B30487  44.750  28.089   8.742
 2080POPC   C2B30488  44.774  27.900   8.316
 2080POPC   C3B30489  44.817  27.994   7.868
 2080POPC   C4B30490  44.676  27.814   7.451
 2081POPC   NC330491  24.008  16.480   9.297
 2081POPC   PO430492  23.720  17.010   9.494
 2081POPC   GL130493  23.759  16.891   9.084
 2081POPC   GL230494  23.544  16.630   9.041
 2081POPC   C1A30495  23.854  16.800   8.683
 2081POPC   D2A30496  23.925  16.675   8.291
 2081POPC   C3A30497  23.898  16.933   7.954
 2081POPC   C4A30498  23.492  17.045   7.835
 2081POPC   C1B30499  23.408  16.519   8.620
 2081POPC   C2B30500  23.431  16.723   8.257
 2081POPC   C3B30501  23.568  16.537   7.929
 2081POPC   C4B30502  23.665  16.200   7.731
 2082POPC   NC330503  10.906   2.650   9.345
 2082POPC   PO430504  11.404   3.021   9.437
 2082POPC   GL130505  11.286   2.825   9.054
 2082POPC   GL230506  11.404   2.501   9.089
 2082POPC   C1A30507  11.426   2.739   8.642
 2082POPC   D2A30508  11.534   2.972   8.314
 2082POPC   C3A30509  11.368   2.816   7.972
 2082POPC   C4A30510  11.484   2.968   7.604
 2082POPC   C1B30511  11.143   2.328   8.742
 2082POPC   C2B30512  11.089   2.486   8.354
 2082POPC   C3B30513  11.034   2.384   7.982
 2082POPC   C4B30514  10.914   2.696   7.691
 2083POPC   NC330515  14.851  41.438   9.670
 2083POPC   PO430516  15.125  41.973   9.342
 2083POPC   GL130517  15.032  41.944   8.937
 2083POPC   GL230518  15.049  41.565   8.923
 2083POPC   C1A30519  15.179  41.876   8.536
 2083POPC   D2A30520  15.023  41.596   8.250
 2083POPC   C3A30521  15.136  41.698   7.899
 2083POPC   C4A30522  15.466  41.535   7.687
 2083POPC   C1B30523  14.939  41.301   8.651
 2083POPC   C2B30524  15.146  41.076   8.341
 2083POPC   C3B30525  15.191  41.158   7.908
 2083POPC   C4B30526  14.848  41.357   7.655
 2084POPC   NC330527  24.139   6.902   9.556
 2084POPC   PO430528  24.650   6.495   9.715
 2084POPC   GL130529  24.367   6.636   9.214
 2084POPC   GL230530  24.638   6.801   8.963
 2084POPC   C1A30531  24.245   6.501   8.756
 2084POPC   D2A30532  24.071   6.534   8.299
 2084POPC   C3A30533  24.338   6.516   7.932
 2084POPC   C4A30534  24.337   6.707   7.512
 2084POPC   C1B30535  24.488   6.992   8.668
 2084POPC   C2B30536  24.539   7.170   8.289
 2084POPC   C3B30537  24.611   6.939   7.915
 2084POPC   C4B30538  24.841   6.515   7.808
 2085POPC   NC330539  15.902  40.269   9.695
 2085POPC   PO430540  15.708  39.574   9.598
 2085POPC   GL130541  15.787  39.917   9.243
 2085POPC   GL230542  15.852  40.302   9.192
 2085POPC   C1A30543  16.040  39.934   8.846
 2085POPC   D2A30544  15.840  39.876   8.434
 2085POPC   C3A30545  16.058  40.048   8.077
 2085POPC   C4A30546  16.145  39.797   7.740
 2085POPC   C1B30547  15.661  40.267   8.784
 2085POPC   C2B30548  15.469  40.218   8.373
 2085POPC   C3B30549  15.554  40.052   7.959
 2085POPC   C4B30550  15.754  40.333   7.716
 2086POPC   NC330551  42.128   0.150   9.664
 2086POPC   PO430552  42.645   0.644   9.625
 2086POPC   GL130553  42.544   0.544   9.209
 2086POPC   GL230554  42.165   0.581   9.230
 2086POPC   C1A30555  42.597   0.706   8.763
 2086POPC   D2A30556  42.817   0.745   8.337
 2086POPC   C3A30557  42.572   0.563   8.038
 2086POPC   C4A30558  42.281   0.296   7.857
 2086POPC   C1B30559  42.249   0.328   8.839
 2086POPC   C2B30560  42.233   0.130   8.406
 2086POPC   C3B30561  41.939  44.959   8.110
 2086POPC   C4B30562  41.861   0.076   7.694
 2087POPC   NC330563  21.130  38.916   9.520
 2087POPC   PO430564  21.516  39.481   9.508
 2087POPC   GL130565  21.568  39.334   9.123
 2087POPC   GL230566  21.530  38.994   9.161
 2087POPC   C1A30567  21.440  39.560   8.776
 2087POPC   D2A30568  21.151  39.562   8.440
 2087POPC   C3A30569  21.353  39.395   8.070
 2087POPC   C4A30570  21.169  39.455   7.684
 2087POPC   C1B30571  21.216  39.097   8.819
 2087POPC   C2B30572  21.084  39.036   8.377
 2087POPC   C3B30573  21.075  38.936   7.914
 2087POPC   C4B30574  21.357  38.978   7.574
 2088POPC   NC330575  40.987  28.030   9.669
 2088POPC   PO430576  40.879  28.582   9.623
 2088POPC   GL130577  40.773  28.570   9.150
 2088POPC   GL230578  40.525  28.808   8.985
 2088POPC   C1A30579  40.894  28.643   8.696
 2088POPC   D2A30580  40.907  28.733   8.227
 2088POPC   C3A30581  40.877  28.374   7.927
 2088POPC   C4A30582  41.118  27.994   7.830
 2088POPC   C1B30583  40.395  28.385   8.844
 2088POPC   C2B30584  40.200  28.240   8.440
 2088POPC   C3B30585  40.361  28.397   8.020
 2088POPC   C4B30586  40.496  28.379   7.561
 2089POPC   NC330587  26.704  11.642   9.523
 2089POPC   PO430588  26.591  11.010   9.292
 2089POPC   GL130589  26.811  11.306   9.046
 2089POPC   GL230590  26.943  11.662   9.076
 2089POPC   C1A30591  26.756  11.187   8.611
 2089POPC   D2A30592  26.628  10.886   8.278
 2089POPC   C3A30593  26.856  11.060   7.939
 2089POPC   C4A30594  27.119  11.365   7.737
 2089POPC   C1B30595  26.591  11.690   8.764
 2089POPC   C2B30596  26.388  11.649   8.386
 2089POPC   C3B30597  26.570  11.532   8.001
 2089POPC   C4B30598  26.627  11.532   7.570
 2090POPC   NC330599  39.115  44.193   9.269
 2090POPC   PO430600  39.431  44.739   9.502
 2090POPC   GL130601  39.261  44.693   9.113
 2090POPC   GL230602  39.491  44.452   9.042
 2090POPC   C1A30603  39.224  44.771   8.669
 2090POPC   D2A30604  39.094  44.478   8.332
 2090POPC   C3A30605  39.042  44.664   7.973
 2090POPC   C4A30606  39.220  44.811   7.589
 2090POPC   C1B30607  39.431  44.295   8.661
 2090POPC   C2B30608  39.615  44.561   8.378
 2090POPC   C3B30609  39.547  44.760   8.022
 2090POPC   C4B30610  39.435  44.380   7.806
 2091POPC   NC330611  33.996  44.345   9.611
 2091POPC   PO430612  33.547  44.848   9.679
 2091POPC   GL130613  33.820  44.756   9.318
 2091POPC   GL230614  33.678  44.431   9.198
 2091POPC   C1A30615  34.096  44.963   8.989
 2091POPC   D2A30616  34.021   0.063   8.548
 2091POPC   C3A30617  34.193  44.917   8.150
 2091POPC   C4A30618  33.967  44.837   7.738
 2091POPC   C1B30619  33.701  44.704   8.804
 2091POPC   C2B30620  33.905  44.590   8.413
 2091POPC   C3B30621  33.895  44.406   8.001
 2091POPC   C4B30622  33.502  44.457   7.780
 2092POPC   NC330623  37.113  24.213   9.471
 2092POPC   PO430624  37.413  24.770   9.520
 2092POPC   GL130625  37.172  24.691   9.111
 2092POPC   GL230626  36.899  24.438   9.065
 2092POPC   C1A30627  36.986  24.759   8.660
 2092POPC   D2A30628  36.801  24.685   8.224
 2092POPC   C3A30629  37.108  24.592   7.880
 2092POPC   C4A30630  37.278  24.833   7.512
 2092POPC   C1B30631  36.802  24.256   8.642
 2092POPC   C2B30632  36.812  24.179   8.165
 2092POPC   C3B30633  36.657  24.386   7.811
 2092POPC   C4B30634  36.505  24.179   7.432
 2093POPC   NC330635  21.081  16.043   9.578
 2093POPC   PO430636  21.647  15.753   9.645
 2093POPC   GL130637  21.601  15.816   9.181
 2093POPC   GL230638  21.255  15.742   9.141
 2093POPC   C1A30639  21.511  15.787   8.681
 2093POPC   D2A30640  21.577  16.036   8.258
 2093POPC   C3A30641  21.446  15.873   7.834
 2093POPC   C4A30642  21.723  15.732   7.448
 2093POPC   C1B30643  21.000  15.771   8.761
 2093POPC   C2B30644  21.113  15.851   8.306
 2093POPC   C3B30645  20.927  15.795   7.889
 2093POPC   C4B30646  20.926  15.758   7.439
 2094POPC   NC330647  10.450  34.916   9.425
 2094POPC   PO430648  10.574  35.673   9.496
 2094POPC   GL130649  10.561  35.507   9.092
 2094POPC   GL230650  10.187  35.574   9.151
 2094POPC   C1A30651  10.780  35.442   8.663
 2094POPC   D2A30652  10.809  35.368   8.180
 2094POPC   C3A30653  10.542  35.016   7.969
 2094POPC   C4A30654  10.530  34.954   7.495
 2094POPC   C1B30655  10.184  35.265   8.837
 2094POPC   C2B30656  10.352  35.284   8.441
 2094POPC   C3B30657  10.305  35.457   8.065
 2094POPC   C4B30658  10.180  35.277   7.674
 2095POPC   NC330659  13.334  33.675   9.336
 2095POPC   PO430660  13.923  33.990   9.475
 2095POPC   GL130661  13.705  34.003   9.062
 2095POPC   GL230662  13.341  34.005   8.941
 2095POPC   C1A30663  13.766  34.111   8.628
 2095POPC   D2A30664  13.952  33.942   8.287
 2095POPC   C3A30665  13.695  33.739   7.998
 2095POPC   C4A30666  13.786  33.690   7.609
 2095POPC   C1B30667  13.491  33.665   8.659
 2095POPC   C2B30668  13.312  33.471   8.250
 2095POPC   C3B30669  13.212  33.670   7.827
 2095POPC   C4B30670  13.356  33.555   7.419
 2096POPC   NC330671  26.467  14.123   9.311
 2096POPC   PO430672  25.834  14.308   9.508
 2096POPC   GL130673  25.854  14.502   9.115
 2096POPC   GL230674  26.200  14.667   9.205
 2096POPC   C1A30675  25.689  14.418   8.670
 2096POPC   D2A30676  25.618  14.333   8.209
 2096POPC   C3A30677  25.996  14.277   7.952
 2096POPC   C4A30678  26.218  13.983   7.662
 2096POPC   C1B30679  26.140  14.779   8.766
 2096POPC   C2B30680  26.295  14.709   8.349
 2096POPC   C3B30681  26.242  14.743   7.918
 2096POPC   C4B30682  26.288  14.482   7.561
 2097POPC   NC330683  32.489  41.799   9.597
 2097POPC   PO430684  31.998  41.365   9.682
 2097POPC   GL130685  32.106  41.629   9.296
 2097POPC   GL230686  31.841  41.680   9.114
 2097POPC   C1A30687  32.331  41.620   8.866
 2097POPC   D2A30688  32.597  41.844   8.534
 2097POPC   C3A30689  32.500  41.769   8.071
 2097POPC   C4A30690  32.456  41.549   7.648
 2097POPC   C1B30691  31.827  41.574   8.692
 2097POPC   C2B30692  32.111  41.620   8.388
 2097POPC   C3B30693  32.126  41.419   8.009
 2097POPC   C4B30694  32.040  41.236   7.614
 2098POPC   NC330695  23.539  10.365   9.625
 2098POPC   PO430696  23.918   9.826   9.556
 2098POPC   GL130697  23.617   9.833   9.238
 2098POPC   GL230698  23.750   9.571   9.086
 2098POPC   C1A30699  23.660   9.990   8.796
 2098POPC   D2A30700  23.665   9.753   8.426
 2098POPC   C3A30701  23.718   9.875   8.003
 2098POPC   C4A30702  23.582   9.941   7.575
 2098POPC   C1B30703  23.387   9.548   8.824
 2098POPC   C2B30704  23.450   9.307   8.440
 2098POPC   C3B30705  23.691   9.363   8.080
 2098POPC   C4B30706  23.786   9.486   7.663
 2099POPC   NC330707   4.680   0.871   9.623
 2099POPC   PO430708   5.162   0.321   9.720
 2099POPC   GL130709   5.127   0.621   9.351
 2099POPC   GL230710   5.135   0.292   9.122
 2099POPC   C1A30711   5.152   0.744   8.910
 2099POPC   D2A30712   5.209   0.464   8.569
 2099POPC   C3A30713   5.151   0.637   8.160
 2099POPC   C4A30714   5.175   0.515   7.752
 2099POPC   C1B30715   4.870   0.050   8.795
 2099POPC   C2B30716   4.672   0.223   8.393
 2099POPC   C3B30717   4.803   0.232   7.949
 2099POPC   C4B30718   4.927   0.134   7.506
 2100POPC   NC330719  13.413  19.373   9.782
 2100POPC   PO430720  13.374  19.835   9.291
 2100POPC   GL130721  13.420  20.043   8.940
 2100POPC   GL230722  13.762  20.041   9.029
 2100POPC   C1A30723  13.433  19.972   8.493
 2100POPC   D2A30724  13.641  19.611   8.284
 2100POPC   C3A30725  13.386  19.480   7.943
 2100POPC   C4A30726  13.252  19.856   7.737
 2100POPC   C1B30727  13.908  19.872   8.669
 2100POPC   C2B30728  13.916  20.029   8.261
 2100POPC   C3B30729  13.774  19.885   7.858
 2100POPC   C4B30730  13.798  20.075   7.442
 2101POPC   NC330731  13.946  44.431   9.369
 2101POPC   PO430732  14.552  44.784   9.572
 2101POPC   GL130733  14.390  44.669   9.162
 2101POPC   GL230734  14.094  44.855   9.081
 2101POPC   C1A30735  14.251  44.401   8.789
 2101POPC   D2A30736  14.101  44.301   8.354
 2101POPC   C3A30737  14.349  44.473   8.002
 2101POPC   C4A30738  14.481  44.904   7.924
 2101POPC   C1B30739  13.899   0.011   8.717
 2101POPC   C2B30740  13.806   0.145   8.291
 2101POPC   C3B30741  13.981  44.964   7.908
 2101POPC   C4B30742  14.148  44.669   7.584
 2102POPC   NC330743  13.444   0.261   9.494
 2102POPC   PO430744  14.017   0.623   9.474
 2102POPC   GL130745  13.823   0.345   9.125
 2102POPC   GL230746  13.504   0.143   9.020
 2102POPC   C1A30747  13.713   0.487   8.703
 2102POPC   D2A30748  13.872   0.649   8.327
 2102POPC   C3A30749  13.606   0.510   8.003
 2102POPC   C4A30750  13.855   0.493   7.679
 2102POPC   C1B30751  13.387  44.948   8.627
 2102POPC   C2B30752  13.289   0.103   8.200
 2102POPC   C3B30753  13.496  44.988   7.831
 2102POPC   C4B30754  13.595   0.184   7.401
 2103POPC   NC330755   9.413  22.422   9.336
 2103POPC   PO430756   9.761  22.053   9.789
 2103POPC   GL130757   9.847  22.103   9.270
 2103POPC   GL230758   9.962  22.352   9.113
 2103POPC   C1A30759   9.639  22.072   8.800
 2103POPC   D2A30760   9.789  22.197   8.440
 2103POPC   C3A30761   9.631  22.260   8.080
 2103POPC   C4A30762   9.735  22.074   7.723
 2103POPC   C1B30763  10.164  22.525   8.723
 2103POPC   C2B30764  10.040  22.606   8.257
 2103POPC   C3B30765  10.071  22.469   7.818
 2103POPC   C4B30766   9.959  22.350   7.367
 2104POPC   NC330767  34.020   4.159   9.812
 2104POPC   PO430768  34.589   4.230   9.348
 2104POPC   GL130769  34.494   4.197   8.976
 2104POPC   GL230770  34.172   4.400   9.033
 2104POPC   C1A30771  34.747   4.037   8.645
 2104POPC   D2A30772  34.946   4.064   8.259
 2104POPC   C3A30773  34.707   4.119   7.955
 2104POPC   C4A30774  34.511   3.907   7.667
 2104POPC   C1B30775  34.292   4.524   8.649
 2104POPC   C2B30776  34.476   4.387   8.316
 2104POPC   C3B30777  34.323   4.428   7.907
 2104POPC   C4B30778  34.473   4.545   7.518
 2105POPC   NC330779  37.357   2.879   9.557
 2105POPC   PO430780  36.673   2.684   9.669
 2105POPC   GL130781  36.848   2.605   9.252
 2105POPC   GL230782  36.562   2.626   9.049
 2105POPC   C1A30783  37.041   2.833   8.870
 2105POPC   D2A30784  37.044   3.093   8.475
 2105POPC   C3A30785  37.030   2.918   8.060
 2105POPC   C4A30786  36.669   2.900   7.787
 2105POPC   C1B30787  36.754   2.405   8.672
 2105POPC   C2B30788  36.765   2.476   8.196
 2105POPC   C3B30789  36.760   2.393   7.735
 2105POPC   C4B30790  36.749   2.451   7.275
 2106POPC   NC330791  18.159  39.068   9.494
 2106POPC   PO430792  18.468  39.622   9.393
 2106POPC   GL130793  18.454  39.244   9.124
 2106POPC   GL230794  18.161  38.984   9.007
 2106POPC   C1A30795  18.584  39.082   8.754
 2106POPC   D2A30796  18.373  39.008   8.394
 2106POPC   C3A30797  18.637  39.050   8.031
 2106POPC   C4A30798  18.482  39.269   7.669
 2106POPC   C1B30799  18.001  39.298   8.804
 2106POPC   C2B30800  17.912  39.342   8.409
 2106POPC   C3B30801  18.138  39.292   8.035
 2106POPC   C4B30802  17.996  39.149   7.607
 2107POPC   NC330803  35.852  41.998   9.466
 2107POPC   PO430804  36.148  41.456   9.733
 2107POPC   GL130805  36.123  41.533   9.274
 2107POPC   GL230806  35.891  41.270   9.197
 2107POPC   C1A30807  35.884  41.688   8.880
 2107POPC   D2A30808  35.783  41.795   8.428
 2107POPC   C3A30809  36.131  41.789   8.165
 2107POPC   C4A30810  35.987  41.840   7.751
 2107POPC   C1B30811  35.759  41.191   8.800
 2107POPC   C2B30812  35.983  41.315   8.452
 2107POPC   C3B30813  35.914  41.335   8.040
 2107POPC   C4B30814  36.257  41.403   7.762
 2108POPC   NC330815  32.500   3.076   9.694
 2108POPC   PO430816  31.917   2.756   9.558
 2108POPC   GL130817  32.080   2.808   9.154
 2108POPC   GL230818  32.396   2.760   9.291
 2108POPC   C1A30819  32.154   2.761   8.708
 2108POPC   D2A30820  32.168   2.970   8.323
 2108POPC   C3A30821  31.945   2.897   7.929
 2108POPC   C4A30822  32.035   2.599   7.662
 2108POPC   C1B30823  32.616   2.889   8.949
 2108POPC   C2B30824  32.633   2.855   8.507
 2108POPC   C3B30825  32.620   2.960   8.074
 2108POPC   C4B30826  32.621   2.751   7.672
 2109POPC   NC330827  17.715  14.686   9.239
 2109POPC   PO430828  17.677  15.307   9.429
 2109POPC   GL130829  17.547  15.148   9.093
 2109POPC   GL230830  17.257  14.928   9.240
 2109POPC   C1A30831  17.649  15.113   8.656
 2109POPC   D2A30832  17.571  15.369   8.302
 2109POPC   C3A30833  17.778  15.396   7.944
 2109POPC   C4A30834  17.713  15.219   7.599
 2109POPC   C1B30835  17.149  15.020   8.834
 2109POPC   C2B30836  17.171  15.061   8.418
 2109POPC   C3B30837  17.220  15.137   7.995
 2109POPC   C4B30838  17.270  15.004   7.608
 2110POPC   NC330839   0.827   3.318   9.538
 2110POPC   PO430840   0.317   3.610   9.565
 2110POPC   GL130841   0.337   3.656   9.154
 2110POPC   GL230842   0.531   3.929   9.078
 2110POPC   C1A30843   0.282   3.624   8.738
 2110POPC   D2A30844   0.141   3.566   8.341
 2110POPC   C3A30845   0.143   3.329   7.988
 2110POPC   C4A30846   0.306   3.506   7.587
 2110POPC   C1B30847   0.725   3.860   8.738
 2110POPC   C2B30848   0.676   3.635   8.414
 2110POPC   C3B30849   0.775   3.659   8.028
 2110POPC   C4B30850   0.801   3.428   7.683
 2111POPC   NC330851  13.003  11.112   9.478
 2111POPC   PO430852  12.807  11.829   9.492
 2111POPC   GL130853  12.809  11.677   9.075
 2111POPC   GL230854  12.672  11.342   9.152
 2111POPC   C1A30855  12.976  11.377   8.745
 2111POPC   D2A30856  12.877  11.081   8.436
 2111POPC   C3A30857  12.972  11.236   8.034
 2111POPC   C4A30858  13.186  11.287   7.660
 2111POPC   C1B30859  12.527  11.054   8.819
 2111POPC   C2B30860  12.371  11.028   8.371
 2111POPC   C3B30861  12.483  11.059   7.933
 2111POPC   C4B30862  12.668  11.309   7.626
 2112POPC   NC330863  19.458  37.484   9.455
 2112POPC   PO430864  18.781  37.755   9.308
 2112POPC   GL130865  19.039  37.724   8.976
 2112POPC   GL230866  19.182  37.401   9.022
 2112POPC   C1A30867  19.052  37.988   8.591
 2112POPC   D2A30868  18.760  37.999   8.219
 2112POPC   C3A30869  19.031  37.948   7.887
 2112POPC   C4A30870  19.460  37.964   7.885
 2112POPC   C1B30871  19.113  37.277   8.598
 2112POPC   C2B30872  19.154  37.559   8.244
 2112POPC   C3B30873  19.299  37.487   7.820
 2112POPC   C4B30874  19.274  37.414   7.369
 2113POPC   NC330875   8.669  43.011   9.468
 2113POPC   PO430876   8.016  43.300   9.480
 2113POPC   GL130877   8.086  43.072   9.118
 2113POPC   GL230878   8.393  43.106   9.060
 2113POPC   C1A30879   8.125  42.882   8.690
 2113POPC   D2A30880   8.111  42.974   8.254
 2113POPC   C3A30881   8.080  43.130   7.825
 2113POPC   C4A30882   7.950  43.371   7.438
 2113POPC   C1B30883   8.650  42.815   8.830
 2113POPC   C2B30884   8.657  42.786   8.393
 2113POPC   C3B30885   8.571  43.032   8.037
 2113POPC   C4B30886   8.493  42.874   7.663
 2114POPC   NC330887  33.282  39.964   9.416
 2114POPC   PO430888  32.666  39.760   9.521
 2114POPC   GL130889  32.842  39.920   9.147
 2114POPC   GL230890  32.708  40.245   9.081
 2114POPC   C1A30891  33.170  39.890   8.783
 2114POPC   D2A30892  33.384  39.695   8.415
 2114POPC   C3A30893  33.106  39.827   8.081
 2114POPC   C4A30894  33.069  40.258   7.897
 2114POPC   C1B30895  32.660  39.977   8.689
 2114POPC   C2B30896  32.740  40.168   8.295
 2114POPC   C3B30897  32.581  40.108   7.893
 2114POPC   C4B30898  32.793  39.808   7.652
 2115POPC   NC330899  26.360  16.530   9.388
 2115POPC   PO430900  25.697  16.768   9.513
 2115POPC   GL130901  25.862  16.816   9.092
 2115POPC   GL230902  25.935  16.502   9.122
 2115POPC   C1A30903  25.913  16.972   8.646
 2115POPC   D2A30904  26.236  16.911   8.286
 2115POPC   C3A30905  26.111  17.044   7.853
 2115POPC   C4A30906  25.706  16.980   7.642
 2115POPC   C1B30907  26.065  16.466   8.722
 2115POPC   C2B30908  25.884  16.524   8.347
 2115POPC   C3B30909  26.088  16.516   7.974
 2115POPC   C4B30910  25.933  16.539   7.590
 2116POPC   NC330911  40.451   0.192   9.428
 2116POPC   PO430912  39.868   0.641   9.449
 2116POPC   GL130913  39.860   0.299   9.145
 2116POPC   GL230914  39.860   0.540   8.938
 2116POPC   C1A30915  39.660   0.099   8.772
 2116POPC   D2A30916  39.762   0.407   8.448
 2116POPC   C3A30917  39.712   0.309   8.037
 2116POPC   C4A30918  40.069   0.471   7.829
 2116POPC   C1B30919  40.192   0.676   8.702
 2116POPC   C2B30920  40.101   0.765   8.289
 2116POPC   C3B30921  39.754   0.837   8.043
 2116POPC   C4B30922  39.877   0.898   7.631
 2117POPC   NC330923  22.090   0.121   9.444
 2117POPC   PO430924  22.271   0.727   9.749
 2117POPC   GL130925  22.288   0.573   9.289
 2117POPC   GL230926  21.958   0.553   9.162
 2117POPC   C1A30927  22.336   0.418   8.840
 2117POPC   D2A30928  22.164   0.524   8.443
 2117POPC   C3A30929  22.311   0.474   8.026
 2117POPC   C4A30930  22.109   0.685   7.686
 2117POPC   C1B30931  21.874   0.260   8.787
 2117POPC   C2B30932  22.116   0.023   8.505
 2117POPC   C3B30933  22.113  44.977   8.082
 2117POPC   C4B30934  22.003   0.195   7.698
 2118POPC   NC330935   6.170  19.892   9.387
 2118POPC   PO430936   5.617  19.522   9.493
 2118POPC   GL130937   5.699  19.787   9.184
 2118POPC   GL230938   5.942  19.520   9.059
 2118POPC   C1A30939   5.785  19.942   8.783
 2118POPC   D2A30940   5.834  19.703   8.390
 2118POPC   C3A30941   5.782  19.999   8.072
 2118POPC   C4A30942   5.558  20.086   7.720
 2118POPC   C1B30943   6.233  19.699   8.745
 2118POPC   C2B30944   6.479  19.763   8.372
 2118POPC   C3B30945   6.212  19.710   7.995
 2118POPC   C4B30946   6.004  19.854   7.606
 2119POPC   NC330947  22.068  40.405   9.552
 2119POPC   PO430948  22.417  40.955   9.528
 2119POPC   GL130949  22.310  40.951   9.131
 2119POPC   GL230950  22.088  40.683   9.132
 2119POPC   C1A30951  22.234  40.950   8.721
 2119POPC   D2A30952  22.451  40.798   8.427
 2119POPC   C3A30953  22.246  40.782   8.069
 2119POPC   C4A30954  22.239  40.940   7.682
 2119POPC   C1B30955  22.034  40.462   8.750
 2119POPC   C2B30956  22.093  40.327   8.341
 2119POPC   C3B30957  21.942  40.383   7.961
 2119POPC   C4B30958  21.784  40.703   7.797
 2120POPC   NC330959  26.597  19.118   9.536
 2120POPC   PO430960  25.949  19.258   9.649
 2120POPC   GL130961  26.153  19.166   9.251
 2120POPC   GL230962  26.059  18.897   9.006
 2120POPC   C1A30963  26.427  19.250   8.907
 2120POPC   D2A30964  26.335  19.141   8.520
 2120POPC   C3A30965  26.515  19.037   8.149
 2120POPC   C4A30966  26.208  18.839   7.896
 2120POPC   C1B30967  25.881  18.919   8.573
 2120POPC   C2B30968  25.637  19.022   8.196
 2120POPC   C3B30969  25.784  19.097   7.773
 2120POPC   C4B30970  25.829  18.757   7.447
 2121POPC   NC330971  17.124  32.777   9.384
 2121POPC   PO430972  17.328  32.152   9.461
 2121POPC   GL130973  17.688  32.274   9.183
 2121POPC   GL230974  17.799  32.642   9.197
 2121POPC   C1A30975  17.682  32.158   8.751
 2121POPC   D2A30976  17.290  32.261   8.501
 2121POPC   C3A30977  17.274  32.254   8.047
 2121POPC   C4A30978  17.523  32.080   7.711
 2121POPC   C1B30979  17.517  32.622   8.828
 2121POPC   C2B30980  17.698  32.578   8.416
 2121POPC   C3B30981  17.773  32.425   8.017
 2121POPC   C4B30982  17.495  32.583   7.713
 2122POPC   NC330983  14.809  42.422   9.494
 2122POPC   PO430984  15.393  42.670   9.715
 2122POPC   GL130985  15.336  42.617   9.195
 2122POPC   GL230986  14.996  42.512   9.037
 2122POPC   C1A30987  15.381  42.329   8.795
 2122POPC   D2A30988  15.078  42.390   8.440
 2122POPC   C3A30989  15.060  42.241   8.010
 2122POPC   C4A30990  15.346  42.103   7.682
 2122POPC   C1B30991  15.104  42.852   8.761
 2122POPC   C2B30992  15.040  42.893   8.334
 2122POPC   C3B30993  15.162  42.755   7.939
 2122POPC   C4B30994  15.127  42.562   7.538
 2123POPC   NC330995  44.465  30.334   9.532
 2123POPC   PO430996  44.791  30.977   9.483
 2123POPC   GL130997  44.603  30.745   9.208
 2123POPC   GL230998  44.797  30.462   9.161
 2123POPC   C1A30999  44.469  30.723   8.806
 2123POPC   D2A31000  44.444  30.618   8.384
 2123POPC   C3A31001  44.518  30.847   7.995
 2123POPC   C4A31002  44.502  30.924   7.533
 2123POPC   C1B31003  44.869  30.278   8.761
 2123POPC   C2B31004  44.878  30.385   8.312
 2123POPC   C3B31005  44.726  30.325   7.870
 2123POPC   C4B31006   0.016  30.280   7.498
 2124POPC   NC331007  40.471  40.215   9.387
 2124POPC   PO431008  39.821  39.826   9.469
 2124POPC   GL131009  39.958  40.068   9.191
 2124POPC   GL231010  40.216  39.876   9.071
 2124POPC   C1A31011  39.756  40.012   8.801
 2124POPC   D2A31012  39.868  39.859   8.421
 2124POPC   C3A31013  39.707  40.062   8.092
 2124POPC   C4A31014  39.822  40.103   7.684
 2124POPC   C1B31015  40.320  39.991   8.653
 2124POPC   C2B31016  40.344  39.819   8.228
 2124POPC   C3B31017  40.257  39.684   7.819
 2124POPC   C4B31018  40.514  39.665   7.420
 2125POPC   NC331019  36.791  14.927   9.987
 2125POPC   PO431020  36.225  15.003   9.604
 2125POPC   GL131021  36.031  15.118   9.217
 2125POPC   GL231022  36.042  15.503   9.150
 2125POPC   C1A31023  35.910  14.862   8.847
 2125POPC   D2A31024  35.932  14.988   8.430
 2125POPC   C3A31025  36.082  15.041   8.020
 2125POPC   C4A31026  35.938  15.178   7.632
 2125POPC   C1B31027  36.251  15.294   8.785
 2125POPC   C2B31028  36.323  15.362   8.343
 2125POPC   C3B31029  36.515  15.359   7.920
 2125POPC   C4B31030  36.377  15.401   7.467
 2126POPC   NC331031  23.400   7.572   9.495
 2126POPC   PO431032  23.727   7.112   9.543
 2126POPC   GL131033  23.727   7.359   9.132
 2126POPC   GL231034  23.520   7.679   9.014
 2126POPC   C1A31035  23.652   7.271   8.695
 2126POPC   D2A31036  23.740   7.360   8.248
 2126POPC   C3A31037  23.523   7.132   7.944
 2126POPC   C4A31038  23.722   7.321   7.624
 2126POPC   C1B31039  23.277   7.942   8.700
 2126POPC   C2B31040  23.339   7.960   8.248
 2126POPC   C3B31041  23.437   7.648   7.899
 2126POPC   C4B31042  23.472   7.713   7.392
 2127POPC   NC331043  12.691  13.780   9.255
 2127POPC   PO431044  12.836  13.191   9.329
 2127POPC   GL131045  12.740  13.339   8.955
 2127POPC   GL231046  13.095  13.426   8.938
 2127POPC   C1A31047  12.764  13.635   8.618
 2127POPC   D2A31048  12.880  13.452   8.233
 2127POPC   C3A31049  12.637  13.517   7.856
 2127POPC   C4A31050  12.653  13.923   7.659
 2127POPC   C1B31051  13.259  13.636   8.571
 2127POPC   C2B31052  13.110  13.927   8.280
 2127POPC   C3B31053  13.097  13.769   7.857
 2127POPC   C4B31054  13.303  13.562   7.502
 2128POPC   NC331055  29.659  42.784   9.800
 2128POPC   PO431056  29.967  43.334   9.571
 2128POPC   GL131057  30.004  43.106   9.119
 2128POPC   GL231058  29.720  42.828   9.033
 2128POPC   C1A31059  30.246  43.024   8.724
 2128POPC   D2A31060  30.161  42.971   8.270
 2128POPC   C3A31061  29.975  43.336   8.081
 2128POPC   C4A31062  29.838  43.333   7.659
 2128POPC   C1B31063  29.740  42.964   8.662
 2128POPC   C2B31064  29.574  43.143   8.340
 2128POPC   C3B31065  29.676  42.913   7.978
 2128POPC   C4B31066  29.502  42.968   7.583
 2129POPC   NC331067  32.316  39.451   9.519
 2129POPC   PO431068  31.838  39.003   9.419
 2129POPC   GL131069  31.975  39.330   9.142
 2129POPC   GL231070  32.268  39.145   9.104
 2129POPC   C1A31071  31.995  39.329   8.713
 2129POPC   D2A31072  32.196  39.081   8.423
 2129POPC   C3A31073  32.157  39.311   8.049
 2129POPC   C4A31074  32.105  39.194   7.641
 2129POPC   C1B31075  32.460  39.487   8.879
 2129POPC   C2B31076  32.404  39.548   8.454
 2129POPC   C3B31077  32.585  39.626   8.083
 2129POPC   C4B31078  32.609  39.287   7.796
 2130POPC   NC331079  24.175  42.133   9.535
 2130POPC   PO431080  24.559  42.778   9.417
 2130POPC   GL131081  24.483  42.614   9.024
 2130POPC   GL231082  24.365  42.270   9.085
 2130POPC   C1A31083  24.596  42.406   8.635
 2130POPC   D2A31084  24.803  42.123   8.330
 2130POPC   C3A31085  24.658  42.368   8.008
 2130POPC   C4A31086  24.475  42.254   7.619
 2130POPC   C1B31087  24.107  42.022   8.788
 2130POPC   C2B31088  24.290  42.058   8.401
 2130POPC   C3B31089  24.397  41.924   8.015
 2130POPC   C4B31090  24.127  41.829   7.694
 2131POPC   NC331091  34.958  35.410   9.271
 2131POPC   PO431092  34.383  35.080   9.508
 2131POPC   GL131093  34.561  35.110   9.118
 2131POPC   GL231094  34.482  35.478   9.095
 2131POPC   C1A31095  34.571  35.200   8.663
 2131POPC   D2A31096  34.790  35.303   8.297
 2131POPC   C3A31097  34.543  35.277   7.884
 2131POPC   C4A31098  34.585  35.390   7.438
 2131POPC   C1B31099  34.713  35.687   8.738
 2131POPC   C2B31100  34.545  35.759   8.352
 2131POPC   C3B31101  34.454  35.790   7.937
 2131POPC   C4B31102  34.261  35.723   7.584
 2132POPC   NC331103  32.432  27.110   9.804
 2132POPC   PO431104  32.501  27.676   9.410
 2132POPC   GL131105  32.430  27.481   9.048
 2132POPC   GL231106  32.189  27.212   9.116
 2132POPC   C1A31107  32.425  27.785   8.701
 2132POPC   D2A31108  32.557  28.027   8.353
 2132POPC   C3A31109  32.445  27.865   7.983
 2132POPC   C4A31110  32.033  27.794   7.827
 2132POPC   C1B31111  32.095  27.379   8.672
 2132POPC   C2B31112  32.397  27.452   8.301
 2132POPC   C3B31113  32.316  27.372   7.839
 2132POPC   C4B31114  32.514  27.206   7.464
 2133POPC   NC331115  19.031  30.879   9.571
 2133POPC   PO431116  18.871  30.307   9.312
 2133POPC   GL131117  18.926  30.743   9.097
 2133POPC   GL231118  19.276  30.795   9.145
 2133POPC   C1A31119  19.001  31.045   8.738
 2133POPC   D2A31120  19.120  30.933   8.318
 2133POPC   C3A31121  18.845  30.773   7.994
 2133POPC   C4A31122  18.992  30.740   7.554
 2133POPC   C1B31123  19.282  30.580   8.751
 2133POPC   C2B31124  19.498  30.584   8.357
 2133POPC   C3B31125  19.306  30.526   7.942
 2133POPC   C4B31126  19.377  30.391   7.486
 2134POPC   NC331127  44.297   8.802   9.559
 2134POPC   PO431128  43.763   9.242   9.608
 2134POPC   GL131129  43.561   9.118   9.208
 2134POPC   GL231130  43.466   8.763   9.091
 2134POPC   C1A31131  43.749   9.140   8.803
 2134POPC   D2A31132  43.697   9.299   8.387
 2134POPC   C3A31133  44.010   9.235   8.089
 2134POPC   C4A31134  44.017   8.986   7.741
 2134POPC   C1B31135  43.879   8.643   8.882
 2134POPC   C2B31136  44.000   8.622   8.436
 2134POPC   C3B31137  43.778   8.617   8.026
 2134POPC   C4B31138  43.630   8.488   7.601
 2135POPC   NC331139   3.741  10.825   9.513
 2135POPC   PO431140   3.159  10.471   9.343
 2135POPC   GL131141   3.381  10.354   9.020
 2135POPC   GL231142   3.656  10.589   9.056
 2135POPC   C1A31143   3.490  10.348   8.604
 2135POPC   D2A31144   3.350  10.701   8.357
 2135POPC   C3A31145   3.447  10.876   7.960
 2135POPC   C4A31146   3.190  10.710   7.634
 2135POPC   C1B31147   3.762  10.776   8.679
 2135POPC   C2B31148   3.841  10.572   8.279
 2135POPC   C3B31149   3.689  10.443   7.888
 2135POPC   C4B31150   3.935  10.776   7.649
 2136POPC   NC331151  26.539   9.232   9.480
 2136POPC   PO431152  26.819   8.596   9.647
 2136POPC   GL131153  26.746   8.699   9.216
 2136POPC   GL231154  26.845   9.047   9.104
 2136POPC   C1A31155  26.729   8.656   8.773
 2136POPC   D2A31156  26.845   8.932   8.429
 2136POPC   C3A31157  26.806   8.808   7.993
 2136POPC   C4A31158  26.636   8.848   7.557
 2136POPC   C1B31159  26.736   9.339   8.747
 2136POPC   C2B31160  26.450   9.395   8.389
 2136POPC   C3B31161  26.383   9.150   8.018
 2136POPC   C4B31162  26.386   9.301   7.576
 2137POPC   NC331163  20.226  29.031   9.643
 2137POPC   PO431164  20.706  29.412   9.660
 2137POPC   GL131165  20.704  29.179   9.232
 2137POPC   GL231166  20.411  28.981   9.116
 2137POPC   C1A31167  20.712  29.207   8.757
 2137POPC   D2A31168  20.920  29.108   8.370
 2137POPC   C3A31169  20.754  29.113   7.944
 2137POPC   C4A31170  20.428  29.411   7.883
 2137POPC   C1B31171  20.253  28.951   8.657
 2137POPC   C2B31172  20.320  29.011   8.200
 2137POPC   C3B31173  20.307  28.913   7.739
 2137POPC   C4B31174  20.235  28.888   7.268
 2138POPC   NC331175  44.354  31.840   9.539
 2138POPC   PO431176  44.784  32.404   9.622
 2138POPC   GL131177  44.750  32.487   9.181
 2138POPC   GL231178  44.578  32.198   9.123
 2138POPC   C1A31179  44.818  32.610   8.761
 2138POPC   D2A31180  44.581  32.398   8.441
 2138POPC   C3A31181  44.729  32.401   8.042
 2138POPC   C4A31182  44.528  32.432   7.669
 2138POPC   C1B31183  44.852  32.110   8.785
 2138POPC   C2B31184  44.841  31.955   8.382
 2138POPC   C3B31185  44.501  31.923   8.101
 2138POPC   C4B31186  44.461  31.911   7.681
 2139POPC   NC331187   1.961   0.241   9.501
 2139POPC   PO431188   1.549   0.744   9.529
 2139POPC   GL131189   1.747   0.592   9.172
 2139POPC   GL231190   2.020   0.408   9.040
 2139POPC   C1A31191   1.667   0.612   8.738
 2139POPC   D2A31192   1.872   0.861   8.425
 2139POPC   C3A31193   2.000   0.614   8.135
 2139POPC   C4A31194   1.901   0.496   7.753
 2139POPC   C1B31195   2.174   0.147   8.756
 2139POPC   C2B31196   1.996   0.157   8.357
 2139POPC   C3B31197   2.175   0.128   7.971
 2139POPC   C4B31198   2.000  44.859   7.669
 2140POPC   NC331199  41.160   0.848   9.688
 2140POPC   PO431200  41.842   0.620   9.635
 2140POPC   GL131201  41.611   0.614   9.240
 2140POPC   GL231202  41.297   0.498   9.190
 2140POPC   C1A31203  41.738   0.501   8.851
 2140POPC   D2A31204  41.698   0.219   8.515
 2140POPC   C3A31205  41.649   0.404   8.104
 2140POPC   C4A31206  41.698   0.622   7.701
 2140POPC   C1B31207  41.242   0.383   8.774
 2140POPC   C2B31208  41.194   0.502   8.368
 2140POPC   C3B31209  41.123   0.438   7.932
 2140POPC   C4B31210  41.186   0.632   7.532
 2141POPC   NC331211  20.908  42.667   9.440
 2141POPC   PO431212  20.594  43.336   9.519
 2141POPC   GL131213  20.872  43.363   9.161
 2141POPC   GL231214  20.932  43.031   9.063
 2141POPC   C1A31215  20.734  43.428   8.738
 2141POPC   D2A31216  20.577  43.351   8.334
 2141POPC   C3A31217  20.865  43.395   7.984
 2141POPC   C4A31218  20.792  43.642   7.627
 2141POPC   C1B31219  20.761  42.926   8.642
 2141POPC   C2B31220  20.886  42.909   8.199
 2141POPC   C3B31221  20.882  42.896   7.726
 2141POPC   C4B31222  20.816  42.787   7.295
 2142POPC   NC331223   8.303  11.091   9.613
 2142POPC   PO431224   8.026  11.806   9.561
 2142POPC   GL131225   8.119  11.435   9.295
 2142POPC   GL231226   7.836  11.239   9.199
 2142POPC   C1A31227   8.257  11.175   8.926
 2142POPC   D2A31228   8.231  11.305   8.515
 2142POPC   C3A31229   8.407  11.096   8.179
 2142POPC   C4A31230   8.177  11.221   7.832
 2142POPC   C1B31231   7.930  11.584   8.868
 2142POPC   C2B31232   8.086  11.824   8.529
 2142POPC   C3B31233   8.038  11.617   8.135
 2142POPC   C4B31234   7.975  11.768   7.693
 2143POPC   NC331235  36.593   5.307   9.544
 2143POPC   PO431236  37.151   4.965   9.729
 2143POPC   GL131237  37.039   5.196   9.327
 2143POPC   GL231238  36.759   5.046   9.130
 2143POPC   C1A31239  37.135   5.276   8.883
 2143POPC   D2A31240  37.107   5.166   8.456
 2143POPC   C3A31241  37.148   4.858   8.135
 2143POPC   C4A31242  36.867   5.057   7.857
 2143POPC   C1B31243  36.827   4.808   8.727
 2143POPC   C2B31244  36.690   4.689   8.292
 2143POPC   C3B31245  36.518   4.647   7.847
 2143POPC   C4B31246  36.598   4.919   7.464
 2144POPC   NC331247   8.414  30.438   9.562
 2144POPC   PO431248   7.879  29.930   9.604
 2144POPC   GL131249   8.130  29.895   9.229
 2144POPC   GL231250   8.415  29.655   9.200
 2144POPC   C1A31251   8.169  29.905   8.790
 2144POPC   D2A31252   8.175  30.203   8.464
 2144POPC   C3A31253   8.149  30.056   8.052
 2144POPC   C4A31254   8.267  30.304   7.697
 2144POPC   C1B31255   8.691  29.709   8.834
 2144POPC   C2B31256   8.705  29.541   8.400
 2144POPC   C3B31257   8.537  29.693   8.009
 2144POPC   C4B31258   8.282  29.769   7.637
 2145POPC   NC331259  33.447  22.049   9.425
 2145POPC   PO431260  34.096  22.278   9.487
 2145POPC   GL131261  33.857  22.250   9.140
 2145POPC   GL231262  33.981  21.938   9.072
 2145POPC   C1A31263  33.705  22.236   8.727
 2145POPC   D2A31264  33.872  22.231   8.323
 2145POPC   C3A31265  33.653  22.272   7.989
 2145POPC   C4A31266  33.660  22.251   7.577
 2145POPC   C1B31267  34.162  21.719   8.742
 2145POPC   C2B31268  34.238  21.852   8.336
 2145POPC   C3B31269  34.089  21.954   7.915
 2145POPC   C4B31270  34.015  21.917   7.464
 2146POPC   NC331271  38.368  42.713   9.531
 2146POPC   PO431272  38.351  43.365   9.452
 2146POPC   GL131273  38.265  43.064   9.131
 2146POPC   GL231274  38.467  42.727   9.049
 2146POPC   C1A31275  38.345  43.064   8.704
 2146POPC   D2A31276  38.368  43.294   8.370
 2146POPC   C3A31277  38.260  43.012   8.036
 2146POPC   C4A31278  38.388  42.999   7.626
 2146POPC   C1B31279  38.817  42.859   8.812
 2146POPC   C2B31280  38.785  43.020   8.394
 2146POPC   C3B31281  38.740  43.250   8.011
 2146POPC   C4B31282  38.884  43.171   7.604
 2147POPC   NC331283   4.799  43.376   9.514
 2147POPC   PO431284   4.754  42.679   9.570
 2147POPC   GL131285   4.898  42.817   9.155
 2147POPC   GL231286   4.726  43.125   9.076
 2147POPC   C1A31287   4.971  42.879   8.686
 2147POPC   D2A31288   4.973  42.840   8.220
 2147POPC   C3A31289   5.351  42.933   7.989
 2147POPC   C4A31290   5.316  43.001   7.583
 2147POPC   C1B31291   4.980  43.397   8.840
 2147POPC   C2B31292   4.973  43.564   8.428
 2147POPC   C3B31293   4.952  43.335   8.057
 2147POPC   C4B31294   5.047  43.412   7.675
 2148POPC   NC331295   3.593  42.168   9.498
 2148POPC   PO431296   3.180  42.741   9.424
 2148POPC   GL131297   3.382  42.453   9.119
 2148POPC   GL231298   3.729  42.483   9.098
 2148POPC   C1A31299   3.458  42.188   8.749
 2148POPC   D2A31300   3.598  42.320   8.352
 2148POPC   C3A31301   3.458  42.125   7.962
 2148POPC   C4A31302   3.288  42.196   7.556
 2148POPC   C1B31303   3.956  42.335   8.757
 2148POPC   C2B31304   4.088  42.486   8.369
 2148POPC   C3B31305   3.899  42.495   7.966
 2148POPC   C4B31306   3.718  42.474   7.553
 2149POPC   NC331307  19.236  11.367   9.550
 2149POPC   PO431308  18.694  11.324   9.239
 2149POPC   GL131309  19.094  11.309   9.049
 2149POPC   GL231310  19.274  11.638   9.077
 2149POPC   C1A31311  19.177  11.271   8.613
 2149POPC   D2A31312  19.430  11.190   8.255
 2149POPC   C3A31313  19.181  11.018   7.955
 2149POPC   C4A31314  18.834  11.000   7.746
 2149POPC   C1B31315  18.958  11.725   8.752
 2149POPC   C2B31316  19.021  11.670   8.307
 2149POPC   C3B31317  19.132  11.556   7.906
 2149POPC   C4B31318  19.482  11.348   7.745
 2150POPC   NC331319   4.929  12.374   9.451
 2150POPC   PO431320   4.640  11.797   9.692
 2150POPC   GL131321   4.844  11.871   9.265
 2150POPC   GL231322   5.218  11.902   9.208
 2150POPC   C1A31323   4.849  12.017   8.816
 2150POPC   D2A31324   5.152  11.991   8.437
 2150POPC   C3A31325   4.949  11.997   8.048
 2150POPC   C4A31326   4.676  11.868   7.723
 2150POPC   C1B31327   5.294  12.235   8.862
 2150POPC   C2B31328   5.319  12.465   8.484
 2150POPC   C3B31329   5.379  12.300   8.063
 2150POPC   C4B31330   5.286  12.525   7.711
 2151POPC   NC331331  19.723  13.640   9.579
 2151POPC   PO431332  20.058  13.255   9.081
 2151POPC   GL131333  19.832  13.625   8.954
 2151POPC   GL231334  19.605  13.810   9.126
 2151POPC   C1A31335  19.819  13.694   8.509
 2151POPC   D2A31336  20.093  13.399   8.356
 2151POPC   C3A31337  20.178  13.355   7.944
 2151POPC   C4A31338  20.025  13.711   7.755
 2151POPC   C1B31339  19.414  13.952   8.787
 2151POPC   C2B31340  19.377  13.942   8.353
 2151POPC   C3B31341  19.538  13.797   7.953
 2151POPC   C4B31342  19.600  13.786   7.483
 2152POPC   NC331343  14.865  16.360   9.532
 2152POPC   PO431344  15.467  16.060   9.665
 2152POPC   GL131345  15.278  16.152   9.268
 2152POPC   GL231346  15.241  15.819   9.146
 2152POPC   C1A31347  15.418  16.203   8.846
 2152POPC   D2A31348  15.533  15.902   8.582
 2152POPC   C3A31349  15.257  15.990   8.262
 2152POPC   C4A31350  15.354  16.149   7.856
 2152POPC   C1B31351  14.939  15.667   8.846
 2152POPC   C2B31352  14.794  15.751   8.452
 2152POPC   C3B31353  14.922  15.642   8.053
 2152POPC   C4B31354  14.919  15.911   7.734
 2153POPC   NC331355   7.555  10.582   9.607
 2153POPC   PO431356   6.854  10.519   9.633
 2153POPC   GL131357   7.241  10.596   9.196
 2153POPC   GL231358   7.562  10.437   9.128
 2153POPC   C1A31359   7.420  10.702   8.730
 2153POPC   D2A31360   7.404  10.435   8.339
 2153POPC   C3A31361   7.572  10.603   7.977
 2153POPC   C4A31362   7.384  10.673   7.567
 2153POPC   C1B31363   7.746  10.296   8.745
 2153POPC   C2B31364   7.903  10.309   8.328
 2153POPC   C3B31365   7.770  10.120   7.945
 2153POPC   C4B31366   7.728  10.282   7.555
 2154POPC   NC331367  18.187  32.431   9.481
 2154POPC   PO431368  18.804  32.651   9.299
 2154POPC   GL131369  18.452  32.499   9.051
 2154POPC   GL231370  18.363  32.186   9.065
 2154POPC   C1A31371  18.077  32.484   8.774
 2154POPC   D2A31372  18.072  32.208   8.414
 2154POPC   C3A31373  18.283  32.418   8.084
 2154POPC   C4A31374  18.327  32.222   7.722
 2154POPC   C1B31375  18.593  31.995   8.756
 2154POPC   C2B31376  18.594  32.141   8.376
 2154POPC   C3B31377  18.561  31.913   8.057
 2154POPC   C4B31378  18.667  31.803   7.703
 2155POPC   NC331379   8.447  19.643   9.563
 2155POPC   PO431380   7.816  19.824   9.472
 2155POPC   GL131381   8.154  19.945   9.192
 2155POPC   GL231382   8.440  19.721   9.070
 2155POPC   C1A31383   8.024  19.966   8.772
 2155POPC   D2A31384   7.846  20.118   8.402
 2155POPC   C3A31385   8.010  19.857   8.119
 2155POPC   C4A31386   8.115  19.695   7.738
 2155POPC   C1B31387   8.514  20.086   8.832
 2155POPC   C2B31388   8.365  20.128   8.403
 2155POPC   C3B31389   8.527  19.812   8.118
 2155POPC   C4B31390   8.657  19.781   7.690
 2156POPC   NC331391  13.684  14.770   9.347
 2156POPC   PO431392  13.577  14.129   9.519
 2156POPC   GL131393  13.731  14.298   9.166
 2156POPC   GL231394  13.408  14.434   9.092
 2156POPC   C1A31395  13.929  14.323   8.769
 2156POPC   D2A31396  13.984  14.441   8.336
 2156POPC   C3A31397  14.089  14.096   8.101
 2156POPC   C4A31398  13.949  13.987   7.702
 2156POPC   C1B31399  13.407  14.473   8.657
 2156POPC   C2B31400  13.479  14.457   8.222
 2156POPC   C3B31401  13.637  14.483   7.787
 2156POPC   C4B31402  13.365  14.481   7.414
 2157POPC   NC331403  27.987  26.134   9.398
 2157POPC   PO431404  27.339  26.344   9.338
 2157POPC   GL131405  27.529  25.999   9.121
 2157POPC   GL231406  27.287  25.695   9.124
 2157POPC   C1A31407  27.752  26.038   8.706
 2157POPC   D2A31408  27.781  26.281   8.309
 2157POPC   C3A31409  27.718  26.038   7.922
 2157POPC   C4A31410  27.968  25.747   7.670
 2157POPC   C1B31411  27.248  25.901   8.711
 2157POPC   C2B31412  27.361  25.893   8.288
 2157POPC   C3B31413  27.196  26.067   7.920
 2157POPC   C4B31414  27.352  25.870   7.563
 2158POPC   NC331415  27.987   8.088   9.599
 2158POPC   PO431416  28.269   8.653   9.575
 2158POPC   GL131417  28.398   8.318   9.273
 2158POPC   GL231418  28.133   8.117   9.117
 2158POPC   C1A31419  28.468   8.347   8.811
 2158POPC   D2A31420  28.183   8.517   8.492
 2158POPC   C3A31421  28.272   8.504   8.042
 2158POPC   C4A31422  28.664   8.478   7.767
 2158POPC   C1B31423  28.041   8.044   8.693
 2158POPC   C2B31424  28.284   7.962   8.302
 2158POPC   C3B31425  28.371   8.037   7.852
 2158POPC   C4B31426  28.172   7.879   7.467
 2159POPC   NC331427  22.283  38.263   9.284
 2159POPC   PO431428  21.737  38.673   9.542
 2159POPC   GL131429  21.997  38.728   9.151
 2159POPC   GL231430  22.373  38.767   9.209
 2159POPC   C1A31431  21.964  38.540   8.709
 2159POPC   D2A31432  21.843  38.386   8.266
 2159POPC   C3A31433  21.941  38.549   7.813
 2159POPC   C4A31434  21.679  38.586   7.423
 2159POPC   C1B31435  22.460  38.625   8.756
 2159POPC   C2B31436  22.330  38.312   8.423
 2159POPC   C3B31437  22.279  38.222   7.989
 2159POPC   C4B31438  22.462  38.570   7.728
 2160POPC   NC331439   9.713  44.462   9.418
 2160POPC   PO431440   9.506   0.160   9.474
 2160POPC   GL131441   9.684  44.879   9.136
 2160POPC   GL231442  10.000  44.844   8.950
 2160POPC   C1A31443   9.576  44.679   8.715
 2160POPC   D2A31444   9.971  44.670   8.426
 2160POPC   C3A31445   9.923  44.780   8.021
 2160POPC   C4A31446   9.510  44.686   7.969
 2160POPC   C1B31447   9.953  44.357   8.827
 2160POPC   C2B31448   9.840  44.121   8.471
 2160POPC   C3B31449   9.888  44.267   8.063
 2160POPC   C4B31450   9.734  44.219   7.652
 2161POPC   NC331451  36.694  17.764   9.397
 2161POPC   PO431452  37.046  17.185   9.518
 2161POPC   GL131453  36.899  17.336   9.145
 2161POPC   GL231454  36.821  17.050   9.024
 2161POPC   C1A31455  37.034  17.538   8.753
 2161POPC   D2A31456  36.913  17.837   8.430
 2161POPC   C3A31457  36.851  17.674   7.978
 2161POPC   C4A31458  37.075  17.559   7.563
 2161POPC   C1B31459  36.687  17.168   8.665
 2161POPC   C2B31460  36.927  17.241   8.290
 2161POPC   C3B31461  36.944  17.137   7.842
 2161POPC   C4B31462  37.169  17.046   7.441
 2162POPC   NC331463  29.106  14.470   9.628
 2162POPC   PO431464  29.496  13.926   9.440
 2162POPC   GL131465  29.250  14.242   9.174
 2162POPC   GL231466  28.945  14.501   9.153
 2162POPC   C1A31467  29.191  14.323   8.752
 2162POPC   D2A31468  29.289  14.575   8.428
 2162POPC   C3A31469  29.150  14.384   8.082
 2162POPC   C4A31470  29.229  14.114   7.768
 2162POPC   C1B31471  28.978  14.787   8.782
 2162POPC   C2B31472  28.938  14.963   8.364
 2162POPC   C3B31473  28.901  14.857   7.910
 2162POPC   C4B31474  29.157  14.608   7.635
 2163POPC   NC331475  13.915  24.092   9.518
 2163POPC   PO431476  14.551  23.633   9.509
 2163POPC   GL131477  14.516  23.784   9.139
 2163POPC   GL231478  14.174  23.843   9.157
 2163POPC   C1A31479  14.540  23.644   8.710
 2163POPC   D2A31480  14.728  23.700   8.305
 2163POPC   C3A31481  14.544  23.424   7.990
 2163POPC   C4A31482  14.161  23.460   7.855
 2163POPC   C1B31483  14.063  23.838   8.741
 2163POPC   C2B31484  14.169  23.689   8.337
 2163POPC   C3B31485  14.350  23.901   8.003
 2163POPC   C4B31486  14.100  24.055   7.718
 2164POPC   NC331487  17.107  12.397   9.547
 2164POPC   PO431488  16.627  12.945   9.585
 2164POPC   GL131489  16.696  12.655   9.195
 2164POPC   GL231490  17.039  12.596   9.059
 2164POPC   C1A31491  16.620  12.786   8.746
 2164POPC   D2A31492  16.672  12.937   8.295
 2164POPC   C3A31493  16.410  12.718   7.958
 2164POPC   C4A31494  16.345  12.705   7.460
 2164POPC   C1B31495  17.106  12.706   8.608
 2164POPC   C2B31496  17.238  12.980   8.287
 2164POPC   C3B31497  17.026  13.021   7.901
 2164POPC   C4B31498  16.606  13.133   7.714
 2165POPC   NC331499  18.773  13.435   9.815
 2165POPC   PO431500  19.274  13.770   9.523
 2165POPC   GL131501  19.079  13.822   9.150
 2165POPC   GL231502  19.229  13.464   9.072
 2165POPC   C1A31503  18.929  13.740   8.733
 2165POPC   D2A31504  19.046  13.553   8.368
 2165POPC   C3A31505  18.987  13.792   8.031
 2165POPC   C4A31506  19.124  13.785   7.620
 2165POPC   C1B31507  19.422  13.439   8.695
 2165POPC   C2B31508  19.504  13.351   8.261
 2165POPC   C3B31509  19.232  13.364   7.900
 2165POPC   C4B31510  19.343  13.358   7.416
 2166POPC   NC331511  11.882  22.929   9.342
 2166POPC   PO431512  12.404  22.603   9.534
 2166POPC   GL131513  12.263  22.668   9.113
 2166POPC   GL231514  12.338  23.035   9.059
 2166POPC   C1A31515  11.967  22.724   8.726
 2166POPC   D2A31516  12.051  22.821   8.315
 2166POPC   C3A31517  11.855  22.973   7.954
 2166POPC   C4A31518  11.903  23.113   7.526
 2166POPC   C1B31519  12.457  22.843   8.652
 2166POPC   C2B31520  12.543  22.864   8.224
 2166POPC   C3B31521  12.347  23.059   7.888
 2166POPC   C4B31522  12.389  23.264   7.507
 2167POPC   NC331523  23.230  14.090   9.546
 2167POPC   PO431524  23.150  14.760   9.426
 2167POPC   GL131525  23.139  14.514   9.064
 2167POPC   GL231526  22.962  14.191   9.126
 2167POPC   C1A31527  22.875  14.477   8.703
 2167POPC   D2A31528  22.906  14.597   8.299
 2167POPC   C3A31529  22.635  14.422   8.041
 2167POPC   C4A31530  22.784  14.669   7.746
 2167POPC   C1B31531  23.163  14.043   8.729
 2167POPC   C2B31532  22.991  14.072   8.295
 2167POPC   C3B31533  23.060  14.100   7.846
 2167POPC   C4B31534  23.367  14.000   7.511
 2168POPC   NC331535   2.171  19.450   9.530
 2168POPC   PO431536   2.113  20.149   9.424
 2168POPC   GL131537   2.033  20.081   9.011
 2168POPC   GL231538   2.027  19.714   9.052
 2168POPC   C1A31539   2.038  20.146   8.580
 2168POPC   D2A31540   2.181  19.950   8.218
 2168POPC   C3A31541   2.052  19.860   7.802
 2168POPC   C4A31542   2.298  19.667   7.450
 2168POPC   C1B31543   1.949  19.631   8.606
 2168POPC   C2B31544   1.738  19.371   8.293
 2168POPC   C3B31545   1.745  19.442   7.851
 2168POPC   C4B31546   1.762  19.258   7.441
 2169POPC   NC331547   6.473  25.273   9.663
 2169POPC   PO431548   7.013  25.568   9.483
 2169POPC   GL131549   6.838  25.325   9.113
 2169POPC   GL231550   6.455  25.319   9.132
 2169POPC   C1A31551   6.703  25.373   8.636
 2169POPC   D2A31552   6.423  25.169   8.333
 2169POPC   C3A31553   6.561  25.348   7.936
 2169POPC   C4A31554   6.955  25.312   7.726
 2169POPC   C1B31555   6.560  24.958   8.860
 2169POPC   C2B31556   6.786  24.822   8.473
 2169POPC   C3B31557   6.741  24.885   8.020
 2169POPC   C4B31558   6.256  24.930   7.879
 2170POPC   NC331559  11.399  17.044   9.259
 2170POPC   PO431560  11.036  16.526   9.502
 2170POPC   GL131561  11.046  16.707   9.100
 2170POPC   GL231562  11.362  16.561   9.102
 2170POPC   C1A31563  11.210  16.826   8.677
 2170POPC   D2A31564  11.499  17.005   8.377
 2170POPC   C3A31565  11.383  16.844   7.965
 2170POPC   C4A31566  11.381  16.850   7.521
 2170POPC   C1B31567  11.224  16.291   8.806
 2170POPC   C2B31568  11.357  16.275   8.381
 2170POPC   C3B31569  11.128  16.373   8.023
 2170POPC   C4B31570  11.303  16.347   7.633
 2171POPC   NC331571  38.551  13.745   9.269
 2171POPC   PO431572  38.050  13.339   9.538
 2171POPC   GL131573  38.230  13.304   9.136
 2171POPC   GL231574  38.137  13.634   8.977
 2171POPC   C1A31575  38.359  13.251   8.711
 2171POPC   D2A31576  38.650  13.336   8.364
 2171POPC   C3A31577  38.395  13.435   8.033
 2171POPC   C4A31578  38.227  13.735   7.820
 2171POPC   C1B31579  38.471  13.734   8.631
 2171POPC   C2B31580  38.531  13.874   8.222
 2171POPC   C3B31581  38.739  13.780   7.835
 2171POPC   C4B31582  38.890  13.814   7.398
 2172POPC   NC331583  32.593   3.852   9.522
 2172POPC   PO431584  32.137   3.376   9.654
 2172POPC   GL131585  32.333   3.298   9.225
 2172POPC   GL231586  32.400   3.654   9.095
 2172POPC   C1A31587  32.355   3.280   8.739
 2172POPC   D2A31588  32.215   3.477   8.356
 2172POPC   C3A31589  32.260   3.291   7.936
 2172POPC   C4A31590  32.259   3.079   7.535
 2172POPC   C1B31591  32.177   3.848   8.742
 2172POPC   C2B31592  32.171   3.982   8.301
 2172POPC   C3B31593  32.204   3.784   7.938
 2172POPC   C4B31594  32.403   3.619   7.567
 2173POPC   NC331595  16.765  14.807   9.526
 2173POPC   PO431596  16.554  15.407   9.752
 2173POPC   GL131597  16.667  15.272   9.319
 2173POPC   GL231598  16.534  15.496   9.059
 2173POPC   C1A31599  16.658  15.024   8.919
 2173POPC   D2A31600  16.748  15.299   8.581
 2173POPC   C3A31601  16.734  15.183   8.164
 2173POPC   C4A31602  16.762  14.974   7.776
 2173POPC   C1B31603  16.397  15.655   8.673
 2173POPC   C2B31604  16.287  15.414   8.305
 2173POPC   C3B31605  16.476  15.584   7.952
 2173POPC   C4B31606  16.878  15.477   7.778
 2174POPC   NC331607   9.038   7.828   9.499
 2174POPC   PO431608   9.109   8.369   9.560
 2174POPC   GL131609   9.004   8.471   9.132
 2174POPC   GL231610   8.925   8.142   9.049
 2174POPC   C1A31611   8.748   8.552   8.739
 2174POPC   D2A31612   8.707   8.291   8.356
 2174POPC   C3A31613   8.890   8.366   7.939
 2174POPC   C4A31614   8.846   8.229   7.516
 2174POPC   C1B31615   9.144   8.253   8.657
 2174POPC   C2B31616   9.176   8.063   8.256
 2174POPC   C3B31617   9.217   7.988   7.804
 2174POPC   C4B31618   9.371   8.189   7.423
 2175POPC   NC331619  15.478  42.268   9.518
 2175POPC   PO431620  15.938  42.827   9.438
 2175POPC   GL131621  15.883  42.491   9.121
 2175POPC   GL231622  16.156  42.214   9.117
 2175POPC   C1A31623  15.993  42.409   8.661
 2175POPC   D2A31624  16.256  42.446   8.263
 2175POPC   C3A31625  15.991  42.572   7.936
 2175POPC   C4A31626  15.557  42.456   8.017
 2175POPC   C1B31627  16.313  42.000   8.749
 2175POPC   C2B31628  16.340  41.935   8.303
 2175POPC   C3B31629  16.226  42.089   7.849
 2175POPC   C4B31630  16.117  41.984   7.397
 2176POPC   NC331631  31.801  17.293   9.905
 2176POPC   PO431632  32.297  17.498   9.485
 2176POPC   GL131633  32.181  17.351   9.078
 2176POPC   GL231634  32.476  17.195   9.049
 2176POPC   C1A31635  32.329  17.470   8.647
 2176POPC   D2A31636  32.262  17.757   8.287
 2176POPC   C3A31637  32.358  17.476   7.970
 2176POPC   C4A31638  32.070  17.153   7.854
 2176POPC   C1B31639  32.719  17.066   8.707
 2176POPC   C2B31640  32.719  17.217   8.305
 2176POPC   C3B31641  32.572  17.014   7.921
 2176POPC   C4B31642  32.621  17.166   7.522
 2177POPC   NC331643  13.077  36.733   9.310
 2177POPC   PO431644  12.463  37.132   9.414
 2177POPC   GL131645  12.597  36.759   9.213
 2177POPC   GL231646  12.789  36.974   8.965
 2177POPC   C1A31647  12.552  36.550   8.831
 2177POPC   D2A31648  12.672  36.826   8.477
 2177POPC   C3A31649  12.690  36.647   8.090
 2177POPC   C4A31650  12.798  36.516   7.695
 2177POPC   C1B31651  13.185  36.912   8.702
 2177POPC   C2B31652  13.308  37.075   8.294
 2177POPC   C3B31653  13.056  36.993   7.915
 2177POPC   C4B31654  13.112  36.908   7.471
 2178POPC   NC331655  34.051  24.506   9.449
 2178POPC   PO431656  33.491  24.788   9.354
 2178POPC   GL131657  33.646  24.376   9.153
 2178POPC   GL231658  33.958  24.115   9.147
 2178POPC   C1A31659  33.733  24.456   8.776
 2178POPC   D2A31660  33.539  24.583   8.455
 2178POPC   C3A31661  33.698  24.754   8.116
 2178POPC   C4A31662  33.613  24.622   7.749
 2178POPC   C1B31663  34.041  24.079   8.721
 2178POPC   C2B31664  33.769  24.135   8.362
 2178POPC   C3B31665  33.904  24.263   7.972
 2178POPC   C4B31666  34.107  24.619   7.779
 2179POPC   NC331667  15.545  32.843   9.723
 2179POPC   PO431668  14.950  32.777   9.530
 2179POPC   GL131669  15.254  32.966   9.233
 2179POPC   GL231670  15.563  32.774   9.201
 2179POPC   C1A31671  15.124  33.126   8.827
 2179POPC   D2A31672  15.307  33.216   8.426
 2179POPC   C3A31673  15.057  33.188   8.062
 2179POPC   C4A31674  15.135  33.208   7.639
 2179POPC   C1B31675  15.618  32.972   8.782
 2179POPC   C2B31676  15.603  32.803   8.333
 2179POPC   C3B31677  15.567  33.053   7.947
 2179POPC   C4B31678  15.598  32.914   7.510
 2180POPC   NC331679  12.482  42.929   9.536
 2180POPC   PO431680  13.091  43.306   9.592
 2180POPC   GL131681  12.785  43.269   9.238
 2180POPC   GL231682  12.797  42.952   9.132
 2180POPC   C1A31683  12.739  43.321   8.788
 2180POPC   D2A31684  12.995  43.248   8.434
 2180POPC   C3A31685  12.837  43.444   8.117
 2180POPC   C4A31686  12.962  43.369   7.718
 2180POPC   C1B31687  13.050  42.858   8.769
 2180POPC   C2B31688  12.924  42.737   8.374
 2180POPC   C3B31689  12.855  42.903   7.969
 2180POPC   C4B31690  12.706  42.674   7.616
 2181POPC   NC331691  34.467   0.093   9.563
 2181POPC   PO431692  34.445  44.420   9.604
 2181POPC   GL131693  34.351  44.587   9.203
 2181POPC   GL231694  34.606  44.855   9.082
 2181POPC   C1A31695  34.311  44.562   8.746
 2181POPC   D2A31696  34.563  44.664   8.407
 2181POPC   C3A31697  34.431  44.467   8.060
 2181POPC   C4A31698  34.466  44.745   7.729
 2181POPC   C1B31699  34.528   0.095   8.685
 2181POPC   C2B31700  34.711   0.270   8.298
 2181POPC   C3B31701  34.728   0.183   7.839
 2181POPC   C4B31702  34.474   0.166   7.425
 2182POPC   NC331703  11.640  31.335   9.519
 2182POPC   PO431704  12.269  31.660   9.661
 2182POPC   GL131705  12.174  31.666   9.215
 2182POPC   GL231706  12.069  31.310   9.207
 2182POPC   C1A31707  11.903  31.614   8.818
 2182POPC   D2A31708  11.781  31.432   8.371
 2182POPC   C3A31709  12.007  31.519   7.937
 2182POPC   C4A31710  11.902  31.592   7.455
 2182POPC   C1B31711  11.999  31.120   8.794
 2182POPC   C2B31712  12.189  31.128   8.400
 2182POPC   C3B31713  12.015  30.999   8.021
 2182POPC   C4B31714  12.131  31.012   7.634
 2183POPC   NC331715  29.254  25.851   9.522
 2183POPC   PO431716  29.065  26.478   9.494
 2183POPC   GL131717  29.183  26.183   9.150
 2183POPC   GL231718  28.969  25.831   9.125
 2183POPC   C1A31719  29.368  26.002   8.798
 2183POPC   D2A31720  29.480  26.152   8.407
 2183POPC   C3A31721  29.245  26.091   8.050
 2183POPC   C4A31722  29.172  26.307   7.741
 2183POPC   C1B31723  28.842  25.964   8.797
 2183POPC   C2B31724  28.978  25.972   8.443
 2183POPC   C3B31725  28.812  25.808   8.075
 2183POPC   C4B31726  28.855  25.900   7.668
 2184POPC   NC331727  35.492  32.627   9.722
 2184POPC   PO431728  35.091  32.218   9.739
 2184POPC   GL131729  35.102  32.250   9.220
 2184POPC   GL231730  35.484  32.264   9.117
 2184POPC   C1A31731  35.226  32.072   8.762
 2184POPC   D2A31732  35.418  32.267   8.400
 2184POPC   C3A31733  35.141  32.294   8.058
 2184POPC   C4A31734  35.160  32.108   7.659
 2184POPC   C1B31735  35.579  32.589   8.791
 2184POPC   C2B31736  35.692  32.804   8.429
 2184POPC   C3B31737  35.554  32.638   8.051
 2184POPC   C4B31738  35.413  32.534   7.659
 2185POPC   NC331739  35.029  18.467   9.512
 2185POPC   PO431740  34.485  18.066   9.562
 2185POPC   GL131741  34.640  18.314   9.214
 2185POPC   GL231742  34.632  18.695   9.263
 2185POPC   C1A31743  34.902  18.450   8.863
 2185POPC   D2A31744  34.792  18.587   8.455
 2185POPC   C3A31745  34.801  18.273   8.104
 2185POPC   C4A31746  34.663  18.323   7.677
 2185POPC   C1B31747  34.396  18.633   8.869
 2185POPC   C2B31748  34.251  18.510   8.456
 2185POPC   C3B31749  34.317  18.454   8.030
 2185POPC   C4B31750  34.340  18.723   7.679
 2186POPC   NC331751   0.837   8.618   9.745
 2186POPC   PO431752   1.254   9.065   9.476
 2186POPC   GL131753   1.236   9.098   9.080
 2186POPC   GL231754   0.879   9.142   9.125
 2186POPC   C1A31755   1.418   8.900   8.729
 2186POPC   D2A31756   1.440   9.002   8.317
 2186POPC   C3A31757   1.264   8.738   7.990
 2186POPC   C4A31758   1.316   9.031   7.690
 2186POPC   C1B31759   0.928   9.069   8.693
 2186POPC   C2B31760   0.908   8.981   8.275
 2186POPC   C3B31761   0.868   9.134   7.892
 2186POPC   C4B31762   0.991   9.508   7.751
 2187POPC   NC331763  15.701   1.468   9.623
 2187POPC   PO431764  15.942   2.085   9.665
 2187POPC   GL131765  15.983   2.008   9.225
 2187POPC   GL231766  16.271   1.830   9.185
 2187POPC   C1A31767  16.007   1.970   8.755
 2187POPC   D2A31768  15.868   1.984   8.306
 2187POPC   C3A31769  15.976   2.162   7.897
 2187POPC   C4A31770  15.686   2.354   7.571
 2187POPC   C1B31771  16.468   1.698   8.790
 2187POPC   C2B31772  16.309   1.741   8.391
 2187POPC   C3B31773  16.278   1.571   8.018
 2187POPC   C4B31774  16.352   1.742   7.652
 2188POPC   NC331775  42.529  32.364   9.444
 2188POPC   PO431776  42.000  31.935   9.537
 2188POPC   GL131777  42.262  31.884   9.146
 2188POPC   GL231778  42.637  31.932   9.140
 2188POPC   C1A31779  42.136  32.138   8.777
 2188POPC   D2A31780  42.306  32.427   8.450
 2188POPC   C3A31781  42.208  32.393   7.980
 2188POPC   C4A31782  41.970  32.587   7.613
 2188POPC   C1B31783  42.629  32.087   8.735
 2188POPC   C2B31784  42.402  31.940   8.377
 2188POPC   C3B31785  42.579  32.051   8.023
 2188POPC   C4B31786  42.517  31.919   7.679
 2189POPC   NC331787   8.413  12.050   9.872
 2189POPC   PO431788   9.003  12.012   9.613
 2189POPC   GL131789   8.953  11.860   9.164
 2189POPC   GL231790   8.806  12.159   9.004
 2189POPC   C1A31791   9.020  11.784   8.726
 2189POPC   D2A31792   8.761  11.923   8.390
 2189POPC   C3A31793   8.957  12.001   7.986
 2189POPC   C4A31794   9.165  12.064   7.576
 2189POPC   C1B31795   8.931  12.358   8.638
 2189POPC   C2B31796   8.829  12.557   8.262
 2189POPC   C3B31797   8.958  12.478   7.829
 2189POPC   C4B31798   8.712  12.276   7.540
 2190POPC   NC331799  15.245  19.378   9.505
 2190POPC   PO431800  14.674  19.029   9.685
 2190POPC   GL131801  15.004  18.967   9.269
 2190POPC   GL231802  15.383  19.005   9.186
 2190POPC   C1A31803  15.111  18.814   8.810
 2190POPC   D2A31804  15.353  18.912   8.420
 2190POPC   C3A31805  15.195  18.874   7.998
 2190POPC   C4A31806  15.217  18.996   7.543
 2190POPC   C1B31807  15.627  19.109   8.818
 2190POPC   C2B31808  15.556  19.388   8.450
 2190POPC   C3B31809  15.609  19.232   8.016
 2190POPC   C4B31810  15.807  19.295   7.596
 2191POPC   NC331811  36.747  16.804   9.440
 2191POPC   PO431812  37.387  16.543   9.535
 2191POPC   GL131813  37.091  16.417   9.176
 2191POPC   GL231814  36.712  16.345   9.169
 2191POPC   C1A31815  36.956  16.602   8.795
 2191POPC   D2A31816  36.775  16.729   8.428
 2191POPC   C3A31817  36.957  16.558   8.080
 2191POPC   C4A31818  36.993  16.626   7.681
 2191POPC   C1B31819  36.515  16.336   8.746
 2191POPC   C2B31820  36.451  16.365   8.284
 2191POPC   C3B31821  36.557  16.372   7.815
 2191POPC   C4B31822  36.574  16.460   7.327
 2192POPC   NC331823  25.561   7.164   9.509
 2192POPC   PO431824  24.908   7.413   9.414
 2192POPC   GL131825  25.094   7.563   9.026
 2192POPC   GL231826  25.409   7.577   9.146
 2192POPC   C1A31827  25.249   7.569   8.575
 2192POPC   D2A31828  25.573   7.323   8.346
 2192POPC   C3A31829  25.506   7.251   7.872
 2192POPC   C4A31830  25.213   7.270   7.473
 2192POPC   C1B31831  25.591   7.855   8.827
 2192POPC   C2B31832  25.679   7.882   8.408
 2192POPC   C3B31833  25.449   7.739   8.098
 2192POPC   C4B31834  25.239   7.695   7.762
 2193POPC   NC331835  12.334  36.448   9.534
 2193POPC   PO431836  12.309  35.735   9.567
 2193POPC   GL131837  12.050  35.863   9.210
 2193POPC   GL231838  12.002  36.203   9.173
 2193POPC   C1A31839  11.970  35.852   8.761
 2193POPC   D2A31840  12.170  36.040   8.388
 2193POPC   C3A31841  11.997  36.060   7.999
 2193POPC   C4A31842  12.198  35.874   7.649
 2193POPC   C1B31843  12.057  36.355   8.756
 2193POPC   C2B31844  12.208  36.576   8.409
 2193POPC   C3B31845  12.185  36.549   7.980
 2193POPC   C4B31846  12.296  36.363   7.601
 2194POPC   NC331847  37.583  38.986   9.525
 2194POPC   PO431848  37.998  39.428   9.268
 2194POPC   GL131849  37.647  39.324   9.058
 2194POPC   GL231850  37.389  39.594   9.178
 2194POPC   C1A31851  37.757  39.303   8.602
 2194POPC   D2A31852  38.041  39.327   8.245
 2194POPC   C3A31853  37.869  39.173   7.869
 2194POPC   C4A31854  37.809  39.401   7.483
 2194POPC   C1B31855  37.245  39.425   8.778
 2194POPC   C2B31856  37.240  39.128   8.467
 2194POPC   C3B31857  37.269  39.192   8.049
 2194POPC   C4B31858  37.393  39.183   7.638
 2195POPC   NC331859   1.449   7.981   9.469
 2195POPC   PO431860   1.181   7.308   9.571
 2195POPC   GL131861   1.460   7.486   9.267
 2195POPC   GL231862   1.215   7.694   9.135
 2195POPC   C1A31863   1.575   7.415   8.849
 2195POPC   D2A31864   1.385   7.651   8.532
 2195POPC   C3A31865   1.557   7.582   8.120
 2195POPC   C4A31866   1.374   7.606   7.704
 2195POPC   C1B31867   0.945   7.647   8.836
 2195POPC   C2B31868   0.834   7.557   8.439
 2195POPC   C3B31869   0.959   7.602   8.025
 2195POPC   C4B31870   0.918   7.830   7.644
 2196POPC   NC331871  13.167  39.633   9.488
 2196POPC   PO431872  13.832  39.436   9.400
 2196POPC   GL131873  13.766  39.179   9.014
 2196POPC   GL231874  13.418  39.073   8.975
 2196POPC   C1A31875  13.748  39.045   8.584
 2196POPC   D2A31876  13.400  39.006   8.292
 2196POPC   C3A31877  13.604  39.038   7.934
 2196POPC   C4A31878  13.993  39.167   7.790
 2196POPC   C1B31879  13.386  39.401   8.655
 2196POPC   C2B31880  13.660  39.457   8.289
 2196POPC   C3B31881  13.551  39.550   7.902
 2196POPC   C4B31882  13.546  39.355   7.508
 2197POPC   NC331883   6.267  27.782   9.530
 2197POPC   PO431884   6.840  27.471   9.523
 2197POPC   GL131885   6.628  27.537   9.167
 2197POPC   GL231886   6.614  27.889   9.186
 2197POPC   C1A31887   6.752  27.620   8.761
 2197POPC   D2A31888   6.914  27.705   8.377
 2197POPC   C3A31889   6.965  27.420   8.066
 2197POPC   C4A31890   6.828  27.542   7.677
 2197POPC   C1B31891   6.337  27.912   8.844
 2197POPC   C2B31892   6.395  27.776   8.413
 2197POPC   C3B31893   6.599  27.899   8.017
 2197POPC   C4B31894   6.400  28.137   7.702
 2198POPC   NC331895  31.196  42.578   9.488
 2198POPC   PO431896  31.706  42.113   9.402
 2198POPC   GL131897  31.375  42.258   9.135
 2198POPC   GL231898  31.521  42.596   9.093
 2198POPC   C1A31899  31.169  42.435   8.764
 2198POPC   D2A31900  31.319  42.430   8.343
 2198POPC   C3A31901  31.213  42.572   7.937
 2198POPC   C4A31902  31.323  42.230   7.620
 2198POPC   C1B31903  31.706  42.470   8.712
 2198POPC   C2B31904  31.794  42.579   8.277
 2198POPC   C3B31905  31.740  42.381   7.896
 2198POPC   C4B31906  31.840  42.302   7.454
 2199POPC   NC331907  12.162  16.419   9.424
 2199POPC   PO431908  11.853  17.093   9.384
 2199POPC   GL131909  11.987  16.785   9.062
 2199POPC   GL231910  11.837  16.432   9.054
 2199POPC   C1A31911  12.335  16.621   8.787
 2199POPC   D2A31912  12.427  16.576   8.352
 2199POPC   C3A31913  12.151  16.882   8.152
 2199POPC   C4A31914  11.820  17.165   7.992
 2199POPC   C1B31915  11.691  16.568   8.673
 2199POPC   C2B31916  11.858  16.475   8.278
 2199POPC   C3B31917  11.748  16.301   7.891
 2199POPC   C4B31918  11.787  16.366   7.425
 2200POPC   NC331919   6.116  10.349   9.492
 2200POPC   PO431920   5.427  10.368   9.478
 2200POPC   GL131921   5.752  10.483   9.139
 2200POPC   GL231922   5.923  10.823   9.130
 2200POPC   C1A31923   5.722  10.576   8.684
 2200POPC   D2A31924   5.745  10.292   8.324
 2200POPC   C3A31925   5.709  10.452   7.906
 2200POPC   C4A31926   5.673  10.883   7.778
 2200POPC   C1B31927   6.204  10.635   8.804
 2200POPC   C2B31928   6.207  10.486   8.423
 2200POPC   C3B31929   6.065  10.772   8.135
 2200POPC   C4B31930   6.155  10.697   7.742
 2201POPC   NC331931  20.463   8.398   9.542
 2201POPC   PO431932  20.321   7.784   9.811
 2201POPC   GL131933  20.489   7.881   9.307
 2201POPC   GL231934  20.706   8.152   9.169
 2201POPC   C1A31935  20.589   7.877   8.763
 2201POPC   D2A31936  20.424   7.931   8.283
 2201POPC   C3A31937  20.609   8.028   7.837
 2201POPC   C4A31938  20.372   8.011   7.418
 2201POPC   C1B31939  20.942   8.297   8.804
 2201POPC   C2B31940  20.733   8.321   8.417
 2201POPC   C3B31941  20.622   8.506   8.035
 2201POPC   C4B31942  20.929   8.547   7.721
 2202POPC   NC331943   1.062   5.940   9.495
 2202POPC   PO431944   1.623   5.686   9.407
 2202POPC   GL131945   1.314   5.750   9.101
 2202POPC   GL231946   0.989   5.539   9.192
 2202POPC   C1A31947   1.241   6.044   8.778
 2202POPC   D2A31948   1.117   5.844   8.411
 2202POPC   C3A31949   1.283   5.911   8.028
 2202POPC   C4A31950   1.146   6.278   7.796
 2202POPC   C1B31951   0.834   5.714   8.822
 2202POPC   C2B31952   0.741   5.497   8.435
 2202POPC   C3B31953   0.929   5.510   8.030
 2202POPC   C4B31954   0.898   5.779   7.688
 2203POPC   NC331955  19.866  24.167   9.579
 2203POPC   PO431956  19.355  23.767   9.510
 2203POPC   GL131957  19.596  24.010   9.150
 2203POPC   GL231958  19.984  24.059   9.114
 2203POPC   C1A31959  19.736  23.884   8.703
 2203POPC   D2A31960  19.840  23.753   8.270
 2203POPC   C3A31961  19.666  24.005   7.926
 2203POPC   C4A31962  19.583  23.870   7.492
 2203POPC   C1B31963  20.238  24.055   8.753
 2203POPC   C2B31964  20.334  23.920   8.341
 2203POPC   C3B31965  20.191  23.978   7.917
 2203POPC   C4B31966  20.180  23.825   7.488
 2204POPC   NC331967  29.348  40.578   9.474
 2204POPC   PO431968  29.371  41.198   9.246
 2204POPC   GL131969  29.322  40.941   8.941
 2204POPC   GL231970  29.089  40.672   9.029
 2204POPC   C1A31971  28.991  41.062   8.673
 2204POPC   D2A31972  28.914  41.156   8.260
 2204POPC   C3A31973  29.142  40.867   8.023
 2204POPC   C4A31974  29.332  40.953   7.634
 2204POPC   C1B31975  29.303  40.469   8.688
 2204POPC   C2B31976  29.246  40.379   8.248
 2204POPC   C3B31977  29.450  40.501   7.867
 2204POPC   C4B31978  29.354  40.510   7.403
 2205POPC   NC331979  13.280   8.954   9.454
 2205POPC   PO431980  12.688   9.144   9.533
 2205POPC   GL131981  12.637   8.920   9.164
 2205POPC   GL231982  12.977   8.856   9.030
 2205POPC   C1A31983  12.498   8.816   8.752
 2205POPC   D2A31984  12.418   8.971   8.341
 2205POPC   C3A31985  12.766   8.925   8.056
 2205POPC   C4A31986  12.793   9.126   7.666
 2205POPC   C1B31987  12.945   9.127   8.659
 2205POPC   C2B31988  13.157   9.191   8.279
 2205POPC   C3B31989  13.256   9.083   7.856
 2205POPC   C4B31990  13.243   9.242   7.421
 2206POPC   NC331991  37.700  20.205   9.476
 2206POPC   PO431992  37.744  19.551   9.559
 2206POPC   GL131993  37.516  19.656   9.174
 2206POPC   GL231994  37.350  19.397   8.988
 2206POPC   C1A31995  37.487  19.882   8.770
 2206POPC   D2A31996  37.643  20.177   8.430
 2206POPC   C3A31997  37.787  19.918   8.102
 2206POPC   C4A31998  37.589  19.811   7.743
 2206POPC   C1B31999  37.229  19.464   8.578
 2206POPC   C2B32000  37.399  19.579   8.200
 2206POPC   C3B32001  37.259  19.426   7.816
 2206POPC   C4B32002  37.189  19.369   7.387
 2207POPC   NC332003   3.651  23.123   9.438
 2207POPC   PO432004   3.273  22.557   9.453
 2207POPC   GL132005   3.533  22.733   9.144
 2207POPC   GL232006   3.824  22.658   9.048
 2207POPC   C1A32007   3.545  23.022   8.798
 2207POPC   D2A32008   3.364  22.946   8.435
 2207POPC   C3A32009   3.520  23.080   8.097
 2207POPC   C4A32010   3.470  23.157   7.654
 2207POPC   C1B32011   3.614  22.474   8.676
 2207POPC   C2B32012   3.458  22.493   8.233
 2207POPC   C3B32013   3.541  22.668   7.824
 2207POPC   C4B32014   3.643  22.714   7.400
 2208POPC   NC332015   8.536  27.950   9.486
 2208POPC   PO432016   9.038  28.470   9.421
 2208POPC   GL132017   8.913  28.364   9.031
 2208POPC   GL232018   8.686  28.085   9.034
 2208POPC   C1A32019   9.092  28.326   8.642
 2208POPC   D2A32020   9.377  28.436   8.340
 2208POPC   C3A32021   9.278  28.422   7.908
 2208POPC   C4A32022   8.991  28.659   7.669
 2208POPC   C1B32023   8.905  27.845   8.734
 2208POPC   C2B32024   8.894  27.942   8.361
 2208POPC   C3B32025   8.994  28.022   8.024
 2208POPC   C4B32026   8.815  28.184   7.726
 2209POPC   NC332027  12.871  22.525   9.574
 2209POPC   PO432028  12.581  21.937   9.422
 2209POPC   GL132029  12.677  22.273   9.135
 2209POPC   GL232030  13.039  22.315   9.136
 2209POPC   C1A32031  12.819  22.188   8.695
 2209POPC   D2A32032  13.087  22.348   8.378
 2209POPC   C3A32033  12.865  22.291   7.979
 2209POPC   C4A32034  12.512  22.125   7.765
 2209POPC   C1B32035  13.296  22.024   8.849
 2209POPC   C2B32036  13.141  21.812   8.467
 2209POPC   C3B32037  13.003  21.811   8.040
 2209POPC   C4B32038  13.102  22.002   7.632
 2210POPC   NC332039  20.861  24.266   9.615
 2210POPC   PO432040  20.219  24.474   9.588
 2210POPC   GL132041  20.372  24.483   9.164
 2210POPC   GL232042  20.714  24.645   9.064
 2210POPC   C1A32043  20.318  24.555   8.742
 2210POPC   D2A32044  20.616  24.544   8.454
 2210POPC   C3A32045  20.455  24.366   8.116
 2210POPC   C4A32046  20.379  24.471   7.716
 2210POPC   C1B32047  20.713  24.231   8.849
 2210POPC   C2B32048  20.815  24.072   8.438
 2210POPC   C3B32049  20.901  24.157   7.996
 2210POPC   C4B32050  20.654  24.062   7.629
 2211POPC   NC332051  37.019  14.047   9.482
 2211POPC   PO432052  36.769  14.725   9.570
 2211POPC   GL132053  36.762  14.444   9.228
 2211POPC   GL232054  37.072  14.402   9.143
 2211POPC   C1A32055  36.711  14.442   8.793
 2211POPC   D2A32056  36.877  14.308   8.413
 2211POPC   C3A32057  36.588  14.305   8.106
 2211POPC   C4A32058  36.690  14.438   7.720
 2211POPC   C1B32059  37.241  14.681   8.886
 2211POPC   C2B32060  37.281  14.702   8.432
 2211POPC   C3B32061  37.073  14.587   8.025
 2211POPC   C4B32062  37.175  14.471   7.574
 2212POPC   NC332063  33.052  38.043   9.604
 2212POPC   PO432064  33.239  38.631   9.786
 2212POPC   GL132065  32.991  38.507   9.372
 2212POPC   GL232066  33.266  38.399   9.146
 2212POPC   C1A32067  32.819  38.350   8.929
 2212POPC   D2A32068  32.966  38.214   8.489
 2212POPC   C3A32069  32.738  38.303   8.072
 2212POPC   C4A32070  32.575  38.671   7.835
 2212POPC   C1B32071  33.178  38.641   8.721
 2212POPC   C2B32072  33.055  38.687   8.260
 2212POPC   C3B32073  33.132  38.534   7.819
 2212POPC   C4B32074  33.331  38.653   7.412
 2213POPC   NC332075   4.242  20.835   9.516
 2213POPC   PO432076   4.694  20.312   9.327
 2213POPC   GL132077   4.406  20.617   9.097
 2213POPC   GL232078   4.033  20.623   9.118
 2213POPC   C1A32079   4.446  20.898   8.773
 2213POPC   D2A32080   4.725  20.809   8.434
 2213POPC   C3A32081   4.465  20.736   8.021
 2213POPC   C4A32082   4.348  20.319   7.787
 2213POPC   C1B32083   3.923  20.803   8.762
 2213POPC   C2B32084   4.124  20.619   8.431
 2213POPC   C3B32085   3.961  20.582   8.050
 2213POPC   C4B32086   4.026  20.765   7.739
 2214POPC   NC332087  27.286  19.224   9.317
 2214POPC   PO432088  26.909  18.828   9.717
 2214POPC   GL132089  26.718  18.780   9.208
 2214POPC   GL232090  26.890  19.053   9.029
 2214POPC   C1A32091  26.587  18.730   8.766
 2214POPC   D2A32092  26.871  18.609   8.411
 2214POPC   C3A32093  26.985  18.869   8.031
 2214POPC   C4A32094  26.743  19.048   7.679
 2214POPC   C1B32095  26.918  19.362   8.701
 2214POPC   C2B32096  27.078  19.305   8.309
 2214POPC   C3B32097  27.291  19.302   7.938
 2214POPC   C4B32098  27.107  19.471   7.592
 2215POPC   NC332099  17.565  22.966   9.568
 2215POPC   PO432100  17.894  23.502   9.245
 2215POPC   GL132101  17.693  23.147   9.090
 2215POPC   GL232102  17.362  22.989   9.112
 2215POPC   C1A32103  17.693  22.931   8.697
 2215POPC   D2A32104  17.513  23.055   8.302
 2215POPC   C3A32105  17.450  22.779   7.974
 2215POPC   C4A32106  17.841  22.755   7.758
 2215POPC   C1B32107  17.173  22.985   8.715
 2215POPC   C2B32108  17.005  22.977   8.303
 2215POPC   C3B32109  17.152  23.222   7.950
 2215POPC   C4B32110  17.558  23.213   7.738
 2216POPC   NC332111   3.772  36.301   9.429
 2216POPC   PO432112   3.236  35.790   9.428
 2216POPC   GL132113   3.495  36.011   9.114
 2216POPC   GL232114   3.808  35.848   9.112
 2216POPC   C1A32115   3.605  36.328   8.771
 2216POPC   D2A32116   3.400  36.552   8.407
 2216POPC   C3A32117   3.472  36.304   8.042
 2216POPC   C4A32118   3.212  36.130   7.699
 2216POPC   C1B32119   3.651  35.807   8.682
 2216POPC   C2B32120   3.751  35.912   8.268
 2216POPC   C3B32121   3.554  35.799   7.891
 2216POPC   C4B32122   3.586  35.816   7.448
 2217POPC   NC332123  31.016  23.242   9.488
 2217POPC   PO432124  31.659  22.804   9.494
 2217POPC   GL132125  31.579  22.919   9.108
 2217POPC   GL232126  31.287  23.040   9.058
 2217POPC   C1A32127  31.671  23.045   8.708
 2217POPC   D2A32128  31.576  22.819   8.357
 2217POPC   C3A32129  31.824  22.777   8.052
 2217POPC   C4A32130  31.710  23.135   7.821
 2217POPC   C1B32131  31.179  22.780   8.725
 2217POPC   C2B32132  31.039  22.818   8.318
 2217POPC   C3B32133  31.262  22.969   7.988
 2217POPC   C4B32134  31.368  22.738   7.694
 2218POPC   NC332135  33.502  28.862   9.919
 2218POPC   PO432136  33.929  29.173   9.541
 2218POPC   GL132137  33.800  29.201   9.146
 2218POPC   GL232138  33.843  28.839   9.124
 2218POPC   C1A32139  33.941  29.205   8.741
 2218POPC   D2A32140  33.734  29.146   8.367
 2218POPC   C3A32141  33.912  29.149   7.994
 2218POPC   C4A32142  33.915  29.543   7.827
 2218POPC   C1B32143  33.516  28.896   8.806
 2218POPC   C2B32144  33.332  28.868   8.398
 2218POPC   C3B32145  33.511  28.802   8.004
 2218POPC   C4B32146  33.546  28.659   7.583
 2219POPC   NC332147  34.224   1.724   9.460
 2219POPC   PO432148  33.651   2.128   9.522
 2219POPC   GL132149  33.763   1.880   9.154
 2219POPC   GL232150  34.087   2.054   9.094
 2219POPC   C1A32151  33.632   1.849   8.692
 2219POPC   D2A32152  33.769   2.026   8.259
 2219POPC   C3A32153  33.557   2.328   7.949
 2219POPC   C4A32154  33.492   2.290   7.471
 2219POPC   C1B32155  34.137   1.782   8.748
 2219POPC   C2B32156  33.956   1.558   8.383
 2219POPC   C3B32157  34.013   1.676   7.972
 2219POPC   C4B32158  33.824   1.976   7.686
 2220POPC   NC332159  42.149  10.713   9.781
 2220POPC   PO432160  42.583  11.164   9.534
 2220POPC   GL132161  42.556  11.174   9.077
 2220POPC   GL232162  42.244  11.283   9.057
 2220POPC   C1A32163  42.492  11.206   8.637
 2220POPC   D2A32164  42.764  11.265   8.330
 2220POPC   C3A32165  42.509  11.263   7.997
 2220POPC   C4A32166  42.390  11.631   7.770
 2220POPC   C1B32167  41.994  11.424   8.703
 2220POPC   C2B32168  42.068  11.378   8.247
 2220POPC   C3B32169  41.980  11.302   7.814
 2220POPC   C4B32170  42.063  10.980   7.452
 2221POPC   NC332171  39.853  10.714   9.486
 2221POPC   PO432172  40.468  10.277   9.444
 2221POPC   GL132173  40.260  10.308   9.060
 2221POPC   GL232174  40.151  10.681   9.066
 2221POPC   C1A32175  39.977  10.373   8.701
 2221POPC   D2A32176  39.861  10.769   8.491
 2221POPC   C3A32177  39.893  10.727   8.092
 2221POPC   C4A32178  39.958  10.323   7.912
 2221POPC   C1B32179  40.351  10.712   8.665
 2221POPC   C2B32180  40.340  10.499   8.264
 2221POPC   C3B32181  40.329  10.652   7.848
 2221POPC   C4B32182  40.250  11.027   7.730
 2222POPC   NC332183  30.910  24.545   9.866
 2222POPC   PO432184  31.086  24.636   9.231
 2222POPC   GL132185  30.751  24.662   9.010
 2222POPC   GL232186  30.595  24.354   8.934
 2222POPC   C1A32187  30.763  24.650   8.569
 2222POPC   D2A32188  30.473  24.406   8.367
 2222POPC   C3A32189  30.445  24.592   7.992
 2222POPC   C4A32190  30.820  24.718   7.851
 2222POPC   C1B32191  30.876  24.170   8.686
 2222POPC   C2B32192  30.788  24.002   8.303
 2222POPC   C3B32193  30.710  24.151   7.922
 2222POPC   C4B32194  30.989  23.903   7.698
 2223POPC   NC332195  15.883   8.537   9.385
 2223POPC   PO432196  15.883   7.919   9.489
 2223POPC   GL132197  16.003   8.091   9.061
 2223POPC   GL232198  16.056   8.432   8.922
 2223POPC   C1A32199  16.025   8.002   8.610
 2223POPC   D2A32200  15.991   8.279   8.242
 2223POPC   C3A32201  16.020   8.114   7.804
 2223POPC   C4A32202  16.406   7.843   7.625
 2223POPC   C1B32203  15.671   8.365   8.666
 2223POPC   C2B32204  15.548   8.510   8.258
 2223POPC   C3B32205  15.676   8.623   7.839
 2223POPC   C4B32206  15.686   8.411   7.467
 2224POPC   NC332207   0.226  33.903   9.532
 2224POPC   PO432208   0.803  33.588   9.531
 2224POPC   GL132209   0.622  33.705   9.153
 2224POPC   GL232210   0.323  33.535   9.156
 2224POPC   C1A32211   0.496  33.840   8.728
 2224POPC   D2A32212   0.559  33.693   8.290
 2224POPC   C3A32213   0.578  33.867   7.834
 2224POPC   C4A32214   0.433  33.833   7.384
 2224POPC   C1B32215   0.183  33.430   8.745
 2224POPC   C2B32216   0.159  33.358   8.293
 2224POPC   C3B32217   0.171  33.544   7.869
 2224POPC   C4B32218  44.997  33.551   7.430
 2225POPC   NC332219   4.513  36.593   9.415
 2225POPC   PO432220   4.144  35.999   9.467
 2225POPC   GL132221   4.226  36.228   9.130
 2225POPC   GL232222   4.531  36.025   9.071
 2225POPC   C1A32223   4.098  36.057   8.739
 2225POPC   D2A32224   4.183  36.214   8.352
 2225POPC   C3A32225   4.207  35.966   8.028
 2225POPC   C4A32226   3.898  36.099   7.735
 2225POPC   C1B32227   4.600  36.066   8.623
 2225POPC   C2B32228   4.657  36.373   8.274
 2225POPC   C3B32229   4.513  36.333   7.851
 2225POPC   C4B32230   4.453  35.987   7.579
 2226POPC   NC332231   1.285  32.568   9.569
 2226POPC   PO432232   0.975  33.074   9.775
 2226POPC   GL132233   1.146  33.029   9.303
 2226POPC   GL232234   1.017  32.762   9.135
 2226POPC   C1A32235   1.124  33.133   8.809
 2226POPC   D2A32236   1.034  32.886   8.422
 2226POPC   C3A32237   1.177  33.107   8.042
 2226POPC   C4A32238   1.044  33.174   7.598
 2226POPC   C1B32239   1.419  32.736   8.857
 2226POPC   C2B32240   1.521  32.784   8.420
 2226POPC   C3B32241   1.432  32.644   8.006
 2226POPC   C4B32242   1.474  32.849   7.662
 2227POPC   NC332243   4.059  34.690   9.422
 2227POPC   PO432244   3.438  34.879   9.566
 2227POPC   GL132245   3.385  34.524   9.198
 2227POPC   GL232246   3.650  34.599   9.155
 2227POPC   C1A32247   3.612  34.291   8.786
 2227POPC   D2A32248   3.940  34.478   8.477
 2227POPC   C3A32249   3.765  34.484   8.080
 2227POPC   C4A32250   3.620  34.385   7.681
 2227POPC   C1B32251   3.575  34.785   8.750
 2227POPC   C2B32252   3.638  34.933   8.351
 2227POPC   C3B32253   3.452  34.862   7.944
 2227POPC   C4B32254   3.651  34.864   7.549
 2228POPC   NC332255  25.299  26.214   9.719
 2228POPC   PO432256  25.149  25.618   9.548
 2228POPC   GL132257  25.342  25.865   9.223
 2228POPC   GL232258  25.433  26.219   9.189
 2228POPC   C1A32259  25.458  25.871   8.790
 2228POPC   D2A32260  25.264  25.964   8.391
 2228POPC   C3A32261  25.409  25.782   7.999
 2228POPC   C4A32262  25.324  25.826   7.549
 2228POPC   C1B32263  25.282  26.348   8.751
 2228POPC   C2B32264  25.223  26.462   8.287
 2228POPC   C3B32265  25.354  26.274   7.844
 2228POPC   C4B32266  25.460  26.295   7.352
 2229POPC   NC332267  30.101  25.612   9.222
 2229POPC   PO432268  29.758  25.172   9.542
 2229POPC   GL132269  29.711  25.146   9.095
 2229POPC   GL232270  30.022  25.195   8.931
 2229POPC   C1A32271  29.650  25.367   8.666
 2229POPC   D2A32272  29.974  25.450   8.348
 2229POPC   C3A32273  29.779  25.357   7.968
 2229POPC   C4A32274  29.609  25.446   7.592
 2229POPC   C1B32275  30.400  25.373   8.690
 2229POPC   C2B32276  30.469  25.726   8.412
 2229POPC   C3B32277  30.296  25.787   8.022
 2229POPC   C4B32278  30.178  25.546   7.688
 2230POPC   NC332279  24.229  14.063   9.509
 2230POPC   PO432280  24.712  13.396   9.412
 2230POPC   GL132281  24.553  13.671   9.080
 2230POPC   GL232282  24.221  13.793   9.095
 2230POPC   C1A32283  24.726  13.651   8.670
 2230POPC   D2A32284  24.583  13.391   8.358
 2230POPC   C3A32285  24.551  13.586   7.935
 2230POPC   C4A32286  24.282  13.445   7.607
 2230POPC   C1B32287  24.203  13.602   8.714
 2230POPC   C2B32288  24.276  13.792   8.340
 2230POPC   C3B32289  24.057  13.823   7.950
 2230POPC   C4B32290  23.823  13.721   7.581
 2231POPC   NC332291   0.612  40.213   9.572
 2231POPC   PO432292  44.974  40.220   9.587
 2231POPC   GL132293   0.258  39.943   9.273
 2231POPC   GL232294   0.638  39.842   9.206
 2231POPC   C1A32295   0.209  39.828   8.829
 2231POPC   D2A32296   0.167  39.994   8.410
 2231POPC   C3A32297   0.309  39.787   8.063
 2231POPC   C4A32298   0.441  39.804   7.696
 2231POPC   C1B32299   0.640  40.131   8.860
 2231POPC   C2B32300   0.703  40.305   8.472
 2231POPC   C3B32301   0.624  40.188   8.087
 2231POPC   C4B32302   0.588  40.282   7.675
 2232POPC   NC332303  20.959   1.629   9.462
 2232POPC   PO432304  21.532   1.210   9.516
 2232POPC   GL132305  21.483   1.381   9.118
 2232POPC   GL232306  21.131   1.279   9.089
 2232POPC   C1A32307  21.685   1.273   8.714
 2232POPC   D2A32308  21.774   1.381   8.289
 2232POPC   C3A32309  21.460   1.387   7.990
 2232POPC   C4A32310  21.346   1.167   7.649
 2232POPC   C1B32311  21.222   1.514   8.695
 2232POPC   C2B32312  21.051   1.513   8.260
 2232POPC   C3B32313  21.117   1.721   7.829
 2232POPC   C4B32314  21.109   1.515   7.398
 2233POPC   NC332315  20.683  29.866   9.720
 2233POPC   PO432316  20.283  30.301   9.484
 2233POPC   GL132317  20.534  30.042   9.214
 2233POPC   GL232318  20.696  29.708   9.224
 2233POPC   C1A32319  20.557  29.945   8.766
 2233POPC   D2A32320  20.520  29.629   8.408
 2233POPC   C3A32321  20.511  29.889   8.010
 2233POPC   C4A32322  20.489  29.820   7.552
 2233POPC   C1B32323  20.961  29.652   8.850
 2233POPC   C2B32324  20.972  29.851   8.457
 2233POPC   C3B32325  20.932  29.597   8.097
 2233POPC   C4B32326  20.897  29.571   7.686
 2234POPC   NC332327  31.735  16.378   9.508
 2234POPC   PO432328  31.363  16.949   9.459
 2234POPC   GL132329  31.617  16.738   9.109
 2234POPC   GL232330  31.782  17.017   8.902
 2234POPC   C1A32331  31.819  16.579   8.684
 2234POPC   D2A32332  31.757  16.760   8.276
 2234POPC   C3A32333  31.371  16.695   7.992
 2234POPC   C4A32334  31.324  16.632   7.565
 2234POPC   C1B32335  31.447  16.965   8.678
 2234POPC   C2B32336  31.393  17.120   8.302
 2234POPC   C3B32337  31.574  17.133   7.938
 2234POPC   C4B32338  31.286  17.175   7.630
 2235POPC   NC332339  15.710  23.046   9.484
 2235POPC   PO432340  16.145  22.473   9.523
 2235POPC   GL132341  16.172  22.629   9.086
 2235POPC   GL232342  15.978  22.923   9.053
 2235POPC   C1A32343  15.977  22.576   8.672
 2235POPC   D2A32344  15.651  22.696   8.346
 2235POPC   C3A32345  15.796  22.742   7.965
 2235POPC   C4A32346  15.774  22.405   7.678
 2235POPC   C1B32347  15.911  23.064   8.618
 2235POPC   C2B32348  15.816  23.216   8.211
 2235POPC   C3B32349  15.782  23.248   7.771
 2235POPC   C4B32350  16.171  23.302   7.453
 2236POPC   NC332351  36.013  13.920   9.413
 2236POPC   PO432352  36.221  13.275   9.315
 2236POPC   GL132353  35.934  13.551   9.055
 2236POPC   GL232354  36.120  13.891   8.923
 2236POPC   C1A32355  35.772  13.671   8.639
 2236POPC   D2A32356  36.124  13.620   8.348
 2236POPC   C3A32357  35.974  13.612   7.925
 2236POPC   C4A32358  36.217  13.561   7.599
 2236POPC   C1B32359  36.498  13.961   8.653
 2236POPC   C2B32360  36.735  13.713   8.381
 2236POPC   C3B32361  36.513  13.703   8.012
 2236POPC   C4B32362  36.504  13.971   7.689
 2237POPC   NC332363  28.922  37.901   9.835
 2237POPC   PO432364  29.094  38.471   9.488
 2237POPC   GL132365  29.261  38.389   9.109
 2237POPC   GL232366  29.268  38.752   9.080
 2237POPC   C1A32367  29.474  38.255   8.738
 2237POPC   D2A32368  29.550  38.425   8.357
 2237POPC   C3A32369  29.362  38.393   7.969
 2237POPC   C4A32370  29.405  38.809   7.800
 2237POPC   C1B32371  29.175  38.668   8.666
 2237POPC   C2B32372  29.171  38.773   8.258
 2237POPC   C3B32373  28.903  38.753   7.907
 2237POPC   C4B32374  28.662  38.852   7.549
 2238POPC   NC332375  22.633   0.875   9.527
 2238POPC   PO432376  22.634   0.145   9.408
 2238POPC   GL132377  22.778   0.344   9.049
 2238POPC   GL232378  22.714   0.705   9.025
 2238POPC   C1A32379  22.812   0.198   8.628
 2238POPC   D2A32380  22.624   0.113   8.225
 2238POPC   C3A32381  22.894   0.265   7.871
 2238POPC   C4A32382  22.836   0.242   7.441
 2238POPC   C1B32383  22.650   0.692   8.550
 2238POPC   C2B32384  22.803   0.717   8.115
 2238POPC   C3B32385  23.114   0.763   7.742
 2238POPC   C4B32386  23.200   0.813   7.277
 2239POPC   NC332387   6.477  44.199   9.512
 2239POPC   PO432388   6.821  44.769   9.600
 2239POPC   GL132389   6.663  44.590   9.218
 2239POPC   GL232390   6.966  44.432   9.131
 2239POPC   C1A32391   6.513  44.702   8.796
 2239POPC   D2A32392   6.811  44.739   8.467
 2239POPC   C3A32393   6.768  44.947   8.118
 2239POPC   C4A32394   6.812  44.805   7.717
 2239POPC   C1B32395   6.830  44.297   8.762
 2239POPC   C2B32396   6.494  44.311   8.468
 2239POPC   C3B32397   6.564  44.441   8.055
 2239POPC   C4B32398   6.934  44.342   7.890
 2240POPC   NC332399  17.848  37.757   9.484
 2240POPC   PO432400  17.367  37.351   9.691
 2240POPC   GL132401  17.682  37.330   9.258
 2240POPC   GL232402  17.569  37.637   9.053
 2240POPC   C1A32403  17.760  37.171   8.799
 2240POPC   D2A32404  17.550  37.154   8.367
 2240POPC   C3A32405  17.443  37.538   8.081
 2240POPC   C4A32406  17.311  37.859   7.769
 2240POPC   C1B32407  17.610  38.027   8.732
 2240POPC   C2B32408  17.606  38.028   8.273
 2240POPC   C3B32409  17.801  37.907   7.910
 2240POPC   C4B32410  17.706  37.929   7.442
 2241POPC   NC332411   2.344  27.806   9.677
 2241POPC   PO432412   1.986  28.370   9.520
 2241POPC   GL132413   2.034  28.253   9.124
 2241POPC   GL232414   2.276  28.506   9.077
 2241POPC   C1A32415   1.709  28.246   8.802
 2241POPC   D2A32416   1.661  28.398   8.404
 2241POPC   C3A32417   1.883  28.313   8.019
 2241POPC   C4A32418   1.661  28.347   7.619
 2241POPC   C1B32419   2.224  28.797   8.757
 2241POPC   C2B32420   2.112  28.637   8.368
 2241POPC   C3B32421   2.219  28.750   7.967
 2241POPC   C4B32422   2.131  28.526   7.607
 2242POPC   NC332423   5.772  11.742   9.492
 2242POPC   PO432424   5.392  12.318   9.496
 2242POPC   GL132425   5.695  12.110   9.148
 2242POPC   GL232426   5.994  11.858   9.056
 2242POPC   C1A32427   5.613  11.850   8.753
 2242POPC   D2A32428   5.680  12.073   8.405
 2242POPC   C3A32429   5.790  11.923   8.002
 2242POPC   C4A32430   5.807  12.288   7.757
 2242POPC   C1B32431   6.138  11.694   8.665
 2242POPC   C2B32432   6.201  11.987   8.356
 2242POPC   C3B32433   6.293  12.164   7.977
 2242POPC   C4B32434   6.177  11.957   7.632
 2243POPC   NC332435   9.718  23.249   9.325
 2243POPC   PO432436   9.936  23.799   9.680
 2243POPC   GL132437   9.763  23.794   9.237
 2243POPC   GL232438   9.606  23.587   8.974
 2243POPC   C1A32439   9.775  24.040   8.824
 2243POPC   D2A32440   9.506  23.929   8.466
 2243POPC   C3A32441   9.728  23.760   8.106
 2243POPC   C4A32442   9.766  23.865   7.686
 2243POPC   C1B32443   9.771  23.478   8.562
 2243POPC   C2B32444   9.553  23.274   8.228
 2243POPC   C3B32445   9.513  23.385   7.803
 2243POPC   C4B32446   9.735  23.315   7.438
 2244POPC   NC332447  31.724  32.869   9.474
 2244POPC   PO432448  31.088  33.106   9.488
 2244POPC   GL132449  31.334  33.057   9.143
 2244POPC   GL232450  31.340  32.703   9.075
 2244POPC   C1A32451  31.655  33.076   8.840
 2244POPC   D2A32452  31.694  33.202   8.417
 2244POPC   C3A32453  31.720  32.943   8.047
 2244POPC   C4A32454  31.625  33.163   7.686
 2244POPC   C1B32455  31.305  32.789   8.633
 2244POPC   C2B32456  31.247  32.982   8.262
 2244POPC   C3B32457  31.190  32.865   7.881
 2244POPC   C4B32458  31.243  32.894   7.470
 2245POPC   NC332459   9.334  14.082   9.368
 2245POPC   PO432460   8.923  14.465   9.797
 2245POPC   GL132461   8.964  14.455   9.339
 2245POPC   GL232462   8.833  14.113   9.239
 2245POPC   C1A32463   9.012  14.518   8.886
 2245POPC   D2A32464   8.816  14.549   8.484
 2245POPC   C3A32465   9.130  14.445   8.162
 2245POPC   C4A32466   9.198  14.527   7.730
 2245POPC   C1B32467   8.543  14.227   8.895
 2245POPC   C2B32468   8.426  14.212   8.445
 2245POPC   C3B32469   8.545  14.384   8.039
 2245POPC   C4B32470   8.764  14.242   7.669
 2246POPC   NC332471   9.896  26.570   9.496
 2246POPC   PO432472   9.272  26.845   9.552
 2246POPC   GL132473   9.574  26.807   9.185
 2246POPC   GL232474   9.892  26.985   9.150
 2246POPC   C1A32475   9.740  26.714   8.741
 2246POPC   D2A32476   9.644  26.528   8.320
 2246POPC   C3A32477   9.703  26.826   7.976
 2246POPC   C4A32478   9.649  27.027   7.530
 2246POPC   C1B32479  10.000  27.176   8.720
 2246POPC   C2B32480  10.075  27.205   8.267
 2246POPC   C3B32481  10.078  27.126   7.808
 2246POPC   C4B32482  10.055  26.714   7.617
 2247POPC   NC332483  13.217  12.944   9.411
 2247POPC   PO432484  12.734  12.673   9.732
 2247POPC   GL132485  12.810  12.659   9.193
 2247POPC   GL232486  13.039  12.813   8.974
 2247POPC   C1A32487  12.635  12.705   8.724
 2247POPC   D2A32488  12.602  13.013   8.376
 2247POPC   C3A32489  12.450  12.802   7.987
 2247POPC   C4A32490  12.562  12.461   7.707
 2247POPC   C1B32491  13.075  13.055   8.614
 2247POPC   C2B32492  13.157  13.016   8.197
 2247POPC   C3B32493  13.076  13.230   7.811
 2247POPC   C4B32494  13.166  13.105   7.386
 2248POPC   NC332495  34.161  18.371   9.466
 2248POPC   PO432496  33.496  18.205   9.524
 2248POPC   GL132497  33.793  18.115   9.187
 2248POPC   GL232498  34.097  17.902   9.261
 2248POPC   C1A32499  33.941  18.311   8.827
 2248POPC   D2A32500  33.703  18.375   8.461
 2248POPC   C3A32501  33.799  18.560   8.073
 2248POPC   C4A32502  33.719  18.456   7.621
 2248POPC   C1B32503  34.172  17.844   8.814
 2248POPC   C2B32504  34.089  18.029   8.376
 2248POPC   C3B32505  33.959  18.103   7.932
 2248POPC   C4B32506  34.163  18.254   7.521
 2249POPC   NC332507  43.867  33.341   9.448
 2249POPC   PO432508  44.267  32.918   9.510
 2249POPC   GL132509  44.096  32.765   9.136
 2249POPC   GL232510  44.075  33.118   9.018
 2249POPC   C1A32511  43.854  32.763   8.748
 2249POPC   D2A32512  43.979  33.004   8.372
 2249POPC   C3A32513  43.812  32.793   8.019
 2249POPC   C4A32514  43.806  32.933   7.589
 2249POPC   C1B32515  43.684  33.239   8.775
 2249POPC   C2B32516  43.521  33.219   8.341
 2249POPC   C3B32517  43.738  33.308   7.930
 2249POPC   C4B32518  43.670  33.440   7.480
 2250POPC   NC332519   7.312  28.800   9.387
 2250POPC   PO432520   7.650  29.295   9.616
 2250POPC   GL132521   7.483  29.269   9.208
 2250POPC   GL232522   7.701  29.019   9.127
 2250POPC   C1A32523   7.369  29.302   8.758
 2250POPC   D2A32524   7.392  29.150   8.329
 2250POPC   C3A32525   7.220  29.261   7.902
 2250POPC   C4A32526   7.256  29.120   7.490
 2250POPC   C1B32527   7.891  29.047   8.701
 2250POPC   C2B32528   7.786  28.847   8.301
 2250POPC   C3B32529   7.679  29.026   7.892
 2250POPC   C4B32530   7.714  28.945   7.415
 2251POPC   NC332531  26.100  39.648   9.491
 2251POPC   PO432532  26.384  40.318   9.510
 2251POPC   GL132533  26.172  40.062   9.168
 2251POPC   GL232534  26.355  39.730   9.066
 2251POPC   C1A32535  26.013  40.218   8.759
 2251POPC   D2A32536  26.241  40.305   8.367
 2251POPC   C3A32537  26.122  40.066   8.030
 2251POPC   C4A32538  25.754  40.082   7.807
 2251POPC   C1B32539  25.978  39.710   8.797
 2251POPC   C2B32540  25.809  39.828   8.383
 2251POPC   C3B32541  25.762  39.609   7.985
 2251POPC   C4B32542  25.931  39.650   7.564
 2252POPC   NC332543   1.818  15.337   9.574
 2252POPC   PO432544   2.393  14.945   9.449
 2252POPC   GL132545   2.091  15.172   9.160
 2252POPC   GL232546   1.779  15.392   9.085
 2252POPC   C1A32547   1.915  14.990   8.784
 2252POPC   D2A32548   2.222  14.923   8.466
 2252POPC   C3A32549   2.066  14.935   8.063
 2252POPC   C4A32550   1.979  14.802   7.650
 2252POPC   C1B32551   2.052  15.493   8.766
 2252POPC   C2B32552   2.070  15.399   8.364
 2252POPC   C3B32553   1.883  15.454   7.999
 2252POPC   C4B32554   2.118  15.318   7.694
 2253POPC   NC332555   0.327  16.354   9.393
 2253POPC   PO432556   0.702  16.923   9.525
 2253POPC   GL132557   0.511  16.768   9.136
 2253POPC   GL232558   0.475  17.077   9.014
 2253POPC   C1A32559   0.377  16.608   8.708
 2253POPC   D2A32560   0.371  16.802   8.297
 2253POPC   C3A32561   0.373  16.584   7.888
 2253POPC   C4A32562   0.218  16.177   7.757
 2253POPC   C1B32563   0.720  16.963   8.663
 2253POPC   C2B32564   0.836  17.007   8.262
 2253POPC   C3B32565   0.602  17.035   7.903
 2253POPC   C4B32566   0.583  16.872   7.496
 2254POPC   NC332567   7.021  19.396   9.547
 2254POPC   PO432568   6.388  19.480   9.372
 2254POPC   GL132569   6.587  19.747   9.125
 2254POPC   GL232570   6.919  19.707   9.128
 2254POPC   C1A32571   6.610  20.046   8.801
 2254POPC   D2A32572   6.877  20.115   8.468
 2254POPC   C3A32573   6.767  20.027   8.040
 2254POPC   C4A32574   6.557  19.868   7.668
 2254POPC   C1B32575   7.035  19.681   8.677
 2254POPC   C2B32576   7.139  19.723   8.229
 2254POPC   C3B32577   7.098  19.743   7.770
 2254POPC   C4B32578   6.973  19.763   7.315
 2255POPC   NC332579   8.064  23.564   9.475
 2255POPC   PO432580   8.694  23.611   9.466
 2255POPC   GL132581   8.443  23.658   9.125
 2255POPC   GL232582   8.606  23.952   9.016
 2255POPC   C1A32583   8.069  23.619   8.830
 2255POPC   D2A32584   8.028  23.766   8.421
 2255POPC   C3A32585   7.926  23.579   8.049
 2255POPC   C4A32586   8.047  23.665   7.647
 2255POPC   C1B32587   8.526  23.732   8.626
 2255POPC   C2B32588   8.468  23.972   8.294
 2255POPC   C3B32589   8.311  23.998   7.943
 2255POPC   C4B32590   8.496  24.192   7.627
 2256POPC   NC332591  18.108  44.686   9.556
 2256POPC   PO432592  18.598  44.999   9.793
 2256POPC   GL132593  18.526  44.722   9.305
 2256POPC   GL232594  18.230  44.922   9.122
 2256POPC   C1A32595  18.448  44.424   8.939
 2256POPC   D2A32596  18.482  44.364   8.468
 2256POPC   C3A32597  18.216  44.552   8.134
 2256POPC   C4A32598  18.305  44.537   7.665
 2256POPC   C1B32599  18.184  44.785   8.695
 2256POPC   C2B32600  18.091   0.004   8.317
 2256POPC   C3B32601  18.166  44.984   7.871
 2256POPC   C4B32602  18.115  44.947   7.414
 2257POPC   NC332603   2.542  18.232   9.734
 2257POPC   PO432604   3.100  18.456   9.636
 2257POPC   GL132605   2.830  18.369   9.290
 2257POPC   GL232606   2.518  18.522   9.274
 2257POPC   C1A32607   2.864  18.335   8.850
 2257POPC   D2A32608   3.159  18.336   8.522
 2257POPC   C3A32609   2.944  18.347   8.157
 2257POPC   C4A32610   2.912  18.067   7.822
 2257POPC   C1B32611   2.369  18.250   8.945
 2257POPC   C2B32612   2.470  18.044   8.583
 2257POPC   C3B32613   2.480  18.128   8.164
 2257POPC   C4B32614   2.532  18.374   7.796
 2258POPC   NC332615  42.277  10.827   9.316
 2258POPC   PO432616  42.213  10.255   9.726
 2258POPC   GL132617  42.220  10.307   9.244
 2258POPC   GL232618  41.995  10.486   9.010
 2258POPC   C1A32619  42.442  10.397   8.825
 2258POPC   D2A32620  42.482  10.704   8.498
 2258POPC   C3A32621  42.442  10.497   8.116
 2258POPC   C4A32622  42.562  10.689   7.712
 2258POPC   C1B32623  42.027  10.857   8.724
 2258POPC   C2B32624  41.898  10.898   8.305
 2258POPC   C3B32625  42.120  10.848   7.953
 2258POPC   C4B32626  42.085  10.483   7.727
 2259POPC   NC332627  10.783  17.819   9.397
 2259POPC   PO432628  10.432  17.270   9.555
 2259POPC   GL132629  10.501  17.413   9.150
 2259POPC   GL232630  10.799  17.203   9.047
 2259POPC   C1A32631  10.236  17.600   8.787
 2259POPC   D2A32632  10.056  17.409   8.391
 2259POPC   C3A32633  10.226  17.497   7.958
 2259POPC   C4A32634  10.390  17.792   7.637
 2259POPC   C1B32635  10.762  17.569   8.739
 2259POPC   C2B32636  10.649  17.555   8.296
 2259POPC   C3B32637  10.822  17.621   7.885
 2259POPC   C4B32638  10.816  17.566   7.424
 2260POPC   NC332639  10.742  16.913   9.506
 2260POPC   PO432640  10.163  16.527   9.400
 2260POPC   GL132641  10.299  16.923   9.165
 2260POPC   GL232642  10.539  16.739   9.059
 2260POPC   C1A32643  10.418  17.123   8.725
 2260POPC   D2A32644  10.808  17.107   8.505
 2260POPC   C3A32645  10.796  17.031   8.063
 2260POPC   C4A32646  10.910  16.734   7.718
 2260POPC   C1B32647  10.229  16.657   8.735
 2260POPC   C2B32648  10.502  16.639   8.415
 2260POPC   C3B32649  10.598  16.484   8.037
 2260POPC   C4B32650  10.344  16.528   7.705
 2261POPC   NC332651  22.554   3.373   9.468
 2261POPC   PO432652  23.186   3.073   9.526
 2261POPC   GL132653  22.876   2.882   9.212
 2261POPC   GL232654  22.576   3.070   9.048
 2261POPC   C1A32655  22.705   2.607   8.872
 2261POPC   D2A32656  22.769   2.519   8.434
 2261POPC   C3A32657  22.789   2.701   8.035
 2261POPC   C4A32658  22.866   3.054   7.772
 2261POPC   C1B32659  22.656   3.029   8.579
 2261POPC   C2B32660  22.626   3.307   8.207
 2261POPC   C3B32661  22.772   3.552   7.813
 2261POPC   C4B32662  22.886   3.406   7.372
 2262POPC   NC332663  29.224  21.106   9.570
 2262POPC   PO432664  29.142  21.798   9.479
 2262POPC   GL132665  29.313  21.465   9.180
 2262POPC   GL232666  29.411  21.074   9.093
 2262POPC   C1A32667  29.292  21.473   8.760
 2262POPC   D2A32668  28.925  21.441   8.507
 2262POPC   C3A32669  28.955  21.355   8.080
 2262POPC   C4A32670  29.260  21.619   7.861
 2262POPC   C1B32671  29.270  20.998   8.643
 2262POPC   C2B32672  29.424  21.185   8.244
 2262POPC   C3B32673  29.462  21.119   7.766
 2262POPC   C4B32674  29.402  21.189   7.299
 2263POPC   NC332675  41.406  10.940   9.402
 2263POPC   PO432676  42.059  11.224   9.530
 2263POPC   GL132677  41.775  11.210   9.199
 2263POPC   GL232678  41.733  11.539   9.154
 2263POPC   C1A32679  41.592  11.097   8.805
 2263POPC   D2A32680  41.582  11.271   8.400
 2263POPC   C3A32681  41.359  11.094   8.057
 2263POPC   C4A32682  41.644  10.909   7.740
 2263POPC   C1B32683  41.403  11.577   8.832
 2263POPC   C2B32684  41.314  11.671   8.390
 2263POPC   C3B32685  41.505  11.564   7.928
 2263POPC   C4B32686  41.247  11.634   7.505
 2264POPC   NC332687  42.898   4.729   9.356
 2264POPC   PO432688  43.229   5.292   9.505
 2264POPC   GL132689  43.249   5.093   9.125
 2264POPC   GL232690  42.963   5.217   9.045
 2264POPC   C1A32691  43.308   5.226   8.674
 2264POPC   D2A32692  43.335   4.954   8.295
 2264POPC   C3A32693  43.312   5.166   7.905
 2264POPC   C4A32694  42.940   5.285   7.676
 2264POPC   C1B32695  43.015   4.830   8.743
 2264POPC   C2B32696  42.883   4.694   8.361
 2264POPC   C3B32697  42.928   4.823   7.967
 2264POPC   C4B32698  42.697   4.786   7.626
 2265POPC   NC332699  16.113  11.280   9.581
 2265POPC   PO432700  15.472  11.441   9.388
 2265POPC   GL132701  15.817  11.415   9.152
 2265POPC   GL232702  15.684  11.105   9.021
 2265POPC   C1A32703  15.831  11.457   8.701
 2265POPC   D2A32704  15.828  11.200   8.368
 2265POPC   C3A32705  16.074  11.389   8.072
 2265POPC   C4A32706  15.938  11.435   7.666
 2265POPC   C1B32707  16.106  11.031   8.808
 2265POPC   C2B32708  16.324  11.050   8.382
 2265POPC   C3B32709  16.213  10.901   7.961
 2265POPC   C4B32710  15.883  10.913   7.675
 2266POPC   NC332711  32.447  40.175   9.512
 2266POPC   PO432712  31.947  39.763   9.502
 2266POPC   GL132713  32.197  39.836   9.174
 2266POPC   GL232714  32.088  40.165   9.151
 2266POPC   C1A32715  32.097  39.831   8.738
 2266POPC   D2A32716  32.262  40.008   8.356
 2266POPC   C3A32717  32.107  39.855   7.977
 2266POPC   C4A32718  32.276  39.696   7.616
 2266POPC   C1B32719  32.291  40.308   8.786
 2266POPC   C2B32720  32.355  40.517   8.399
 2266POPC   C3B32721  32.138  40.376   8.038
 2266POPC   C4B32722  32.177  40.247   7.619
 2267POPC   NC332723  30.949  28.665   9.471
 2267POPC   PO432724  30.694  29.313   9.480
 2267POPC   GL132725  30.784  29.196   9.137
 2267POPC   GL232726  30.621  28.899   9.136
 2267POPC   C1A32727  30.695  29.362   8.756
 2267POPC   D2A32728  30.755  29.184   8.411
 2267POPC   C3A32729  30.734  29.454   8.122
 2267POPC   C4A32730  30.578  29.210   7.815
 2267POPC   C1B32731  30.843  28.814   8.771
 2267POPC   C2B32732  30.802  28.656   8.351
 2267POPC   C3B32733  30.676  28.696   7.921
 2267POPC   C4B32734  30.896  28.862   7.579
 2268POPC   NC332735  41.435  40.433   9.535
 2268POPC   PO432736  41.766  40.977   9.506
 2268POPC   GL132737  41.678  40.717   9.132
 2268POPC   GL232738  41.856  40.390   9.143
 2268POPC   C1A32739  41.804  40.917   8.698
 2268POPC   D2A32740  41.971  40.976   8.253
 2268POPC   C3A32741  41.572  40.997   7.993
 2268POPC   C4A32742  41.309  41.273   7.740
 2268POPC   C1B32743  41.774  40.423   8.720
 2268POPC   C2B32744  41.744  40.513   8.271
 2268POPC   C3B32745  41.870  40.620   7.828
 2268POPC   C4B32746  41.822  40.531   7.338
 2269POPC   NC332747  37.163  21.040   9.593
 2269POPC   PO432748  37.757  21.394   9.675
 2269POPC   GL132749  37.574  21.198   9.289
 2269POPC   GL232750  37.791  21.391   9.091
 2269POPC   C1A32751  37.461  21.113   8.822
 2269POPC   D2A32752  37.406  21.264   8.364
 2269POPC   C3A32753  37.497  21.625   8.085
 2269POPC   C4A32754  37.713  21.591   7.673
 2269POPC   C1B32755  37.785  21.482   8.662
 2269POPC   C2B32756  37.945  21.392   8.274
 2269POPC   C3B32757  38.008  21.263   7.878
 2269POPC   C4B32758  38.087  21.360   7.398
 2270POPC   NC332759  16.767   1.273   9.774
 2270POPC   PO432760  16.238   0.923   9.469
 2270POPC   GL132761  16.511   0.945   9.114
 2270POPC   GL232762  16.772   1.198   9.239
 2270POPC   C1A32763  16.558   1.189   8.723
 2270POPC   D2A32764  16.658   1.382   8.332
 2270POPC   C3A32765  16.718   1.075   8.063
 2270POPC   C4A32766  16.526   0.966   7.707
 2270POPC   C1B32767  16.957   1.447   8.913
 2270POPC   C2B32768  17.046   1.618   8.517
 2270POPC   C3B32769  17.166   1.457   8.131
 2270POPC   C4B32770  16.933   1.430   7.771
 2271POPC   NC332771  28.324  12.157   9.650
 2271POPC   PO432772  28.039  11.798   9.200
 2271POPC   GL132773  28.231  12.215   9.096
 2271POPC   GL232774  28.579  12.209   9.169
 2271POPC   C1A32775  28.367  12.417   8.687
 2271POPC   D2A32776  28.535  12.340   8.253
 2271POPC   C3A32777  28.399  12.042   7.976
 2271POPC   C4A32778  28.279  11.840   7.644
 2271POPC   C1B32779  28.531  11.918   8.789
 2271POPC   C2B32780  28.664  11.839   8.367
 2271POPC   C3B32781  28.941  12.015   8.037
 2271POPC   C4B32782  28.774  12.361   7.801
 2272POPC   NC332783  44.538  12.740   9.531
 2272POPC   PO432784   0.179  13.014   9.593
 2272POPC   GL132785  44.880  12.915   9.189
 2272POPC   GL232786  44.478  12.965   9.093
 2272POPC   C1A32787  44.745  12.641   8.821
 2272POPC   D2A32788  44.458  12.588   8.467
 2272POPC   C3A32789  44.595  12.790   8.076
 2272POPC   C4A32790  44.622  12.598   7.685
 2272POPC   C1B32791  44.504  13.162   8.722
 2272POPC   C2B32792  44.274  13.234   8.355
 2272POPC   C3B32793  44.180  13.142   7.947
 2272POPC   C4B32794  44.474  13.080   7.619
 2273POPC   NC332795  11.584  24.830   9.388
 2273POPC   PO432796  11.820  24.152   9.462
 2273POPC   GL132797  12.046  24.221   9.131
 2273POPC   GL232798  12.140  24.517   9.245
 2273POPC   C1A32799  11.945  24.393   8.733
 2273POPC   D2A32800  12.228  24.409   8.382
 2273POPC   C3A32801  12.088  24.598   8.003
 2273POPC   C4A32802  11.758  24.369   7.782
 2273POPC   C1B32803  12.412  24.524   8.885
 2273POPC   C2B32804  12.545  24.757   8.564
 2273POPC   C3B32805  12.609  24.673   8.130
 2273POPC   C4B32806  12.480  24.883   7.772
 2274POPC   NC332807  38.596  29.274   9.876
 2274POPC   PO432808  39.234  29.269   9.605
 2274POPC   GL132809  39.339  29.370   9.158
 2274POPC   GL232810  39.023  29.510   8.985
 2274POPC   C1A32811  39.345  29.189   8.742
 2274POPC   D2A32812  39.417  29.339   8.328
 2274POPC   C3A32813  39.455  29.080   7.967
 2274POPC   C4A32814  39.134  28.833   7.759
 2274POPC   C1B32815  39.006  29.586   8.558
 2274POPC   C2B32816  38.977  29.697   8.160
 2274POPC   C3B32817  39.000  29.335   7.906
 2274POPC   C4B32818  39.220  29.284   7.510
 2275POPC   NC332819  18.782   5.775   9.635
 2275POPC   PO432820  19.326   5.945   9.616
 2275POPC   GL132821  19.173   5.894   9.198
 2275POPC   GL232822  18.921   5.648   9.152
 2275POPC   C1A32823  19.353   5.885   8.764
 2275POPC   D2A32824  19.215   5.909   8.324
 2275POPC   C3A32825  19.438   5.836   7.931
 2275POPC   C4A32826  19.417   5.568   7.544
 2275POPC   C1B32827  18.817   5.868   8.762
 2275POPC   C2B32828  18.701   5.950   8.311
 2275POPC   C3B32829  18.918   5.922   7.886
 2275POPC   C4B32830  18.742   6.020   7.477
 2276POPC   NC332831   2.722  30.405   9.519
 2276POPC   PO432832   3.006  31.020   9.472
 2276POPC   GL132833   2.793  30.894   9.093
 2276POPC   GL232834   2.698  30.538   9.045
 2276POPC   C1A32835   2.726  30.817   8.647
 2276POPC   D2A32836   2.765  30.465   8.413
 2276POPC   C3A32837   2.659  30.651   8.045
 2276POPC   C4A32838   2.948  30.725   7.763
 2276POPC   C1B32839   2.458  30.258   8.786
 2276POPC   C2B32840   2.338  30.112   8.369
 2276POPC   C3B32841   2.516  30.151   7.955
 2276POPC   C4B32842   2.517  30.431   7.583
 2277POPC   NC332843  23.851   8.395   9.482
 2277POPC   PO432844  23.299   8.002   9.383
 2277POPC   GL132845  23.599   8.213   9.062
 2277POPC   GL232846  23.682   8.602   9.046
 2277POPC   C1A32847  23.716   8.324   8.625
 2277POPC   D2A32848  23.902   8.492   8.266
 2277POPC   C3A32849  23.796   8.140   8.089
 2277POPC   C4A32850  23.663   8.048   7.721
 2277POPC   C1B32851  23.282   8.532   8.817
 2277POPC   C2B32852  23.246   8.480   8.373
 2277POPC   C3B32853  23.386   8.417   7.944
 2277POPC   C4B32854  23.761   8.561   7.761
 2278POPC   NC332855  26.289  25.818   9.470
 2278POPC   PO432856  25.706  26.039   9.592
 2278POPC   GL132857  25.858  25.927   9.157
 2278POPC   GL232858  26.164  26.058   9.054
 2278POPC   C1A32859  25.954  25.836   8.677
 2278POPC   D2A32860  26.217  25.918   8.315
 2278POPC   C3A32861  25.915  25.817   8.034
 2278POPC   C4A32862  25.779  26.019   7.692
 2278POPC   C1B32863  26.311  26.259   8.696
 2278POPC   C2B32864  26.382  26.423   8.279
 2278POPC   C3B32865  26.218  26.371   7.893
 2278POPC   C4B32866  26.317  25.973   7.746
 2279POPC   NC332867  35.998   1.336   9.287
 2279POPC   PO432868  36.459   1.728   9.571
 2279POPC   GL132869  36.194   1.882   9.157
 2279POPC   GL232870  35.838   1.793   9.092
 2279POPC   C1A32871  36.073   2.086   8.704
 2279POPC   D2A32872  36.022   1.890   8.248
 2279POPC   C3A32873  35.921   2.189   7.899
 2279POPC   C4A32874  36.099   2.155   7.464
 2279POPC   C1B32875  36.036   1.583   8.712
 2279POPC   C2B32876  36.320   1.487   8.415
 2279POPC   C3B32877  36.563   1.593   8.118
 2279POPC   C4B32878  36.546   1.513   7.715
 2280POPC   NC332879   2.823  18.858   9.519
 2280POPC   PO432880   2.517  19.366   9.830
 2280POPC   GL132881   2.642  19.451   9.294
 2280POPC   GL232882   2.898  19.211   9.130
 2280POPC   C1A32883   2.518  19.323   8.818
 2280POPC   D2A32884   2.799  19.158   8.468
 2280POPC   C3A32885   2.804  19.297   8.031
 2280POPC   C4A32886   2.480  19.238   7.723
 2280POPC   C1B32887   2.727  18.834   8.867
 2280POPC   C2B32888   2.625  18.618   8.476
 2280POPC   C3B32889   2.667  18.795   8.058
 2280POPC   C4B32890   2.979  18.642   7.750
 2281POPC   NC332891  24.204  37.637   9.383
 2281POPC   PO432892  24.765  37.910   9.312
 2281POPC   GL132893  24.456  37.888   8.972
 2281POPC   GL232894  24.105  38.015   8.991
 2281POPC   C1A32895  24.526  37.702   8.557
 2281POPC   D2A32896  24.493  37.911   8.166
 2281POPC   C3A32897  24.818  37.826   7.922
 2281POPC   C4A32898  24.771  37.406   7.798
 2281POPC   C1B32899  24.041  37.664   8.674
 2281POPC   C2B32900  24.099  37.579   8.209
 2281POPC   C3B32901  24.187  37.735   7.761
 2281POPC   C4B32902  24.168  37.969   7.313
 2282POPC   NC332903  18.577  33.177   9.784
 2282POPC   PO432904  19.167  32.913   9.583
 2282POPC   GL132905  19.243  32.904   9.111
 2282POPC   GL232906  19.249  32.586   9.012
 2282POPC   C1A32907  19.066  33.015   8.671
 2282POPC   D2A32908  19.004  33.420   8.394
 2282POPC   C3A32909  19.169  33.361   7.969
 2282POPC   C4A32910  18.988  32.945   7.891
 2282POPC   C1B32911  19.336  32.565   8.632
 2282POPC   C2B32912  19.258  32.731   8.267
 2282POPC   C3B32913  19.315  32.506   7.908
 2282POPC   C4B32914  19.089  32.589   7.552
 2283POPC   NC332915   4.107  16.385   9.297
 2283POPC   PO432916   4.507  16.924   9.534
 2283POPC   GL132917   4.377  16.822   9.134
 2283POPC   GL232918   4.044  16.974   9.160
 2283POPC   C1A32919   4.282  16.743   8.688
 2283POPC   D2A32920   4.113  16.613   8.268
 2283POPC   C3A32921   4.369  16.730   7.899
 2283POPC   C4A32922   4.634  16.866   7.561
 2283POPC   C1B32923   3.969  17.164   8.745
 2283POPC   C2B32924   3.875  17.091   8.281
 2283POPC   C3B32925   4.024  17.121   7.837
 2283POPC   C4B32926   4.247  17.209   7.430
 2284POPC   NC332927   8.145  25.512   9.660
 2284POPC   PO432928   8.595  25.079   9.529
 2284POPC   GL132929   8.329  25.123   9.137
 2284POPC   GL232930   8.062  25.387   9.165
 2284POPC   C1A32931   8.326  25.252   8.676
 2284POPC   D2A32932   8.508  25.504   8.305
 2284POPC   C3A32933   8.331  25.430   7.892
 2284POPC   C4A32934   8.251  25.006   7.837
 2284POPC   C1B32935   7.881  25.574   8.797
 2284POPC   C2B32936   7.971  25.579   8.357
 2284POPC   C3B32937   7.840  25.288   8.028
 2284POPC   C4B32938   7.859  25.250   7.579
 2285POPC   NC332939   0.231  38.107   9.687
 2285POPC   PO432940   0.729  38.556   9.557
 2285POPC   GL132941   0.707  38.612   9.120
 2285POPC   GL232942   0.383  38.484   9.099
 2285POPC   C1A32943   0.721  38.295   8.761
 2285POPC   D2A32944   0.569  38.297   8.306
 2285POPC   C3A32945   0.506  38.714   8.105
 2285POPC   C4A32946   0.715  38.663   7.709
 2285POPC   C1B32947   0.296  38.559   8.644
 2285POPC   C2B32948   0.052  38.877   8.436
 2285POPC   C3B32949  44.996  38.924   8.006
 2285POPC   C4B32950   0.176  38.680   7.693
 2286POPC   NC332951  37.188  27.351   9.479
 2286POPC   PO432952  36.590  27.637   9.424
 2286POPC   GL132953  36.651  27.629   9.033
 2286POPC   GL232954  36.966  27.544   9.009
 2286POPC   C1A32955  36.541  27.395   8.694
 2286POPC   D2A32956  36.771  27.340   8.318
 2286POPC   C3A32957  36.688  27.554   7.952
 2286POPC   C4A32958  36.907  27.468   7.593
 2286POPC   C1B32959  36.863  27.766   8.595
 2286POPC   C2B32960  36.971  27.956   8.195
 2286POPC   C3B32961  36.965  27.973   7.745
 2286POPC   C4B32962  37.026  27.851   7.300
 2287POPC   NC332963   0.708  34.777   9.601
 2287POPC   PO432964   0.197  34.383   9.490
 2287POPC   GL132965   0.463  34.605   9.162
 2287POPC   GL232966   0.363  34.914   9.202
 2287POPC   C1A32967   0.672  34.851   8.774
 2287POPC   D2A32968   0.606  35.013   8.318
 2287POPC   C3A32969   0.536  34.661   8.019
 2287POPC   C4A32970   0.132  34.415   7.936
 2287POPC   C1B32971   0.191  35.054   8.811
 2287POPC   C2B32972  44.993  34.932   8.410
 2287POPC   C3B32973  44.939  34.888   7.973
 2287POPC   C4B32974   0.219  34.883   7.699
 2288POPC   NC332975  25.818  14.772   9.576
 2288POPC   PO432976  26.297  15.273   9.718
 2288POPC   GL132977  26.096  15.208   9.333
 2288POPC   GL232978  25.837  15.019   9.136
 2288POPC   C1A32979  26.230  15.272   8.938
 2288POPC   D2A32980  25.974  15.240   8.599
 2288POPC   C3A32981  26.116  15.206   8.199
 2288POPC   C4A32982  25.892  15.228   7.830
 2288POPC   C1B32983  25.611  14.919   8.754
 2288POPC   C2B32984  25.770  14.831   8.320
 2288POPC   C3B32985  25.734  14.729   7.866
 2288POPC   C4B32986  25.957  14.876   7.484
 2289POPC   NC332987  28.477   6.578   9.681
 2289POPC   PO432988  28.037   7.071   9.466
 2289POPC   GL132989  28.384   6.810   9.225
 2289POPC   GL232990  28.417   6.443   9.217
 2289POPC   C1A32991  28.429   6.738   8.793
 2289POPC   D2A32992  28.191   6.663   8.449
 2289POPC   C3A32993  28.331   6.627   8.053
 2289POPC   C4A32994  28.084   6.542   7.710
 2289POPC   C1B32995  28.629   6.284   8.894
 2289POPC   C2B32996  28.659   6.387   8.467
 2289POPC   C3B32997  28.652   6.141   8.100
 2289POPC   C4B32998  28.540   6.279   7.718
 2290POPC   NC332999   3.746   8.605   9.612
 2290POPC   PO433000   3.442   8.091   9.473
 2290POPC   GL133001   3.551   8.463   9.167
 2290POPC   GL233002   3.928   8.583   9.134
 2290POPC   C1A33003   3.404   8.552   8.745
 2290POPC   D2A33004   3.393   8.217   8.427
 2290POPC   C3A33005   3.349   8.212   7.974
 2290POPC   C4A33006   3.554   7.957   7.592
 2290POPC   C1B33007   3.867   8.324   8.776
 2290POPC   C2B33008   3.854   8.414   8.359
 2290POPC   C3B33009   3.858   8.197   7.982
 2290POPC   C4B33010   4.149   8.421   7.819
 2291POPC   NC333011   7.319  24.093   9.604
 2291POPC   PO433012   7.476  24.683   9.429
 2291POPC   GL133013   7.558  24.528   9.060
 2291POPC   GL233014   7.612  24.218   9.187
 2291POPC   C1A33015   7.508  24.721   8.669
 2291POPC   D2A33016   7.268  24.722   8.306
 2291POPC   C3A33017   7.524  24.544   7.998
 2291POPC   C4A33018   7.441  24.668   7.610
 2291POPC   C1B33019   7.714  24.087   8.788
 2291POPC   C2B33020   7.471  24.251   8.437
 2291POPC   C3B33021   7.290  24.070   8.077
 2291POPC   C4B33022   7.441  24.140   7.661
 2292POPC   NC333023  20.004  30.650   9.533
 2292POPC   PO433024  19.478  31.012   9.617
 2292POPC   GL133025  19.756  31.013   9.262
 2292POPC   GL233026  19.555  31.209   9.124
 2292POPC   C1A33027  19.993  30.896   8.864
 2292POPC   D2A33028  20.019  30.604   8.506
 2292POPC   C3A33029  20.001  30.744   8.057
 2292POPC   C4A33030  20.168  30.776   7.655
 2292POPC   C1B33031  19.522  31.024   8.745
 2292POPC   C2B33032  19.752  31.043   8.407
 2292POPC   C3B33033  19.561  30.985   8.045
 2292POPC   C4B33034  19.519  30.874   7.658
 2293POPC   NC333035   1.591   1.945   9.369
 2293POPC   PO433036   2.226   2.144   9.643
 2293POPC   GL133037   2.068   2.066   9.245
 2293POPC   GL233038   2.364   2.044   9.159
 2293POPC   C1A33039   1.909   2.091   8.781
 2293POPC   D2A33040   1.734   2.165   8.339
 2293POPC   C3A33041   1.773   1.833   8.016
 2293POPC   C4A33042   1.717   1.712   7.615
 2293POPC   C1B33043   2.438   2.204   8.774
 2293POPC   C2B33044   2.237   2.296   8.411
 2293POPC   C3B33045   2.212   2.104   8.036
 2293POPC   C4B33046   2.196   1.887   7.668
 2294POPC   NC333047  35.070  21.512   9.574
 2294POPC   PO433048  35.801  21.221   9.494
 2294POPC   GL133049  35.481  21.223   9.182
 2294POPC   GL233050  35.455  21.562   9.122
 2294POPC   C1A33051  35.563  21.165   8.742
 2294POPC   D2A33052  35.373  21.115   8.335
 2294POPC   C3A33053  35.432  21.372   7.999
 2294POPC   C4A33054  35.614  21.300   7.632
 2294POPC   C1B33055  35.170  21.692   8.785
 2294POPC   C2B33056  35.078  21.558   8.366
 2294POPC   C3B33057  35.095  21.735   7.930
 2294POPC   C4B33058  35.204  21.598   7.490
 2295POPC   NC333059  20.084  36.575   9.355
 2295POPC   PO433060  20.040  37.272   9.451
 2295POPC   GL133061  19.821  36.976   9.191
 2295POPC   GL233062  19.497  37.036   9.213
 2295POPC   C1A33063  19.784  36.726   8.803
 2295POPC   D2A33064  19.983  36.936   8.461
 2295POPC   C3A33065  20.014  36.730   8.069
 2295POPC   C4A33066  20.055  36.867   7.636
 2295POPC   C1B33067  19.581  37.194   8.783
 2295POPC   C2B33068  19.599  37.290   8.327
 2295POPC   C3B33069  19.651  37.077   7.910
 2295POPC   C4B33070  19.609  36.983   7.445
 2296POPC   NC333071  33.221  20.345   9.483
 2296POPC   PO433072  33.157  20.967   9.207
 2296POPC   GL133073  33.057  20.606   9.028
 2296POPC   GL233074  32.806  20.421   9.201
 2296POPC   C1A33075  33.041  20.611   8.575
 2296POPC   D2A33076  33.346  20.528   8.284
 2296POPC   C3A33077  33.285  20.776   7.916
 2296POPC   C4A33078  33.448  20.548   7.593
 2296POPC   C1B33079  32.643  20.392   8.783
 2296POPC   C2B33080  32.595  20.436   8.334
 2296POPC   C3B33081  32.917  20.412   7.992
 2296POPC   C4B33082  32.936  20.498   7.532
 2297POPC   NC333083  18.527  38.147   9.365
 2297POPC   PO433084  18.521  38.776   9.395
 2297POPC   GL133085  18.273  38.507   9.116
 2297POPC   GL233086  18.020  38.214   9.209
 2297POPC   C1A33087  18.397  38.582   8.687
 2297POPC   D2A33088  18.441  38.512   8.237
 2297POPC   C3A33089  18.215  38.786   7.939
 2297POPC   C4A33090  18.454  38.637   7.663
 2297POPC   C1B33091  18.194  38.117   8.783
 2297POPC   C2B33092  18.139  38.061   8.348
 2297POPC   C3B33093  18.322  38.104   7.934
 2297POPC   C4B33094  18.124  38.204   7.568
 2298POPC   NC333095  24.577   8.536   9.618
 2298POPC   PO433096  24.400   9.123   9.401
 2298POPC   GL133097  24.382   8.950   9.021
 2298POPC   GL233098  24.679   8.744   9.088
 2298POPC   C1A33099  24.177   8.703   8.686
 2298POPC   D2A33100  24.408   8.545   8.330
 2298POPC   C3A33101  24.308   8.681   7.918
 2298POPC   C4A33102  24.515   8.862   7.551
 2298POPC   C1B33103  24.706   8.878   8.639
 2298POPC   C2B33104  24.667   9.159   8.278
 2298POPC   C3B33105  24.428   9.243   7.889
 2298POPC   C4B33106  24.493   9.364   7.432
 2299POPC   NC333107  22.473  28.360   9.557
 2299POPC   PO433108  21.810  28.099   9.445
 2299POPC   GL133109  21.848  28.324   9.080
 2299POPC   GL233110  22.179  28.345   9.144
 2299POPC   C1A33111  22.045  28.492   8.685
 2299POPC   D2A33112  22.138  28.338   8.291
 2299POPC   C3A33113  22.042  28.567   7.914
 2299POPC   C4A33114  21.784  28.482   7.582
 2299POPC   C1B33115  22.505  28.539   8.912
 2299POPC   C2B33116  22.555  28.561   8.488
 2299POPC   C3B33117  22.539  28.555   8.047
 2299POPC   C4B33118  22.436  28.255   7.745
 2300POPC   NC333119   2.323  40.899   9.779
 2300POPC   PO433120   1.725  40.641   9.554
 2300POPC   GL133121   1.950  40.693   9.201
 2300POPC   GL233122   2.168  40.984   9.249
 2300POPC   C1A33123   2.110  40.551   8.822
 2300POPC   D2A33124   2.224  40.649   8.410
 2300POPC   C3A33125   1.851  40.704   8.182
 2300POPC   C4A33126   1.848  40.624   7.750
 2300POPC   C1B33127   2.152  41.151   8.812
 2300POPC   C2B33128   2.102  41.158   8.351
 2300POPC   C3B33129   2.129  41.045   7.906
 2300POPC   C4B33130   2.343  40.723   7.634
 2301POPC   NC333131  42.936   0.236   9.520
 2301POPC   PO433132  43.402   0.651   9.422
 2301POPC   GL133133  43.123   0.539   9.150
 2301POPC   GL233134  43.222   0.196   9.071
 2301POPC   C1A33135  43.110   0.655   8.744
 2301POPC   D2A33136  43.227   0.464   8.371
 2301POPC   C3A33137  43.133   0.577   7.959
 2301POPC   C4A33138  43.306   0.219   7.755
 2301POPC   C1B33139  42.808   0.238   8.876
 2301POPC   C2B33140  42.726   0.277   8.478
 2301POPC   C3B33141  42.939   0.128   8.111
 2301POPC   C4B33142  42.797   0.224   7.686
 2302POPC   NC333143   1.267  22.305   9.598
 2302POPC   PO433144   1.259  21.678   9.848
 2302POPC   GL133145   1.222  21.876   9.318
 2302POPC   GL233146   0.994  22.162   9.188
 2302POPC   C1A33147   1.355  22.008   8.855
 2302POPC   D2A33148   1.594  21.968   8.428
 2302POPC   C3A33149   1.443  22.196   8.042
 2302POPC   C4A33150   1.232  22.049   7.653
 2302POPC   C1B33151   0.833  22.055   8.796
 2302POPC   C2B33152   1.033  22.242   8.431
 2302POPC   C3B33153   0.938  22.380   8.019
 2302POPC   C4B33154   0.843  22.464   7.584
 2303POPC   NC333155  24.676  25.685   9.444
 2303POPC   PO433156  24.492  26.372   9.527
 2303POPC   GL133157  24.570  26.120   9.195
 2303POPC   GL233158  24.926  26.199   9.247
 2303POPC   C1A33159  24.457  25.834   8.845
 2303POPC   D2A33160  24.338  25.962   8.448
 2303POPC   C3A33161  24.430  25.778   8.073
 2303POPC   C4A33162  24.252  25.739   7.697
 2303POPC   C1B33163  24.941  25.996   8.851
 2303POPC   C2B33164  24.815  25.728   8.510
 2303POPC   C3B33165  24.920  25.707   8.092
 2303POPC   C4B33166  24.801  25.744   7.673
 2304POPC   NC333167   9.108  40.098   9.337
 2304POPC   PO433168   8.516  39.714   9.371
 2304POPC   GL133169   8.775  39.829   9.027
 2304POPC   GL233170   8.646  40.147   8.873
 2304POPC   C1A33171   8.864  39.767   8.584
 2304POPC   D2A33172   8.775  40.077   8.261
 2304POPC   C3A33173   8.911  39.961   7.860
 2304POPC   C4A33174   9.338  39.873   7.769
 2304POPC   C1B33175   9.079  40.231   8.688
 2304POPC   C2B33176   9.330  40.237   8.316
 2304POPC   C3B33177   9.225  40.361   7.911
 2304POPC   C4B33178   9.184  40.294   7.473
 2305POPC   NC333179  31.948  28.673   9.438
 2305POPC   PO433180  32.195  29.317   9.589
 2305POPC   GL133181  32.072  29.160   9.188
 2305POPC   GL233182  32.394  29.111   9.134
 2305POPC   C1A33183  32.146  29.298   8.730
 2305POPC   D2A33184  32.327  29.195   8.326
 2305POPC   C3A33185  32.065  29.172   7.932
 2305POPC   C4A33186  32.063  29.108   7.464
 2305POPC   C1B33187  32.547  28.932   8.782
 2305POPC   C2B33188  32.448  28.686   8.430
 2305POPC   C3B33189  32.316  28.750   8.032
 2305POPC   C4B33190  32.466  28.845   7.644
 2306POPC   NC333191  27.313  37.272   9.293
 2306POPC   PO433192  26.794  37.052   9.649
 2306POPC   GL133193  26.906  36.928   9.186
 2306POPC   GL233194  27.116  36.622   9.134
 2306POPC   C1A33195  26.698  36.780   8.784
 2306POPC   D2A33196  26.638  36.558   8.385
 2306POPC   C3A33197  26.645  36.830   8.022
 2306POPC   C4A33198  26.842  36.939   7.645
 2306POPC   C1B33199  27.199  36.846   8.767
 2306POPC   C2B33200  27.022  36.911   8.378
 2306POPC   C3B33201  27.184  36.795   7.997
 2306POPC   C4B33202  27.355  37.068   7.718
 2307POPC   NC333203  35.139  19.424   9.484
 2307POPC   PO433204  35.293  20.106   9.503
 2307POPC   GL133205  35.447  19.790   9.248
 2307POPC   GL233206  35.124  19.771   9.096
 2307POPC   C1A33207  35.574  19.738   8.832
 2307POPC   D2A33208  35.404  19.751   8.430
 2307POPC   C3A33209  35.670  19.751   8.053
 2307POPC   C4A33210  35.653  19.891   7.633
 2307POPC   C1B33211  35.020  19.529   8.719
 2307POPC   C2B33212  34.922  19.646   8.282
 2307POPC   C3B33213  35.184  19.790   7.957
 2307POPC   C4B33214  35.277  19.552   7.637
 2308POPC   NC333215  43.344   1.862   9.585
 2308POPC   PO433216  42.743   2.058   9.423
 2308POPC   GL133217  42.928   1.934   9.050
 2308POPC   GL233218  43.292   1.842   9.085
 2308POPC   C1A33219  43.126   2.130   8.679
 2308POPC   D2A33220  43.322   2.455   8.389
 2308POPC   C3A33221  43.205   2.310   7.979
 2308POPC   C4A33222  42.823   2.079   7.837
 2308POPC   C1B33223  43.129   1.561   8.782
 2308POPC   C2B33224  43.046   1.685   8.394
 2308POPC   C3B33225  43.083   1.633   7.997
 2308POPC   C4B33226  43.286   1.873   7.730
 2309POPC   NC333227  24.500  34.492   9.616
 2309POPC   PO433228  24.731  35.157   9.456
 2309POPC   GL133229  24.525  34.859   9.170
 2309POPC   GL233230  24.444  34.504   9.111
 2309POPC   C1A33231  24.298  34.879   8.792
 2309POPC   D2A33232  24.455  34.859   8.423
 2309POPC   C3A33233  24.400  34.584   8.103
 2309POPC   C4A33234  24.705  34.673   7.840
 2309POPC   C1B33235  24.671  34.218   8.817
 2309POPC   C2B33236  24.567  34.130   8.384
 2309POPC   C3B33237  24.677  34.173   7.940
 2309POPC   C4B33238  24.316  34.250   7.654
 2310POPC   NC333239  13.847  17.752   9.641
 2310POPC   PO433240  13.372  17.331   9.437
 2310POPC   GL133241  13.570  17.584   9.168
 2310POPC   GL233242  13.249  17.639   8.999
 2310POPC   C1A33243  13.772  17.436   8.787
 2310POPC   D2A33244  13.556  17.392   8.397
 2310POPC   C3A33245  13.768  17.410   8.032
 2310POPC   C4A33246  13.858  17.610   7.641
 2310POPC   C1B33247  13.480  17.865   8.691
 2310POPC   C2B33248  13.580  18.057   8.288
 2310POPC   C3B33249  13.525  17.890   7.878
 2310POPC   C4B33250  13.336  17.460   7.764
 2311POPC   NC333251  11.337  36.460   9.608
 2311POPC   PO433252  11.400  35.799   9.588
 2311POPC   GL133253  11.308  36.076   9.238
 2311POPC   GL233254  10.954  36.186   9.154
 2311POPC   C1A33255  11.564  36.156   8.872
 2311POPC   D2A33256  11.665  36.120   8.431
 2311POPC   C3A33257  11.334  36.252   8.168
 2311POPC   C4A33258  11.360  36.515   7.847
 2311POPC   C1B33259  10.934  35.941   8.752
 2311POPC   C2B33260  11.092  35.779   8.331
 2311POPC   C3B33261  11.467  35.786   8.076
 2311POPC   C4B33262  11.563  36.040   7.711
 2312POPC   NC333263   7.742  19.372   9.508
 2312POPC   PO433264   7.248  19.786   9.611
 2312POPC   GL133265   7.418  19.737   9.188
 2312POPC   GL233266   7.613  20.048   9.072
 2312POPC   C1A33267   7.487  19.501   8.836
 2312POPC   D2A33268   7.752  19.605   8.502
 2312POPC   C3A33269   7.622  19.519   8.090
 2312POPC   C4A33270   7.604  19.601   7.690
 2312POPC   C1B33271   7.418  20.026   8.676
 2312POPC   C2B33272   7.322  20.211   8.274
 2312POPC   C3B33273   7.516  20.008   7.987
 2312POPC   C4B33274   7.824  20.120   7.729
 2313POPC   NC333275  40.651  28.953   9.478
 2313POPC   PO433276  40.778  29.618   9.382
 2313POPC   GL133277  40.818  29.358   9.023
 2313POPC   GL233278  40.992  29.035   9.019
 2313POPC   C1A33279  40.798  29.604   8.630
 2313POPC   D2A33280  40.959  29.465   8.244
 2313POPC   C3A33281  40.710  29.533   7.900
 2313POPC   C4A33282  40.281  29.504   7.921
 2313POPC   C1B33283  40.772  29.110   8.584
 2313POPC   C2B33284  40.542  29.117   8.169
 2313POPC   C3B33285  40.562  28.833   7.821
 2313POPC   C4B33286  40.890  28.725   7.525
 2314POPC   NC333287   2.129  36.459   9.522
 2314POPC   PO433288   2.377  35.863   9.350
 2314POPC   GL133289   2.093  36.145   9.101
 2314POPC   GL233290   1.712  36.095   9.104
 2314POPC   C1A33291   2.012  35.991   8.697
 2314POPC   D2A33292   2.074  35.727   8.349
 2314POPC   C3A33293   2.029  35.985   8.008
 2314POPC   C4A33294   1.812  35.842   7.672
 2314POPC   C1B33295   1.666  36.410   8.757
 2314POPC   C2B33296   1.788  36.287   8.354
 2314POPC   C3B33297   1.738  36.406   7.935
 2314POPC   C4B33298   1.819  36.341   7.498
 2315POPC   NC333299  41.967  44.484   9.637
 2315POPC   PO433300  41.287  44.601   9.567
 2315POPC   GL133301  41.489  44.679   9.168
 2315POPC   GL233302  41.561   0.035   9.053
 2315POPC   C1A33303  41.612  44.486   8.787
 2315POPC   D2A33304  41.385  44.419   8.401
 2315POPC   C3A33305  41.526  44.582   8.028
 2315POPC   C4A33306  41.722  44.411   7.688
 2315POPC   C1B33307  41.319  44.881   8.692
 2315POPC   C2B33308  41.304  44.992   8.273
 2315POPC   C3B33309  41.404   0.041   7.862
 2315POPC   C4B33310  41.421  44.806   7.537
 2316POPC   NC333311  30.603  41.804   9.426
 2316POPC   PO433312  31.066  41.354   9.522
 2316POPC   GL133313  30.893  41.231   9.129
 2316POPC   GL233314  30.590  41.415   9.080
 2316POPC   C1A33315  30.756  41.072   8.749
 2316POPC   D2A33316  30.500  41.315   8.468
 2316POPC   C3A33317  30.635  41.441   8.082
 2316POPC   C4A33318  30.820  41.458   7.700
 2316POPC   C1B33319  30.534  41.748   8.767
 2316POPC   C2B33320  30.506  41.908   8.331
 2316POPC   C3B33321  30.528  41.889   7.848
 2316POPC   C4B33322  30.435  41.639   7.445
 2317POPC   NC333323  43.453  28.036   9.727
 2317POPC   PO433324  43.194  28.533   9.614
 2317POPC   GL133325  43.249  28.622   9.170
 2317POPC   GL233326  43.232  28.267   9.092
 2317POPC   C1A33327  43.100  28.627   8.723
 2317POPC   D2A33328  42.909  28.401   8.370
 2317POPC   C3A33329  43.032  28.583   7.950
 2317POPC   C4A33330  43.399  28.778   7.796
 2317POPC   C1B33331  43.321  28.185   8.649
 2317POPC   C2B33332  43.418  28.443   8.273
 2317POPC   C3B33333  43.446  28.262   7.852
 2317POPC   C4B33334  43.459  27.942   7.507
 2318POPC   NC333335  10.584  41.408   9.568
 2318POPC   PO433336  11.165  41.409   9.302
 2318POPC   GL133337  10.842  41.540   9.025
 2318POPC   GL233338  10.463  41.483   9.054
 2318POPC   C1A33339  10.697  41.767   8.655
 2318POPC   D2A33340  10.469  41.567   8.399
 2318POPC   C3A33341  10.686  41.418   8.058
 2318POPC   C4A33342  10.593  41.162   7.727
 2318POPC   C1B33343  10.168  41.771   8.786
 2318POPC   C2B33344  10.110  41.956   8.381
 2318POPC   C3B33345  10.432  41.951   8.078
 2318POPC   C4B33346  10.694  42.000   7.730
 2319POPC   NC333347  24.296  40.481   9.633
 2319POPC   PO433348  24.561  40.938   9.325
 2319POPC   GL133349  24.296  40.748   9.111
 2319POPC   GL233350  24.264  40.388   9.127
 2319POPC   C1A33351  24.135  40.908   8.759
 2319POPC   D2A33352  24.130  41.110   8.394
 2319POPC   C3A33353  24.134  40.850   8.075
 2319POPC   C4A33354  24.377  40.933   7.768
 2319POPC   C1B33355  24.642  40.466   8.817
 2319POPC   C2B33356  24.738  40.619   8.374
 2319POPC   C3B33357  24.618  40.497   7.942
 2319POPC   C4B33358  24.524  40.545   7.488
 2320POPC   NC333359   4.067  15.786   9.576
 2320POPC   PO433360   4.490  16.212   9.492
 2320POPC   GL133361   4.417  15.928   9.165
 2320POPC   GL233362   4.072  15.885   9.071
 2320POPC   C1A33363   4.500  16.056   8.747
 2320POPC   D2A33364   4.192  16.096   8.412
 2320POPC   C3A33365   4.354  16.075   7.982
 2320POPC   C4A33366   4.214  16.331   7.624
 2320POPC   C1B33367   4.201  15.649   8.716
 2320POPC   C2B33368   4.448  15.631   8.320
 2320POPC   C3B33369   4.295  15.540   7.909
 2320POPC   C4B33370   3.922  15.624   7.688
 2321POPC   NC333371   5.522  12.608   9.822
 2321POPC   PO433372   4.956  12.846   9.538
 2321POPC   GL133373   5.070  12.949   9.167
 2321POPC   GL233374   5.227  12.670   9.110
 2321POPC   C1A33375   5.045  13.013   8.714
 2321POPC   D2A33376   5.150  12.909   8.296
 2321POPC   C3A33377   4.869  13.031   7.975
 2321POPC   C4A33378   4.884  12.852   7.617
 2321POPC   C1B33379   4.860  12.546   8.823
 2321POPC   C2B33380   4.795  12.358   8.433
 2321POPC   C3B33381   4.915  12.510   8.069
 2321POPC   C4B33382   4.796  12.357   7.703
 2322POPC   NC333383  33.499  16.914   9.581
 2322POPC   PO433384  32.866  16.677   9.531
 2322POPC   GL133385  32.978  16.647   9.151
 2322POPC   GL233386  32.818  16.307   9.162
 2322POPC   C1A33387  33.173  16.831   8.825
 2322POPC   D2A33388  33.071  16.680   8.462
 2322POPC   C3A33389  33.074  16.900   8.100
 2322POPC   C4A33390  32.967  16.788   7.711
 2322POPC   C1B33391  33.047  16.257   8.826
 2322POPC   C2B33392  32.896  16.196   8.441
 2322POPC   C3B33393  33.021  16.350   8.048
 2322POPC   C4B33394  33.125  16.276   7.613
 2323POPC   NC333395   9.187  11.530   9.512
 2323POPC   PO433396   8.523  11.548   9.584
 2323POPC   GL133397   8.651  11.426   9.156
 2323POPC   GL233398   8.722  11.068   9.134
 2323POPC   C1A33399   8.759  11.319   8.692
 2323POPC   D2A33400   8.789  11.428   8.252
 2323POPC   C3A33401   9.097  11.511   7.937
 2323POPC   C4A33402   8.829  11.703   7.596
 2323POPC   C1B33403   9.045  10.886   8.849
 2323POPC   C2B33404   9.115  10.713   8.433
 2323POPC   C3B33405   8.990  10.973   8.048
 2323POPC   C4B33406   8.707  11.222   7.771
 2324POPC   NC333407   2.388   6.460   9.593
 2324POPC   PO433408   2.879   6.893   9.481
 2324POPC   GL133409   2.689   6.642   9.184
 2324POPC   GL233410   2.990   6.559   9.002
 2324POPC   C1A33411   2.539   6.668   8.768
 2324POPC   D2A33412   2.416   6.641   8.352
 2324POPC   C3A33413   2.585   6.832   7.999
 2324POPC   C4A33414   2.585   6.969   7.586
 2324POPC   C1B33415   2.893   6.332   8.593
 2324POPC   C2B33416   2.766   6.327   8.165
 2324POPC   C3B33417   2.926   6.464   7.775
 2324POPC   C4B33418   3.036   6.753   7.464
 2325POPC   NC333419  38.035   1.534   9.502
 2325POPC   PO433420  37.388   1.378   9.458
 2325POPC   GL133421  37.443   1.091   9.145
 2325POPC   GL233422  37.800   1.071   9.185
 2325POPC   C1A33423  37.421   0.997   8.716
 2325POPC   D2A33424  37.548   0.797   8.347
 2325POPC   C3A33425  37.476   1.032   7.956
 2325POPC   C4A33426  37.722   1.073   7.569
 2325POPC   C1B33427  37.730   1.415   8.860
 2325POPC   C2B33428  37.764   1.394   8.415
 2325POPC   C3B33429  37.882   1.365   7.992
 2325POPC   C4B33430  37.797   1.603   7.629
 2326POPC   NC333431  30.164   5.202   9.918
 2326POPC   PO433432  30.794   5.010   9.713
 2326POPC   GL133433  30.878   4.979   9.259
 2326POPC   GL233434  30.602   5.173   9.142
 2326POPC   C1A33435  30.775   4.880   8.772
 2326POPC   D2A33436  30.537   5.006   8.390
 2326POPC   C3A33437  30.535   4.820   7.968
 2326POPC   C4A33438  30.871   4.887   7.693
 2326POPC   C1B33439  30.380   5.416   8.829
 2326POPC   C2B33440  30.466   5.551   8.385
 2326POPC   C3B33441  30.711   5.344   8.035
 2326POPC   C4B33442  30.516   5.255   7.650
 2327POPC   NC333443   8.641   0.932   9.621
 2327POPC   PO433444   9.278   1.131   9.525
 2327POPC   GL133445   8.983   1.105   9.206
 2327POPC   GL233446   8.744   1.358   9.211
 2327POPC   C1A33447   9.054   1.010   8.772
 2327POPC   D2A33448   9.297   1.024   8.396
 2327POPC   C3A33449   9.004   0.939   8.095
 2327POPC   C4A33450   8.859   1.009   7.694
 2327POPC   C1B33451   8.915   1.504   8.797
 2327POPC   C2B33452   8.831   1.332   8.391
 2327POPC   C3B33453   8.702   1.411   7.985
 2327POPC   C4B33454   8.736   1.449   7.488
 2328POPC   NC333455  41.558  10.180   9.594
 2328POPC   PO433456  41.829  10.730   9.431
 2328POPC   GL133457  41.525  10.476   9.181
 2328POPC   GL233458  41.296  10.151   9.155
 2328POPC   C1A33459  41.465  10.507   8.775
 2328POPC   D2A33460  41.404  10.769   8.454
 2328POPC   C3A33461  41.429  10.585   8.059
 2328POPC   C4A33462  41.212  10.630   7.642
 2328POPC   C1B33463  41.105  10.152   8.741
 2328POPC   C2B33464  41.073  10.328   8.346
 2328POPC   C3B33465  41.174  10.175   7.924
 2328POPC   C4B33466  41.108  10.118   7.467
 2329POPC   NC333467  23.305  42.625   9.510
 2329POPC   PO433468  23.009  41.971   9.452
 2329POPC   GL133469  22.994  42.310   9.174
 2329POPC   GL233470  23.339  42.325   9.110
 2329POPC   C1A33471  22.997  42.559   8.780
 2329POPC   D2A33472  23.196  42.600   8.367
 2329POPC   C3A33473  23.014  42.362   8.019
 2329POPC   C4A33474  23.198  42.270   7.602
 2329POPC   C1B33475  23.198  42.064   8.782
 2329POPC   C2B33476  23.284  42.098   8.380
 2329POPC   C3B33477  23.309  41.924   8.026
 2329POPC   C4B33478  23.112  41.791   7.709
 2330POPC   NC333479  42.405  23.070   9.816
 2330POPC   PO433480  42.023  22.705   9.648
 2330POPC   GL133481  42.207  22.648   9.249
 2330POPC   GL233482  42.492  22.430   9.244
 2330POPC   C1A33483  42.172  22.692   8.790
 2330POPC   D2A33484  42.259  22.569   8.344
 2330POPC   C3A33485  42.127  22.725   7.938
 2330POPC   C4A33486  42.220  23.032   7.598
 2330POPC   C1B33487  42.596  22.387   8.796
 2330POPC   C2B33488  42.633  22.224   8.354
 2330POPC   C3B33489  42.535  22.378   7.927
 2330POPC   C4B33490  42.400  22.529   7.529
 2331POPC   NC333491   1.734  20.391   9.521
 2331POPC   PO433492   2.237  20.804   9.512
 2331POPC   GL133493   2.072  20.598   9.177
 2331POPC   GL233494   1.772  20.747   9.136
 2331POPC   C1A33495   2.143  20.697   8.757
 2331POPC   D2A33496   2.183  20.554   8.338
 2331POPC   C3A33497   1.965  20.369   7.989
 2331POPC   C4A33498   2.112  20.632   7.625
 2331POPC   C1B33499   1.704  20.454   8.835
 2331POPC   C2B33500   1.615  20.395   8.415
 2331POPC   C3B33501   1.458  20.451   8.031
 2331POPC   C4B33502   1.597  20.622   7.686
 2332POPC   NC333503  12.191   6.412   9.962
 2332POPC   PO433504  11.877   6.828   9.485
 2332POPC   GL133505  12.007   6.894   9.054
 2332POPC   GL233506  12.282   6.691   8.958
 2332POPC   C1A33507  11.963   6.884   8.617
 2332POPC   D2A33508  12.300   6.723   8.401
 2332POPC   C3A33509  12.230   6.781   7.982
 2332POPC   C4A33510  12.105   6.950   7.596
 2332POPC   C1B33511  12.066   6.362   8.700
 2332POPC   C2B33512  12.204   6.182   8.329
 2332POPC   C3B33513  12.221   6.263   7.936
 2332POPC   C4B33514  12.302   6.478   7.571
 2333POPC   NC333515   1.879  11.169   9.302
 2333POPC   PO433516   2.300  11.767   9.462
 2333POPC   GL133517   2.149  11.604   9.106
 2333POPC   GL233518   2.376  11.335   9.143
 2333POPC   C1A33519   1.907  11.567   8.709
 2333POPC   D2A33520   1.653  11.319   8.420
 2333POPC   C3A33521   1.755  11.452   8.013
 2333POPC   C4A33522   1.703  11.700   7.666
 2333POPC   C1B33523   2.237  11.167   8.727
 2333POPC   C2B33524   2.124  11.188   8.310
 2333POPC   C3B33525   2.137  11.134   7.889
 2333POPC   C4B33526   2.219  11.515   7.664
 2334POPC   NC333527   3.852  21.570   9.265
 2334POPC   PO433528   3.196  21.512   9.404
 2334POPC   GL133529   3.429  21.372   9.055
 2334POPC   GL233530   3.640  21.076   9.093
 2334POPC   C1A33531   3.641  21.435   8.633
 2334POPC   D2A33532   3.732  21.540   8.190
 2334POPC   C3A33533   3.444  21.553   7.847
 2334POPC   C4A33534   3.749  21.663   7.564
 2334POPC   C1B33535   3.377  20.994   8.723
 2334POPC   C2B33536   3.383  21.139   8.275
 2334POPC   C3B33537   3.638  21.096   7.895
 2334POPC   C4B33538   3.466  21.173   7.470
 2335POPC   NC333539   6.670  24.223   9.420
 2335POPC   PO433540   6.506  24.834   9.544
 2335POPC   GL133541   6.808  24.640   9.171
 2335POPC   GL233542   7.092  24.330   9.169
 2335POPC   C1A33543   6.550  24.463   8.803
 2335POPC   D2A33544   6.296  24.674   8.487
 2335POPC   C3A33545   6.416  24.523   8.119
 2335POPC   C4A33546   6.554  24.564   7.655
 2335POPC   C1B33547   7.063  24.447   8.722
 2335POPC   C2B33548   6.902  24.353   8.283
 2335POPC   C3B33549   7.008  24.421   7.851
 2335POPC   C4B33550   7.087  24.379   7.398
 2336POPC   NC333551   1.568  29.145   9.432
 2336POPC   PO433552   2.215  29.056   9.407
 2336POPC   GL133553   1.953  29.083   9.091
 2336POPC   GL233554   1.810  28.742   9.156
 2336POPC   C1A33555   2.027  29.298   8.705
 2336POPC   D2A33556   2.180  29.140   8.335
 2336POPC   C3A33557   1.998  29.209   7.928
 2336POPC   C4A33558   2.164  29.350   7.553
 2336POPC   C1B33559   1.726  28.806   8.715
 2336POPC   C2B33560   1.685  28.921   8.284
 2336POPC   C3B33561   1.695  28.789   7.869
 2336POPC   C4B33562   1.800  28.910   7.442
 2337POPC   NC333563  39.180  12.634   9.571
 2337POPC   PO433564  39.635  12.095   9.551
 2337POPC   GL133565  39.369  12.110   9.160
 2337POPC   GL233566  39.371  12.419   9.149
 2337POPC   C1A33567  39.221  11.949   8.743
 2337POPC   D2A33568  38.851  11.927   8.453
 2337POPC   C3A33569  38.883  11.754   8.021
 2337POPC   C4A33570  38.986  11.966   7.615
 2337POPC   C1B33571  39.517  12.363   8.726
 2337POPC   C2B33572  39.516  12.048   8.346
 2337POPC   C3B33573  39.372  11.944   7.966
 2337POPC   C4B33574  39.539  12.227   7.690
 2338POPC   NC333575  32.497  28.145   9.377
 2338POPC   PO433576  32.385  28.822   9.552
 2338POPC   GL133577  32.566  28.622   9.192
 2338POPC   GL233578  32.259  28.555   9.064
 2338POPC   C1A33579  32.579  28.325   8.780
 2338POPC   D2A33580  32.179  28.278   8.586
 2338POPC   C3A33581  32.168  28.280   8.146
 2338POPC   C4A33582  32.281  28.276   7.711
 2338POPC   C1B33583  32.040  28.795   8.804
 2338POPC   C2B33584  31.921  28.884   8.420
 2338POPC   C3B33585  31.798  28.639   8.131
 2338POPC   C4B33586  31.887  28.689   7.727
 2339POPC   NC333587   4.085  12.599   9.517
 2339POPC   PO433588   4.255  13.217   9.430
 2339POPC   GL133589   4.232  12.929   9.117
 2339POPC   GL233590   4.577  12.865   9.131
 2339POPC   C1A33591   4.340  12.828   8.685
 2339POPC   D2A33592   4.629  12.833   8.365
 2339POPC   C3A33593   4.472  12.710   7.930
 2339POPC   C4A33594   4.062  12.670   7.813
 2339POPC   C1B33595   4.598  13.247   8.818
 2339POPC   C2B33596   4.554  13.342   8.367
 2339POPC   C3B33597   4.363  13.198   7.994
 2339POPC   C4B33598   4.573  13.292   7.599
 2340POPC   NC333599  20.450  37.071   9.594
 2340POPC   PO433600  20.464  36.437   9.563
 2340POPC   GL133601  20.440  36.825   9.134
 2340POPC   GL233602  20.639  37.125   9.116
 2340POPC   C1A33603  20.703  36.789   8.717
 2340POPC   D2A33604  20.770  36.651   8.278
 2340POPC   C3A33605  20.489  36.671   7.894
 2340POPC   C4A33606  20.620  36.635   7.439
 2340POPC   C1B33607  20.378  37.191   8.747
 2340POPC   C2B33608  20.493  37.075   8.313
 2340POPC   C3B33609  20.714  37.108   7.900
 2340POPC   C4B33610  20.472  37.098   7.496
 2341POPC   NC333611  28.212  14.055   9.560
 2341POPC   PO433612  28.580  13.525   9.447
 2341POPC   GL133613  28.157  13.556   9.226
 2341POPC   GL233614  28.123  13.868   9.080
 2341POPC   C1A33615  28.146  13.420   8.794
 2341POPC   D2A33616  28.437  13.511   8.446
 2341POPC   C3A33617  28.259  13.541   8.027
 2341POPC   C4A33618  28.339  13.560   7.588
 2341POPC   C1B33619  28.357  13.955   8.701
 2341POPC   C2B33620  28.404  14.005   8.234
 2341POPC   C3B33621  28.474  14.043   7.748
 2341POPC   C4B33622  28.454  13.965   7.290
 2342POPC   NC333623  17.804  41.557   9.430
 2342POPC   PO433624  18.374  41.935   9.466
 2342POPC   GL133625  18.242  41.744   9.114
 2342POPC   GL233626  18.213  41.371   9.122
 2342POPC   C1A33627  18.392  41.664   8.709
 2342POPC   D2A33628  18.194  41.564   8.318
 2342POPC   C3A33629  18.195  41.918   8.081
 2342POPC   C4A33630  18.611  41.895   7.910
 2342POPC   C1B33631  17.898  41.478   8.770
 2342POPC   C2B33632  17.735  41.351   8.350
 2342POPC   C3B33633  17.843  41.414   7.922
 2342POPC   C4B33634  18.214  41.549   7.749
 2343POPC   NC333635  12.580  31.348   9.803
 2343POPC   PO433636  13.081  31.694   9.569
 2343POPC   GL133637  12.720  31.532   9.283
 2343POPC   GL233638  12.895  31.701   9.030
 2343POPC   C1A33639  12.475  31.428   8.863
 2343POPC   D2A33640  12.533  31.510   8.394
 2343POPC   C3A33641  12.784  31.327   8.063
 2343POPC   C4A33642  12.481  31.370   7.745
 2343POPC   C1B33643  13.100  32.023   8.736
 2343POPC   C2B33644  13.328  32.002   8.329
 2343POPC   C3B33645  13.186  31.871   7.931
 2343POPC   C4B33646  13.238  31.705   7.502
 2344POPC   NC333647  29.974  22.658   9.573
 2344POPC   PO433648  29.934  23.312   9.540
 2344POPC   GL133649  29.871  23.149   9.148
 2344POPC   GL233650  29.978  22.867   9.090
 2344POPC   C1A33651  29.747  23.276   8.754
 2344POPC   D2A33652  29.507  23.232   8.396
 2344POPC   C3A33653  29.634  23.070   8.010
 2344POPC   C4A33654  29.641  23.292   7.619
 2344POPC   C1B33655  30.134  22.937   8.701
 2344POPC   C2B33656  30.020  22.982   8.326
 2344POPC   C3B33657  30.040  22.728   7.956
 2344POPC   C4B33658  29.829  22.811   7.598
 2345POPC   NC333659  31.726  25.540   9.447
 2345POPC   PO433660  31.149  25.291   9.577
 2345POPC   GL133661  31.298  25.417   9.165
 2345POPC   GL233662  31.625  25.212   9.080
 2345POPC   C1A33663  31.457  25.594   8.787
 2345POPC   D2A33664  31.475  25.670   8.365
 2345POPC   C3A33665  31.311  25.354   8.108
 2345POPC   C4A33666  31.251  25.389   7.679
 2345POPC   C1B33667  31.705  25.120   8.638
 2345POPC   C2B33668  31.887  25.358   8.282
 2345POPC   C3B33669  31.747  25.433   7.879
 2345POPC   C4B33670  31.733  25.114   7.590
 2346POPC   NC333671  40.393  13.946   9.261
 2346POPC   PO433672  39.807  13.638   9.497
 2346POPC   GL133673  39.976  13.598   9.092
 2346POPC   GL233674  40.287  13.469   9.049
 2346POPC   C1A33675  39.815  13.734   8.710
 2346POPC   D2A33676  39.865  13.556   8.325
 2346POPC   C3A33677  39.756  13.724   7.951
 2346POPC   C4A33678  40.062  13.888   7.719
 2346POPC   C1B33679  40.307  13.647   8.612
 2346POPC   C2B33680  40.278  13.852   8.190
 2346POPC   C3B33681  40.551  13.757   7.818
 2346POPC   C4B33682  40.524  13.608   7.383
 2347POPC   NC333683  32.929  13.414   9.595
 2347POPC   PO433684  32.996  14.098   9.764
 2347POPC   GL133685  32.891  13.908   9.339
 2347POPC   GL233686  33.158  13.746   9.186
 2347POPC   C1A33687  32.766  13.768   8.896
 2347POPC   D2A33688  32.706  13.932   8.477
 2347POPC   C3A33689  32.830  13.736   8.105
 2347POPC   C4A33690  32.780  13.618   7.686
 2347POPC   C1B33691  33.303  13.562   8.819
 2347POPC   C2B33692  33.183  13.444   8.420
 2347POPC   C3B33693  33.317  13.550   8.029
 2347POPC   C4B33694  33.252  13.443   7.653
 2348POPC   NC333695  19.227  40.750   9.449
 2348POPC   PO433696  18.602  41.060   9.394
 2348POPC   GL133697  18.829  40.850   9.047
 2348POPC   GL233698  19.014  40.527   9.056
 2348POPC   C1A33699  18.876  40.830   8.603
 2348POPC   D2A33700  18.641  40.789   8.228
 2348POPC   C3A33701  18.969  40.802   7.921
 2348POPC   C4A33702  18.953  40.955   7.493
 2348POPC   C1B33703  19.343  40.702   8.779
 2348POPC   C2B33704  19.469  40.553   8.372
 2348POPC   C3B33705  19.342  40.426   7.965
 2348POPC   C4B33706  19.303  40.614   7.550
 2349POPC   NC333707   2.473  17.126   9.522
 2349POPC   PO433708   2.984  16.605   9.621
 2349POPC   GL133709   2.721  16.763   9.275
 2349POPC   GL233710   2.801  17.055   9.147
 2349POPC   C1A33711   2.828  16.656   8.826
 2349POPC   D2A33712   2.860  16.879   8.440
 2349POPC   C3A33713   2.742  16.572   8.078
 2349POPC   C4A33714   2.973  16.496   7.668
 2349POPC   C1B33715   2.523  17.065   8.813
 2349POPC   C2B33716   2.377  16.982   8.372
 2349POPC   C3B33717   2.653  17.065   7.974
 2349POPC   C4B33718   2.450  17.116   7.549
 2350POPC   NC333719   0.768  17.376   9.555
 2350POPC   PO433720   0.356  17.862   9.523
 2350POPC   GL133721   0.350  17.550   9.187
 2350POPC   GL233722   0.654  17.626   9.115
 2350POPC   C1A33723   0.261  17.423   8.707
 2350POPC   D2A33724   0.146  17.586   8.249
 2350POPC   C3A33725   0.362  17.529   7.838
 2350POPC   C4A33726   0.716  17.831   7.637
 2350POPC   C1B33727   0.778  17.447   8.769
 2350POPC   C2B33728   0.636  17.450   8.360
 2350POPC   C3B33729   0.832  17.476   7.993
 2350POPC   C4B33730   0.750  17.351   7.542
 2351POPC   NC333731  12.231   1.054   9.685
 2351POPC   PO433732  11.668   1.449   9.601
 2351POPC   GL133733  11.929   1.178   9.313
 2351POPC   GL233734  11.923   1.435   9.137
 2351POPC   C1A33735  12.071   0.973   8.908
 2351POPC   D2A33736  11.957   1.008   8.441
 2351POPC   C3A33737  12.259   1.048   8.095
 2351POPC   C4A33738  12.322   1.185   7.669
 2351POPC   C1B33739  12.138   1.444   8.797
 2351POPC   C2B33740  12.175   1.469   8.398
 2351POPC   C3B33741  12.071   1.527   7.992
 2351POPC   C4B33742  12.297   1.776   7.724
 2352POPC   NC333743  11.926  44.963   9.594
 2352POPC   PO433744  12.167   0.618   9.507
 2352POPC   GL133745  11.886   0.570   9.156
 2352POPC   GL233746  12.173   0.465   8.926
 2352POPC   C1A33747  11.730   0.630   8.713
 2352POPC   D2A33748  12.024   0.492   8.378
 2352POPC   C3A33749  12.024   0.635   7.938
 2352POPC   C4A33750  12.390   0.664   7.658
 2352POPC   C1B33751  11.891   0.148   8.785
 2352POPC   C2B33752  11.683   0.109   8.389
 2352POPC   C3B33753  11.807   0.181   7.962
 2352POPC   C4B33754  12.157   0.099   7.691
 2353POPC   NC333755  17.394  34.980   9.483
 2353POPC   PO433756  17.737  35.585   9.478
 2353POPC   GL133757  17.695  35.579   9.091
 2353POPC   GL233758  17.608  35.250   9.106
 2353POPC   C1A33759  17.465  35.491   8.702
 2353POPC   D2A33760  17.327  35.157   8.459
 2353POPC   C3A33761  17.397  35.409   8.126
 2353POPC   C4A33762  17.320  35.400   7.718
 2353POPC   C1B33763  17.774  35.039   8.723
 2353POPC   C2B33764  17.844  35.156   8.297
 2353POPC   C3B33765  17.833  35.296   7.868
 2353POPC   C4B33766  17.796  35.054   7.484
 2354POPC   NC333767   3.960  22.413   9.479
 2354POPC   PO433768   4.570  22.069   9.396
 2354POPC   GL133769   4.274  22.257   9.116
 2354POPC   GL233770   4.327  22.647   9.132
 2354POPC   C1A33771   4.018  22.052   8.772
 2354POPC   D2A33772   4.129  21.777   8.403
 2354POPC   C3A33773   4.046  21.935   7.967
 2354POPC   C4A33774   4.434  22.176   7.819
 2354POPC   C1B33775   4.178  22.539   8.721
 2354POPC   C2B33776   4.167  22.315   8.351
 2354POPC   C3B33777   3.946  22.431   8.030
 2354POPC   C4B33778   4.052  22.550   7.644
 2355POPC   NC333779  11.780   4.230   9.613
 2355POPC   PO433780  12.315   4.562   9.802
 2355POPC   GL133781  12.061   4.547   9.344
 2355POPC   GL233782  12.018   4.179   9.176
 2355POPC   C1A33783  12.016   4.555   8.849
 2355POPC   D2A33784  12.311   4.408   8.500
 2355POPC   C3A33785  12.275   4.384   8.046
 2355POPC   C4A33786  12.246   4.028   7.753
 2355POPC   C1B33787  11.999   4.057   8.720
 2355POPC   C2B33788  11.959   4.011   8.259
 2355POPC   C3B33789  11.796   4.238   7.913
 2355POPC   C4B33790  11.799   4.132   7.487
 2356POPC   NC333791   2.716  10.624   9.348
 2356POPC   PO433792   2.316  10.063   9.457
 2356POPC   GL133793   2.547  10.211   9.093
 2356POPC   GL233794   2.889  10.158   9.019
 2356POPC   C1A33795   2.546  10.444   8.692
 2356POPC   D2A33796   2.853  10.741   8.497
 2356POPC   C3A33797   2.876  10.713   8.034
 2356POPC   C4A33798   2.742  10.501   7.599
 2356POPC   C1B33799   2.992  10.219   8.567
 2356POPC   C2B33800   3.172  10.265   8.144
 2356POPC   C3B33801   3.254  10.185   7.697
 2356POPC   C4B33802   3.139  10.303   7.274
 2357POPC   NC333803  19.597  31.470   9.570
 2357POPC   PO433804  20.211  31.725   9.485
 2357POPC   GL133805  19.977  31.488   9.223
 2357POPC   GL233806  19.703  31.701   9.138
 2357POPC   C1A33807  19.913  31.397   8.795
 2357POPC   D2A33808  19.864  31.547   8.403
 2357POPC   C3A33809  20.102  31.285   8.102
 2357POPC   C4A33810  19.912  31.203   7.712
 2357POPC   C1B33811  19.663  31.921   8.750
 2357POPC   C2B33812  19.449  31.872   8.343
 2357POPC   C3B33813  19.581  31.965   7.932
 2357POPC   C4B33814  19.770  31.682   7.614
 2358POPC   NC333815  36.139  12.004   9.618
 2358POPC   PO433816  35.795  11.543   9.384
 2358POPC   GL133817  36.085  11.881   9.125
 2358POPC   GL233818  36.240  12.248   9.183
 2358POPC   C1A33819  36.056  12.107   8.718
 2358POPC   D2A33820  36.084  12.434   8.381
 2358POPC   C3A33821  35.934  12.334   7.944
 2358POPC   C4A33822  35.992  11.930   7.710
 2358POPC   C1B33823  36.505  12.339   8.781
 2358POPC   C2B33824  36.591  12.560   8.363
 2358POPC   C3B33825  36.364  12.607   7.943
 2358POPC   C4B33826  36.307  12.313   7.579
 2359POPC   NC333827  26.460  38.655   9.837
 2359POPC   PO433828  26.000  39.097   9.548
 2359POPC   GL133829  26.016  38.938   9.161
 2359POPC   GL233830  26.154  39.261   9.079
 2359POPC   C1A33831  25.942  38.975   8.718
 2359POPC   D2A33832  25.912  39.312   8.404
 2359POPC   C3A33833  26.040  39.136   8.025
 2359POPC   C4A33834  25.856  38.942   7.663
 2359POPC   C1B33835  26.323  39.345   8.702
 2359POPC   C2B33836  26.318  39.675   8.376
 2359POPC   C3B33837  26.293  39.583   7.926
 2359POPC   C4B33838  26.295  39.256   7.598
 2360POPC   NC333839  37.959  12.250   9.385
 2360POPC   PO433840  37.505  11.712   9.470
 2360POPC   GL133841  37.595  11.981   9.131
 2360POPC   GL233842  37.457  12.294   9.288
 2360POPC   C1A33843  37.821  12.030   8.718
 2360POPC   D2A33844  37.916  12.109   8.256
 2360POPC   C3A33845  37.691  11.844   7.929
 2360POPC   C4A33846  37.582  11.821   7.458
 2360POPC   C1B33847  37.385  12.368   8.862
 2360POPC   C2B33848  37.387  12.210   8.435
 2360POPC   C3B33849  37.539  12.438   8.079
 2360POPC   C4B33850  37.860  12.306   7.760
 2361POPC   NC333851  44.440   0.948   9.422
 2361POPC   PO433852  44.449   1.554   9.749
 2361POPC   GL133853  44.704   1.366   9.328
 2361POPC   GL233854  44.622   1.630   9.160
 2361POPC   C1A33855  44.609   1.073   8.848
 2361POPC   D2A33856  44.350   1.067   8.438
 2361POPC   C3A33857  44.480   0.905   8.006
 2361POPC   C4A33858  44.725   1.130   7.684
 2361POPC   C1B33859  44.668   1.552   8.759
 2361POPC   C2B33860  44.428   1.586   8.416
 2361POPC   C3B33861  44.529   1.415   8.049
 2361POPC   C4B33862  44.522   1.585   7.639
 2362POPC   NC333863  40.314   8.345   9.426
 2362POPC   PO433864  40.946   8.082   9.556
 2362POPC   GL133865  40.792   8.253   9.165
 2362POPC   GL233866  41.081   8.103   9.003
 2362POPC   C1A33867  40.532   8.408   8.828
 2362POPC   D2A33868  40.403   8.189   8.432
 2362POPC   C3A33869  40.534   8.310   8.036
 2362POPC   C4A33870  40.719   8.375   7.664
 2362POPC   C1B33871  40.936   8.234   8.572
 2362POPC   C2B33872  41.038   8.460   8.161
 2362POPC   C3B33873  41.189   8.248   7.795
 2362POPC   C4B33874  41.196   7.786   7.736
 2363POPC   NC333875  11.577  29.915   9.663
 2363POPC   PO433876  12.206  30.061   9.650
 2363POPC   GL133877  11.929  30.008   9.297
 2363POPC   GL233878  11.739  30.288   9.165
 2363POPC   C1A33879  11.928  29.876   8.876
 2363POPC   D2A33880  11.831  30.162   8.514
 2363POPC   C3A33881  12.014  29.968   8.156
 2363POPC   C4A33882  12.022  29.677   7.820
 2363POPC   C1B33883  12.172  30.304   8.925
 2363POPC   C2B33884  12.328  30.282   8.515
 2363POPC   C3B33885  12.370  30.334   8.083
 2363POPC   C4B33886  12.148  30.179   7.694
 2364POPC   NC333887  28.262   9.749   9.518
 2364POPC   PO433888  28.755   9.426   9.167
 2364POPC   GL133889  28.463   9.647   9.018
 2364POPC   GL233890  28.136   9.549   9.085
 2364POPC   C1A33891  28.422   9.528   8.594
 2364POPC   D2A33892  28.603   9.290   8.256
 2364POPC   C3A33893  28.527   9.512   7.889
 2364POPC   C4A33894  28.463   9.962   7.856
 2364POPC   C1B33895  28.085   9.874   8.772
 2364POPC   C2B33896  28.200   9.914   8.339
 2364POPC   C3B33897  28.031   9.725   7.975
 2364POPC   C4B33898  28.122   9.711   7.534
 2365POPC   NC333899   4.312  42.818   9.658
 2365POPC   PO433900   4.211  43.428   9.498
 2365POPC   GL133901   4.211  43.208   9.136
 2365POPC   GL233902   4.288  42.870   9.160
 2365POPC   C1A33903   4.369  43.311   8.743
 2365POPC   D2A33904   4.613  43.189   8.403
 2365POPC   C3A33905   4.397  43.329   8.028
 2365POPC   C4A33906   4.096  43.636   7.873
 2365POPC   C1B33907   4.039  42.856   8.793
 2365POPC   C2B33908   4.134  42.988   8.394
 2365POPC   C3B33909   4.283  42.847   8.018
 2365POPC   C4B33910   4.681  42.933   7.804
 2366POPC   NC333911  31.922  23.208   9.492
 2366POPC   PO433912  32.337  22.655   9.426
 2366POPC   GL133913  32.035  22.633   9.050
 2366POPC   GL233914  32.077  22.986   9.046
 2366POPC   C1A33915  32.063  22.723   8.584
 2366POPC   D2A33916  32.430  22.929   8.340
 2366POPC   C3A33917  32.590  22.724   7.950
 2366POPC   C4A33918  32.477  22.563   7.554
 2366POPC   C1B33919  32.147  23.247   8.682
 2366POPC   C2B33920  31.985  23.187   8.293
 2366POPC   C3B33921  32.210  23.124   7.911
 2366POPC   C4B33922  32.413  23.476   7.782
 2367POPC   NC333923  30.835  36.309   9.749
 2367POPC   PO433924  30.737  36.976   9.702
 2367POPC   GL133925  30.717  37.018   9.194
 2367POPC   GL233926  30.501  36.761   8.999
 2367POPC   C1A33927  30.895  36.975   8.760
 2367POPC   D2A33928  30.800  37.150   8.380
 2367POPC   C3A33929  30.926  37.008   8.002
 2367POPC   C4A33930  30.771  36.998   7.617
 2367POPC   C1B33931  30.686  36.511   8.665
 2367POPC   C2B33932  30.816  36.540   8.223
 2367POPC   C3B33933  30.618  36.472   7.813
 2367POPC   C4B33934  30.652  36.575   7.366
 2368POPC   NC333935  21.615  26.115   9.630
 2368POPC   PO433936  21.293  25.625   9.701
 2368POPC   GL133937  21.403  25.818   9.230
 2368POPC   GL233938  21.524  26.191   9.140
 2368POPC   C1A33939  21.458  25.888   8.753
 2368POPC   D2A33940  21.554  26.115   8.368
 2368POPC   C3A33941  21.522  25.922   7.965
 2368POPC   C4A33942  21.216  25.979   7.666
 2368POPC   C1B33943  21.159  26.301   8.863
 2368POPC   C2B33944  21.100  26.422   8.444
 2368POPC   C3B33945  21.187  26.350   8.018
 2368POPC   C4B33946  20.926  26.450   7.687
 2369POPC   NC333947  20.355  44.435   9.553
 2369POPC   PO433948  20.904  44.833   9.544
 2369POPC   GL133949  20.594  44.745   9.192
 2369POPC   GL233950  20.434   0.038   9.083
 2369POPC   C1A33951  20.426  44.507   8.822
 2369POPC   D2A33952  20.480  44.279   8.417
 2369POPC   C3A33953  20.448  44.455   8.019
 2369POPC   C4A33954  20.811  44.539   7.787
 2369POPC   C1B33955  20.257  44.976   8.704
 2369POPC   C2B33956  20.497  44.826   8.381
 2369POPC   C3B33957  20.743  44.973   8.050
 2369POPC   C4B33958  20.388  44.936   7.808
 2370POPC   NC333959  21.877  10.172   9.392
 2370POPC   PO433960  21.634  10.748   9.799
 2370POPC   GL133961  21.602  10.614   9.316
 2370POPC   GL233962  21.303  10.757   9.123
 2370POPC   C1A33963  21.609  10.495   8.821
 2370POPC   D2A33964  21.383  10.599   8.378
 2370POPC   C3A33965  21.417  10.776   7.958
 2370POPC   C4A33966  21.589  10.568   7.590
 2370POPC   C1B33967  21.094  10.529   8.772
 2370POPC   C2B33968  20.853  10.467   8.385
 2370POPC   C3B33969  21.002  10.506   8.006
 2370POPC   C4B33970  20.930  10.617   7.582
 2371POPC   NC333971   9.070   8.828   9.516
 2371POPC   PO433972   8.544   9.146   9.281
 2371POPC   GL133973   8.877   8.966   9.036
 2371POPC   GL233974   9.154   9.122   9.085
 2371POPC   C1A33975   9.167   8.848   8.670
 2371POPC   D2A33976   9.165   8.626   8.283
 2371POPC   C3A33977   8.982   8.875   7.948
 2371POPC   C4A33978   8.682   9.237   7.960
 2371POPC   C1B33979   9.044   9.362   8.717
 2371POPC   C2B33980   9.146   9.273   8.274
 2371POPC   C3B33981   9.167   9.327   7.826
 2371POPC   C4B33982   9.366   9.091   7.540
 2372POPC   NC333983  26.960  18.433   9.485
 2372POPC   PO433984  26.623  17.838   9.461
 2372POPC   GL133985  26.621  18.048   9.097
 2372POPC   GL233986  26.351  17.809   9.026
 2372POPC   C1A33987  26.906  18.144   8.717
 2372POPC   D2A33988  27.076  18.034   8.283
 2372POPC   C3A33989  26.977  18.359   7.979
 2372POPC   C4A33990  26.616  18.529   7.774
 2372POPC   C1B33991  26.399  18.033   8.650
 2372POPC   C2B33992  26.593  18.184   8.295
 2372POPC   C3B33993  26.691  17.965   7.921
 2372POPC   C4B33994  26.423  18.026   7.641
 2373POPC   NC333995  11.148  28.087   9.735
 2373POPC   PO433996  11.439  28.638   9.504
 2373POPC   GL133997  11.291  28.416   9.101
 2373POPC   GL233998  11.371  28.081   9.021
 2373POPC   C1A33999  11.440  28.449   8.654
 2373POPC   D2A34000  11.618  28.341   8.239
 2373POPC   C3A34001  11.314  28.354   7.875
 2373POPC   C4A34002  11.051  28.317   7.531
 2373POPC   C1B34003  11.079  28.080   8.682
 2373POPC   C2B34004  11.103  28.224   8.317
 2373POPC   C3B34005  11.012  27.970   8.005
 2373POPC   C4B34006  11.123  27.827   7.619
 2374POPC   NC334007  10.399  36.119   9.549
 2374POPC   PO434008  10.044  36.707   9.412
 2374POPC   GL134009  10.367  36.413   9.132
 2374POPC   GL234010  10.455  36.025   9.069
 2374POPC   C1A34011  10.588  36.356   8.714
 2374POPC   D2A34012  10.390  36.384   8.295
 2374POPC   C3A34013  10.596  36.272   7.904
 2374POPC   C4A34014  10.597  36.320   7.443
 2374POPC   C1B34015  10.406  35.804   8.692
 2374POPC   C2B34016  10.581  35.843   8.295
 2374POPC   C3B34017  10.654  35.770   7.854
 2374POPC   C4B34018  10.350  35.900   7.550
 2375POPC   NC334019  40.187  39.536   9.475
 2375POPC   PO434020  39.795  39.055   9.512
 2375POPC   GL134021  39.924  39.199   9.140
 2375POPC   GL234022  39.594  39.177   9.030
 2375POPC   C1A34023  40.069  39.406   8.769
 2375POPC   D2A34024  40.004  39.382   8.326
 2375POPC   C3A34025  40.262  39.215   8.028
 2375POPC   C4A34026  40.640  39.311   7.837
 2375POPC   C1B34027  39.660  39.057   8.572
 2375POPC   C2B34028  39.686  39.053   8.078
 2375POPC   C3B34029  39.829  38.927   7.659
 2375POPC   C4B34030  39.873  38.893   7.218
 2376POPC   NC334031   9.026  22.342   9.720
 2376POPC   PO434032   9.392  21.952   9.350
 2376POPC   GL134033   9.049  22.022   9.075
 2376POPC   GL234034   8.896  22.363   9.169
 2376POPC   C1A34035   8.837  21.832   8.688
 2376POPC   D2A34036   8.613  21.911   8.273
 2376POPC   C3A34037   8.819  22.118   7.950
 2376POPC   C4A34038   9.237  21.999   7.813
 2376POPC   C1B34039   9.110  22.427   8.764
 2376POPC   C2B34040   9.177  22.207   8.383
 2376POPC   C3B34041   9.174  22.472   8.041
 2376POPC   C4B34042   9.078  22.475   7.665
 2377POPC   NC334043  11.728  17.516   9.513
 2377POPC   PO434044  11.126  17.402   9.383
 2377POPC   GL134045  11.251  17.494   9.032
 2377POPC   GL234046  11.595  17.440   9.030
 2377POPC   C1A34047  11.236  17.398   8.623
 2377POPC   D2A34048  11.217  17.678   8.288
 2377POPC   C3A34049  11.288  17.368   8.020
 2377POPC   C4A34050  11.095  17.229   7.687
 2377POPC   C1B34051  11.769  17.389   8.651
 2377POPC   C2B34052  11.771  17.644   8.309
 2377POPC   C3B34053  11.639  17.714   7.892
 2377POPC   C4B34054  11.590  17.360   7.588
 2378POPC   NC334055  35.605  15.650   9.418
 2378POPC   PO434056  35.276  16.278   9.447
 2378POPC   GL134057  35.268  15.954   9.184
 2378POPC   GL234058  35.601  16.035   9.072
 2378POPC   C1A34059  35.156  15.960   8.779
 2378POPC   D2A34060  35.086  16.285   8.477
 2378POPC   C3A34061  35.015  16.099   8.081
 2378POPC   C4A34062  35.097  16.175   7.642
 2378POPC   C1B34063  35.650  15.843   8.693
 2378POPC   C2B34064  35.396  15.820   8.321
 2378POPC   C3B34065  35.453  15.877   7.875
 2378POPC   C4B34066  35.631  16.066   7.484
 2379POPC   NC334067   9.794  25.041   9.650
 2379POPC   PO434068  10.158  25.376   9.166
 2379POPC   GL134069   9.901  25.086   8.946
 2379POPC   GL234070   9.625  25.113   9.161
 2379POPC   C1A34071   9.774  25.039   8.525
 2379POPC   D2A34072   9.621  25.388   8.292
 2379POPC   C3A34073   9.785  25.420   7.888
 2379POPC   C4A34074  10.033  25.176   7.600
 2379POPC   C1B34075   9.379  24.895   8.855
 2379POPC   C2B34076   9.281  24.995   8.428
 2379POPC   C3B34077   9.314  24.813   8.031
 2379POPC   C4B34078   9.488  25.058   7.690
 2380POPC   NC334079  25.873  12.660   9.522
 2380POPC   PO434080  25.702  13.317   9.522
 2380POPC   GL134081  26.037  13.124   9.252
 2380POPC   GL234082  25.983  12.834   9.067
 2380POPC   C1A34083  26.180  13.183   8.795
 2380POPC   D2A34084  26.021  12.899   8.471
 2380POPC   C3A34085  25.864  13.018   8.048
 2380POPC   C4A34086  25.804  13.061   7.591
 2380POPC   C1B34087  25.758  12.587   8.858
 2380POPC   C2B34088  25.983  12.396   8.540
 2380POPC   C3B34089  26.047  12.526   8.106
 2380POPC   C4B34090  25.742  12.594   7.770
 2381POPC   NC334091   2.391  28.655   9.565
 2381POPC   PO434092   2.866  29.179   9.486
 2381POPC   GL134093   2.819  29.136   9.073
 2381POPC   GL234094   2.601  28.888   9.130
 2381POPC   C1A34095   2.600  29.211   8.697
 2381POPC   D2A34096   2.776  29.384   8.323
 2381POPC   C3A34097   2.513  29.294   7.985
 2381POPC   C4A34098   2.550  29.019   7.649
 2381POPC   C1B34099   2.711  28.683   8.768
 2381POPC   C2B34100   2.595  28.803   8.368
 2381POPC   C3B34101   2.829  28.849   8.054
 2381POPC   C4B34102   3.061  28.779   7.695
 2382POPC   NC334103   9.169  44.052   9.698
 2382POPC   PO434104   8.757  43.625   9.411
 2382POPC   GL134105   8.848  43.867   9.087
 2382POPC   GL234106   9.089  44.136   9.162
 2382POPC   C1A34107   8.903  43.715   8.688
 2382POPC   D2A34108   8.723  43.829   8.319
 2382POPC   C3A34109   9.092  43.903   8.099
 2382POPC   C4A34110   9.210  43.785   7.710
 2382POPC   C1B34111   8.889  44.216   8.726
 2382POPC   C2B34112   8.839  44.322   8.288
 2382POPC   C3B34113   8.775  44.180   7.831
 2382POPC   C4B34114   8.962  44.092   7.382
 2383POPC   NC334115  16.192  37.769   9.414
 2383POPC   PO434116  15.508  37.816   9.497
 2383POPC   GL134117  15.743  37.745   9.127
 2383POPC   GL234118  15.922  37.409   9.149
 2383POPC   C1A34119  16.018  37.759   8.765
 2383POPC   D2A34120  16.112  37.511   8.430
 2383POPC   C3A34121  15.995  37.750   8.074
 2383POPC   C4A34122  16.157  37.703   7.684
 2383POPC   C1B34123  15.753  37.247   8.750
 2383POPC   C2B34124  15.645  37.301   8.293
 2383POPC   C3B34125  15.778  37.331   7.840
 2383POPC   C4B34126  15.742  37.203   7.369
 2384POPC   NC334127  19.533  10.738   9.473
 2384POPC   PO434128  20.175  10.445   9.474
 2384POPC   GL134129  19.884  10.499   9.161
 2384POPC   GL234130  19.960  10.854   9.162
 2384POPC   C1A34131  19.651  10.372   8.788
 2384POPC   D2A34132  19.876  10.304   8.425
 2384POPC   C3A34133  19.752  10.379   7.975
 2384POPC   C4A34134  19.538  10.324   7.602
 2384POPC   C1B34135  19.979  10.746   8.713
 2384POPC   C2B34136  19.850  10.780   8.266
 2384POPC   C3B34137  20.085  10.766   7.852
 2384POPC   C4B34138  20.042  10.839   7.386
 2385POPC   NC334139  35.762   3.792   9.508
 2385POPC   PO434140  35.227   3.553   9.715
 2385POPC   GL134141  35.347   3.568   9.268
 2385POPC   GL234142  35.560   3.328   9.177
 2385POPC   C1A34143  35.431   3.751   8.847
 2385POPC   D2A34144  35.288   3.733   8.413
 2385POPC   C3A34145  35.290   3.507   8.019
 2385POPC   C4A34146  35.488   3.640   7.618
 2385POPC   C1B34147  35.403   3.247   8.802
 2385POPC   C2B34148  35.554   3.277   8.415
 2385POPC   C3B34149  35.495   3.052   8.066
 2385POPC   C4B34150  35.375   3.049   7.676
 2386POPC   NC334151  22.566  42.231   9.484
 2386POPC   PO434152  22.041  42.734   9.549
 2386POPC   GL134153  22.199  42.518   9.145
 2386POPC   GL234154  22.207  42.123   9.120
 2386POPC   C1A34155  22.135  42.408   8.699
 2386POPC   D2A34156  22.206  42.038   8.442
 2386POPC   C3A34157  22.041  42.107   8.049
 2386POPC   C4A34158  22.086  42.484   7.866
 2386POPC   C1B34159  22.587  42.198   8.842
 2386POPC   C2B34160  22.636  42.376   8.440
 2386POPC   C3B34161  22.547  42.155   8.069
 2386POPC   C4B34162  22.656  42.194   7.676
 2387POPC   NC334163  33.154  30.147   9.683
 2387POPC   PO434164  32.788  29.695   9.493
 2387POPC   GL134165  32.997  29.998   9.213
 2387POPC   GL234166  32.784  29.863   8.972
 2387POPC   C1A34167  33.179  30.134   8.810
 2387POPC   D2A34168  32.935  29.967   8.474
 2387POPC   C3A34169  33.065  30.072   8.081
 2387POPC   C4A34170  33.346  30.327   7.834
 2387POPC   C1B34171  33.148  29.622   8.808
 2387POPC   C2B34172  33.313  29.585   8.373
 2387POPC   C3B34173  33.150  29.585   7.950
 2387POPC   C4B34174  33.013  29.434   7.578
 2388POPC   NC334175  40.704  31.761   9.488
 2388POPC   PO434176  40.292  31.356   9.903
 2388POPC   GL134177  40.536  31.285   9.402
 2388POPC   GL234178  40.923  31.241   9.321
 2388POPC   C1A34179  40.555  31.257   8.911
 2388POPC   D2A34180  40.359  31.461   8.524
 2388POPC   C3A34181  40.446  31.366   8.080
 2388POPC   C4A34182  40.634  31.619   7.762
 2388POPC   C1B34183  41.065  31.242   8.868
 2388POPC   C2B34184  40.925  31.275   8.402
 2388POPC   C3B34185  41.056  31.348   7.955
 2388POPC   C4B34186  41.188  31.646   7.607
 2389POPC   NC334187  24.672  31.523   9.435
 2389POPC   PO434188  24.167  31.766   9.401
 2389POPC   GL134189  24.392  31.680   9.031
 2389POPC   GL234190  24.350  31.973   8.864
 2389POPC   C1A34191  24.525  31.523   8.626
 2389POPC   D2A34192  24.488  31.162   8.346
 2389POPC   C3A34193  24.370  31.236   7.917
 2389POPC   C4A34194  24.551  31.456   7.583
 2389POPC   C1B34195  24.035  31.707   8.654
 2389POPC   C2B34196  24.134  31.521   8.257
 2389POPC   C3B34197  24.258  31.739   7.879
 2389POPC   C4B34198  24.117  31.803   7.454
 2390POPC   NC334199  22.836  11.735   9.513
 2390POPC   PO434200  23.416  12.111   9.371
 2390POPC   GL134201  23.060  11.961   9.108
 2390POPC   GL234202  22.746  11.736   9.023
 2390POPC   C1A34203  22.997  12.097   8.714
 2390POPC   D2A34204  23.143  12.307   8.335
 2390POPC   C3A34205  22.883  12.296   7.992
 2390POPC   C4A34206  22.934  12.142   7.605
 2390POPC   C1B34207  22.829  11.637   8.622
 2390POPC   C2B34208  22.715  11.930   8.317
 2390POPC   C3B34209  22.633  11.853   7.905
 2390POPC   C4B34210  22.459  11.668   7.556
 2391POPC   NC334211  24.112  28.373   9.449
 2391POPC   PO434212  24.500  28.711   9.198
 2391POPC   GL134213  24.516  28.302   9.018
 2391POPC   GL234214  24.203  28.291   8.946
 2391POPC   C1A34215  24.582  28.187   8.561
 2391POPC   D2A34216  24.541  28.503   8.232
 2391POPC   C3A34217  24.639  28.429   7.789
 2391POPC   C4A34218  24.480  28.552   7.394
 2391POPC   C1B34219  24.084  28.244   8.515
 2391POPC   C2B34220  24.232  28.116   8.125
 2391POPC   C3B34221  24.155  28.281   7.734
 2391POPC   C4B34222  24.196  28.127   7.312
 2392POPC   NC334223   8.394  20.836   9.532
 2392POPC   PO434224   8.403  21.496   9.370
 2392POPC   GL134225   8.203  21.502   9.025
 2392POPC   GL234226   8.028  21.192   9.076
 2392POPC   C1A34227   8.290  21.678   8.654
 2392POPC   D2A34228   8.437  21.445   8.309
 2392POPC   C3A34229   8.289  21.567   7.878
 2392POPC   C4A34230   8.366  21.515   7.393
 2392POPC   C1B34231   8.142  21.127   8.618
 2392POPC   C2B34232   8.155  21.078   8.137
 2392POPC   C3B34233   8.191  21.091   7.683
 2392POPC   C4B34234   8.034  20.863   7.295
 2393POPC   NC334235   2.513  12.216   9.561
 2393POPC   PO434236   3.053  11.910   9.286
 2393POPC   GL134237   2.645  11.982   9.133
 2393POPC   GL234238   2.708  11.688   8.979
 2393POPC   C1A34239   2.549  12.313   8.873
 2393POPC   D2A34240   2.611  12.087   8.508
 2393POPC   C3A34241   2.928  12.217   8.209
 2393POPC   C4A34242   2.889  12.281   7.768
 2393POPC   C1B34243   2.466  11.605   8.704
 2393POPC   C2B34244   2.332  11.663   8.348
 2393POPC   C3B34245   2.561  11.892   8.048
 2393POPC   C4B34246   2.600  11.862   7.647
 2394POPC   NC334247   1.615  12.652   9.493
 2394POPC   PO434248   1.057  13.069   9.622
 2394POPC   GL134249   1.070  13.017   9.157
 2394POPC   GL234250   1.384  12.854   9.100
 2394POPC   C1A34251   1.032  12.811   8.726
 2394POPC   D2A34252   1.223  12.631   8.348
 2394POPC   C3A34253   1.172  12.876   7.977
 2394POPC   C4A34254   0.903  13.227   7.877
 2394POPC   C1B34255   1.564  12.787   8.708
 2394POPC   C2B34256   1.565  13.014   8.321
 2394POPC   C3B34257   1.698  12.940   7.887
 2394POPC   C4B34258   1.452  12.725   7.583
 2395POPC   NC334259  17.043  43.345   9.540
 2395POPC   PO434260  16.622  42.819   9.490
 2395POPC   GL134261  16.637  42.971   9.094
 2395POPC   GL234262  16.804  43.293   9.111
 2395POPC   C1A34263  16.498  43.178   8.739
 2395POPC   D2A34264  16.769  43.225   8.404
 2395POPC   C3A34265  16.634  43.291   8.057
 2395POPC   C4A34266  16.700  43.151   7.693
 2395POPC   C1B34267  17.090  43.321   8.770
 2395POPC   C2B34268  17.185  43.519   8.355
 2395POPC   C3B34269  17.118  43.398   7.938
 2395POPC   C4B34270  17.135  43.390   7.492
 2396POPC   NC334271  33.382  35.570   9.476
 2396POPC   PO434272  33.132  36.202   9.438
 2396POPC   GL134273  33.096  36.161   8.997
 2396POPC   GL234274  32.889  36.476   9.030
 2396POPC   C1A34275  33.268  35.919   8.624
 2396POPC   D2A34276  33.298  35.878   8.171
 2396POPC   C3A34277  32.892  35.991   7.959
 2396POPC   C4A34278  32.830  36.163   7.546
 2396POPC   C1B34279  33.081  36.546   8.632
 2396POPC   C2B34280  32.916  36.371   8.293
 2396POPC   C3B34281  32.995  36.492   7.898
 2396POPC   C4B34282  32.756  36.668   7.547
 2397POPC   NC334283  29.804   5.360   9.432
 2397POPC   PO434284  30.051   4.801   9.740
 2397POPC   GL134285  30.172   4.949   9.306
 2397POPC   GL234286  29.860   4.994   9.094
 2397POPC   C1A34287  30.258   4.925   8.815
 2397POPC   D2A34288  30.077   5.223   8.463
 2397POPC   C3A34289  30.147   5.191   8.005
 2397POPC   C4A34290  30.068   5.024   7.567
 2397POPC   C1B34291  29.645   5.231   8.741
 2397POPC   C2B34292  29.604   5.201   8.260
 2397POPC   C3B34293  29.652   5.435   7.863
 2397POPC   C4B34294  29.665   5.376   7.391
 2398POPC   NC334295  36.653  25.783   9.734
 2398POPC   PO434296  37.134  26.161   9.670
 2398POPC   GL134297  36.975  26.208   9.208
 2398POPC   GL234298  36.600  26.259   9.155
 2398POPC   C1A34299  36.858  26.052   8.778
 2398POPC   D2A34300  36.818  25.811   8.436
 2398POPC   C3A34301  36.941  26.009   8.066
 2398POPC   C4A34302  36.919  25.978   7.615
 2398POPC   C1B34303  36.418  26.343   8.741
 2398POPC   C2B34304  36.596  26.347   8.297
 2398POPC   C3B34305  36.498  26.197   7.855
 2398POPC   C4B34306  36.531  26.274   7.389
 2399POPC   NC334307  37.944  36.581   9.445
 2399POPC   PO434308  37.365  36.804   9.453
 2399POPC   GL134309  37.392  36.463   9.121
 2399POPC   GL234310  37.162  36.669   8.977
 2399POPC   C1A34311  37.620  36.187   8.780
 2399POPC   D2A34312  37.630  36.015   8.320
 2399POPC   C3A34313  37.778  35.996   7.863
 2399POPC   C4A34314  37.560  35.677   7.572
 2399POPC   C1B34315  37.433  36.656   8.612
 2399POPC   C2B34316  37.398  36.467   8.193
 2399POPC   C3B34317  37.577  36.474   7.751
 2399POPC   C4B34318  37.711  36.505   7.316
 2400POPC   NC334319  10.182  30.605   9.583
 2400POPC   PO434320  10.757  31.054   9.573
 2400POPC   GL134321  10.667  30.914   9.191
 2400POPC   GL234322  10.768  30.560   9.244
 2400POPC   C1A34323  10.373  30.788   8.857
 2400POPC   D2A34324  10.236  30.559   8.495
 2400POPC   C3A34325  10.233  30.805   8.183
 2400POPC   C4A34326  10.463  30.807   7.837
 2400POPC   C1B34327  10.898  30.674   8.822
 2400POPC   C2B34328  10.720  30.784   8.432
 2400POPC   C3B34329  10.945  30.797   8.044
 2400POPC   C4B34330  10.886  30.664   7.613
 2401POPC   NC334331   1.115  10.342   9.505
 2401POPC   PO434332   1.553  10.840   9.442
 2401POPC   GL134333   1.344  10.629   9.144
 2401POPC   GL234334   1.083  10.805   9.074
 2401POPC   C1A34335   1.268  10.483   8.737
 2401POPC   D2A34336   1.527  10.617   8.397
 2401POPC   C3A34337   1.428  10.458   7.990
 2401POPC   C4A34338   1.463  10.689   7.613
 2401POPC   C1B34339   0.893  10.831   8.697
 2401POPC   C2B34340   0.994  10.568   8.315
 2401POPC   C3B34341   1.004  10.726   7.891
 2401POPC   C4B34342   0.704  10.676   7.571
 2402POPC   NC334343  40.255  12.244   9.546
 2402POPC   PO434344  39.873  11.649   9.238
 2402POPC   GL134345  40.127  12.002   9.128
 2402POPC   GL234346  39.886  12.276   9.105
 2402POPC   C1A34347  40.285  12.264   8.763
 2402POPC   D2A34348  40.384  12.049   8.367
 2402POPC   C3A34349  40.312  11.999   7.920
 2402POPC   C4A34350  39.995  12.271   7.901
 2402POPC   C1B34351  39.857  12.005   8.715
 2402POPC   C2B34352  39.797  11.644   8.504
 2402POPC   C3B34353  39.915  11.737   8.104
 2402POPC   C4B34354  39.776  11.775   7.704
 2403POPC   NC334355  35.787  16.427   9.362
 2403POPC   PO434356  36.303  16.893   9.404
 2403POPC   GL134357  36.395  16.776   9.003
 2403POPC   GL234358  36.088  16.568   8.959
 2403POPC   C1A34359  36.298  16.824   8.571
 2403POPC   D2A34360  35.971  16.604   8.400
 2403POPC   C3A34361  36.059  16.476   7.982
 2403POPC   C4A34362  36.258  16.755   7.681
 2403POPC   C1B34363  35.847  16.935   8.796
 2403POPC   C2B34364  35.735  17.092   8.417
 2403POPC   C3B34365  35.821  16.915   8.026
 2403POPC   C4B34366  35.849  17.047   7.666
 2404POPC   NC334367   9.868  11.780   9.381
 2404POPC   PO434368   9.567  11.195   9.509
 2404POPC   GL134369   9.727  11.338   9.133
 2404POPC   GL234370  10.065  11.377   9.070
 2404POPC   C1A34371   9.609  11.298   8.714
 2404POPC   D2A34372   9.262  11.219   8.424
 2404POPC   C3A34373   9.474  11.153   8.029
 2404POPC   C4A34374   9.672  11.413   7.750
 2404POPC   C1B34375  10.094  11.535   8.669
 2404POPC   C2B34376   9.969  11.646   8.233
 2404POPC   C3B34377  10.116  11.624   7.802
 2404POPC   C4B34378  10.109  11.323   7.435
 2405POPC   NC334379  31.679  23.987   9.554
 2405POPC   PO434380  31.466  23.350   9.427
 2405POPC   GL134381  31.226  23.538   9.127
 2405POPC   GL234382  31.233  23.884   9.271
 2405POPC   C1A34383  31.307  23.412   8.685
 2405POPC   D2A34384  31.486  23.312   8.289
 2405POPC   C3A34385  31.362  23.511   7.924
 2405POPC   C4A34386  31.584  23.565   7.529
 2405POPC   C1B34387  31.288  23.905   8.817
 2405POPC   C2B34388  31.272  23.820   8.376
 2405POPC   C3B34389  31.563  23.954   8.078
 2405POPC   C4B34390  31.627  24.068   7.671
 2406POPC   NC334391   7.803   1.117   9.438
 2406POPC   PO434392   8.403   1.329   9.699
 2406POPC   GL134393   8.274   1.207   9.285
 2406POPC   GL234394   8.279   0.867   9.251
 2406POPC   C1A34395   8.118   1.179   8.862
 2406POPC   D2A34396   8.321   1.238   8.478
 2406POPC   C3A34397   8.169   1.436   8.113
 2406POPC   C4A34398   7.931   1.404   7.713
 2406POPC   C1B34399   8.575   0.963   8.920
 2406POPC   C2B34400   8.647   0.875   8.483
 2406POPC   C3B34401   8.486   0.914   8.087
 2406POPC   C4B34402   8.367   1.156   7.736
 2407POPC   NC334403  36.428  35.790   9.493
 2407POPC   PO434404  36.486  36.383   9.382
 2407POPC   GL134405  36.091  36.338   9.133
 2407POPC   GL234406  36.101  35.956   9.121
 2407POPC   C1A34407  35.812  36.151   8.755
 2407POPC   D2A34408  35.913  35.843   8.411
 2407POPC   C3A34409  36.000  36.073   8.050
 2407POPC   C4A34410  35.705  36.269   7.842
 2407POPC   C1B34411  36.317  36.120   8.745
 2407POPC   C2B34412  36.411  35.968   8.351
 2407POPC   C3B34413  36.401  35.749   8.020
 2407POPC   C4B34414  36.559  35.503   7.710
 2408POPC   NC334415  31.875  43.998   9.595
 2408POPC   PO434416  31.333  44.304   9.589
 2408POPC   GL134417  31.575  44.206   9.188
 2408POPC   GL234418  31.720  43.840   9.133
 2408POPC   C1A34419  31.416  44.081   8.760
 2408POPC   D2A34420  31.295  43.852   8.385
 2408POPC   C3A34421  31.353  44.035   7.992
 2408POPC   C4A34422  31.376  44.105   7.565
 2408POPC   C1B34423  31.518  43.571   8.818
 2408POPC   C2B34424  31.543  43.391   8.410
 2408POPC   C3B34425  31.503  43.529   7.993
 2408POPC   C4B34426  31.309  43.614   7.606
 2409POPC   NC334427  24.851  18.482   9.450
 2409POPC   PO434428  25.570  18.376   9.548
 2409POPC   GL134429  25.291  18.351   9.162
 2409POPC   GL234430  25.432  18.046   8.991
 2409POPC   C1A34431  25.106  18.305   8.734
 2409POPC   D2A34432  25.273  18.025   8.398
 2409POPC   C3A34433  25.099  18.166   8.020
 2409POPC   C4A34434  24.981  18.499   7.742
 2409POPC   C1B34435  25.615  18.312   8.664
 2409POPC   C2B34436  25.778  18.508   8.294
 2409POPC   C3B34437  25.700  18.493   7.865
 2409POPC   C4B34438  25.468  18.168   7.666
 2410POPC   NC334439  24.112  15.616   9.539
 2410POPC   PO434440  23.594  15.261   9.388
 2410POPC   GL134441  23.766  15.181   9.009
 2410POPC   GL234442  24.028  15.385   9.100
 2410POPC   C1A34443  23.682  14.919   8.646
 2410POPC   D2A34444  23.825  15.066   8.273
 2410POPC   C3A34445  23.572  15.332   8.068
 2410POPC   C4A34446  23.624  15.197   7.672
 2410POPC   C1B34447  24.208  15.468   8.729
 2410POPC   C2B34448  24.237  15.322   8.343
 2410POPC   C3B34449  24.069  15.387   7.936
 2410POPC   C4B34450  24.333  15.624   7.720
 2411POPC   NC334451  22.205  27.046   9.680
 2411POPC   PO434452  21.821  26.529   9.662
 2411POPC   GL134453  21.820  26.852   9.288
 2411POPC   GL234454  22.182  26.861   9.204
 2411POPC   C1A34455  21.919  26.886   8.802
 2411POPC   D2A34456  22.129  26.586   8.574
 2411POPC   C3A34457  22.023  26.634   8.138
 2411POPC   C4A34458  22.235  26.479   7.788
 2411POPC   C1B34459  22.413  27.001   8.774
 2411POPC   C2B34460  22.466  26.890   8.318
 2411POPC   C3B34461  22.329  26.998   7.900
 2411POPC   C4B34462  22.530  27.098   7.520
 2412POPC   NC334463   3.429  12.127   9.477
 2412POPC   PO434464   3.104  11.661   9.791
 2412POPC   GL134465   3.493  11.673   9.308
 2412POPC   GL234466   3.838  11.889   9.267
 2412POPC   C1A34467   3.580  11.769   8.847
 2412POPC   D2A34468   3.328  12.031   8.553
 2412POPC   C3A34469   3.444  12.049   8.118
 2412POPC   C4A34470   3.333  12.063   7.702
 2412POPC   C1B34471   3.869  12.207   8.911
 2412POPC   C2B34472   3.843  12.160   8.450
 2412POPC   C3B34473   3.941  12.136   7.999
 2412POPC   C4B34474   3.782  12.297   7.594
 2413POPC   NC334475  39.937  43.688   9.526
 2413POPC   PO434476  39.673  44.181   9.824
 2413POPC   GL134477  39.790  44.137   9.292
 2413POPC   GL234478  40.125  44.013   9.197
 2413POPC   C1A34479  39.869  44.093   8.796
 2413POPC   D2A34480  39.878  43.829   8.422
 2413POPC   C3A34481  40.034  43.969   8.020
 2413POPC   C4A34482  39.891  44.121   7.581
 2413POPC   C1B34483  40.324  43.761   8.831
 2413POPC   C2B34484  40.428  43.510   8.414
 2413POPC   C3B34485  40.399  43.507   7.943
 2413POPC   C4B34486  40.070  43.632   7.639
 2414POPC   NC334487  34.903  39.673   9.448
 2414POPC   PO434488  34.835  40.381   9.404
 2414POPC   GL134489  34.741  40.057   9.056
 2414POPC   GL234490  34.403  39.878   9.028
 2414POPC   C1A34491  34.608  40.036   8.594
 2414POPC   D2A34492  34.490  40.255   8.261
 2414POPC   C3A34493  34.617  40.116   7.859
 2414POPC   C4A34494  34.771  40.326   7.492
 2414POPC   C1B34495  34.723  39.590   8.792
 2414POPC   C2B34496  34.774  39.578   8.347
 2414POPC   C3B34497  34.383  39.756   8.167
 2414POPC   C4B34498  34.201  39.790   7.752
 2415POPC   NC334499  39.529   4.759   9.502
 2415POPC   PO434500  39.258   5.334   9.651
 2415POPC   GL134501  39.228   5.133   9.235
 2415POPC   GL234502  39.095   4.812   9.213
 2415POPC   C1A34503  39.377   4.984   8.819
 2415POPC   D2A34504  39.346   5.226   8.450
 2415POPC   C3A34505  39.470   5.017   8.081
 2415POPC   C4A34506  39.294   5.188   7.706
 2415POPC   C1B34507  38.865   4.967   8.873
 2415POPC   C2B34508  38.968   4.885   8.443
 2415POPC   C3B34509  38.956   5.097   8.092
 2415POPC   C4B34510  38.858   4.916   7.712
 2416POPC   NC334511  38.086  32.824   9.653
 2416POPC   PO434512  38.417  32.319   9.704
 2416POPC   GL134513  38.437  32.267   9.249
 2416POPC   GL234514  38.131  32.499   9.220
 2416POPC   C1A34515  38.541  32.026   8.833
 2416POPC   D2A34516  38.781  32.139   8.442
 2416POPC   C3A34517  38.578  31.951   8.084
 2416POPC   C4A34518  38.343  31.973   7.704
 2416POPC   C1B34519  38.173  32.384   8.789
 2416POPC   C2B34520  38.271  32.224   8.389
 2416POPC   C3B34521  38.352  32.409   7.984
 2416POPC   C4B34522  38.148  32.443   7.602
 2417POPC   NC334523  21.915  11.351   9.572
 2417POPC   PO434524  22.256  10.794   9.629
 2417POPC   GL134525  22.425  11.103   9.277
 2417POPC   GL234526  22.339  11.443   9.242
 2417POPC   C1A34527  22.343  11.163   8.824
 2417POPC   D2A34528  22.146  11.114   8.412
 2417POPC   C3A34529  22.400  11.137   8.045
 2417POPC   C4A34530  22.244  11.215   7.641
 2417POPC   C1B34531  21.961  11.492   8.932
 2417POPC   C2B34532  21.881  11.564   8.488
 2417POPC   C3B34533  21.949  11.431   8.046
 2417POPC   C4B34534  21.811  11.547   7.637
 2418POPC   NC334535  35.835   0.642   9.484
 2418POPC   PO434536  35.679   0.073   9.102
 2418POPC   GL134537  35.593   0.469   9.048
 2418POPC   GL234538  35.240   0.518   9.124
 2418POPC   C1A34539  35.521   0.516   8.619
 2418POPC   D2A34540  35.322   0.269   8.305
 2418POPC   C3A34541  35.453   0.504   8.000
 2418POPC   C4A34542  35.645   0.434   7.643
 2418POPC   C1B34543  35.052   0.407   8.715
 2418POPC   C2B34544  35.081   0.726   8.379
 2418POPC   C3B34545  34.978   0.737   7.951
 2418POPC   C4B34546  35.109   0.459   7.615
 2419POPC   NC334547  19.346  36.606   9.478
 2419POPC   PO434548  19.042  37.220   9.488
 2419POPC   GL134549  19.004  36.904   9.204
 2419POPC   GL234550  18.641  36.823   9.196
 2419POPC   C1A34551  19.260  36.793   8.835
 2419POPC   D2A34552  19.425  36.821   8.424
 2419POPC   C3A34553  19.169  37.035   8.115
 2419POPC   C4A34554  19.168  37.009   7.676
 2419POPC   C1B34555  18.777  36.680   8.829
 2419POPC   C2B34556  18.852  36.819   8.461
 2419POPC   C3B34557  18.816  36.632   8.089
 2419POPC   C4B34558  18.696  36.895   7.798
 2420POPC   NC334559  25.072   6.313   9.563
 2420POPC   PO434560  25.029   5.691   9.704
 2420POPC   GL134561  25.223   5.802   9.283
 2420POPC   GL234562  25.546   5.639   9.270
 2420POPC   C1A34563  25.163   6.016   8.868
 2420POPC   D2A34564  24.878   6.201   8.549
 2420POPC   C3A34565  24.934   6.082   8.112
 2420POPC   C4A34566  25.094   5.690   7.936
 2420POPC   C1B34567  25.514   5.661   8.803
 2420POPC   C2B34568  25.331   5.827   8.387
 2420POPC   C3B34569  25.577   5.807   7.968
 2420POPC   C4B34570  25.789   6.027   7.655
 2421POPC   NC334571  18.056   0.430   9.531
 2421POPC   PO434572  18.633   0.198   9.285
 2421POPC   GL134573  18.353   0.429   9.117
 2421POPC   GL234574  18.017   0.500   9.041
 2421POPC   C1A34575  18.321   0.273   8.709
 2421POPC   D2A34576  18.193   0.505   8.421
 2421POPC   C3A34577  18.418   0.357   8.092
 2421POPC   C4A34578  18.296   0.454   7.717
 2421POPC   C1B34579  17.825   0.157   8.825
 2421POPC   C2B34580  17.674   0.272   8.433
 2421POPC   C3B34581  17.865   0.385   8.037
 2421POPC   C4B34582  17.802   0.266   7.642
 2422POPC   NC334583  39.455   1.101   9.526
 2422POPC   PO434584  38.788   1.228   9.473
 2422POPC   GL134585  39.097   1.297   9.148
 2422POPC   GL234586  39.422   1.493   9.156
 2422POPC   C1A34587  39.297   1.087   8.805
 2422POPC   D2A34588  39.358   0.902   8.389
 2422POPC   C3A34589  38.993   0.995   8.154
 2422POPC   C4A34590  39.036   1.004   7.717
 2422POPC   C1B34591  39.639   1.468   8.767
 2422POPC   C2B34592  39.417   1.411   8.389
 2422POPC   C3B34593  39.404   1.237   7.978
 2422POPC   C4B34594  39.324   1.470   7.579
 2423POPC   NC334595  22.107  35.606   9.553
 2423POPC   PO434596  22.232  36.240   9.600
 2423POPC   GL134597  22.168  36.328   9.168
 2423POPC   GL234598  21.855  36.523   9.117
 2423POPC   C1A34599  22.124  36.078   8.793
 2423POPC   D2A34600  22.399  35.952   8.439
 2423POPC   C3A34601  22.135  35.980   8.065
 2423POPC   C4A34602  22.249  35.953   7.626
 2423POPC   C1B34603  22.097  36.591   8.727
 2423POPC   C2B34604  22.206  36.416   8.309
 2423POPC   C3B34605  22.120  36.426   7.824
 2423POPC   C4B34606  22.021  36.343   7.369
 2424POPC   NC334607  14.466  15.597   9.502
 2424POPC   PO434608  14.391  16.319   9.530
 2424POPC   GL134609  14.422  16.037   9.222
 2424POPC   GL234610  14.753  15.926   9.248
 2424POPC   C1A34611  14.441  15.876   8.818
 2424POPC   D2A34612  14.322  16.045   8.424
 2424POPC   C3A34613  14.492  15.934   8.059
 2424POPC   C4A34614  14.373  15.827   7.663
 2424POPC   C1B34615  14.879  16.174   8.898
 2424POPC   C2B34616  14.776  16.264   8.486
 2424POPC   C3B34617  14.881  16.281   8.076
 2424POPC   C4B34618  14.615  16.325   7.731
 2425POPC   NC334619   5.321  30.163   9.490
 2425POPC   PO434620   5.202  29.515   9.689
 2425POPC   GL134621   5.192  29.719   9.262
 2425POPC   GL234622   4.903  29.986   9.236
 2425POPC   C1A34623   5.105  29.809   8.803
 2425POPC   D2A34624   5.174  30.128   8.492
 2425POPC   C3A34625   5.053  30.034   8.087
 2425POPC   C4A34626   5.007  29.778   7.712
 2425POPC   C1B34627   4.769  30.215   8.840
 2425POPC   C2B34628   4.600  30.158   8.397
 2425POPC   C3B34629   4.638  30.323   7.990
 2425POPC   C4B34630   4.960  30.310   7.669
 2426POPC   NC334631  37.174  21.889   9.416
 2426POPC   PO434632  36.591  22.252   9.457
 2426POPC   GL134633  36.796  22.091   9.128
 2426POPC   GL234634  37.024  22.357   9.139
 2426POPC   C1A34635  37.052  22.040   8.750
 2426POPC   D2A34636  37.035  21.788   8.412
 2426POPC   C3A34637  37.082  21.959   8.033
 2426POPC   C4A34638  36.884  21.919   7.670
 2426POPC   C1B34639  36.938  22.540   8.749
 2426POPC   C2B34640  37.111  22.405   8.375
 2426POPC   C3B34641  37.009  22.476   7.997
 2426POPC   C4B34642  37.111  22.367   7.612
 2427POPC   NC334643  21.953   5.000   9.671
 2427POPC   PO434644  22.375   5.430   9.481
 2427POPC   GL134645  22.021   5.238   9.201
 2427POPC   GL234646  21.865   4.854   9.197
 2427POPC   C1A34647  22.212   4.996   8.845
 2427POPC   D2A34648  22.424   5.048   8.473
 2427POPC   C3A34649  22.178   5.037   8.111
 2427POPC   C4A34650  22.302   5.039   7.718
 2427POPC   C1B34651  21.707   4.967   8.796
 2427POPC   C2B34652  21.716   4.941   8.369
 2427POPC   C3B34653  21.749   4.715   8.050
 2427POPC   C4B34654  21.786   4.936   7.728
 2428POPC   NC334655  13.386  35.341   9.448
 2428POPC   PO434656  13.999  35.631   9.417
 2428POPC   GL134657  13.651  35.606   9.105
 2428POPC   GL234658  13.652  35.269   9.002
 2428POPC   C1A34659  13.488  35.706   8.690
 2428POPC   D2A34660  13.746  35.652   8.319
 2428POPC   C3A34661  13.626  35.428   7.981
 2428POPC   C4A34662  13.590  35.628   7.612
 2428POPC   C1B34663  13.919  35.319   8.657
 2428POPC   C2B34664  13.955  35.079   8.240
 2428POPC   C3B34665  13.954  35.083   7.786
 2428POPC   C4B34666  13.774  35.198   7.410
 2429POPC   NC334667  22.848  16.112   9.321
 2429POPC   PO434668  23.212  15.709   9.729
 2429POPC   GL134669  23.087  15.634   9.274
 2429POPC   GL234670  23.276  15.853   9.167
 2429POPC   C1A34671  23.041  15.569   8.785
 2429POPC   D2A34672  23.111  15.501   8.312
 2429POPC   C3A34673  22.926  15.780   7.974
 2429POPC   C4A34674  22.629  15.633   7.651
 2429POPC   C1B34675  23.361  15.987   8.759
 2429POPC   C2B34676  23.142  16.015   8.434
 2429POPC   C3B34677  23.146  16.282   8.134
 2429POPC   C4B34678  23.170  16.183   7.738
 2430POPC   NC334679  36.477  28.049   9.257
 2430POPC   PO434680  35.841  28.299   9.451
 2430POPC   GL134681  36.152  28.439   9.143
 2430POPC   GL234682  36.495  28.562   9.088
 2430POPC   C1A34683  36.145  28.449   8.713
 2430POPC   D2A34684  35.924  28.710   8.432
 2430POPC   C3A34685  36.009  28.641   8.000
 2430POPC   C4A34686  35.770  28.743   7.641
 2430POPC   C1B34687  36.659  28.397   8.703
 2430POPC   C2B34688  36.521  28.104   8.418
 2430POPC   C3B34689  36.484  28.047   7.983
 2430POPC   C4B34690  36.379  28.390   7.718
 2431POPC   NC334691  33.025  27.757   9.494
 2431POPC   PO434692  32.916  27.102   9.686
 2431POPC   GL134693  32.893  27.244   9.226
 2431POPC   GL234694  33.186  27.444   9.129
 2431POPC   C1A34695  32.834  27.406   8.776
 2431POPC   D2A34696  32.883  27.639   8.414
 2431POPC   C3A34697  32.818  27.505   8.001
 2431POPC   C4A34698  33.083  27.203   7.880
 2431POPC   C1B34699  33.159  27.815   8.848
 2431POPC   C2B34700  33.020  28.115   8.547
 2431POPC   C3B34701  32.996  28.032   8.097
 2431POPC   C4B34702  33.203  27.799   7.793
 2432POPC   NC334703  30.987  12.661   9.593
 2432POPC   PO434704  31.019  13.376   9.464
 2432POPC   GL134705  30.782  13.141   9.135
 2432POPC   GL234706  30.753  12.801   9.062
 2432POPC   C1A34707  30.552  13.148   8.769
 2432POPC   D2A34708  30.500  12.984   8.373
 2432POPC   C3A34709  30.538  13.209   7.973
 2432POPC   C4A34710  30.436  13.152   7.531
 2432POPC   C1B34711  30.412  12.634   8.760
 2432POPC   C2B34712  30.457  12.465   8.338
 2432POPC   C3B34713  30.521  12.691   7.960
 2432POPC   C4B34714  30.777  12.781   7.615
 2433POPC   NC334715   7.227  44.428   9.564
 2433POPC   PO434716   7.700  44.979   9.450
 2433POPC   GL134717   7.343  44.822   9.225
 2433POPC   GL234718   7.500  44.525   9.102
 2433POPC   C1A34719   7.187  44.755   8.804
 2433POPC   D2A34720   7.412  44.814   8.433
 2433POPC   C3A34721   7.250  44.780   8.020
 2433POPC   C4A34722   7.588  44.693   7.739
 2433POPC   C1B34723   7.355  44.281   8.752
 2433POPC   C2B34724   7.173  44.365   8.362
 2433POPC   C3B34725   7.432  44.298   8.017
 2433POPC   C4B34726   7.768  44.205   7.744
 2434POPC   NC334727  29.215  10.431   9.675
 2434POPC   PO434728  29.024  10.810   9.268
 2434POPC   GL134729  29.063  10.410   9.155
 2434POPC   GL234730  28.742  10.369   9.007
 2434POPC   C1A34731  29.221  10.273   8.757
 2434POPC   D2A34732  29.083  10.206   8.326
 2434POPC   C3A34733  29.373  10.287   7.973
 2434POPC   C4A34734  29.241  10.387   7.509
 2434POPC   C1B34735  28.700  10.688   8.690
 2434POPC   C2B34736  28.834  10.723   8.273
 2434POPC   C3B34737  29.098  10.708   7.954
 2434POPC   C4B34738  28.972  10.802   7.581
 2435POPC   NC334739   9.782  19.920   9.762
 2435POPC   PO434740   9.690  19.396   9.419
 2435POPC   GL134741   9.908  19.686   9.161
 2435POPC   GL234742   9.876  20.023   9.251
 2435POPC   C1A34743  10.021  19.711   8.746
 2435POPC   D2A34744   9.826  19.828   8.376
 2435POPC   C3A34745   9.872  19.515   8.044
 2435POPC   C4A34746   9.911  19.839   7.774
 2435POPC   C1B34747   9.781  20.158   8.834
 2435POPC   C2B34748   9.805  20.388   8.462
 2435POPC   C3B34749   9.819  20.250   8.063
 2435POPC   C4B34750   9.511  20.244   7.740
 2436POPC   NC334751  15.459  41.684   9.173
 2436POPC   PO434752  15.980  41.893   9.488
 2436POPC   GL134753  15.991  41.634   9.128
 2436POPC   GL234754  15.821  41.284   9.104
 2436POPC   C1A34755  16.028  41.558   8.706
 2436POPC   D2A34756  16.134  41.326   8.366
 2436POPC   C3A34757  16.253  41.512   8.021
 2436POPC   C4A34758  15.955  41.645   7.728
 2436POPC   C1B34759  15.652  41.174   8.720
 2436POPC   C2B34760  15.614  41.269   8.296
 2436POPC   C3B34761  15.805  41.166   7.929
 2436POPC   C4B34762  15.720  41.154   7.477
 2437POPC   NC334763  10.137  32.276   9.523
 2437POPC   PO434764  10.740  31.887   9.554
 2437POPC   GL134765  10.466  31.995   9.234
 2437POPC   GL234766  10.540  32.359   9.212
 2437POPC   C1A34767  10.389  32.076   8.800
 2437POPC   D2A34768  10.689  32.148   8.481
 2437POPC   C3A34769  10.486  32.162   8.114
 2437POPC   C4A34770  10.656  32.133   7.715
 2437POPC   C1B34771  10.636  32.548   8.802
 2437POPC   C2B34772  10.503  32.642   8.339
 2437POPC   C3B34773  10.584  32.632   7.876
 2437POPC   C4B34774  10.663  32.542   7.415
 2438POPC   NC334775   6.054  36.798   9.449
 2438POPC   PO434776   5.637  37.250   9.687
 2438POPC   GL134777   5.798  37.278   9.258
 2438POPC   GL234778   6.154  37.241   9.240
 2438POPC   C1A34779   5.849  37.039   8.837
 2438POPC   D2A34780   5.691  36.849   8.436
 2438POPC   C3A34781   5.882  36.668   8.056
 2438POPC   C4A34782   5.809  36.914   7.683
 2438POPC   C1B34783   6.374  37.184   8.858
 2438POPC   C2B34784   6.234  37.062   8.472
 2438POPC   C3B34785   5.998  37.163   8.123
 2438POPC   C4B34786   5.972  37.396   7.782
 2439POPC   NC334787   3.270  21.059   9.454
 2439POPC   PO434788   3.774  20.632   9.551
 2439POPC   GL134789   3.500  20.578   9.131
 2439POPC   GL234790   3.223  20.337   9.078
 2439POPC   C1A34791   3.454  20.489   8.676
 2439POPC   D2A34792   3.604  20.690   8.374
 2439POPC   C3A34793   3.404  20.653   8.029
 2439POPC   C4A34794   3.528  20.675   7.638
 2439POPC   C1B34795   2.997  20.196   8.710
 2439POPC   C2B34796   3.038  20.401   8.312
 2439POPC   C3B34797   2.961  20.469   7.862
 2439POPC   C4B34798   3.032  20.403   7.398
 2440POPC   NC334799  44.398  31.199   9.501
 2440POPC   PO434800  44.813  31.823   9.420
 2440POPC   GL134801  44.647  31.512   9.188
 2440POPC   GL234802  44.537  31.708   8.940
 2440POPC   C1A34803  44.659  31.193   8.860
 2440POPC   D2A34804  44.459  31.117   8.460
 2440POPC   C3A34805  44.519  31.383   8.104
 2440POPC   C4A34806  44.411  31.414   7.646
 2440POPC   C1B34807  44.943  31.602   8.763
 2440POPC   C2B34808   0.102  31.488   8.374
 2440POPC   C3B34809  44.961  31.630   8.006
 2440POPC   C4B34810  44.917  31.671   7.600
 2441POPC   NC334811  27.639  23.791   9.709
 2441POPC   PO434812  27.973  23.254   9.485
 2441POPC   GL134813  27.762  23.612   9.248
 2441POPC   GL234814  27.404  23.578   9.136
 2441POPC   C1A34815  27.798  23.824   8.845
 2441POPC   D2A34816  27.896  23.629   8.451
 2441POPC   C3A34817  27.716  23.805   8.084
 2441POPC   C4A34818  27.724  23.782   7.625
 2441POPC   C1B34819  27.288  23.750   8.706
 2441POPC   C2B34820  27.211  23.853   8.255
 2441POPC   C3B34821  27.255  23.805   7.782
 2441POPC   C4B34822  27.344  24.045   7.390
 2442POPC   NC334823  35.217   6.153   9.570
 2442POPC   PO434824  35.351   5.565   9.380
 2442POPC   GL134825  35.335   5.781   9.018
 2442POPC   GL234826  35.080   6.029   9.085
 2442POPC   C1A34827  35.588   5.807   8.637
 2442POPC   D2A34828  35.856   5.878   8.289
 2442POPC   C3A34829  35.659   5.927   7.889
 2442POPC   C4A34830  35.352   5.832   7.595
 2442POPC   C1B34831  35.157   6.088   8.641
 2442POPC   C2B34832  35.295   6.109   8.224
 2442POPC   C3B34833  35.033   6.150   7.851
 2442POPC   C4B34834  34.884   5.934   7.446
 2443POPC   NC334835  41.670  19.737   9.833
 2443POPC   PO434836  41.252  20.080   9.665
 2443POPC   GL134837  41.511  20.090   9.252
 2443POPC   GL234838  41.738  19.812   9.114
 2443POPC   C1A34839  41.488  20.114   8.768
 2443POPC   D2A34840  41.234  20.142   8.364
 2443POPC   C3A34841  41.405  20.103   7.935
 2443POPC   C4A34842  41.437  19.795   7.576
 2443POPC   C1B34843  41.719  19.664   8.651
 2443POPC   C2B34844  41.610  19.715   8.198
 2443POPC   C3B34845  41.867  19.895   7.837
 2443POPC   C4B34846  41.952  19.865   7.363
 2444POPC   NC334847  23.499  40.578   9.672
 2444POPC   PO434848  24.086  40.915   9.622
 2444POPC   GL134849  23.845  40.664   9.297
 2444POPC   GL234850  23.557  40.784   9.163
 2444POPC   C1A34851  23.831  40.512   8.834
 2444POPC   D2A34852  23.759  40.776   8.427
 2444POPC   C3A34853  23.659  40.635   7.994
 2444POPC   C4A34854  23.924  40.709   7.623
 2444POPC   C1B34855  23.375  40.745   8.764
 2444POPC   C2B34856  23.305  40.989   8.392
 2444POPC   C3B34857  23.192  40.880   8.012
 2444POPC   C4B34858  23.244  40.593   7.663
 2445POPC   NC334859  12.734  40.297   9.392
 2445POPC   PO434860  12.701  39.622   9.431
 2445POPC   GL134861  12.684  39.881   9.077
 2445POPC   GL234862  13.001  39.965   9.125
 2445POPC   C1A34863  12.770  40.222   8.757
 2445POPC   D2A34864  12.731  40.477   8.422
 2445POPC   C3A34865  12.735  40.157   8.149
 2445POPC   C4A34866  12.759  40.025   7.762
 2445POPC   C1B34867  13.161  39.863   8.773
 2445POPC   C2B34868  13.036  39.834   8.378
 2445POPC   C3B34869  13.203  39.946   7.978
 2445POPC   C4B34870  13.211  39.729   7.571
 2446POPC   NC334871  18.697  15.012   9.435
 2446POPC   PO434872  19.357  14.846   9.381
 2446POPC   GL134873  19.034  14.873   9.083
 2446POPC   GL234874  19.122  15.229   9.095
 2446POPC   C1A34875  18.789  15.047   8.747
 2446POPC   D2A34876  19.005  15.158   8.393
 2446POPC   C3A34877  18.912  15.035   7.995
 2446POPC   C4A34878  18.714  15.356   7.744
 2446POPC   C1B34879  19.454  15.393   8.791
 2446POPC   C2B34880  19.433  15.431   8.333
 2446POPC   C3B34881  19.220  15.450   7.920
 2446POPC   C4B34882  19.474  15.500   7.534
 2447POPC   NC334883  44.767   9.603   9.191
 2447POPC   PO434884  44.713   8.975   9.451
 2447POPC   GL134885  44.672   8.734   9.128
 2447POPC   GL234886   0.009   8.788   9.009
 2447POPC   C1A34887  44.439   8.728   8.730
 2447POPC   D2A34888  44.593   8.719   8.303
 2447POPC   C3A34889  44.456   8.977   8.033
 2447POPC   C4A34890  44.508   8.872   7.657
 2447POPC   C1B34891  44.985   8.816   8.586
 2447POPC   C2B34892  44.938   9.093   8.217
 2447POPC   C3B34893  44.902   9.208   7.771
 2447POPC   C4B34894   0.120   9.309   7.349
 2448POPC   NC334895  22.065  31.729   9.351
 2448POPC   PO434896  22.531  31.267   9.548
 2448POPC   GL134897  22.205  31.276   9.153
 2448POPC   GL234898  21.942  31.023   9.023
 2448POPC   C1A34899  22.044  31.442   8.717
 2448POPC   D2A34900  22.053  31.733   8.339
 2448POPC   C3A34901  22.320  31.714   7.954
 2448POPC   C4A34902  22.163  31.691   7.514
 2448POPC   C1B34903  21.641  31.139   8.672
 2448POPC   C2B34904  21.711  31.222   8.238
 2448POPC   C3B34905  21.859  31.468   7.925
 2448POPC   C4B34906  21.808  31.320   7.520
 2449POPC   NC334907  29.432  13.459   9.387
 2449POPC   PO434908  30.028  13.234   9.494
 2449POPC   GL134909  29.865  13.357   9.098
 2449POPC   GL234910  29.869  13.734   9.059
 2449POPC   C1A34911  29.655  13.452   8.701
 2449POPC   D2A34912  29.532  13.666   8.342
 2449POPC   C3A34913  29.927  13.685   8.084
 2449POPC   C4A34914  30.058  13.407   7.762
 2449POPC   C1B34915  29.567  13.956   8.776
 2449POPC   C2B34916  29.600  14.172   8.374
 2449POPC   C3B34917  29.702  14.116   7.956
 2449POPC   C4B34918  29.662  13.999   7.541
 2450POPC   NC334919   3.431  30.892   9.304
 2450POPC   PO434920   3.607  31.543   9.583
 2450POPC   GL134921   3.616  31.529   9.162
 2450POPC   GL234922   3.790  31.237   9.131
 2450POPC   C1A34923   3.372  31.590   8.762
 2450POPC   D2A34924   3.077  31.545   8.400
 2450POPC   C3A34925   3.213  31.657   7.988
 2450POPC   C4A34926   3.390  31.544   7.589
 2450POPC   C1B34927   3.868  31.455   8.722
 2450POPC   C2B34928   3.729  31.713   8.398
 2450POPC   C3B34929   3.701  31.578   8.005
 2450POPC   C4B34930   3.885  31.372   7.660
 2451POPC   NC334931  43.513   4.119   9.348
 2451POPC   PO434932  43.041   3.596   9.611
 2451POPC   GL134933  43.049   3.419   9.210
 2451POPC   GL234934  43.276   3.681   9.166
 2451POPC   C1A34935  43.150   3.335   8.751
 2451POPC   D2A34936  43.365   3.404   8.294
 2451POPC   C3A34937  43.117   3.314   7.889
 2451POPC   C4A34938  42.963   3.485   7.463
 2451POPC   C1B34939  42.951   3.809   8.900
 2451POPC   C2B34940  43.070   3.768   8.515
 2451POPC   C3B34941  43.079   3.790   8.094
 2451POPC   C4B34942  42.804   3.982   7.819
 2452POPC   NC334943   3.810  19.449   9.529
 2452POPC   PO434944   3.238  19.049   9.491
 2452POPC   GL134945   3.418  19.042   9.115
 2452POPC   GL234946   3.757  18.888   9.107
 2452POPC   C1A34947   3.244  18.992   8.707
 2452POPC   D2A34948   3.151  18.806   8.309
 2452POPC   C3A34949   3.263  19.050   7.981
 2452POPC   C4A34950   3.419  18.844   7.654
 2452POPC   C1B34951   3.744  19.172   8.746
 2452POPC   C2B34952   3.640  19.203   8.312
 2452POPC   C3B34953   3.814  19.201   7.880
 2452POPC   C4B34954   3.864  18.949   7.505
 2453POPC   NC334955  25.162  43.781   9.541
 2453POPC   PO434956  24.807  44.292   9.358
 2453POPC   GL134957  25.018  43.959   9.089
 2453POPC   GL234958  24.891  43.637   9.083
 2453POPC   C1A34959  25.237  43.802   8.709
 2453POPC   D2A34960  25.123  43.952   8.296
 2453POPC   C3A34961  25.208  43.816   7.864
 2453POPC   C4A34962  25.341  44.228   7.712
 2453POPC   C1B34963  24.764  43.650   8.664
 2453POPC   C2B34964  24.840  43.527   8.231
 2453POPC   C3B34965  24.731  43.638   7.804
 2453POPC   C4B34966  24.799  43.538   7.390
 2454POPC   NC334967  26.437  22.797   9.533
 2454POPC   PO434968  27.062  23.162   9.499
 2454POPC   GL134969  26.829  23.005   9.185
 2454POPC   GL234970  26.818  22.654   9.205
 2454POPC   C1A34971  26.964  23.070   8.792
 2454POPC   D2A34972  26.877  22.915   8.421
 2454POPC   C3A34973  27.133  23.051   8.088
 2454POPC   C4A34974  26.887  22.906   7.724
 2454POPC   C1B34975  26.689  22.585   8.789
 2454POPC   C2B34976  26.401  22.698   8.476
 2454POPC   C3B34977  26.509  22.793   8.060
 2454POPC   C4B34978  26.583  22.434   7.836
 2455POPC   NC334979  16.427  41.837   9.373
 2455POPC   PO434980  16.245  41.278   9.392
 2455POPC   GL134981  16.495  41.444   9.059
 2455POPC   GL234982  16.839  41.570   9.134
 2455POPC   C1A34983  16.545  41.545   8.627
 2455POPC   D2A34984  16.830  41.669   8.312
 2455POPC   C3A34985  16.659  41.813   7.923
 2455POPC   C4A34986  16.470  41.631   7.571
 2455POPC   C1B34987  17.029  41.835   8.794
 2455POPC   C2B34988  17.223  41.992   8.374
 2455POPC   C3B34989  17.148  41.905   7.938
 2455POPC   C4B34990  16.991  41.577   7.607
 2456POPC   NC334991  37.458  29.466   9.730
 2456POPC   PO434992  37.664  30.075   9.496
 2456POPC   GL134993  37.497  29.930   9.138
 2456POPC   GL234994  37.230  30.177   9.101
 2456POPC   C1A34995  37.689  29.814   8.740
 2456POPC   D2A34996  37.622  29.537   8.387
 2456POPC   C3A34997  37.680  29.702   7.996
 2456POPC   C4A34998  37.535  29.993   7.720
 2456POPC   C1B34999  37.619  30.323   8.839
 2456POPC   C2B35000  37.688  30.215   8.400
 2456POPC   C3B35001  37.702  30.390   7.985
 2456POPC   C4B35002  37.915  30.513   7.644
 2457POPC   NC335003  15.304  37.476   9.267
 2457POPC   PO435004  14.897  37.848   9.726
 2457POPC   GL135005  15.022  37.878   9.286
 2457POPC   GL235006  14.806  37.632   9.096
 2457POPC   C1A35007  15.188  37.906   8.838
 2457POPC   D2A35008  15.395  37.718   8.479
 2457POPC   C3A35009  15.116  37.829   8.145
 2457POPC   C4A35010  15.158  37.882   7.712
 2457POPC   C1B35011  14.995  37.459   8.687
 2457POPC   C2B35012  15.112  37.266   8.307
 2457POPC   C3B35013  15.267  37.401   7.912
 2457POPC   C4B35014  15.267  37.449   7.452
 2458POPC   NC335015  14.926   0.056   9.791
 2458POPC   PO435016  15.298  44.520   9.580
 2458POPC   GL135017  15.313  44.455   9.172
 2458POPC   GL235018  15.009  44.542   8.983
 2458POPC   C1A35019  15.316  44.191   8.812
 2458POPC   D2A35020  15.026  44.187   8.528
 2458POPC   C3A35021  15.140  44.378   8.154
 2458POPC   C4A35022  14.857  44.547   7.830
 2458POPC   C1B35023  15.408  44.704   8.754
 2458POPC   C2B35024  15.561  44.830   8.358
 2458POPC   C3B35025  15.292  44.859   8.004
 2458POPC   C4B35026  14.947   0.042   7.763
 2459POPC   NC335027  33.644   0.281   9.585
 2459POPC   PO435028  34.238   0.567   9.602
 2459POPC   GL135029  33.942   0.513   9.237
 2459POPC   GL235030  33.637   0.671   9.221
 2459POPC   C1A35031  33.705   0.271   8.904
 2459POPC   D2A35032  33.487   0.139   8.524
 2459POPC   C3A35033  33.737   0.170   8.133
 2459POPC   C4A35034  33.688   0.263   7.714
 2459POPC   C1B35035  33.786   0.794   8.837
 2459POPC   C2B35036  33.729   0.603   8.467
 2459POPC   C3B35037  33.616   0.784   8.107
 2459POPC   C4B35038  33.877   0.693   7.864
 2460POPC   NC335039  32.129  30.601   9.802
 2460POPC   PO435040  32.566  31.066   9.492
 2460POPC   GL135041  32.172  30.815   9.303
 2460POPC   GL235042  32.259  30.990   9.037
 2460POPC   C1A35043  32.094  30.543   8.878
 2460POPC   D2A35044  32.291  30.657   8.487
 2460POPC   C3A35045  32.174  30.566   8.051
 2460POPC   C4A35046  32.224  30.836   7.690
 2460POPC   C1B35047  32.655  30.875   8.811
 2460POPC   C2B35048  32.722  30.909   8.393
 2460POPC   C3B35049  32.625  30.781   7.993
 2460POPC   C4B35050  32.726  30.764   7.560
 2461POPC   NC335051  24.159  23.725   9.508
 2461POPC   PO435052  23.488  23.622   9.435
 2461POPC   GL135053  23.762  23.804   9.166
 2461POPC   GL235054  23.661  24.121   9.144
 2461POPC   C1A35055  23.932  23.663   8.794
 2461POPC   D2A35056  23.752  23.561   8.394
 2461POPC   C3A35057  23.931  23.454   7.990
 2461POPC   C4A35058  23.566  23.361   7.738
 2461POPC   C1B35059  23.536  24.116   8.725
 2461POPC   C2B35060  23.596  24.239   8.282
 2461POPC   C3B35061  23.652  23.901   8.025
 2461POPC   C4B35062  23.786  23.800   7.636
 2462POPC   NC335063  25.838  23.852   9.518
 2462POPC   PO435064  26.239  23.242   9.376
 2462POPC   GL135065  26.236  23.521   9.054
 2462POPC   GL235066  26.053  23.832   9.073
 2462POPC   C1A35067  26.076  23.553   8.649
 2462POPC   D2A35068  26.236  23.615   8.258
 2462POPC   C3A35069  25.900  23.586   7.952
 2462POPC   C4A35070  26.014  23.679   7.523
 2462POPC   C1B35071  25.893  24.086   8.721
 2462POPC   C2B35072  25.909  24.015   8.268
 2462POPC   C3B35073  26.218  23.987   7.913
 2462POPC   C4B35074  25.977  24.176   7.615
 2463POPC   NC335075   4.703  37.570   9.281
 2463POPC   PO435076   4.058  37.499   9.540
 2463POPC   GL135077   4.218  37.445   9.128
 2463POPC   GL235078   4.300  37.795   9.075
 2463POPC   C1A35079   4.126  37.586   8.674
 2463POPC   D2A35080   4.314  37.557   8.299
 2463POPC   C3A35081   4.192  37.394   7.895
 2463POPC   C4A35082   4.025  37.629   7.548
 2463POPC   C1B35083   4.477  37.992   8.703
 2463POPC   C2B35084   4.425  38.075   8.264
 2463POPC   C3B35085   4.311  37.880   7.903
 2463POPC   C4B35086   4.554  37.670   7.600
 2464POPC   NC335087   2.640  26.181   9.501
 2464POPC   PO435088   2.994  25.636   9.507
 2464POPC   GL135089   2.679  25.795   9.159
 2464POPC   GL235090   2.672  26.171   9.001
 2464POPC   C1A35091   2.594  25.774   8.711
 2464POPC   D2A35092   2.727  26.116   8.451
 2464POPC   C3A35093   2.709  26.015   8.025
 2464POPC   C4A35094   2.400  25.832   7.781
 2464POPC   C1B35095   2.353  26.362   8.716
 2464POPC   C2B35096   2.340  26.538   8.297
 2464POPC   C3B35097   2.360  26.346   7.866
 2464POPC   C4B35098   2.248  26.192   7.435
 2465POPC   NC335099  11.293   1.659   9.403
 2465POPC   PO435100  11.105   2.253   9.408
 2465POPC   GL135101  11.036   1.967   9.099
 2465POPC   GL235102  11.398   1.986   9.022
 2465POPC   C1A35103  11.077   1.792   8.667
 2465POPC   D2A35104  10.938   1.973   8.307
 2465POPC   C3A35105  10.928   1.879   7.870
 2465POPC   C4A35106  10.934   2.151   7.533
 2465POPC   C1B35107  11.676   2.261   8.733
 2465POPC   C2B35108  11.538   2.258   8.314
 2465POPC   C3B35109  11.407   1.903   8.072
 2465POPC   C4B35110  11.384   1.939   7.644
 2466POPC   NC335111   0.083  13.529   9.510
 2466POPC   PO435112  44.495  13.220   9.528
 2466POPC   GL135113  44.735  13.400   9.176
 2466POPC   GL235114  44.738  13.729   9.146
 2466POPC   C1A35115  44.957  13.417   8.796
 2466POPC   D2A35116  44.754  13.556   8.425
 2466POPC   C3A35117  44.670  13.350   8.048
 2466POPC   C4A35118  44.427  13.574   7.762
 2466POPC   C1B35119  44.910  13.927   8.767
 2466POPC   C2B35120  44.802  14.094   8.395
 2466POPC   C3B35121  44.716  13.917   8.026
 2466POPC   C4B35122  44.628  14.022   7.612
 2467POPC   NC335123   2.387  44.415   9.499
 2467POPC   PO435124   2.958  44.641   9.477
 2467POPC   GL135125   2.828  44.831   9.111
 2467POPC   GL235126   2.535  44.694   9.105
 2467POPC   C1A35127   2.663   0.037   8.766
 2467POPC   D2A35128   2.474  44.903   8.385
 2467POPC   C3A35129   2.832  44.746   8.196
 2467POPC   C4A35130   3.050  44.798   7.798
 2467POPC   C1B35131   2.612  44.505   8.702
 2467POPC   C2B35132   2.511  44.314   8.291
 2467POPC   C3B35133   2.673  44.386   7.884
 2467POPC   C4B35134   2.523  44.806   7.783
 2468POPC   NC335135  34.093  35.507   9.494
 2468POPC   PO435136  33.615  35.075   9.474
 2468POPC   GL135137  33.738  35.306   9.164
 2468POPC   GL235138  34.055  35.172   9.110
 2468POPC   C1A35139  33.578  35.418   8.782
 2468POPC   D2A35140  33.723  35.558   8.390
 2468POPC   C3A35141  33.570  35.440   8.023
 2468POPC   C4A35142  33.399  35.376   7.664
 2468POPC   C1B35143  34.108  35.439   8.721
 2468POPC   C2B35144  34.178  35.380   8.240
 2468POPC   C3B35145  34.017  35.342   7.785
 2468POPC   C4B35146  34.091  35.344   7.288
 2469POPC   NC335147  22.545   1.871   9.524
 2469POPC   PO435148  21.940   2.122   9.475
 2469POPC   GL135149  22.190   1.894   9.129
 2469POPC   GL235150  22.042   1.557   9.006
 2469POPC   C1A35151  22.156   1.986   8.678
 2469POPC   D2A35152  21.993   1.847   8.278
 2469POPC   C3A35153  22.048   2.152   7.964
 2469POPC   C4A35154  22.399   2.411   7.879
 2469POPC   C1B35155  22.163   1.474   8.622
 2469POPC   C2B35156  22.442   1.610   8.318
 2469POPC   C3B35157  22.360   1.737   7.896
 2469POPC   C4B35158  22.481   1.579   7.484
 2470POPC   NC335159  44.961   2.819   9.550
 2470POPC   PO435160   0.630   2.621   9.500
 2470POPC   GL135161   0.357   2.796   9.206
 2470POPC   GL235162   0.272   3.150   9.310
 2470POPC   C1A35163   0.282   2.761   8.764
 2470POPC   D2A35164   0.092   2.854   8.367
 2470POPC   C3A35165   0.258   2.625   8.000
 2470POPC   C4A35166   0.277   2.684   7.513
 2470POPC   C1B35167   0.487   3.204   8.936
 2470POPC   C2B35168   0.460   3.189   8.510
 2470POPC   C3B35169   0.652   3.182   8.149
 2470POPC   C4B35170   0.492   3.033   7.797
 2471POPC   NC335171  25.382  17.959   9.496
 2471POPC   PO435172  25.133  17.413   9.834
 2471POPC   GL135173  25.146  17.327   9.362
 2471POPC   GL235174  25.225  17.622   9.168
 2471POPC   C1A35175  25.122  17.243   8.887
 2471POPC   D2A35176  25.172  17.471   8.464
 2471POPC   C3A35177  25.259  17.240   8.094
 2471POPC   C4A35178  25.351  17.329   7.658
 2471POPC   C1B35179  24.985  17.816   8.793
 2471POPC   C2B35180  24.787  17.803   8.345
 2471POPC   C3B35181  24.956  17.681   7.957
 2471POPC   C4B35182  25.378  17.732   7.969
 2472POPC   NC335183   9.953   9.297   9.496
 2472POPC   PO435184   9.247   9.335   9.523
 2472POPC   GL135185   9.588   9.354   9.159
 2472POPC   GL235186   9.765   9.033   9.092
 2472POPC   C1A35187   9.535   9.278   8.718
 2472POPC   D2A35188   9.732   9.104   8.372
 2472POPC   C3A35189   9.544   9.008   7.998
 2472POPC   C4A35190   9.625   8.664   7.696
 2472POPC   C1B35191  10.064   9.219   8.760
 2472POPC   C2B35192  10.223   9.255   8.302
 2472POPC   C3B35193  10.090   9.027   7.907
 2472POPC   C4B35194   9.888   9.090   7.509
 2473POPC   NC335195  34.520  21.054   9.425
 2473POPC   PO435196  34.316  20.410   9.571
 2473POPC   GL135197  34.518  20.478   9.161
 2473POPC   GL235198  34.647  20.800   8.998
 2473POPC   C1A35199  34.375  20.300   8.765
 2473POPC   D2A35200  34.273  20.494   8.413
 2473POPC   C3A35201  34.224  20.361   8.032
 2473POPC   C4A35202  34.522  20.417   7.770
 2473POPC   C1B35203  34.804  20.561   8.658
 2473POPC   C2B35204  34.748  20.516   8.221
 2473POPC   C3B35205  34.890  20.744   7.863
 2473POPC   C4B35206  34.627  21.007   7.617
 2474POPC   NC335207  29.350  35.483   9.445
 2474POPC   PO435208  28.681  35.607   9.453
 2474POPC   GL135209  28.955  35.589   9.133
 2474POPC   GL235210  28.972  35.226   9.131
 2474POPC   C1A35211  29.234  35.480   8.769
 2474POPC   D2A35212  29.264  35.236   8.390
 2474POPC   C3A35213  29.336  35.380   7.965
 2474POPC   C4A35214  29.231  35.114   7.590
 2474POPC   C1B35215  28.771  35.251   8.749
 2474POPC   C2B35216  28.775  35.436   8.370
 2474POPC   C3B35217  28.835  35.268   7.958
 2474POPC   C4B35218  28.992  35.543   7.605
 2475POPC   NC335219   1.182  19.590   9.488
 2475POPC   PO435220   1.054  20.230   9.580
 2475POPC   GL135221   1.169  20.020   9.191
 2475POPC   GL235222   1.540  20.023   9.163
 2475POPC   C1A35223   1.089  19.823   8.785
 2475POPC   D2A35224   1.279  19.588   8.416
 2475POPC   C3A35225   1.133  19.712   7.986
 2475POPC   C4A35226   0.952  19.873   7.576
 2475POPC   C1B35227   1.575  19.959   8.708
 2475POPC   C2B35228   1.672  19.901   8.253
 2475POPC   C3B35229   1.556  19.965   7.838
 2475POPC   C4B35230   1.340  20.207   7.561
 2476POPC   NC335231  18.300  34.683   9.511
 2476POPC   PO435232  17.908  34.039   9.537
 2476POPC   GL135233  18.034  34.324   9.193
 2476POPC   GL235234  18.388  34.285   9.177
 2476POPC   C1A35235  18.166  34.661   8.862
 2476POPC   D2A35236  18.462  34.715   8.512
 2476POPC   C3A35237  18.430  34.688   8.081
 2476POPC   C4A35238  18.525  34.701   7.660
 2476POPC   C1B35239  18.509  34.279   8.749
 2476POPC   C2B35240  18.546  34.223   8.297
 2476POPC   C3B35241  18.700  34.256   7.886
 2476POPC   C4B35242  18.464  34.238   7.513
 2477POPC   NC335243  41.434  33.929   9.956
 2477POPC   PO435244  41.745  33.546   9.692
 2477POPC   GL135245  41.730  33.669   9.210
 2477POPC   GL235246  41.501  33.960   9.102
 2477POPC   C1A35247  41.708  33.710   8.713
 2477POPC   D2A35248  41.515  33.721   8.282
 2477POPC   C3A35249  41.697  33.561   7.887
 2477POPC   C4A35250  41.484  33.475   7.478
 2477POPC   C1B35251  41.307  34.039   8.659
 2477POPC   C2B35252  41.463  34.230   8.272
 2477POPC   C3B35253  41.660  34.074   7.887
 2477POPC   C4B35254  41.484  34.002   7.446
 2478POPC   NC335255  34.667  38.918   9.475
 2478POPC   PO435256  34.437  39.561   9.420
 2478POPC   GL135257  34.458  39.241   9.128
 2478POPC   GL235258  34.809  39.208   9.088
 2478POPC   C1A35259  34.420  38.953   8.788
 2478POPC   D2A35260  34.658  38.970   8.403
 2478POPC   C3A35261  34.442  39.192   8.064
 2478POPC   C4A35262  34.642  39.511   7.814
 2478POPC   C1B35263  34.970  38.878   8.841
 2478POPC   C2B35264  35.157  38.858   8.442
 2478POPC   C3B35265  35.074  39.177   8.158
 2478POPC   C4B35266  34.868  39.071   7.810
 2479POPC   NC335267  36.671  44.626   9.500
 2479POPC   PO435268  37.146   0.124   9.344
 2479POPC   GL135269  36.915  44.842   9.067
 2479POPC   GL235270  36.882  44.500   9.059
 2479POPC   C1A35271  36.867  44.760   8.628
 2479POPC   D2A35272  36.691  44.611   8.246
 2479POPC   C3A35273  36.985  44.696   7.928
 2479POPC   C4A35274  37.228  44.798   7.559
 2479POPC   C1B35275  36.855  44.259   8.681
 2479POPC   C2B35276  37.032  44.229   8.252
 2479POPC   C3B35277  36.793  44.232   7.846
 2479POPC   C4B35278  36.521  44.563   7.748
 2480POPC   NC335279  22.517  24.736   9.907
 2480POPC   PO435280  23.050  24.471   9.603
 2480POPC   GL135281  22.899  24.291   9.235
 2480POPC   GL235282  23.223  24.387   9.132
 2480POPC   C1A35283  22.738  24.401   8.821
 2480POPC   D2A35284  22.797  24.714   8.473
 2480POPC   C3A35285  22.797  24.535   8.057
 2480POPC   C4A35286  22.823  24.722   7.667
 2480POPC   C1B35287  23.214  24.589   8.770
 2480POPC   C2B35288  23.119  24.312   8.431
 2480POPC   C3B35289  23.184  24.167   8.018
 2480POPC   C4B35290  23.043  24.269   7.640
 2481POPC   NC335291   3.040  43.299   9.457
 2481POPC   PO435292   2.430  43.002   9.503
 2481POPC   GL135293   2.606  43.217   9.157
 2481POPC   GL235294   2.897  42.998   9.077
 2481POPC   C1A35295   2.583  43.132   8.715
 2481POPC   D2A35296   2.716  43.194   8.310
 2481POPC   C3A35297   2.495  43.367   8.000
 2481POPC   C4A35298   2.409  43.140   7.657
 2481POPC   C1B35299   3.097  43.188   8.717
 2481POPC   C2B35300   3.200  42.987   8.340
 2481POPC   C3B35301   2.997  42.906   7.965
 2481POPC   C4B35302   2.930  43.252   7.780
 2482POPC   NC335303  23.012  21.658   9.522
 2482POPC   PO435304  22.664  22.304   9.560
 2482POPC   GL135305  22.922  22.303   9.174
 2482POPC   GL235306  23.165  22.062   9.226
 2482POPC   C1A35307  23.138  22.394   8.760
 2482POPC   D2A35308  23.286  22.281   8.293
 2482POPC   C3A35309  23.059  22.491   7.936
 2482POPC   C4A35310  22.629  22.567   7.753
 2482POPC   C1B35311  23.119  21.849   8.819
 2482POPC   C2B35312  23.291  21.744   8.388
 2482POPC   C3B35313  23.252  21.695   7.931
 2482POPC   C4B35314  22.986  21.916   7.621
 2483POPC   NC335315  40.869  42.501   9.706
 2483POPC   PO435316  40.459  42.139   9.228
 2483POPC   GL135317  40.677  42.404   8.978
 2483POPC   GL235318  40.775  42.633   9.220
 2483POPC   C1A35319  40.930  42.315   8.635
 2483POPC   D2A35320  40.780  42.318   8.249
 2483POPC   C3A35321  40.904  42.185   7.878
 2483POPC   C4A35322  40.741  42.458   7.528
 2483POPC   C1B35323  40.992  42.779   8.826
 2483POPC   C2B35324  41.108  42.731   8.377
 2483POPC   C3B35325  40.976  42.679   7.949
 2483POPC   C4B35326  41.085  42.832   7.554
 2484POPC   NC335327   8.951  20.476   9.790
 2484POPC   PO435328   9.417  20.203   9.393
 2484POPC   GL135329   9.186  20.429   9.062
 2484POPC   GL235330   8.863  20.555   9.195
 2484POPC   C1A35331   9.191  20.494   8.627
 2484POPC   D2A35332   9.334  20.322   8.241
 2484POPC   C3A35333   9.082  20.497   7.899
 2484POPC   C4A35334   8.782  20.294   7.620
 2484POPC   C1B35335   8.803  20.803   8.806
 2484POPC   C2B35336   8.580  20.927   8.413
 2484POPC   C3B35337   8.650  20.981   7.977
 2484POPC   C4B35338   9.074  21.008   7.833
 2485POPC   NC335339  23.702  31.765   9.407
 2485POPC   PO435340  23.392  31.183   9.560
 2485POPC   GL135341  23.612  31.285   9.158
 2485POPC   GL235342  23.946  31.416   9.102
 2485POPC   C1A35343  23.630  31.361   8.704
 2485POPC   D2A35344  23.642  31.555   8.314
 2485POPC   C3A35345  23.308  31.579   7.996
 2485POPC   C4A35346  23.339  31.980   7.742
 2485POPC   C1B35347  24.120  31.209   8.728
 2485POPC   C2B35348  23.941  31.058   8.332
 2485POPC   C3B35349  23.795  31.224   7.953
 2485POPC   C4B35350  23.772  31.666   7.820
 2486POPC   NC335351  17.928  43.784   9.386
 2486POPC   PO435352  17.305  43.955   9.501
 2486POPC   GL135353  17.497  43.886   9.138
 2486POPC   GL235354  17.313  43.592   9.123
 2486POPC   C1A35355  17.672  43.785   8.728
 2486POPC   D2A35356  17.485  43.986   8.375
 2486POPC   C3A35357  17.592  43.942   7.984
 2486POPC   C4A35358  17.533  43.633   7.742
 2486POPC   C1B35359  17.165  43.842   8.760
 2486POPC   C2B35360  16.958  43.970   8.400
 2486POPC   C3B35361  17.084  43.916   8.001
 2486POPC   C4B35362  16.993  44.167   7.687
 2487POPC   NC335363  36.463  12.556   9.572
 2487POPC   PO435364  36.911  13.010   9.535
 2487POPC   GL135365  37.032  13.050   9.106
 2487POPC   GL235366  37.166  12.709   9.196
 2487POPC   C1A35367  36.964  13.074   8.664
 2487POPC   D2A35368  36.691  13.111   8.330
 2487POPC   C3A35369  36.751  12.923   7.917
 2487POPC   C4A35370  36.597  12.703   7.481
 2487POPC   C1B35371  36.929  12.608   8.854
 2487POPC   C2B35372  37.104  12.628   8.456
 2487POPC   C3B35373  37.020  12.470   8.075
 2487POPC   C4B35374  37.019  12.567   7.692
 2488POPC   NC335375  12.273  39.413   9.465
 2488POPC   PO435376  11.640  39.572   9.395
 2488POPC   GL135377  11.931  39.396   9.060
 2488POPC   GL235378  12.017  39.016   9.090
 2488POPC   C1A35379  12.117  39.336   8.640
 2488POPC   D2A35380  12.092  38.933   8.405
 2488POPC   C3A35381  11.869  38.964   8.040
 2488POPC   C4A35382  11.991  39.348   7.826
 2488POPC   C1B35383  12.455  39.037   8.887
 2488POPC   C2B35384  12.565  39.118   8.444
 2488POPC   C3B35385  12.445  39.183   8.033
 2488POPC   C4B35386  12.290  38.941   7.728
 2489POPC   NC335387   1.056  24.884   9.434
 2489POPC   PO435388   1.455  24.377   9.323
 2489POPC   GL135389   1.195  24.556   9.052
 2489POPC   GL235390   1.456  24.723   8.885
 2489POPC   C1A35391   1.019  24.469   8.658
 2489POPC   D2A35392   1.219  24.600   8.296
 2489POPC   C3A35393   1.024  24.531   7.921
 2489POPC   C4A35394   0.950  24.449   7.452
 2489POPC   C1B35395   1.501  24.314   8.682
 2489POPC   C2B35396   1.427  24.136   8.322
 2489POPC   C3B35397   1.430  24.157   7.903
 2489POPC   C4B35398   1.475  24.517   7.674
 2490POPC   NC335399   5.884  14.544   9.503
 2490POPC   PO435400   6.066  13.845   9.413
 2490POPC   GL135401   5.882  14.158   9.176
 2490POPC   GL235402   6.206  14.316   9.159
 2490POPC   C1A35403   5.705  14.199   8.795
 2490POPC   D2A35404   5.996  14.078   8.485
 2490POPC   C3A35405   5.875  14.196   8.090
 2490POPC   C4A35406   6.075  14.334   7.704
 2490POPC   C1B35407   6.019  14.606   8.869
 2490POPC   C2B35408   5.983  14.747   8.478
 2490POPC   C3B35409   5.947  14.704   8.045
 2490POPC   C4B35410   5.578  14.739   7.814
 2491POPC   NC335411  13.257  24.067   9.649
 2491POPC   PO435412  12.732  23.629   9.534
 2491POPC   GL135413  12.853  23.682   9.144
 2491POPC   GL235414  13.140  23.875   9.145
 2491POPC   C1A35415  12.725  23.707   8.708
 2491POPC   D2A35416  12.926  23.785   8.343
 2491POPC   C3A35417  12.732  23.745   7.944
 2491POPC   C4A35418  12.933  23.916   7.571
 2491POPC   C1B35419  13.196  23.532   8.813
 2491POPC   C2B35420  13.201  23.348   8.375
 2491POPC   C3B35421  13.221  23.547   7.957
 2491POPC   C4B35422  13.362  23.579   7.539
 2492POPC   NC335423  14.783  28.364   9.563
 2492POPC   PO435424  14.248  28.215   9.531
 2492POPC   GL135425  14.447  28.422   9.156
 2492POPC   GL235426  14.761  28.269   9.064
 2492POPC   C1A35427  14.420  28.475   8.684
 2492POPC   D2A35428  14.129  28.410   8.337
 2492POPC   C3A35429  14.173  28.657   7.938
 2492POPC   C4A35430  14.400  28.492   7.611
 2492POPC   C1B35431  14.488  27.995   8.847
 2492POPC   C2B35432  14.426  27.975   8.399
 2492POPC   C3B35433  14.354  28.109   7.979
 2492POPC   C4B35434  13.965  28.211   7.875
 2493POPC   NC335435  44.029  39.534   9.579
 2493POPC   PO435436  43.348  39.235   9.569
 2493POPC   GL135437  43.690  39.322   9.253
 2493POPC   GL235438  43.966  39.104   9.281
 2493POPC   C1A35439  43.894  39.550   8.894
 2493POPC   D2A35440  44.074  39.485   8.466
 2493POPC   C3A35441  43.863  39.347   8.078
 2493POPC   C4A35442  43.991  39.220   7.638
 2493POPC   C1B35443  43.953  39.024   8.836
 2493POPC   C2B35444  44.163  38.990   8.426
 2493POPC   C3B35445  44.047  38.869   8.010
 2493POPC   C4B35446  43.789  38.737   7.658
 2494POPC   NC335447  12.461   0.319   9.321
 2494POPC   PO435448  13.031   0.099   9.396
 2494POPC   GL135449  13.024   0.363   9.071
 2494POPC   GL235450  12.738   0.219   8.908
 2494POPC   C1A35451  12.933   0.648   8.717
 2494POPC   D2A35452  12.718   0.689   8.321
 2494POPC   C3A35453  13.030   0.558   8.005
 2494POPC   C4A35454  13.200   0.347   7.663
 2494POPC   C1B35455  12.386  44.940   8.752
 2494POPC   C2B35456  12.222   0.009   8.351
 2494POPC   C3B35457  12.422   0.311   8.071
 2494POPC   C4B35458  12.705   0.255   7.725
 2495POPC   NC335459  14.853  24.425   9.463
 2495POPC   PO435460  14.148  24.548   9.519
 2495POPC   GL135461  14.414  24.281   9.288
 2495POPC   GL235462  14.492  24.585   9.111
 2495POPC   C1A35463  14.477  24.168   8.828
 2495POPC   D2A35464  14.296  24.187   8.428
 2495POPC   C3A35465  14.402  24.405   8.033
 2495POPC   C4A35466  14.373  24.459   7.565
 2495POPC   C1B35467  14.260  24.627   8.711
 2495POPC   C2B35468  14.023  24.649   8.305
 2495POPC   C3B35469  14.130  24.804   7.881
 2495POPC   C4B35470  13.916  24.971   7.498
 2496POPC   NC335471  32.857  14.522   9.895
 2496POPC   PO435472  33.398  14.536   9.554
 2496POPC   GL135473  33.055  14.423   9.278
 2496POPC   GL235474  33.283  14.299   9.083
 2496POPC   C1A35475  32.959  14.522   8.798
 2496POPC   D2A35476  33.223  14.433   8.423
 2496POPC   C3A35477  33.035  14.542   8.046
 2496POPC   C4A35478  33.109  14.444   7.632
 2496POPC   C1B35479  33.170  14.044   8.755
 2496POPC   C2B35480  33.318  13.938   8.356
 2496POPC   C3B35481  33.187  14.043   7.934
 2496POPC   C4B35482  32.726  14.126   7.761
 2497POPC   NC335483  24.315  41.309   9.454
 2497POPC   PO435484  24.548  41.874   9.676
 2497POPC   GL135485  24.586  41.820   9.232
 2497POPC   GL235486  24.301  41.667   9.093
 2497POPC   C1A35487  24.615  41.914   8.782
 2497POPC   D2A35488  24.637  41.622   8.412
 2497POPC   C3A35489  24.682  41.510   7.952
 2497POPC   C4A35490  24.678  41.788   7.582
 2497POPC   C1B35491  24.103  41.505   8.730
 2497POPC   C2B35492  24.132  41.596   8.309
 2497POPC   C3B35493  24.175  41.379   7.924
 2497POPC   C4B35494  23.953  41.240   7.559
 2498POPC   NC335495  23.168  15.240   9.570
 2498POPC   PO435496  22.484  15.276   9.377
 2498POPC   GL135497  22.807  15.186   9.071
 2498POPC   GL235498  23.189  15.142   9.064
 2498POPC   C1A35499  22.676  15.172   8.637
 2498POPC   D2A35500  22.568  14.973   8.242
 2498POPC   C3A35501  22.890  15.105   8.011
 2498POPC   C4A35502  23.152  15.365   7.781
 2498POPC   C1B35503  23.160  14.912   8.655
 2498POPC   C2B35504  23.339  14.885   8.214
 2498POPC   C3B35505  23.262  14.852   7.766
 2498POPC   C4B35506  23.112  14.855   7.337
 2499POPC   NC335507  39.378   7.498   9.596
 2499POPC   PO435508  38.931   7.000   9.489
 2499POPC   GL135509  39.212   7.210   9.205
 2499POPC   GL235510  39.216   7.596   9.147
 2499POPC   C1A35511  39.297   7.244   8.806
 2499POPC   D2A35512  39.183   7.451   8.482
 2499POPC   C3A35513  39.207   7.217   8.125
 2499POPC   C4A35514  39.434   7.263   7.740
 2499POPC   C1B35515  39.495   7.747   8.830
 2499POPC   C2B35516  39.651   7.704   8.441
 2499POPC   C3B35517  39.435   7.678   8.047
 2499POPC   C4B35518  39.160   7.829   7.737
 2500POPC   NC335519  35.511  23.263   9.539
 2500POPC   PO435520  35.022  22.717   9.471
 2500POPC   GL135521  35.232  22.931   9.156
 2500POPC   GL235522  35.548  23.075   9.071
 2500POPC   C1A35523  35.138  22.951   8.733
 2500POPC   D2A35524  34.951  23.156   8.382
 2500POPC   C3A35525  35.052  22.930   8.016
 2500POPC   C4A35526  35.399  22.860   7.787
 2500POPC   C1B35527  35.561  23.244   8.676
 2500POPC   C2B35528  35.540  23.092   8.254
 2500POPC   C3B35529  35.655  23.284   7.872
 2500POPC   C4B35530  35.644  23.614   7.572
 2501POPC   NC335531  35.362  31.943   9.488
 2501POPC   PO435532  35.447  31.200   9.505
 2501POPC   GL135533  35.405  31.283   9.072
 2501POPC   GL235534  35.475  31.651   9.029
 2501POPC   C1A35535  35.266  31.019   8.719
 2501POPC   D2A35536  35.080  30.955   8.277
 2501POPC   C3A35537  35.251  31.261   7.987
 2501POPC   C4A35538  35.084  31.631   7.817
 2501POPC   C1B35539  35.199  31.551   8.662
 2501POPC   C2B35540  35.158  31.800   8.297
 2501POPC   C3B35541  35.504  31.906   8.024
 2501POPC   C4B35542  35.674  32.107   7.668
 2502POPC   NC335543  42.970  43.666   9.375
 2502POPC   PO435544  42.967  43.067   9.747
 2502POPC   GL135545  43.131  43.028   9.297
 2502POPC   GL235546  43.301  43.298   9.253
 2502POPC   C1A35547  43.013  42.994   8.842
 2502POPC   D2A35548  43.214  43.047   8.438
 2502POPC   C3A35549  43.002  43.148   8.073
 2502POPC   C4A35550  43.107  43.178   7.664
 2502POPC   C1B35551  43.512  43.132   8.858
 2502POPC   C2B35552  43.637  43.315   8.446
 2502POPC   C3B35553  43.548  43.201   7.992
 2502POPC   C4B35554  43.575  43.380   7.555
 2503POPC   NC335555  37.158  18.699   9.625
 2503POPC   PO435556  37.049  18.034   9.524
 2503POPC   GL135557  36.821  18.286   9.271
 2503POPC   GL235558  37.075  18.477   9.164
 2503POPC   C1A35559  36.722  18.265   8.842
 2503POPC   D2A35560  36.879  18.384   8.454
 2503POPC   C3A35561  36.731  18.164   8.089
 2503POPC   C4A35562  36.861  18.163   7.669
 2503POPC   C1B35563  37.220  18.616   8.789
 2503POPC   C2B35564  37.352  18.608   8.387
 2503POPC   C3B35565  37.154  18.480   8.023
 2503POPC   C4B35566  37.244  18.533   7.620
 2504POPC   NC335567   7.533  39.775   9.633
 2504POPC   PO435568   7.753  40.406   9.378
 2504POPC   GL135569   7.560  40.060   9.144
 2504POPC   GL235570   7.304  39.803   9.176
 2504POPC   C1A35571   7.282  40.099   8.767
 2504POPC   D2A35572   7.271  39.905   8.384
 2504POPC   C3A35573   7.448  40.038   8.022
 2504POPC   C4A35574   7.423  39.869   7.602
 2504POPC   C1B35575   7.031  39.667   8.805
 2504POPC   C2B35576   6.985  39.499   8.366
 2504POPC   C3B35577   7.015  39.707   7.916
 2504POPC   C4B35578   6.943  39.768   7.416
 2505POPC   NC335579   4.370  40.789   9.449
 2505POPC   PO435580   3.773  41.068   9.538
 2505POPC   GL135581   3.970  40.958   9.139
 2505POPC   GL235582   4.298  41.080   9.057
 2505POPC   C1A35583   4.105  40.625   8.845
 2505POPC   D2A35584   4.289  40.445   8.467
 2505POPC   C3A35585   4.244  40.668   8.063
 2505POPC   C4A35586   3.893  40.920   7.885
 2505POPC   C1B35587   4.516  40.930   8.732
 2505POPC   C2B35588   4.544  41.076   8.335
 2505POPC   C3B35589   4.704  40.968   7.941
 2505POPC   C4B35590   4.617  41.021   7.549
 2506POPC   NC335591  39.463  30.712   9.470
 2506POPC   PO435592  38.876  30.889   9.399
 2506POPC   GL135593  39.110  30.598   9.093
 2506POPC   GL235594  39.456  30.416   9.066
 2506POPC   C1A35595  39.253  30.572   8.656
 2506POPC   D2A35596  39.314  30.772   8.271
 2506POPC   C3A35597  39.140  30.605   7.878
 2506POPC   C4A35598  39.045  30.869   7.534
 2506POPC   C1B35599  39.565  30.181   8.746
 2506POPC   C2B35600  39.640  30.308   8.346
 2506POPC   C3B35601  39.648  30.482   7.973
 2506POPC   C4B35602  39.639  30.235   7.617
 2507POPC   NC335603  34.021  27.794   9.571
 2507POPC   PO435604  33.453  27.457   9.622
 2507POPC   GL135605  33.688  27.432   9.220
 2507POPC   GL235606  33.929  27.660   9.094
 2507POPC   C1A35607  33.543  27.474   8.774
 2507POPC   D2A35608  33.412  27.705   8.371
 2507POPC   C3A35609  33.546  27.483   7.976
 2507POPC   C4A35610  33.905  27.549   7.705
 2507POPC   C1B35611  34.185  27.749   8.756
 2507POPC   C2B35612  34.188  27.606   8.346
 2507POPC   C3B35613  34.294  27.767   7.981
 2507POPC   C4B35614  34.158  28.029   7.684
 2508POPC   NC335615  12.570  37.530   9.639
 2508POPC   PO435616  12.885  38.069   9.461
 2508POPC   GL135617  12.989  37.818   9.114
 2508POPC   GL235618  13.001  37.438   9.173
 2508POPC   C1A35619  12.761  37.825   8.739
 2508POPC   D2A35620  12.682  37.787   8.336
 2508POPC   C3A35621  12.904  37.780   8.005
 2508POPC   C4A35622  12.746  37.848   7.619
 2508POPC   C1B35623  13.010  37.383   8.712
 2508POPC   C2B35624  12.836  37.299   8.279
 2508POPC   C3B35625  12.690  37.346   7.837
 2508POPC   C4B35626  12.903  37.394   7.439
 2509POPC   NC335627   6.877  17.741   9.468
 2509POPC   PO435628   6.322  17.907   9.698
 2509POPC   GL135629   6.488  17.733   9.181
 2509POPC   GL235630   6.615  17.376   9.187
 2509POPC   C1A35631   6.497  17.683   8.729
 2509POPC   D2A35632   6.769  17.446   8.435
 2509POPC   C3A35633   6.737  17.606   8.017
 2509POPC   C4A35634   6.374  17.615   7.765
 2509POPC   C1B35635   6.516  17.169   8.794
 2509POPC   C2B35636   6.280  17.284   8.427
 2509POPC   C3B35637   6.410  17.145   8.012
 2509POPC   C4B35638   6.835  17.111   7.841
 2510POPC   NC335639  15.806   9.265   9.468
 2510POPC   PO435640  16.211   8.843   9.295
 2510POPC   GL135641  15.894   8.982   9.049
 2510POPC   GL235642  15.658   8.763   8.968
 2510POPC   C1A35643  15.791   9.294   8.731
 2510POPC   D2A35644  15.628   9.491   8.311
 2510POPC   C3A35645  15.803   9.222   7.969
 2510POPC   C4A35646  16.154   9.114   7.696
 2510POPC   C1B35647  15.917   8.797   8.582
 2510POPC   C2B35648  16.021   8.795   8.166
 2510POPC   C3B35649  16.190   8.601   7.798
 2510POPC   C4B35650  16.089   8.720   7.365
 2511POPC   NC335651  12.083  30.478   9.534
 2511POPC   PO435652  11.632  30.875   9.564
 2511POPC   GL135653  11.831  30.810   9.178
 2511POPC   GL235654  12.181  30.796   9.152
 2511POPC   C1A35655  11.819  30.629   8.772
 2511POPC   D2A35656  12.019  30.648   8.390
 2511POPC   C3A35657  11.881  30.445   8.050
 2511POPC   C4A35658  11.814  30.605   7.698
 2511POPC   C1B35659  12.371  30.748   8.754
 2511POPC   C2B35660  12.544  30.758   8.350
 2511POPC   C3B35661  12.535  30.875   7.936
 2511POPC   C4B35662  12.436  30.586   7.653
 2512POPC   NC335663   0.410  10.216   9.514
 2512POPC   PO435664   0.806  10.721   9.485
 2512POPC   GL135665   0.613  10.564   9.135
 2512POPC   GL235666   0.266  10.468   9.088
 2512POPC   C1A35667   0.647  10.411   8.723
 2512POPC   D2A35668   0.498  10.666   8.388
 2512POPC   C3A35669   0.582  10.452   8.031
 2512POPC   C4A35670   0.260  10.538   7.830
 2512POPC   C1B35671   0.139  10.381   8.656
 2512POPC   C2B35672  44.903  10.108   8.376
 2512POPC   C3B35673  44.862  10.231   7.950
 2512POPC   C4B35674  44.966  10.286   7.507
 2513POPC   NC335675  43.528  32.400   9.474
 2513POPC   PO435676  42.995  32.020   9.489
 2513POPC   GL135677  43.209  32.183   9.123
 2513POPC   GL235678  43.531  31.998   9.094
 2513POPC   C1A35679  43.134  32.353   8.690
 2513POPC   D2A35680  42.827  32.346   8.343
 2513POPC   C3A35681  42.920  32.450   7.905
 2513POPC   C4A35682  43.017  32.571   7.463
 2513POPC   C1B35683  43.647  32.309   8.831
 2513POPC   C2B35684  43.590  32.294   8.430
 2513POPC   C3B35685  43.288  32.127   8.148
 2513POPC   C4B35686  43.444  32.283   7.759
 2514POPC   NC335687  21.107   4.876   9.600
 2514POPC   PO435688  21.629   5.363   9.596
 2514POPC   GL135689  21.477   5.212   9.240
 2514POPC   GL235690  21.132   5.273   9.249
 2514POPC   C1A35691  21.377   5.360   8.810
 2514POPC   D2A35692  21.644   5.412   8.471
 2514POPC   C3A35693  21.509   5.293   8.011
 2514POPC   C4A35694  21.583   5.363   7.525
 2514POPC   C1B35695  21.225   4.876   8.974
 2514POPC   C2B35696  21.257   4.790   8.546
 2514POPC   C3B35697  21.253   4.868   8.114
 2514POPC   C4B35698  21.241   4.983   7.656
 2515POPC   NC335699  43.457  12.993   9.460
 2515POPC   PO435700  44.081  12.690   9.628
 2515POPC   GL135701  44.028  12.718   9.188
 2515POPC   GL235702  43.680  12.792   9.050
 2515POPC   C1A35703  44.090  12.815   8.739
 2515POPC   D2A35704  43.813  12.969   8.383
 2515POPC   C3A35705  43.782  12.771   7.974
 2515POPC   C4A35706  44.120  12.708   7.700
 2515POPC   C1B35707  43.478  13.134   8.777
 2515POPC   C2B35708  43.353  13.209   8.326
 2515POPC   C3B35709  43.551  13.236   7.892
 2515POPC   C4B35710  43.742  13.036   7.508
 2516POPC   NC335711   9.892  31.335   9.623
 2516POPC   PO435712   9.650  31.895   9.837
 2516POPC   GL135713   9.603  31.668   9.344
 2516POPC   GL235714   9.714  31.287   9.166
 2516POPC   C1A35715   9.655  31.678   8.871
 2516POPC   D2A35716   9.551  31.748   8.423
 2516POPC   C3A35717   9.761  31.601   8.047
 2516POPC   C4A35718   9.614  31.743   7.663
 2516POPC   C1B35719   9.987  31.165   8.790
 2516POPC   C2B35720  10.081  31.274   8.321
 2516POPC   C3B35721  10.143  31.240   7.872
 2516POPC   C4B35722   9.835  31.276   7.534
 2517POPC   NC335723  24.526  27.567   9.553
 2517POPC   PO435724  24.035  28.007   9.734
 2517POPC   GL135725  24.248  27.904   9.296
 2517POPC   GL235726  24.123  27.575   9.201
 2517POPC   C1A35727  24.426  27.817   8.867
 2517POPC   D2A35728  24.262  27.710   8.451
 2517POPC   C3A35729  24.441  27.674   8.008
 2517POPC   C4A35730  24.529  27.943   7.652
 2517POPC   C1B35731  24.303  27.327   8.853
 2517POPC   C2B35732  24.542  27.261   8.473
 2517POPC   C3B35733  24.377  27.172   8.076
 2517POPC   C4B35734  24.237  27.324   7.665
 2518POPC   NC335735  23.278  39.986   9.506
 2518POPC   PO435736  23.876  40.263   9.620
 2518POPC   GL135737  23.703  40.175   9.213
 2518POPC   GL235738  23.660  39.839   9.199
 2518POPC   C1A35739  23.486  40.118   8.791
 2518POPC   D2A35740  23.469  40.365   8.412
 2518POPC   C3A35741  23.538  40.119   8.042
 2518POPC   C4A35742  23.827  40.192   7.715
 2518POPC   C1B35743  23.913  39.814   8.813
 2518POPC   C2B35744  23.752  39.768   8.379
 2518POPC   C3B35745  23.886  39.727   7.944
 2518POPC   C4B35746  23.668  39.579   7.603
 2519POPC   NC335747   8.285   1.782  10.008
 2519POPC   PO435748   7.981   2.221   9.537
 2519POPC   GL135749   8.283   2.036   9.196
 2519POPC   GL235750   8.367   1.720   9.350
 2519POPC   C1A35751   8.232   2.049   8.737
 2519POPC   D2A35752   8.021   1.874   8.364
 2519POPC   C3A35753   8.044   2.101   7.994
 2519POPC   C4A35754   8.332   2.213   7.647
 2519POPC   C1B35755   8.417   1.595   8.895
 2519POPC   C2B35756   8.492   1.703   8.451
 2519POPC   C3B35757   8.494   1.867   8.056
 2519POPC   C4B35758   8.354   1.701   7.711
 2520POPC   NC335759   2.483  29.423   9.370
 2520POPC   PO435760   2.414  30.069   9.424
 2520POPC   GL135761   2.789  30.023   9.164
 2520POPC   GL235762   2.914  29.660   9.161
 2520POPC   C1A35763   2.972  30.166   8.775
 2520POPC   D2A35764   3.250  30.204   8.411
 2520POPC   C3A35765   3.033  30.275   8.032
 2520POPC   C4A35766   2.959  30.144   7.638
 2520POPC   C1B35767   2.676  29.737   8.753
 2520POPC   C2B35768   2.816  29.912   8.356
 2520POPC   C3B35769   2.879  29.750   7.958
 2520POPC   C4B35770   2.626  29.608   7.597
 2521POPC   NC335771   5.891   9.419   9.444
 2521POPC   PO435772   6.309   9.938   9.447
 2521POPC   GL135773   5.900   9.971   9.215
 2521POPC   GL235774   5.759   9.676   9.023
 2521POPC   C1A35775   5.890  10.103   8.787
 2521POPC   D2A35776   5.840   9.801   8.436
 2521POPC   C3A35777   5.871   9.907   8.001
 2521POPC   C4A35778   6.252   9.846   7.754
 2521POPC   C1B35779   6.093   9.505   8.755
 2521POPC   C2B35780   6.207   9.487   8.272
 2521POPC   C3B35781   6.005   9.401   7.853
 2521POPC   C4B35782   5.919   9.595   7.450
 2522POPC   NC335783  33.311  27.152   9.941
 2522POPC   PO435784  33.059  26.687   9.422
 2522POPC   GL135785  33.107  26.705   9.046
 2522POPC   GL235786  32.818  26.585   8.966
 2522POPC   C1A35787  33.181  27.030   8.774
 2522POPC   D2A35788  33.282  27.207   8.402
 2522POPC   C3A35789  33.297  26.847   8.182
 2522POPC   C4A35790  33.341  26.784   7.772
 2522POPC   C1B35791  32.668  26.923   8.738
 2522POPC   C2B35792  32.782  27.101   8.368
 2522POPC   C3B35793  32.609  27.016   8.018
 2522POPC   C4B35794  32.777  26.811   7.725
 2523POPC   NC335795  22.301  30.880   9.753
 2523POPC   PO435796  21.780  30.629   9.376
 2523POPC   GL135797  22.126  30.551   9.160
 2523POPC   GL235798  22.388  30.803   9.179
 2523POPC   C1A35799  22.143  30.583   8.737
 2523POPC   D2A35800  22.006  30.860   8.444
 2523POPC   C3A35801  22.146  30.815   8.034
 2523POPC   C4A35802  21.795  30.708   7.854
 2523POPC   C1B35803  22.384  31.048   8.730
 2523POPC   C2B35804  22.278  31.263   8.273
 2523POPC   C3B35805  22.309  31.237   7.786
 2523POPC   C4B35806  22.556  30.995   7.492
 2524POPC   NC335807  34.742  37.677   9.852
 2524POPC   PO435808  34.204  37.409   9.604
 2524POPC   GL135809  34.456  37.446   9.230
 2524POPC   GL235810  34.789  37.636   9.265
 2524POPC   C1A35811  34.390  37.514   8.792
 2524POPC   D2A35812  34.206  37.613   8.384
 2524POPC   C3A35813  34.330  37.306   8.074
 2524POPC   C4A35814  34.688  37.175   7.870
 2524POPC   C1B35815  34.908  37.453   8.855
 2524POPC   C2B35816  34.745  37.411   8.421
 2524POPC   C3B35817  34.682  37.678   8.053
 2524POPC   C4B35818  34.854  37.779   7.642
 2525POPC   NC335819  28.580  23.686   9.448
 2525POPC   PO435820  27.984  24.100   9.558
 2525POPC   GL135821  28.190  23.901   9.179
 2525POPC   GL235822  28.514  24.042   9.059
 2525POPC   C1A35823  28.308  23.619   8.826
 2525POPC   D2A35824  28.546  23.573   8.439
 2525POPC   C3A35825  28.263  23.728   8.089
 2525POPC   C4A35826  28.003  23.435   7.855
 2525POPC   C1B35827  28.491  24.076   8.592
 2525POPC   C2B35828  28.696  23.980   8.178
 2525POPC   C3B35829  28.684  23.938   7.737
 2525POPC   C4B35830  28.848  23.870   7.318
 2526POPC   NC335831  34.786   3.473   9.777
 2526POPC   PO435832  34.376   3.891   9.750
 2526POPC   GL135833  34.569   3.704   9.299
 2526POPC   GL235834  34.847   3.451   9.279
 2526POPC   C1A35835  34.453   3.639   8.821
 2526POPC   D2A35836  34.260   3.405   8.429
 2526POPC   C3A35837  34.302   3.482   7.944
 2526POPC   C4A35838  34.606   3.417   7.590
 2526POPC   C1B35839  34.964   3.515   8.862
 2526POPC   C2B35840  34.796   3.479   8.457
 2526POPC   C3B35841  34.777   3.613   8.052
 2526POPC   C4B35842  35.000   3.784   7.716
 2527POPC   NC335843  13.119   3.305   9.634
 2527POPC   PO435844  12.785   3.749   9.446
 2527POPC   GL135845  12.908   3.394   9.170
 2527POPC   GL235846  12.630   3.303   9.015
 2527POPC   C1A35847  13.053   3.218   8.741
 2527POPC   D2A35848  12.932   3.362   8.305
 2527POPC   C3A35849  13.170   3.273   7.927
 2527POPC   C4A35850  13.114   3.517   7.505
 2527POPC   C1B35851  12.514   3.681   8.801
 2527POPC   C2B35852  12.426   3.891   8.414
 2527POPC   C3B35853  12.636   3.840   8.023
 2527POPC   C4B35854  12.695   3.441   7.835
 2528POPC   NC335855   2.041   8.785   9.527
 2528POPC   PO435856   1.911   9.485   9.686
 2528POPC   GL135857   1.718   9.349   9.264
 2528POPC   GL235858   1.709   8.978   9.210
 2528POPC   C1A35859   1.792   9.265   8.798
 2528POPC   D2A35860   2.050   9.067   8.454
 2528POPC   C3A35861   2.105   9.185   8.026
 2528POPC   C4A35862   1.810   9.188   7.691
 2528POPC   C1B35863   1.895   8.740   8.860
 2528POPC   C2B35864   1.791   8.618   8.432
 2528POPC   C3B35865   1.778   8.767   8.017
 2528POPC   C4B35866   1.851   8.692   7.607
 2529POPC   NC335867  44.196   3.393   9.426
 2529POPC   PO435868  43.609   3.714   9.568
 2529POPC   GL135869  43.739   3.465   9.208
 2529POPC   GL235870  43.792   3.772   9.078
 2529POPC   C1A35871  43.975   3.366   8.817
 2529POPC   D2A35872  43.869   3.478   8.407
 2529POPC   C3A35873  43.954   3.273   8.053
 2529POPC   C4A35874  44.074   3.550   7.752
 2529POPC   C1B35875  43.544   3.672   8.742
 2529POPC   C2B35876  43.547   3.901   8.374
 2529POPC   C3B35877  43.664   3.736   8.002
 2529POPC   C4B35878  43.544   3.499   7.703
 2530POPC   NC335879   2.740   0.114   9.525
 2530POPC   PO435880   2.247   0.632   9.443
 2530POPC   GL135881   2.535   0.404   9.129
 2530POPC   GL235882   2.922   0.369   9.099
 2530POPC   C1A35883   2.622   0.537   8.706
 2530POPC   D2A35884   2.438   0.411   8.323
 2530POPC   C3A35885   2.458   0.591   7.901
 2530POPC   C4A35886   2.664   0.561   7.498
 2530POPC   C1B35887   3.123   0.442   8.714
 2530POPC   C2B35888   2.913   0.236   8.379
 2530POPC   C3B35889   2.794   0.219   7.971
 2530POPC   C4B35890   3.096   0.303   7.687
 2531POPC   NC335891  19.710   9.078   9.708
 2531POPC   PO435892  20.204   8.760   9.630
 2531POPC   GL135893  20.088   8.992   9.239
 2531POPC   GL235894  19.769   9.159   9.145
 2531POPC   C1A35895  20.137   8.891   8.784
 2531POPC   D2A35896  20.306   8.871   8.331
 2531POPC   C3A35897  19.983   8.941   7.979
 2531POPC   C4A35898  19.780   8.965   7.547
 2531POPC   C1B35899  19.585   9.452   8.784
 2531POPC   C2B35900  19.450   9.496   8.307
 2531POPC   C3B35901  19.494   9.178   7.941
 2531POPC   C4B35902  19.266   9.048   7.553
 2532POPC   NC335903  14.623  44.103   9.789
 2532POPC   PO435904  13.940  44.049   9.662
 2532POPC   GL135905  14.220  43.999   9.283
 2532POPC   GL235906  14.139  43.701   9.101
 2532POPC   C1A35907  14.574  43.959   8.954
 2532POPC   D2A35908  14.696  43.802   8.520
 2532POPC   C3A35909  14.612  44.083   8.186
 2532POPC   C4A35910  14.651  44.082   7.731
 2532POPC   C1B35911  14.125  43.897   8.699
 2532POPC   C2B35912  13.911  43.837   8.292
 2532POPC   C3B35913  14.099  43.969   7.942
 2532POPC   C4B35914  14.151  44.163   7.588
 2533POPC   NC335915  15.856  14.433   9.572
 2533POPC   PO435916  15.607  15.086   9.709
 2533POPC   GL135917  15.790  14.846   9.293
 2533POPC   GL235918  15.646  14.555   9.109
 2533POPC   C1A35919  16.065  14.720   8.900
 2533POPC   D2A35920  15.815  14.564   8.541
 2533POPC   C3A35921  16.032  14.596   8.122
 2533POPC   C4A35922  15.820  14.583   7.723
 2533POPC   C1B35923  15.943  14.230   8.908
 2533POPC   C2B35924  15.909  14.074   8.465
 2533POPC   C3B35925  15.819  14.147   8.017
 2533POPC   C4B35926  16.147  14.105   7.689
 2534POPC   NC335927  17.987  43.038   9.654
 2534POPC   PO435928  17.339  42.957   9.570
 2534POPC   GL135929  17.340  43.079   9.178
 2534POPC   GL235930  17.128  42.869   9.037
 2534POPC   C1A35931  17.592  43.265   8.864
 2534POPC   D2A35932  17.484  43.133   8.468
 2534POPC   C3A35933  17.632  43.303   8.120
 2534POPC   C4A35934  17.503  43.130   7.731
 2534POPC   C1B35935  17.087  42.826   8.583
 2534POPC   C2B35936  17.145  42.917   8.123
 2534POPC   C3B35937  17.087  42.851   7.660
 2534POPC   C4B35938  17.004  43.001   7.192
 2535POPC   NC335939  11.567  43.119   9.727
 2535POPC   PO435940  11.074  42.719   9.497
 2535POPC   GL135941  11.169  43.041   9.197
 2535POPC   GL235942  11.140  43.405   9.336
 2535POPC   C1A35943  11.196  43.021   8.746
 2535POPC   D2A35944  11.483  43.035   8.408
 2535POPC   C3A35945  11.358  42.895   7.978
 2535POPC   C4A35946  11.688  42.826   7.654
 2535POPC   C1B35947  11.070  43.491   8.895
 2535POPC   C2B35948  11.052  43.426   8.457
 2535POPC   C3B35949  11.290  43.396   8.110
 2535POPC   C4B35950  11.503  43.346   7.719
 2536POPC   NC335951  33.742  37.503   9.570
 2536POPC   PO435952  33.770  38.222   9.369
 2536POPC   GL135953  33.643  37.824   9.189
 2536POPC   GL235954  33.966  37.620   9.122
 2536POPC   C1A35955  33.528  37.545   8.843
 2536POPC   D2A35956  33.685  37.599   8.416
 2536POPC   C3A35957  33.487  37.879   8.146
 2536POPC   C4A35958  33.496  37.716   7.752
 2536POPC   C1B35959  33.916  37.916   8.770
 2536POPC   C2B35960  33.898  38.131   8.397
 2536POPC   C3B35961  33.993  37.952   8.040
 2536POPC   C4B35962  33.999  37.604   7.847
 2537POPC   NC335963  33.662  42.213   9.510
 2537POPC   PO435964  34.341  42.299   9.589
 2537POPC   GL135965  34.118  42.408   9.187
 2537POPC   GL235966  33.915  42.163   9.075
 2537POPC   C1A35967  33.969  42.550   8.765
 2537POPC   D2A35968  33.598  42.452   8.505
 2537POPC   C3A35969  33.655  42.397   8.038
 2537POPC   C4A35970  33.811  42.621   7.690
 2537POPC   C1B35971  33.898  41.982   8.706
 2537POPC   C2B35972  34.007  42.158   8.334
 2537POPC   C3B35973  34.024  41.974   7.928
 2537POPC   C4B35974  33.974  42.133   7.541
 2538POPC   NC335975  14.475   0.798   9.482
 2538POPC   PO435976  14.252   1.455   9.571
 2538POPC   GL135977  14.316   1.327   9.114
 2538POPC   GL235978  14.350   0.985   9.042
 2538POPC   C1A35979  14.532   1.362   8.694
 2538POPC   D2A35980  14.447   1.671   8.342
 2538POPC   C3A35981  14.577   1.567   7.958
 2538POPC   C4A35982  14.526   1.199   7.787
 2538POPC   C1B35983  14.186   0.982   8.650
 2538POPC   C2B35984  14.333   0.868   8.253
 2538POPC   C3B35985  14.145   0.894   7.868
 2538POPC   C4B35986  14.039   1.327   7.697
 2539POPC   NC335987  30.717  37.429   9.694
 2539POPC   PO435988  31.005  38.048   9.532
 2539POPC   GL135989  30.837  37.857   9.182
 2539POPC   GL235990  30.821  37.506   9.214
 2539POPC   C1A35991  30.912  37.698   8.776
 2539POPC   D2A35992  30.781  37.642   8.433
 2539POPC   C3A35993  31.038  37.509   8.084
 2539POPC   C4A35994  30.849  37.501   7.685
 2539POPC   C1B35995  30.536  37.363   8.853
 2539POPC   C2B35996  30.329  37.406   8.438
 2539POPC   C3B35997  30.487  37.427   8.037
 2539POPC   C4B35998  30.292  37.294   7.671
 2540POPC   NC335999  35.593  20.736   9.341
 2540POPC   PO436000  34.987  20.942   9.356
 2540POPC   GL136001  35.160  20.699   9.043
 2540POPC   GL236002  35.043  20.353   9.090
 2540POPC   C1A36003  35.309  20.704   8.635
 2540POPC   D2A36004  35.251  20.619   8.219
 2540POPC   C3A36005  35.455  20.838   7.906
 2540POPC   C4A36006  35.413  20.758   7.475
 2540POPC   C1B36007  35.379  20.216   8.797
 2540POPC   C2B36008  35.590  20.227   8.382
 2540POPC   C3B36009  35.557  20.298   7.935
 2540POPC   C4B36010  35.837  20.353   7.567
 2541POPC   NC336011  17.856  11.060   9.510
 2541POPC   PO436012  17.198  11.302   9.673
 2541POPC   GL136013  17.455  11.320   9.297
 2541POPC   GL236014  17.223  11.173   9.094
 2541POPC   C1A36015  17.618  11.577   8.961
 2541POPC   D2A36016  17.809  11.616   8.559
 2541POPC   C3A36017  17.629  11.685   8.157
 2541POPC   C4A36018  17.477  11.460   7.816
 2541POPC   C1B36019  17.457  11.140   8.674
 2541POPC   C2B36020  17.673  11.170   8.240
 2541POPC   C3B36021  17.593  10.926   7.842
 2541POPC   C4B36022  17.535  10.646   7.485
 2542POPC   NC336023  29.076  22.268   9.585
 2542POPC   PO436024  28.617  22.292   9.119
 2542POPC   GL136025  29.026  22.167   9.049
 2542POPC   GL236026  29.355  22.121   9.171
 2542POPC   C1A36027  29.251  22.391   8.739
 2542POPC   D2A36028  29.363  22.227   8.345
 2542POPC   C3A36029  29.079  22.131   8.018
 2542POPC   C4A36030  29.053  22.434   7.691
 2542POPC   C1B36031  29.469  21.935   8.778
 2542POPC   C2B36032  29.494  21.726   8.354
 2542POPC   C3B36033  29.622  21.963   7.981
 2542POPC   C4B36034  29.395  22.061   7.628
 2543POPC   NC336035  25.257  36.470   9.432
 2543POPC   PO436036  25.558  35.897   9.525
 2543POPC   GL136037  25.434  36.077   9.137
 2543POPC   GL236038  25.110  35.951   9.066
 2543POPC   C1A36039  25.497  36.020   8.687
 2543POPC   D2A36040  25.484  35.830   8.260
 2543POPC   C3A36041  25.409  36.070   7.876
 2543POPC   C4A36042  25.472  36.525   7.871
 2543POPC   C1B36043  24.998  36.144   8.675
 2543POPC   C2B36044  25.118  36.289   8.273
 2543POPC   C3B36045  24.878  36.203   7.927
 2543POPC   C4B36046  24.941  35.900   7.655
 2544POPC   NC336047  10.462  23.982   9.505
 2544POPC   PO436048  10.304  23.316   9.452
 2544POPC   GL136049  10.429  23.608   9.134
 2544POPC   GL236050  10.228  23.930   9.065
 2544POPC   C1A36051  10.721  23.659   8.802
 2544POPC   D2A36052  10.664  23.933   8.457
 2544POPC   C3A36053  10.761  23.814   8.051
 2544POPC   C4A36054  10.701  23.986   7.651
 2544POPC   C1B36055  10.211  23.732   8.673
 2544POPC   C2B36056  10.254  23.654   8.247
 2544POPC   C3B36057  10.253  23.824   7.846
 2544POPC   C4B36058  10.268  23.894   7.391
 2545POPC   NC336059  28.504  17.635   9.547
 2545POPC   PO436060  27.868  17.660   9.545
 2545POPC   GL136061  28.149  17.451   9.184
 2545POPC   GL236062  28.488  17.267   9.193
 2545POPC   C1A36063  28.322  17.508   8.740
 2545POPC   D2A36064  28.467  17.678   8.319
 2545POPC   C3A36065  28.287  17.674   7.865
 2545POPC   C4A36066  28.460  17.876   7.473
 2545POPC   C1B36067  28.668  17.145   8.793
 2545POPC   C2B36068  28.805  17.271   8.360
 2545POPC   C3B36069  28.581  17.270   7.980
 2545POPC   C4B36070  28.732  17.122   7.605
 2546POPC   NC336071  22.255  22.559   9.569
 2546POPC   PO436072  21.876  23.190   9.442
 2546POPC   GL136073  22.172  23.070   9.143
 2546POPC   GL236074  22.095  22.740   9.125
 2546POPC   C1A36075  22.446  23.175   8.811
 2546POPC   D2A36076  22.391  23.243   8.360
 2546POPC   C3A36077  22.301  22.916   8.051
 2546POPC   C4A36078  22.260  22.908   7.597
 2546POPC   C1B36079  22.068  22.817   8.695
 2546POPC   C2B36080  21.863  22.723   8.304
 2546POPC   C3B36081  21.893  22.640   7.886
 2546POPC   C4B36082  21.763  22.868   7.527
 2547POPC   NC336083  29.103   7.975   9.475
 2547POPC   PO436084  29.091   8.662   9.444
 2547POPC   GL136085  29.197   8.296   9.108
 2547POPC   GL236086  29.374   7.921   9.072
 2547POPC   C1A36087  28.966   8.149   8.729
 2547POPC   D2A36088  28.703   8.261   8.354
 2547POPC   C3A36089  28.921   8.118   7.996
 2547POPC   C4A36090  29.191   8.282   7.676
 2547POPC   C1B36091  29.492   8.025   8.714
 2547POPC   C2B36092  29.309   8.026   8.347
 2547POPC   C3B36093  29.362   7.857   7.977
 2547POPC   C4B36094  29.554   7.933   7.605
 2548POPC   NC336095  13.313  40.551   9.737
 2548POPC   PO436096  13.659  41.125   9.627
 2548POPC   GL136097  13.495  40.915   9.253
 2548POPC   GL236098  13.547  40.536   9.266
 2548POPC   C1A36099  13.554  40.819   8.800
 2548POPC   D2A36100  13.539  41.124   8.461
 2548POPC   C3A36101  13.476  40.960   8.056
 2548POPC   C4A36102  13.883  40.960   7.933
 2548POPC   C1B36103  13.252  40.387   8.949
 2548POPC   C2B36104  13.228  40.308   8.527
 2548POPC   C3B36105  13.569  40.462   8.281
 2548POPC   C4B36106  13.678  40.503   7.849
 2549POPC   NC336107  38.090  28.734   9.475
 2549POPC   PO436108  37.374  28.595   9.503
 2549POPC   GL136109  37.670  28.386   9.227
 2549POPC   GL236110  37.396  28.379   9.026
 2549POPC   C1A36111  37.900  28.537   8.841
 2549POPC   D2A36112  37.819  28.738   8.441
 2549POPC   C3A36113  37.882  28.522   8.054
 2549POPC   C4A36114  37.760  28.428   7.650
 2549POPC   C1B36115  37.617  28.136   8.758
 2549POPC   C2B36116  37.849  28.145   8.408
 2549POPC   C3B36117  37.757  28.015   7.991
 2549POPC   C4B36118  37.521  27.873   7.650
 2550POPC   NC336119  27.523  40.220   9.426
 2550POPC   PO436120  27.791  40.716   9.718
 2550POPC   GL136121  27.683  40.916   9.273
 2550POPC   GL236122  27.471  40.667   9.204
 2550POPC   C1A36123  27.525  40.946   8.801
 2550POPC   D2A36124  27.662  40.820   8.383
 2550POPC   C3A36125  27.832  41.098   8.056
 2550POPC   C4A36126  27.591  41.055   7.668
 2550POPC   C1B36127  27.191  40.519   8.884
 2550POPC   C2B36128  27.220  40.559   8.475
 2550POPC   C3B36129  27.246  40.706   8.070
 2550POPC   C4B36130  27.410  40.559   7.676
 2551POPC   NC336131  30.845  24.975   9.423
 2551POPC   PO436132  30.537  25.640   9.405
 2551POPC   GL136133  30.717  25.373   9.133
 2551POPC   GL236134  30.464  25.086   9.132
 2551POPC   C1A36135  30.871  25.147   8.768
 2551POPC   D2A36136  30.888  25.069   8.319
 2551POPC   C3A36137  30.619  25.332   8.092
 2551POPC   C4A36138  30.752  25.265   7.706
 2551POPC   C1B36139  30.334  24.833   8.774
 2551POPC   C2B36140  30.366  24.967   8.364
 2551POPC   C3B36141  30.201  25.054   7.960
 2551POPC   C4B36142  30.378  24.933   7.569
 2552POPC   NC336143   5.500  33.451   9.570
 2552POPC   PO436144   6.006  33.842   9.485
 2552POPC   GL136145   5.938  33.756   9.077
 2552POPC   GL236146   5.761  33.458   9.091
 2552POPC   C1A36147   5.935  33.906   8.647
 2552POPC   D2A36148   5.963  33.593   8.301
 2552POPC   C3A36149   6.314  33.522   7.982
 2552POPC   C4A36150   5.985  33.576   7.699
 2552POPC   C1B36151   5.515  33.654   8.785
 2552POPC   C2B36152   5.481  33.794   8.397
 2552POPC   C3B36153   5.766  34.036   8.162
 2552POPC   C4B36154   5.801  34.051   7.727
 2553POPC   NC336155  10.743   2.101   9.653
 2553POPC   PO436156  10.192   1.734   9.486
 2553POPC   GL136157  10.480   1.988   9.228
 2553POPC   GL236158  10.236   1.910   8.995
 2553POPC   C1A36159  10.661   2.111   8.796
 2553POPC   D2A36160  10.433   1.910   8.489
 2553POPC   C3A36161  10.471   1.916   8.064
 2553POPC   C4A36162  10.467   1.953   7.630
 2553POPC   C1B36163  10.095   1.594   8.699
 2553POPC   C2B36164  10.187   1.527   8.258
 2553POPC   C3B36165  10.080   1.659   7.842
 2553POPC   C4B36166  10.201   1.446   7.484
 2554POPC   NC336167  43.387  38.776   9.696
 2554POPC   PO436168  42.832  38.660   9.564
 2554POPC   GL136169  43.133  38.750   9.201
 2554POPC   GL236170  43.484  38.856   9.170
 2554POPC   C1A36171  43.126  38.874   8.748
 2554POPC   D2A36172  43.247  38.675   8.355
 2554POPC   C3A36173  42.944  38.562   8.025
 2554POPC   C4A36174  42.905  38.205   7.735
 2554POPC   C1B36175  43.475  38.517   8.830
 2554POPC   C2B36176  43.412  38.206   8.482
 2554POPC   C3B36177  43.357  38.256   8.018
 2554POPC   C4B36178  43.319  38.557   7.669
 2555POPC   NC336179   2.002  30.248   9.543
 2555POPC   PO436180   1.688  29.585   9.575
 2555POPC   GL136181   1.961  29.788   9.258
 2555POPC   GL236182   1.809  30.085   9.117
 2555POPC   C1A36183   2.141  29.816   8.830
 2555POPC   D2A36184   1.907  29.858   8.448
 2555POPC   C3A36185   2.105  29.706   8.068
 2555POPC   C4A36186   1.817  29.702   7.720
 2555POPC   C1B36187   1.950  30.300   8.756
 2555POPC   C2B36188   1.776  30.358   8.370
 2555POPC   C3B36189   1.849  30.154   7.987
 2555POPC   C4B36190   1.830  30.426   7.649
 2556POPC   NC336191   0.487  21.687   9.501
 2556POPC   PO436192   0.494  21.046   9.726
 2556POPC   GL136193   0.342  21.213   9.320
 2556POPC   GL236194   0.094  21.437   9.303
 2556POPC   C1A36195   0.501  21.366   8.922
 2556POPC   D2A36196   0.350  21.333   8.512
 2556POPC   C3A36197   0.576  21.562   8.204
 2556POPC   C4A36198   0.598  21.525   7.771
 2556POPC   C1B36199   0.005  21.556   8.900
 2556POPC   C2B36200  44.837  21.435   8.504
 2556POPC   C3B36201  44.954  21.399   8.064
 2556POPC   C4B36202   0.121  21.439   7.629
 2557POPC   NC336203  17.851  40.018   9.415
 2557POPC   PO436204  17.246  39.756   9.493
 2557POPC   GL136205  17.531  39.770   9.112
 2557POPC   GL236206  17.431  40.081   9.035
 2557POPC   C1A36207  17.779  39.811   8.677
 2557POPC   D2A36208  18.032  39.809   8.258
 2557POPC   C3A36209  17.752  39.829   7.884
 2557POPC   C4A36210  17.342  39.656   7.694
 2557POPC   C1B36211  17.426  40.253   8.627
 2557POPC   C2B36212  17.390  40.107   8.218
 2557POPC   C3B36213  17.388  40.167   7.797
 2557POPC   C4B36214  17.711  40.445   7.695
 2558POPC   NC336215  13.357  42.921   9.598
 2558POPC   PO436216  13.978  43.176   9.420
 2558POPC   GL136217  13.637  43.222   9.129
 2558POPC   GL236218  13.287  43.120   9.142
 2558POPC   C1A36219  13.548  43.042   8.707
 2558POPC   D2A36220  13.403  42.963   8.291
 2558POPC   C3A36221  13.760  42.967   7.995
 2558POPC   C4A36222  14.153  42.695   7.925
 2558POPC   C1B36223  13.237  43.443   8.836
 2558POPC   C2B36224  13.359  43.625   8.423
 2558POPC   C3B36225  13.377  43.413   8.031
 2558POPC   C4B36226  13.449  43.452   7.586
 2559POPC   NC336227  43.297  13.917   9.442
 2559POPC   PO436228  42.672  14.019   9.446
 2559POPC   GL136229  42.919  13.808   9.108
 2559POPC   GL236230  43.113  13.480   9.140
 2559POPC   C1A36231  43.179  13.887   8.748
 2559POPC   D2A36232  43.279  13.712   8.337
 2559POPC   C3A36233  43.019  13.809   7.971
 2559POPC   C4A36234  43.212  13.835   7.583
 2559POPC   C1B36235  42.997  13.411   8.706
 2559POPC   C2B36236  42.844  13.440   8.286
 2559POPC   C3B36237  43.029  13.299   7.893
 2559POPC   C4B36238  42.857  13.222   7.499
 2560POPC   NC336239  15.355  17.212   9.347
 2560POPC   PO436240  15.569  17.856   9.441
 2560POPC   GL136241  15.234  17.850   9.101
 2560POPC   GL236242  15.077  17.513   8.999
 2560POPC   C1A36243  15.144  17.897   8.647
 2560POPC   D2A36244  14.929  17.657   8.332
 2560POPC   C3A36245  15.135  17.649   7.911
 2560POPC   C4A36246  15.306  17.703   7.468
 2560POPC   C1B36247  14.909  17.187   8.683
 2560POPC   C2B36248  14.752  17.189   8.241
 2560POPC   C3B36249  15.070  17.138   7.875
 2560POPC   C4B36250  15.103  17.237   7.425
 2561POPC   NC336251  24.929  21.492   9.642
 2561POPC   PO436252  24.325  21.243   9.689
 2561POPC   GL136253  24.627  21.280   9.242
 2561POPC   GL236254  24.564  21.603   9.018
 2561POPC   C1A36255  24.593  21.168   8.741
 2561POPC   D2A36256  24.634  21.410   8.333
 2561POPC   C3A36257  24.575  21.225   7.910
 2561POPC   C4A36258  24.803  21.361   7.544
 2561POPC   C1B36259  24.238  21.519   8.676
 2561POPC   C2B36260  24.135  21.325   8.301
 2561POPC   C3B36261  24.160  21.586   7.951
 2561POPC   C4B36262  24.286  21.477   7.550
 2562POPC   NC336263  37.408  30.487   9.495
 2562POPC   PO436264  37.725  31.072   9.539
 2562POPC   GL136265  37.536  31.004   9.121
 2562POPC   GL236266  37.269  30.727   9.052
 2562POPC   C1A36267  37.671  31.009   8.702
 2562POPC   D2A36268  37.734  30.742   8.351
 2562POPC   C3A36269  37.627  30.909   7.921
 2562POPC   C4A36270  37.611  30.878   7.461
 2562POPC   C1B36271  37.154  30.452   8.682
 2562POPC   C2B36272  37.279  30.508   8.259
 2562POPC   C3B36273  37.196  30.373   7.859
 2562POPC   C4B36274  37.436  30.406   7.450
 2563POPC   NC336275  21.931  13.010   9.443
 2563POPC   PO436276  22.535  12.832   9.576
 2563POPC   GL136277  22.222  12.750   9.154
 2563POPC   GL236278  22.086  12.432   9.036
 2563POPC   C1A36279  22.327  12.748   8.701
 2563POPC   D2A36280  22.378  13.000   8.331
 2563POPC   C3A36281  22.284  12.887   7.890
 2563POPC   C4A36282  22.285  12.670   7.453
 2563POPC   C1B36283  21.832  12.767   8.792
 2563POPC   C2B36284  21.854  12.938   8.375
 2563POPC   C3B36285  21.810  12.763   7.942
 2563POPC   C4B36286  21.914  12.992   7.541
 2564POPC   NC336287  30.870  24.254   9.355
 2564POPC   PO436288  30.569  23.596   9.427
 2564POPC   GL136289  30.746  23.813   9.093
 2564POPC   GL236290  30.411  23.894   9.036
 2564POPC   C1A36291  30.833  23.668   8.691
 2564POPC   D2A36292  30.539  23.519   8.386
 2564POPC   C3A36293  30.602  23.633   7.954
 2564POPC   C4A36294  30.612  23.429   7.540
 2564POPC   C1B36295  30.377  23.952   8.616
 2564POPC   C2B36296  30.115  24.032   8.259
 2564POPC   C3B36297  30.164  23.962   7.827
 2564POPC   C4B36298  30.462  23.907   7.536
 2565POPC   NC336299   8.391   2.400   9.526
 2565POPC   PO436300   8.724   2.884   9.442
 2565POPC   GL136301   8.594   2.576   9.101
 2565POPC   GL236302   8.214   2.538   9.069
 2565POPC   C1A36303   8.506   2.469   8.668
 2565POPC   D2A36304   8.432   2.314   8.273
 2565POPC   C3A36305   8.178   2.582   8.016
 2565POPC   C4A36306   7.881   2.524   7.682
 2565POPC   C1B36307   8.133   2.829   8.709
 2565POPC   C2B36308   8.000   2.993   8.283
 2565POPC   C3B36309   8.038   3.035   7.811
 2565POPC   C4B36310   8.330   3.199   7.464
 2566POPC   NC336311  43.207   4.041   9.741
 2566POPC   PO436312  43.343   4.554   9.243
 2566POPC   GL136313  43.102   4.270   9.105
 2566POPC   GL236314  43.337   4.113   8.876
 2566POPC   C1A36315  42.889   4.330   8.752
 2566POPC   D2A36316  42.828   4.169   8.374
 2566POPC   C3A36317  43.124   4.319   8.073
 2566POPC   C4A36318  43.028   4.409   7.653
 2566POPC   C1B36319  43.681   4.303   8.718
 2566POPC   C2B36320  43.746   4.375   8.322
 2566POPC   C3B36321  43.636   4.230   7.943
 2566POPC   C4B36322  43.317   3.991   7.693
 2567POPC   NC336323  16.290   1.355   9.326
 2567POPC   PO436324  15.704   1.013   9.519
 2567POPC   GL136325  15.872   1.138   9.128
 2567POPC   GL236326  15.847   1.510   9.121
 2567POPC   C1A36327  16.100   0.965   8.757
 2567POPC   D2A36328  16.211   1.146   8.339
 2567POPC   C3A36329  16.018   1.128   7.938
 2567POPC   C4A36330  16.052   0.757   7.733
 2567POPC   C1B36331  15.999   1.458   8.707
 2567POPC   C2B36332  15.825   1.476   8.306
 2567POPC   C3B36333  15.789   1.682   7.893
 2567POPC   C4B36334  15.916   1.484   7.512
 2568POPC   NC336335  30.995  32.566   9.457
 2568POPC   PO436336  30.883  31.855   9.635
 2568POPC   GL136337  30.811  31.860   9.198
 2568POPC   GL236338  30.704  32.233   9.110
 2568POPC   C1A36339  30.637  31.845   8.766
 2568POPC   D2A36340  30.736  32.111   8.419
 2568POPC   C3A36341  30.511  32.097   8.021
 2568POPC   C4A36342  30.193  32.387   7.824
 2568POPC   C1B36343  30.942  32.458   8.766
 2568POPC   C2B36344  30.939  32.576   8.298
 2568POPC   C3B36345  30.774  32.547   7.841
 2568POPC   C4B36346  30.877  32.567   7.352
 2569POPC   NC336347   0.909  21.397   9.815
 2569POPC   PO436348   1.385  21.155   9.392
 2569POPC   GL136349   1.036  21.393   9.268
 2569POPC   GL236350   0.838  21.123   9.257
 2569POPC   C1A36351   1.018  21.554   8.834
 2569POPC   D2A36352   1.335  21.435   8.480
 2569POPC   C3A36353   1.327  21.612   8.045
 2569POPC   C4A36354   1.535  21.487   7.664
 2569POPC   C1B36355   0.885  21.030   8.825
 2569POPC   C2B36356   0.872  21.215   8.452
 2569POPC   C3B36357   0.899  21.119   8.048
 2569POPC   C4B36358   1.038  21.324   7.686
 2570POPC   NC336359  11.159   4.400   9.778
 2570POPC   PO436360  11.653   4.679   9.709
 2570POPC   GL136361  11.464   4.488   9.315
 2570POPC   GL236362  11.122   4.366   9.247
 2570POPC   C1A36363  11.561   4.265   8.925
 2570POPC   D2A36364  11.534   4.211   8.454
 2570POPC   C3A36365  11.365   4.433   8.089
 2570POPC   C4A36366  11.312   4.235   7.669
 2570POPC   C1B36367  11.083   4.361   8.757
 2570POPC   C2B36368  10.997   4.167   8.332
 2570POPC   C3B36369  10.885   4.320   7.919
 2570POPC   C4B36370  11.022   4.749   7.839
 2571POPC   NC336371   4.933  39.355   9.880
 2571POPC   PO436372   4.350  39.399   9.593
 2571POPC   GL136373   4.395  39.298   9.179
 2571POPC   GL236374   4.032  39.235   9.144
 2571POPC   C1A36375   4.366  39.080   8.778
 2571POPC   D2A36376   4.117  39.029   8.389
 2571POPC   C3A36377   4.356  39.058   7.982
 2571POPC   C4A36378   4.485  39.290   7.627
 2571POPC   C1B36379   4.006  39.512   8.800
 2571POPC   C2B36380   3.837  39.496   8.393
 2571POPC   C3B36381   3.901  39.317   8.015
 2571POPC   C4B36382   3.974  39.530   7.656
 2572POPC   NC336383  22.827  40.742   9.621
 2572POPC   PO436384  23.252  40.417   9.333
 2572POPC   GL136385  23.017  40.781   9.144
 2572POPC   GL236386  22.817  41.096   9.223
 2572POPC   C1A36387  22.887  40.827   8.730
 2572POPC   D2A36388  23.000  40.580   8.394
 2572POPC   C3A36389  22.745  40.643   8.057
 2572POPC   C4A36390  22.766  40.816   7.714
 2572POPC   C1B36391  22.639  41.251   8.818
 2572POPC   C2B36392  22.813  41.189   8.358
 2572POPC   C3B36393  22.568  41.225   7.964
 2572POPC   C4B36394  22.605  41.213   7.476
 2573POPC   NC336395  17.392  29.902   9.507
 2573POPC   PO436396  17.471  30.442   9.592
 2573POPC   GL136397  17.481  30.237   9.148
 2573POPC   GL236398  17.147  30.191   9.114
 2573POPC   C1A36399  17.464  29.959   8.736
 2573POPC   D2A36400  17.689  29.920   8.310
 2573POPC   C3A36401  17.487  29.909   7.877
 2573POPC   C4A36402  17.160  29.704   7.628
 2573POPC   C1B36403  17.059  30.247   8.675
 2573POPC   C2B36404  17.202  30.103   8.278
 2573POPC   C3B36405  17.105  30.251   7.861
 2573POPC   C4B36406  17.104  30.214   7.414
 2574POPC   NC336407  31.586  20.393   9.234
 2574POPC   PO436408  31.259  19.874   9.410
 2574POPC   GL136409  31.592  19.864   9.066
 2574POPC   GL236410  31.729  20.126   8.824
 2574POPC   C1A36411  31.615  19.656   8.667
 2574POPC   D2A36412  31.650  19.931   8.313
 2574POPC   C3A36413  31.598  19.726   7.944
 2574POPC   C4A36414  31.311  19.459   7.754
 2574POPC   C1B36415  31.280  20.062   8.713
 2574POPC   C2B36416  30.972  20.028   8.383
 2574POPC   C3B36417  31.157  20.024   7.947
 2574POPC   C4B36418  31.204  19.925   7.489
 2575POPC   NC336419  18.865  35.825   9.570
 2575POPC   PO436420  18.896  36.530   9.552
 2575POPC   GL136421  18.977  36.350   9.188
 2575POPC   GL236422  19.273  36.105   9.262
 2575POPC   C1A36423  18.860  36.041   8.882
 2575POPC   D2A36424  18.727  35.858   8.498
 2575POPC   C3A36425  18.911  36.054   8.156
 2575POPC   C4A36426  18.764  35.950   7.761
 2575POPC   C1B36427  19.341  36.281   8.847
 2575POPC   C2B36428  19.133  36.387   8.497
 2575POPC   C3B36429  19.295  36.432   8.093
 2575POPC   C4B36430  19.140  36.499   7.697
 2576POPC   NC336431  28.230  35.775   9.490
 2576POPC   PO436432  28.337  36.491   9.527
 2576POPC   GL136433  28.240  36.203   9.160
 2576POPC   GL236434  28.504  35.936   9.083
 2576POPC   C1A36435  28.144  36.053   8.711
 2576POPC   D2A36436  28.102  36.182   8.271
 2576POPC   C3A36437  28.371  36.120   7.970
 2576POPC   C4A36438  28.338  35.833   7.675
 2576POPC   C1B36439  28.601  36.294   8.812
 2576POPC   C2B36440  28.539  36.447   8.404
 2576POPC   C3B36441  28.799  36.376   8.066
 2576POPC   C4B36442  28.631  36.493   7.709
 2577POPC   NC336443  44.190   2.638   9.526
 2577POPC   PO436444  44.641   3.173   9.515
 2577POPC   GL136445  44.568   2.858   9.208
 2577POPC   GL236446  44.866   2.892   9.053
 2577POPC   C1A36447  44.598   2.530   8.849
 2577POPC   D2A36448  44.311   2.431   8.512
 2577POPC   C3A36449  44.447   2.435   8.073
 2577POPC   C4A36450  44.839   2.361   7.836
 2577POPC   C1B36451  44.497   3.026   8.739
 2577POPC   C2B36452  44.388   2.905   8.297
 2577POPC   C3B36453  44.751   2.863   7.996
 2577POPC   C4B36454  44.790   2.773   7.560
 2578POPC   NC336455  35.867  19.011   9.530
 2578POPC   PO436456  35.152  18.944   9.460
 2578POPC   GL136457  35.352  18.951   9.111
 2578POPC   GL236458  35.535  19.263   9.162
 2578POPC   C1A36459  35.301  18.754   8.715
 2578POPC   D2A36460  35.419  18.891   8.322
 2578POPC   C3A36461  35.260  19.253   8.094
 2578POPC   C4A36462  35.314  19.041   7.706
 2578POPC   C1B36463  35.455  19.256   8.720
 2578POPC   C2B36464  35.689  19.332   8.383
 2578POPC   C3B36465  35.786  19.170   8.015
 2578POPC   C4B36466  35.745  19.400   7.683
 2579POPC   NC336467  29.893  12.661   9.601
 2579POPC   PO436468  30.541  12.776   9.526
 2579POPC   GL136469  30.262  12.924   9.163
 2579POPC   GL236470  29.996  12.678   9.105
 2579POPC   C1A36471  30.055  13.020   8.746
 2579POPC   D2A36472  30.046  12.753   8.379
 2579POPC   C3A36473  30.093  12.969   8.032
 2579POPC   C4A36474  30.087  12.758   7.675
 2579POPC   C1B36475  29.753  12.575   8.740
 2579POPC   C2B36476  29.561  12.517   8.337
 2579POPC   C3B36477  29.676  12.697   7.971
 2579POPC   C4B36478  29.591  12.671   7.525
 2580POPC   NC336479   2.282   9.735   9.795
 2580POPC   PO436480   1.650   9.964   9.524
 2580POPC   GL136481   1.786   9.864   9.091
 2580POPC   GL236482   2.133   9.941   8.938
 2580POPC   C1A36483   1.779   9.756   8.635
 2580POPC   D2A36484   2.072   9.735   8.274
 2580POPC   C3A36485   1.851   9.901   7.940
 2580POPC   C4A36486   1.814   9.900   7.497
 2580POPC   C1B36487   2.254   9.520   8.703
 2580POPC   C2B36488   2.474   9.405   8.329
 2580POPC   C3B36489   2.464   9.596   7.934
 2580POPC   C4B36490   2.141   9.567   7.667
 2581POPC   NC336491  18.732  39.925   9.175
 2581POPC   PO436492  18.265  40.182   9.590
 2581POPC   GL136493  18.245  40.014   9.123
 2581POPC   GL236494  18.087  39.707   9.067
 2581POPC   C1A36495  18.241  40.052   8.685
 2581POPC   D2A36496  18.532  40.020   8.351
 2581POPC   C3A36497  18.330  40.123   7.966
 2581POPC   C4A36498  18.415  40.270   7.584
 2581POPC   C1B36499  18.411  39.577   8.725
 2581POPC   C2B36500  18.627  39.457   8.366
 2581POPC   C3B36501  18.516  39.641   8.010
 2581POPC   C4B36502  18.200  39.682   7.695
 2582POPC   NC336503  40.195   9.799   9.437
 2582POPC   PO436504  39.661   9.511   9.052
 2582POPC   GL136505  40.043   9.749   8.966
 2582POPC   GL236506  40.324   9.551   9.001
 2582POPC   C1A36507  40.199   9.919   8.598
 2582POPC   D2A36508  39.806   9.825   8.389
 2582POPC   C3A36509  39.793   9.860   7.976
 2582POPC   C4A36510  39.811   9.646   7.627
 2582POPC   C1B36511  40.325   9.422   8.597
 2582POPC   C2B36512  40.214   9.551   8.194
 2582POPC   C3B36513  40.294   9.669   7.782
 2582POPC   C4B36514  40.262   9.439   7.408
 2583POPC   NC336515  44.782   1.837   9.605
 2583POPC   PO436516  44.637   2.490   9.559
 2583POPC   GL136517  44.587   2.156   9.232
 2583POPC   GL236518  44.925   2.036   9.121
 2583POPC   C1A36519  44.529   2.029   8.792
 2583POPC   D2A36520  44.708   2.091   8.402
 2583POPC   C3A36521  44.635   1.916   8.044
 2583POPC   C4A36522  44.442   2.069   7.710
 2583POPC   C1B36523   0.067   1.856   8.703
 2583POPC   C2B36524  44.940   1.599   8.325
 2583POPC   C3B36525  44.998   1.559   7.879
 2583POPC   C4B36526  44.924   1.908   7.604
 2584POPC   NC336527  38.783  31.329   9.542
 2584POPC   PO436528  39.282  31.783   9.591
 2584POPC   GL136529  39.195  31.544   9.201
 2584POPC   GL236530  39.200  31.171   9.150
 2584POPC   C1A36531  39.354  31.456   8.764
 2584POPC   D2A36532  39.197  31.286   8.391
 2584POPC   C3A36533  39.506  31.389   8.100
 2584POPC   C4A36534  39.665  31.716   7.819
 2584POPC   C1B36535  38.985  30.988   8.765
 2584POPC   C2B36536  38.701  31.110   8.418
 2584POPC   C3B36537  38.897  31.047   8.010
 2584POPC   C4B36538  39.174  31.302   7.744
 2585POPC   NC336539  35.551  24.055   9.515
 2585POPC   PO436540  35.102  23.544   9.517
 2585POPC   GL136541  35.363  23.582   9.163
 2585POPC   GL236542  35.114  23.411   8.986
 2585POPC   C1A36543  35.482  23.753   8.759
 2585POPC   D2A36544  35.467  23.997   8.371
 2585POPC   C3A36545  35.459  23.817   7.999
 2585POPC   C4A36546  35.311  23.999   7.643
 2585POPC   C1B36547  35.010  23.867   8.891
 2585POPC   C2B36548  34.987  23.942   8.484
 2585POPC   C3B36549  35.024  23.621   8.180
 2585POPC   C4B36550  35.172  23.397   7.820
 2586POPC   NC336551  34.345  42.840   9.307
 2586POPC   PO436552  34.897  42.882   9.740
 2586POPC   GL136553  34.805  43.107   9.292
 2586POPC   GL236554  34.611  42.974   8.930
 2586POPC   C1A36555  34.972  43.282   8.920
 2586POPC   D2A36556  34.697  43.308   8.547
 2586POPC   C3A36557  34.815  43.475   8.143
 2586POPC   C4A36558  34.760  43.254   7.765
 2586POPC   C1B36559  34.410  42.872   8.566
 2586POPC   C2B36560  34.712  42.901   8.227
 2586POPC   C3B36561  34.645  42.721   7.859
 2586POPC   C4B36562  34.237  42.923   7.767
 2587POPC   NC336563  12.791  35.777   9.522
 2587POPC   PO436564  12.881  36.433   9.588
 2587POPC   GL136565  12.848  36.234   9.223
 2587POPC   GL236566  12.523  36.094   9.222
 2587POPC   C1A36567  12.979  36.247   8.803
 2587POPC   D2A36568  13.089  36.481   8.427
 2587POPC   C3A36569  13.037  36.204   8.096
 2587POPC   C4A36570  13.145  36.082   7.703
 2587POPC   C1B36571  12.472  36.033   8.806
 2587POPC   C2B36572  12.620  36.247   8.425
 2587POPC   C3B36573  12.530  36.151   8.010
 2587POPC   C4B36574  12.703  35.832   7.773
 2588POPC   NC336575  43.513   4.878   9.534
 2588POPC   PO436576  43.943   5.352   9.565
 2588POPC   GL136577  43.723   5.314   9.173
 2588POPC   GL236578  43.747   4.965   9.095
 2588POPC   C1A36579  43.809   5.319   8.709
 2588POPC   D2A36580  43.621   5.387   8.287
 2588POPC   C3A36581  43.870   5.228   7.959
 2588POPC   C4A36582  44.164   4.957   7.811
 2588POPC   C1B36583  43.617   4.823   8.706
 2588POPC   C2B36584  43.864   4.870   8.344
 2588POPC   C3B36585  43.690   4.745   7.961
 2588POPC   C4B36586  43.653   4.944   7.602
 2589POPC   NC336587  13.311  21.882   9.503
 2589POPC   PO436588  13.803  21.406   9.841
 2589POPC   GL136589  13.728  21.347   9.297
 2589POPC   GL236590  13.581  21.617   9.148
 2589POPC   C1A36591  13.730  21.264   8.823
 2589POPC   D2A36592  13.496  21.430   8.456
 2589POPC   C3A36593  13.640  21.376   8.027
 2589POPC   C4A36594  13.864  21.233   7.627
 2589POPC   C1B36595  13.766  21.768   8.765
 2589POPC   C2B36596  13.633  21.953   8.410
 2589POPC   C3B36597  13.501  21.910   7.990
 2589POPC   C4B36598  13.483  21.628   7.614
 2590POPC   NC336599  38.544  10.065   9.440
 2590POPC   PO436600  38.672  10.671   9.631
 2590POPC   GL136601  38.512  10.600   9.228
 2590POPC   GL236602  38.201  10.394   9.239
 2590POPC   C1A36603  38.516  10.392   8.822
 2590POPC   D2A36604  38.466  10.115   8.491
 2590POPC   C3A36605  38.419  10.307   8.107
 2590POPC   C4A36606  38.656  10.507   7.850
 2590POPC   C1B36607  38.050  10.203   8.814
 2590POPC   C2B36608  37.976  10.159   8.337
 2590POPC   C3B36609  37.954  10.469   7.979
 2590POPC   C4B36610  38.224  10.547   7.613
 2591POPC   NC336611  43.318  35.663   9.470
 2591POPC   PO436612  43.466  35.059   9.482
 2591POPC   GL136613  43.328  35.248   9.101
 2591POPC   GL236614  43.012  35.426   9.082
 2591POPC   C1A36615  43.324  35.258   8.653
 2591POPC   D2A36616  43.187  35.558   8.323
 2591POPC   C3A36617  43.085  35.446   7.892
 2591POPC   C4A36618  42.878  35.621   7.501
 2591POPC   C1B36619  42.814  35.281   8.671
 2591POPC   C2B36620  42.988  35.086   8.273
 2591POPC   C3B36621  43.406  35.071   8.066
 2591POPC   C4B36622  43.530  34.885   7.678
 2592POPC   NC336623   9.035   2.580   9.559
 2592POPC   PO436624   9.679   2.588   9.450
 2592POPC   GL136625   9.306   2.525   9.122
 2592POPC   GL236626   9.065   2.811   9.083
 2592POPC   C1A36627   9.020   2.462   8.741
 2592POPC   D2A36628   8.880   2.539   8.313
 2592POPC   C3A36629   8.977   2.645   7.871
 2592POPC   C4A36630   9.276   2.740   7.515
 2592POPC   C1B36631   8.733   2.922   8.750
 2592POPC   C2B36632   8.497   2.878   8.343
 2592POPC   C3B36633   8.535   2.912   7.888
 2592POPC   C4B36634   8.338   2.702   7.527
 2593POPC   NC336635  11.082  37.055   9.444
 2593POPC   PO436636  11.565  36.807   9.823
 2593POPC   GL136637  11.475  36.815   9.278
 2593POPC   GL236638  11.337  36.566   9.110
 2593POPC   C1A36639  11.331  36.983   8.815
 2593POPC   D2A36640  11.505  37.123   8.383
 2593POPC   C3A36641  11.314  37.006   7.984
 2593POPC   C4A36642  11.434  36.918   7.565
 2593POPC   C1B36643  11.157  36.450   8.729
 2593POPC   C2B36644  11.199  36.685   8.369
 2593POPC   C3B36645  10.890  36.691   8.073
 2593POPC   C4B36646  10.917  36.687   7.647
 2594POPC   NC336647   4.350   0.011   9.309
 2594POPC   PO436648   4.247   0.617   9.515
 2594POPC   GL136649   4.331   0.515   9.144
 2594POPC   GL236650   4.658   0.421   9.240
 2594POPC   C1A36651   4.256   0.338   8.739
 2594POPC   D2A36652   4.274   0.571   8.385
 2594POPC   C3A36653   4.319   0.362   8.014
 2594POPC   C4A36654   4.425   0.227   7.577
 2594POPC   C1B36655   4.721   0.527   8.812
 2594POPC   C2B36656   4.801   0.812   8.498
 2594POPC   C3B36657   4.665   0.735   8.081
 2594POPC   C4B36658   4.557   0.692   7.685
 2595POPC   NC336659  31.044  43.265   9.794
 2595POPC   PO436660  31.601  42.893   9.511
 2595POPC   GL136661  31.527  43.110   9.140
 2595POPC   GL236662  31.243  43.321   9.183
 2595POPC   C1A36663  31.728  43.019   8.750
 2595POPC   D2A36664  31.937  43.055   8.354
 2595POPC   C3A36665  31.615  43.022   8.030
 2595POPC   C4A36666  31.731  43.208   7.639
 2595POPC   C1B36667  31.209  43.154   8.743
 2595POPC   C2B36668  31.183  42.958   8.339
 2595POPC   C3B36669  31.110  43.162   7.939
 2595POPC   C4B36670  31.234  43.126   7.511
 2596POPC   NC336671  44.441   6.333   9.377
 2596POPC   PO436672  44.561   5.754   9.529
 2596POPC   GL136673  44.531   5.901   9.108
 2596POPC   GL236674  44.806   6.039   8.984
 2596POPC   C1A36675  44.416   5.957   8.664
 2596POPC   D2A36676  44.637   6.098   8.328
 2596POPC   C3A36677  44.491   6.059   7.931
 2596POPC   C4A36678  44.482   5.747   7.617
 2596POPC   C1B36679  44.837   5.697   8.721
 2596POPC   C2B36680  44.684   5.578   8.350
 2596POPC   C3B36681  44.872   5.697   7.973
 2596POPC   C4B36682  44.962   5.624   7.554
 2597POPC   NC336683  35.022  16.691   9.397
 2597POPC   PO436684  35.626  16.867   9.380
 2597POPC   GL136685  35.402  16.774   9.044
 2597POPC   GL236686  35.257  16.440   8.981
 2597POPC   C1A36687  35.315  16.811   8.640
 2597POPC   D2A36688  35.067  16.817   8.323
 2597POPC   C3A36689  35.339  16.978   8.084
 2597POPC   C4A36690  35.365  16.831   7.691
 2597POPC   C1B36691  35.575  16.376   8.679
 2597POPC   C2B36692  35.493  16.520   8.258
 2597POPC   C3B36693  35.544  16.387   7.873
 2597POPC   C4B36694  35.778  16.558   7.560
 2598POPC   NC336695   9.527  18.882   9.485
 2598POPC   PO436696  10.168  18.851   9.322
 2598POPC   GL136697   9.847  18.983   9.105
 2598POPC   GL236698  10.036  19.229   8.918
 2598POPC   C1A36699   9.570  19.033   8.774
 2598POPC   D2A36700   9.673  19.357   8.496
 2598POPC   C3A36701   9.425  19.293   8.132
 2598POPC   C4A36702   9.310  19.085   7.742
 2598POPC   C1B36703  10.019  18.864   8.640
 2598POPC   C2B36704   9.858  18.952   8.241
 2598POPC   C3B36705   9.683  18.782   7.881
 2598POPC   C4B36706   9.686  18.767   7.428
 2599POPC   NC336707  16.354   2.176   9.895
 2599POPC   PO436708  16.500   1.609   9.628
 2599POPC   GL136709  16.767   1.738   9.298
 2599POPC   GL236710  16.695   2.092   9.328
 2599POPC   C1A36711  16.901   1.952   8.886
 2599POPC   D2A36712  16.740   2.026   8.455
 2599POPC   C3A36713  16.776   1.820   8.043
 2599POPC   C4A36714  16.812   1.911   7.563
 2599POPC   C1B36715  16.453   2.206   8.898
 2599POPC   C2B36716  16.294   2.266   8.440
 2599POPC   C3B36717  16.484   2.234   8.022
 2599POPC   C4B36718  16.838   2.387   7.752
 2600POPC   NC336719  20.272  13.580   9.324
 2600POPC   PO436720  20.896  13.248   9.395
 2600POPC   GL136721  20.691  13.449   9.056
 2600POPC   GL236722  20.789  13.768   8.901
 2600POPC   C1A36723  20.525  13.425   8.652
 2600POPC   D2A36724  20.580  13.283   8.275
 2600POPC   C3A36725  20.623  13.604   7.976
 2600POPC   C4A36726  20.839  13.715   7.634
 2600POPC   C1B36727  20.435  13.927   8.622
 2600POPC   C2B36728  20.278  13.905   8.179
 2600POPC   C3B36729  20.407  14.039   7.712
 2600POPC   C4B36730  20.561  13.987   7.262
 2601POPC   NC336731  13.144  16.248   9.355
 2601POPC   PO436732  12.824  15.790   9.712
 2601POPC   GL136733  12.607  15.739   9.321
 2601POPC   GL236734  12.459  16.035   9.224
 2601POPC   C1A36735  12.550  15.679   8.866
 2601POPC   D2A36736  12.709  15.566   8.451
 2601POPC   C3A36737  12.636  15.791   8.049
 2601POPC   C4A36738  12.914  15.869   7.700
 2601POPC   C1B36739  12.671  16.204   8.832
 2601POPC   C2B36740  12.815  16.192   8.403
 2601POPC   C3B36741  13.057  16.182   8.059
 2601POPC   C4B36742  13.159  16.502   7.761
 2602POPC   NC336743  14.746  34.247   9.350
 2602POPC   PO436744  14.455  34.775   9.496
 2602POPC   GL136745  14.398  34.571   9.115
 2602POPC   GL236746  14.257  34.273   9.234
 2602POPC   C1A36747  14.649  34.536   8.733
 2602POPC   D2A36748  14.776  34.371   8.320
 2602POPC   C3A36749  14.582  34.579   7.976
 2602POPC   C4A36750  14.141  34.611   7.847
 2602POPC   C1B36751  14.263  34.180   8.798
 2602POPC   C2B36752  14.270  34.361   8.399
 2602POPC   C3B36753  14.335  34.145   8.024
 2602POPC   C4B36754  13.988  34.112   7.797
 2603POPC   NC336755  30.169  16.528   9.525
 2603POPC   PO436756  29.504  16.667   9.372
 2603POPC   GL136757  29.904  16.778   9.168
 2603POPC   GL236758  30.106  16.488   9.023
 2603POPC   C1A36759  30.057  16.924   8.758
 2603POPC   D2A36760  30.096  16.602   8.409
 2603POPC   C3A36761  30.039  16.720   7.978
 2603POPC   C4A36762  29.695  16.623   7.715
 2603POPC   C1B36763  30.311  16.218   8.728
 2603POPC   C2B36764  30.522  16.327   8.375
 2603POPC   C3B36765  30.304  16.186   8.043
 2603POPC   C4B36766  30.094  16.305   7.651
 2604POPC   NC336767   2.722  42.638   9.427
 2604POPC   PO436768   2.467  42.041   9.478
 2604POPC   GL136769   2.656  42.243   9.130
 2604POPC   GL236770   3.004  42.114   9.177
 2604POPC   C1A36771   2.531  42.574   8.785
 2604POPC   D2A36772   2.762  42.686   8.394
 2604POPC   C3A36773   2.527  42.715   7.990
 2604POPC   C4A36774   2.411  42.370   7.765
 2604POPC   C1B36775   2.983  42.338   8.759
 2604POPC   C2B36776   3.083  42.242   8.326
 2604POPC   C3B36777   2.931  42.346   7.903
 2604POPC   C4B36778   2.785  42.095   7.534
 2605POPC   NC336779  35.699  37.675   9.561
 2605POPC   PO436780  36.355  37.940   9.545
 2605POPC   GL136781  36.050  37.899   9.226
 2605POPC   GL236782  36.018  37.564   9.162
 2605POPC   C1A36783  35.992  37.876   8.760
 2605POPC   D2A36784  36.161  37.644   8.390
 2605POPC   C3A36785  36.033  37.821   8.001
 2605POPC   C4A36786  35.881  37.772   7.550
 2605POPC   C1B36787  35.916  37.368   8.751
 2605POPC   C2B36788  35.801  37.250   8.320
 2605POPC   C3B36789  35.984  37.309   7.908
 2605POPC   C4B36790  35.694  37.318   7.523
 2606POPC   NC336791  40.249  11.632   9.482
 2606POPC   PO436792  40.279  10.926   9.579
 2606POPC   GL136793  40.100  11.175   9.232
 2606POPC   GL236794  40.255  11.457   8.991
 2606POPC   C1A36795  39.870  11.127   8.852
 2606POPC   D2A36796  40.096  11.233   8.503
 2606POPC   C3A36797  39.962  11.229   8.104
 2606POPC   C4A36798  39.823  11.272   7.695
 2606POPC   C1B36799  40.395  11.627   8.622
 2606POPC   C2B36800  40.405  11.549   8.162
 2606POPC   C3B36801  40.256  11.538   7.703
 2606POPC   C4B36802  40.314  11.627   7.235
 2607POPC   NC336803  24.264  10.205   9.572
 2607POPC   PO436804  24.769  10.737   9.471
 2607POPC   GL136805  24.629  10.575   9.127
 2607POPC   GL236806  24.305  10.536   9.189
 2607POPC   C1A36807  24.512  10.540   8.711
 2607POPC   D2A36808  24.383  10.430   8.345
 2607POPC   C3A36809  24.498  10.589   7.964
 2607POPC   C4A36810  24.376  10.370   7.629
 2607POPC   C1B36811  24.078  10.735   8.869
 2607POPC   C2B36812  24.122  10.853   8.449
 2607POPC   C3B36813  23.997  10.728   8.047
 2607POPC   C4B36814  24.122  10.820   7.629
 2608POPC   NC336815  42.925  31.452   9.543
 2608POPC   PO436816  43.554  31.193   9.427
 2608POPC   GL136817  43.260  31.357   9.132
 2608POPC   GL236818  43.126  31.668   9.138
 2608POPC   C1A36819  43.053  31.364   8.714
 2608POPC   D2A36820  42.871  31.303   8.327
 2608POPC   C3A36821  43.098  31.147   8.003
 2608POPC   C4A36822  43.265  31.305   7.628
 2608POPC   C1B36823  43.078  31.860   8.761
 2608POPC   C2B36824  42.897  31.815   8.375
 2608POPC   C3B36825  43.021  31.696   8.003
 2608POPC   C4B36826  43.021  31.984   7.714
 2609POPC   NC336827  13.782  10.362   9.371
 2609POPC   PO436828  13.388  10.847   9.548
 2609POPC   GL136829  13.580  10.815   9.166
 2609POPC   GL236830  13.436  11.107   9.100
 2609POPC   C1A36831  13.628  10.597   8.782
 2609POPC   D2A36832  13.779  10.374   8.442
 2609POPC   C3A36833  13.671  10.473   8.017
 2609POPC   C4A36834  13.928  10.555   7.650
 2609POPC   C1B36835  13.224  10.920   8.795
 2609POPC   C2B36836  13.272  10.713   8.423
 2609POPC   C3B36837  13.318  10.860   8.045
 2609POPC   C4B36838  13.543  10.900   7.740
 2610POPC   NC336839   5.234  10.805   9.490
 2610POPC   PO436840   4.733  10.352   9.598
 2610POPC   GL136841   4.967  10.387   9.164
 2610POPC   GL236842   5.264  10.600   9.046
 2610POPC   C1A36843   5.063  10.334   8.696
 2610POPC   D2A36844   4.891  10.594   8.386
 2610POPC   C3A36845   5.035  10.612   7.933
 2610POPC   C4A36846   4.809  10.255   7.856
 2610POPC   C1B36847   5.281  10.821   8.664
 2610POPC   C2B36848   5.389  10.659   8.288
 2610POPC   C3B36849   5.255  10.232   8.193
 2610POPC   C4B36850   5.319  10.133   7.782
 2611POPC   NC336851  42.251  42.911   9.645
 2611POPC   PO436852  42.692  43.291   9.326
 2611POPC   GL136853  42.512  42.935   9.177
 2611POPC   GL236854  42.204  43.071   9.165
 2611POPC   C1A36855  42.367  42.713   8.813
 2611POPC   D2A36856  42.517  42.601   8.401
 2611POPC   C3A36857  42.467  42.865   8.015
 2611POPC   C4A36858  42.578  43.262   7.796
 2611POPC   C1B36859  42.202  43.227   8.778
 2611POPC   C2B36860  42.125  43.015   8.417
 2611POPC   C3B36861  42.149  43.269   8.115
 2611POPC   C4B36862  42.016  43.223   7.754
 2612POPC   NC336863  32.171  14.907   9.702
 2612POPC   PO436864  32.657  15.203   9.331
 2612POPC   GL136865  32.333  15.096   9.090
 2612POPC   GL236866  32.578  15.217   8.822
 2612POPC   C1A36867  32.120  15.069   8.688
 2612POPC   D2A36868  32.394  15.209   8.330
 2612POPC   C3A36869  32.180  15.171   7.939
 2612POPC   C4A36870  32.015  15.019   7.560
 2612POPC   C1B36871  32.295  15.551   8.731
 2612POPC   C2B36872  32.183  15.681   8.301
 2612POPC   C3B36873  32.469  15.591   7.949
 2612POPC   C4B36874  32.501  15.661   7.483
 2613POPC   NC336875  27.412  38.804   9.572
 2613POPC   PO436876  27.804  38.334   9.651
 2613POPC   GL136877  27.713  38.469   9.246
 2613POPC   GL236878  27.994  38.345   9.076
 2613POPC   C1A36879  27.459  38.461   8.863
 2613POPC   D2A36880  27.318  38.620   8.444
 2613POPC   C3A36881  27.451  38.439   8.036
 2613POPC   C4A36882  27.242  38.294   7.655
 2613POPC   C1B36883  27.933  38.534   8.676
 2613POPC   C2B36884  28.027  38.358   8.281
 2613POPC   C3B36885  27.926  38.480   7.870
 2613POPC   C4B36886  27.792  38.355   7.456
 2614POPC   NC336887  12.475  12.926   9.443
 2614POPC   PO436888  11.767  12.894   9.599
 2614POPC   GL136889  11.968  12.927   9.208
 2614POPC   GL236890  11.631  12.871   9.095
 2614POPC   C1A36891  12.155  12.940   8.784
 2614POPC   D2A36892  12.065  12.983   8.349
 2614POPC   C3A36893  12.249  13.273   8.090
 2614POPC   C4A36894  12.210  13.152   7.680
 2614POPC   C1B36895  11.660  12.863   8.658
 2614POPC   C2B36896  11.683  12.642   8.258
 2614POPC   C3B36897  11.991  12.476   7.993
 2614POPC   C4B36898  12.067  12.551   7.578
 2615POPC   NC336899  29.280  20.278   9.564
 2615POPC   PO436900  28.807  20.834   9.539
 2615POPC   GL136901  29.131  20.661   9.262
 2615POPC   GL236902  28.932  20.379   9.128
 2615POPC   C1A36903  29.310  20.533   8.855
 2615POPC   D2A36904  29.049  20.545   8.496
 2615POPC   C3A36905  29.196  20.725   8.091
 2615POPC   C4A36906  29.479  20.526   7.794
 2615POPC   C1B36907  28.608  20.332   8.803
 2615POPC   C2B36908  28.658  20.167   8.416
 2615POPC   C3B36909  29.023  20.157   8.168
 2615POPC   C4B36910  28.984  20.348   7.777
 2616POPC   NC336911  42.562  11.584   9.373
 2616POPC   PO436912  42.212  12.122   9.538
 2616POPC   GL136913  42.329  12.081   9.141
 2616POPC   GL236914  42.185  11.778   9.104
 2616POPC   C1A36915  42.372  12.234   8.725
 2616POPC   D2A36916  42.463  12.263   8.296
 2616POPC   C3A36917  42.278  12.114   7.948
 2616POPC   C4A36918  42.379  12.384   7.630
 2616POPC   C1B36919  42.424  11.712   8.754
 2616POPC   C2B36920  42.217  11.835   8.405
 2616POPC   C3B36921  41.838  11.849   8.197
 2616POPC   C4B36922  41.903  11.807   7.760
 2617POPC   NC336923  43.686   5.758   9.500
 2617POPC   PO436924  44.075   6.327   9.689
 2617POPC   GL136925  44.102   5.975   9.376
 2617POPC   GL236926  44.033   6.192   9.124
 2617POPC   C1A36927  44.074   5.709   8.959
 2617POPC   D2A36928  43.939   5.834   8.514
 2617POPC   C3A36929  43.954   5.717   8.067
 2617POPC   C4A36930  43.595   5.595   7.751
 2617POPC   C1B36931  44.071   6.315   8.726
 2617POPC   C2B36932  44.166   6.305   8.293
 2617POPC   C3B36933  43.991   6.203   7.889
 2617POPC   C4B36934  44.003   5.853   7.571
 2618POPC   NC336935   9.357  31.562   9.778
 2618POPC   PO436936   9.042  31.032   9.668
 2618POPC   GL136937   9.216  31.339   9.294
 2618POPC   GL236938   9.231  31.171   8.998
 2618POPC   C1A36939   9.130  31.651   8.880
 2618POPC   D2A36940   8.928  31.684   8.439
 2618POPC   C3A36941   9.179  31.580   8.053
 2618POPC   C4A36942   9.428  31.252   7.851
 2618POPC   C1B36943   8.786  31.264   8.778
 2618POPC   C2B36944   8.634  31.101   8.368
 2618POPC   C3B36945   8.805  31.177   7.950
 2618POPC   C4B36946   8.683  31.596   7.828
 2619POPC   NC336947  33.344   4.068   9.625
 2619POPC   PO436948  32.693   4.268   9.707
 2619POPC   GL136949  32.943   4.144   9.318
 2619POPC   GL236950  33.183   4.399   9.253
 2619POPC   C1A36951  33.095   4.012   8.907
 2619POPC   D2A36952  32.996   4.140   8.495
 2619POPC   C3A36953  33.162   4.061   8.081
 2619POPC   C4A36954  33.015   4.212   7.679
 2619POPC   C1B36955  33.282   4.484   8.800
 2619POPC   C2B36956  33.386   4.446   8.331
 2619POPC   C3B36957  33.353   4.566   7.844
 2619POPC   C4B36958  33.199   4.559   7.375
 2620POPC   NC336959  27.694  18.762   9.769
 2620POPC   PO436960  27.231  18.753   9.276
 2620POPC   GL136961  27.459  18.910   8.969
 2620POPC   GL236962  27.744  19.103   9.130
 2620POPC   C1A36963  27.298  18.911   8.581
 2620POPC   D2A36964  27.571  19.026   8.288
 2620POPC   C3A36965  27.493  18.815   7.909
 2620POPC   C4A36966  27.234  18.940   7.563
 2620POPC   C1B36967  27.912  19.082   8.721
 2620POPC   C2B36968  28.085  18.908   8.345
 2620POPC   C3B36969  27.937  19.082   7.938
 2620POPC   C4B36970  27.767  19.019   7.516
 2621POPC   NC336971  23.931  14.154  10.008
 2621POPC   PO436972  24.172  14.530   9.483
 2621POPC   GL136973  24.351  14.366   9.120
 2621POPC   GL236974  24.628  14.543   9.074
 2621POPC   C1A36975  24.546  14.113   8.809
 2621POPC   D2A36976  24.580  14.234   8.390
 2621POPC   C3A36977  24.473  14.127   7.990
 2621POPC   C4A36978  24.181  14.437   7.874
 2621POPC   C1B36979  24.639  14.674   8.686
 2621POPC   C2B36980  24.829  14.657   8.292
 2621POPC   C3B36981  24.672  14.595   7.913
 2621POPC   C4B36982  24.477  14.616   7.497
 2622POPC   NC336983  18.957  23.579   9.390
 2622POPC   PO436984  18.615  23.056   9.526
 2622POPC   GL136985  18.767  23.035   9.104
 2622POPC   GL236986  19.120  23.054   9.069
 2622POPC   C1A36987  18.793  23.275   8.724
 2622POPC   D2A36988  18.971  23.258   8.307
 2622POPC   C3A36989  18.955  23.077   7.881
 2622POPC   C4A36990  19.085  23.176   7.459
 2622POPC   C1B36991  19.087  22.870   8.641
 2622POPC   C2B36992  19.285  22.856   8.208
 2622POPC   C3B36993  19.370  22.821   7.727
 2622POPC   C4B36994  19.324  22.762   7.254
 2623POPC   NC336995  10.496  44.492   9.641
 2623POPC   PO436996  10.491  43.819   9.823
 2623POPC   GL136997  10.455  44.064   9.373
 2623POPC   GL236998  10.765  44.071   9.156
 2623POPC   C1A36999  10.367  44.042   8.886
 2623POPC   D2A37000  10.699  43.808   8.618
 2623POPC   C3A37001  10.597  43.860   8.181
 2623POPC   C4A37002  10.586  43.674   7.787
 2623POPC   C1B37003  10.810  44.284   8.737
 2623POPC   C2B37004  10.839  44.326   8.263
 2623POPC   C3B37005  10.705  44.206   7.799
 2623POPC   C4B37006  10.917  44.224   7.377
 2624POPC   NC337007  37.354  13.105   9.482
 2624POPC   PO437008  37.842  12.648   9.572
 2624POPC   GL137009  37.684  12.810   9.186
 2624POPC   GL237010  37.832  12.563   9.007
 2624POPC   C1A37011  37.440  12.879   8.797
 2624POPC   D2A37012  37.546  12.936   8.365
 2624POPC   C3A37013  37.272  12.897   8.028
 2624POPC   C4A37014  37.230  13.091   7.648
 2624POPC   C1B37015  37.764  12.509   8.572
 2624POPC   C2B37016  37.963  12.641   8.254
 2624POPC   C3B37017  37.872  12.817   7.867
 2624POPC   C4B37018  37.991  12.690   7.413
 2625POPC   NC337019  12.047  34.523   9.715
 2625POPC   PO437020  11.712  34.290   9.193
 2625POPC   GL137021  12.123  34.454   9.154
 2625POPC   GL237022  12.093  34.801   9.111
 2625POPC   C1A37023  12.298  34.480   8.730
 2625POPC   D2A37024  12.287  34.651   8.298
 2625POPC   C3A37025  11.974  34.494   8.007
 2625POPC   C4A37026  11.990  34.323   7.623
 2625POPC   C1B37027  12.251  35.010   8.704
 2625POPC   C2B37028  12.219  35.161   8.236
 2625POPC   C3B37029  12.246  34.885   7.823
 2625POPC   C4B37030  11.933  34.784   7.446
 2626POPC   NC337031  40.873   3.210   9.486
 2626POPC   PO437032  40.567   3.900   9.460
 2626POPC   GL137033  40.781   3.719   9.128
 2626POPC   GL237034  40.735   3.403   9.050
 2626POPC   C1A37035  41.046   3.709   8.767
 2626POPC   D2A37036  40.924   3.808   8.357
 2626POPC   C3A37037  40.944   3.540   8.003
 2626POPC   C4A37038  40.555   3.573   7.815
 2626POPC   C1B37039  40.786   3.240   8.657
 2626POPC   C2B37040  40.990   3.108   8.292
 2626POPC   C3B37041  40.750   3.031   7.940
 2626POPC   C4B37042  40.861   3.070   7.538
 2627POPC   NC337043  10.288  33.930   9.467
 2627POPC   PO437044  10.810  33.501   9.497
 2627POPC   GL137045  10.665  33.750   9.163
 2627POPC   GL237046  10.745  34.092   9.264
 2627POPC   C1A37047  10.318  33.833   8.830
 2627POPC   D2A37048  10.366  34.032   8.427
 2627POPC   C3A37049  10.588  33.717   8.201
 2627POPC   C4A37050  10.567  33.619   7.788
 2627POPC   C1B37051  10.742  34.108   8.806
 2627POPC   C2B37052  10.923  34.095   8.374
 2627POPC   C3B37053  10.765  34.145   7.959
 2627POPC   C4B37054  10.343  34.080   7.872
 2628POPC   NC337055   1.739  37.897   9.299
 2628POPC   PO437056   1.341  37.351   9.538
 2628POPC   GL137057   1.266  37.668   9.165
 2628POPC   GL237058   1.496  37.728   8.861
 2628POPC   C1A37059   1.161  38.083   8.927
 2628POPC   D2A37060   1.147  38.199   8.482
 2628POPC   C3A37061   1.154  37.813   8.226
 2628POPC   C4A37062   1.164  37.807   7.804
 2628POPC   C1B37063   1.619  37.440   8.538
 2628POPC   C2B37064   1.371  37.255   8.226
 2628POPC   C3B37065   1.342  37.350   7.805
 2628POPC   C4B37066   1.575  37.716   7.533
 2629POPC   NC337067   6.734  23.460   9.361
 2629POPC   PO437068   6.304  23.005   9.528
 2629POPC   GL137069   6.559  22.971   9.148
 2629POPC   GL237070   6.488  23.251   8.992
 2629POPC   C1A37071   6.865  22.690   8.902
 2629POPC   D2A37072   6.911  22.565   8.479
 2629POPC   C3A37073   6.525  22.580   8.249
 2629POPC   C4A37074   6.573  22.717   7.848
 2629POPC   C1B37075   6.759  23.132   8.673
 2629POPC   C2B37076   6.755  23.040   8.249
 2629POPC   C3B37077   6.653  23.215   7.844
 2629POPC   C4B37078   6.497  23.194   7.395
 2630POPC   NC337079  21.889   9.465   9.515
 2630POPC   PO437080  22.216  10.015   9.679
 2630POPC   GL137081  22.181   9.822   9.194
 2630POPC   GL237082  21.893   9.653   9.059
 2630POPC   C1A37083  22.379   9.893   8.746
 2630POPC   D2A37084  22.608   9.952   8.331
 2630POPC   C3A37085  22.395   9.858   7.975
 2630POPC   C4A37086  22.561   9.933   7.592
 2630POPC   C1B37087  21.793   9.995   8.787
 2630POPC   C2B37088  21.737  10.181   8.398
 2630POPC   C3B37089  21.910  10.038   8.004
 2630POPC   C4B37090  21.937   9.601   7.868
 2631POPC   NC337091  43.743  30.103   9.592
 2631POPC   PO437092  44.314  29.891   9.525
 2631POPC   GL137093  44.076  30.095   9.214
 2631POPC   GL237094  43.829  29.796   9.169
 2631POPC   C1A37095  43.842  30.175   8.820
 2631POPC   D2A37096  43.817  29.856   8.467
 2631POPC   C3A37097  43.863  29.964   8.024
 2631POPC   C4A37098  43.946  29.662   7.697
 2631POPC   C1B37099  44.144  29.755   8.846
 2631POPC   C2B37100  44.381  29.789   8.488
 2631POPC   C3B37101  44.329  29.717   8.067
 2631POPC   C4B37102  44.336  29.971   7.733
 2632POPC   NC337103  37.072  11.787   9.376
 2632POPC   PO437104  36.586  12.108   9.617
 2632POPC   GL137105  36.788  12.231   9.231
 2632POPC   GL237106  36.634  11.931   9.128
 2632POPC   C1A37107  36.973  12.100   8.809
 2632POPC   D2A37108  36.870  12.125   8.410
 2632POPC   C3A37109  37.132  11.975   8.051
 2632POPC   C4A37110  37.339  12.168   7.714
 2632POPC   C1B37111  36.501  11.830   8.722
 2632POPC   C2B37112  36.386  12.026   8.315
 2632POPC   C3B37113  36.624  12.167   7.956
 2632POPC   C4B37114  36.829  12.115   7.557
 2633POPC   NC337115  33.578  38.656   9.477
 2633POPC   PO437116  34.201  38.841   9.411
 2633POPC   GL137117  33.939  38.695   9.067
 2633POPC   GL237118  33.592  38.783   8.995
 2633POPC   C1A37119  34.114  38.483   8.718
 2633POPC   D2A37120  34.271  38.645   8.366
 2633POPC   C3A37121  34.115  38.462   8.041
 2633POPC   C4A37122  34.002  38.285   7.682
 2633POPC   C1B37123  33.610  38.380   8.762
 2633POPC   C2B37124  33.444  38.357   8.366
 2633POPC   C3B37125  33.605  38.418   7.985
 2633POPC   C4B37126  33.500  38.209   7.611
 2634POPC   NC337127  15.381  16.725  10.221
 2634POPC   PO437128  15.024  16.726   9.754
 2634POPC   GL137129  15.254  16.683   9.327
 2634POPC   GL237130  14.964  16.710   9.176
 2634POPC   C1A37131  15.333  16.706   8.819
 2634POPC   D2A37132  15.471  16.648   8.343
 2634POPC   C3A37133  15.251  16.644   7.930
 2634POPC   C4A37134  15.366  16.806   7.519
 2634POPC   C1B37135  14.818  16.675   8.786
 2634POPC   C2B37136  14.959  16.732   8.370
 2634POPC   C3B37137  14.748  16.754   7.980
 2634POPC   C4B37138  14.867  16.759   7.568
 2635POPC   NC337139  27.459  13.403   9.645
 2635POPC   PO437140  27.328  14.063   9.473
 2635POPC   GL137141  27.653  13.729   9.283
 2635POPC   GL237142  27.601  13.399   9.158
 2635POPC   C1A37143  27.727  13.706   8.799
 2635POPC   D2A37144  27.955  13.747   8.411
 2635POPC   C3A37145  27.697  13.666   8.039
 2635POPC   C4A37146  27.568  13.973   7.757
 2635POPC   C1B37147  27.401  13.281   8.747
 2635POPC   C2B37148  27.553  13.226   8.322
 2635POPC   C3B37149  27.338  13.246   7.920
 2635POPC   C4B37150  27.040  13.253   7.574
 2636POPC   NC337151  13.962  39.902   9.384
 2636POPC   PO437152  13.223  40.131   9.543
 2636POPC   GL137153  13.500  39.999   9.202
 2636POPC   GL237154  13.498  39.650   9.087
 2636POPC   C1A37155  13.643  40.087   8.788
 2636POPC   D2A37156  13.523  39.921   8.405
 2636POPC   C3A37157  13.705  40.020   8.038
 2636POPC   C4A37158  13.607  40.042   7.631
 2636POPC   C1B37159  13.831  39.611   8.762
 2636POPC   C2B37160  14.006  39.827   8.442
 2636POPC   C3B37161  14.154  39.808   8.058
 2636POPC   C4B37162  13.990  39.674   7.682
 2637POPC   NC337163  15.184  39.625   9.515
 2637POPC   PO437164  15.128  40.345   9.549
 2637POPC   GL137165  15.308  40.251   9.182
 2637POPC   GL237166  15.077  39.978   9.141
 2637POPC   C1A37167  15.150  40.299   8.771
 2637POPC   D2A37168  14.985  40.061   8.425
 2637POPC   C3A37169  15.084  40.228   8.036
 2637POPC   C4A37170  14.905  40.149   7.702
 2637POPC   C1B37171  15.386  39.824   8.855
 2637POPC   C2B37172  15.325  39.657   8.457
 2637POPC   C3B37173  15.178  39.711   8.056
 2637POPC   C4B37174  15.240  39.763   7.635
 2638POPC   NC337175  34.825   2.518   9.372
 2638POPC   PO437176  34.921   3.058   9.649
 2638POPC   GL137177  34.620   2.986   9.261
 2638POPC   GL237178  34.363   2.694   9.200
 2638POPC   C1A37179  34.460   3.114   8.846
 2638POPC   D2A37180  34.581   2.978   8.429
 2638POPC   C3A37181  34.302   2.994   8.092
 2638POPC   C4A37182  34.521   2.949   7.712
 2638POPC   C1B37183  34.552   2.584   8.794
 2638POPC   C2B37184  34.682   2.447   8.408
 2638POPC   C3B37185  34.564   2.560   8.034
 2638POPC   C4B37186  34.573   2.394   7.645
 2639POPC   NC337187  19.040  34.889   9.338
 2639POPC   PO437188  19.244  35.541   9.536
 2639POPC   GL137189  18.953  35.406   9.240
 2639POPC   GL237190  19.215  35.263   9.027
 2639POPC   C1A37191  18.804  35.482   8.836
 2639POPC   D2A37192  19.009  35.411   8.465
 2639POPC   C3A37193  18.814  35.533   8.089
 2639POPC   C4A37194  19.023  35.483   7.715
 2639POPC   C1B37195  19.397  34.915   8.795
 2639POPC   C2B37196  19.320  34.853   8.377
 2639POPC   C3B37197  19.278  35.174   8.073
 2639POPC   C4B37198  19.371  35.099   7.677
 2640POPC   NC337199   6.145  42.523   9.485
 2640POPC   PO437200   6.754  42.318   9.589
 2640POPC   GL137201   6.761  42.355   9.163
 2640POPC   GL237202   6.455  42.503   9.095
 2640POPC   C1A37203   6.747  42.194   8.734
 2640POPC   D2A37204   6.466  42.093   8.398
 2640POPC   C3A37205   6.636  42.065   7.966
 2640POPC   C4A37206   6.905  42.403   7.790
 2640POPC   C1B37207   6.285  42.492   8.700
 2640POPC   C2B37208   6.505  42.622   8.345
 2640POPC   C3B37209   6.389  42.552   7.967
 2640POPC   C4B37210   6.382  42.367   7.614
 2641POPC   NC337211   1.237  33.426   9.618
 2641POPC   PO437212   1.682  33.904   9.464
 2641POPC   GL137213   1.247  33.849   9.205
 2641POPC   GL237214   1.116  33.510   9.141
 2641POPC   C1A37215   1.008  33.790   8.764
 2641POPC   D2A37216   1.034  33.497   8.414
 2641POPC   C3A37217   1.031  33.722   8.041
 2641POPC   C4A37218   1.168  33.681   7.654
 2641POPC   C1B37219   1.470  33.523   8.856
 2641POPC   C2B37220   1.510  33.325   8.467
 2641POPC   C3B37221   1.514  33.495   8.089
 2641POPC   C4B37222   1.538  33.337   7.715
 2642POPC   NC337223  13.765  34.415   9.449
 2642POPC   PO437224  13.701  34.976   9.422
 2642POPC   GL137225  13.932  34.822   9.083
 2642POPC   GL237226  13.887  34.481   8.967
 2642POPC   C1A37227  13.788  34.833   8.648
 2642POPC   D2A37228  13.803  34.552   8.309
 2642POPC   C3A37229  13.613  34.713   7.933
 2642POPC   C4A37230  13.735  34.700   7.496
 2642POPC   C1B37231  13.449  34.484   8.810
 2642POPC   C2B37232  13.326  34.340   8.409
 2642POPC   C3B37233  13.519  34.211   8.042
 2642POPC   C4B37234  13.497  34.117   7.615
 2643POPC   NC337235  17.549  44.340   9.420
 2643POPC   PO437236  17.759  44.986   9.530
 2643POPC   GL137237  17.631  44.803   9.158
 2643POPC   GL237238  17.883  44.540   9.066
 2643POPC   C1A37239  17.400  44.779   8.763
 2643POPC   D2A37240  17.249  44.408   8.508
 2643POPC   C3A37241  17.342  44.403   8.057
 2643POPC   C4A37242  17.233  44.803   7.828
 2643POPC   C1B37243  17.779  44.480   8.621
 2643POPC   C2B37244  17.625  44.771   8.290
 2643POPC   C3B37245  17.747  44.703   7.878
 2643POPC   C4B37246  17.884  44.299   7.801
 2644POPC   NC337247  30.078  19.861   9.686
 2644POPC   PO437248  29.550  19.445   9.542
 2644POPC   GL137249  29.749  19.678   9.178
 2644POPC   GL237250  30.066  19.830   9.192
 2644POPC   C1A37251  29.712  19.868   8.793
 2644POPC   D2A37252  29.585  20.154   8.487
 2644POPC   C3A37253  29.657  19.897   8.126
 2644POPC   C4A37254  29.793  19.845   7.690
 2644POPC   C1B37255  30.219  19.738   8.811
 2644POPC   C2B37256  30.086  19.923   8.433
 2644POPC   C3B37257  30.171  19.868   8.037
 2644POPC   C4B37258  30.301  19.831   7.628
 2645POPC   NC337259   8.883  24.037   9.428
 2645POPC   PO437260   9.389  23.543   9.504
 2645POPC   GL137261   9.145  23.685   9.172
 2645POPC   GL237262   9.311  24.011   9.103
 2645POPC   C1A37263   8.912  23.486   8.829
 2645POPC   D2A37264   8.783  23.314   8.429
 2645POPC   C3A37265   9.046  23.415   8.083
 2645POPC   C4A37266   9.032  23.481   7.674
 2645POPC   C1B37267   9.057  23.978   8.752
 2645POPC   C2B37268   8.951  23.833   8.360
 2645POPC   C3B37269   8.843  23.887   7.930
 2645POPC   C4B37270   9.266  23.903   7.787
 2646POPC   NC337271  22.033  25.208   9.559
 2646POPC   PO437272  22.675  25.113   9.666
 2646POPC   GL137273  22.437  25.269   9.235
 2646POPC   GL237274  22.065  25.183   9.063
 2646POPC   C1A37275  22.358  25.467   8.802
 2646POPC   D2A37276  22.095  25.393   8.424
 2646POPC   C3A37277  22.213  25.422   8.011
 2646POPC   C4A37278  22.435  25.056   7.844
 2646POPC   C1B37279  21.827  25.543   8.827
 2646POPC   C2B37280  21.627  25.595   8.372
 2646POPC   C3B37281  21.695  25.394   7.973
 2646POPC   C4B37282  21.910  25.481   7.579
 2647POPC   NC337283  11.633   7.182   9.652
 2647POPC   PO437284  11.128   7.465   9.680
 2647POPC   GL137285  11.375   7.520   9.274
 2647POPC   GL237286  11.652   7.797   9.240
 2647POPC   C1A37287  11.116   7.461   8.866
 2647POPC   D2A37288  10.875   7.539   8.463
 2647POPC   C3A37289  11.011   7.336   8.073
 2647POPC   C4A37290  11.390   7.426   7.828
 2647POPC   C1B37291  11.493   7.768   8.803
 2647POPC   C2B37292  11.390   7.607   8.384
 2647POPC   C3B37293  11.570   7.845   8.052
 2647POPC   C4B37294  11.748   7.814   7.615
 2648POPC   NC337295  24.875  38.368   9.266
 2648POPC   PO437296  25.460  38.286   9.558
 2648POPC   GL137297  25.355  38.451   9.127
 2648POPC   GL237298  25.536  38.752   9.050
 2648POPC   C1A37299  25.226  38.271   8.706
 2648POPC   D2A37300  25.030  38.137   8.302
 2648POPC   C3A37301  25.269  38.213   7.941
 2648POPC   C4A37302  25.343  38.482   7.556
 2648POPC   C1B37303  25.184  38.784   8.769
 2648POPC   C2B37304  25.005  38.660   8.383
 2648POPC   C3B37305  25.236  38.732   8.027
 2648POPC   C4B37306  25.153  38.947   7.672
 2649POPC   NC337307  19.938   1.542   9.274
 2649POPC   PO437308  19.975   0.819   9.261
 2649POPC   GL137309  19.883   1.124   8.996
 2649POPC   GL237310  19.573   1.108   9.156
 2649POPC   C1A37311  19.969   1.393   8.628
 2649POPC   D2A37312  19.947   1.300   8.205
 2649POPC   C3A37313  19.692   0.990   8.049
 2649POPC   C4A37314  19.896   1.111   7.691
 2649POPC   C1B37315  19.449   1.050   8.751
 2649POPC   C2B37316  19.495   1.339   8.435
 2649POPC   C3B37317  19.437   1.431   8.020
 2649POPC   C4B37318  19.410   1.241   7.606
 2650POPC   NC337319  34.209  38.358   9.350
 2650POPC   PO437320  34.890  38.462   9.440
 2650POPC   GL137321  34.654  38.505   9.108
 2650POPC   GL237322  34.746  38.142   9.038
 2650POPC   C1A37323  34.645  38.505   8.682
 2650POPC   D2A37324  34.805  38.457   8.295
 2650POPC   C3A37325  34.601  38.669   7.979
 2650POPC   C4A37326  34.394  38.573   7.617
 2650POPC   C1B37327  34.418  38.042   8.752
 2650POPC   C2B37328  34.403  38.129   8.326
 2650POPC   C3B37329  34.506  38.146   7.899
 2650POPC   C4B37330  34.362  37.882   7.577
 2651POPC   NC337331  23.297  17.006   9.324
 2651POPC   PO437332  23.252  16.345   9.347
 2651POPC   GL137333  23.081  16.358   8.954
 2651POPC   GL237334  23.044  16.717   8.960
 2651POPC   C1A37335  22.899  16.461   8.549
 2651POPC   D2A37336  22.935  16.813   8.262
 2651POPC   C3A37337  23.084  16.709   7.866
 2651POPC   C4A37338  22.754  16.456   7.814
 2651POPC   C1B37339  23.263  17.000   8.655
 2651POPC   C2B37340  23.238  17.217   8.250
 2651POPC   C3B37341  23.011  17.202   7.842
 2651POPC   C4B37342  23.161  17.018   7.436
 2652POPC   NC337343   2.117  37.420   9.472
 2652POPC   PO437344   2.200  38.072   9.372
 2652POPC   GL137345   2.163  37.778   9.048
 2652POPC   GL237346   2.241  37.428   8.986
 2652POPC   C1A37347   2.066  37.919   8.675
 2652POPC   D2A37348   2.418  38.004   8.419
 2652POPC   C3A37349   2.379  37.965   7.996
 2652POPC   C4A37350   1.992  37.955   7.767
 2652POPC   C1B37351   2.197  37.400   8.563
 2652POPC   C2B37352   2.052  37.657   8.246
 2652POPC   C3B37353   1.726  37.603   8.024
 2652POPC   C4B37354   1.829  37.317   7.717
 2653POPC   NC337355  19.676  38.626   9.540
 2653POPC   PO437356  20.294  38.217   9.613
 2653POPC   GL137357  20.044  38.358   9.264
 2653POPC   GL237358  19.959  38.074   9.152
 2653POPC   C1A37359  19.809  38.568   8.897
 2653POPC   D2A37360  19.739  38.791   8.485
 2653POPC   C3A37361  19.930  38.730   8.062
 2653POPC   C4A37362  19.763  38.821   7.664
 2653POPC   C1B37363  19.834  38.081   8.746
 2653POPC   C2B37364  19.937  38.336   8.402
 2653POPC   C3B37365  19.885  38.220   7.986
 2653POPC   C4B37366  19.917  37.959   7.633
 2654POPC   NC337367   5.089  10.012   9.520
 2654POPC   PO437368   5.464   9.380   9.628
 2654POPC   GL137369   5.277   9.659   9.205
 2654POPC   GL237370   5.380  10.038   9.086
 2654POPC   C1A37371   4.964   9.818   8.831
 2654POPC   D2A37372   4.862   9.622   8.404
 2654POPC   C3A37373   5.020   9.785   8.000
 2654POPC   C4A37374   4.936   9.847   7.560
 2654POPC   C1B37375   5.411   9.970   8.639
 2654POPC   C2B37376   5.380   9.634   8.339
 2654POPC   C3B37377   5.505   9.565   7.927
 2654POPC   C4B37378   5.428   9.707   7.528
 2655POPC   NC337379  31.920  42.533   9.450
 2655POPC   PO437380  32.474  42.246   9.707
 2655POPC   GL137381  32.409  42.408   9.284
 2655POPC   GL237382  32.203  42.131   9.223
 2655POPC   C1A37383  32.211  42.543   8.865
 2655POPC   D2A37384  32.280  42.677   8.435
 2655POPC   C3A37385  32.245  42.388   8.085
 2655POPC   C4A37386  32.284  42.417   7.663
 2655POPC   C1B37387  32.030  42.048   8.825
 2655POPC   C2B37388  31.968  42.120   8.425
 2655POPC   C3B37389  31.940  41.945   8.042
 2655POPC   C4B37390  32.127  41.926   7.686
 2656POPC   NC337391  11.603  21.343   9.524
 2656POPC   PO437392  12.267  21.139   9.462
 2656POPC   GL137393  12.163  21.405   9.122
 2656POPC   GL237394  11.818  21.370   9.074
 2656POPC   C1A37395  12.289  21.558   8.719
 2656POPC   D2A37396  12.272  21.397   8.295
 2656POPC   C3A37397  12.350  21.659   7.906
 2656POPC   C4A37398  12.171  21.756   7.505
 2656POPC   C1B37399  11.836  21.330   8.656
 2656POPC   C2B37400  11.735  21.490   8.248
 2656POPC   C3B37401  11.951  21.353   7.890
 2656POPC   C4B37402  12.336  21.122   7.851
 2657POPC   NC337403   0.021   7.139   9.496
 2657POPC   PO437404  44.424   7.555   9.608
 2657POPC   GL137405  44.583   7.345   9.278
 2657POPC   GL237406  44.842   7.567   9.223
 2657POPC   C1A37407  44.447   7.286   8.850
 2657POPC   D2A37408  44.371   7.554   8.501
 2657POPC   C3A37409  44.438   7.424   8.083
 2657POPC   C4A37410  44.495   7.706   7.761
 2657POPC   C1B37411  44.960   7.425   8.833
 2657POPC   C2B37412   0.140   7.206   8.484
 2657POPC   C3B37413  44.961   7.390   8.143
 2657POPC   C4B37414  44.962   7.477   7.744
 2658POPC   NC337415   9.893  13.898   9.565
 2658POPC   PO437416  10.166  13.311   9.548
 2658POPC   GL137417   9.860  13.489   9.225
 2658POPC   GL237418   9.979  13.810   9.082
 2658POPC   C1A37419   9.587  13.613   8.843
 2658POPC   D2A37420   9.789  13.654   8.443
 2658POPC   C3A37421   9.508  13.681   8.118
 2658POPC   C4A37422   9.593  13.719   7.716
 2658POPC   C1B37423   9.917  14.085   8.727
 2658POPC   C2B37424  10.150  14.089   8.363
 2658POPC   C3B37425  10.024  13.882   7.992
 2658POPC   C4B37426   9.977  13.978   7.548
 2659POPC   NC337427  44.481   6.366   9.901
 2659POPC   PO437428  44.955   6.205   9.433
 2659POPC   GL137429  44.801   6.535   9.125
 2659POPC   GL237430  44.612   6.831   9.182
 2659POPC   C1A37431  44.603   6.456   8.737
 2659POPC   D2A37432  44.854   6.556   8.397
 2659POPC   C3A37433  44.581   6.571   8.106
 2659POPC   C4A37434  44.726   6.521   7.742
 2659POPC   C1B37435  44.805   6.925   8.776
 2659POPC   C2B37436  44.661   7.033   8.349
 2659POPC   C3B37437  44.747   7.012   7.877
 2659POPC   C4B37438  44.840   7.106   7.414
 2660POPC   NC337439  43.334  41.888   9.734
 2660POPC   PO437440  42.853  41.453   9.545
 2660POPC   GL137441  43.155  41.615   9.283
 2660POPC   GL237442  43.420  41.347   9.301
 2660POPC   C1A37443  43.043  41.715   8.856
 2660POPC   D2A37444  43.244  41.684   8.463
 2660POPC   C3A37445  43.017  41.773   8.100
 2660POPC   C4A37446  42.742  41.709   7.748
 2660POPC   C1B37447  43.456  41.356   8.844
 2660POPC   C2B37448  43.626  41.359   8.422
 2660POPC   C3B37449  43.502  41.155   8.065
 2660POPC   C4B37450  43.109  41.335   7.852
 2661POPC   NC337451  31.959  33.808   9.641
 2661POPC   PO437452  31.745  34.337   9.333
 2661POPC   GL137453  32.026  33.938   9.146
 2661POPC   GL237454  32.205  33.584   9.197
 2661POPC   C1A37455  32.113  33.840   8.736
 2661POPC   D2A37456  31.983  33.945   8.338
 2661POPC   C3A37457  31.855  33.594   8.122
 2661POPC   C4A37458  32.120  33.602   7.815
 2661POPC   C1B37459  32.480  33.518   8.817
 2661POPC   C2B37460  32.317  33.533   8.375
 2661POPC   C3B37461  32.574  33.495   8.039
 2661POPC   C4B37462  32.721  33.747   7.758
 2662POPC   NC337463  12.794  10.228   9.443
 2662POPC   PO437464  12.612  10.848   9.509
 2662POPC   GL137465  12.857  10.770   9.133
 2662POPC   GL237466  13.143  10.547   9.158
 2662POPC   C1A37467  12.802  10.627   8.724
 2662POPC   D2A37468  12.858  10.424   8.364
 2662POPC   C3A37469  12.832  10.721   8.084
 2662POPC   C4A37470  12.629  10.589   7.772
 2662POPC   C1B37471  13.204  10.303   8.754
 2662POPC   C2B37472  13.305  10.208   8.303
 2662POPC   C3B37473  13.159  10.396   7.893
 2662POPC   C4B37474  13.394  10.473   7.505
 2663POPC   NC337475  29.659  34.861   9.364
 2663POPC   PO437476  29.908  34.281   9.479
 2663POPC   GL137477  30.102  34.452   9.111
 2663POPC   GL237478  30.436  34.292   9.026
 2663POPC   C1A37479  30.080  34.776   8.766
 2663POPC   D2A37480  30.277  34.785   8.323
 2663POPC   C3A37481  29.925  34.775   8.000
 2663POPC   C4A37482  29.580  34.777   7.681
 2663POPC   C1B37483  30.269  34.315   8.641
 2663POPC   C2B37484  29.961  34.421   8.400
 2663POPC   C3B37485  29.904  34.247   8.045
 2663POPC   C4B37486  29.873  34.368   7.675
 2664POPC   NC337487  20.310  41.248   9.521
 2664POPC   PO437488  20.710  41.786   9.587
 2664POPC   GL137489  20.508  41.671   9.178
 2664POPC   GL237490  20.318  41.353   9.035
 2664POPC   C1A37491  20.610  41.662   8.748
 2664POPC   D2A37492  20.452  41.599   8.333
 2664POPC   C3A37493  20.714  41.628   8.004
 2664POPC   C4A37494  20.489  41.809   7.694
 2664POPC   C1B37495  20.414  41.171   8.600
 2664POPC   C2B37496  20.322  41.128   8.121
 2664POPC   C3B37497  20.445  41.288   7.725
 2664POPC   C4B37498  20.340  41.436   7.312
 2665POPC   NC337499  32.762  42.623   9.655
 2665POPC   PO437500  33.215  42.074   9.527
 2665POPC   GL137501  33.250  42.368   9.219
 2665POPC   GL237502  32.919  42.505   9.176
 2665POPC   C1A37503  33.208  42.278   8.810
 2665POPC   D2A37504  32.908  42.330   8.524
 2665POPC   C3A37505  33.163  42.353   8.191
 2665POPC   C4A37506  33.065  42.246   7.811
 2665POPC   C1B37507  32.702  42.703   8.837
 2665POPC   C2B37508  32.764  42.836   8.426
 2665POPC   C3B37509  32.721  42.587   8.103
 2665POPC   C4B37510  32.736  42.665   7.723
 2666POPC   NC337511   8.561  35.181   9.350
 2666POPC   PO437512   9.183  35.379   9.512
 2666POPC   GL137513   9.059  35.346   9.113
 2666POPC   GL237514   8.972  35.002   9.107
 2666POPC   C1A37515   8.836  35.319   8.705
 2666POPC   D2A37516   8.620  35.148   8.382
 2666POPC   C3A37517   8.865  35.162   8.015
 2666POPC   C4A37518   9.160  35.373   7.761
 2666POPC   C1B37519   9.245  35.026   8.759
 2666POPC   C2B37520   9.351  35.137   8.349
 2666POPC   C3B37521   9.360  34.924   7.985
 2666POPC   C4B37522   9.390  34.955   7.542
 2667POPC   NC337523  13.117   1.733   9.378
 2667POPC   PO437524  12.502   1.454   9.690
 2667POPC   GL137525  12.430   1.321   9.251
 2667POPC   GL237526  12.448   1.653   9.134
 2667POPC   C1A37527  12.666   1.056   8.912
 2667POPC   D2A37528  13.082   1.137   8.626
 2667POPC   C3A37529  13.065   1.060   8.163
 2667POPC   C4A37530  12.729   0.962   7.884
 2667POPC   C1B37531  12.628   1.518   8.738
 2667POPC   C2B37532  12.622   1.224   8.399
 2667POPC   C3B37533  12.591   1.450   8.004
 2667POPC   C4B37534  12.699   1.550   7.545
 2668POPC   NC337535  21.161  41.773   9.549
 2668POPC   PO437536  21.521  41.222   9.430
 2668POPC   GL137537  21.435  41.617   9.145
 2668POPC   GL237538  21.092  41.782   9.055
 2668POPC   C1A37539  21.567  41.807   8.758
 2668POPC   D2A37540  21.555  41.534   8.391
 2668POPC   C3A37541  21.801  41.660   8.077
 2668POPC   C4A37542  21.754  41.825   7.675
 2668POPC   C1B37543  21.097  41.657   8.637
 2668POPC   C2B37544  21.079  41.879   8.275
 2668POPC   C3B37545  21.318  41.764   7.943
 2668POPC   C4B37546  21.429  41.349   7.900
 2669POPC   NC337547  19.333  43.257   9.345
 2669POPC   PO437548  19.067  42.655   9.505
 2669POPC   GL137549  18.984  42.888   9.122
 2669POPC   GL237550  18.914  43.233   9.027
 2669POPC   C1A37551  19.082  42.864   8.726
 2669POPC   D2A37552  19.345  42.882   8.438
 2669POPC   C3A37553  19.091  42.991   8.171
 2669POPC   C4A37554  19.097  42.801   7.828
 2669POPC   C1B37555  19.265  43.345   8.687
 2669POPC   C2B37556  19.421  43.392   8.257
 2669POPC   C3B37557  19.239  43.319   7.808
 2669POPC   C4B37558  18.844  43.164   7.593
 2670POPC   NC337559  24.997  41.849   9.564
 2670POPC   PO437560  25.384  42.404   9.537
 2670POPC   GL137561  25.308  42.227   9.156
 2670POPC   GL237562  24.921  42.212   9.126
 2670POPC   C1A37563  25.519  42.064   8.762
 2670POPC   D2A37564  25.379  42.058   8.317
 2670POPC   C3A37565  25.258  42.301   7.972
 2670POPC   C4A37566  24.998  42.200   7.657
 2670POPC   C1B37567  25.087  42.331   8.713
 2670POPC   C2B37568  25.042  42.574   8.347
 2670POPC   C3B37569  25.020  42.751   7.938
 2670POPC   C4B37570  24.759  42.668   7.608
 2671POPC   NC337571   0.737  14.082   9.685
 2671POPC   PO437572   0.118  13.984   9.357
 2671POPC   GL137573   0.314  14.159   9.029
 2671POPC   GL237574   0.575  14.320   9.236
 2671POPC   C1A37575   0.347  14.201   8.582
 2671POPC   D2A37576   0.523  14.136   8.191
 2671POPC   C3A37577   0.302  14.267   7.837
 2671POPC   C4A37578   0.325  14.607   7.625
 2671POPC   C1B37579   0.708  14.482   8.825
 2671POPC   C2B37580   0.572  14.627   8.390
 2671POPC   C3B37581   0.719  14.550   7.963
 2671POPC   C4B37582   0.855  14.538   7.531
 2672POPC   NC337583  30.243  28.236   9.735
 2672POPC   PO437584  30.924  28.176   9.499
 2672POPC   GL137585  30.828  28.250   9.098
 2672POPC   GL237586  30.538  28.389   9.140
 2672POPC   C1A37587  30.986  28.301   8.687
 2672POPC   D2A37588  31.029  28.019   8.338
 2672POPC   C3A37589  30.820  28.211   8.035
 2672POPC   C4A37590  30.932  28.339   7.656
 2672POPC   C1B37591  30.442  28.481   8.730
 2672POPC   C2B37592  30.438  28.270   8.366
 2672POPC   C3B37593  30.334  28.035   8.013
 2672POPC   C4B37594  30.424  28.264   7.666
 2673POPC   NC337595  32.031  21.448   9.550
 2673POPC   PO437596  32.663  21.440   9.777
 2673POPC   GL137597  32.477  21.442   9.296
 2673POPC   GL237598  32.217  21.196   9.156
 2673POPC   C1A37599  32.312  21.696   8.889
 2673POPC   D2A37600  32.274  21.907   8.465
 2673POPC   C3A37601  32.398  21.767   8.054
 2673POPC   C4A37602  32.127  21.598   7.721
 2673POPC   C1B37603  32.130  21.249   8.746
 2673POPC   C2B37604  32.393  21.381   8.404
 2673POPC   C3B37605  32.397  21.246   7.952
 2673POPC   C4B37606  32.207  21.008   7.622
 2674POPC   NC337607   1.070  30.190   9.594
 2674POPC   PO437608   0.993  29.588   9.290
 2674POPC   GL137609   1.372  29.808   9.216
 2674POPC   GL237610   1.293  30.127   9.147
 2674POPC   C1A37611   1.540  29.799   8.811
 2674POPC   D2A37612   1.290  29.718   8.472
 2674POPC   C3A37613   1.419  29.839   8.068
 2674POPC   C4A37614   1.163  29.689   7.750
 2674POPC   C1B37615   1.414  30.335   8.796
 2674POPC   C2B37616   1.250  30.230   8.399
 2674POPC   C3B37617   1.379  30.360   7.986
 2674POPC   C4B37618   1.378  30.182   7.581
 2675POPC   NC337619  20.611  36.041   9.387
 2675POPC   PO437620  20.867  36.714   9.377
 2675POPC   GL137621  20.658  36.397   9.050
 2675POPC   GL237622  20.306  36.242   9.058
 2675POPC   C1A37623  20.639  36.100   8.706
 2675POPC   D2A37624  20.857  36.160   8.364
 2675POPC   C3A37625  20.704  36.030   8.035
 2675POPC   C4A37626  20.747  36.268   7.751
 2675POPC   C1B37627  20.267  36.506   8.710
 2675POPC   C2B37628  20.353  36.357   8.314
 2675POPC   C3B37629  20.211  36.228   7.938
 2675POPC   C4B37630  20.193  36.400   7.543
 2676POPC   NC337631  39.079   5.798   9.627
 2676POPC   PO437632  39.624   6.280   9.533
 2676POPC   GL137633  39.574   5.946   9.170
 2676POPC   GL237634  39.349   5.648   9.211
 2676POPC   C1A37635  39.458   5.848   8.726
 2676POPC   D2A37636  39.550   5.726   8.306
 2676POPC   C3A37637  39.417   5.871   7.890
 2676POPC   C4A37638  39.501   5.866   7.455
 2676POPC   C1B37639  39.088   5.496   8.865
 2676POPC   C2B37640  39.065   5.652   8.442
 2676POPC   C3B37641  39.034   5.580   7.994
 2676POPC   C4B37642  38.992   5.762   7.600
 2677POPC   NC337643  44.742  10.175   9.662
 2677POPC   PO437644  44.403   9.893   9.201
 2677POPC   GL137645  44.640   9.957   8.837
 2677POPC   GL237646  44.993   9.999   8.948
 2677POPC   C1A37647  44.528   9.790   8.456
 2677POPC   D2A37648  44.575   9.451   8.198
 2677POPC   C3A37649  44.418   9.454   7.804
 2677POPC   C4A37650  44.512   9.728   7.461
 2677POPC   C1B37651   0.054   9.662   8.623
 2677POPC   C2B37652   0.090   9.610   8.208
 2677POPC   C3B37653  44.877   9.726   7.843
 2677POPC   C4B37654   0.027   9.798   7.437
 2678POPC   NC337655  26.175  20.233   5.482
 2678POPC   PO437656  25.816  19.705   5.282
 2678POPC   GL137657  26.028  19.696   5.685
 2678POPC   GL237658  25.851  19.967   5.851
 2678POPC   C1A37659  26.189  19.588   6.113
 2678POPC   D2A37660  25.961  19.729   6.511
 2678POPC   C3A37661  26.179  19.658   6.907
 2678POPC   C4A37662  26.167  19.705   7.346
 2678POPC   C1B37663  26.148  20.099   6.205
 2678POPC   C2B37664  26.265  20.120   6.671
 2678POPC   C3B37665  26.033  20.134   7.085
 2678POPC   C4B37666  26.159  20.173   7.565
 2679POPC   NC337667  13.939   8.096   5.621
 2679POPC   PO437668  13.690   8.575   5.239
 2679POPC   GL137669  13.646   8.482   5.790
 2679POPC   GL237670  13.736   8.209   6.048
 2679POPC   C1A37671  13.452   8.535   6.276
 2679POPC   D2A37672  13.745   8.236   6.549
 2679POPC   C3A37673  13.735   8.258   6.976
 2679POPC   C4A37674  13.429   8.509   7.108
 2679POPC   C1B37675  13.346   8.050   6.283
 2679POPC   C2B37676  13.249   8.208   6.713
 2679POPC   C3B37677  13.291   8.026   7.141
 2679POPC   C4B37678  13.666   7.910   7.396
 2680POPC   NC337679  13.336   4.299   5.396
 2680POPC   PO437680  12.761   4.076   5.471
 2680POPC   GL137681  12.727   4.258   5.882
 2680POPC   GL237682  13.037   4.470   5.897
 2680POPC   C1A37683  12.519   4.148   6.292
 2680POPC   D2A37684  12.398   4.236   6.732
 2680POPC   C3A37685  12.715   4.358   7.035
 2680POPC   C4A37686  12.629   4.518   7.453
 2680POPC   C1B37687  13.041   4.649   6.343
 2680POPC   C2B37688  12.994   4.799   6.807
 2680POPC   C3B37689  13.076   4.665   7.241
 2680POPC   C4B37690  13.080   4.267   7.478
 2681POPC   NC337691  23.230   2.533   5.396
 2681POPC   PO437692  22.598   2.494   5.286
 2681POPC   GL137693  22.767   2.611   5.741
 2681POPC   GL237694  23.077   2.469   5.875
 2681POPC   C1A37695  22.814   2.825   6.193
 2681POPC   D2A37696  23.030   2.929   6.625
 2681POPC   C3A37697  22.908   2.989   7.077
 2681POPC   C4A37698  23.235   3.048   7.425
 2681POPC   C1B37699  22.856   2.318   6.235
 2681POPC   C2B37700  22.708   2.512   6.613
 2681POPC   C3B37701  22.881   2.484   7.017
 2681POPC   C4B37702  22.962   2.624   7.442
 2682POPC   NC337703  12.984  24.750   5.316
 2682POPC   PO437704  12.341  24.559   5.399
 2682POPC   GL137705  12.598  24.752   5.727
 2682POPC   GL237706  12.805  24.461   5.744
 2682POPC   C1A37707  12.768  24.764   6.159
 2682POPC   D2A37708  12.874  24.540   6.544
 2682POPC   C3A37709  12.789  24.620   6.937
 2682POPC   C4A37710  12.658  24.731   7.315
 2682POPC   C1B37711  12.827  24.238   6.137
 2682POPC   C2B37712  13.142  24.137   6.448
 2682POPC   C3B37713  12.973  24.105   6.881
 2682POPC   C4B37714  13.069  24.315   7.276
 2683POPC   NC337715  35.019  26.013   5.201
 2683POPC   PO437716  35.679  25.861   5.272
 2683POPC   GL137717  35.453  25.873   5.655
 2683POPC   GL237718  35.562  26.155   5.838
 2683POPC   C1A37719  35.482  25.725   6.090
 2683POPC   D2A37720  35.510  25.778   6.527
 2683POPC   C3A37721  35.198  25.917   6.813
 2683POPC   C4A37722  35.235  25.951   7.267
 2683POPC   C1B37723  35.341  26.193   6.237
 2683POPC   C2B37724  35.284  26.442   6.589
 2683POPC   C3B37725  35.351  26.362   6.996
 2683POPC   C4B37726  35.333  26.595   7.330
 2684POPC   NC337727  29.509  13.688   5.500
 2684POPC   PO437728  30.196  13.902   5.545
 2684POPC   GL137729  29.879  13.764   5.842
 2684POPC   GL237730  29.571  13.929   5.946
 2684POPC   C1A37731  29.950  13.640   6.234
 2684POPC   D2A37732  29.882  13.822   6.598
 2684POPC   C3A37733  30.164  13.659   6.897
 2684POPC   C4A37734  30.199  13.548   7.293
 2684POPC   C1B37735  29.443  13.636   6.242
 2684POPC   C2B37736  29.487  13.515   6.652
 2684POPC   C3B37737  29.632  13.726   7.037
 2684POPC   C4B37738  29.694  13.521   7.403
 2685POPC   NC337739  12.069  38.059   5.577
 2685POPC   PO437740  11.667  37.374   5.496
 2685POPC   GL137741  11.916  37.631   5.794
 2685POPC   GL237742  12.300  37.638   5.791
 2685POPC   C1A37743  11.925  37.810   6.230
 2685POPC   D2A37744  12.056  37.603   6.615
 2685POPC   C3A37745  11.975  37.784   7.015
 2685POPC   C4A37746  11.801  37.625   7.392
 2685POPC   C1B37747  12.425  37.572   6.223
 2685POPC   C2B37748  12.526  37.779   6.616
 2685POPC   C3B37749  12.486  37.838   7.048
 2685POPC   C4B37750  12.277  37.801   7.448
 2686POPC   NC337751  38.624   8.937   5.416
 2686POPC   PO437752  38.457   9.517   5.212
 2686POPC   GL137753  38.321   9.226   5.679
 2686POPC   GL237754  38.122   8.934   5.723
 2686POPC   C1A37755  38.519   8.968   6.045
 2686POPC   D2A37756  38.503   9.232   6.390
 2686POPC   C3A37757  38.444   9.137   6.832
 2686POPC   C4A37758  38.597   9.336   7.212
 2686POPC   C1B37759  38.049   9.025   6.174
 2686POPC   C2B37760  38.166   8.809   6.555
 2686POPC   C3B37761  38.398   8.628   6.905
 2686POPC   C4B37762  38.319   8.867   7.237
 2687POPC   NC337763  21.596  22.862   5.492
 2687POPC   PO437764  20.855  22.869   5.328
 2687POPC   GL137765  21.146  23.018   5.715
 2687POPC   GL237766  21.199  22.725   5.890
 2687POPC   C1A37767  21.406  23.121   6.144
 2687POPC   D2A37768  21.782  22.949   6.405
 2687POPC   C3A37769  21.801  23.017   6.862
 2687POPC   C4A37770  21.483  23.106   7.188
 2687POPC   C1B37771  21.356  22.660   6.326
 2687POPC   C2B37772  21.349  22.872   6.707
 2687POPC   C3B37773  21.072  22.802   7.025
 2687POPC   C4B37774  20.925  22.417   7.238
 2688POPC   NC337775   9.344  11.576   5.369
 2688POPC   PO437776   9.790  11.165   5.523
 2688POPC   GL137777   9.707  11.515   5.789
 2688POPC   GL237778   9.357  11.577   5.894
 2688POPC   C1A37779   9.796  11.467   6.226
 2688POPC   D2A37780   9.755  11.138   6.529
 2688POPC   C3A37781   9.837  11.225   6.944
 2688POPC   C4A37782   9.635  11.153   7.317
 2688POPC   C1B37783   9.281  11.472   6.327
 2688POPC   C2B37784   9.483  11.576   6.701
 2688POPC   C3B37785   9.345  11.472   7.066
 2688POPC   C4B37786   9.304  11.584   7.464
 2689POPC   NC337787  13.651  14.636   5.364
 2689POPC   PO437788  13.520  14.051   5.491
 2689POPC   GL137789  13.445  14.371   5.814
 2689POPC   GL237790  13.480  14.745   5.822
 2689POPC   C1A37791  13.467  14.434   6.264
 2689POPC   D2A37792  13.809  14.488   6.566
 2689POPC   C3A37793  13.588  14.440   6.941
 2689POPC   C4A37794  13.791  14.221   7.274
 2689POPC   C1B37795  13.727  14.875   6.172
 2689POPC   C2B37796  13.548  14.910   6.581
 2689POPC   C3B37797  13.695  14.978   6.966
 2689POPC   C4B37798  13.818  14.733   7.308
 2690POPC   NC337799  10.305  18.845   5.415
 2690POPC   PO437800  10.378  18.095   5.406
 2690POPC   GL137801  10.599  18.227   5.745
 2690POPC   GL237802  10.654  18.558   5.662
 2690POPC   C1A37803  10.646  18.152   6.184
 2690POPC   D2A37804  10.415  18.134   6.583
 2690POPC   C3A37805  10.443  18.275   7.024
 2690POPC   C4A37806  10.308  18.278   7.473
 2690POPC   C1B37807  10.823  18.647   6.071
 2690POPC   C2B37808  10.788  18.525   6.503
 2690POPC   C3B37809  10.715  18.701   6.906
 2690POPC   C4B37810  10.703  18.592   7.325
 2691POPC   NC337811  27.038  13.222   5.491
 2691POPC   PO437812  26.429  12.893   5.332
 2691POPC   GL137813  26.694  12.883   5.746
 2691POPC   GL237814  27.058  12.767   5.775
 2691POPC   C1A37815  26.761  12.742   6.214
 2691POPC   D2A37816  26.971  12.774   6.632
 2691POPC   C3A37817  26.891  12.521   7.003
 2691POPC   C4A37818  26.563  12.503   7.332
 2691POPC   C1B37819  27.187  13.011   6.156
 2691POPC   C2B37820  27.280  13.166   6.599
 2691POPC   C3B37821  26.903  13.249   6.808
 2691POPC   C4B37822  26.836  13.004   7.161
 2692POPC   NC337823  20.350  11.526   5.299
 2692POPC   PO437824  20.795  11.053   5.138
 2692POPC   GL137825  20.593  11.121   5.540
 2692POPC   GL237826  20.554  10.832   5.770
 2692POPC   C1A37827  20.617  11.325   5.947
 2692POPC   D2A37828  20.541  11.370   6.400
 2692POPC   C3A37829  20.649  11.313   6.849
 2692POPC   C4A37830  20.388  11.358   7.260
 2692POPC   C1B37831  20.333  10.936   6.153
 2692POPC   C2B37832  20.468  10.850   6.574
 2692POPC   C3B37833  20.387  10.903   7.005
 2692POPC   C4B37834  20.798  10.911   7.185
 2693POPC   NC337835  19.130  39.819   5.425
 2693POPC   PO437836  19.313  40.469   5.424
 2693POPC   GL137837  19.271  40.125   5.816
 2693POPC   GL237838  19.183  39.735   5.910
 2693POPC   C1A37839  19.401  39.980   6.271
 2693POPC   D2A37840  19.268  39.724   6.588
 2693POPC   C3A37841  19.326  39.938   6.924
 2693POPC   C4A37842  19.444  39.827   7.284
 2693POPC   C1B37843  18.892  39.889   6.267
 2693POPC   C2B37844  18.846  40.052   6.712
 2693POPC   C3B37845  18.877  39.953   7.171
 2693POPC   C4B37846  18.745  39.856   7.616
 2694POPC   NC337847   2.843  33.287   5.584
 2694POPC   PO437848   2.513  32.755   5.441
 2694POPC   GL137849   2.684  32.852   5.797
 2694POPC   GL237850   2.442  32.667   5.950
 2694POPC   C1A37851   2.841  32.945   6.210
 2694POPC   D2A37852   2.974  33.253   6.534
 2694POPC   C3A37853   2.884  33.061   6.933
 2694POPC   C4A37854   2.760  32.676   7.158
 2694POPC   C1B37855   2.336  32.978   6.170
 2694POPC   C2B37856   2.445  33.173   6.530
 2694POPC   C3B37857   2.388  32.970   6.884
 2694POPC   C4B37858   2.473  33.106   7.261
 2695POPC   NC337859  19.497  32.170   5.587
 2695POPC   PO437860  20.050  32.591   5.583
 2695POPC   GL137861  19.899  32.290   5.893
 2695POPC   GL237862  20.168  32.136   6.051
 2695POPC   C1A37863  19.634  32.144   6.241
 2695POPC   D2A37864  19.481  32.297   6.642
 2695POPC   C3A37865  19.694  32.206   6.995
 2695POPC   C4A37866  20.048  32.402   7.176
 2695POPC   C1B37867  20.078  32.304   6.443
 2695POPC   C2B37868  19.934  31.939   6.603
 2695POPC   C3B37869  20.135  31.708   6.872
 2695POPC   C4B37870  20.045  31.874   7.241
 2696POPC   NC337871   5.935  15.259   5.401
 2696POPC   PO437872   6.347  14.693   5.367
 2696POPC   GL137873   6.081  14.799   5.792
 2696POPC   GL237874   5.876  15.119   5.870
 2696POPC   C1A37875   6.080  14.937   6.276
 2696POPC   D2A37876   5.963  15.159   6.667
 2696POPC   C3A37877   6.080  15.119   7.104
 2696POPC   C4A37878   6.034  14.738   7.389
 2696POPC   C1B37879   5.884  15.435   6.211
 2696POPC   C2B37880   5.692  15.568   6.617
 2696POPC   C3B37881   5.668  15.445   7.071
 2696POPC   C4B37882   5.671  15.498   7.549
 2697POPC   NC337883  43.389   0.568   5.557
 2697POPC   PO437884  42.829   0.190   5.451
 2697POPC   GL137885  42.990   0.333   5.790
 2697POPC   GL237886  42.958   0.695   5.845
 2697POPC   C1A37887  43.237   0.326   6.156
 2697POPC   D2A37888  43.183   0.554   6.509
 2697POPC   C3A37889  43.212   0.344   6.912
 2697POPC   C4A37890  43.098   0.464   7.336
 2697POPC   C1B37891  42.785   0.867   6.249
 2697POPC   C2B37892  42.860   0.904   6.714
 2697POPC   C3B37893  42.928   0.933   7.188
 2697POPC   C4B37894  42.792   0.764   7.621
 2698POPC   NC337895  32.827  34.290   5.633
 2698POPC   PO437896  33.217  34.840   5.375
 2698POPC   GL137897  33.159  34.702   5.799
 2698POPC   GL237898  33.275  34.365   5.889
 2698POPC   C1A37899  33.006  34.634   6.225
 2698POPC   D2A37900  33.177  34.492   6.589
 2698POPC   C3A37901  32.935  34.453   6.986
 2698POPC   C4A37902  32.818  34.818   7.221
 2698POPC   C1B37903  33.279  34.096   6.279
 2698POPC   C2B37904  33.155  34.016   6.740
 2698POPC   C3B37905  33.304  34.131   7.163
 2698POPC   C4B37906  33.307  34.168   7.642
 2699POPC   NC337907  24.686   4.656   4.881
 2699POPC   PO437908  24.283   4.559   5.392
 2699POPC   GL137909  24.314   4.531   5.846
 2699POPC   GL237910  24.574   4.314   5.915
 2699POPC   C1A37911  24.185   4.276   6.234
 2699POPC   D2A37912  24.123   4.188   6.680
 2699POPC   C3A37913  24.357   4.387   7.026
 2699POPC   C4A37914  24.426   4.751   7.316
 2699POPC   C1B37915  24.606   4.577   6.315
 2699POPC   C2B37916  24.702   4.662   6.774
 2699POPC   C3B37917  24.889   4.566   7.209
 2699POPC   C4B37918  24.925   4.527   7.682
 2700POPC   NC337919  15.631   0.982   5.178
 2700POPC   PO437920  15.009   1.432   5.428
 2700POPC   GL137921  15.023   1.196   5.835
 2700POPC   GL237922  14.749   0.997   5.960
 2700POPC   C1A37923  15.219   1.163   6.233
 2700POPC   D2A37924  15.149   0.973   6.627
 2700POPC   C3A37925  15.297   1.215   6.990
 2700POPC   C4A37926  15.226   0.927   7.293
 2700POPC   C1B37927  14.757   1.364   6.223
 2700POPC   C2B37928  14.932   1.418   6.640
 2700POPC   C3B37929  14.814   1.121   7.024
 2700POPC   C4B37930  14.895   1.289   7.462
 2701POPC   NC337931  29.003  28.133   5.022
 2701POPC   PO437932  29.273  28.624   5.416
 2701POPC   GL137933  29.370  28.334   5.808
 2701POPC   GL237934  29.311  27.958   5.828
 2701POPC   C1A37935  29.216  28.267   6.275
 2701POPC   D2A37936  29.014  28.078   6.683
 2701POPC   C3A37937  29.075  28.353   7.069
 2701POPC   C4A37938  28.909  28.583   7.442
 2701POPC   C1B37939  29.409  27.805   6.256
 2701POPC   C2B37940  29.502  27.934   6.704
 2701POPC   C3B37941  29.271  27.881   7.108
 2701POPC   C4B37942  29.065  28.080   7.506
 2702POPC   NC337943  30.933  18.802   5.442
 2702POPC   PO437944  30.553  18.227   5.370
 2702POPC   GL137945  30.642  18.440   5.790
 2702POPC   GL237946  30.922  18.281   5.972
 2702POPC   C1A37947  30.455  18.314   6.228
 2702POPC   D2A37948  30.335  18.306   6.663
 2702POPC   C3A37949  30.707  18.432   6.903
 2702POPC   C4A37950  30.923  18.240   7.237
 2702POPC   C1B37951  30.892  18.473   6.404
 2702POPC   C2B37952  31.177  18.622   6.723
 2702POPC   C3B37953  31.193  18.657   7.158
 2702POPC   C4B37954  31.081  18.595   7.639
 2703POPC   NC337955   6.063  28.313   5.416
 2703POPC   PO437956   5.419  28.557   5.567
 2703POPC   GL137957   5.728  28.362   5.835
 2703POPC   GL237958   5.938  28.052   5.822
 2703POPC   C1A37959   5.858  28.505   6.236
 2703POPC   D2A37960   6.085  28.587   6.614
 2703POPC   C3A37961   5.892  28.443   6.996
 2703POPC   C4A37962   6.059  28.402   7.423
 2703POPC   C1B37963   5.852  28.002   6.227
 2703POPC   C2B37964   6.017  28.077   6.616
 2703POPC   C3B37965   5.835  27.928   6.991
 2703POPC   C4B37966   6.063  27.912   7.362
 2704POPC   NC337967  20.026  36.281   5.443
 2704POPC   PO437968  20.191  35.673   5.365
 2704POPC   GL137969  20.033  35.924   5.788
 2704POPC   GL237970  19.731  36.186   5.865
 2704POPC   C1A37971  19.813  35.790   6.175
 2704POPC   D2A37972  19.686  35.769   6.597
 2704POPC   C3A37973  19.813  36.134   6.854
 2704POPC   C4A37974  20.065  36.084   7.185
 2704POPC   C1B37975  19.387  36.283   6.178
 2704POPC   C2B37976  19.423  36.384   6.618
 2704POPC   C3B37977  19.322  36.461   7.036
 2704POPC   C4B37978  19.438  36.217   7.368
 2705POPC   NC337979  21.073   0.150   5.475
 2705POPC   PO437980  20.745  44.506   5.513
 2705POPC   GL137981  20.635  44.669   5.906
 2705POPC   GL237982  20.878  44.882   5.847
 2705POPC   C1A37983  20.554  44.747   6.334
 2705POPC   D2A37984  20.692  44.538   6.698
 2705POPC   C3A37985  20.367  44.539   6.987
 2705POPC   C4A37986  20.347  44.691   7.380
 2705POPC   C1B37987  20.892   0.138   6.203
 2705POPC   C2B37988  20.743   0.138   6.617
 2705POPC   C3B37989  20.583   0.003   7.017
 2705POPC   C4B37990  20.772  44.923   7.444
 2706POPC   NC337991  10.103  22.547   5.342
 2706POPC   PO437992  10.502  21.955   5.313
 2706POPC   GL137993  10.327  22.112   5.744
 2706POPC   GL237994  10.228  22.438   5.827
 2706POPC   C1A37995  10.384  21.990   6.194
 2706POPC   D2A37996  10.725  21.847   6.478
 2706POPC   C3A37997  10.646  21.887   6.903
 2706POPC   C4A37998  10.457  21.927   7.282
 2706POPC   C1B37999  10.387  22.506   6.247
 2706POPC   C2B38000  10.361  22.300   6.651
 2706POPC   C3B38001  10.459  22.376   7.091
 2706POPC   C4B38002  10.531  22.397   7.564
 2707POPC   NC338003  28.857  40.731   5.394
 2707POPC   PO438004  29.528  40.910   5.519
 2707POPC   GL138005  29.195  40.668   5.793
 2707POPC   GL238006  28.842  40.497   5.861
 2707POPC   C1A38007  29.033  40.872   6.171
 2707POPC   D2A38008  29.174  41.011   6.586
 2707POPC   C3A38009  29.203  40.841   6.982
 2707POPC   C4A38010  28.937  40.936   7.308
 2707POPC   C1B38011  29.047  40.388   6.258
 2707POPC   C2B38012  28.927  40.540   6.675
 2707POPC   C3B38013  28.928  40.443   7.145
 2707POPC   C4B38014  28.870  40.545   7.623
 2708POPC   NC338015  27.783  40.161   5.351
 2708POPC   PO438016  27.167  39.805   5.273
 2708POPC   GL138017  27.361  39.933   5.711
 2708POPC   GL238018  27.738  39.863   5.768
 2708POPC   C1A38019  27.449  39.870   6.183
 2708POPC   D2A38020  27.257  39.822   6.603
 2708POPC   C3A38021  27.531  39.897   6.965
 2708POPC   C4A38022  27.802  39.710   7.266
 2708POPC   C1B38023  27.963  40.069   6.116
 2708POPC   C2B38024  27.921  40.139   6.549
 2708POPC   C3B38025  27.993  40.376   6.907
 2708POPC   C4B38026  28.019  40.192   7.315
 2709POPC   NC338027  33.261  21.805   5.519
 2709POPC   PO438028  33.166  21.094   5.537
 2709POPC   GL138029  32.970  21.459   5.745
 2709POPC   GL238030  32.994  21.235   5.989
 2709POPC   C1A38031  33.068  21.702   6.150
 2709POPC   D2A38032  32.977  21.384   6.473
 2709POPC   C3A38033  33.072  21.455   6.871
 2709POPC   C4A38034  32.952  21.329   7.267
 2709POPC   C1B38035  32.713  21.010   6.190
 2709POPC   C2B38036  32.502  21.083   6.556
 2709POPC   C3B38037  32.647  21.090   6.958
 2709POPC   C4B38038  32.637  20.883   7.362
 2710POPC   NC338039  32.898  14.719   5.358
 2710POPC   PO438040  32.809  14.002   5.363
 2710POPC   GL138041  32.756  14.350   5.672
 2710POPC   GL238042  33.105  14.505   5.753
 2710POPC   C1A38043  32.776  14.428   6.125
 2710POPC   D2A38044  32.983  14.228   6.485
 2710POPC   C3A38045  32.911  14.430   6.880
 2710POPC   C4A38046  32.778  14.310   7.278
 2710POPC   C1B38047  33.358  14.533   6.119
 2710POPC   C2B38048  33.496  14.373   6.516
 2710POPC   C3B38049  33.399  14.298   6.913
 2710POPC   C4B38050  33.273  14.605   7.195
 2711POPC   NC338051  22.962  15.363   5.475
 2711POPC   PO438052  22.618  14.770   5.266
 2711POPC   GL138053  22.703  14.949   5.693
 2711POPC   GL238054  23.072  14.923   5.737
 2711POPC   C1A38055  22.633  15.172   6.132
 2711POPC   D2A38056  22.662  15.333   6.581
 2711POPC   C3A38057  22.944  15.228   6.939
 2711POPC   C4A38058  22.849  15.281   7.366
 2711POPC   C1B38059  23.125  15.112   6.155
 2711POPC   C2B38060  23.294  15.140   6.540
 2711POPC   C3B38061  23.486  15.311   6.884
 2711POPC   C4B38062  23.342  15.350   7.289
 2712POPC   NC338063  42.083  41.415   5.600
 2712POPC   PO438064  42.530  41.515   5.195
 2712POPC   GL138065  42.548  41.644   5.707
 2712POPC   GL238066  42.287  41.826   5.843
 2712POPC   C1A38067  42.597  41.677   6.192
 2712POPC   D2A38068  42.422  41.403   6.525
 2712POPC   C3A38069  42.472  41.628   6.903
 2712POPC   C4A38070  42.473  41.605   7.324
 2712POPC   C1B38071  42.079  41.662   6.225
 2712POPC   C2B38072  41.988  41.670   6.679
 2712POPC   C3B38073  41.980  41.526   7.092
 2712POPC   C4B38074  42.045  41.890   7.332
 2713POPC   NC338075  11.282  13.465   5.319
 2713POPC   PO438076  11.135  14.048   5.525
 2713POPC   GL138077  11.266  13.707   5.791
 2713POPC   GL238078  11.043  13.376   5.761
 2713POPC   C1A38079  11.510  13.694   6.171
 2713POPC   D2A38080  11.406  13.736   6.598
 2713POPC   C3A38081  11.545  13.655   7.001
 2713POPC   C4A38082  11.356  13.773   7.416
 2713POPC   C1B38083  11.307  13.232   6.094
 2713POPC   C2B38084  11.246  13.209   6.536
 2713POPC   C3B38085  11.116  13.408   6.906
 2713POPC   C4B38086  11.092  13.352   7.327
 2714POPC   NC338087  24.216  24.952   5.375
 2714POPC   PO438088  24.655  25.395   5.241
 2714POPC   GL138089  24.654  25.425   5.725
 2714POPC   GL238090  24.479  25.104   5.796
 2714POPC   C1A38091  24.584  25.395   6.210
 2714POPC   D2A38092  24.337  25.448   6.602
 2714POPC   C3A38093  24.465  25.260   6.988
 2714POPC   C4A38094  24.509  25.444   7.378
 2714POPC   C1B38095  24.359  24.871   6.181
 2714POPC   C2B38096  24.239  24.937   6.591
 2714POPC   C3B38097  24.229  24.780   6.994
 2714POPC   C4B38098  24.462  24.796   7.392
 2715POPC   NC338099  11.741   3.704   5.209
 2715POPC   PO438100  12.326   3.332   5.379
 2715POPC   GL138101  12.108   3.461   5.737
 2715POPC   GL238102  11.850   3.293   5.615
 2715POPC   C1A38103  12.052   3.665   6.144
 2715POPC   D2A38104  12.154   3.849   6.517
 2715POPC   C3A38105  12.119   3.667   6.903
 2715POPC   C4A38106  12.112   3.719   7.331
 2715POPC   C1B38107  11.803   3.228   6.102
 2715POPC   C2B38108  11.881   3.347   6.553
 2715POPC   C3B38109  11.747   3.298   6.992
 2715POPC   C4B38110  11.721   3.402   7.429
 2716POPC   NC338111   3.095  30.007   5.500
 2716POPC   PO438112   2.522  29.671   5.232
 2716POPC   GL138113   2.589  29.814   5.730
 2716POPC   GL238114   2.708  29.642   6.071
 2716POPC   C1A38115   2.711  30.148   6.101
 2716POPC   D2A38116   2.867  30.051   6.520
 2716POPC   C3A38117   2.674  30.234   6.885
 2716POPC   C4A38118   2.676  30.013   7.263
 2716POPC   C1B38119   3.120  29.622   6.350
 2716POPC   C2B38120   3.367  29.834   6.661
 2716POPC   C3B38121   3.245  29.669   7.080
 2716POPC   C4B38122   3.137  29.660   7.513
 2717POPC   NC338123  30.353  38.059   5.435
 2717POPC   PO438124  30.355  37.345   5.435
 2717POPC   GL138125  30.457  37.653   5.731
 2717POPC   GL238126  30.782  37.789   5.619
 2717POPC   C1A38127  30.401  37.825   6.148
 2717POPC   D2A38128  30.452  37.640   6.552
 2717POPC   C3A38129  30.338  37.774   6.967
 2717POPC   C4A38130  30.518  37.581   7.314
 2717POPC   C1B38131  30.898  37.669   6.068
 2717POPC   C2B38132  30.938  37.846   6.505
 2717POPC   C3B38133  30.902  37.758   6.958
 2717POPC   C4B38134  30.876  37.934   7.388
 2718POPC   NC338135  13.667   3.031   5.456
 2718POPC   PO438136  13.472   2.488   5.126
 2718POPC   GL138137  13.587   2.556   5.620
 2718POPC   GL238138  13.325   2.746   5.830
 2718POPC   C1A38139  13.743   2.551   6.072
 2718POPC   D2A38140  13.821   2.702   6.510
 2718POPC   C3A38141  13.845   2.859   6.915
 2718POPC   C4A38142  13.724   2.722   7.289
 2718POPC   C1B38143  13.180   2.785   6.272
 2718POPC   C2B38144  13.344   2.804   6.714
 2718POPC   C3B38145  13.338   3.065   7.103
 2718POPC   C4B38146  13.466   3.067   7.562
 2719POPC   NC338147   3.666  10.912   5.662
 2719POPC   PO438148   3.549  10.350   5.228
 2719POPC   GL138149   3.217  10.443   5.698
 2719POPC   GL238150   3.346  10.673   5.952
 2719POPC   C1A38151   3.096  10.296   6.168
 2719POPC   D2A38152   3.159  10.393   6.650
 2719POPC   C3A38153   3.527  10.458   6.943
 2719POPC   C4A38154   3.583  10.537   7.378
 2719POPC   C1B38155   3.638  10.765   6.315
 2719POPC   C2B38156   3.859  10.951   6.686
 2719POPC   C3B38157   3.829  10.931   7.135
 2719POPC   C4B38158   3.526  11.032   7.450
 2720POPC   NC338159  31.323  38.086   5.679
 2720POPC   PO438160  31.501  37.550   5.332
 2720POPC   GL138161  31.736  37.796   5.649
 2720POPC   GL238162  31.514  37.645   5.871
 2720POPC   C1A38163  31.882  37.898   6.098
 2720POPC   D2A38164  31.886  37.747   6.545
 2720POPC   C3A38165  31.779  38.018   6.956
 2720POPC   C4A38166  31.732  37.947   7.456
 2720POPC   C1B38167  31.412  37.704   6.309
 2720POPC   C2B38168  31.427  37.691   6.774
 2720POPC   C3B38169  31.339  37.555   7.183
 2720POPC   C4B38170  30.934  37.302   7.210
 2721POPC   NC338171   4.912  26.424   5.387
 2721POPC   PO438172   5.135  25.821   5.374
 2721POPC   GL138173   5.055  26.052   5.726
 2721POPC   GL238174   5.304  26.336   5.731
 2721POPC   C1A38175   4.956  25.862   6.111
 2721POPC   D2A38176   5.122  25.803   6.514
 2721POPC   C3A38177   4.889  25.917   6.878
 2721POPC   C4A38178   5.005  25.971   7.289
 2721POPC   C1B38179   5.322  26.215   6.183
 2721POPC   C2B38180   5.107  26.313   6.578
 2721POPC   C3B38181   5.119  26.403   7.020
 2721POPC   C4B38182   5.467  26.436   7.338
 2722POPC   NC338183  21.752  34.100   5.293
 2722POPC   PO438184  21.119  33.757   5.404
 2722POPC   GL138185  21.432  33.831   5.708
 2722POPC   GL238186  21.175  33.965   5.931
 2722POPC   C1A38187  21.609  33.848   6.137
 2722POPC   D2A38188  21.392  34.065   6.454
 2722POPC   C3A38189  21.481  33.957   6.872
 2722POPC   C4A38190  21.489  33.955   7.302
 2722POPC   C1B38191  21.142  33.646   6.238
 2722POPC   C2B38192  21.020  33.777   6.658
 2722POPC   C3B38193  21.045  34.218   6.831
 2722POPC   C4B38194  21.078  34.323   7.246
 2723POPC   NC338195  13.630  41.961   5.527
 2723POPC   PO438196  13.951  41.366   5.404
 2723POPC   GL138197  13.647  41.446   5.711
 2723POPC   GL238198  13.288  41.572   5.698
 2723POPC   C1A38199  13.754  41.538   6.127
 2723POPC   D2A38200  13.655  41.383   6.524
 2723POPC   C3A38201  13.667  41.610   6.891
 2723POPC   C4A38202  13.659  41.707   7.309
 2723POPC   C1B38203  13.239  41.489   6.175
 2723POPC   C2B38204  13.198  41.595   6.651
 2723POPC   C3B38205  13.186  41.560   7.119
 2723POPC   C4B38206  13.194  41.803   7.507
 2724POPC   NC338207  29.347  19.740   5.459
 2724POPC   PO438208  29.060  20.352   5.299
 2724POPC   GL138209  28.957  20.085   5.669
 2724POPC   GL238210  29.291  20.051   5.850
 2724POPC   C1A38211  28.840  19.996   6.128
 2724POPC   D2A38212  29.072  19.947   6.537
 2724POPC   C3A38213  28.842  19.924   6.941
 2724POPC   C4A38214  28.950  19.905   7.389
 2724POPC   C1B38215  29.263  19.672   6.119
 2724POPC   C2B38216  29.325  19.497   6.553
 2724POPC   C3B38217  29.227  19.606   6.982
 2724POPC   C4B38218  29.451  19.844   7.277
 2725POPC   NC338219  13.067  29.388   5.513
 2725POPC   PO438220  12.541  29.781   5.448
 2725POPC   GL138221  12.779  29.825   5.810
 2725POPC   GL238222  12.736  30.140   5.948
 2725POPC   C1A38223  12.646  29.744   6.245
 2725POPC   D2A38224  12.493  29.943   6.600
 2725POPC   C3A38225  12.661  29.850   7.007
 2725POPC   C4A38226  12.789  29.669   7.411
 2725POPC   C1B38227  12.936  30.190   6.321
 2725POPC   C2B38228  12.865  30.258   6.726
 2725POPC   C3B38229  13.003  30.222   7.099
 2725POPC   C4B38230  13.112  30.061   7.455
 2726POPC   NC338231  11.084  41.499   5.450
 2726POPC   PO438232  11.756  41.367   5.490
 2726POPC   GL138233  11.600  41.546   5.847
 2726POPC   GL238234  11.717  41.889   5.767
 2726POPC   C1A38235  11.345  41.498   6.262
 2726POPC   D2A38236  11.360  41.284   6.705
 2726POPC   C3A38237  11.227  41.482   7.053
 2726POPC   C4A38238  11.423  41.657   7.421
 2726POPC   C1B38239  11.591  41.930   6.206
 2726POPC   C2B38240  11.535  41.773   6.628
 2726POPC   C3B38241  11.410  41.947   6.986
 2726POPC   C4B38242  11.474  42.151   7.360
 2727POPC   NC338243   1.059  33.618   5.415
 2727POPC   PO438244   1.364  34.261   5.474
 2727POPC   GL138245   1.259  33.955   5.776
 2727POPC   GL238246   0.884  33.969   5.770
 2727POPC   C1A38247   1.218  33.691   6.148
 2727POPC   D2A38248   1.058  33.490   6.525
 2727POPC   C3A38249   1.183  33.649   6.924
 2727POPC   C4A38250   0.888  33.543   7.246
 2727POPC   C1B38251   0.965  34.138   6.178
 2727POPC   C2B38252   0.996  34.003   6.592
 2727POPC   C3B38253   1.051  34.124   7.024
 2727POPC   C4B38254   0.891  34.034   7.432
 2728POPC   NC338255  15.440  23.445   5.481
 2728POPC   PO438256  15.133  22.792   5.361
 2728POPC   GL138257  15.111  22.845   5.808
 2728POPC   GL238258  14.845  22.617   5.858
 2728POPC   C1A38259  15.252  22.934   6.251
 2728POPC   D2A38260  15.579  22.942   6.618
 2728POPC   C3A38261  15.518  22.856   7.076
 2728POPC   C4A38262  15.374  22.994   7.516
 2728POPC   C1B38263  14.749  22.768   6.256
 2728POPC   C2B38264  15.006  22.785   6.669
 2728POPC   C3B38265  15.021  22.918   7.109
 2728POPC   C4B38266  14.942  22.708   7.512
 2729POPC   NC338267  35.477   5.687   5.477
 2729POPC   PO438268  35.006   5.320   5.514
 2729POPC   GL138269  35.212   5.509   5.896
 2729POPC   GL238270  35.172   5.887   5.917
 2729POPC   C1A38271  35.321   5.633   6.349
 2729POPC   D2A38272  35.230   6.010   6.634
 2729POPC   C3A38273  35.343   5.990   7.097
 2729POPC   C4A38274  35.681   6.156   7.395
 2729POPC   C1B38275  34.894   6.139   6.233
 2729POPC   C2B38276  34.756   6.262   6.666
 2729POPC   C3B38277  34.901   6.305   7.090
 2729POPC   C4B38278  35.197   6.372   7.426
 2730POPC   NC338279  13.359  40.469   5.540
 2730POPC   PO438280  13.626  39.938   5.471
 2730POPC   GL138281  13.589  39.964   5.864
 2730POPC   GL238282  13.661  40.279   5.908
 2730POPC   C1A38283  13.725  39.789   6.234
 2730POPC   D2A38284  13.535  39.895   6.628
 2730POPC   C3A38285  13.840  39.949   6.891
 2730POPC   C4A38286  13.708  39.756   7.241
 2730POPC   C1B38287  13.569  40.288   6.296
 2730POPC   C2B38288  13.590  40.516   6.635
 2730POPC   C3B38289  13.503  40.326   6.988
 2730POPC   C4B38290  13.526  40.458   7.361
 2731POPC   NC338291  16.901  35.628   5.157
 2731POPC   PO438292  16.892  34.951   5.351
 2731POPC   GL138293  16.700  35.184   5.706
 2731POPC   GL238294  16.873  35.511   5.714
 2731POPC   C1A38295  16.695  35.146   6.165
 2731POPC   D2A38296  16.457  35.227   6.552
 2731POPC   C3A38297  16.671  35.156   6.942
 2731POPC   C4A38298  16.445  35.304   7.281
 2731POPC   C1B38299  16.845  35.663   6.148
 2731POPC   C2B38300  16.922  35.598   6.606
 2731POPC   C3B38301  16.733  35.675   7.016
 2731POPC   C4B38302  16.931  35.645   7.412
 2732POPC   NC338303  21.798  27.246   5.487
 2732POPC   PO438304  22.284  27.735   5.446
 2732POPC   GL138305  22.147  27.738   5.846
 2732POPC   GL238306  22.131  27.387   5.841
 2732POPC   C1A38307  22.120  27.650   6.293
 2732POPC   D2A38308  22.001  27.377   6.637
 2732POPC   C3A38309  22.205  27.640   6.898
 2732POPC   C4A38310  21.953  27.726   7.214
 2732POPC   C1B38311  22.166  27.156   6.192
 2732POPC   C2B38312  22.478  27.332   6.481
 2732POPC   C3B38313  22.530  27.230   6.871
 2732POPC   C4B38314  22.239  27.162   7.109
 2733POPC   NC338315  26.846  39.828   5.600
 2733POPC   PO438316  26.789  39.276   5.227
 2733POPC   GL138317  26.845  39.134   5.659
 2733POPC   GL238318  26.983  39.415   5.843
 2733POPC   C1A38319  26.724  39.065   6.119
 2733POPC   D2A38320  26.887  38.996   6.537
 2733POPC   C3A38321  26.688  39.157   6.910
 2733POPC   C4A38322  26.726  39.288   7.293
 2733POPC   C1B38323  27.153  39.431   6.264
 2733POPC   C2B38324  27.259  39.312   6.700
 2733POPC   C3B38325  27.195  39.504   7.112
 2733POPC   C4B38326  27.333  39.623   7.529
 2734POPC   NC338327  28.679  43.433   5.447
 2734POPC   PO438328  27.981  43.465   5.529
 2734POPC   GL138329  28.149  43.740   5.844
 2734POPC   GL238330  28.548  43.749   5.854
 2734POPC   C1A38331  28.266  43.631   6.260
 2734POPC   D2A38332  28.540  43.641   6.589
 2734POPC   C3A38333  28.326  43.834   6.904
 2734POPC   C4A38334  28.475  43.712   7.241
 2734POPC   C1B38335  28.567  44.032   6.248
 2734POPC   C2B38336  28.652  44.157   6.682
 2734POPC   C3B38337  28.641  44.193   7.160
 2734POPC   C4B38338  28.519  44.444   7.542
 2735POPC   NC338339  32.532  16.566   5.369
 2735POPC   PO438340  32.952  17.095   5.406
 2735POPC   GL138341  32.866  16.829   5.741
 2735POPC   GL238342  33.034  16.511   5.738
 2735POPC   C1A38343  32.941  16.893   6.174
 2735POPC   D2A38344  33.263  17.017   6.498
 2735POPC   C3A38345  33.166  16.809   6.858
 2735POPC   C4A38346  32.930  16.973   7.168
 2735POPC   C1B38347  32.992  16.316   6.139
 2735POPC   C2B38348  32.896  16.524   6.510
 2735POPC   C3B38349  32.784  16.473   6.930
 2735POPC   C4B38350  33.075  16.251   7.108
 2736POPC   NC338351  28.603   5.387   5.428
 2736POPC   PO438352  28.080   5.761   5.478
 2736POPC   GL138353  28.308   5.664   5.838
 2736POPC   GL238354  28.451   5.954   5.897
 2736POPC   C1A38355  28.262   5.690   6.313
 2736POPC   D2A38356  28.456   5.918   6.669
 2736POPC   C3A38357  28.438   5.851   7.160
 2736POPC   C4A38358  28.149   5.957   7.529
 2736POPC   C1B38359  28.297   6.207   6.226
 2736POPC   C2B38360  28.166   6.385   6.595
 2736POPC   C3B38361  28.130   6.196   6.968
 2736POPC   C4B38362  28.312   6.381   7.292
 2737POPC   NC338363   2.351  26.148   5.408
 2737POPC   PO438364   2.999  26.037   5.318
 2737POPC   GL138365   2.779  26.108   5.745
 2737POPC   GL238366   2.576  25.809   5.746
 2737POPC   C1A38367   2.771  26.260   6.220
 2737POPC   D2A38368   2.750  26.095   6.682
 2737POPC   C3A38369   2.961  26.288   7.082
 2737POPC   C4A38370   2.916  26.441   7.566
 2737POPC   C1B38371   2.778  25.751   6.189
 2737POPC   C2B38372   2.886  25.589   6.615
 2737POPC   C3B38373   2.812  25.712   7.061
 2737POPC   C4B38374   2.732  25.989   7.421
 2738POPC   NC338375  28.502  36.298   5.407
 2738POPC   PO438376  27.863  36.028   5.571
 2738POPC   GL138377  28.257  36.065   5.818
 2738POPC   GL238378  28.530  35.839   5.836
 2738POPC   C1A38379  28.087  35.968   6.221
 2738POPC   D2A38380  28.122  36.134   6.610
 2738POPC   C3A38381  27.912  36.000   6.938
 2738POPC   C4A38382  28.024  36.002   7.329
 2738POPC   C1B38383  28.586  36.028   6.253
 2738POPC   C2B38384  28.786  36.009   6.617
 2738POPC   C3B38385  28.504  36.029   6.957
 2738POPC   C4B38386  28.499  36.191   7.330
 2739POPC   NC338387  17.837  32.720   5.339
 2739POPC   PO438388  18.492  32.924   5.453
 2739POPC   GL138389  18.268  32.820   5.797
 2739POPC   GL238390  17.997  33.041   5.709
 2739POPC   C1A38391  18.357  32.894   6.222
 2739POPC   D2A38392  18.132  32.751   6.564
 2739POPC   C3A38393  18.344  32.829   6.904
 2739POPC   C4A38394  18.276  32.981   7.302
 2739POPC   C1B38395  17.860  32.952   6.106
 2739POPC   C2B38396  17.712  33.029   6.498
 2739POPC   C3B38397  17.854  33.026   6.957
 2739POPC   C4B38398  17.791  33.115   7.424
 2740POPC   NC338399   3.731   9.956   5.454
 2740POPC   PO438400   4.370   9.794   5.354
 2740POPC   GL138401   4.193   9.811   5.764
 2740POPC   GL238402   3.993   9.533   5.876
 2740POPC   C1A38403   4.402   9.906   6.148
 2740POPC   D2A38404   4.640   9.750   6.514
 2740POPC   C3A38405   4.492   9.834   6.892
 2740POPC   C4A38406   4.538   9.687   7.307
 2740POPC   C1B38407   3.984   9.479   6.315
 2740POPC   C2B38408   4.239   9.455   6.660
 2740POPC   C3B38409   4.182   9.402   7.103
 2740POPC   C4B38410   4.232   9.315   7.510
 2741POPC   NC338411  25.128   9.601   5.641
 2741POPC   PO438412  25.364  10.210   5.445
 2741POPC   GL138413  25.348  10.016   5.830
 2741POPC   GL238414  25.668   9.859   5.882
 2741POPC   C1A38415  25.293   9.861   6.260
 2741POPC   D2A38416  25.201  10.067   6.644
 2741POPC   C3A38417  25.306   9.883   7.028
 2741POPC   C4A38418  25.182   9.923   7.455
 2741POPC   C1B38419  25.695   9.543   6.256
 2741POPC   C2B38420  25.465   9.482   6.621
 2741POPC   C3B38421  25.681   9.542   6.971
 2741POPC   C4B38422  25.495   9.523   7.354
 2742POPC   NC338423  27.290  21.278   5.196
 2742POPC   PO438424  27.822  21.167   5.564
 2742POPC   GL138425  27.567  21.426   5.846
 2742POPC   GL238426  27.195  21.400   5.764
 2742POPC   C1A38427  27.626  21.683   6.227
 2742POPC   D2A38428  27.552  21.547   6.638
 2742POPC   C3A38429  27.736  21.585   7.047
 2742POPC   C4A38430  27.721  21.219   7.273
 2742POPC   C1B38431  27.109  21.533   6.214
 2742POPC   C2B38432  27.103  21.297   6.625
 2742POPC   C3B38433  27.241  21.360   7.055
 2742POPC   C4B38434  27.215  21.668   7.347
 2743POPC   NC338435  27.250  39.336   5.263
 2743POPC   PO438436  27.784  39.026   5.385
 2743POPC   GL138437  27.815  39.222   5.811
 2743POPC   GL238438  27.459  39.238   5.889
 2743POPC   C1A38439  27.774  39.348   6.269
 2743POPC   D2A38440  27.743  39.120   6.658
 2743POPC   C3A38441  27.900  39.263   7.050
 2743POPC   C4A38442  27.635  39.239   7.416
 2743POPC   C1B38443  27.356  38.960   6.275
 2743POPC   C2B38444  27.335  38.776   6.714
 2743POPC   C3B38445  27.263  38.992   7.125
 2743POPC   C4B38446  27.139  39.156   7.571
 2744POPC   NC338447  36.183  21.409   5.295
 2744POPC   PO438448  35.683  21.022   5.494
 2744POPC   GL138449  36.000  21.279   5.753
 2744POPC   GL238450  36.407  21.214   5.703
 2744POPC   C1A38451  36.046  21.593   6.080
 2744POPC   D2A38452  36.265  21.623   6.501
 2744POPC   C3A38453  35.998  21.643   6.857
 2744POPC   C4A38454  36.119  21.569   7.275
 2744POPC   C1B38455  36.478  21.296   6.130
 2744POPC   C2B38456  36.395  21.114   6.540
 2744POPC   C3B38457  36.245  21.183   6.933
 2744POPC   C4B38458  36.468  21.209   7.346
 2745POPC   NC338459   9.617  19.319   5.153
 2745POPC   PO438460   9.862  18.703   5.372
 2745POPC   GL138461   9.867  18.938   5.786
 2745POPC   GL238462  10.027  19.257   5.895
 2745POPC   C1A38463   9.584  19.039   6.166
 2745POPC   D2A38464   9.339  18.927   6.554
 2745POPC   C3A38465   9.520  18.939   6.969
 2745POPC   C4A38466   9.460  19.249   7.269
 2745POPC   C1B38467  10.085  19.059   6.315
 2745POPC   C2B38468   9.919  19.172   6.728
 2745POPC   C3B38469   9.960  19.183   7.175
 2745POPC   C4B38470   9.858  19.207   7.624
 2746POPC   NC338471  38.842  40.036   5.394
 2746POPC   PO438472  39.504  40.046   5.429
 2746POPC   GL138473  39.205  40.039   5.790
 2746POPC   GL238474  38.969  39.756   5.842
 2746POPC   C1A38475  39.298  40.189   6.202
 2746POPC   D2A38476  39.454  40.079   6.606
 2746POPC   C3A38477  39.255  40.165   6.995
 2746POPC   C4A38478  38.982  40.019   7.340
 2746POPC   C1B38479  39.073  39.758   6.313
 2746POPC   C2B38480  39.099  39.730   6.787
 2746POPC   C3B38481  39.168  39.559   7.191
 2746POPC   C4B38482  39.173  39.607   7.640
 2747POPC   NC338483  19.542  26.095   5.112
 2747POPC   PO438484  19.118  25.634   5.334
 2747POPC   GL138485  19.349  25.919   5.649
 2747POPC   GL238486  19.403  25.671   5.862
 2747POPC   C1A38487  19.260  26.127   6.093
 2747POPC   D2A38488  19.180  26.045   6.565
 2747POPC   C3A38489  19.168  26.256   7.018
 2747POPC   C4A38490  19.128  26.186   7.494
 2747POPC   C1B38491  19.589  25.756   6.202
 2747POPC   C2B38492  19.477  25.612   6.583
 2747POPC   C3B38493  19.386  25.798   6.959
 2747POPC   C4B38494  19.170  25.688   7.326
 2748POPC   NC338495   1.777  27.406   4.737
 2748POPC   PO438496   2.228  27.499   5.214
 2748POPC   GL138497   2.041  27.676   5.642
 2748POPC   GL238498   1.856  27.394   5.789
 2748POPC   C1A38499   2.186  27.790   6.116
 2748POPC   D2A38500   2.102  27.679   6.577
 2748POPC   C3A38501   2.051  27.952   6.969
 2748POPC   C4A38502   2.056  28.049   7.431
 2748POPC   C1B38503   1.726  27.562   6.208
 2748POPC   C2B38504   1.604  27.607   6.672
 2748POPC   C3B38505   1.734  27.568   7.080
 2748POPC   C4B38506   2.094  27.358   7.226
 2749POPC   NC338507  12.021  30.830   4.915
 2749POPC   PO438508  12.116  30.323   5.322
 2749POPC   GL138509  12.084  30.489   5.736
 2749POPC   GL238510  11.728  30.340   5.764
 2749POPC   C1A38511  12.189  30.785   6.097
 2749POPC   D2A38512  11.945  30.865   6.469
 2749POPC   C3A38513  12.140  30.788   6.867
 2749POPC   C4A38514  12.145  30.659   7.265
 2749POPC   C1B38515  11.835  30.425   6.187
 2749POPC   C2B38516  11.643  30.454   6.558
 2749POPC   C3B38517  11.806  30.419   6.940
 2749POPC   C4B38518  11.825  30.255   7.316
 2750POPC   NC338519  29.296  42.209   5.421
 2750POPC   PO438520  28.601  42.022   5.402
 2750POPC   GL138521  28.879  42.232   5.781
 2750POPC   GL238522  29.239  42.093   5.906
 2750POPC   C1A38523  28.983  42.429   6.207
 2750POPC   D2A38524  29.276  42.254   6.540
 2750POPC   C3A38525  29.137  42.297   6.968
 2750POPC   C4A38526  28.926  42.358   7.346
 2750POPC   C1B38527  29.436  42.502   6.017
 2750POPC   C2B38528  29.453  42.699   6.373
 2750POPC   C3B38529  29.282  42.755   6.804
 2750POPC   C4B38530  29.399  42.615   7.249
 2751POPC   NC338531  36.238  33.433   5.449
 2751POPC   PO438532  35.921  32.867   5.428
 2751POPC   GL138533  35.941  33.107   5.769
 2751POPC   GL238534  36.056  32.761   5.928
 2751POPC   C1A38535  36.087  33.194   6.148
 2751POPC   D2A38536  36.126  32.922   6.464
 2751POPC   C3A38537  36.122  33.153   6.827
 2751POPC   C4A38538  36.117  33.321   7.243
 2751POPC   C1B38539  36.348  32.526   6.210
 2751POPC   C2B38540  36.418  32.524   6.648
 2751POPC   C3B38541  36.156  32.670   6.979
 2751POPC   C4B38542  36.189  32.809   7.413
 2752POPC   NC338543  28.580  17.609   5.480
 2752POPC   PO438544  27.923  17.353   5.364
 2752POPC   GL138545  28.204  17.402   5.756
 2752POPC   GL238546  28.117  17.180   6.003
 2752POPC   C1A38547  28.542  17.399   6.147
 2752POPC   D2A38548  28.529  17.573   6.604
 2752POPC   C3A38549  28.609  17.367   7.031
 2752POPC   C4A38550  28.344  17.374   7.404
 2752POPC   C1B38551  28.095  17.601   6.223
 2752POPC   C2B38552  27.997  17.703   6.640
 2752POPC   C3B38553  28.186  17.759   7.033
 2752POPC   C4B38554  27.983  17.740   7.424
 2753POPC   NC338555   1.537  15.100   5.394
 2753POPC   PO438556   0.835  15.009   5.353
 2753POPC   GL138557   1.009  14.889   5.759
 2753POPC   GL238558   1.251  15.157   5.826
 2753POPC   C1A38559   1.236  14.805   6.195
 2753POPC   D2A38560   1.247  15.059   6.579
 2753POPC   C3A38561   1.114  14.944   6.988
 2753POPC   C4A38562   1.394  15.099   7.331
 2753POPC   C1B38563   1.483  15.312   6.198
 2753POPC   C2B38564   1.663  15.373   6.643
 2753POPC   C3B38565   1.611  15.512   7.080
 2753POPC   C4B38566   1.641  15.488   7.544
 2754POPC   NC338567  19.444  32.233   5.079
 2754POPC   PO438568  19.074  32.389   5.566
 2754POPC   GL138569  19.019  32.429   5.953
 2754POPC   GL238570  19.200  32.144   5.990
 2754POPC   C1A38571  19.074  32.408   6.380
 2754POPC   D2A38572  18.962  32.098   6.661
 2754POPC   C3A38573  19.142  32.149   7.027
 2754POPC   C4A38574  19.282  32.542   7.089
 2754POPC   C1B38575  19.193  31.868   6.272
 2754POPC   C2B38576  19.391  31.797   6.634
 2754POPC   C3B38577  19.634  31.680   6.930
 2754POPC   C4B38578  19.468  31.804   7.242
 2755POPC   NC338579  17.172  22.222   5.507
 2755POPC   PO438580  16.499  22.096   5.517
 2755POPC   GL138581  16.547  22.185   5.910
 2755POPC   GL238582  16.808  21.957   5.924
 2755POPC   C1A38583  16.613  22.227   6.350
 2755POPC   D2A38584  16.717  22.060   6.747
 2755POPC   C3A38585  16.607  22.288   7.093
 2755POPC   C4A38586  16.657  22.406   7.533
 2755POPC   C1B38587  16.872  21.778   6.307
 2755POPC   C2B38588  16.984  21.593   6.702
 2755POPC   C3B38589  17.001  21.807   7.096
 2755POPC   C4B38590  16.658  21.877   7.370
 2756POPC   NC338591  18.864  14.217   5.340
 2756POPC   PO438592  19.487  13.982   5.452
 2756POPC   GL138593  19.283  14.228   5.786
 2756POPC   GL238594  18.891  14.210   5.866
 2756POPC   C1A38595  19.236  14.336   6.236
 2756POPC   D2A38596  19.216  14.543   6.650
 2756POPC   C3A38597  18.936  14.581   6.981
 2756POPC   C4A38598  18.805  14.642   7.454
 2756POPC   C1B38599  18.713  14.296   6.289
 2756POPC   C2B38600  18.525  14.212   6.701
 2756POPC   C3B38601  18.589  14.254   7.121
 2756POPC   C4B38602  18.988  14.182   7.305
 2757POPC   NC338603   3.631  31.109   5.297
 2757POPC   PO438604   3.358  30.487   5.405
 2757POPC   GL138605   3.524  30.670   5.762
 2757POPC   GL238606   3.303  30.963   5.689
 2757POPC   C1A38607   3.585  30.574   6.207
 2757POPC   D2A38608   3.624  30.704   6.643
 2757POPC   C3A38609   3.761  30.415   6.959
 2757POPC   C4A38610   3.828  30.511   7.382
 2757POPC   C1B38611   3.373  31.059   6.110
 2757POPC   C2B38612   3.192  30.958   6.507
 2757POPC   C3B38613   3.317  31.029   6.908
 2757POPC   C4B38614   3.402  30.695   7.183
 2758POPC   NC338615  31.348  35.594   5.397
 2758POPC   PO438616  31.152  35.012   5.250
 2758POPC   GL138617  31.380  35.159   5.685
 2758POPC   GL238618  31.699  35.388   5.733
 2758POPC   C1A38619  31.471  35.210   6.148
 2758POPC   D2A38620  31.567  35.387   6.548
 2758POPC   C3A38621  31.263  35.456   6.848
 2758POPC   C4A38622  31.426  35.284   7.192
 2758POPC   C1B38623  31.648  35.703   6.108
 2758POPC   C2B38624  31.721  35.872   6.568
 2758POPC   C3B38625  31.720  35.697   7.028
 2758POPC   C4B38626  31.742  35.568   7.487
 2759POPC   NC338627  33.613  37.940   5.410
 2759POPC   PO438628  33.816  37.366   5.754
 2759POPC   GL138629  33.549  37.671   5.877
 2759POPC   GL238630  33.703  37.980   5.918
 2759POPC   C1A38631  33.429  37.766   6.305
 2759POPC   D2A38632  33.785  37.700   6.593
 2759POPC   C3A38633  33.719  37.493   6.997
 2759POPC   C4A38634  33.766  37.402   7.431
 2759POPC   C1B38635  34.012  38.138   6.231
 2759POPC   C2B38636  34.132  38.083   6.671
 2759POPC   C3B38637  33.865  37.977   7.014
 2759POPC   C4B38638  33.887  37.883   7.434
 2760POPC   NC338639  12.619  39.524   5.192
 2760POPC   PO438640  12.989  39.175   5.576
 2760POPC   GL138641  12.791  39.176   5.929
 2760POPC   GL238642  12.674  39.544   5.939
 2760POPC   C1A38643  12.977  39.124   6.315
 2760POPC   D2A38644  13.177  39.463   6.550
 2760POPC   C3A38645  12.940  39.483   6.915
 2760POPC   C4A38646  13.071  39.321   7.295
 2760POPC   C1B38647  12.509  39.331   6.328
 2760POPC   C2B38648  12.575  39.084   6.699
 2760POPC   C3B38649  12.538  39.164   7.149
 2760POPC   C4B38650  12.408  39.390   7.529
 2761POPC   NC338651  17.670  39.240   5.253
 2761POPC   PO438652  17.074  39.457   5.491
 2761POPC   GL138653  17.415  39.248   5.775
 2761POPC   GL238654  17.600  39.557   5.857
 2761POPC   C1A38655  17.586  39.069   6.213
 2761POPC   D2A38656  17.631  38.879   6.670
 2761POPC   C3A38657  17.696  39.124   7.096
 2761POPC   C4A38658  17.456  39.154   7.503
 2761POPC   C1B38659  17.295  39.496   6.233
 2761POPC   C2B38660  17.386  39.422   6.705
 2761POPC   C3B38661  17.340  39.505   7.159
 2761POPC   C4B38662  17.758  39.565   7.408
 2762POPC   NC338663  40.983  11.301   5.372
 2762POPC   PO438664  40.472  10.868   5.421
 2762POPC   GL138665  40.621  11.279   5.729
 2762POPC   GL238666  40.976  11.431   5.863
 2762POPC   C1A38667  40.591  11.418   6.175
 2762POPC   D2A38668  40.540  11.149   6.524
 2762POPC   C3A38669  40.673  11.343   6.908
 2762POPC   C4A38670  40.859  11.657   7.159
 2762POPC   C1B38671  40.979  11.090   6.223
 2762POPC   C2B38672  41.028  11.019   6.701
 2762POPC   C3B38673  41.125  11.232   7.127
 2762POPC   C4B38674  41.128  11.148   7.591
 2763POPC   NC338675  35.100  36.490   5.225
 2763POPC   PO438676  35.573  35.843   5.277
 2763POPC   GL138677  35.481  35.936   5.739
 2763POPC   GL238678  35.378  36.301   5.803
 2763POPC   C1A38679  35.506  36.059   6.211
 2763POPC   D2A38680  35.320  35.978   6.623
 2763POPC   C3A38681  35.630  35.963   6.968
 2763POPC   C4A38682  35.767  36.045   7.392
 2763POPC   C1B38683  35.124  36.463   6.149
 2763POPC   C2B38684  34.990  36.422   6.575
 2763POPC   C3B38685  35.184  36.345   6.963
 2763POPC   C4B38686  35.036  36.052   7.234
 2764POPC   NC338687  32.815  20.796   5.520
 2764POPC   PO438688  32.955  20.118   5.592
 2764POPC   GL138689  32.877  20.456   5.907
 2764POPC   GL238690  33.191  20.682   5.858
 2764POPC   C1A38691  32.864  20.517   6.363
 2764POPC   D2A38692  33.201  20.389   6.673
 2764POPC   C3A38693  33.273  20.374   7.128
 2764POPC   C4A38694  33.615  20.153   7.320
 2764POPC   C1B38695  33.229  20.870   6.247
 2764POPC   C2B38696  33.043  20.910   6.641
 2764POPC   C3B38697  33.240  20.859   7.010
 2764POPC   C4B38698  33.179  20.929   7.432
 2765POPC   NC338699  13.102   6.747   5.628
 2765POPC   PO438700  12.633   6.418   5.287
 2765POPC   GL138701  12.630   6.542   5.725
 2765POPC   GL238702  12.528   6.886   5.665
 2765POPC   C1A38703  12.762   6.468   6.228
 2765POPC   D2A38704  12.681   6.328   6.699
 2765POPC   C3A38705  12.833   6.626   6.988
 2765POPC   C4A38706  13.061   6.974   7.184
 2765POPC   C1B38707  12.472   6.885   6.131
 2765POPC   C2B38708  12.618   6.858   6.571
 2765POPC   C3B38709  12.564   7.051   6.990
 2765POPC   C4B38710  12.574   6.860   7.388
 2766POPC   NC338711  43.529   5.716   5.571
 2766POPC   PO438712  44.188   5.937   5.654
 2766POPC   GL138713  43.909   5.808   5.932
 2766POPC   GL238714  43.674   6.076   5.904
 2766POPC   C1A38715  43.869   5.865   6.376
 2766POPC   D2A38716  44.070   5.925   6.775
 2766POPC   C3A38717  44.078   5.607   7.110
 2766POPC   C4A38718  44.151   5.362   7.496
 2766POPC   C1B38719  43.467   6.223   6.290
 2766POPC   C2B38720  43.403   6.394   6.696
 2766POPC   C3B38721  43.631   6.133   6.974
 2766POPC   C4B38722  43.584   5.836   7.287
 2767POPC   NC338723  10.813  17.837   5.407
 2767POPC   PO438724  10.425  17.196   5.396
 2767POPC   GL138725  10.611  17.436   5.731
 2767POPC   GL238726  10.790  17.182   5.825
 2767POPC   C1A38727  10.812  17.623   6.103
 2767POPC   D2A38728  10.877  17.822   6.510
 2767POPC   C3A38729  10.829  17.628   6.902
 2767POPC   C4A38730  10.472  17.774   7.125
 2767POPC   C1B38731  10.515  17.220   6.224
 2767POPC   C2B38732  10.506  17.219   6.698
 2767POPC   C3B38733  10.540  17.250   7.134
 2767POPC   C4B38734  10.584  17.159   7.604
 2768POPC   NC338735  33.826   0.509   5.520
 2768POPC   PO438736  33.204   0.391   5.278
 2768POPC   GL138737  33.315   0.702   5.754
 2768POPC   GL238738  33.668   0.799   5.892
 2768POPC   C1A38739  33.378   0.638   6.253
 2768POPC   D2A38740  33.415   0.612   6.688
 2768POPC   C3A38741  33.737   0.504   6.963
 2768POPC   C4A38742  33.683   0.648   7.374
 2768POPC   C1B38743  33.873   0.508   6.214
 2768POPC   C2B38744  34.106   0.409   6.580
 2768POPC   C3B38745  34.077   0.096   6.903
 2768POPC   C4B38746  33.943   0.144   7.307
 2769POPC   NC338747  39.984  43.825   5.430
 2769POPC   PO438748  39.978  44.488   5.411
 2769POPC   GL138749  40.081  44.214   5.792
 2769POPC   GL238750  40.222  43.848   5.855
 2769POPC   C1A38751  39.916  44.203   6.240
 2769POPC   D2A38752  39.691  44.336   6.648
 2769POPC   C3A38753  39.837  44.185   7.059
 2769POPC   C4A38754  40.269  44.177   7.235
 2769POPC   C1B38755  40.205  43.775   6.261
 2769POPC   C2B38756  40.046  43.890   6.651
 2769POPC   C3B38757  40.083  43.733   7.055
 2769POPC   C4B38758  39.709  43.712   7.295
 2770POPC   NC338759  29.988  24.193   5.420
 2770POPC   PO438760  29.785  24.861   5.438
 2770POPC   GL138761  29.772  24.642   5.832
 2770POPC   GL238762  29.626  24.337   5.806
 2770POPC   C1A38763  29.980  24.532   6.248
 2770POPC   D2A38764  29.942  24.233   6.604
 2770POPC   C3A38765  30.033  24.448   7.018
 2770POPC   C4A38766  30.277  24.849   7.071
 2770POPC   C1B38767  29.495  24.378   6.255
 2770POPC   C2B38768  29.542  24.588   6.664
 2770POPC   C3B38769  29.546  24.527   7.127
 2770POPC   C4B38770  29.707  24.297   7.514
 2771POPC   NC338771   7.047  43.128   5.511
 2771POPC   PO438772   7.730  43.291   5.332
 2771POPC   GL138773   7.622  43.190   5.748
 2771POPC   GL238774   7.506  42.900   5.662
 2771POPC   C1A38775   7.577  43.404   6.171
 2771POPC   D2A38776   7.526  43.656   6.564
 2771POPC   C3A38777   7.410  43.351   6.833
 2771POPC   C4A38778   7.471  43.225   7.229
 2771POPC   C1B38779   7.496  42.827   6.115
 2771POPC   C2B38780   7.477  42.904   6.573
 2771POPC   C3B38781   7.280  42.803   6.996
 2771POPC   C4B38782   7.432  42.774   7.436
 2772POPC   NC338783  34.992  30.910   5.573
 2772POPC   PO438784  34.473  30.509   5.447
 2772POPC   GL138785  34.640  30.538   5.851
 2772POPC   GL238786  34.932  30.319   5.839
 2772POPC   C1A38787  34.499  30.753   6.260
 2772POPC   D2A38788  34.702  30.902   6.650
 2772POPC   C3A38789  34.602  30.643   7.018
 2772POPC   C4A38790  34.372  30.764   7.354
 2772POPC   C1B38791  34.923  30.451   6.294
 2772POPC   C2B38792  35.030  30.508   6.742
 2772POPC   C3B38793  34.973  30.327   7.176
 2772POPC   C4B38794  34.803  30.568   7.540
 2773POPC   NC338795   4.065   9.407   5.383
 2773POPC   PO438796   4.266   8.805   5.462
 2773POPC   GL138797   4.238   9.089   5.804
 2773POPC   GL238798   4.458   9.364   5.704
 2773POPC   C1A38799   4.138   9.005   6.237
 2773POPC   D2A38800   4.002   8.832   6.609
 2773POPC   C3A38801   4.299   8.963   6.843
 2773POPC   C4A38802   4.350   8.938   7.220
 2773POPC   C1B38803   4.477   9.398   6.153
 2773POPC   C2B38804   4.670   9.227   6.521
 2773POPC   C3B38805   4.674   9.337   6.952
 2773POPC   C4B38806   4.723   9.211   7.383
 2774POPC   NC338807   3.962  13.838   5.150
 2774POPC   PO438808   4.422  13.440   5.214
 2774POPC   GL138809   4.320  13.370   5.687
 2774POPC   GL238810   4.180  13.643   5.861
 2774POPC   C1A38811   4.224  13.191   6.128
 2774POPC   D2A38812   4.125  13.045   6.561
 2774POPC   C3A38813   4.211  13.331   6.898
 2774POPC   C4A38814   4.559  13.503   7.131
 2774POPC   C1B38815   4.309  13.921   6.199
 2774POPC   C2B38816   4.215  13.919   6.641
 2774POPC   C3B38817   4.227  13.945   7.084
 2774POPC   C4B38818   3.993  14.047   7.484
 2775POPC   NC338819  36.783   1.199   5.305
 2775POPC   PO438820  37.373   0.973   5.375
 2775POPC   GL138821  37.082   1.097   5.735
 2775POPC   GL238822  36.684   1.120   5.803
 2775POPC   C1A38823  37.000   1.464   6.028
 2775POPC   D2A38824  36.825   1.485   6.457
 2775POPC   C3A38825  36.979   1.138   6.745
 2775POPC   C4A38826  37.157   1.157   7.168
 2775POPC   C1B38827  36.890   0.994   6.204
 2775POPC   C2B38828  36.769   0.705   6.492
 2775POPC   C3B38829  36.680   0.666   6.884
 2775POPC   C4B38830  36.784   0.834   7.258
 2776POPC   NC338831   6.777  21.280   5.551
 2776POPC   PO438832   6.411  21.842   5.511
 2776POPC   GL138833   6.517  21.585   5.888
 2776POPC   GL238834   6.368  21.228   5.853
 2776POPC   C1A38835   6.894  21.581   6.189
 2776POPC   D2A38836   7.151  21.602   6.592
 2776POPC   C3A38837   6.932  21.547   6.977
 2776POPC   C4A38838   6.508  21.512   7.181
 2776POPC   C1B38839   6.528  21.229   6.273
 2776POPC   C2B38840   6.569  21.302   6.699
 2776POPC   C3B38841   6.692  21.063   7.058
 2776POPC   C4B38842   6.609  21.144   7.501
 2777POPC   NC338843  39.884  30.243   5.599
 2777POPC   PO438844  39.544  29.613   5.552
 2777POPC   GL138845  39.816  29.801   5.867
 2777POPC   GL238846  40.196  29.904   5.827
 2777POPC   C1A38847  39.923  29.954   6.257
 2777POPC   D2A38848  40.098  30.067   6.622
 2777POPC   C3A38849  39.992  29.937   6.989
 2777POPC   C4A38850  39.613  30.084   7.133
 2777POPC   C1B38851  40.394  30.120   6.199
 2777POPC   C2B38852  40.568  29.910   6.598
 2777POPC   C3B38853  40.555  29.876   7.053
 2777POPC   C4B38854  40.430  29.631   7.438
 2778POPC   NC338855  13.420  32.832   5.267
 2778POPC   PO438856  12.764  32.748   5.175
 2778POPC   GL138857  12.988  32.876   5.585
 2778POPC   GL238858  12.801  33.154   5.726
 2778POPC   C1A38859  13.024  32.838   6.069
 2778POPC   D2A38860  13.019  33.102   6.469
 2778POPC   C3A38861  12.865  32.934   6.864
 2778POPC   C4A38862  13.029  32.793   7.217
 2778POPC   C1B38863  12.613  33.139   6.147
 2778POPC   C2B38864  12.469  33.072   6.585
 2778POPC   C3B38865  12.468  33.257   7.013
 2778POPC   C4B38866  12.239  33.137   7.413
 2779POPC   NC338867   6.521  42.479   5.415
 2779POPC   PO438868   7.065  41.981   5.359
 2779POPC   GL138869   6.812  42.181   5.755
 2779POPC   GL238870   6.464  42.212   5.860
 2779POPC   C1A38871   6.802  42.210   6.234
 2779POPC   D2A38872   6.547  42.154   6.607
 2779POPC   C3A38873   6.775  42.234   6.981
 2779POPC   C4A38874   6.747  42.088   7.410
 2779POPC   C1B38875   6.459  42.595   6.167
 2779POPC   C2B38876   6.261  42.707   6.540
 2779POPC   C3B38877   6.312  42.501   6.923
 2779POPC   C4B38878   6.305  42.141   7.158
 2780POPC   NC338879  29.232  34.739   5.141
 2780POPC   PO438880  28.641  34.925   5.251
 2780POPC   GL138881  29.033  34.879   5.593
 2780POPC   GL238882  29.095  34.532   5.705
 2780POPC   C1A38883  29.354  34.870   5.978
 2780POPC   D2A38884  29.250  34.793   6.434
 2780POPC   C3A38885  29.413  34.794   6.857
 2780POPC   C4A38886  29.240  34.768   7.219
 2780POPC   C1B38887  29.337  34.384   6.110
 2780POPC   C2B38888  29.552  34.379   6.546
 2780POPC   C3B38889  29.415  34.303   6.988
 2780POPC   C4B38890  29.012  34.260   7.197
 2781POPC   NC338891   6.861   0.567   5.316
 2781POPC   PO438892   6.381   0.146   5.384
 2781POPC   GL138893   6.574   0.494   5.748
 2781POPC   GL238894   6.953   0.587   5.827
 2781POPC   C1A38895   6.648   0.501   6.221
 2781POPC   D2A38896   6.535   0.407   6.629
 2781POPC   C3A38897   6.772   0.631   6.933
 2781POPC   C4A38898   6.791   0.609   7.362
 2781POPC   C1B38899   7.014   0.201   6.055
 2781POPC   C2B38900   6.822   0.041   6.446
 2781POPC   C3B38901   6.911   0.127   6.879
 2781POPC   C4B38902   6.851   0.089   7.301
 2782POPC   NC338903  11.201   3.036   5.531
 2782POPC   PO438904  11.492   2.456   5.223
 2782POPC   GL138905  11.507   2.579   5.716
 2782POPC   GL238906  11.634   2.872   5.759
 2782POPC   C1A38907  11.260   2.617   6.154
 2782POPC   D2A38908  11.100   2.840   6.493
 2782POPC   C3A38909  11.055   2.706   6.883
 2782POPC   C4A38910  11.167   2.820   7.262
 2782POPC   C1B38911  11.739   2.725   6.144
 2782POPC   C2B38912  11.616   2.854   6.491
 2782POPC   C3B38913  11.544   2.827   6.897
 2782POPC   C4B38914  11.664   2.657   7.248
 2783POPC   NC338915  21.635  37.429   5.513
 2783POPC   PO438916  21.267  38.067   5.475
 2783POPC   GL138917  21.314  37.762   5.740
 2783POPC   GL238918  21.680  37.846   5.821
 2783POPC   C1A38919  21.324  37.587   6.138
 2783POPC   D2A38920  21.476  37.840   6.464
 2783POPC   C3A38921  21.155  37.914   6.757
 2783POPC   C4A38922  21.268  37.709   7.093
 2783POPC   C1B38923  21.879  37.619   6.159
 2783POPC   C2B38924  21.893  37.517   6.579
 2783POPC   C3B38925  21.553  37.407   6.791
 2783POPC   C4B38926  21.450  37.220   7.163
 2784POPC   NC338927  28.619  42.523   5.449
 2784POPC   PO438928  28.008  42.227   5.368
 2784POPC   GL138929  28.265  42.248   5.760
 2784POPC   GL238930  28.374  41.909   5.855
 2784POPC   C1A38931  28.137  42.377   6.211
 2784POPC   D2A38932  27.904  42.314   6.636
 2784POPC   C3A38933  28.175  42.361   7.000
 2784POPC   C4A38934  28.532  42.599   7.146
 2784POPC   C1B38935  28.575  42.124   6.204
 2784POPC   C2B38936  28.724  42.282   6.629
 2784POPC   C3B38937  28.634  42.102   7.028
 2784POPC   C4B38938  28.263  41.874   7.112
 2785POPC   NC338939  12.788  26.467   5.207
 2785POPC   PO438940  12.750  27.109   5.375
 2785POPC   GL138941  12.772  26.772   5.745
 2785POPC   GL238942  12.944  26.444   5.728
 2785POPC   C1A38943  12.808  26.659   6.228
 2785POPC   D2A38944  12.579  26.561   6.661
 2785POPC   C3A38945  12.634  26.877   7.052
 2785POPC   C4A38946  12.683  27.058   7.516
 2785POPC   C1B38947  13.081  26.212   6.100
 2785POPC   C2B38948  13.000  26.266   6.553
 2785POPC   C3B38949  12.988  26.483   6.963
 2785POPC   C4B38950  13.063  26.763   7.323
 2786POPC   NC338951  28.891  22.865   5.356
 2786POPC   PO438952  28.311  23.094   5.373
 2786POPC   GL138953  28.200  22.948   5.790
 2786POPC   GL238954  28.202  22.577   5.827
 2786POPC   C1A38955  28.536  22.838   6.133
 2786POPC   D2A38956  28.535  22.615   6.526
 2786POPC   C3A38957  28.657  22.834   6.881
 2786POPC   C4A38958  28.551  22.858   7.267
 2786POPC   C1B38959  28.044  22.739   6.247
 2786POPC   C2B38960  28.110  22.832   6.702
 2786POPC   C3B38961  28.073  22.902   7.136
 2786POPC   C4B38962  27.820  22.890   7.508
 2787POPC   NC338963   4.176  37.842   5.394
 2787POPC   PO438964   4.258  37.160   5.205
 2787POPC   GL138965   4.300  37.355   5.706
 2787POPC   GL238966   4.173  37.681   5.860
 2787POPC   C1A38967   4.203  37.349   6.218
 2787POPC   D2A38968   4.426  37.501   6.605
 2787POPC   C3A38969   4.342  37.579   7.068
 2787POPC   C4A38970   4.311  37.260   7.396
 2787POPC   C1B38971   4.390  37.833   6.226
 2787POPC   C2B38972   4.370  38.017   6.655
 2787POPC   C3B38973   4.116  38.067   7.016
 2787POPC   C4B38974   4.279  38.044   7.408
 2788POPC   NC338975   1.472   7.899   5.385
 2788POPC   PO438976   1.046   8.476   5.395
 2788POPC   GL138977   1.188   8.255   5.745
 2788POPC   GL238978   1.499   8.418   5.810
 2788POPC   C1A38979   1.007   8.155   6.166
 2788POPC   D2A38980   1.117   8.314   6.600
 2788POPC   C3A38981   0.989   8.097   6.978
 2788POPC   C4A38982   1.196   7.750   7.198
 2788POPC   C1B38983   1.501   8.205   6.213
 2788POPC   C2B38984   1.637   8.281   6.651
 2788POPC   C3B38985   1.463   8.292   7.078
 2788POPC   C4B38986   1.363   8.570   7.467
 2789POPC   NC338987  11.010  14.514   5.543
 2789POPC   PO438988  10.364  14.350   5.465
 2789POPC   GL138989  10.568  14.517   5.819
 2789POPC   GL238990  10.799  14.224   5.903
 2789POPC   C1A38991  10.639  14.568   6.263
 2789POPC   D2A38992  10.905  14.436   6.603
 2789POPC   C3A38993  10.697  14.640   6.952
 2789POPC   C4A38994  10.569  14.557   7.386
 2789POPC   C1B38995  10.599  14.057   6.270
 2789POPC   C2B38996  10.475  14.196   6.633
 2789POPC   C3B38997  10.628  14.139   6.997
 2789POPC   C4B38998  10.407  14.081   7.321
 2790POPC   NC338999  41.060  37.364   5.197
 2790POPC   PO439000  40.870  37.880   5.359
 2790POPC   GL139001  40.905  37.888   5.813
 2790POPC   GL239002  40.584  37.749   5.883
 2790POPC   C1A39003  40.914  37.770   6.285
 2790POPC   D2A39004  40.704  37.553   6.650
 2790POPC   C3A39005  40.803  37.519   7.107
 2790POPC   C4A39006  40.820  37.837   7.431
 2790POPC   C1B39007  40.365  37.730   6.304
 2790POPC   C2B39008  40.257  37.827   6.768
 2790POPC   C3B39009  40.345  37.707   7.212
 2790POPC   C4B39010  40.499  37.487   7.598
 2791POPC   NC339011  34.815  20.850   5.331
 2791POPC   PO439012  34.137  20.938   5.494
 2791POPC   GL139013  34.540  20.818   5.752
 2791POPC   GL239014  34.709  20.470   5.754
 2791POPC   C1A39015  34.581  20.782   6.181
 2791POPC   D2A39016  34.794  20.648   6.530
 2791POPC   C3A39017  34.624  20.700   6.927
 2791POPC   C4A39018  34.441  20.597   7.311
 2791POPC   C1B39019  34.620  20.247   6.168
 2791POPC   C2B39020  34.506  20.209   6.604
 2791POPC   C3B39021  34.676  20.197   7.021
 2791POPC   C4B39022  34.516  20.055   7.415
 2792POPC   NC339023  38.490   6.564   5.450
 2792POPC   PO439024  37.954   7.131   5.502
 2792POPC   GL139025  38.210   6.857   5.755
 2792POPC   GL239026  38.568   6.936   5.812
 2792POPC   C1A39027  38.301   6.585   6.093
 2792POPC   D2A39028  38.268   6.527   6.526
 2792POPC   C3A39029  38.292   6.670   6.961
 2792POPC   C4A39030  38.167   6.642   7.384
 2792POPC   C1B39031  38.782   6.803   6.187
 2792POPC   C2B39032  38.719   6.728   6.637
 2792POPC   C3B39033  38.755   6.950   7.030
 2792POPC   C4B39034  38.669   6.918   7.484
 2793POPC   NC339035  14.594  12.420   5.554
 2793POPC   PO439036  14.160  11.909   5.477
 2793POPC   GL139037  14.277  12.085   5.832
 2793POPC   GL239038  14.631  11.960   5.814
 2793POPC   C1A39039  14.122  12.021   6.276
 2793POPC   D2A39040  14.057  12.203   6.697
 2793POPC   C3A39041  14.114  11.944   7.064
 2793POPC   C4A39042  14.246  12.246   7.424
 2793POPC   C1B39043  14.599  12.149   6.216
 2793POPC   C2B39044  14.508  11.974   6.624
 2793POPC   C3B39045  14.548  12.170   7.014
 2793POPC   C4B39046  14.678  11.938   7.383
 2794POPC   NC339047  20.346   7.908   5.536
 2794POPC   PO439048  19.742   8.109   5.470
 2794POPC   GL139049  19.982   8.073   5.870
 2794POPC   GL239050  20.285   8.288   5.914
 2794POPC   C1A39051  19.908   8.125   6.328
 2794POPC   D2A39052  19.725   8.223   6.755
 2794POPC   C3A39053  19.808   8.066   7.182
 2794POPC   C4A39054  19.575   8.128   7.579
 2794POPC   C1B39055  20.423   8.145   6.315
 2794POPC   C2B39056  20.240   8.126   6.736
 2794POPC   C3B39057  20.207   8.375   7.101
 2794POPC   C4B39058  19.970   8.468   7.502
 2795POPC   NC339059  31.256  44.394   5.427
 2795POPC   PO439060  31.780  44.831   5.422
 2795POPC   GL139061  31.538  44.691   5.763
 2795POPC   GL239062  31.261  44.950   5.787
 2795POPC   C1A39063  31.434  44.376   6.104
 2795POPC   D2A39064  31.564  44.160   6.470
 2795POPC   C3A39065  31.509  44.276   6.898
 2795POPC   C4A39066  31.635  44.430   7.311
 2795POPC   C1B39067  31.444  44.879   6.222
 2795POPC   C2B39068  31.367  44.664   6.580
 2795POPC   C3B39069  31.436  44.784   7.003
 2795POPC   C4B39070  31.162  44.986   7.260
 2796POPC   NC339071  28.725  15.361   5.560
 2796POPC   PO439072  28.174  15.125   5.212
 2796POPC   GL139073  28.442  14.963   5.680
 2796POPC   GL239074  28.773  14.916   5.824
 2796POPC   C1A39075  28.437  15.065   6.165
 2796POPC   D2A39076  28.054  15.136   6.386
 2796POPC   C3A39077  28.051  15.332   6.778
 2796POPC   C4A39078  28.205  15.336   7.196
 2796POPC   C1B39079  28.987  15.054   6.219
 2796POPC   C2B39080  28.786  15.201   6.605
 2796POPC   C3B39081  28.678  15.172   7.039
 2796POPC   C4B39082  28.846  14.904   7.366
 2797POPC   NC339083  42.496  12.182   5.012
 2797POPC   PO439084  42.382  12.784   5.387
 2797POPC   GL139085  42.200  12.840   5.793
 2797POPC   GL239086  42.260  12.522   5.817
 2797POPC   C1A39087  42.265  12.765   6.268
 2797POPC   D2A39088  42.508  12.845   6.645
 2797POPC   C3A39089  42.196  12.992   6.985
 2797POPC   C4A39090  42.299  13.255   7.354
 2797POPC   C1B39091  41.850  12.560   6.051
 2797POPC   C2B39092  41.795  12.476   6.500
 2797POPC   C3B39093  42.153  12.504   6.742
 2797POPC   C4B39094  42.366  12.540   7.149
 2798POPC   NC339095   1.529   9.698   5.403
 2798POPC   PO439096   2.093  10.097   5.422
 2798POPC   GL139097   1.966   9.766   5.703
 2798POPC   GL239098   2.035   9.993   5.966
 2798POPC   C1A39099   2.016   9.483   6.085
 2798POPC   D2A39100   2.021   9.736   6.444
 2798POPC   C3A39101   1.997   9.628   6.858
 2798POPC   C4A39102   1.901   9.429   7.245
 2798POPC   C1B39103   2.295  10.143   6.314
 2798POPC   C2B39104   2.302  10.072   6.794
 2798POPC   C3B39105   2.230   9.886   7.232
 2798POPC   C4B39106   2.285  10.056   7.688
 2799POPC   NC339107  35.178  14.105   5.389
 2799POPC   PO439108  35.118  14.762   5.309
 2799POPC   GL139109  35.267  14.470   5.712
 2799POPC   GL239110  35.002  14.200   5.833
 2799POPC   C1A39111  35.488  14.455   6.143
 2799POPC   D2A39112  35.615  14.344   6.570
 2799POPC   C3A39113  35.494  14.627   6.871
 2799POPC   C4A39114  35.334  14.568   7.243
 2799POPC   C1B39115  34.977  14.390   6.165
 2799POPC   C2B39116  35.121  14.511   6.532
 2799POPC   C3B39117  35.157  14.239   6.859
 2799POPC   C4B39118  34.920  14.234   7.227
 2800POPC   NC339119  16.032  22.024   5.496
 2800POPC   PO439120  16.121  22.633   5.374
 2800POPC   GL139121  16.087  22.413   5.804
 2800POPC   GL239122  15.771  22.403   5.963
 2800POPC   C1A39123  16.118  22.149   6.233
 2800POPC   D2A39124  16.192  22.226   6.704
 2800POPC   C3A39125  16.200  21.970   7.078
 2800POPC   C4A39126  16.230  22.081   7.528
 2800POPC   C1B39127  15.569  22.097   6.232
 2800POPC   C2B39128  15.586  22.192   6.651
 2800POPC   C3B39129  15.734  22.307   7.035
 2800POPC   C4B39130  15.768  22.025   7.349
 2801POPC   NC339131  15.447   8.591   5.352
 2801POPC   PO439132  15.366   9.215   5.263
 2801POPC   GL139133  15.290   9.000   5.690
 2801POPC   GL239134  15.344   8.662   5.854
 2801POPC   C1A39135  15.140   9.104   6.125
 2801POPC   D2A39136  15.188   9.302   6.553
 2801POPC   C3A39137  15.349   9.158   6.983
 2801POPC   C4A39138  15.230   9.246   7.429
 2801POPC   C1B39139  15.151   8.602   6.264
 2801POPC   C2B39140  15.214   8.765   6.665
 2801POPC   C3B39141  15.225   8.569   7.052
 2801POPC   C4B39142  15.290   8.734   7.443
 2802POPC   NC339143   2.619  16.620   5.313
 2802POPC   PO439144   3.338  16.594   5.369
 2802POPC   GL139145   2.945  16.705   5.703
 2802POPC   GL239146   2.587  16.556   5.802
 2802POPC   C1A39147   2.838  16.911   6.124
 2802POPC   D2A39148   2.986  16.913   6.563
 2802POPC   C3A39149   2.911  16.627   6.891
 2802POPC   C4A39150   2.710  16.737   7.309
 2802POPC   C1B39151   2.411  16.637   6.204
 2802POPC   C2B39152   2.500  16.552   6.621
 2802POPC   C3B39153   2.398  16.454   7.041
 2802POPC   C4B39154   2.209  16.655   7.424
 2803POPC   NC339155   3.867  21.612   5.535
 2803POPC   PO439156   3.357  21.223   5.524
 2803POPC   GL139157   3.661  21.290   5.866
 2803POPC   GL239158   3.763  21.610   6.035
 2803POPC   C1A39159   3.860  21.131   6.229
 2803POPC   D2A39160   3.777  21.335   6.630
 2803POPC   C3A39161   3.755  21.133   7.028
 2803POPC   C4A39162   3.952  21.195   7.444
 2803POPC   C1B39163   3.393  21.450   6.272
 2803POPC   C2B39164   3.286  21.537   6.709
 2803POPC   C3B39165   3.419  21.578   7.153
 2803POPC   C4B39166   3.296  21.889   7.481
 2804POPC   NC339167  32.294  14.070   5.233
 2804POPC   PO439168  32.369  14.735   5.370
 2804POPC   GL139169  32.265  14.503   5.759
 2804POPC   GL239170  32.282  14.116   5.760
 2804POPC   C1A39171  32.251  14.421   6.204
 2804POPC   D2A39172  32.515  14.434   6.576
 2804POPC   C3A39173  32.421  14.560   7.005
 2804POPC   C4A39174  32.051  14.649   7.227
 2804POPC   C1B39175  32.010  13.950   6.122
 2804POPC   C2B39176  32.119  14.063   6.568
 2804POPC   C3B39177  32.101  14.162   7.011
 2804POPC   C4B39178  32.284  14.211   7.421
 2805POPC   NC339179  17.498  35.955   5.437
 2805POPC   PO439180  17.272  36.608   5.626
 2805POPC   GL139181  17.469  36.276   5.856
 2805POPC   GL239182  17.325  35.947   5.908
 2805POPC   C1A39183  17.593  36.256   6.267
 2805POPC   D2A39184  17.476  36.482   6.636
 2805POPC   C3A39185  17.516  36.303   7.037
 2805POPC   C4A39186  17.348  36.566   7.318
 2805POPC   C1B39187  17.270  35.874   6.315
 2805POPC   C2B39188  17.248  36.019   6.703
 2805POPC   C3B39189  17.259  35.734   7.012
 2805POPC   C4B39190  17.394  35.813   7.448
 2806POPC   NC339191  18.148  13.337   5.386
 2806POPC   PO439192  18.473  13.948   5.517
 2806POPC   GL139193  18.328  13.726   5.875
 2806POPC   GL239194  18.078  13.575   5.830
 2806POPC   C1A39195  18.311  13.475   6.280
 2806POPC   D2A39196  18.084  13.479   6.688
 2806POPC   C3A39197  18.327  13.483   7.081
 2806POPC   C4A39198  18.760  13.315   7.084
 2806POPC   C1B39199  17.855  13.707   6.220
 2806POPC   C2B39200  17.640  13.682   6.640
 2806POPC   C3B39201  17.796  13.690   7.075
 2806POPC   C4B39202  17.885  13.361   7.377
 2807POPC   NC339203  43.706   2.139   5.285
 2807POPC   PO439204  44.205   1.684   5.399
 2807POPC   GL139205  44.032   2.005   5.715
 2807POPC   GL239206  43.683   1.939   5.816
 2807POPC   C1A39207  44.194   2.203   6.121
 2807POPC   D2A39208  44.411   2.068   6.516
 2807POPC   C3A39209  44.143   2.054   6.876
 2807POPC   C4A39210  44.058   2.130   7.303
 2807POPC   C1B39211  43.667   2.247   6.191
 2807POPC   C2B39212  43.733   2.423   6.647
 2807POPC   C3B39213  43.615   2.429   7.109
 2807POPC   C4B39214  43.608   2.218   7.525
 2808POPC   NC339215  18.671  43.121   5.470
 2808POPC   PO439216  18.036  42.939   5.217
 2808POPC   GL139217  18.067  43.018   5.637
 2808POPC   GL239218  17.939  42.733   5.791
 2808POPC   C1A39219  18.144  43.278   6.005
 2808POPC   D2A39220  18.060  43.261   6.475
 2808POPC   C3A39221  18.437  43.337   6.755
 2808POPC   C4A39222  18.474  43.278   7.214
 2808POPC   C1B39223  18.169  42.799   6.179
 2808POPC   C2B39224  18.386  42.823   6.581
 2808POPC   C3B39225  18.172  42.932   6.937
 2808POPC   C4B39226  17.989  43.067   7.285
 2809POPC   NC339227  29.595  40.457   5.473
 2809POPC   PO439228  30.253  40.832   5.394
 2809POPC   GL139229  30.002  40.855   5.795
 2809POPC   GL239230  29.941  40.495   5.869
 2809POPC   C1A39231  30.032  40.796   6.268
 2809POPC   D2A39232  30.093  40.423   6.524
 2809POPC   C3A39233  30.230  40.499   6.941
 2809POPC   C4A39234  30.095  40.823   7.180
 2809POPC   C1B39235  29.566  40.651   6.142
 2809POPC   C2B39236  29.567  41.107   6.297
 2809POPC   C3B39237  29.644  41.244   6.754
 2809POPC   C4B39238  29.609  41.057   7.192
 2810POPC   NC339239  38.586  41.097   5.620
 2810POPC   PO439240  38.605  40.476   5.346
 2810POPC   GL139241  38.374  40.618   5.707
 2810POPC   GL239242  38.701  40.664   5.846
 2810POPC   C1A39243  38.338  40.610   6.178
 2810POPC   D2A39244  38.680  40.596   6.501
 2810POPC   C3A39245  38.490  40.628   6.871
 2810POPC   C4A39246  38.167  40.518   7.154
 2810POPC   C1B39247  38.722  40.999   6.214
 2810POPC   C2B39248  38.379  41.069   6.485
 2810POPC   C3B39249  38.239  41.079   6.886
 2810POPC   C4B39250  38.413  40.978   7.249
 2811POPC   NC339251  23.729  39.401   5.378
 2811POPC   PO439252  23.237  39.020   5.696
 2811POPC   GL139253  23.580  39.243   5.925
 2811POPC   GL239254  23.927  39.436   5.838
 2811POPC   C1A39255  23.565  39.068   6.347
 2811POPC   D2A39256  23.318  39.202   6.695
 2811POPC   C3A39257  23.521  39.462   6.999
 2811POPC   C4A39258  23.525  39.189   7.314
 2811POPC   C1B39259  24.033  39.266   6.222
 2811POPC   C2B39260  23.832  39.473   6.551
 2811POPC   C3B39261  24.005  39.588   6.910
 2811POPC   C4B39262  23.994  39.358   7.260
 2812POPC   NC339263  44.320  13.650   5.128
 2812POPC   PO439264  43.759  13.551   5.560
 2812POPC   GL139265  44.059  13.557   5.849
 2812POPC   GL239266  44.217  13.237   5.801
 2812POPC   C1A39267  43.985  13.736   6.249
 2812POPC   D2A39268  43.893  13.548   6.653
 2812POPC   C3A39269  43.878  13.742   7.066
 2812POPC   C4A39270  43.488  13.905   7.166
 2812POPC   C1B39271  44.147  13.222   6.252
 2812POPC   C2B39272  44.088  13.082   6.678
 2812POPC   C3B39273  44.203  13.339   7.007
 2812POPC   C4B39274  44.099  13.390   7.432
 2813POPC   NC339275  31.923  43.654   5.510
 2813POPC   PO439276  32.369  44.101   5.554
 2813POPC   GL139277  32.169  43.894   5.888
 2813POPC   GL239278  31.866  44.087   5.954
 2813POPC   C1A39279  32.251  43.519   6.165
 2813POPC   D2A39280  32.158  43.460   6.601
 2813POPC   C3A39281  32.432  43.475   6.955
 2813POPC   C4A39282  32.461  43.829   7.229
 2813POPC   C1B39283  32.039  43.994   6.367
 2813POPC   C2B39284  32.007  44.167   6.782
 2813POPC   C3B39285  32.069  44.169   7.227
 2813POPC   C4B39286  32.199  44.031   7.653
 2814POPC   NC339287   1.519  37.230   5.371
 2814POPC   PO439288   1.280  37.834   5.421
 2814POPC   GL139289   1.444  37.639   5.762
 2814POPC   GL239290   1.560  37.944   5.859
 2814POPC   C1A39291   1.327  37.532   6.224
 2814POPC   D2A39292   1.098  37.673   6.602
 2814POPC   C3A39293   1.304  37.671   7.000
 2814POPC   C4A39294   1.133  37.520   7.375
 2814POPC   C1B39295   1.168  38.004   6.126
 2814POPC   C2B39296   0.944  38.156   6.522
 2814POPC   C3B39297   0.965  38.060   6.975
 2814POPC   C4B39298   1.247  38.052   7.338
 2815POPC   NC339299  37.353   3.856   5.631
 2815POPC   PO439300  37.631   3.225   5.509
 2815POPC   GL139301  37.691   3.226   5.914
 2815POPC   GL239302  37.747   3.597   5.893
 2815POPC   C1A39303  37.515   3.298   6.317
 2815POPC   D2A39304  37.553   3.584   6.664
 2815POPC   C3A39305  37.799   3.420   6.962
 2815POPC   C4A39306  37.929   3.357   7.385
 2815POPC   C1B39307  37.562   3.854   6.236
 2815POPC   C2B39308  37.286   4.019   6.552
 2815POPC   C3B39309  37.339   3.929   7.011
 2815POPC   C4B39310  37.768   3.896   7.251
 2816POPC   NC339311   8.760  18.954   5.160
 2816POPC   PO439312   8.105  19.044   5.454
 2816POPC   GL139313   8.321  19.166   5.789
 2816POPC   GL239314   8.064  19.371   5.909
 2816POPC   C1A39315   8.563  19.209   6.140
 2816POPC   D2A39316   8.362  19.267   6.518
 2816POPC   C3A39317   8.368  18.932   6.784
 2816POPC   C4A39318   8.251  19.065   7.132
 2816POPC   C1B39319   7.834  19.547   6.233
 2816POPC   C2B39320   7.634  19.418   6.623
 2816POPC   C3B39321   7.875  19.403   7.003
 2816POPC   C4B39322   7.938  19.312   7.444
 2817POPC   NC339323  23.544  44.523   5.465
 2817POPC   PO439324  24.191  44.556   5.532
 2817POPC   GL139325  23.872  44.432   5.881
 2817POPC   GL239326  23.506  44.316   5.938
 2817POPC   C1A39327  23.650  44.694   6.212
 2817POPC   D2A39328  23.593  44.622   6.643
 2817POPC   C3A39329  23.979  44.694   6.874
 2817POPC   C4A39330  24.013  44.687   7.322
 2817POPC   C1B39331  23.710  44.177   6.322
 2817POPC   C2B39332  23.525  44.120   6.739
 2817POPC   C3B39333  23.702  44.330   7.075
 2817POPC   C4B39334  23.579  44.480   7.500
 2818POPC   NC339335  17.398  34.152   5.502
 2818POPC   PO439336  17.896  34.703   5.417
 2818POPC   GL139337  17.797  34.390   5.764
 2818POPC   GL239338  17.469  34.487   5.894
 2818POPC   C1A39339  17.827  34.415   6.242
 2818POPC   D2A39340  17.746  34.631   6.664
 2818POPC   C3A39341  17.801  34.371   7.072
 2818POPC   C4A39342  17.604  34.468   7.505
 2818POPC   C1B39343  17.364  34.640   6.312
 2818POPC   C2B39344  17.163  34.412   6.664
 2818POPC   C3B39345  17.303  34.426   7.051
 2818POPC   C4B39346  17.533  34.818   7.113
 2819POPC   NC339347  11.754  40.957   5.705
 2819POPC   PO439348  11.189  40.941   5.433
 2819POPC   GL139349  11.215  40.841   5.847
 2819POPC   GL239350  11.231  41.169   5.916
 2819POPC   C1A39351  11.217  40.607   6.265
 2819POPC   D2A39352  10.973  40.542   6.638
 2819POPC   C3A39353  11.180  40.796   6.947
 2819POPC   C4A39354  11.431  40.562   7.181
 2819POPC   C1B39355  11.507  41.023   6.282
 2819POPC   C2B39356  11.639  40.842   6.662
 2819POPC   C3B39357  11.674  41.031   7.073
 2819POPC   C4B39358  11.381  41.158   7.393
 2820POPC   NC339359  35.593  23.895   5.324
 2820POPC   PO439360  35.085  23.489   5.373
 2820POPC   GL139361  35.065  23.592   5.784
 2820POPC   GL239362  35.306  23.850   5.749
 2820POPC   C1A39363  35.050  23.602   6.230
 2820POPC   D2A39364  35.366  23.735   6.528
 2820POPC   C3A39365  35.437  23.621   6.955
 2820POPC   C4A39366  35.148  23.682   7.296
 2820POPC   C1B39367  35.605  23.862   6.092
 2820POPC   C2B39368  35.819  23.973   6.477
 2820POPC   C3B39369  35.722  24.185   6.867
 2820POPC   C4B39370  35.650  24.008   7.263
 2821POPC   NC339371  13.667  31.778   5.386
 2821POPC   PO439372  13.182  31.509   5.717
 2821POPC   GL139373  13.471  31.819   5.905
 2821POPC   GL239374  13.822  31.780   5.877
 2821POPC   C1A39375  13.328  31.944   6.299
 2821POPC   D2A39376  13.274  31.733   6.681
 2821POPC   C3A39377  13.691  31.689   6.852
 2821POPC   C4A39378  13.768  31.653   7.277
 2821POPC   C1B39379  13.793  31.662   6.324
 2821POPC   C2B39380  14.080  31.456   6.621
 2821POPC   C3B39381  13.971  31.262   7.026
 2821POPC   C4B39382  13.997  31.075   7.449
 2822POPC   NC339383   7.833  11.045   5.588
 2822POPC   PO439384   7.391  10.583   5.325
 2822POPC   GL139385   7.457  10.434   5.800
 2822POPC   GL239386   7.490  10.764   5.925
 2822POPC   C1A39387   7.339  10.429   6.280
 2822POPC   D2A39388   7.322  10.630   6.703
 2822POPC   C3A39389   7.510  10.475   7.060
 2822POPC   C4A39390   7.298  10.248   7.321
 2822POPC   C1B39391   7.475  10.947   6.342
 2822POPC   C2B39392   7.694  10.980   6.729
 2822POPC   C3B39393   7.712  10.927   7.195
 2822POPC   C4B39394   7.826  10.906   7.648
 2823POPC   NC339395   7.524  15.019   5.435
 2823POPC   PO439396   6.856  15.270   5.334
 2823POPC   GL139397   7.166  15.289   5.707
 2823POPC   GL239398   7.259  14.972   5.867
 2823POPC   C1A39399   7.423  15.397   6.104
 2823POPC   D2A39400   7.686  15.355   6.514
 2823POPC   C3A39401   7.526  15.484   6.932
 2823POPC   C4A39402   7.137  15.421   7.183
 2823POPC   C1B39403   7.063  14.913   6.217
 2823POPC   C2B39404   7.005  14.953   6.631
 2823POPC   C3B39405   7.364  15.019   6.827
 2823POPC   C4B39406   7.411  14.990   7.248
 2824POPC   NC339407   4.586  13.837   5.401
 2824POPC   PO439408   5.263  13.929   5.447
 2824POPC   GL139409   5.146  13.622   5.768
 2824POPC   GL239410   4.811  13.515   5.749
 2824POPC   C1A39411   5.255  13.450   6.176
 2824POPC   D2A39412   5.371  13.553   6.597
 2824POPC   C3A39413   5.094  13.484   6.970
 2824POPC   C4A39414   5.420  13.649   7.326
 2824POPC   C1B39415   4.773  13.684   6.190
 2824POPC   C2B39416   4.697  13.688   6.663
 2824POPC   C3B39417   4.754  13.983   7.029
 2824POPC   C4B39418   4.778  14.213   7.434
 2825POPC   NC339419  32.897  36.077   5.529
 2825POPC   PO439420  33.390  35.956   5.055
 2825POPC   GL139421  33.396  36.044   5.648
 2825POPC   GL239422  33.278  35.794   5.882
 2825POPC   C1A39423  33.232  36.236   6.109
 2825POPC   D2A39424  33.058  36.014   6.517
 2825POPC   C3A39425  33.156  36.200   6.938
 2825POPC   C4A39426  32.826  36.455   7.103
 2825POPC   C1B39427  33.295  35.584   6.282
 2825POPC   C2B39428  33.328  35.610   6.715
 2825POPC   C3B39429  33.089  35.698   7.081
 2825POPC   C4B39430  33.277  35.933   7.409
 2826POPC   NC339431   0.751  28.086   5.495
 2826POPC   PO439432   0.297  28.600   5.369
 2826POPC   GL139433   0.567  28.499   5.724
 2826POPC   GL239434   0.302  28.470   5.932
 2826POPC   C1A39435   0.800  28.465   6.121
 2826POPC   D2A39436   0.690  28.695   6.504
 2826POPC   C3A39437   0.588  28.425   6.847
 2826POPC   C4A39438   0.633  28.386   7.302
 2826POPC   C1B39439   0.368  28.343   6.350
 2826POPC   C2B39440   0.251  28.067   6.658
 2826POPC   C3B39441   0.277  27.942   7.049
 2826POPC   C4B39442   0.462  27.918   7.410
 2827POPC   NC339443  34.110  24.646   5.380
 2827POPC   PO439444  33.654  24.181   5.444
 2827POPC   GL139445  33.595  24.590   5.703
 2827POPC   GL239446  33.907  24.674   5.828
 2827POPC   C1A39447  33.573  24.760   6.182
 2827POPC   D2A39448  33.483  24.589   6.604
 2827POPC   C3A39449  33.552  24.817   6.980
 2827POPC   C4A39450  33.804  24.798   7.319
 2827POPC   C1B39451  33.823  24.323   6.115
 2827POPC   C2B39452  33.770  24.164   6.542
 2827POPC   C3B39453  33.700  24.266   6.987
 2827POPC   C4B39454  33.859  24.299   7.433
 2828POPC   NC339455  10.333  24.969   5.494
 2828POPC   PO439456  10.178  25.732   5.584
 2828POPC   GL139457  10.444  25.549   5.921
 2828POPC   GL239458  10.548  25.216   5.896
 2828POPC   C1A39459  10.561  25.563   6.324
 2828POPC   D2A39460  10.468  25.339   6.680
 2828POPC   C3A39461  10.559  25.557   7.044
 2828POPC   C4A39462  10.461  25.410   7.419
 2828POPC   C1B39463  10.422  25.027   6.260
 2828POPC   C2B39464  10.492  24.825   6.648
 2828POPC   C3B39465  10.579  25.001   7.058
 2828POPC   C4B39466  10.664  24.803   7.450
 2829POPC   NC339467  19.766  40.368   5.467
 2829POPC   PO439468  19.672  39.664   5.511
 2829POPC   GL139469  19.707  39.831   5.896
 2829POPC   GL239470  19.757  40.186   5.939
 2829POPC   C1A39471  19.920  39.867   6.286
 2829POPC   D2A39472  20.005  40.173   6.601
 2829POPC   C3A39473  19.866  39.961   6.955
 2829POPC   C4A39474  19.945  39.868   7.364
 2829POPC   C1B39475  19.639  40.413   6.321
 2829POPC   C2B39476  19.558  40.370   6.783
 2829POPC   C3B39477  19.594  40.304   7.264
 2829POPC   C4B39478  19.659  40.116   7.708
 2830POPC   NC339479  20.915  27.322   5.512
 2830POPC   PO439480  20.947  27.878   5.452
 2830POPC   GL139481  20.649  27.700   5.712
 2830POPC   GL239482  20.493  27.407   5.799
 2830POPC   C1A39483  20.774  27.712   6.127
 2830POPC   D2A39484  20.619  27.931   6.487
 2830POPC   C3A39485  20.692  27.894   6.883
 2830POPC   C4A39486  20.699  27.853   7.315
 2830POPC   C1B39487  20.611  27.245   6.212
 2830POPC   C2B39488  20.541  27.429   6.636
 2830POPC   C3B39489  20.507  27.455   7.066
 2830POPC   C4B39490  20.782  27.358   7.428
 2831POPC   NC339491  24.934  41.670   5.422
 2831POPC   PO439492  25.583  41.552   5.498
 2831POPC   GL139493  25.229  41.596   5.839
 2831POPC   GL239494  25.284  41.901   5.867
 2831POPC   C1A39495  25.129  41.712   6.312
 2831POPC   D2A39496  25.354  41.496   6.647
 2831POPC   C3A39497  25.125  41.423   7.008
 2831POPC   C4A39498  25.151  41.075   7.279
 2831POPC   C1B39499  25.617  41.711   6.195
 2831POPC   C2B39500  25.689  41.886   6.630
 2831POPC   C3B39501  25.325  41.936   6.916
 2831POPC   C4B39502  25.085  41.868   7.274
 2832POPC   NC339503  35.905  43.574   5.397
 2832POPC   PO439504  36.476  43.969   5.445
 2832POPC   GL139505  36.236  43.776   5.786
 2832POPC   GL239506  35.991  44.021   5.862
 2832POPC   C1A39507  36.292  43.895   6.246
 2832POPC   D2A39508  36.162  43.727   6.629
 2832POPC   C3A39509  36.252  43.881   7.024
 2832POPC   C4A39510  36.369  43.579   7.302
 2832POPC   C1B39511  35.832  44.169   6.250
 2832POPC   C2B39512  35.702  44.003   6.645
 2832POPC   C3B39513  35.739  43.890   7.062
 2832POPC   C4B39514  35.934  43.800   7.442
 2833POPC   NC339515   7.147  40.228   5.230
 2833POPC   PO439516   7.562  39.741   5.262
 2833POPC   GL139517   7.659  39.905   5.705
 2833POPC   GL239518   7.721  40.260   5.668
 2833POPC   C1A39519   7.557  39.844   6.179
 2833POPC   D2A39520   7.300  39.955   6.558
 2833POPC   C3A39521   7.444  39.939   6.997
 2833POPC   C4A39522   7.289  40.258   7.256
 2833POPC   C1B39523   7.718  40.332   6.137
 2833POPC   C2B39524   7.815  40.171   6.564
 2833POPC   C3B39525   7.869  40.255   7.001
 2833POPC   C4B39526   7.813  40.198   7.421
 2834POPC   NC339527  30.238  19.359   5.704
 2834POPC   PO439528  29.801  19.102   5.264
 2834POPC   GL139529  29.708  18.942   5.694
 2834POPC   GL239530  29.698  19.259   5.878
 2834POPC   C1A39531  29.623  18.794   6.130
 2834POPC   D2A39532  29.575  19.028   6.533
 2834POPC   C3A39533  29.694  18.869   6.934
 2834POPC   C4A39534  29.960  19.060   7.216
 2834POPC   C1B39535  29.785  19.444   6.281
 2834POPC   C2B39536  30.187  19.430   6.493
 2834POPC   C3B39537  30.303  19.245   6.868
 2834POPC   C4B39538  30.186  19.520   7.170
 2835POPC   NC339539  15.001  39.559   5.474
 2835POPC   PO439540  15.431  39.152   5.223
 2835POPC   GL139541  15.239  39.124   5.678
 2835POPC   GL239542  15.447  39.237   5.956
 2835POPC   C1A39543  14.992  39.128   6.125
 2835POPC   D2A39544  14.858  39.372   6.537
 2835POPC   C3A39545  15.086  39.424   6.959
 2835POPC   C4A39546  15.213  39.075   7.238
 2835POPC   C1B39547  15.293  39.536   6.221
 2835POPC   C2B39548  15.415  39.334   6.582
 2835POPC   C3B39549  15.608  39.279   6.964
 2835POPC   C4B39550  15.508  39.479   7.320
 2836POPC   NC339551  24.583  20.109   5.422
 2836POPC   PO439552  24.678  19.434   5.271
 2836POPC   GL139553  24.729  19.581   5.754
 2836POPC   GL239554  24.469  19.829   5.817
 2836POPC   C1A39555  24.750  19.821   6.234
 2836POPC   D2A39556  24.512  19.979   6.637
 2836POPC   C3A39557  24.630  20.028   7.094
 2836POPC   C4A39558  24.680  19.727   7.449
 2836POPC   C1B39559  24.197  19.900   6.197
 2836POPC   C2B39560  23.983  19.952   6.578
 2836POPC   C3B39561  23.948  19.792   6.963
 2836POPC   C4B39562  24.176  19.889   7.308
 2837POPC   NC339563  37.482  19.014   5.421
 2837POPC   PO439564  38.181  18.753   5.500
 2837POPC   GL139565  37.919  18.955   5.840
 2837POPC   GL239566  37.650  19.190   5.860
 2837POPC   C1A39567  37.875  19.129   6.291
 2837POPC   D2A39568  37.891  18.958   6.707
 2837POPC   C3A39569  37.809  19.251   7.052
 2837POPC   C4A39570  37.696  19.473   7.389
 2837POPC   C1B39571  37.472  18.862   6.113
 2837POPC   C2B39572  37.292  19.011   6.483
 2837POPC   C3B39573  37.417  19.019   6.876
 2837POPC   C4B39574  37.667  18.784   7.191
 2838POPC   NC339575   6.783  26.533   5.457
 2838POPC   PO439576   6.470  27.148   5.238
 2838POPC   GL139577   6.630  26.963   5.701
 2838POPC   GL239578   6.376  26.930   5.950
 2838POPC   C1A39579   6.821  26.729   6.104
 2838POPC   D2A39580   6.735  26.900   6.515
 2838POPC   C3A39581   6.856  26.701   6.892
 2838POPC   C4A39582   6.885  26.886   7.273
 2838POPC   C1B39583   6.292  26.657   6.324
 2838POPC   C2B39584   6.185  26.760   6.769
 2838POPC   C3B39585   6.308  26.899   7.197
 2838POPC   C4B39586   6.290  26.737   7.637
 2839POPC   NC339587  18.019  44.816   5.474
 2839POPC   PO439588  18.419  44.295   5.495
 2839POPC   GL139589  18.236  44.462   5.825
 2839POPC   GL239590  18.409  44.763   5.816
 2839POPC   C1A39591  18.237  44.530   6.262
 2839POPC   D2A39592  18.451  44.667   6.628
 2839POPC   C3A39593  18.133  44.536   6.917
 2839POPC   C4A39594  17.935  44.465   7.316
 2839POPC   C1B39595  18.378   0.022   6.175
 2839POPC   C2B39596  18.371   0.192   6.569
 2839POPC   C3B39597  18.262   0.044   6.937
 2839POPC   C4B39598  18.529  44.757   7.178
 2840POPC   NC339599  37.667  36.393   5.485
 2840POPC   PO439600  38.026  35.804   5.302
 2840POPC   GL139601  37.789  35.921   5.678
 2840POPC   GL239602  37.400  35.977   5.729
 2840POPC   C1A39603  37.769  36.079   6.119
 2840POPC   D2A39604  37.596  36.206   6.552
 2840POPC   C3A39605  37.630  35.966   6.961
 2840POPC   C4A39606  37.860  36.016   7.344
 2840POPC   C1B39607  37.249  36.240   6.119
 2840POPC   C2B39608  37.103  36.339   6.567
 2840POPC   C3B39609  37.306  36.360   6.984
 2840POPC   C4B39610  37.331  36.130   7.403
 2841POPC   NC339611  35.348   1.345   5.446
 2841POPC   PO439612  35.760   0.809   5.587
 2841POPC   GL139613  35.559   1.110   5.840
 2841POPC   GL239614  35.168   1.101   5.866
 2841POPC   C1A39615  35.532   1.296   6.226
 2841POPC   D2A39616  35.446   1.120   6.603
 2841POPC   C3A39617  35.592   1.397   6.885
 2841POPC   C4A39618  35.525   1.174   7.245
 2841POPC   C1B39619  35.050   1.470   6.134
 2841POPC   C2B39620  35.166   1.552   6.573
 2841POPC   C3B39621  35.097   1.405   7.014
 2841POPC   C4B39622  35.229   1.535   7.452
 2842POPC   NC339623   3.318   0.317   5.532
 2842POPC   PO439624   3.881   0.029   5.655
 2842POPC   GL139625   3.634   0.337   5.933
 2842POPC   GL239626   3.500   0.697   5.802
 2842POPC   C1A39627   3.273   0.324   6.251
 2842POPC   D2A39628   3.147   0.212   6.693
 2842POPC   C3A39629   3.504   0.164   7.005
 2842POPC   C4A39630   3.525   0.321   7.431
 2842POPC   C1B39631   3.588   0.734   6.256
 2842POPC   C2B39632   3.508   0.583   6.671
 2842POPC   C3B39633   3.450   0.698   7.086
 2842POPC   C4B39634   3.724   0.799   7.409
 2843POPC   NC339635  23.468  41.979   5.357
 2843POPC   PO439636  23.203  41.340   5.328
 2843POPC   GL139637  23.400  41.554   5.737
 2843POPC   GL239638  23.350  41.908   5.827
 2843POPC   C1A39639  23.743  41.362   6.055
 2843POPC   D2A39640  23.949  41.514   6.428
 2843POPC   C3A39641  23.744  41.522   6.839
 2843POPC   C4A39642  23.850  41.670   7.268
 2843POPC   C1B39643  23.531  41.790   6.203
 2843POPC   C2B39644  23.443  41.893   6.586
 2843POPC   C3B39645  23.274  41.747   6.945
 2843POPC   C4B39646  23.384  41.866   7.312
 2844POPC   NC339647  33.882  17.763   5.410
 2844POPC   PO439648  33.571  17.172   5.576
 2844POPC   GL139649  33.879  17.338   5.825
 2844POPC   GL239650  33.875  17.684   5.905
 2844POPC   C1A39651  33.903  17.321   6.262
 2844POPC   D2A39652  33.979  17.619   6.560
 2844POPC   C3A39653  34.032  17.330   6.837
 2844POPC   C4A39654  33.963  17.342   7.233
 2844POPC   C1B39655  33.567  17.744   6.208
 2844POPC   C2B39656  33.465  17.500   6.562
 2844POPC   C3B39657  33.586  17.568   6.973
 2844POPC   C4B39658  33.503  17.543   7.393
 2845POPC   NC339659   0.693  43.028   5.468
 2845POPC   PO439660   0.114  42.912   5.523
 2845POPC   GL139661   0.347  43.172   5.833
 2845POPC   GL239662   0.745  43.226   5.914
 2845POPC   C1A39663   0.341  43.109   6.266
 2845POPC   D2A39664   0.375  43.279   6.704
 2845POPC   C3A39665   0.292  43.065   7.125
 2845POPC   C4A39666   0.243  43.243   7.554
 2845POPC   C1B39667   0.829  42.864   6.122
 2845POPC   C2B39668   0.698  42.875   6.539
 2845POPC   C3B39669   0.764  43.020   6.933
 2845POPC   C4B39670   0.860  42.729   7.247
 2846POPC   NC339671   6.478  30.336   5.022
 2846POPC   PO439672   6.724  30.688   5.558
 2846POPC   GL139673   6.518  30.843   5.906
 2846POPC   GL239674   6.181  30.755   5.782
 2846POPC   C1A39675   6.728  31.030   6.282
 2846POPC   D2A39676   6.721  31.010   6.735
 2846POPC   C3A39677   6.601  30.651   6.886
 2846POPC   C4A39678   6.541  30.584   7.315
 2846POPC   C1B39679   6.132  30.670   6.219
 2846POPC   C2B39680   6.128  30.571   6.656
 2846POPC   C3B39681   6.139  30.768   7.069
 2846POPC   C4B39682   6.464  31.057   7.190
 2847POPC   NC339683  30.171  42.667   5.576
 2847POPC   PO439684  30.050  43.305   5.409
 2847POPC   GL139685  29.941  43.099   5.810
 2847POPC   GL239686  30.278  43.111   5.929
 2847POPC   C1A39687  29.892  42.974   6.280
 2847POPC   D2A39688  29.799  42.782   6.709
 2847POPC   C3A39689  29.673  43.013   7.049
 2847POPC   C4A39690  29.948  43.337   7.144
 2847POPC   C1B39691  30.366  42.760   6.221
 2847POPC   C2B39692  30.238  42.568   6.610
 2847POPC   C3B39693  30.220  42.851   6.999
 2847POPC   C4B39694  30.015  42.913   7.415
 2848POPC   NC339695  15.954  41.418   5.386
 2848POPC   PO439696  15.651  41.925   5.792
 2848POPC   GL139697  16.082  41.654   5.844
 2848POPC   GL239698  16.179  41.270   5.819
 2848POPC   C1A39699  16.284  41.576   6.262
 2848POPC   D2A39700  16.142  41.566   6.722
 2848POPC   C3A39701  15.790  41.820   6.912
 2848POPC   C4A39702  15.620  41.849   7.321
 2848POPC   C1B39703  16.077  41.114   6.226
 2848POPC   C2B39704  16.265  41.063   6.625
 2848POPC   C3B39705  16.051  41.140   6.997
 2848POPC   C4B39706  16.025  41.508   7.240
 2849POPC   NC339707  41.400  44.810   5.349
 2849POPC   PO439708  41.951  44.457   5.318
 2849POPC   GL139709  41.790  44.483   5.741
 2849POPC   GL239710  41.415  44.501   5.791
 2849POPC   C1A39711  41.758  44.663   6.173
 2849POPC   D2A39712  41.580  44.581   6.551
 2849POPC   C3A39713  41.742  44.730   6.916
 2849POPC   C4A39714  41.869  44.749   7.314
 2849POPC   C1B39715  41.211  44.595   6.195
 2849POPC   C2B39716  41.092  44.689   6.594
 2849POPC   C3B39717  41.227  44.418   6.880
 2849POPC   C4B39718  41.482  44.406   7.233
 2850POPC   NC339719  22.603  22.654   5.583
 2850POPC   PO439720  22.059  22.926   5.362
 2850POPC   GL139721  22.142  22.931   5.799
 2850POPC   GL239722  22.427  23.116   5.888
 2850POPC   C1A39723  22.229  22.735   6.216
 2850POPC   D2A39724  22.246  22.555   6.667
 2850POPC   C3A39725  22.086  22.663   7.105
 2850POPC   C4A39726  22.135  22.435   7.489
 2850POPC   C1B39727  22.179  23.251   6.229
 2850POPC   C2B39728  22.253  23.064   6.621
 2850POPC   C3B39729  22.361  23.080   7.030
 2850POPC   C4B39730  22.069  23.206   7.248
 2851POPC   NC339731  30.902   5.439   5.399
 2851POPC   PO439732  30.657   6.030   5.156
 2851POPC   GL139733  30.560   5.880   5.641
 2851POPC   GL239734  30.378   6.116   5.874
 2851POPC   C1A39735  30.614   5.775   6.145
 2851POPC   D2A39736  30.359   5.841   6.533
 2851POPC   C3A39737  30.476   5.785   6.960
 2851POPC   C4A39738  30.622   5.690   7.397
 2851POPC   C1B39739  30.523   6.276   6.308
 2851POPC   C2B39740  30.748   6.148   6.699
 2851POPC   C3B39741  30.811   6.117   7.173
 2851POPC   C4B39742  30.665   6.154   7.628
 2852POPC   NC339743  11.010  32.295   5.300
 2852POPC   PO439744  11.533  31.914   5.487
 2852POPC   GL139745  11.220  32.095   5.759
 2852POPC   GL239746  11.384  32.376   5.904
 2852POPC   C1A39747  10.946  32.206   6.142
 2852POPC   D2A39748  11.003  32.426   6.567
 2852POPC   C3A39749  11.218  32.173   6.893
 2852POPC   C4A39750  11.025  32.072   7.306
 2852POPC   C1B39751  11.581  32.064   6.175
 2852POPC   C2B39752  11.585  31.888   6.599
 2852POPC   C3B39753  11.609  31.867   7.055
 2852POPC   C4B39754  11.517  32.223   7.367
 2853POPC   NC339755   0.791  19.371   5.453
 2853POPC   PO439756   1.447  19.059   5.415
 2853POPC   GL139757   1.147  19.115   5.750
 2853POPC   GL239758   1.128  19.445   5.874
 2853POPC   C1A39759   1.038  19.057   6.193
 2853POPC   D2A39760   1.140  19.196   6.605
 2853POPC   C3A39761   1.263  18.858   6.907
 2853POPC   C4A39762   0.956  18.679   7.200
 2853POPC   C1B39763   1.497  19.262   6.147
 2853POPC   C2B39764   1.630  19.355   6.586
 2853POPC   C3B39765   1.445  19.345   7.026
 2853POPC   C4B39766   1.265  19.111   7.351
 2854POPC   NC339767  21.512  23.855   5.408
 2854POPC   PO439768  21.698  23.315   5.610
 2854POPC   GL139769  21.420  23.617   5.889
 2854POPC   GL239770  21.535  23.969   5.893
 2854POPC   C1A39771  21.227  23.707   6.336
 2854POPC   D2A39772  21.131  23.928   6.770
 2854POPC   C3A39773  21.313  23.604   7.043
 2854POPC   C4A39774  21.741  23.508   7.027
 2854POPC   C1B39775  21.722  23.848   6.275
 2854POPC   C2B39776  21.633  23.897   6.710
 2854POPC   C3B39777  21.610  24.002   7.154
 2854POPC   C4B39778  21.706  24.168   7.557
 2855POPC   NC339779  22.599  19.548   5.331
 2855POPC   PO439780  23.235  19.366   5.454
 2855POPC   GL139781  23.093  19.134   5.835
 2855POPC   GL239782  22.727  19.040   5.808
 2855POPC   C1A39783  22.958  19.142   6.302
 2855POPC   D2A39784  22.817  19.249   6.743
 2855POPC   C3A39785  23.002  19.489   7.096
 2855POPC   C4A39786  22.976  19.615   7.545
 2855POPC   C1B39787  22.646  18.759   6.187
 2855POPC   C2B39788  22.795  18.735   6.642
 2855POPC   C3B39789  22.772  18.861   7.081
 2855POPC   C4B39790  22.661  18.653   7.482
 2856POPC   NC339791  37.240   2.987   5.571
 2856POPC   PO439792  36.645   3.168   5.351
 2856POPC   GL139793  36.708   2.918   5.781
 2856POPC   GL239794  37.035   2.902   5.997
 2856POPC   C1A39795  36.634   2.685   6.192
 2856POPC   D2A39796  36.759   2.599   6.613
 2856POPC   C3A39797  36.840   2.951   6.853
 2856POPC   C4A39798  36.700   2.956   7.282
 2856POPC   C1B39799  37.161   2.909   6.404
 2856POPC   C2B39800  37.386   2.841   6.764
 2856POPC   C3B39801  37.190   2.703   7.146
 2856POPC   C4B39802  37.103   2.734   7.587
 2857POPC   NC339803  22.678  41.415   5.307
 2857POPC   PO439804  22.859  42.048   5.308
 2857POPC   GL139805  22.871  41.749   5.696
 2857POPC   GL239806  22.910  41.347   5.754
 2857POPC   C1A39807  23.027  41.654   6.129
 2857POPC   D2A39808  23.072  41.525   6.533
 2857POPC   C3A39809  22.826  41.465   6.903
 2857POPC   C4A39810  22.969  41.510   7.302
 2857POPC   C1B39811  23.246  41.178   6.048
 2857POPC   C2B39812  23.471  41.235   6.455
 2857POPC   C3B39813  23.320  41.208   6.878
 2857POPC   C4B39814  23.444  41.347   7.247
 2858POPC   NC339815  15.750  14.569   5.365
 2858POPC   PO439816  16.392  14.579   5.497
 2858POPC   GL139817  16.074  14.465   5.803
 2858POPC   GL239818  16.073  14.124   5.832
 2858POPC   C1A39819  16.054  14.603   6.238
 2858POPC   D2A39820  15.859  14.830   6.588
 2858POPC   C3A39821  16.113  14.752   6.955
 2858POPC   C4A39822  16.150  14.472   7.317
 2858POPC   C1B39823  16.090  14.047   6.227
 2858POPC   C2B39824  15.818  14.068   6.563
 2858POPC   C3B39825  15.907  14.193   6.971
 2858POPC   C4B39826  15.732  14.189   7.384
 2859POPC   NC339827  23.619  19.611   5.480
 2859POPC   PO439828  24.122  20.017   5.349
 2859POPC   GL139829  23.938  19.874   5.772
 2859POPC   GL239830  24.046  19.547   5.797
 2859POPC   C1A39831  23.665  19.792   6.205
 2859POPC   D2A39832  23.359  19.703   6.623
 2859POPC   C3A39833  23.405  19.815   7.092
 2859POPC   C4A39834  23.670  20.113   7.275
 2859POPC   C1B39835  23.942  19.370   6.191
 2859POPC   C2B39836  23.797  19.439   6.609
 2859POPC   C3B39837  23.647  19.385   7.021
 2859POPC   C4B39838  23.762  19.597   7.411
 2860POPC   NC339839  34.663  23.556   5.185
 2860POPC   PO439840  34.628  22.860   5.339
 2860POPC   GL139841  34.717  22.878   5.792
 2860POPC   GL239842  34.403  23.051   5.787
 2860POPC   C1A39843  34.855  22.938   6.257
 2860POPC   D2A39844  34.729  23.075   6.687
 2860POPC   C3A39845  34.830  22.835   7.068
 2860POPC   C4A39846  35.024  22.886   7.462
 2860POPC   C1B39847  34.325  22.915   6.198
 2860POPC   C2B39848  34.226  22.973   6.610
 2860POPC   C3B39849  34.335  22.813   6.999
 2860POPC   C4B39850  34.458  23.191   7.140
 2861POPC   NC339851   4.528  38.806   5.448
 2861POPC   PO439852   4.616  38.069   5.418
 2861POPC   GL139853   4.322  38.187   5.797
 2861POPC   GL239854   4.328  38.567   5.837
 2861POPC   C1A39855   4.416  38.329   6.254
 2861POPC   D2A39856   4.242  38.552   6.613
 2861POPC   C3A39857   4.425  38.466   6.990
 2861POPC   C4A39858   4.244  38.553   7.346
 2861POPC   C1B39859   4.458  38.834   6.205
 2861POPC   C2B39860   4.527  38.984   6.639
 2861POPC   C3B39861   4.412  38.976   7.114
 2861POPC   C4B39862   4.610  38.816   7.536
 2862POPC   NC339863  37.973  22.927   5.513
 2862POPC   PO439864  38.635  23.031   5.545
 2862POPC   GL139865  38.559  22.779   5.918
 2862POPC   GL239866  38.245  22.888   5.973
 2862POPC   C1A39867  38.557  22.858   6.389
 2862POPC   D2A39868  38.305  22.774   6.781
 2862POPC   C3A39869  38.484  22.779   7.186
 2862POPC   C4A39870  38.821  22.997   7.430
 2862POPC   C1B39871  38.032  22.977   6.372
 2862POPC   C2B39872  37.899  23.115   6.781
 2862POPC   C3B39873  38.103  23.144   7.180
 2862POPC   C4B39874  38.086  23.434   7.533
 2863POPC   NC339875   2.786  29.343   5.471
 2863POPC   PO439876   3.397  28.874   5.444
 2863POPC   GL139877   2.993  28.874   5.766
 2863POPC   GL239878   2.873  29.168   5.935
 2863POPC   C1A39879   2.615  28.782   6.104
 2863POPC   D2A39880   2.395  28.720   6.515
 2863POPC   C3A39881   2.611  28.823   6.885
 2863POPC   C4A39882   2.788  28.728   7.270
 2863POPC   C1B39883   3.113  29.090   6.280
 2863POPC   C2B39884   3.005  29.095   6.670
 2863POPC   C3B39885   3.155  29.041   7.045
 2863POPC   C4B39886   2.896  29.235   7.336
 2864POPC   NC339887  21.628  24.848   5.418
 2864POPC   PO439888  21.242  24.226   5.436
 2864POPC   GL139889  21.181  24.332   5.856
 2864POPC   GL239890  21.411  24.578   5.802
 2864POPC   C1A39891  21.316  24.202   6.307
 2864POPC   D2A39892  21.496  24.407   6.666
 2864POPC   C3A39893  21.329  24.411   7.091
 2864POPC   C4A39894  21.311  24.696   7.420
 2864POPC   C1B39895  21.400  24.690   6.220
 2864POPC   C2B39896  21.635  24.906   6.556
 2864POPC   C3B39897  21.422  24.903   6.956
 2864POPC   C4B39898  20.950  24.829   7.070
 2865POPC   NC339899  38.884  40.865   5.203
 2865POPC   PO439900  39.428  41.042   5.401
 2865POPC   GL139901  39.147  40.901   5.731
 2865POPC   GL239902  39.315  41.067   5.965
 2865POPC   C1A39903  39.074  40.636   6.149
 2865POPC   D2A39904  39.215  40.555   6.568
 2865POPC   C3A39905  39.002  40.602   6.979
 2865POPC   C4A39906  39.209  40.500   7.390
 2865POPC   C1B39907  39.223  41.074   6.372
 2865POPC   C2B39908  39.217  41.039   6.798
 2865POPC   C3B39909  39.262  40.999   7.218
 2865POPC   C4B39910  39.289  40.986   7.647
 2866POPC   NC339911  43.626   4.946   5.211
 2866POPC   PO439912  43.002   5.277   5.194
 2866POPC   GL139913  43.208   5.189   5.595
 2866POPC   GL239914  43.180   4.828   5.676
 2866POPC   C1A39915  43.141   5.152   6.074
 2866POPC   D2A39916  43.009   4.864   6.450
 2866POPC   C3A39917  43.078   5.012   6.876
 2866POPC   C4A39918  43.213   5.293   7.198
 2866POPC   C1B39919  43.399   4.704   6.123
 2866POPC   C2B39920  43.529   4.722   6.607
 2866POPC   C3B39921  43.490   4.786   7.098
 2866POPC   C4B39922  43.177   4.866   7.464
 2867POPC   NC339923  32.531   2.544   5.423
 2867POPC   PO439924  32.182   3.144   5.289
 2867POPC   GL139925  32.122   2.902   5.685
 2867POPC   GL239926  32.111   2.526   5.704
 2867POPC   C1A39927  32.343   2.844   6.092
 2867POPC   D2A39928  32.280   2.985   6.529
 2867POPC   C3A39929  32.245   3.022   7.000
 2867POPC   C4A39930  31.916   2.832   7.238
 2867POPC   C1B39931  32.075   2.400   6.125
 2867POPC   C2B39932  32.447   2.453   6.431
 2867POPC   C3B39933  32.522   2.644   6.821
 2867POPC   C4B39934  32.365   2.570   7.255
 2868POPC   NC339935   1.054   5.677   5.400
 2868POPC   PO439936   1.349   6.321   5.192
 2868POPC   GL139937   1.333   6.077   5.591
 2868POPC   GL239938   1.492   5.757   5.668
 2868POPC   C1A39939   1.213   5.983   6.041
 2868POPC   D2A39940   0.928   5.879   6.427
 2868POPC   C3A39941   0.895   5.921   6.911
 2868POPC   C4A39942   1.185   5.973   7.289
 2868POPC   C1B39943   1.472   5.544   6.075
 2868POPC   C2B39944   1.458   5.773   6.451
 2868POPC   C3B39945   1.345   5.694   6.863
 2868POPC   C4B39946   1.489   5.421   7.138
 2869POPC   NC339947  36.743  27.612   5.319
 2869POPC   PO439948  37.349  27.686   5.387
 2869POPC   GL139949  37.021  27.644   5.741
 2869POPC   GL239950  36.723  27.815   5.849
 2869POPC   C1A39951  37.013  27.418   6.159
 2869POPC   D2A39952  36.822  27.383   6.583
 2869POPC   C3A39953  37.035  27.585   6.869
 2869POPC   C4A39954  37.153  27.301   7.166
 2869POPC   C1B39955  36.645  27.733   6.271
 2869POPC   C2B39956  36.623  27.862   6.690
 2869POPC   C3B39957  36.462  27.954   7.095
 2869POPC   C4B39958  36.530  27.826   7.516
 2870POPC   NC339959  36.466  38.651   5.420
 2870POPC   PO439960  35.850  38.316   5.455
 2870POPC   GL139961  36.114  38.335   5.828
 2870POPC   GL239962  36.223  38.666   5.909
 2870POPC   C1A39963  36.000  38.403   6.292
 2870POPC   D2A39964  36.210  38.208   6.654
 2870POPC   C3A39965  35.936  38.254   6.996
 2870POPC   C4A39966  35.792  38.585   7.229
 2870POPC   C1B39967  36.479  38.533   6.276
 2870POPC   C2B39968  36.739  38.598   6.638
 2870POPC   C3B39969  36.621  38.372   7.006
 2870POPC   C4B39970  36.306  38.524   7.239
 2871POPC   NC339971  24.923  10.420   5.476
 2871POPC   PO439972  24.278  10.769   5.376
 2871POPC   GL139973  24.495  10.616   5.753
 2871POPC   GL239974  24.564  10.246   5.797
 2871POPC   C1A39975  24.426  10.748   6.186
 2871POPC   D2A39976  24.266  10.759   6.613
 2871POPC   C3A39977  24.589  10.621   6.881
 2871POPC   C4A39978  24.685  10.658   7.317
 2871POPC   C1B39979  24.649  10.282   6.263
 2871POPC   C2B39980  24.688  10.140   6.716
 2871POPC   C3B39981  24.927  10.248   7.105
 2871POPC   C4B39982  24.863  10.272   7.595
 2872POPC   NC339983  26.812  28.269   5.197
 2872POPC   PO439984  27.255  27.923   5.395
 2872POPC   GL139985  26.983  28.182   5.720
 2872POPC   GL239986  26.837  28.533   5.665
 2872POPC   C1A39987  26.856  28.263   6.189
 2872POPC   D2A39988  26.690  28.411   6.622
 2872POPC   C3A39989  26.696  28.179   7.041
 2872POPC   C4A39990  27.002  28.070   7.381
 2872POPC   C1B39991  27.012  28.739   6.075
 2872POPC   C2B39992  27.155  28.616   6.517
 2872POPC   C3B39993  27.074  28.525   6.987
 2872POPC   C4B39994  26.798  28.569   7.371
 2873POPC   NC339995   4.452  12.995   5.373
 2873POPC   PO439996   4.200  12.454   5.128
 2873POPC   GL139997   4.344  12.552   5.705
 2873POPC   GL239998   4.513  12.854   5.861
 2873POPC   C1A39999   4.173  12.662   6.159
 2873POPC   D2A40000   4.093  12.516   6.579
 2873POPC   C3A40001   4.238  12.750   6.963
 2873POPC   C4A40002   4.202  13.047   7.340
 2873POPC   C1B40003   4.641  12.835   6.319
 2873POPC   C2B40004   4.656  13.063   6.736
 2873POPC   C3B40005   4.680  12.990   7.173
 2873POPC   C4B40006   4.484  12.621   7.393
 2874POPC   NC340007   0.198  33.942   5.575
 2874POPC   PO440008   0.422  34.577   5.580
 2874POPC   GL140009   0.335  34.653   5.956
 2874POPC   GL240010   0.124  34.386   5.974
 2874POPC   C1A40011   0.371  34.769   6.360
 2874POPC   D2A40012   0.279  34.794   6.777
 2874POPC   C3A40013   0.651  34.792   7.060
 2874POPC   C4A40014   0.694  34.766   7.526
 2874POPC   C1B40015   0.001  34.408   6.395
 2874POPC   C2B40016   0.196  34.284   6.755
 2874POPC   C3B40017   0.097  34.286   7.154
 2874POPC   C4B40018   0.226  34.650   7.266
 2875POPC   NC340019  42.077   5.921   5.400
 2875POPC   PO440020  42.752   5.865   5.467
 2875POPC   GL140021  42.607   5.956   5.877
 2875POPC   GL240022  42.293   6.138   5.811
 2875POPC   C1A40023  42.448   5.920   6.316
 2875POPC   D2A40024  42.353   5.665   6.701
 2875POPC   C3A40025  42.350   5.822   7.139
 2875POPC   C4A40026  42.559   5.614   7.521
 2875POPC   C1B40027  42.026   6.177   6.162
 2875POPC   C2B40028  42.033   6.067   6.591
 2875POPC   C3B40029  41.948   6.226   6.968
 2875POPC   C4B40030  41.918   6.039   7.341
 2876POPC   NC340031  31.290  38.018   5.088
 2876POPC   PO440032  31.631  38.402   5.520
 2876POPC   GL140033  31.451  38.573   5.908
 2876POPC   GL240034  31.582  38.298   6.061
 2876POPC   C1A40035  31.350  38.603   6.405
 2876POPC   D2A40036  31.597  38.536   6.840
 2876POPC   C3A40037  31.392  38.685   7.247
 2876POPC   C4A40038  31.202  38.726   7.688
 2876POPC   C1B40039  31.590  38.159   6.471
 2876POPC   C2B40040  31.261  38.167   6.759
 2876POPC   C3B40041  31.310  38.080   7.171
 2876POPC   C4B40042  31.363  38.264   7.567
 2877POPC   NC340043   8.148  31.876   5.316
 2877POPC   PO440044   8.157  32.592   5.418
 2877POPC   GL140045   8.242  32.359   5.820
 2877POPC   GL240046   8.560  32.491   5.946
 2877POPC   C1A40047   8.089  32.047   6.176
 2877POPC   D2A40048   7.901  31.929   6.608
 2877POPC   C3A40049   7.884  32.233   6.946
 2877POPC   C4A40050   8.149  32.330   7.297
 2877POPC   C1B40051   8.468  32.331   6.359
 2877POPC   C2B40052   8.384  32.274   6.816
 2877POPC   C3B40053   8.583  32.525   7.165
 2877POPC   C4B40054   8.547  32.449   7.616
 2878POPC   NC340055  39.145  13.158   5.412
 2878POPC   PO440056  38.840  12.667   5.182
 2878POPC   GL140057  38.972  12.741   5.660
 2878POPC   GL240058  39.216  12.511   5.801
 2878POPC   C1A40059  38.941  12.769   6.153
 2878POPC   D2A40060  39.058  12.598   6.601
 2878POPC   C3A40061  38.934  12.881   6.973
 2878POPC   C4A40062  38.821  12.997   7.403
 2878POPC   C1B40063  39.433  12.603   6.195
 2878POPC   C2B40064  39.573  12.721   6.620
 2878POPC   C3B40065  39.407  12.651   7.022
 2878POPC   C4B40066  39.516  12.656   7.450
 2879POPC   NC340067  38.896  32.541   5.455
 2879POPC   PO440068  39.103  31.928   5.518
 2879POPC   GL140069  39.014  31.955   5.924
 2879POPC   GL240070  39.004  32.311   5.929
 2879POPC   C1A40071  39.187  31.986   6.330
 2879POPC   D2A40072  39.167  32.157   6.742
 2879POPC   C3A40073  39.392  32.054   7.109
 2879POPC   C4A40074  39.371  32.160   7.564
 2879POPC   C1B40075  38.930  32.454   6.360
 2879POPC   C2B40076  38.874  32.570   6.811
 2879POPC   C3B40077  39.027  32.442   7.252
 2879POPC   C4B40078  39.160  32.612   7.676
 2880POPC   NC340079   4.064  26.511   5.480
 2880POPC   PO440080   4.212  25.768   5.460
 2880POPC   GL140081   4.502  26.193   5.653
 2880POPC   GL240082   4.354  26.490   5.881
 2880POPC   C1A40083   4.775  26.334   6.070
 2880POPC   D2A40084   4.663  26.109   6.456
 2880POPC   C3A40085   4.591  26.331   6.835
 2880POPC   C4A40086   4.485  26.216   7.267
 2880POPC   C1B40087   4.279  26.096   6.105
 2880POPC   C2B40088   4.224  25.852   6.470
 2880POPC   C3B40089   4.201  25.977   6.886
 2880POPC   C4B40090   4.105  25.789   7.271
 2881POPC   NC340091  40.216  20.682   5.498
 2881POPC   PO440092  40.860  20.774   5.387
 2881POPC   GL140093  40.902  20.609   5.763
 2881POPC   GL240094  41.078  20.867   5.921
 2881POPC   C1A40095  40.695  20.581   6.169
 2881POPC   D2A40096  40.855  20.720   6.577
 2881POPC   C3A40097  40.681  20.627   6.974
 2881POPC   C4A40098  40.840  20.669   7.383
 2881POPC   C1B40099  41.197  20.515   6.208
 2881POPC   C2B40100  41.160  20.293   6.626
 2881POPC   C3B40101  41.179  20.407   7.076
 2881POPC   C4B40102  41.135  20.278   7.532
 2882POPC   NC340103   7.675  43.732   5.194
 2882POPC   PO440104   7.211  44.138   5.382
 2882POPC   GL140105   7.336  43.910   5.754
 2882POPC   GL240106   7.232  43.537   5.800
 2882POPC   C1A40107   7.213  43.844   6.208
 2882POPC   D2A40108   7.248  44.137   6.569
 2882POPC   C3A40109   7.482  44.122   6.941
 2882POPC   C4A40110   7.432  44.067   7.387
 2882POPC   C1B40111   7.083  43.357   6.243
 2882POPC   C2B40112   6.995  43.616   6.624
 2882POPC   C3B40113   7.145  43.749   7.019
 2882POPC   C4B40114   7.196  43.604   7.418
 2883POPC   NC340115  36.189  15.408   5.491
 2883POPC   PO440116  35.660  14.938   5.447
 2883POPC   GL140117  36.014  14.995   5.755
 2883POPC   GL240118  36.298  14.785   5.831
 2883POPC   C1A40119  36.058  15.138   6.182
 2883POPC   D2A40120  36.335  14.972   6.531
 2883POPC   C3A40121  36.328  15.215   6.922
 2883POPC   C4A40122  35.918  15.362   7.122
 2883POPC   C1B40123  35.992  14.636   6.172
 2883POPC   C2B40124  35.825  14.827   6.541
 2883POPC   C3B40125  35.945  14.889   6.903
 2883POPC   C4B40126  36.122  14.917   7.268
 2884POPC   NC340127   4.666  40.016   5.387
 2884POPC   PO440128   4.023  39.816   5.235
 2884POPC   GL140129   4.231  39.818   5.676
 2884POPC   GL240130   4.315  40.168   5.812
 2884POPC   C1A40131   4.212  39.798   6.160
 2884POPC   D2A40132   4.110  40.051   6.533
 2884POPC   C3A40133   4.061  39.828   6.893
 2884POPC   C4A40134   4.047  39.991   7.323
 2884POPC   C1B40135   4.527  40.191   6.247
 2884POPC   C2B40136   4.619  39.968   6.653
 2884POPC   C3B40137   4.510  39.949   7.094
 2884POPC   C4B40138   4.459  40.284   7.413
 2885POPC   NC340139  39.099   0.566   5.236
 2885POPC   PO440140  39.520   0.057   5.520
 2885POPC   GL140141  39.316   0.201   5.890
 2885POPC   GL240142  39.235   0.520   5.751
 2885POPC   C1A40143  39.227   0.189   6.335
 2885POPC   D2A40144  39.348   0.514   6.601
 2885POPC   C3A40145  39.529   0.425   6.974
 2885POPC   C4A40146  39.362   0.221   7.313
 2885POPC   C1B40147  38.949   0.580   6.113
 2885POPC   C2B40148  38.828   0.584   6.571
 2885POPC   C3B40149  39.000   0.420   6.988
 2885POPC   C4B40150  39.053   0.639   7.385
 2886POPC   NC340151  44.755  43.373   5.490
 2886POPC   PO440152  44.461  42.799   5.352
 2886POPC   GL140153  44.658  42.963   5.767
 2886POPC   GL240154  44.357  43.087   5.904
 2886POPC   C1A40155  44.783  43.075   6.220
 2886POPC   D2A40156  44.640  42.914   6.620
 2886POPC   C3A40157  44.786  43.113   6.973
 2886POPC   C4A40158  44.772  42.975   7.368
 2886POPC   C1B40159  44.450  43.442   6.180
 2886POPC   C2B40160  44.600  43.433   6.583
 2886POPC   C3B40161  44.367  43.405   6.943
 2886POPC   C4B40162  44.354  43.256   7.346
 2887POPC   NC340163   4.184   2.357   5.168
 2887POPC   PO440164   4.486   1.860   5.411
 2887POPC   GL140165   4.352   2.039   5.765
 2887POPC   GL240166   4.055   2.199   5.722
 2887POPC   C1A40167   4.592   2.076   6.142
 2887POPC   D2A40168   4.535   1.884   6.511
 2887POPC   C3A40169   4.599   2.053   6.912
 2887POPC   C4A40170   4.625   1.897   7.339
 2887POPC   C1B40171   4.078   2.080   6.216
 2887POPC   C2B40172   4.127   2.124   6.689
 2887POPC   C3B40173   4.160   1.862   7.091
 2887POPC   C4B40174   4.095   1.910   7.540
 2888POPC   NC340175  37.039  37.166   5.578
 2888POPC   PO440176  36.445  36.979   5.393
 2888POPC   GL140177  36.722  36.862   5.820
 2888POPC   GL240178  37.023  36.677   5.805
 2888POPC   C1A40179  36.775  37.134   6.247
 2888POPC   D2A40180  36.459  37.183   6.640
 2888POPC   C3A40181  36.650  37.179   7.055
 2888POPC   C4A40182  37.027  37.143   7.355
 2888POPC   C1B40183  36.800  36.588   6.226
 2888POPC   C2B40184  36.735  36.736   6.662
 2888POPC   C3B40185  36.871  36.699   7.097
 2888POPC   C4B40186  37.218  36.639   7.388
 2889POPC   NC340187  14.889  40.248   5.369
 2889POPC   PO440188  15.462  39.860   5.533
 2889POPC   GL140189  15.254  40.067   5.849
 2889POPC   GL240190  14.942  39.965   5.787
 2889POPC   C1A40191  15.197  40.050   6.311
 2889POPC   D2A40192  15.302  39.811   6.680
 2889POPC   C3A40193  15.344  39.941   7.108
 2889POPC   C4A40194  15.347  40.219   7.454
 2889POPC   C1B40195  14.787  39.713   6.116
 2889POPC   C2B40196  14.743  39.868   6.520
 2889POPC   C3B40197  14.876  40.018   6.896
 2889POPC   C4B40198  14.865  39.897   7.282
 2890POPC   NC340199  41.933  43.980   5.159
 2890POPC   PO440200  41.390  43.712   5.304
 2890POPC   GL140201  41.489  43.660   5.760
 2890POPC   GL240202  41.753  43.917   5.781
 2890POPC   C1A40203  41.369  43.724   6.199
 2890POPC   D2A40204  41.431  44.100   6.475
 2890POPC   C3A40205  41.558  44.016   6.902
 2890POPC   C4A40206  41.472  43.669   7.187
 2890POPC   C1B40207  41.897  43.684   6.167
 2890POPC   C2B40208  42.046  43.803   6.608
 2890POPC   C3B40209  41.973  43.737   7.050
 2890POPC   C4B40210  41.885  44.111   7.302
 2891POPC   NC340211  24.085   5.989   5.496
 2891POPC   PO440212  24.747   6.162   5.343
 2891POPC   GL140213  24.545   6.226   5.766
 2891POPC   GL240214  24.879   6.262   5.903
 2891POPC   C1A40215  24.317   5.986   6.154
 2891POPC   D2A40216  24.155   5.783   6.582
 2891POPC   C3A40217  24.396   5.840   6.999
 2891POPC   C4A40218  24.317   5.687   7.427
 2891POPC   C1B40219  24.751   6.241   6.338
 2891POPC   C2B40220  24.739   6.241   6.791
 2891POPC   C3B40221  24.857   6.026   7.163
 2891POPC   C4B40222  24.794   6.017   7.615
 2892POPC   NC340223  34.035  14.551   4.949
 2892POPC   PO440224  33.356  14.600   5.288
 2892POPC   GL140225  33.596  14.358   5.668
 2892POPC   GL240226  33.735  14.683   5.793
 2892POPC   C1A40227  33.819  14.249   6.125
 2892POPC   D2A40228  34.007  14.401   6.598
 2892POPC   C3A40229  33.880  14.234   7.059
 2892POPC   C4A40230  33.567  14.263   7.419
 2892POPC   C1B40231  33.818  14.751   6.241
 2892POPC   C2B40232  33.614  14.862   6.625
 2892POPC   C3B40233  33.738  14.713   7.021
 2892POPC   C4B40234  33.965  14.614   7.410
 2893POPC   NC340235   3.845  39.459   5.516
 2893POPC   PO440236   3.421  39.042   5.189
 2893POPC   GL140237   3.483  39.106   5.642
 2893POPC   GL240238   3.277  39.360   5.829
 2893POPC   C1A40239   3.566  38.953   6.068
 2893POPC   D2A40240   3.538  39.140   6.499
 2893POPC   C3A40241   3.495  38.993   6.911
 2893POPC   C4A40242   3.497  39.183   7.333
 2893POPC   C1B40243   3.596  39.480   6.124
 2893POPC   C2B40244   3.848  39.547   6.495
 2893POPC   C3B40245   3.599  39.519   6.863
 2893POPC   C4B40246   3.728  39.632   7.230
 2894POPC   NC340247   8.389  11.679   5.091
 2894POPC   PO440248   7.991  11.167   5.170
 2894POPC   GL140249   8.284  11.258   5.598
 2894POPC   GL240250   8.076  11.511   5.799
 2894POPC   C1A40251   8.328  11.167   6.098
 2894POPC   D2A40252   8.306  10.976   6.547
 2894POPC   C3A40253   8.135  11.108   6.937
 2894POPC   C4A40254   8.226  11.038   7.348
 2894POPC   C1B40255   8.308  11.649   6.194
 2894POPC   C2B40256   8.328  11.471   6.638
 2894POPC   C3B40257   8.206  11.587   7.075
 2894POPC   C4B40258   8.390  11.489   7.471
 2895POPC   NC340259  34.685  37.366   4.978
 2895POPC   PO440260  34.769  36.795   5.334
 2895POPC   GL140261  34.593  37.071   5.671
 2895POPC   GL240262  34.621  36.785   5.845
 2895POPC   C1A40263  34.411  37.146   6.119
 2895POPC   D2A40264  34.607  37.241   6.517
 2895POPC   C3A40265  34.504  37.126   6.950
 2895POPC   C4A40266  34.694  37.009   7.359
 2895POPC   C1B40267  34.642  36.657   6.258
 2895POPC   C2B40268  34.500  36.646   6.677
 2895POPC   C3B40269  34.792  36.665   6.998
 2895POPC   C4B40270  34.868  36.501   7.430
 2896POPC   NC340271  29.379  36.398   5.521
 2896POPC   PO440272  28.837  35.887   5.421
 2896POPC   GL140273  28.988  36.106   5.813
 2896POPC   GL240274  28.728  36.316   5.884
 2896POPC   C1A40275  29.135  36.085   6.235
 2896POPC   D2A40276  29.273  35.865   6.624
 2896POPC   C3A40277  29.337  36.105   7.033
 2896POPC   C4A40278  29.321  36.004   7.498
 2896POPC   C1B40279  28.860  36.528   6.215
 2896POPC   C2B40280  29.073  36.448   6.600
 2896POPC   C3B40281  28.877  36.378   6.975
 2896POPC   C4B40282  29.012  36.392   7.362
 2897POPC   NC340283   4.564  12.292   5.349
 2897POPC   PO440284   4.113  11.765   5.413
 2897POPC   GL140285   4.053  12.131   5.634
 2897POPC   GL240286   4.391  12.043   5.762
 2897POPC   C1A40287   4.019  12.191   6.097
 2897POPC   D2A40288   4.155  12.005   6.467
 2897POPC   C3A40289   3.995  11.904   6.865
 2897POPC   C4A40290   4.078  12.008   7.268
 2897POPC   C1B40291   4.533  12.269   6.100
 2897POPC   C2B40292   4.569  12.348   6.514
 2897POPC   C3B40293   4.391  12.240   6.913
 2897POPC   C4B40294   4.611  12.110   7.275
 2898POPC   NC340295  23.557  16.430   5.515
 2898POPC   PO440296  24.120  16.733   5.645
 2898POPC   GL140297  23.866  16.927   5.898
 2898POPC   GL240298  23.525  16.909   5.758
 2898POPC   C1A40299  23.991  16.871   6.313
 2898POPC   D2A40300  23.841  16.596   6.676
 2898POPC   C3A40301  23.872  16.818   7.077
 2898POPC   C4A40302  24.059  16.925   7.466
 2898POPC   C1B40303  23.495  16.744   6.201
 2898POPC   C2B40304  23.352  16.785   6.633
 2898POPC   C3B40305  23.403  16.608   7.028
 2898POPC   C4B40306  23.540  16.679   7.454
 2899POPC   NC340307  33.095  41.686   5.372
 2899POPC   PO440308  33.518  41.257   5.698
 2899POPC   GL140309  33.290  41.648   5.859
 2899POPC   GL240310  32.931  41.734   5.835
 2899POPC   C1A40311  33.166  41.734   6.290
 2899POPC   D2A40312  33.142  41.357   6.517
 2899POPC   C3A40313  33.028  41.325   6.913
 2899POPC   C4A40314  33.276  41.248   7.288
 2899POPC   C1B40315  32.669  41.816   6.176
 2899POPC   C2B40316  32.667  41.649   6.575
 2899POPC   C3B40317  32.508  41.748   6.961
 2899POPC   C4B40318  32.763  41.577   7.253
 2900POPC   NC340319  35.111  31.818   5.617
 2900POPC   PO440320  35.166  32.336   5.283
 2900POPC   GL140321  35.292  32.294   5.727
 2900POPC   GL240322  35.031  32.510   5.792
 2900POPC   C1A40323  35.233  32.130   6.184
 2900POPC   D2A40324  34.950  32.212   6.553
 2900POPC   C3A40325  35.060  32.067   6.960
 2900POPC   C4A40326  35.416  32.182   7.228
 2900POPC   C1B40327  35.187  32.633   6.202
 2900POPC   C2B40328  35.383  32.474   6.592
 2900POPC   C3B40329  35.390  32.638   7.008
 2900POPC   C4B40330  35.278  32.892   7.351
 2901POPC   NC340331  30.763  35.264   5.304
 2901POPC   PO440332  30.191  35.331   5.437
 2901POPC   GL140333  30.528  35.407   5.765
 2901POPC   GL240334  30.916  35.377   5.766
 2901POPC   C1A40335  30.675  35.504   6.194
 2901POPC   D2A40336  30.417  35.589   6.558
 2901POPC   C3A40337  30.605  35.350   6.892
 2901POPC   C4A40338  30.471  35.381   7.311
 2901POPC   C1B40339  30.978  35.056   6.088
 2901POPC   C2B40340  31.144  35.029   6.518
 2901POPC   C3B40341  31.011  34.985   6.948
 2901POPC   C4B40342  30.943  35.264   7.264
 2902POPC   NC340343   6.986  11.572   5.663
 2902POPC   PO440344   6.642  11.164   5.270
 2902POPC   GL140345   6.573  11.235   5.707
 2902POPC   GL240346   6.878  11.061   5.760
 2902POPC   C1A40347   6.640  11.302   6.175
 2902POPC   D2A40348   6.418  11.271   6.574
 2902POPC   C3A40349   6.555  11.437   6.985
 2902POPC   C4A40350   6.518  11.186   7.380
 2902POPC   C1B40351   6.988  10.880   6.152
 2902POPC   C2B40352   6.927  11.043   6.565
 2902POPC   C3B40353   6.753  10.957   6.960
 2902POPC   C4B40354   6.972  10.875   7.356
 2903POPC   NC340355  23.545  31.185   5.389
 2903POPC   PO440356  24.026  31.484   5.297
 2903POPC   GL140357  23.788  31.527   5.698
 2903POPC   GL240358  23.749  31.220   5.868
 2903POPC   C1A40359  23.839  31.621   6.170
 2903POPC   D2A40360  23.772  31.437   6.587
 2903POPC   C3A40361  23.857  31.613   6.994
 2903POPC   C4A40362  23.615  31.787   7.337
 2903POPC   C1B40363  23.580  31.076   6.276
 2903POPC   C2B40364  23.456  31.055   6.744
 2903POPC   C3B40365  23.418  31.335   7.120
 2903POPC   C4B40366  23.513  31.333   7.541
 2904POPC   NC340367  15.301  12.051   5.223
 2904POPC   PO440368  15.156  12.668   5.190
 2904POPC   GL140369  15.217  12.347   5.639
 2904POPC   GL240370  15.370  11.992   5.717
 2904POPC   C1A40371  15.482  12.351   6.061
 2904POPC   D2A40372  15.493  12.094   6.458
 2904POPC   C3A40373  15.393  12.301   6.857
 2904POPC   C4A40374  15.436  12.015   7.218
 2904POPC   C1B40375  15.079  12.046   6.072
 2904POPC   C2B40376  14.996  12.080   6.528
 2904POPC   C3B40377  14.992  11.921   6.934
 2904POPC   C4B40378  14.999  12.270   7.195
 2905POPC   NC340379  13.158  25.692   5.604
 2905POPC   PO440380  12.711  25.213   5.416
 2905POPC   GL140381  12.879  25.181   5.813
 2905POPC   GL240382  13.115  24.896   5.806
 2905POPC   C1A40383  12.692  25.265   6.223
 2905POPC   D2A40384  12.755  25.374   6.634
 2905POPC   C3A40385  12.701  25.141   7.010
 2905POPC   C4A40386  12.714  25.267   7.460
 2905POPC   C1B40387  13.170  25.087   6.248
 2905POPC   C2B40388  13.102  24.965   6.697
 2905POPC   C3B40389  13.148  24.899   7.167
 2905POPC   C4B40390  13.424  25.031   7.508
 2906POPC   NC340391  41.481   0.673   5.523
 2906POPC   PO440392  41.754   1.186   5.160
 2906POPC   GL140393  41.677   1.226   5.623
 2906POPC   GL240394  41.894   0.965   5.779
 2906POPC   C1A40395  41.429   1.474   5.983
 2906POPC   D2A40396  41.390   1.652   6.432
 2906POPC   C3A40397  41.372   1.398   6.828
 2906POPC   C4A40398  41.514   1.433   7.262
 2906POPC   C1B40399  41.889   1.297   6.114
 2906POPC   C2B40400  42.067   1.400   6.542
 2906POPC   C3B40401  42.070   1.216   6.982
 2906POPC   C4B40402  41.893   1.082   7.389
 2907POPC   NC340403  10.959  26.531   5.582
 2907POPC   PO440404  11.192  25.880   5.534
 2907POPC   GL140405  11.233  26.100   5.912
 2907POPC   GL240406  11.483  26.299   5.713
 2907POPC   C1A40407  11.240  25.918   6.361
 2907POPC   D2A40408  11.244  26.036   6.824
 2907POPC   C3A40409  11.029  25.798   7.155
 2907POPC   C4A40410  10.894  25.644   7.581
 2907POPC   C1B40411  11.637  26.379   6.123
 2907POPC   C2B40412  11.631  26.238   6.551
 2907POPC   C3B40413  11.676  26.249   6.993
 2907POPC   C4B40414  11.408  26.140   7.312
 2908POPC   NC340415   1.438  13.515   5.443
 2908POPC   PO440416   1.250  14.119   5.542
 2908POPC   GL140417   1.240  13.754   5.857
 2908POPC   GL240418   1.031  13.436   5.789
 2908POPC   C1A40419   1.360  13.476   6.217
 2908POPC   D2A40420   1.325  13.681   6.591
 2908POPC   C3A40421   1.382  13.444   6.942
 2908POPC   C4A40422   1.580  13.547   7.293
 2908POPC   C1B40423   0.875  13.582   6.215
 2908POPC   C2B40424   0.913  13.391   6.652
 2908POPC   C3B40425   0.912  13.582   7.081
 2908POPC   C4B40426   0.998  13.633   7.552
 2909POPC   NC340427  26.393  38.822   5.291
 2909POPC   PO440428  25.799  39.029   5.435
 2909POPC   GL140429  26.121  39.076   5.706
 2909POPC   GL240430  26.130  39.449   5.781
 2909POPC   C1A40431  26.181  39.069   6.150
 2909POPC   D2A40432  26.366  39.232   6.523
 2909POPC   C3A40433  26.143  39.076   6.887
 2909POPC   C4A40434  25.928  39.245   7.249
 2909POPC   C1B40435  26.132  39.584   6.219
 2909POPC   C2B40436  26.321  39.758   6.604
 2909POPC   C3B40437  26.266  39.564   7.010
 2909POPC   C4B40438  26.426  39.708   7.406
 2910POPC   NC340439  40.097  10.884   5.106
 2910POPC   PO440440  40.418  10.321   5.351
 2910POPC   GL140441  40.178  10.236   5.781
 2910POPC   GL240442  39.925  10.486   5.991
 2910POPC   C1A40443  40.320  10.284   6.222
 2910POPC   D2A40444  40.117  10.303   6.631
 2910POPC   C3A40445  40.312  10.316   7.025
 2910POPC   C4A40446  40.142  10.304   7.445
 2910POPC   C1B40447  40.062  10.729   6.339
 2910POPC   C2B40448  40.035  10.800   6.761
 2910POPC   C3B40449  39.889  10.699   7.144
 2910POPC   C4B40450  39.878  10.728   7.586
 2911POPC   NC340451  13.819   1.346   5.381
 2911POPC   PO440452  13.259   0.974   5.565
 2911POPC   GL140453  13.426   1.246   5.832
 2911POPC   GL240454  13.779   1.151   5.929
 2911POPC   C1A40455  13.389   1.124   6.269
 2911POPC   D2A40456  13.676   1.251   6.575
 2911POPC   C3A40457  13.594   1.194   6.993
 2911POPC   C4A40458  13.924   1.373   7.188
 2911POPC   C1B40459  13.848   0.843   6.276
 2911POPC   C2B40460  13.741   0.705   6.689
 2911POPC   C3B40461  13.971   0.850   7.039
 2911POPC   C4B40462  13.853   0.937   7.444
 2912POPC   NC340463  20.660  33.711   5.262
 2912POPC   PO440464  20.234  34.179   5.209
 2912POPC   GL140465  20.367  33.935   5.674
 2912POPC   GL240466  20.724  33.871   5.741
 2912POPC   C1A40467  20.473  34.068   6.133
 2912POPC   D2A40468  20.358  33.856   6.534
 2912POPC   C3A40469  20.596  34.000   6.863
 2912POPC   C4A40470  20.707  33.944   7.261
 2912POPC   C1B40471  20.658  33.613   6.137
 2912POPC   C2B40472  20.657  33.412   6.557
 2912POPC   C3B40473  20.738  33.496   7.012
 2912POPC   C4B40474  20.724  33.321   7.458
 2913POPC   NC340475  34.182  20.505   5.641
 2913POPC   PO440476  33.646  20.360   5.287
 2913POPC   GL140477  33.676  20.499   5.740
 2913POPC   GL240478  33.787  20.832   5.908
 2913POPC   C1A40479  33.574  20.444   6.191
 2913POPC   D2A40480  33.603  20.705   6.558
 2913POPC   C3A40481  33.707  20.528   6.932
 2913POPC   C4A40482  33.840  20.679   7.323
 2913POPC   C1B40483  34.044  20.670   6.235
 2913POPC   C2B40484  34.250  20.650   6.588
 2913POPC   C3B40485  34.136  20.823   6.948
 2913POPC   C4B40486  34.323  21.090   7.224
 2914POPC   NC340487  21.664   2.060   5.528
 2914POPC   PO440488  22.283   1.783   5.448
 2914POPC   GL140489  22.070   1.870   5.846
 2914POPC   GL240490  21.979   2.235   5.890
 2914POPC   C1A40491  22.176   1.736   6.283
 2914POPC   D2A40492  22.310   1.589   6.706
 2914POPC   C3A40493  22.156   1.725   7.088
 2914POPC   C4A40494  22.112   1.917   7.484
 2914POPC   C1B40495  21.764   2.036   6.259
 2914POPC   C2B40496  21.897   1.950   6.690
 2914POPC   C3B40497  21.801   2.101   7.109
 2914POPC   C4B40498  21.781   2.276   7.533
 2915POPC   NC340499   1.826  22.727   5.668
 2915POPC   PO440500   1.409  23.250   5.442
 2915POPC   GL140501   1.120  23.093   5.815
 2915POPC   GL240502   0.971  22.748   5.741
 2915POPC   C1A40503   1.141  23.212   6.292
 2915POPC   D2A40504   1.295  23.336   6.734
 2915POPC   C3A40505   1.359  23.016   7.082
 2915POPC   C4A40506   1.070  22.922   7.416
 2915POPC   C1B40507   1.144  22.686   6.193
 2915POPC   C2B40508   1.151  22.820   6.649
 2915POPC   C3B40509   1.006  22.615   7.021
 2915POPC   C4B40510   1.280  22.458   7.352
 2916POPC   NC340511  16.549  15.942   5.555
 2916POPC   PO440512  17.190  15.972   5.673
 2916POPC   GL140513  16.848  15.737   5.916
 2916POPC   GL240514  16.440  15.626   5.925
 2916POPC   C1A40515  16.674  15.986   6.229
 2916POPC   D2A40516  16.855  16.243   6.514
 2916POPC   C3A40517  16.773  16.094   6.879
 2916POPC   C4A40518  16.945  16.110   7.261
 2916POPC   C1B40519  16.506  15.502   6.326
 2916POPC   C2B40520  16.819  15.659   6.618
 2916POPC   C3B40521  16.964  15.655   7.054
 2916POPC   C4B40522  16.663  15.710   7.397
 2917POPC   NC340523  37.067  11.990   5.477
 2917POPC   PO440524  36.447  11.838   5.363
 2917POPC   GL140525  36.636  12.039   5.756
 2917POPC   GL240526  36.776  12.394   5.701
 2917POPC   C1A40527  36.932  11.959   6.150
 2917POPC   D2A40528  37.132  11.838   6.579
 2917POPC   C3A40529  36.949  12.005   6.971
 2917POPC   C4A40530  36.650  12.335   7.121
 2917POPC   C1B40531  37.030  12.456   6.091
 2917POPC   C2B40532  36.989  12.368   6.527
 2917POPC   C3B40533  37.224  12.425   6.885
 2917POPC   C4B40534  37.191  12.340   7.273
 2918POPC   NC340535  14.027  10.707   5.457
 2918POPC   PO440536  14.500  10.223   5.446
 2918POPC   GL140537  14.365  10.371   5.871
 2918POPC   GL240538  14.358  10.747   5.855
 2918POPC   C1A40539  14.431  10.510   6.329
 2918POPC   D2A40540  14.656  10.742   6.662
 2918POPC   C3A40541  14.675  10.554   7.074
 2918POPC   C4A40542  14.395  10.242   7.237
 2918POPC   C1B40543  14.007  10.695   6.134
 2918POPC   C2B40544  13.907  10.572   6.553
 2918POPC   C3B40545  14.205  10.585   6.861
 2918POPC   C4B40546  14.242  10.721   7.267
 2919POPC   NC340547   1.124  18.671   5.477
 2919POPC   PO440548   1.356  18.063   5.413
 2919POPC   GL140549   1.489  18.315   5.771
 2919POPC   GL240550   1.224  18.185   5.974
 2919POPC   C1A40551   1.365  18.659   6.107
 2919POPC   D2A40552   1.078  18.626   6.481
 2919POPC   C3A40553   1.219  18.333   6.800
 2919POPC   C4A40554   1.352  18.389   7.208
 2919POPC   C1B40555   1.108  17.963   6.369
 2919POPC   C2B40556   1.034  17.840   6.791
 2919POPC   C3B40557   0.961  18.053   7.183
 2919POPC   C4B40558   0.623  18.261   7.392
 2920POPC   NC340559   6.212  43.167   5.327
 2920POPC   PO440560   6.719  43.338   5.727
 2920POPC   GL140561   6.621  43.071   6.003
 2920POPC   GL240562   6.743  42.785   5.819
 2920POPC   C1A40563   6.627  43.079   6.434
 2920POPC   D2A40564   7.004  43.087   6.667
 2920POPC   C3A40565   6.959  43.262   7.080
 2920POPC   C4A40566   6.612  43.210   7.366
 2920POPC   C1B40567   6.963  42.743   6.217
 2920POPC   C2B40568   6.768  42.623   6.607
 2920POPC   C3B40569   6.644  42.869   6.950
 2920POPC   C4B40570   6.656  42.659   7.318
 2921POPC   NC340571  31.344  32.230   5.261
 2921POPC   PO440572  31.866  32.219   5.621
 2921POPC   GL140573  31.463  32.207   5.825
 2921POPC   GL240574  31.268  31.923   5.683
 2921POPC   C1A40575  31.407  32.350   6.273
 2921POPC   D2A40576  31.495  32.452   6.719
 2921POPC   C3A40577  31.709  32.152   6.977
 2921POPC   C4A40578  31.618  32.074   7.382
 2921POPC   C1B40579  31.356  31.812   6.148
 2921POPC   C2B40580  31.374  31.959   6.602
 2921POPC   C3B40581  31.335  31.798   7.032
 2921POPC   C4B40582  31.275  31.711   7.486
 2922POPC   NC340583   2.569  38.515   5.483
 2922POPC   PO440584   3.208  38.336   5.537
 2922POPC   GL140585   2.865  38.347   5.864
 2922POPC   GL240586   2.579  38.095   5.800
 2922POPC   C1A40587   2.648  38.609   6.212
 2922POPC   D2A40588   2.374  38.687   6.615
 2922POPC   C3A40589   2.591  38.652   7.052
 2922POPC   C4A40590   2.660  38.822   7.503
 2922POPC   C1B40591   2.701  38.067   6.257
 2922POPC   C2B40592   2.556  38.190   6.661
 2922POPC   C3B40593   2.737  38.154   7.070
 2922POPC   C4B40594   2.861  38.366   7.438
 2923POPC   NC340595   7.976  33.770   5.393
 2923POPC   PO440596   8.452  34.143   5.244
 2923POPC   GL140597   8.390  33.883   5.704
 2923POPC   GL240598   8.078  33.676   5.870
 2923POPC   C1A40599   8.483  33.728   6.157
 2923POPC   D2A40600   8.178  33.629   6.505
 2923POPC   C3A40601   8.267  33.716   6.937
 2923POPC   C4A40602   8.013  33.644   7.300
 2923POPC   C1B40603   8.065  34.043   6.163
 2923POPC   C2B40604   7.917  34.178   6.598
 2923POPC   C3B40605   7.922  34.095   7.078
 2923POPC   C4B40606   7.865  34.038   7.570
 2924POPC   NC340607  19.085  42.348   5.467
 2924POPC   PO440608  19.494  42.959   5.588
 2924POPC   GL140609  19.336  42.666   5.901
 2924POPC   GL240610  19.043  42.447   5.941
 2924POPC   C1A40611  19.167  42.760   6.309
 2924POPC   D2A40612  18.912  42.812   6.638
 2924POPC   C3A40613  19.106  42.572   6.946
 2924POPC   C4A40614  19.102  42.734   7.335
 2924POPC   C1B40615  19.175  42.051   6.134
 2924POPC   C2B40616  19.217  42.011   6.576
 2924POPC   C3B40617  19.016  42.032   6.962
 2924POPC   C4B40618  19.097  42.211   7.370
 2925POPC   NC340619  28.660   9.119   5.442
 2925POPC   PO440620  27.966   9.027   5.504
 2925POPC   GL140621  28.307   8.871   5.746
 2925POPC   GL240622  28.506   8.580   5.627
 2925POPC   C1A40623  28.267   8.986   6.178
 2925POPC   D2A40624  28.113   9.039   6.596
 2925POPC   C3A40625  28.498   9.012   6.821
 2925POPC   C4A40626  28.712   9.292   7.060
 2925POPC   C1B40627  28.495   8.519   6.075
 2925POPC   C2B40628  28.339   8.572   6.515
 2925POPC   C3B40629  28.499   8.528   6.940
 2925POPC   C4B40630  28.563   8.795   7.327
 2926POPC   NC340631  14.526  14.629   5.477
 2926POPC   PO440632  14.219  14.120   5.351
 2926POPC   GL140633  14.273  14.281   5.793
 2926POPC   GL240634  14.602  14.363   5.912
 2926POPC   C1A40635  14.220  14.470   6.242
 2926POPC   D2A40636  14.386  14.638   6.672
 2926POPC   C3A40637  14.210  14.455   7.074
 2926POPC   C4A40638  14.158  14.447   7.573
 2926POPC   C1B40639  14.678  14.709   6.190
 2926POPC   C2B40640  14.766  14.988   6.519
 2926POPC   C3B40641  14.737  14.894   6.982
 2926POPC   C4B40642  14.576  14.666   7.361
 2927POPC   NC340643  43.566  13.120   5.515
 2927POPC   PO440644  44.038  12.607   5.550
 2927POPC   GL140645  43.851  12.881   5.880
 2927POPC   GL240646  43.487  12.909   5.963
 2927POPC   C1A40647  43.850  12.809   6.309
 2927POPC   D2A40648  43.848  12.484   6.573
 2927POPC   C3A40649  44.131  12.620   6.883
 2927POPC   C4A40650  44.191  12.900   7.229
 2927POPC   C1B40651  43.380  12.608   6.281
 2927POPC   C2B40652  43.366  12.651   6.701
 2927POPC   C3B40653  43.680  12.801   6.979
 2927POPC   C4B40654  43.810  12.565   7.308
 2928POPC   NC340655  18.629   5.761   5.430
 2928POPC   PO440656  19.188   5.626   5.261
 2928POPC   GL140657  19.197   5.815   5.708
 2928POPC   GL240658  18.864   5.922   5.869
 2928POPC   C1A40659  19.224   5.779   6.207
 2928POPC   D2A40660  19.055   5.682   6.666
 2928POPC   C3A40661  19.189   5.921   7.081
 2928POPC   C4A40662  19.260   6.072   7.507
 2928POPC   C1B40663  18.762   6.004   6.337
 2928POPC   C2B40664  18.763   6.073   6.807
 2928POPC   C3B40665  18.739   5.694   7.094
 2928POPC   C4B40666  18.896   5.547   7.504
 2929POPC   NC340667  21.913   6.182   5.622
 2929POPC   PO440668  22.393   5.787   5.398
 2929POPC   GL140669  22.084   5.665   5.720
 2929POPC   GL240670  22.333   5.735   5.981
 2929POPC   C1A40671  21.823   5.658   6.089
 2929POPC   D2A40672  21.903   6.004   6.347
 2929POPC   C3A40673  21.916   5.960   6.795
 2929POPC   C4A40674  22.025   5.718   7.166
 2929POPC   C1B40675  22.357   6.190   6.148
 2929POPC   C2B40676  22.234   6.344   6.575
 2929POPC   C3B40677  22.329   6.170   6.988
 2929POPC   C4B40678  22.357   6.067   7.414
 2930POPC   NC340679   6.043  31.183   5.246
 2930POPC   PO440680   5.457  31.444   5.289
 2930POPC   GL140681   5.821  31.495   5.620
 2930POPC   GL240682   6.091  31.260   5.752
 2930POPC   C1A40683   5.844  31.560   6.085
 2930POPC   D2A40684   5.803  31.393   6.519
 2930POPC   C3A40685   5.713  31.709   6.853
 2930POPC   C4A40686   5.920  31.927   7.220
 2930POPC   C1B40687   6.226  31.181   6.193
 2930POPC   C2B40688   6.205  31.088   6.645
 2930POPC   C3B40689   6.118  31.383   6.989
 2930POPC   C4B40690   6.038  31.212   7.406
 2931POPC   NC340691   6.154  29.092   5.580
 2931POPC   PO440692   5.575  29.219   5.261
 2931POPC   GL140693   5.645  29.223   5.702
 2931POPC   GL240694   5.753  28.892   5.848
 2931POPC   C1A40695   5.552  29.302   6.135
 2931POPC   D2A40696   5.399  29.295   6.554
 2931POPC   C3A40697   5.640  29.388   6.931
 2931POPC   C4A40698   5.581  29.146   7.303
 2931POPC   C1B40699   6.045  28.982   6.225
 2931POPC   C2B40700   6.163  29.106   6.655
 2931POPC   C3B40701   5.949  28.944   7.014
 2931POPC   C4B40702   5.979  28.881   7.472
 2932POPC   NC340703   3.792  25.714   5.278
 2932POPC   PO440704   3.650  26.298   5.417
 2932POPC   GL140705   3.544  26.099   5.750
 2932POPC   GL240706   3.842  26.256   5.893
 2932POPC   C1A40707   3.261  26.074   6.097
 2932POPC   D2A40708   3.221  26.219   6.508
 2932POPC   C3A40709   3.220  25.934   6.826
 2932POPC   C4A40710   3.257  25.895   7.273
 2932POPC   C1B40711   3.772  25.901   6.169
 2932POPC   C2B40712   3.676  25.949   6.583
 2932POPC   C3B40713   3.696  25.940   7.011
 2932POPC   C4B40714   3.898  26.262   7.237
 2933POPC   NC340715  37.557   6.914   5.383
 2933POPC   PO440716  38.060   6.413   5.417
 2933POPC   GL140717  37.838   6.344   5.810
 2933POPC   GL240718  37.734   6.676   5.831
 2933POPC   C1A40719  37.831   6.381   6.287
 2933POPC   D2A40720  37.901   6.241   6.727
 2933POPC   C3A40721  37.748   6.451   7.084
 2933POPC   C4A40722  37.603   6.437   7.502
 2933POPC   C1B40723  37.903   6.879   6.219
 2933POPC   C2B40724  37.871   6.803   6.684
 2933POPC   C3B40725  37.841   6.958   7.120
 2933POPC   C4B40726  37.759   6.934   7.567
 2934POPC   NC340727  29.369  18.060   5.435
 2934POPC   PO440728  28.986  18.662   5.358
 2934POPC   GL140729  29.002  18.353   5.721
 2934POPC   GL240730  29.358  18.346   5.860
 2934POPC   C1A40731  28.992  18.108   6.117
 2934POPC   D2A40732  28.857  18.109   6.529
 2934POPC   C3A40733  29.071  18.124   6.902
 2934POPC   C4A40734  28.868  18.105   7.275
 2934POPC   C1B40735  29.479  17.949   6.099
 2934POPC   C2B40736  29.367  17.874   6.542
 2934POPC   C3B40737  29.524  17.862   6.971
 2934POPC   C4B40738  29.460  18.175   7.265
 2935POPC   NC340739  40.704  40.216   5.478
 2935POPC   PO440740  40.304  39.738   5.409
 2935POPC   GL140741  40.498  39.910   5.815
 2935POPC   GL240742  40.439  40.276   5.910
 2935POPC   C1A40743  40.704  39.941   6.235
 2935POPC   D2A40744  40.969  39.826   6.609
 2935POPC   C3A40745  40.752  39.899   7.005
 2935POPC   C4A40746  40.906  40.022   7.420
 2935POPC   C1B40747  40.321  40.278   6.355
 2935POPC   C2B40748  40.358  40.306   6.820
 2935POPC   C3B40749  40.529  40.311   7.231
 2935POPC   C4B40750  40.407  40.123   7.625
 2936POPC   NC340751   9.048  30.713   5.364
 2936POPC   PO440752   9.259  30.264   5.796
 2936POPC   GL140753   9.189  30.696   5.861
 2936POPC   GL240754   8.828  30.764   5.804
 2936POPC   C1A40755   9.304  30.921   6.220
 2936POPC   D2A40756   9.089  30.941   6.609
 2936POPC   C3A40757   9.141  30.603   6.874
 2936POPC   C4A40758   9.314  30.912   7.117
 2936POPC   C1B40759   8.819  30.761   6.218
 2936POPC   C2B40760   8.747  30.569   6.558
 2936POPC   C3B40761   8.561  30.681   6.921
 2936POPC   C4B40762   8.803  30.815   7.204
 2937POPC   NC340763  19.915  42.871   5.447
 2937POPC   PO440764  19.688  43.423   5.218
 2937POPC   GL140765  19.758  43.369   5.714
 2937POPC   GL240766  20.072  43.250   5.765
 2937POPC   C1A40767  19.790  43.395   6.180
 2937POPC   D2A40768  19.573  43.292   6.573
 2937POPC   C3A40769  19.824  43.423   6.897
 2937POPC   C4A40770  19.760  43.386   7.308
 2937POPC   C1B40771  20.125  42.965   6.149
 2937POPC   C2B40772  20.022  43.028   6.600
 2937POPC   C3B40773  19.916  42.943   7.068
 2937POPC   C4B40774  20.019  43.024   7.540
 2938POPC   NC340775  25.825  35.937   5.568
 2938POPC   PO440776  25.997  35.372   5.226
 2938POPC   GL140777  26.039  35.330   5.693
 2938POPC   GL240778  26.037  35.607   5.871
 2938POPC   C1A40779  26.224  35.240   6.153
 2938POPC   D2A40780  26.388  35.338   6.585
 2938POPC   C3A40781  26.167  35.269   6.994
 2938POPC   C4A40782  26.100  34.934   7.288
 2938POPC   C1B40783  26.038  35.702   6.313
 2938POPC   C2B40784  26.026  35.696   6.750
 2938POPC   C3B40785  25.766  35.737   7.114
 2938POPC   C4B40786  25.792  35.721   7.609
 2939POPC   NC340787  34.355  31.603   5.336
 2939POPC   PO440788  34.957  31.382   5.498
 2939POPC   GL140789  34.713  31.532   5.856
 2939POPC   GL240790  34.357  31.675   5.853
 2939POPC   C1A40791  34.628  31.453   6.312
 2939POPC   D2A40792  34.428  31.479   6.715
 2939POPC   C3A40793  34.640  31.732   7.022
 2939POPC   C4A40794  34.753  31.562   7.428
 2939POPC   C1B40795  34.234  31.262   6.043
 2939POPC   C2B40796  34.147  31.112   6.485
 2939POPC   C3B40797  34.282  31.039   6.921
 2939POPC   C4B40798  34.682  31.141   7.157
 2940POPC   NC340799  12.369  43.269   5.508
 2940POPC   PO440800  11.831  42.850   5.345
 2940POPC   GL140801  11.970  42.996   5.781
 2940POPC   GL240802  12.293  43.113   5.980
 2940POPC   C1A40803  11.771  42.922   6.194
 2940POPC   D2A40804  11.778  42.921   6.636
 2940POPC   C3A40805  12.179  43.014   6.808
 2940POPC   C4A40806  12.133  43.087   7.232
 2940POPC   C1B40807  11.919  43.404   6.106
 2940POPC   C2B40808  11.698  43.415   6.490
 2940POPC   C3B40809  11.827  43.373   6.893
 2940POPC   C4B40810  11.747  43.445   7.290
 2941POPC   NC340811   6.965  12.341   5.492
 2941POPC   PO440812   6.577  11.780   5.649
 2941POPC   GL140813   6.781  12.038   5.898
 2941POPC   GL240814   6.628  12.378   5.896
 2941POPC   C1A40815   6.624  12.077   6.315
 2941POPC   D2A40816   6.570  12.455   6.554
 2941POPC   C3A40817   6.370  12.252   6.868
 2941POPC   C4A40818   6.446  11.906   7.170
 2941POPC   C1B40819   6.980  12.413   6.209
 2941POPC   C2B40820   7.039  12.222   6.643
 2941POPC   C3B40821   6.869  12.231   7.089
 2941POPC   C4B40822   6.535  12.530   7.254
 2942POPC   NC340823  44.704  15.349   5.495
 2942POPC   PO440824  44.501  14.769   5.459
 2942POPC   GL140825  44.832  14.883   5.809
 2942POPC   GL240826  44.864  15.238   5.958
 2942POPC   C1A40827  44.860  14.890   6.303
 2942POPC   D2A40828  44.927  15.181   6.679
 2942POPC   C3A40829  44.731  15.111   7.094
 2942POPC   C4A40830  44.949  14.779   7.348
 2942POPC   C1B40831  44.622  15.395   6.334
 2942POPC   C2B40832  44.609  15.561   6.797
 2942POPC   C3B40833  44.878  15.694   7.150
 2942POPC   C4B40834  44.813  15.888   7.560
 2943POPC   NC340835  19.752  32.905   5.378
 2943POPC   PO440836  20.009  33.373   5.610
 2943POPC   GL140837  19.927  33.025   5.900
 2943POPC   GL240838  19.677  32.759   5.875
 2943POPC   C1A40839  19.826  33.146   6.330
 2943POPC   D2A40840  20.138  33.279   6.671
 2943POPC   C3A40841  19.989  33.241   7.102
 2943POPC   C4A40842  20.078  32.854   7.402
 2943POPC   C1B40843  19.710  32.644   6.288
 2943POPC   C2B40844  19.586  32.809   6.675
 2943POPC   C3B40845  19.683  32.841   7.096
 2943POPC   C4B40846  19.603  32.667   7.505
 2944POPC   NC340847  21.306  33.288   5.571
 2944POPC   PO440848  20.835  32.811   5.562
 2944POPC   GL140849  21.148  32.881   5.901
 2944POPC   GL240850  21.513  32.881   6.025
 2944POPC   C1A40851  21.154  33.113   6.307
 2944POPC   D2A40852  21.361  33.006   6.683
 2944POPC   C3A40853  21.188  32.630   6.917
 2944POPC   C4A40854  21.395  32.658   7.329
 2944POPC   C1B40855  21.571  33.346   6.191
 2944POPC   C2B40856  21.487  33.537   6.589
 2944POPC   C3B40857  21.386  33.441   7.027
 2944POPC   C4B40858  21.586  33.467   7.450
 2945POPC   NC340859  36.851  43.696   5.466
 2945POPC   PO440860  37.206  44.266   5.482
 2945POPC   GL140861  37.067  44.003   5.833
 2945POPC   GL240862  36.724  43.891   5.921
 2945POPC   C1A40863  37.138  43.798   6.234
 2945POPC   D2A40864  37.126  43.604   6.643
 2945POPC   C3A40865  37.112  43.942   6.965
 2945POPC   C4A40866  36.752  44.062   7.214
 2945POPC   C1B40867  36.554  43.478   6.093
 2945POPC   C2B40868  36.529  43.359   6.528
 2945POPC   C3B40869  36.673  43.650   6.865
 2945POPC   C4B40870  36.946  43.546   7.220
 2946POPC   NC340871  14.608  25.670   5.666
 2946POPC   PO440872  14.598  25.168   5.407
 2946POPC   GL140873  14.617  25.169   5.859
 2946POPC   GL240874  14.267  25.224   5.972
 2946POPC   C1A40875  14.641  25.307   6.309
 2946POPC   D2A40876  14.331  25.236   6.630
 2946POPC   C3A40877  14.440  25.130   7.049
 2946POPC   C4A40878  14.410  24.951   7.443
 2946POPC   C1B40879  14.211  25.598   6.270
 2946POPC   C2B40880  14.410  25.748   6.671
 2946POPC   C3B40881  14.478  25.641   7.125
 2946POPC   C4B40882  14.699  25.379   7.451
 2947POPC   NC340883   6.496  16.527   5.235
 2947POPC   PO440884   7.118  16.879   5.233
 2947POPC   GL140885   6.855  16.817   5.631
 2947POPC   GL240886   6.482  16.850   5.687
 2947POPC   C1A40887   6.827  16.784   6.116
 2947POPC   D2A40888   6.844  16.532   6.501
 2947POPC   C3A40889   6.930  16.723   6.885
 2947POPC   C4A40890   6.857  16.648   7.276
 2947POPC   C1B40891   6.315  16.715   6.119
 2947POPC   C2B40892   6.130  16.806   6.527
 2947POPC   C3B40893   6.314  16.730   6.909
 2947POPC   C4B40894   6.373  16.568   7.323
 2948POPC   NC340895  38.924  15.447   4.828
 2948POPC   PO440896  38.436  15.299   5.243
 2948POPC   GL140897  38.179  15.206   5.690
 2948POPC   GL240898  38.318  14.910   5.837
 2948POPC   C1A40899  38.142  15.231   6.186
 2948POPC   D2A40900  38.438  15.335   6.546
 2948POPC   C3A40901  38.377  15.278   7.001
 2948POPC   C4A40902  38.287  15.274   7.449
 2948POPC   C1B40903  38.524  14.877   6.233
 2948POPC   C2B40904  38.431  14.844   6.650
 2948POPC   C3B40905  38.424  14.775   7.044
 2948POPC   C4B40906  38.046  14.850   7.218
 2949POPC   NC340907   3.823  44.636   5.403
 2949POPC   PO440908   3.155  44.560   5.206
 2949POPC   GL140909   3.320  44.512   5.672
 2949POPC   GL240910   3.440  44.826   5.833
 2949POPC   C1A40911   3.309  44.448   6.159
 2949POPC   D2A40912   3.432  44.337   6.589
 2949POPC   C3A40913   3.425  44.584   6.954
 2949POPC   C4A40914   3.686  44.302   7.165
 2949POPC   C1B40915   3.561  44.878   6.290
 2949POPC   C2B40916   3.821  44.897   6.680
 2949POPC   C3B40917   3.879  44.768   7.113
 2949POPC   C4B40918   3.655  44.832   7.498
 2950POPC   NC340919   9.709  34.816   5.384
 2950POPC   PO440920   9.431  35.461   5.574
 2950POPC   GL140921   9.635  35.503   5.969
 2950POPC   GL240922   9.868  35.232   5.864
 2950POPC   C1A40923   9.844  35.422   6.381
 2950POPC   D2A40924   9.950  35.676   6.749
 2950POPC   C3A40925   9.603  35.685   7.024
 2950POPC   C4A40926   9.343  35.355   7.211
 2950POPC   C1B40927   9.519  35.038   6.130
 2950POPC   C2B40928   9.421  35.144   6.572
 2950POPC   C3B40929   9.746  35.208   6.894
 2950POPC   C4B40930   9.798  35.135   7.326
 2951POPC   NC340931  44.495  22.391   5.305
 2951POPC   PO440932  44.901  21.936   5.430
 2951POPC   GL140933  44.613  21.989   5.788
 2951POPC   GL240934  44.511  22.337   5.803
 2951POPC   C1A40935  44.598  22.052   6.260
 2951POPC   D2A40936  44.800  22.147   6.673
 2951POPC   C3A40937  44.536  22.092   7.048
 2951POPC   C4A40938  44.913  22.252   7.198
 2951POPC   C1B40939  44.444  22.601   6.140
 2951POPC   C2B40940  44.411  22.456   6.562
 2951POPC   C3B40941  44.540  22.576   6.967
 2951POPC   C4B40942  44.345  22.493   7.341
 2952POPC   NC340943  26.269  42.711   5.263
 2952POPC   PO440944  26.353  42.113   5.443
 2952POPC   GL140945  26.208  42.261   5.847
 2952POPC   GL240946  25.984  42.567   5.882
 2952POPC   C1A40947  26.273  42.358   6.280
 2952POPC   D2A40948  26.063  42.261   6.642
 2952POPC   C3A40949  26.212  42.384   7.039
 2952POPC   C4A40950  26.016  42.212   7.428
 2952POPC   C1B40951  25.813  42.596   6.333
 2952POPC   C2B40952  25.790  42.730   6.802
 2952POPC   C3B40953  25.858  42.679   7.278
 2952POPC   C4B40954  26.045  42.858   7.663
 2953POPC   NC340955  17.007  37.358   5.467
 2953POPC   PO440956  16.602  36.867   5.278
 2953POPC   GL140957  16.742  36.989   5.762
 2953POPC   GL240958  16.926  36.749   5.953
 2953POPC   C1A40959  16.778  37.075   6.270
 2953POPC   D2A40960  16.855  37.192   6.718
 2953POPC   C3A40961  16.527  37.146   7.069
 2953POPC   C4A40962  16.613  36.960   7.508
 2953POPC   C1B40963  16.627  36.568   6.283
 2953POPC   C2B40964  16.469  36.704   6.695
 2953POPC   C3B40965  16.553  36.618   7.120
 2953POPC   C4B40966  16.811  36.486   7.430
 2954POPC   NC340967  43.603  24.887   5.199
 2954POPC   PO440968  44.102  25.110   5.325
 2954POPC   GL140969  44.042  25.276   5.736
 2954POPC   GL240970  44.006  25.006   5.958
 2954POPC   C1A40971  44.122  25.421   6.206
 2954POPC   D2A40972  44.256  25.298   6.648
 2954POPC   C3A40973  43.981  25.385   7.028
 2954POPC   C4A40974  44.055  25.535   7.454
 2954POPC   C1B40975  43.967  24.939   6.399
 2954POPC   C2B40976  43.941  24.907   6.838
 2954POPC   C3B40977  44.164  24.927   7.205
 2954POPC   C4B40978  44.064  24.742   7.616
 2955POPC   NC340979   6.288  12.951   5.401
 2955POPC   PO440980   5.653  13.054   5.347
 2955POPC   GL140981   5.850  12.842   5.727
 2955POPC   GL240982   6.103  13.063   5.869
 2955POPC   C1A40983   5.875  12.706   6.185
 2955POPC   D2A40984   5.612  12.622   6.544
 2955POPC   C3A40985   5.697  12.774   6.930
 2955POPC   C4A40986   5.984  12.763   7.215
 2955POPC   C1B40987   5.738  13.204   6.134
 2955POPC   C2B40988   5.676  13.138   6.570
 2955POPC   C3B40989   5.538  13.257   6.994
 2955POPC   C4B40990   5.667  13.205   7.414
 2956POPC   NC340991  18.138  11.014   5.355
 2956POPC   PO440992  18.639  11.369   5.510
 2956POPC   GL140993  18.394  11.189   5.811
 2956POPC   GL240994  18.045  11.330   5.840
 2956POPC   C1A40995  18.398  11.346   6.222
 2956POPC   D2A40996  18.235  11.545   6.579
 2956POPC   C3A40997  18.296  11.406   6.999
 2956POPC   C4A40998  18.227  11.591   7.399
 2956POPC   C1B40999  17.914  11.196   6.285
 2956POPC   C2B41000  17.886  11.190   6.761
 2956POPC   C3B41001  17.875  11.194   7.209
 2956POPC   C4B41002  17.942  11.265   7.685
 2957POPC   NC341003   9.191  24.278   5.344
 2957POPC   PO441004   8.523  24.176   5.340
 2957POPC   GL141005   8.646  24.330   5.726
 2957POPC   GL241006   8.943  24.203   5.771
 2957POPC   C1A41007   8.774  24.625   6.046
 2957POPC   D2A41008   8.989  24.754   6.420
 2957POPC   C3A41009   8.808  24.670   6.796
 2957POPC   C4A41010   8.861  24.831   7.188
 2957POPC   C1B41011   9.173  24.287   6.151
 2957POPC   C2B41012   9.035  24.259   6.562
 2957POPC   C3B41013   9.121  24.328   6.998
 2957POPC   C4B41014   8.700  24.346   7.191
 2958POPC   NC341015  40.877   7.260   5.528
 2958POPC   PO441016  40.684   7.851   5.501
 2958POPC   GL141017  40.525   7.537   5.791
 2958POPC   GL241018  40.842   7.604   5.958
 2958POPC   C1A41019  40.595   7.189   6.140
 2958POPC   D2A41020  40.724   7.045   6.567
 2958POPC   C3A41021  40.713   7.273   6.961
 2958POPC   C4A41022  41.018   7.527   7.198
 2958POPC   C1B41023  40.505   7.725   6.258
 2958POPC   C2B41024  40.468   7.624   6.675
 2958POPC   C3B41025  40.566   7.757   7.071
 2958POPC   C4B41026  40.576   7.530   7.442
 2959POPC   NC341027   9.234  27.409   5.324
 2959POPC   PO441028   8.699  27.842   5.341
 2959POPC   GL141029   8.851  27.684   5.742
 2959POPC   GL241030   8.793  27.317   5.752
 2959POPC   C1A41031   8.894  27.776   6.182
 2959POPC   D2A41032   8.710  27.648   6.579
 2959POPC   C3A41033   8.870  27.761   6.991
 2959POPC   C4A41034   8.645  27.900   7.313
 2959POPC   C1B41035   8.797  27.266   6.221
 2959POPC   C2B41036   8.832  27.137   6.667
 2959POPC   C3B41037   8.725  27.262   7.101
 2959POPC   C4B41038   8.750  27.229   7.573
 2960POPC   NC341039   5.200  39.213   5.341
 2960POPC   PO441040   4.478  39.278   5.330
 2960POPC   GL141041   4.816  39.137   5.743
 2960POPC   GL241042   5.225  39.026   5.805
 2960POPC   C1A41043   4.976  39.159   6.213
 2960POPC   D2A41044   5.053  38.967   6.623
 2960POPC   C3A41045   4.860  39.165   6.994
 2960POPC   C4A41046   4.765  39.533   7.269
 2960POPC   C1B41047   5.548  38.984   6.158
 2960POPC   C2B41048   5.632  38.867   6.616
 2960POPC   C3B41049   5.382  38.905   7.012
 2960POPC   C4B41050   5.310  39.322   7.136
 2961POPC   NC341051   4.764   2.218   5.530
 2961POPC   PO441052   5.178   1.767   5.326
 2961POPC   GL141053   5.046   1.855   5.758
 2961POPC   GL241054   5.261   1.652   5.911
 2961POPC   C1A41055   5.102   2.076   6.184
 2961POPC   D2A41056   4.970   2.233   6.608
 2961POPC   C3A41057   5.085   2.061   7.048
 2961POPC   C4A41058   5.118   1.895   7.481
 2961POPC   C1B41059   5.370   1.675   6.338
 2961POPC   C2B41060   5.471   1.903   6.726
 2961POPC   C3B41061   5.577   2.005   7.179
 2961POPC   C4B41062   5.517   2.204   7.566
 2962POPC   NC341063   2.418   3.358   5.350
 2962POPC   PO441064   2.716   3.918   5.671
 2962POPC   GL141065   2.751   3.469   5.791
 2962POPC   GL241066   3.108   3.309   5.693
 2962POPC   C1A41067   2.636   3.436   6.236
 2962POPC   D2A41068   2.762   3.748   6.535
 2962POPC   C3A41069   2.829   3.638   6.932
 2962POPC   C4A41070   2.453   3.645   7.171
 2962POPC   C1B41071   3.076   3.166   6.138
 2962POPC   C2B41072   3.039   3.264   6.619
 2962POPC   C3B41073   3.064   3.194   7.106
 2962POPC   C4B41074   3.114   3.186   7.628
 2963POPC   NC341075  33.890  22.085   5.425
 2963POPC   PO441076  33.259  22.289   5.606
 2963POPC   GL141077  33.608  22.273   5.854
 2963POPC   GL241078  33.651  21.910   5.842
 2963POPC   C1A41079  33.701  22.213   6.307
 2963POPC   D2A41080  33.924  22.051   6.679
 2963POPC   C3A41081  33.766  22.198   7.073
 2963POPC   C4A41082  33.315  22.253   7.198
 2963POPC   C1B41083  33.869  21.742   6.170
 2963POPC   C2B41084  33.727  21.610   6.565
 2963POPC   C3B41085  33.493  21.766   6.915
 2963POPC   C4B41086  33.544  21.801   7.342
 2964POPC   NC341087   5.598   1.667   5.514
 2964POPC   PO441088   5.466   2.304   5.382
 2964POPC   GL141089   5.529   2.081   5.793
 2964POPC   GL241090   5.884   1.950   5.818
 2964POPC   C1A41091   5.627   2.087   6.233
 2964POPC   D2A41092   5.945   1.997   6.498
 2964POPC   C3A41093   5.885   2.204   6.845
 2964POPC   C4A41094   6.100   2.138   7.217
 2964POPC   C1B41095   5.895   1.630   6.150
 2964POPC   C2B41096   5.794   1.502   6.562
 2964POPC   C3B41097   5.952   1.691   6.917
 2964POPC   C4B41098   6.020   1.629   7.324
 2965POPC   NC341099  38.881  42.370   4.803
 2965POPC   PO441100  38.348  42.297   5.301
 2965POPC   GL141101  38.448  42.195   5.762
 2965POPC   GL241102  38.198  42.006   5.765
 2965POPC   C1A41103  38.496  42.400   6.205
 2965POPC   D2A41104  38.759  42.444   6.608
 2965POPC   C3A41105  38.572  42.475   7.061
 2965POPC   C4A41106  38.298  42.523   7.449
 2965POPC   C1B41107  38.202  41.961   6.187
 2965POPC   C2B41108  38.024  42.057   6.583
 2965POPC   C3B41109  38.173  41.899   6.955
 2965POPC   C4B41110  38.361  42.025   7.294
 2966POPC   NC341111  11.878  33.943   5.364
 2966POPC   PO441112  12.417  33.615   5.290
 2966POPC   GL141113  12.229  33.833   5.721
 2966POPC   GL241114  11.899  33.994   5.871
 2966POPC   C1A41115  12.298  33.800   6.173
 2966POPC   D2A41116  12.169  33.975   6.567
 2966POPC   C3A41117  12.400  33.813   6.921
 2966POPC   C4A41118  12.300  33.623   7.318
 2966POPC   C1B41119  11.699  34.151   6.270
 2966POPC   C2B41120  11.773  34.272   6.709
 2966POPC   C3B41121  11.916  33.975   7.035
 2966POPC   C4B41122  11.875  33.878   7.442
 2967POPC   NC341123   0.370  38.970   5.191
 2967POPC   PO441124   0.629  38.413   5.461
 2967POPC   GL141125   0.469  38.562   5.822
 2967POPC   GL241126   0.419  38.273   5.961
 2967POPC   C1A41127   0.611  38.802   6.217
 2967POPC   D2A41128   0.764  38.647   6.587
 2967POPC   C3A41129   0.597  38.763   6.961
 2967POPC   C4A41130   0.468  38.535   7.289
 2967POPC   C1B41131   0.462  38.265   6.390
 2967POPC   C2B41132   0.490  38.027   6.773
 2967POPC   C3B41133   0.378  38.016   7.229
 2967POPC   C4B41134   0.394  38.203   7.678
 2968POPC   NC341135  14.679  13.145   5.530
 2968POPC   PO441136  14.190  12.688   5.448
 2968POPC   GL141137  14.394  12.813   5.813
 2968POPC   GL241138  14.304  13.146   5.861
 2968POPC   C1A41139  14.322  12.625   6.213
 2968POPC   D2A41140  14.484  12.485   6.606
 2968POPC   C3A41141  14.264  12.612   6.978
 2968POPC   C4A41142  14.465  12.724   7.342
 2968POPC   C1B41143  14.547  13.113   6.221
 2968POPC   C2B41144  14.480  12.996   6.640
 2968POPC   C3B41145  14.562  13.185   7.031
 2968POPC   C4B41146  14.928  13.210   7.240
 2969POPC   NC341147  23.327  24.913   5.576
 2969POPC   PO441148  22.764  25.392   5.382
 2969POPC   GL141149  22.838  25.156   5.762
 2969POPC   GL241150  23.157  25.296   5.907
 2969POPC   C1A41151  22.734  25.186   6.212
 2969POPC   D2A41152  23.013  25.380   6.496
 2969POPC   C3A41153  23.011  25.589   6.880
 2969POPC   C4A41154  22.811  25.485   7.207
 2969POPC   C1B41155  23.328  25.049   6.264
 2969POPC   C2B41156  23.152  24.873   6.640
 2969POPC   C3B41157  23.075  25.067   7.045
 2969POPC   C4B41158  23.229  24.970   7.456
 2970POPC   NC341159   9.867  30.291   5.398
 2970POPC   PO441160   9.487  30.879   5.277
 2970POPC   GL141161   9.670  30.719   5.685
 2970POPC   GL241162   9.608  31.062   5.832
 2970POPC   C1A41163   9.709  30.574   6.169
 2970POPC   D2A41164   9.595  30.736   6.640
 2970POPC   C3A41165   9.627  30.524   7.087
 2970POPC   C4A41166   9.597  30.760   7.511
 2970POPC   C1B41167   9.826  31.060   6.242
 2970POPC   C2B41168  10.089  30.762   6.496
 2970POPC   C3B41169  10.088  30.649   6.920
 2970POPC   C4B41170   9.818  31.001   7.083
 2971POPC   NC341171  34.205  21.481   5.426
 2971POPC   PO441172  34.913  21.296   5.442
 2971POPC   GL141173  34.759  21.286   5.856
 2971POPC   GL241174  34.389  21.281   5.853
 2971POPC   C1A41175  34.712  21.268   6.303
 2971POPC   D2A41176  34.463  21.116   6.618
 2971POPC   C3A41177  34.575  21.394   6.902
 2971POPC   C4A41178  34.831  21.336   7.247
 2971POPC   C1B41179  34.371  21.618   6.128
 2971POPC   C2B41180  34.236  21.621   6.550
 2971POPC   C3B41181  34.205  21.764   6.985
 2971POPC   C4B41182  34.386  21.592   7.337
 2972POPC   NC341183   8.371  30.854   5.137
 2972POPC   PO441184   8.200  31.424   5.350
 2972POPC   GL141185   8.278  31.583   5.780
 2972POPC   GL241186   8.112  31.348   5.997
 2972POPC   C1A41187   8.479  31.634   6.220
 2972POPC   D2A41188   8.360  31.528   6.647
 2972POPC   C3A41189   8.514  31.711   7.033
 2972POPC   C4A41190   8.095  31.819   7.168
 2972POPC   C1B41191   7.929  30.973   6.236
 2972POPC   C2B41192   8.037  31.017   6.674
 2972POPC   C3B41193   7.966  31.327   6.989
 2972POPC   C4B41194   7.990  31.128   7.377
 2973POPC   NC341195   5.176  44.340   5.444
 2973POPC   PO441196   4.843  43.722   5.476
 2973POPC   GL141197   5.040  43.963   5.775
 2973POPC   GL241198   4.860  44.261   5.844
 2973POPC   C1A41199   5.247  43.923   6.154
 2973POPC   D2A41200   5.240  43.653   6.506
 2973POPC   C3A41201   5.321  43.788   6.935
 2973POPC   C4A41202   5.634  43.656   7.227
 2973POPC   C1B41203   4.774  44.176   6.258
 2973POPC   C2B41204   5.054  44.140   6.594
 2973POPC   C3B41205   5.275  44.320   6.896
 2973POPC   C4B41206   5.049  44.161   7.221
 2974POPC   NC341207  11.949  19.105   5.557
 2974POPC   PO441208  12.543  19.387   5.416
 2974POPC   GL141209  12.298  19.327   5.854
 2974POPC   GL241210  12.172  18.968   5.979
 2974POPC   C1A41211  12.233  19.325   6.333
 2974POPC   D2A41212  12.101  19.110   6.725
 2974POPC   C3A41213  12.404  18.884   6.973
 2974POPC   C4A41214  12.366  19.162   7.264
 2974POPC   C1B41215  11.767  19.109   6.222
 2974POPC   C2B41216  11.544  19.082   6.627
 2974POPC   C3B41217  11.664  18.867   6.972
 2974POPC   C4B41218  11.993  18.790   7.240
 2975POPC   NC341219  40.634   9.913   5.423
 2975POPC   PO441220  41.041   9.390   5.418
 2975POPC   GL141221  40.918   9.681   5.764
 2975POPC   GL241222  41.206   9.817   5.715
 2975POPC   C1A41223  40.660   9.907   6.130
 2975POPC   D2A41224  40.443   9.925   6.555
 2975POPC   C3A41225  40.647   9.910   6.945
 2975POPC   C4A41226  40.538   9.862   7.360
 2975POPC   C1B41227  41.172   9.869   6.168
 2975POPC   C2B41228  41.021   9.766   6.576
 2975POPC   C3B41229  41.167   9.926   6.974
 2975POPC   C4B41230  41.160   9.607   7.312
 2976POPC   NC341231  37.661  13.391   5.363
 2976POPC   PO441232  38.053  13.963   5.486
 2976POPC   GL141233  37.780  13.866   5.859
 2976POPC   GL241234  37.820  13.534   5.873
 2976POPC   C1A41235  37.565  13.802   6.279
 2976POPC   D2A41236  37.679  13.571   6.652
 2976POPC   C3A41237  37.517  13.694   7.064
 2976POPC   C4A41238  37.662  13.609   7.497
 2976POPC   C1B41239  38.051  13.666   6.259
 2976POPC   C2B41240  38.207  13.570   6.644
 2976POPC   C3B41241  38.028  13.646   7.032
 2976POPC   C4B41242  38.104  13.429   7.387
 2977POPC   NC341243   1.916  33.304   5.336
 2977POPC   PO441244   1.755  32.687   5.181
 2977POPC   GL141245   1.920  32.858   5.630
 2977POPC   GL241246   2.210  33.145   5.723
 2977POPC   C1A41247   1.798  33.037   6.026
 2977POPC   D2A41248   1.936  33.107   6.435
 2977POPC   C3A41249   1.930  32.800   6.749
 2977POPC   C4A41250   1.895  33.069   7.066
 2977POPC   C1B41251   2.233  33.461   6.126
 2977POPC   C2B41252   2.084  33.592   6.543
 2977POPC   C3B41253   2.220  33.457   6.930
 2977POPC   C4B41254   2.011  33.474   7.340
 2978POPC   NC341255  17.282  44.141   5.438
 2978POPC   PO441256  17.751  43.704   5.351
 2978POPC   GL141257  17.645  43.902   5.757
 2978POPC   GL241258  17.309  43.737   5.764
 2978POPC   C1A41259  17.768  44.087   6.190
 2978POPC   D2A41260  17.543  44.026   6.599
 2978POPC   C3A41261  17.699  43.841   6.999
 2978POPC   C4A41262  17.745  43.971   7.429
 2978POPC   C1B41263  17.303  43.856   6.182
 2978POPC   C2B41264  17.114  43.718   6.556
 2978POPC   C3B41265  17.181  43.944   6.943
 2978POPC   C4B41266  17.263  43.873   7.371
 2979POPC   NC341267  13.039   6.151   5.228
 2979POPC   PO441268  12.577   5.682   5.438
 2979POPC   GL141269  12.480   5.792   5.887
 2979POPC   GL241270  12.437   5.426   5.906
 2979POPC   C1A41271  12.564   5.996   6.312
 2979POPC   D2A41272  13.001   5.959   6.572
 2979POPC   C3A41273  13.044   6.125   7.017
 2979POPC   C4A41274  13.046   6.020   7.458
 2979POPC   C1B41275  12.597   5.485   6.348
 2979POPC   C2B41276  12.593   5.714   6.751
 2979POPC   C3B41277  12.575   5.766   7.171
 2979POPC   C4B41278  12.396   5.456   7.465
 2980POPC   NC341279  29.888  26.948   5.360
 2980POPC   PO441280  29.952  26.295   5.268
 2980POPC   GL141281  29.818  26.594   5.712
 2980POPC   GL241282  29.818  27.023   5.830
 2980POPC   C1A41283  29.779  26.674   6.182
 2980POPC   D2A41284  29.934  26.554   6.574
 2980POPC   C3A41285  29.883  26.806   6.935
 2980POPC   C4A41286  30.168  26.810   7.256
 2980POPC   C1B41287  30.104  27.109   6.135
 2980POPC   C2B41288  30.026  27.115   6.554
 2980POPC   C3B41289  30.235  27.202   6.926
 2980POPC   C4B41290  30.330  27.279   7.369
 2981POPC   NC341291  38.506  34.720   4.970
 2981POPC   PO441292  38.135  34.397   5.233
 2981POPC   GL141293  38.203  34.401   5.685
 2981POPC   GL241294  38.347  34.719   5.773
 2981POPC   C1A41295  38.248  34.313   6.142
 2981POPC   D2A41296  38.113  34.469   6.576
 2981POPC   C3A41297  38.376  34.433   6.957
 2981POPC   C4A41298  38.343  34.167   7.327
 2981POPC   C1B41299  38.286  34.828   6.231
 2981POPC   C2B41300  38.330  34.935   6.695
 2981POPC   C3B41301  38.299  34.897   7.155
 2981POPC   C4B41302  38.073  34.612   7.413
 2982POPC   NC341303  26.935  21.689   5.420
 2982POPC   PO441304  26.848  21.040   5.376
 2982POPC   GL141305  26.608  21.342   5.617
 2982POPC   GL241306  26.714  21.207   5.898
 2982POPC   C1A41307  26.560  21.668   6.009
 2982POPC   D2A41308  26.615  21.857   6.449
 2982POPC   C3A41309  26.830  21.677   6.821
 2982POPC   C4A41310  26.732  21.802   7.232
 2982POPC   C1B41311  26.660  21.280   6.340
 2982POPC   C2B41312  26.504  21.272   6.756
 2982POPC   C3B41313  26.546  21.356   7.177
 2982POPC   C4B41314  26.886  21.297   7.496
 2983POPC   NC341315  16.326  10.938   5.408
 2983POPC   PO441316  15.805  11.409   5.441
 2983POPC   GL141317  15.922  11.309   5.811
 2983POPC   GL241318  16.261  11.321   5.753
 2983POPC   C1A41319  15.823  11.335   6.246
 2983POPC   D2A41320  15.603  11.092   6.547
 2983POPC   C3A41321  15.766  11.109   6.965
 2983POPC   C4A41322  15.808  11.536   7.173
 2983POPC   C1B41323  16.218  11.033   6.108
 2983POPC   C2B41324  16.091  10.883   6.534
 2983POPC   C3B41325  16.317  10.969   6.940
 2983POPC   C4B41326  16.150  11.165   7.298
 2984POPC   NC341327   3.905  42.923   5.493
 2984POPC   PO441328   3.370  43.322   5.571
 2984POPC   GL141329   3.543  43.036   5.860
 2984POPC   GL241330   3.815  43.278   5.903
 2984POPC   C1A41331   3.551  43.095   6.305
 2984POPC   D2A41332   3.611  43.448   6.604
 2984POPC   C3A41333   3.472  43.328   7.012
 2984POPC   C4A41334   3.606  42.957   7.273
 2984POPC   C1B41335   4.035  43.214   6.283
 2984POPC   C2B41336   4.036  43.086   6.699
 2984POPC   C3B41337   3.984  43.309   7.086
 2984POPC   C4B41338   3.807  43.378   7.499
 2985POPC   NC341339  28.857  20.622   5.615
 2985POPC   PO441340  29.407  20.863   5.349
 2985POPC   GL141341  29.346  20.551   5.724
 2985POPC   GL241342  29.268  20.808   5.945
 2985POPC   C1A41343  29.164  20.392   6.183
 2985POPC   D2A41344  29.235  20.596   6.578
 2985POPC   C3A41345  29.157  20.327   6.923
 2985POPC   C4A41346  29.271  20.311   7.367
 2985POPC   C1B41347  28.865  20.814   6.249
 2985POPC   C2B41348  28.857  20.917   6.700
 2985POPC   C3B41349  29.057  20.807   7.110
 2985POPC   C4B41350  29.099  20.801   7.565
 2986POPC   NC341351  13.122  11.528   5.411
 2986POPC   PO441352  12.689  11.077   5.379
 2986POPC   GL141353  12.769  11.297   5.758
 2986POPC   GL241354  13.074  11.194   5.963
 2986POPC   C1A41355  12.671  11.487   6.158
 2986POPC   D2A41356  12.940  11.327   6.482
 2986POPC   C3A41357  12.795  11.404   6.886
 2986POPC   C4A41358  12.935  11.178   7.222
 2986POPC   C1B41359  12.705  10.977   6.184
 2986POPC   C2B41360  12.493  11.069   6.575
 2986POPC   C3B41361  12.464  10.781   6.927
 2986POPC   C4B41362  12.570  10.851   7.350
 2987POPC   NC341363  33.586  33.654   5.493
 2987POPC   PO441364  33.905  34.138   5.194
 2987POPC   GL141365  33.952  33.980   5.672
 2987POPC   GL241366  33.640  33.972   5.889
 2987POPC   C1A41367  34.029  33.721   6.075
 2987POPC   D2A41368  33.753  33.720   6.449
 2987POPC   C3A41369  33.827  33.765   6.909
 2987POPC   C4A41370  33.675  33.575   7.299
 2987POPC   C1B41371  33.798  34.176   6.236
 2987POPC   C2B41372  33.628  34.188   6.641
 2987POPC   C3B41373  33.747  34.303   7.020
 2987POPC   C4B41374  33.754  34.066   7.407
 2988POPC   NC341375  36.034   4.834   5.476
 2988POPC   PO441376  35.896   5.513   5.438
 2988POPC   GL141377  36.096   5.235   5.799
 2988POPC   GL241378  35.923   4.952   5.939
 2988POPC   C1A41379  36.243   5.179   6.251
 2988POPC   D2A41380  36.293   5.304   6.694
 2988POPC   C3A41381  36.240   5.125   7.118
 2988POPC   C4A41382  36.268   5.297   7.562
 2988POPC   C1B41383  35.782   4.948   6.325
 2988POPC   C2B41384  35.939   4.947   6.711
 2988POPC   C3B41385  35.727   4.955   7.103
 2988POPC   C4B41386  35.792   5.178   7.468
 2989POPC   NC341387  29.804  33.313   5.625
 2989POPC   PO441388  30.128  33.789   5.185
 2989POPC   GL141389  30.003  33.789   5.632
 2989POPC   GL241390  30.092  34.076   5.798
 2989POPC   C1A41391  29.892  33.715   6.104
 2989POPC   D2A41392  29.986  33.563   6.517
 2989POPC   C3A41393  29.815  33.676   6.904
 2989POPC   C4A41394  29.725  33.510   7.320
 2989POPC   C1B41395  29.852  34.227   6.124
 2989POPC   C2B41396  29.968  34.070   6.507
 2989POPC   C3B41397  29.912  34.192   6.909
 2989POPC   C4B41398  29.796  34.040   7.292
 2990POPC   NC341399  35.611  29.684   5.442
 2990POPC   PO441400  36.175  29.895   5.392
 2990POPC   GL141401  35.993  29.841   5.819
 2990POPC   GL241402  36.190  30.061   5.989
 2990POPC   C1A41403  36.140  29.654   6.263
 2990POPC   D2A41404  36.535  29.643   6.557
 2990POPC   C3A41405  36.407  29.596   7.002
 2990POPC   C4A41406  36.055  29.861   7.146
 2990POPC   C1B41407  35.887  30.250   6.282
 2990POPC   C2B41408  35.950  30.497   6.677
 2990POPC   C3B41409  35.985  30.378   7.127
 2990POPC   C4B41410  36.106  30.177   7.563
 2991POPC   NC341411  44.463  33.155   5.377
 2991POPC   PO441412  44.968  32.691   5.483
 2991POPC   GL141413  44.663  32.784   5.784
 2991POPC   GL241414  44.775  33.118   5.905
 2991POPC   C1A41415  44.603  32.762   6.227
 2991POPC   D2A41416  44.734  33.038   6.563
 2991POPC   C3A41417  44.547  32.887   6.943
 2991POPC   C4A41418  44.732  32.633   7.243
 2991POPC   C1B41419   0.110  33.279   6.199
 2991POPC   C2B41420   0.176  33.357   6.643
 2991POPC   C3B41421  44.907  33.237   7.025
 2991POPC   C4B41422  44.637  33.133   7.396
 2992POPC   NC341423  26.589  16.770   5.362
 2992POPC   PO441424  27.005  16.161   5.476
 2992POPC   GL141425  26.983  16.597   5.743
 2992POPC   GL241426  26.634  16.713   5.880
 2992POPC   C1A41427  27.032  16.704   6.215
 2992POPC   D2A41428  26.863  16.414   6.553
 2992POPC   C3A41429  26.740  16.432   7.005
 2992POPC   C4A41430  26.790  16.502   7.494
 2992POPC   C1B41431  26.541  16.792   6.344
 2992POPC   C2B41432  26.795  16.906   6.720
 2992POPC   C3B41433  26.727  16.928   7.154
 2992POPC   C4B41434  26.550  17.165   7.511
 2993POPC   NC341435  34.286  18.210   5.320
 2993POPC   PO441436  34.852  18.335   5.382
 2993POPC   GL141437  34.845  18.294   5.793
 2993POPC   GL241438  34.542  18.069   5.794
 2993POPC   C1A41439  34.645  18.536   6.117
 2993POPC   D2A41440  34.353  18.501   6.457
 2993POPC   C3A41441  34.609  18.449   6.822
 2993POPC   C4A41442  34.509  18.525   7.238
 2993POPC   C1B41443  34.657  18.049   6.225
 2993POPC   C2B41444  34.857  18.045   6.629
 2993POPC   C3B41445  34.629  17.980   7.020
 2993POPC   C4B41446  34.155  17.817   7.082
 2994POPC   NC341447   8.370   7.692   5.695
 2994POPC   PO441448   8.618   8.138   5.498
 2994POPC   GL141449   8.944   8.206   5.809
 2994POPC   GL241450   9.215   8.476   5.734
 2994POPC   C1A41451   8.848   8.202   6.253
 2994POPC   D2A41452   8.872   8.356   6.676
 2994POPC   C3A41453   8.885   8.098   7.033
 2994POPC   C4A41454   9.042   7.783   7.345
 2994POPC   C1B41455   9.196   8.560   6.167
 2994POPC   C2B41456   9.340   8.543   6.586
 2994POPC   C3B41457   9.228   8.496   7.039
 2994POPC   C4B41458   9.143   8.639   7.499
 2995POPC   NC341459  29.115  34.178   5.329
 2995POPC   PO441460  29.523  33.624   5.441
 2995POPC   GL141461  29.516  33.927   5.802
 2995POPC   GL241462  29.158  34.017   5.813
 2995POPC   C1A41463  29.459  33.917   6.287
 2995POPC   D2A41464  29.208  33.966   6.676
 2995POPC   C3A41465  29.346  33.809   7.094
 2995POPC   C4A41466  29.377  33.836   7.527
 2995POPC   C1B41467  28.939  34.017   6.212
 2995POPC   C2B41468  28.795  33.699   6.531
 2995POPC   C3B41469  28.879  33.626   6.987
 2995POPC   C4B41470  28.876  33.815   7.407
 2996POPC   NC341471  40.016  14.048   5.271
 2996POPC   PO441472  39.885  13.413   5.397
 2996POPC   GL141473  39.947  13.696   5.799
 2996POPC   GL241474  39.634  13.790   5.973
 2996POPC   C1A41475  39.993  13.683   6.290
 2996POPC   D2A41476  40.044  13.869   6.708
 2996POPC   C3A41477  39.879  13.613   7.016
 2996POPC   C4A41478  40.034  13.488   7.408
 2996POPC   C1B41479  39.541  14.025   6.296
 2996POPC   C2B41480  39.540  13.908   6.693
 2996POPC   C3B41481  39.633  14.064   7.065
 2996POPC   C4B41482  39.649  13.858   7.419
 2997POPC   NC341483   2.288  36.669   5.676
 2997POPC   PO441484   1.678  36.825   5.543
 2997POPC   GL141485   1.831  36.751   5.936
 2997POPC   GL241486   2.005  37.046   5.888
 2997POPC   C1A41487   2.057  36.807   6.340
 2997POPC   D2A41488   2.282  36.704   6.731
 2997POPC   C3A41489   1.984  36.805   7.066
 2997POPC   C4A41490   1.533  36.700   7.108
 2997POPC   C1B41491   2.192  37.282   6.188
 2997POPC   C2B41492   2.047  37.316   6.575
 2997POPC   C3B41493   2.086  37.291   6.988
 2997POPC   C4B41494   1.692  37.273   7.227
 2998POPC   NC341495  20.329  44.725   5.500
 2998POPC   PO441496  19.654  44.921   5.523
 2998POPC   GL141497  19.923  44.762   5.811
 2998POPC   GL241498  19.828  44.446   5.965
 2998POPC   C1A41499  20.012  44.874   6.208
 2998POPC   D2A41500  19.869  44.699   6.550
 2998POPC   C3A41501  20.002  44.873   6.921
 2998POPC   C4A41502  19.888  44.771   7.269
 2998POPC   C1B41503  20.223  44.389   6.169
 2998POPC   C2B41504  20.211  44.250   6.592
 2998POPC   C3B41505  19.881  44.350   6.919
 2998POPC   C4B41506  20.038  44.285   7.317
 2999POPC   NC341507   2.573  12.849   5.328
 2999POPC   PO441508   3.253  12.768   5.264
 2999POPC   GL141509   2.982  12.937   5.638
 2999POPC   GL241510   2.834  12.617   5.742
 2999POPC   C1A41511   2.776  13.009   6.084
 2999POPC   D2A41512   2.778  12.805   6.500
 2999POPC   C3A41513   2.753  12.924   6.935
 2999POPC   C4A41514   2.675  13.048   7.353
 2999POPC   C1B41515   3.074  12.535   6.132
 2999POPC   C2B41516   3.207  12.509   6.576
 2999POPC   C3B41517   2.973  12.457   6.952
 2999POPC   C4B41518   2.947  12.615   7.368
 3000POPC   NC341519  34.707  32.579   5.379
 3000POPC   PO441520  34.235  32.021   5.464
 3000POPC   GL141521  34.641  32.082   5.695
 3000POPC   GL241522  34.501  32.389   5.800
 3000POPC   C1A41523  34.744  31.942   6.150
 3000POPC   D2A41524  34.515  31.947   6.552
 3000POPC   C3A41525  34.540  32.234   6.928
 3000POPC   C4A41526  34.264  32.244   7.297
 3000POPC   C1B41527  34.691  32.441   6.175
 3000POPC   C2B41528  34.721  32.702   6.504
 3000POPC   C3B41529  34.899  32.596   6.898
 3000POPC   C4B41530  35.015  32.458   7.291
 3001POPC   NC341531  32.060  31.889   5.367
 3001POPC   PO441532  32.186  31.198   5.399
 3001POPC   GL141533  32.288  31.468   5.728
 3001POPC   GL241534  32.492  31.132   5.793
 3001POPC   C1A41535  32.374  31.744   6.087
 3001POPC   D2A41536  32.278  31.626   6.507
 3001POPC   C3A41537  32.473  31.741   6.887
 3001POPC   C4A41538  32.180  31.805   7.242
 3001POPC   C1B41539  32.295  31.215   6.173
 3001POPC   C2B41540  32.468  31.142   6.564
 3001POPC   C3B41541  32.282  31.261   6.940
 3001POPC   C4B41542  32.456  31.014   7.240
 3002POPC   NC341543  26.255  13.344   5.385
 3002POPC   PO441544  25.855  13.996   5.315
 3002POPC   GL141545  25.896  13.729   5.667
 3002POPC   GL241546  26.251  13.776   5.719
 3002POPC   C1A41547  25.890  13.803   6.129
 3002POPC   D2A41548  26.139  13.917   6.510
 3002POPC   C3A41549  25.914  13.763   6.889
 3002POPC   C4A41550  25.790  13.367   7.160
 3002POPC   C1B41551  26.362  13.598   6.116
 3002POPC   C2B41552  26.146  13.397   6.471
 3002POPC   C3B41553  26.277  13.371   6.899
 3002POPC   C4B41554  26.217  13.627   7.272
 3003POPC   NC341555  30.161  19.380   5.151
 3003POPC   PO441556  29.768  19.931   5.339
 3003POPC   GL141557  30.031  19.841   5.666
 3003POPC   GL241558  29.737  19.785   5.876
 3003POPC   C1A41559  30.133  20.069   6.052
 3003POPC   D2A41560  30.185  19.964   6.467
 3003POPC   C3A41561  30.119  20.196   6.841
 3003POPC   C4A41562  29.932  19.944   7.191
 3003POPC   C1B41563  29.650  19.939   6.305
 3003POPC   C2B41564  29.675  19.844   6.745
 3003POPC   C3B41565  29.708  19.452   6.985
 3003POPC   C4B41566  29.700  19.416   7.447
 3004POPC   NC341567  35.894  19.738   5.532
 3004POPC   PO441568  36.110  20.303   5.555
 3004POPC   GL141569  36.319  19.935   5.755
 3004POPC   GL241570  36.053  19.791   6.011
 3004POPC   C1A41571  36.540  19.848   6.155
 3004POPC   D2A41572  36.303  19.978   6.530
 3004POPC   C3A41573  36.469  19.938   6.940
 3004POPC   C4A41574  36.397  19.592   7.208
 3004POPC   C1B41575  35.713  19.481   6.131
 3004POPC   C2B41576  35.627  19.254   6.519
 3004POPC   C3B41577  35.846  19.262   6.905
 3004POPC   C4B41578  35.896  19.579   7.236
 3005POPC   NC341579   4.568  28.118   5.131
 3005POPC   PO441580   4.294  28.537   5.592
 3005POPC   GL141581   4.400  28.299   5.917
 3005POPC   GL241582   4.519  27.941   5.913
 3005POPC   C1A41583   4.365  28.420   6.301
 3005POPC   D2A41584   4.624  28.578   6.573
 3005POPC   C3A41585   4.525  28.754   6.942
 3005POPC   C4A41586   4.529  28.538   7.296
 3005POPC   C1B41587   4.142  27.937   6.201
 3005POPC   C2B41588   4.117  28.094   6.613
 3005POPC   C3B41589   4.387  28.170   6.946
 3005POPC   C4B41590   4.187  28.061   7.325
 3006POPC   NC341591   6.943  31.550   5.480
 3006POPC   PO441592   6.288  31.561   5.341
 3006POPC   GL141593   6.430  31.640   5.784
 3006POPC   GL241594   6.621  31.364   5.891
 3006POPC   C1A41595   6.326  31.702   6.223
 3006POPC   D2A41596   6.545  31.445   6.533
 3006POPC   C3A41597   6.650  31.466   6.976
 3006POPC   C4A41598   6.394  31.584   7.388
 3006POPC   C1B41599   6.833  31.677   6.168
 3006POPC   C2B41600   7.089  31.844   6.517
 3006POPC   C3B41601   6.983  31.938   6.936
 3006POPC   C4B41602   6.866  31.770   7.318
 3007POPC   NC341603  23.398   5.640   5.438
 3007POPC   PO441604  23.746   6.192   5.257
 3007POPC   GL141605  23.671   6.211   5.726
 3007POPC   GL241606  23.668   5.875   5.837
 3007POPC   C1A41607  23.845   6.213   6.187
 3007POPC   D2A41608  23.697   6.046   6.600
 3007POPC   C3A41609  23.949   6.073   6.981
 3007POPC   C4A41610  23.863   5.952   7.441
 3007POPC   C1B41611  23.788   5.677   6.226
 3007POPC   C2B41612  23.684   5.501   6.635
 3007POPC   C3B41613  23.643   5.678   7.021
 3007POPC   C4B41614  23.448   6.085   7.076
 3008POPC   NC341615   0.225   6.442   5.498
 3008POPC   PO441616   0.669   6.928   5.324
 3008POPC   GL141617   0.612   6.691   5.729
 3008POPC   GL241618   0.263   6.737   5.908
 3008POPC   C1A41619   0.683   6.523   6.160
 3008POPC   D2A41620   0.444   6.675   6.502
 3008POPC   C3A41621   0.634   6.765   6.888
 3008POPC   C4A41622   0.543   6.624   7.277
 3008POPC   C1B41623   0.033   6.962   6.226
 3008POPC   C2B41624   0.147   7.076   6.641
 3008POPC   C3B41625   0.183   6.966   7.063
 3008POPC   C4B41626   0.048   6.659   7.371
 3009POPC   NC341627  17.243  39.898   5.554
 3009POPC   PO441628  17.809  40.302   5.492
 3009POPC   GL141629  17.607  40.145   5.829
 3009POPC   GL241630  17.301  40.275   5.868
 3009POPC   C1A41631  17.602  39.949   6.207
 3009POPC   D2A41632  17.696  40.085   6.589
 3009POPC   C3A41633  17.646  39.830   6.932
 3009POPC   C4A41634  17.494  39.986   7.337
 3009POPC   C1B41635  17.120  40.132   6.203
 3009POPC   C2B41636  17.206  39.889   6.562
 3009POPC   C3B41637  17.142  39.960   6.979
 3009POPC   C4B41638  16.986  39.913   7.415
 3010POPC   NC341639  30.478  44.886   5.221
 3010POPC   PO441640  30.793  44.285   5.426
 3010POPC   GL141641  30.812  44.589   5.706
 3010POPC   GL241642  30.441  44.642   5.690
 3010POPC   C1A41643  30.994  44.641   6.114
 3010POPC   D2A41644  30.922  44.869   6.459
 3010POPC   C3A41645  30.943  44.690   6.893
 3010POPC   C4A41646  31.121  44.409   7.218
 3010POPC   C1B41647  30.504  44.489   6.129
 3010POPC   C2B41648  30.554  44.519   6.582
 3010POPC   C3B41649  30.448  44.616   7.036
 3010POPC   C4B41650  30.258  44.664   7.461
 3011POPC   NC341651  13.145   2.701   5.363
 3011POPC   PO441652  12.484   2.580   5.250
 3011POPC   GL141653  12.601   2.771   5.667
 3011POPC   GL241654  12.819   2.561   5.801
 3011POPC   C1A41655  12.642   2.804   6.199
 3011POPC   D2A41656  12.554   2.698   6.694
 3011POPC   C3A41657  12.624   2.905   7.112
 3011POPC   C4A41658  12.460   2.969   7.539
 3011POPC   C1B41659  12.907   2.336   6.189
 3011POPC   C2B41660  12.977   2.423   6.610
 3011POPC   C3B41661  12.993   2.536   7.020
 3011POPC   C4B41662  13.228   2.647   7.351
 3012POPC   NC341663  26.001  26.656   5.429
 3012POPC   PO441664  26.494  27.004   5.556
 3012POPC   GL141665  26.267  26.763   5.864
 3012POPC   GL241666  26.073  27.054   5.933
 3012POPC   C1A41667  25.935  26.674   6.216
 3012POPC   D2A41668  25.794  26.712   6.613
 3012POPC   C3A41669  25.841  26.414   6.945
 3012POPC   C4A41670  25.969  26.723   7.235
 3012POPC   C1B41671  26.068  27.132   6.413
 3012POPC   C2B41672  26.020  27.093   6.876
 3012POPC   C3B41673  26.240  27.191   7.262
 3012POPC   C4B41674  26.139  27.406   7.675
 3013POPC   NC341675   8.845  19.761   5.468
 3013POPC   PO441676   9.491  19.723   5.327
 3013POPC   GL141677   9.276  19.736   5.748
 3013POPC   GL241678   9.106  20.096   5.808
 3013POPC   C1A41679   9.382  19.859   6.174
 3013POPC   D2A41680   9.268  20.177   6.468
 3013POPC   C3A41681   9.104  19.966   6.798
 3013POPC   C4A41682   9.244  19.701   7.104
 3013POPC   C1B41683   8.855  19.924   6.179
 3013POPC   C2B41684   8.766  19.611   6.524
 3013POPC   C3B41685   8.715  19.627   6.982
 3013POPC   C4B41686   8.803  20.007   7.211
 3014POPC   NC341687   1.362  29.669   5.421
 3014POPC   PO441688   1.315  30.277   5.522
 3014POPC   GL141689   1.254  29.970   5.830
 3014POPC   GL241690   0.960  29.723   5.800
 3014POPC   C1A41691   1.208  29.811   6.241
 3014POPC   D2A41692   0.925  29.804   6.558
 3014POPC   C3A41693   1.158  29.796   6.904
 3014POPC   C4A41694   1.326  29.776   7.281
 3014POPC   C1B41695   0.810  30.086   6.054
 3014POPC   C2B41696   0.967  30.314   6.420
 3014POPC   C3B41697   0.889  30.251   6.875
 3014POPC   C4B41698   1.066  30.467   7.227
 3015POPC   NC341699  35.878   4.193   5.572
 3015POPC   PO441700  35.284   4.425   5.270
 3015POPC   GL141701  35.353   4.172   5.662
 3015POPC   GL241702  35.213   4.449   5.851
 3015POPC   C1A41703  35.518   4.122   6.117
 3015POPC   D2A41704  35.335   4.181   6.527
 3015POPC   C3A41705  35.538   4.144   6.922
 3015POPC   C4A41706  35.413   4.061   7.347
 3015POPC   C1B41707  35.402   4.610   6.262
 3015POPC   C2B41708  35.548   4.623   6.702
 3015POPC   C3B41709  35.321   4.586   7.088
 3015POPC   C4B41710  34.920   4.685   7.278
 3016POPC   NC341711  13.350  38.901   5.481
 3016POPC   PO441712  13.805  39.397   5.606
 3016POPC   GL141713  13.573  39.158   5.861
 3016POPC   GL241714  13.770  38.886   5.823
 3016POPC   C1A41715  13.493  39.153   6.270
 3016POPC   D2A41716  13.705  39.399   6.576
 3016POPC   C3A41717  13.535  39.339   6.979
 3016POPC   C4A41718  13.362  38.931   7.081
 3016POPC   C1B41719  13.975  38.984   6.218
 3016POPC   C2B41720  14.087  39.046   6.627
 3016POPC   C3B41721  13.888  38.939   7.004
 3016POPC   C4B41722  13.748  38.895   7.435
 3017POPC   NC341723  14.477  36.646   5.517
 3017POPC   PO441724  14.068  37.262   5.468
 3017POPC   GL141725  14.246  37.095   5.871
 3017POPC   GL241726  14.012  36.824   5.895
 3017POPC   C1A41727  14.524  37.174   6.275
 3017POPC   D2A41728  14.487  36.993   6.674
 3017POPC   C3A41729  14.726  36.893   7.010
 3017POPC   C4A41730  14.518  37.053   7.391
 3017POPC   C1B41731  14.346  36.674   6.199
 3017POPC   C2B41732  14.318  36.522   6.635
 3017POPC   C3B41733  14.187  36.750   7.035
 3017POPC   C4B41734  14.134  36.724   7.500
 3018POPC   NC341735  24.520  14.867   5.347
 3018POPC   PO441736  24.074  15.371   5.483
 3018POPC   GL141737  24.444  15.318   5.776
 3018POPC   GL241738  24.498  14.995   5.826
 3018POPC   C1A41739  24.640  15.343   6.193
 3018POPC   D2A41740  24.451  15.214   6.583
 3018POPC   C3A41741  24.601  15.380   6.960
 3018POPC   C4A41742  24.458  15.270   7.351
 3018POPC   C1B41743  24.536  14.830   6.223
 3018POPC   C2B41744  24.860  14.863   6.535
 3018POPC   C3B41745  24.676  14.862   6.922
 3018POPC   C4B41746  24.256  14.796   7.073
 3019POPC   NC341747  16.927  10.478   5.615
 3019POPC   PO441748  16.284  10.475   5.389
 3019POPC   GL141749  16.416  10.632   5.819
 3019POPC   GL241750  16.662  10.862   5.871
 3019POPC   C1A41751  16.495  10.650   6.304
 3019POPC   D2A41752  16.673  10.432   6.665
 3019POPC   C3A41753  16.652  10.533   7.109
 3019POPC   C4A41754  16.635  10.445   7.571
 3019POPC   C1B41755  16.929  11.004   6.228
 3019POPC   C2B41756  16.986  10.848   6.666
 3019POPC   C3B41757  16.916  10.979   7.105
 3019POPC   C4B41758  16.576  10.921   7.420
 3020POPC   NC341759  30.225   5.896   5.193
 3020POPC   PO441760  29.651   5.675   5.365
 3020POPC   GL141761  29.984   5.811   5.665
 3020POPC   GL241762  29.822   6.112   5.816
 3020POPC   C1A41763  30.061   5.738   6.125
 3020POPC   D2A41764  29.849   5.881   6.552
 3020POPC   C3A41765  29.957   5.782   6.987
 3020POPC   C4A41766  29.748   5.864   7.376
 3020POPC   C1B41767  30.025   6.228   6.220
 3020POPC   C2B41768  30.138   6.310   6.643
 3020POPC   C3B41769  30.235   6.229   7.044
 3020POPC   C4B41770  30.239   5.989   7.378
 3021POPC   NC341771   7.551   1.744   5.487
 3021POPC   PO441772   7.999   2.138   5.442
 3021POPC   GL141773   8.368   1.924   5.708
 3021POPC   GL241774   8.098   1.891   5.951
 3021POPC   C1A41775   8.541   1.760   6.129
 3021POPC   D2A41776   8.362   1.918   6.500
 3021POPC   C3A41777   8.505   1.847   6.900
 3021POPC   C4A41778   8.296   1.885   7.249
 3021POPC   C1B41779   7.905   1.779   6.343
 3021POPC   C2B41780   7.951   1.860   6.798
 3021POPC   C3B41781   7.825   1.689   7.185
 3021POPC   C4B41782   7.886   1.887   7.575
 3022POPC   NC341783  22.275  23.336   5.437
 3022POPC   PO441784  21.964  23.939   5.355
 3022POPC   GL141785  22.041  23.857   5.782
 3022POPC   GL241786  22.326  23.627   5.854
 3022POPC   C1A41787  22.203  23.992   6.176
 3022POPC   D2A41788  22.171  23.744   6.553
 3022POPC   C3A41789  22.092  23.882   6.952
 3022POPC   C4A41790  22.006  23.757   7.373
 3022POPC   C1B41791  22.561  23.586   6.249
 3022POPC   C2B41792  22.568  23.454   6.720
 3022POPC   C3B41793  22.469  23.574   7.173
 3022POPC   C4B41794  22.336  23.446   7.615
 3023POPC   NC341795  39.512  13.644   5.522
 3023POPC   PO441796  38.938  13.646   5.300
 3023POPC   GL141797  39.128  13.533   5.796
 3023POPC   GL241798  39.198  13.163   5.910
 3023POPC   C1A41799  39.257  13.581   6.241
 3023POPC   D2A41800  39.107  13.652   6.655
 3023POPC   C3A41801  39.341  13.599   7.056
 3023POPC   C4A41802  38.978  13.392   7.126
 3023POPC   C1B41803  39.454  13.114   6.279
 3023POPC   C2B41804  39.607  13.382   6.619
 3023POPC   C3B41805  39.647  13.164   7.026
 3023POPC   C4B41806  39.328  13.083   7.284
 3024POPC   NC341807   9.404  10.079   5.201
 3024POPC   PO441808   9.566   9.430   5.366
 3024POPC   GL141809   9.633   9.647   5.763
 3024POPC   GL241810   9.996   9.646   5.754
 3024POPC   C1A41811   9.794   9.872   6.172
 3024POPC   D2A41812   9.928  10.146   6.519
 3024POPC   C3A41813   9.693  10.113   6.892
 3024POPC   C4A41814   9.405   9.854   7.132
 3024POPC   C1B41815  10.168   9.457   6.137
 3024POPC   C2B41816  10.206   9.504   6.582
 3024POPC   C3B41817   9.840   9.619   6.817
 3024POPC   C4B41818   9.876   9.741   7.246
 3025POPC   NC341819   6.904  41.672   5.671
 3025POPC   PO441820   7.447  41.516   5.292
 3025POPC   GL141821   7.438  41.686   5.708
 3025POPC   GL241822   7.282  41.985   5.804
 3025POPC   C1A41823   7.542  41.513   6.091
 3025POPC   D2A41824   7.770  41.620   6.463
 3025POPC   C3A41825   7.479  41.635   6.784
 3025POPC   C4A41826   7.555  41.598   7.210
 3025POPC   C1B41827   7.186  41.846   6.241
 3025POPC   C2B41828   7.056  41.952   6.641
 3025POPC   C3B41829   7.069  41.785   7.077
 3025POPC   C4B41830   7.233  41.950   7.429
 3026POPC   NC341831  38.511  23.479   5.550
 3026POPC   PO441832  38.342  23.982   5.644
 3026POPC   GL141833  38.333  23.928   6.088
 3026POPC   GL241834  38.715  23.943   6.037
 3026POPC   C1A41835  38.176  23.681   6.515
 3026POPC   D2A41836  38.356  23.266   6.632
 3026POPC   C3A41837  38.571  23.246   6.985
 3026POPC   C4A41838  38.375  23.597   7.131
 3026POPC   C1B41839  39.010  23.761   6.394
 3026POPC   C2B41840  38.839  23.691   6.841
 3026POPC   C3B41841  38.727  23.973   7.209
 3026POPC   C4B41842  38.800  23.931   7.676
 3027POPC   NC341843  24.362  11.202   5.202
 3027POPC   PO441844  24.977  11.344   5.508
 3027POPC   GL141845  24.610  11.322   5.727
 3027POPC   GL241846  24.384  11.611   5.619
 3027POPC   C1A41847  24.671  11.203   6.172
 3027POPC   D2A41848  24.804  11.034   6.590
 3027POPC   C3A41849  24.520  11.132   6.911
 3027POPC   C4A41850  24.145  11.051   7.157
 3027POPC   C1B41851  24.401  11.657   6.064
 3027POPC   C2B41852  24.638  11.639   6.440
 3027POPC   C3B41853  24.700  11.659   6.889
 3027POPC   C4B41854  24.454  11.504   7.242
 3028POPC   NC341855  19.130  36.426   5.548
 3028POPC   PO441856  19.073  37.087   5.507
 3028POPC   GL141857  18.916  37.065   5.882
 3028POPC   GL241858  18.726  37.370   5.896
 3028POPC   C1A41859  19.009  36.816   6.244
 3028POPC   D2A41860  19.151  36.814   6.665
 3028POPC   C3A41861  18.858  36.636   6.952
 3028POPC   C4A41862  18.849  36.722   7.351
 3028POPC   C1B41863  18.585  37.154   6.247
 3028POPC   C2B41864  18.661  36.961   6.615
 3028POPC   C3B41865  18.693  37.114   7.011
 3028POPC   C4B41866  18.808  37.248   7.411
 3029POPC   NC341867  30.905  12.655   5.427
 3029POPC   PO441868  31.646  12.728   5.351
 3029POPC   GL141869  31.456  12.697   5.768
 3029POPC   GL241870  31.122  12.810   5.865
 3029POPC   C1A41871  31.455  12.604   6.213
 3029POPC   D2A41872  31.765  12.729   6.541
 3029POPC   C3A41873  31.797  12.515   6.964
 3029POPC   C4A41874  31.643  12.650   7.394
 3029POPC   C1B41875  31.124  13.023   6.277
 3029POPC   C2B41876  31.259  12.827   6.664
 3029POPC   C3B41877  31.588  12.966   6.975
 3029POPC   C4B41878  31.672  13.233   7.316
 3030POPC   NC341879   2.403  34.930   5.437
 3030POPC   PO441880   2.739  34.395   5.612
 3030POPC   GL141881   2.680  34.715   5.860
 3030POPC   GL241882   2.983  34.883   5.812
 3030POPC   C1A41883   2.661  34.613   6.290
 3030POPC   D2A41884   2.894  34.596   6.658
 3030POPC   C3A41885   2.659  34.583   7.042
 3030POPC   C4A41886   2.662  34.849   7.391
 3030POPC   C1B41887   3.032  34.974   6.263
 3030POPC   C2B41888   3.302  34.937   6.648
 3030POPC   C3B41889   3.141  34.837   7.065
 3030POPC   C4B41890   3.181  34.700   7.477
 3031POPC   NC341891   1.557  20.357   5.467
 3031POPC   PO441892   1.153  20.788   5.479
 3031POPC   GL141893   1.452  20.753   5.823
 3031POPC   GL241894   1.322  20.445   5.909
 3031POPC   C1A41895   1.436  21.019   6.217
 3031POPC   D2A41896   1.625  21.028   6.626
 3031POPC   C3A41897   1.365  20.958   6.985
 3031POPC   C4A41898   1.314  20.606   7.243
 3031POPC   C1B41899   1.035  20.706   6.153
 3031POPC   C2B41900   1.100  20.769   6.579
 3031POPC   C3B41901   0.907  20.647   6.948
 3031POPC   C4B41902   0.924  20.311   7.293
 3032POPC   NC341903  11.553   1.303   5.642
 3032POPC   PO441904  11.065   1.101   5.256
 3032POPC   GL141905  11.087   1.149   5.706
 3032POPC   GL241906  11.356   0.881   5.833
 3032POPC   C1A41907  11.079   1.324   6.119
 3032POPC   D2A41908  11.164   1.167   6.545
 3032POPC   C3A41909  11.306   1.406   6.902
 3032POPC   C4A41910  11.512   1.400   7.322
 3032POPC   C1B41911  11.404   0.792   6.269
 3032POPC   C2B41912  11.538   0.849   6.709
 3032POPC   C3B41913  11.392   0.926   7.142
 3032POPC   C4B41914  11.336   0.995   7.610
 3033POPC   NC341915  22.509  30.061   5.464
 3033POPC   PO441916  23.162  30.144   5.528
 3033POPC   GL141917  22.876  29.989   5.844
 3033POPC   GL241918  22.740  30.311   5.912
 3033POPC   C1A41919  22.765  29.919   6.300
 3033POPC   D2A41920  22.949  29.976   6.734
 3033POPC   C3A41921  22.753  29.834   7.127
 3033POPC   C4A41922  22.496  29.723   7.493
 3033POPC   C1B41923  23.013  30.372   6.316
 3033POPC   C2B41924  23.137  30.462   6.782
 3033POPC   C3B41925  23.137  30.229   7.180
 3033POPC   C4B41926  22.830  30.203   7.513
 3034POPC   NC341927   1.171  23.578   5.658
 3034POPC   PO441928   1.622  24.125   5.440
 3034POPC   GL141929   1.405  23.985   5.822
 3034POPC   GL241930   1.598  23.680   5.914
 3034POPC   C1A41931   1.169  23.818   6.237
 3034POPC   D2A41932   0.915  23.955   6.599
 3034POPC   C3A41933   1.105  23.798   6.966
 3034POPC   C4A41934   1.135  23.446   7.220
 3034POPC   C1B41935   1.661  24.000   6.246
 3034POPC   C2B41936   1.432  24.043   6.609
 3034POPC   C3B41937   1.583  23.948   6.995
 3034POPC   C4B41938   1.603  23.632   7.295
 3035POPC   NC341939   3.868   8.767   5.682
 3035POPC   PO441940   3.276   8.656   5.551
 3035POPC   GL141941   3.333   8.313   5.810
 3035POPC   GL241942   3.013   8.173   5.864
 3035POPC   C1A41943   3.578   8.232   6.211
 3035POPC   D2A41944   3.807   8.329   6.615
 3035POPC   C3A41945   3.757   8.188   7.066
 3035POPC   C4A41946   3.729   8.412   7.474
 3035POPC   C1B41947   3.066   8.346   6.297
 3035POPC   C2B41948   3.300   8.258   6.705
 3035POPC   C3B41949   3.242   8.148   7.158
 3035POPC   C4B41950   3.205   8.395   7.537
 3036POPC   NC341951  43.616  33.367   4.889
 3036POPC   PO441952  44.039  32.992   5.268
 3036POPC   GL141953  44.141  32.830   5.683
 3036POPC   GL241954  44.258  33.132   5.841
 3036POPC   C1A41955  44.036  32.792   6.140
 3036POPC   D2A41956  44.216  32.808   6.565
 3036POPC   C3A41957  44.019  32.920   6.946
 3036POPC   C4A41958  43.625  33.046   7.124
 3036POPC   C1B41959  44.336  33.201   6.268
 3036POPC   C2B41960  44.276  33.303   6.705
 3036POPC   C3B41961  44.020  33.409   7.078
 3036POPC   C4B41962  44.155  33.270   7.472
 3037POPC   NC341963  34.006   4.541   5.340
 3037POPC   PO441964  34.036   5.155   5.331
 3037POPC   GL141965  33.896   4.927   5.734
 3037POPC   GL241966  33.593   4.758   5.662
 3037POPC   C1A41967  33.860   5.025   6.217
 3037POPC   D2A41968  33.948   5.230   6.634
 3037POPC   C3A41969  33.778   5.016   6.999
 3037POPC   C4A41970  33.669   4.758   7.345
 3037POPC   C1B41971  33.574   4.610   6.134
 3037POPC   C2B41972  33.586   4.708   6.604
 3037POPC   C3B41973  33.303   4.827   6.961
 3037POPC   C4B41974  33.283   5.075   7.385
 3038POPC   NC341975  13.471  30.301   5.456
 3038POPC   PO441976  13.437  29.650   5.516
 3038POPC   GL141977  13.520  29.942   5.866
 3038POPC   GL241978  13.229  30.121   5.874
 3038POPC   C1A41979  13.480  30.098   6.329
 3038POPC   D2A41980  13.391  30.090   6.792
 3038POPC   C3A41981  13.656  29.822   7.103
 3038POPC   C4A41982  13.772  29.361   7.227
 3038POPC   C1B41983  13.148  29.748   6.168
 3038POPC   C2B41984  13.019  29.763   6.620
 3038POPC   C3B41985  13.156  29.711   7.059
 3038POPC   C4B41986  13.359  29.603   7.471
 3039POPC   NC341987   8.445  21.858   5.541
 3039POPC   PO441988   9.020  22.226   5.468
 3039POPC   GL141989   8.963  21.940   5.839
 3039POPC   GL241990   8.627  21.879   6.023
 3039POPC   C1A41991   9.074  22.045   6.263
 3039POPC   D2A41992   8.858  21.999   6.646
 3039POPC   C3A41993   9.068  22.114   7.006
 3039POPC   C4A41994   8.891  22.088   7.419
 3039POPC   C1B41995   8.649  22.311   6.253
 3039POPC   C2B41996   8.835  22.505   6.678
 3039POPC   C3B41997   8.708  22.500   7.138
 3039POPC   C4B41998   8.571  22.441   7.601
 3040POPC   NC341999   5.754  37.655   5.421
 3040POPC   PO442000   6.395  37.545   5.670
 3040POPC   GL142001   6.015  37.538   5.846
 3040POPC   GL242002   5.938  37.909   5.817
 3040POPC   C1A42003   5.864  37.614   6.261
 3040POPC   D2A42004   6.105  37.708   6.630
 3040POPC   C3A42005   5.908  37.515   6.969
 3040POPC   C4A42006   5.942  37.662   7.374
 3040POPC   C1B42007   5.525  37.961   6.041
 3040POPC   C2B42008   5.427  38.029   6.468
 3040POPC   C3B42009   5.643  37.952   6.838
 3040POPC   C4B42010   5.612  38.033   7.288
 3041POPC   NC342011  41.561   3.374   5.353
 3041POPC   PO442012  41.728   4.029   5.433
 3041POPC   GL142013  41.585   3.753   5.785
 3041POPC   GL242014  41.349   3.471   5.827
 3041POPC   C1A42015  41.469   3.787   6.224
 3041POPC   D2A42016  41.675   3.818   6.614
 3041POPC   C3A42017  41.388   3.682   6.940
 3041POPC   C4A42018  41.605   3.728   7.308
 3041POPC   C1B42019  41.206   3.304   6.220
 3041POPC   C2B42020  41.064   3.423   6.621
 3041POPC   C3B42021  41.052   3.196   7.019
 3041POPC   C4B42022  41.289   3.327   7.370
 3042POPC   NC342023  29.925  37.495   5.457
 3042POPC   PO442024  29.321  37.428   5.419
 3042POPC   GL142025  29.579  37.604   5.820
 3042POPC   GL242026  29.949  37.701   5.915
 3042POPC   C1A42027  29.588  37.740   6.272
 3042POPC   D2A42028  29.908  37.864   6.587
 3042POPC   C3A42029  29.774  37.754   6.995
 3042POPC   C4A42030  29.616  37.535   7.358
 3042POPC   C1B42031  30.008  37.433   6.305
 3042POPC   C2B42032  30.036  37.390   6.766
 3042POPC   C3B42033  30.070  37.373   7.196
 3042POPC   C4B42034  30.059  37.720   7.499
 3043POPC   NC342035  34.887  24.530   5.160
 3043POPC   PO442036  34.499  24.004   5.207
 3043POPC   GL142037  34.517  24.335   5.571
 3043POPC   GL242038  34.252  24.295   5.813
 3043POPC   C1A42039  34.740  24.438   5.980
 3043POPC   D2A42040  34.801  24.367   6.439
 3043POPC   C3A42041  34.953  24.532   6.841
 3043POPC   C4A42042  34.761  24.565   7.242
 3043POPC   C1B42043  34.275  24.485   6.239
 3043POPC   C2B42044  34.016  24.618   6.596
 3043POPC   C3B42045  34.162  24.507   7.023
 3043POPC   C4B42046  34.309  24.776   7.343
 3044POPC   NC342047  18.852  25.240   5.390
 3044POPC   PO442048  19.453  25.023   5.372
 3044POPC   GL142049  19.280  25.164   5.744
 3044POPC   GL242050  19.057  24.903   5.791
 3044POPC   C1A42051  19.446  25.241   6.179
 3044POPC   D2A42052  19.610  25.124   6.610
 3044POPC   C3A42053  19.345  25.280   6.969
 3044POPC   C4A42054  19.156  24.981   7.237
 3044POPC   C1B42055  18.977  24.938   6.254
 3044POPC   C2B42056  18.983  25.065   6.696
 3044POPC   C3B42057  18.779  25.268   7.061
 3044POPC   C4B42058  18.484  25.093   7.389
 3045POPC   NC342059  15.275  19.531   5.387
 3045POPC   PO442060  14.923  20.006   5.066
 3045POPC   GL142061  14.865  19.982   5.563
 3045POPC   GL242062  14.930  19.660   5.749
 3045POPC   C1A42063  14.953  20.188   6.005
 3045POPC   D2A42064  15.238  20.221   6.398
 3045POPC   C3A42065  15.140  20.239   6.860
 3045POPC   C4A42066  15.053  20.129   7.300
 3045POPC   C1B42067  15.198  19.756   6.128
 3045POPC   C2B42068  15.327  19.720   6.563
 3045POPC   C3B42069  15.170  19.741   6.978
 3045POPC   C4B42070  14.762  19.676   7.160
 3046POPC   NC342071  12.394  40.241   5.520
 3046POPC   PO442072  12.163  39.607   5.215
 3046POPC   GL142073  12.101  39.674   5.655
 3046POPC   GL242074  12.068  39.999   5.819
 3046POPC   C1A42075  12.140  39.606   6.112
 3046POPC   D2A42076  12.336  39.796   6.488
 3046POPC   C3A42077  12.107  39.793   6.870
 3046POPC   C4A42078  12.265  39.786   7.254
 3046POPC   C1B42079  12.197  40.198   6.194
 3046POPC   C2B42080  12.041  40.233   6.610
 3046POPC   C3B42081  12.227  40.266   7.020
 3046POPC   C4B42082  12.053  40.174   7.476
 3047POPC   NC342083  23.894  14.118   5.502
 3047POPC   PO442084  23.494  14.625   5.350
 3047POPC   GL142085  23.703  14.528   5.743
 3047POPC   GL242086  23.510  14.268   5.850
 3047POPC   C1A42087  23.893  14.493   6.159
 3047POPC   D2A42088  23.895  14.303   6.580
 3047POPC   C3A42089  23.820  14.524   6.969
 3047POPC   C4A42090  23.972  14.514   7.404
 3047POPC   C1B42091  23.498  14.124   6.264
 3047POPC   C2B42092  23.455  14.068   6.706
 3047POPC   C3B42093  23.365  14.312   7.078
 3047POPC   C4B42094  23.475  14.502   7.460
 3048POPC   NC342095  23.232  17.200   5.405
 3048POPC   PO442096  22.630  17.288   5.566
 3048POPC   GL142097  23.015  17.506   5.769
 3048POPC   GL242098  23.201  17.259   5.922
 3048POPC   C1A42099  23.231  17.648   6.214
 3048POPC   D2A42100  23.321  17.432   6.622
 3048POPC   C3A42101  23.135  17.593   7.028
 3048POPC   C4A42102  22.943  17.888   7.349
 3048POPC   C1B42103  22.805  17.370   6.199
 3048POPC   C2B42104  22.819  17.357   6.635
 3048POPC   C3B42105  22.909  17.138   7.013
 3048POPC   C4B42106  22.790  17.371   7.396
 3049POPC   NC342107   3.175  23.125   5.437
 3049POPC   PO442108   3.801  22.859   5.247
 3049POPC   GL142109   3.773  22.858   5.674
 3049POPC   GL242110   3.651  23.200   5.643
 3049POPC   C1A42111   3.803  22.744   6.110
 3049POPC   D2A42112   3.823  22.846   6.538
 3049POPC   C3A42113   3.418  22.848   6.729
 3049POPC   C4A42114   3.374  23.017   7.100
 3049POPC   C1B42115   3.589  23.209   6.100
 3049POPC   C2B42116   3.486  23.311   6.521
 3049POPC   C3B42117   3.479  23.518   6.904
 3049POPC   C4B42118   3.251  23.451   7.291
 3050POPC   NC342119   7.741  32.405   5.241
 3050POPC   PO442120   7.693  31.752   5.368
 3050POPC   GL142121   7.388  31.971   5.645
 3050POPC   GL242122   7.345  32.347   5.705
 3050POPC   C1A42123   7.225  31.983   6.041
 3050POPC   D2A42124   7.353  32.276   6.319
 3050POPC   C3A42125   7.410  32.192   6.745
 3050POPC   C4A42126   7.394  32.288   7.168
 3050POPC   C1B42127   7.726  32.374   5.985
 3050POPC   C2B42128   7.813  32.424   6.456
 3050POPC   C3B42129   7.682  32.701   6.799
 3050POPC   C4B42130   7.748  32.633   7.235
 3051POPC   NC342131  14.760   1.013   5.441
 3051POPC   PO442132  14.103   0.858   5.507
 3051POPC   GL142133  14.278   1.171   5.794
 3051POPC   GL242134  14.542   1.439   5.730
 3051POPC   C1A42135  14.254   1.217   6.236
 3051POPC   D2A42136  14.531   1.057   6.564
 3051POPC   C3A42137  14.324   1.210   6.902
 3051POPC   C4A42138  14.347   1.129   7.320
 3051POPC   C1B42139  14.380   1.686   6.105
 3051POPC   C2B42140  14.461   1.610   6.572
 3051POPC   C3B42141  14.651   1.595   7.023
 3051POPC   C4B42142  14.484   1.597   7.440
 3052POPC   NC342143  12.237  42.666   5.224
 3052POPC   PO442144  12.454  42.069   5.348
 3052POPC   GL142145  12.194  42.183   5.681
 3052POPC   GL242146  12.217  42.541   5.735
 3052POPC   C1A42147  12.036  42.174   6.123
 3052POPC   D2A42148  11.971  42.022   6.554
 3052POPC   C3A42149  11.902  42.152   6.992
 3052POPC   C4A42150  11.776  42.514   7.241
 3052POPC   C1B42151  12.231  42.646   6.198
 3052POPC   C2B42152  12.091  42.528   6.641
 3052POPC   C3B42153  12.224  42.575   7.076
 3052POPC   C4B42154  12.200  42.679   7.524
 3053POPC   NC342155  12.180  11.379   5.119
 3053POPC   PO442156  11.632  10.941   5.352
 3053POPC   GL142157  11.864  11.259   5.738
 3053POPC   GL242158  12.239  11.226   5.648
 3053POPC   C1A42159  12.047  11.564   6.156
 3053POPC   D2A42160  12.335  11.582   6.546
 3053POPC   C3A42161  12.234  11.381   6.945
 3053POPC   C4A42162  11.842  11.463   7.180
 3053POPC   C1B42163  12.238  11.114   6.093
 3053POPC   C2B42164  11.984  11.168   6.493
 3053POPC   C3B42165  11.969  10.935   6.877
 3053POPC   C4B42166  11.807  10.950   7.287
 3054POPC   NC342167  30.143  12.010   5.484
 3054POPC   PO442168  29.759  12.584   5.328
 3054POPC   GL142169  29.765  12.301   5.646
 3054POPC   GL242170  30.101  12.420   5.769
 3054POPC   C1A42171  29.630  12.087   6.026
 3054POPC   D2A42172  29.776  11.898   6.421
 3054POPC   C3A42173  29.678  12.119   6.822
 3054POPC   C4A42174  29.706  12.012   7.271
 3054POPC   C1B42175  30.073  12.271   6.189
 3054POPC   C2B42176  30.225  12.110   6.606
 3054POPC   C3B42177  30.116  11.877   6.972
 3054POPC   C4B42178  30.179  11.925   7.446
 3055POPC   NC342179  20.883  30.815   5.464
 3055POPC   PO442180  20.358  30.403   5.582
 3055POPC   GL142181  20.615  30.661   5.895
 3055POPC   GL242182  20.647  31.050   5.855
 3055POPC   C1A42183  20.531  30.592   6.335
 3055POPC   D2A42184  20.499  30.811   6.718
 3055POPC   C3A42185  20.638  30.540   7.051
 3055POPC   C4A42186  20.606  30.688   7.440
 3055POPC   C1B42187  20.683  31.073   6.295
 3055POPC   C2B42188  20.854  31.193   6.695
 3055POPC   C3B42189  20.832  31.006   7.085
 3055POPC   C4B42190  21.089  30.741   7.259
 3056POPC   NC342191  10.521  15.555   5.504
 3056POPC   PO442192  10.764  14.933   5.465
 3056POPC   GL142193  10.572  15.119   5.793
 3056POPC   GL242194  10.807  15.395   5.869
 3056POPC   C1A42195  10.338  15.010   6.169
 3056POPC   D2A42196  10.477  14.946   6.593
 3056POPC   C3A42197  10.200  15.059   6.933
 3056POPC   C4A42198  10.214  14.916   7.352
 3056POPC   C1B42199  10.904  15.537   6.240
 3056POPC   C2B42200  10.712  15.412   6.630
 3056POPC   C3B42201  10.721  15.175   7.007
 3056POPC   C4B42202  10.944  15.328   7.340
 3057POPC   NC342203  29.758  35.122   5.431
 3057POPC   PO442204  29.699  35.830   5.641
 3057POPC   GL142205  29.826  35.416   5.837
 3057POPC   GL242206  30.059  35.086   5.845
 3057POPC   C1A42207  29.707  35.241   6.213
 3057POPC   D2A42208  29.895  35.453   6.574
 3057POPC   C3A42209  29.709  35.418   6.958
 3057POPC   C4A42210  29.654  35.081   7.253
 3057POPC   C1B42211  30.215  35.276   6.187
 3057POPC   C2B42212  30.277  35.097   6.576
 3057POPC   C3B42213  30.132  35.164   7.007
 3057POPC   C4B42214  30.115  35.002   7.444
 3058POPC   NC342215   1.619  19.538   5.532
 3058POPC   PO442216   1.021  19.797   5.446
 3058POPC   GL142217   1.321  19.910   5.825
 3058POPC   GL242218   1.045  20.033   6.027
 3058POPC   C1A42219   1.346  19.730   6.295
 3058POPC   D2A42220   1.202  19.698   6.732
 3058POPC   C3A42221   1.294  19.865   7.185
 3058POPC   C4A42222   1.360  19.580   7.539
 3058POPC   C1B42223   1.219  20.259   6.387
 3058POPC   C2B42224   1.162  20.220   6.832
 3058POPC   C3B42225   0.833  19.934   6.979
 3058POPC   C4B42226   0.947  19.510   7.193
 3059POPC   NC342227  39.633  12.380   5.511
 3059POPC   PO442228  39.233  11.895   5.222
 3059POPC   GL142229  39.262  12.006   5.670
 3059POPC   GL242230  39.610  11.908   5.739
 3059POPC   C1A42231  39.264  12.112   6.141
 3059POPC   D2A42232  39.202  12.020   6.595
 3059POPC   C3A42233  39.207  12.178   7.033
 3059POPC   C4A42234  39.399  11.885   7.345
 3059POPC   C1B42235  39.806  12.084   6.103
 3059POPC   C2B42236  39.674  12.240   6.459
 3059POPC   C3B42237  39.658  12.123   6.832
 3059POPC   C4B42238  39.701  12.254   7.213
 3060POPC   NC342239   2.171  29.419   5.073
 3060POPC   PO442240   2.474  28.979   5.431
 3060POPC   GL142241   2.183  28.949   5.783
 3060POPC   GL242242   1.817  28.966   5.709
 3060POPC   C1A42243   2.055  28.991   6.210
 3060POPC   D2A42244   2.031  29.230   6.591
 3060POPC   C3A42245   2.029  28.905   6.894
 3060POPC   C4A42246   2.273  28.850   7.258
 3060POPC   C1B42247   1.557  29.147   6.053
 3060POPC   C2B42248   1.589  29.021   6.477
 3060POPC   C3B42249   1.602  29.180   6.917
 3060POPC   C4B42250   1.974  29.391   7.092
 3061POPC   NC342251  41.308   4.273   5.123
 3061POPC   PO442252  40.650   4.399   5.275
 3061POPC   GL142253  40.719   4.248   5.718
 3061POPC   GL242254  40.927   4.472   5.910
 3061POPC   C1A42255  40.538   4.170   6.164
 3061POPC   D2A42256  40.448   4.347   6.593
 3061POPC   C3A42257  40.737   4.181   6.904
 3061POPC   C4A42258  41.059   4.034   7.204
 3061POPC   C1B42259  40.891   4.593   6.335
 3061POPC   C2B42260  41.071   4.837   6.696
 3061POPC   C3B42261  40.979   4.703   7.083
 3061POPC   C4B42262  40.706   4.476   7.317
 3062POPC   NC342263  24.587  22.331   5.584
 3062POPC   PO442264  24.504  21.670   5.570
 3062POPC   GL142265  24.371  21.927   5.856
 3062POPC   GL242266  24.694  21.996   5.995
 3062POPC   C1A42267  24.211  21.956   6.246
 3062POPC   D2A42268  24.271  22.191   6.620
 3062POPC   C3A42269  24.249  21.989   6.991
 3062POPC   C4A42270  24.271  22.271   7.283
 3062POPC   C1B42271  24.537  22.391   6.218
 3062POPC   C2B42272  24.615  22.602   6.600
 3062POPC   C3B42273  24.638  22.373   6.973
 3062POPC   C4B42274  24.777  22.230   7.427
 3063POPC   NC342275   0.632  44.924   4.992
 3063POPC   PO442276   0.718  44.520   5.502
 3063POPC   GL142277   0.446  44.654   5.853
 3063POPC   GL242278   0.463   0.019   5.978
 3063POPC   C1A42279   0.370  44.619   6.301
 3063POPC   D2A42280   0.454  44.814   6.683
 3063POPC   C3A42281   0.371  44.521   7.021
 3063POPC   C4A42282   0.159  44.495   7.393
 3063POPC   C1B42283   0.783   0.021   6.317
 3063POPC   C2B42284   0.973  44.897   6.736
 3063POPC   C3B42285   0.723  44.896   7.102
 3063POPC   C4B42286   0.261   0.007   7.176
 3064POPC   NC342287  16.695  14.895   5.334
 3064POPC   PO442288  16.312  15.563   5.422
 3064POPC   GL142289  16.706  15.286   5.676
 3064POPC   GL242290  16.719  14.918   5.831
 3064POPC   C1A42291  16.931  15.282   6.118
 3064POPC   D2A42292  16.818  15.161   6.547
 3064POPC   C3A42293  16.636  15.301   6.953
 3064POPC   C4A42294  16.870  15.217   7.334
 3064POPC   C1B42295  16.505  14.913   6.207
 3064POPC   C2B42296  16.605  14.712   6.577
 3064POPC   C3B42297  16.802  14.828   6.944
 3064POPC   C4B42298  16.500  14.868   7.280
 3065POPC   NC342299   0.266  30.554   5.427
 3065POPC   PO442300   0.641  31.015   5.539
 3065POPC   GL142301   0.429  30.795   5.841
 3065POPC   GL242302   0.610  30.505   5.861
 3065POPC   C1A42303   0.310  30.636   6.277
 3065POPC   D2A42304   0.055  30.386   6.580
 3065POPC   C3A42305   0.156  30.549   7.009
 3065POPC   C4A42306   0.268  31.007   7.065
 3065POPC   C1B42307   0.794  30.799   6.193
 3065POPC   C2B42308   0.696  31.033   6.565
 3065POPC   C3B42309   0.805  30.818   6.941
 3065POPC   C4B42310   0.587  30.664   7.291
 3066POPC   NC342311  20.372  32.933   5.595
 3066POPC   PO442312  20.299  33.460   5.155
 3066POPC   GL142313  20.490  33.422   5.677
 3066POPC   GL242314  20.779  33.244   5.819
 3066POPC   C1A42315  20.314  33.254   6.165
 3066POPC   D2A42316  20.210  32.826   6.394
 3066POPC   C3A42317  20.190  32.799   6.857
 3066POPC   C4A42318  20.461  33.053   7.130
 3066POPC   C1B42319  20.705  32.941   6.199
 3066POPC   C2B42320  20.818  32.924   6.647
 3066POPC   C3B42321  20.975  33.056   7.051
 3066POPC   C4B42322  20.882  32.820   7.409
 3067POPC   NC342323  40.793   4.833   5.287
 3067POPC   PO442324  41.083   5.328   5.624
 3067POPC   GL142325  40.828   5.009   5.904
 3067POPC   GL242326  40.544   4.819   5.740
 3067POPC   C1A42327  40.862   5.107   6.315
 3067POPC   D2A42328  40.815   5.309   6.685
 3067POPC   C3A42329  40.697   5.126   7.052
 3067POPC   C4A42330  40.699   5.254   7.461
 3067POPC   C1B42331  40.401   4.879   6.187
 3067POPC   C2B42332  40.544   4.851   6.626
 3067POPC   C3B42333  40.373   4.694   7.001
 3067POPC   C4B42334  40.381   4.871   7.410
 3068POPC   NC342335  31.687  22.014   5.306
 3068POPC   PO442336  31.118  22.436   5.496
 3068POPC   GL142337  31.421  22.345   5.818
 3068POPC   GL242338  31.771  22.327   5.704
 3068POPC   C1A42339  31.402  22.088   6.212
 3068POPC   D2A42340  31.401  22.012   6.681
 3068POPC   C3A42341  31.379  22.388   6.958
 3068POPC   C4A42342  31.122  22.479   7.335
 3068POPC   C1B42343  31.854  21.937   5.959
 3068POPC   C2B42344  31.791  21.790   6.388
 3068POPC   C3B42345  31.879  21.859   6.807
 3068POPC   C4B42346  31.640  21.962   7.155
 3069POPC   NC342347   9.370  17.327   5.419
 3069POPC   PO442348   8.765  17.639   5.342
 3069POPC   GL142349   8.935  17.671   5.793
 3069POPC   GL242350   9.311  17.691   5.811
 3069POPC   C1A42351   8.767  17.643   6.246
 3069POPC   D2A42352   8.501  17.474   6.593
 3069POPC   C3A42353   8.653  17.518   7.005
 3069POPC   C4A42354   8.887  17.814   7.222
 3069POPC   C1B42355   9.281  17.614   6.269
 3069POPC   C2B42356   9.141  17.619   6.718
 3069POPC   C3B42357   9.169  17.432   7.120
 3069POPC   C4B42358   9.315  17.154   7.408
 3070POPC   NC342359   5.742  40.991   5.358
 3070POPC   PO442360   5.543  40.497   5.762
 3070POPC   GL142361   5.894  40.745   5.798
 3070POPC   GL242362   6.162  40.516   5.693
 3070POPC   C1A42363   5.929  40.880   6.226
 3070POPC   D2A42364   5.760  40.764   6.622
 3070POPC   C3A42365   5.893  41.001   6.978
 3070POPC   C4A42366   5.963  40.807   7.370
 3070POPC   C1B42367   6.108  40.391   6.142
 3070POPC   C2B42368   6.127  40.371   6.595
 3070POPC   C3B42369   6.044  40.316   7.038
 3070POPC   C4B42370   6.280  40.416   7.426
 3071POPC   NC342371  11.675  10.358   5.635
 3071POPC   PO442372  12.097  10.723   5.191
 3071POPC   GL142373  11.985  10.759   5.701
 3071POPC   GL242374  12.288  10.607   5.961
 3071POPC   C1A42375  11.865  10.789   6.143
 3071POPC   D2A42376  12.180  10.686   6.456
 3071POPC   C3A42377  12.066  10.407   6.755
 3071POPC   C4A42378  12.016  10.487   7.193
 3071POPC   C1B42379  12.286  10.217   6.252
 3071POPC   C2B42380  12.530  10.183   6.635
 3071POPC   C3B42381  12.378  10.119   7.041
 3071POPC   C4B42382  12.393  10.275   7.438
 3072POPC   NC342383  35.654   0.394   5.395
 3072POPC   PO442384  34.930   0.282   5.404
 3072POPC   GL142385  35.270   0.237   5.725
 3072POPC   GL242386  35.331   0.593   5.787
 3072POPC   C1A42387  35.424   0.216   6.157
 3072POPC   D2A42388  35.360   0.423   6.581
 3072POPC   C3A42389  35.542   0.239   6.939
 3072POPC   C4A42390  35.389   0.148   7.311
 3072POPC   C1B42391  35.485   0.747   6.188
 3072POPC   C2B42392  35.769   0.717   6.514
 3072POPC   C3B42393  35.656   0.733   6.923
 3072POPC   C4B42394  35.337   0.660   7.210
 3073POPC   NC342395  28.438  27.647   5.493
 3073POPC   PO442396  28.717  27.152   5.680
 3073POPC   GL142397  28.596  27.476   5.948
 3073POPC   GL242398  28.252  27.574   5.983
 3073POPC   C1A42399  28.594  27.619   6.363
 3073POPC   D2A42400  28.247  27.694   6.630
 3073POPC   C3A42401  28.393  27.641   7.034
 3073POPC   C4A42402  28.691  27.910   7.211
 3073POPC   C1B42403  28.074  27.315   6.322
 3073POPC   C2B42404  27.999  27.269   6.786
 3073POPC   C3B42405  27.937  27.501   7.181
 3073POPC   C4B42406  28.201  27.764   7.513
 3074POPC   NC342407  34.199  35.355   5.373
 3074POPC   PO442408  34.853  35.257   5.368
 3074POPC   GL142409  34.861  35.434   5.794
 3074POPC   GL242410  34.641  35.179   5.854
 3074POPC   C1A42411  34.726  35.528   6.236
 3074POPC   D2A42412  34.367  35.396   6.502
 3074POPC   C3A42413  34.359  35.626   6.871
 3074POPC   C4A42414  34.745  35.677   7.057
 3074POPC   C1B42415  34.655  35.022   6.246
 3074POPC   C2B42416  34.783  35.123   6.641
 3074POPC   C3B42417  34.522  35.136   6.989
 3074POPC   C4B42418  34.407  34.915   7.363
 3075POPC   NC342419  15.032   9.496   5.446
 3075POPC   PO442420  15.358  10.105   5.469
 3075POPC   GL142421  15.228   9.813   5.798
 3075POPC   GL242422  15.375   9.488   5.851
 3075POPC   C1A42423  14.993   9.686   6.174
 3075POPC   D2A42424  15.087   9.855   6.589
 3075POPC   C3A42425  15.088   9.610   6.980
 3075POPC   C4A42426  15.107   9.746   7.421
 3075POPC   C1B42427  15.491   9.628   6.288
 3075POPC   C2B42428  15.563   9.596   6.746
 3075POPC   C3B42429  15.562   9.590   7.206
 3075POPC   C4B42430  15.827   9.515   7.560
 3076POPC   NC342431  37.010  42.984   5.344
 3076POPC   PO442432  37.307  43.566   5.518
 3076POPC   GL142433  37.042  43.455   5.864
 3076POPC   GL242434  36.838  43.184   5.782
 3076POPC   C1A42435  37.008  43.266   6.261
 3076POPC   D2A42436  36.905  42.999   6.580
 3076POPC   C3A42437  37.102  43.145   6.934
 3076POPC   C4A42438  37.113  43.028   7.351
 3076POPC   C1B42439  36.623  42.941   6.117
 3076POPC   C2B42440  36.461  42.721   6.483
 3076POPC   C3B42441  36.596  42.713   6.903
 3076POPC   C4B42442  36.688  42.790   7.331
 3077POPC   NC342443  19.728  10.973   5.444
 3077POPC   PO442444  19.895  11.615   5.350
 3077POPC   GL142445  19.787  11.373   5.745
 3077POPC   GL242446  20.121  11.220   5.750
 3077POPC   C1A42447  19.847  11.158   6.173
 3077POPC   D2A42448  20.094  11.184   6.558
 3077POPC   C3A42449  19.912  11.155   6.970
 3077POPC   C4A42450  19.663  11.269   7.296
 3077POPC   C1B42451  20.166  11.550   6.031
 3077POPC   C2B42452  20.118  11.689   6.432
 3077POPC   C3B42453  20.141  11.616   6.862
 3077POPC   C4B42454  19.962  11.660   7.249
 3078POPC   NC342455  28.115  23.473   5.545
 3078POPC   PO442456  28.580  23.900   5.692
 3078POPC   GL142457  28.726  23.589   5.981
 3078POPC   GL242458  28.594  23.300   5.789
 3078POPC   C1A42459  28.649  23.629   6.428
 3078POPC   D2A42460  28.257  23.674   6.698
 3078POPC   C3A42461  28.321  23.789   7.133
 3078POPC   C4A42462  28.211  23.821   7.572
 3078POPC   C1B42463  28.317  23.299   6.172
 3078POPC   C2B42464  28.454  23.188   6.590
 3078POPC   C3B42465  28.492  23.310   7.043
 3078POPC   C4B42466  28.561  23.485   7.470
 3079POPC   NC342467   0.597   8.392   5.319
 3079POPC   PO442468   0.313   7.844   5.142
 3079POPC   GL142469   0.438   8.027   5.640
 3079POPC   GL242470   0.664   8.350   5.811
 3079POPC   C1A42471   0.440   8.027   6.145
 3079POPC   D2A42472   0.662   8.081   6.552
 3079POPC   C3A42473   0.456   7.983   6.945
 3079POPC   C4A42474   0.021   7.865   7.044
 3079POPC   C1B42475   0.716   8.559   6.236
 3079POPC   C2B42476   0.643   8.578   6.683
 3079POPC   C3B42477   0.360   8.482   7.009
 3079POPC   C4B42478   0.447   8.468   7.459
 3080POPC   NC342479  33.494  27.028   5.117
 3080POPC   PO442480  34.048  26.739   5.267
 3080POPC   GL142481  33.835  26.799   5.672
 3080POPC   GL242482  33.715  27.152   5.702
 3080POPC   C1A42483  33.710  26.703   6.120
 3080POPC   D2A42484  33.483  26.711   6.528
 3080POPC   C3A42485  33.704  26.637   6.937
 3080POPC   C4A42486  33.606  26.750   7.345
 3080POPC   C1B42487  34.039  27.117   6.051
 3080POPC   C2B42488  34.032  27.286   6.464
 3080POPC   C3B42489  33.935  27.067   6.820
 3080POPC   C4B42490  34.104  26.926   7.199
 3081POPC   NC342491  42.431  41.948   5.322
 3081POPC   PO442492  42.138  42.624   5.337
 3081POPC   GL142493  42.190  42.358   5.735
 3081POPC   GL242494  42.532  42.261   5.753
 3081POPC   C1A42495  42.158  42.182   6.171
 3081POPC   D2A42496  42.333  42.033   6.562
 3081POPC   C3A42497  42.210  42.262   6.959
 3081POPC   C4A42498  42.497  42.566   7.133
 3081POPC   C1B42499  42.617  42.446   6.180
 3081POPC   C2B42500  42.721  42.444   6.633
 3081POPC   C3B42501  42.707  42.112   6.933
 3081POPC   C4B42502  42.585  42.087   7.369
 3082POPC   NC342503  30.198  25.167   5.499
 3082POPC   PO442504  29.631  25.550   5.556
 3082POPC   GL142505  29.755  25.253   5.815
 3082POPC   GL242506  29.466  25.060   5.773
 3082POPC   C1A42507  30.026  25.291   6.172
 3082POPC   D2A42508  30.090  25.555   6.539
 3082POPC   C3A42509  30.083  25.362   6.939
 3082POPC   C4A42510  29.998  25.226   7.352
 3082POPC   C1B42511  29.598  24.940   6.204
 3082POPC   C2B42512  29.773  25.094   6.585
 3082POPC   C3B42513  29.748  24.966   6.989
 3082POPC   C4B42514  29.481  25.022   7.351
 3083POPC   NC342515   6.522  19.533   5.486
 3083POPC   PO442516   6.818  20.144   5.475
 3083POPC   GL142517   6.702  19.890   5.817
 3083POPC   GL242518   6.987  19.724   5.978
 3083POPC   C1A42519   6.524  19.686   6.183
 3083POPC   D2A42520   6.499  19.891   6.561
 3083POPC   C3A42521   6.724  19.744   6.865
 3083POPC   C4A42522   6.459  19.730   7.203
 3083POPC   C1B42523   6.918  20.045   6.301
 3083POPC   C2B42524   6.764  20.300   6.661
 3083POPC   C3B42525   6.746  20.201   7.115
 3083POPC   C4B42526   6.915  20.209   7.560
 3084POPC   NC342527  29.226  25.388   5.424
 3084POPC   PO442528  28.961  24.809   5.521
 3084POPC   GL142529  28.985  25.187   5.839
 3084POPC   GL242530  28.918  25.565   5.782
 3084POPC   C1A42531  29.302  25.384   6.159
 3084POPC   D2A42532  29.527  25.567   6.553
 3084POPC   C3A42533  29.448  25.402   6.975
 3084POPC   C4A42534  29.023  25.248   7.153
 3084POPC   C1B42535  28.884  25.698   6.188
 3084POPC   C2B42536  28.990  25.500   6.566
 3084POPC   C3B42537  28.928  25.698   6.921
 3084POPC   C4B42538  28.697  25.647   7.251
 3085POPC   NC342539  22.764  39.308   5.133
 3085POPC   PO442540  22.118  39.153   5.380
 3085POPC   GL142541  21.927  39.160   5.809
 3085POPC   GL242542  22.276  39.227   5.876
 3085POPC   C1A42543  21.922  39.323   6.245
 3085POPC   D2A42544  21.960  39.570   6.633
 3085POPC   C3A42545  22.035  39.366   7.020
 3085POPC   C4A42546  22.266  39.196   7.395
 3085POPC   C1B42547  22.393  39.533   6.177
 3085POPC   C2B42548  22.480  39.544   6.609
 3085POPC   C3B42549  22.558  39.311   6.986
 3085POPC   C4B42550  22.664  39.501   7.386
 3086POPC   NC342551  18.744  44.981   5.492
 3086POPC   PO442552  19.155   0.598   5.454
 3086POPC   GL142553  19.300   0.369   5.834
 3086POPC   GL242554  19.210   0.014   5.773
 3086POPC   C1A42555  19.391   0.315   6.263
 3086POPC   D2A42556  19.158   0.430   6.617
 3086POPC   C3A42557  19.287   0.359   7.027
 3086POPC   C4A42558  19.037   0.594   7.298
 3086POPC   C1B42559  18.924   0.130   6.122
 3086POPC   C2B42560  18.843   0.020   6.538
 3086POPC   C3B42561  18.996  44.923   6.923
 3086POPC   C4B42562  18.951   0.085   7.310
 3087POPC   NC342563  22.736   9.894   5.363
 3087POPC   PO442564  23.204   9.449   5.504
 3087POPC   GL142565  22.940   9.631   5.799
 3087POPC   GL242566  23.032   9.986   5.852
 3087POPC   C1A42567  22.716   9.783   6.193
 3087POPC   D2A42568  22.532   9.894   6.591
 3087POPC   C3A42569  22.710   9.627   6.883
 3087POPC   C4A42570  22.837   9.967   7.133
 3087POPC   C1B42571  23.217   9.718   6.218
 3087POPC   C2B42572  23.150   9.526   6.624
 3087POPC   C3B42573  23.212   9.599   7.097
 3087POPC   C4B42574  23.278   9.515   7.580
 3088POPC   NC342575   6.247  33.167   5.486
 3088POPC   PO442576   5.679  32.928   5.326
 3088POPC   GL142577   5.880  32.933   5.751
 3088POPC   GL242578   5.866  33.259   5.898
 3088POPC   C1A42579   5.915  32.853   6.225
 3088POPC   D2A42580   6.126  32.787   6.658
 3088POPC   C3A42581   5.881  32.910   7.033
 3088POPC   C4A42582   5.920  33.324   7.236
 3088POPC   C1B42583   5.793  33.423   6.325
 3088POPC   C2B42584   5.667  33.297   6.749
 3088POPC   C3B42585   5.431  33.282   7.152
 3088POPC   C4B42586   5.572  33.264   7.621
 3089POPC   NC342587   1.833  27.004   5.428
 3089POPC   PO442588   2.384  27.304   5.710
 3089POPC   GL142589   2.292  26.986   5.928
 3089POPC   GL242590   2.016  26.778   5.841
 3089POPC   C1A42591   2.296  26.957   6.357
 3089POPC   D2A42592   1.985  26.775   6.584
 3089POPC   C3A42593   2.143  26.783   6.976
 3089POPC   C4A42594   1.988  26.637   7.323
 3089POPC   C1B42595   1.818  27.025   6.140
 3089POPC   C2B42596   1.627  27.140   6.510
 3089POPC   C3B42597   1.740  27.093   6.911
 3089POPC   C4B42598   1.664  27.074   7.321
 3090POPC   NC342599   1.705  11.243   5.431
 3090POPC   PO442600   0.976  11.256   5.418
 3090POPC   GL142601   1.213  11.361   5.785
 3090POPC   GL242602   1.432  11.606   5.696
 3090POPC   C1A42603   1.244  11.261   6.234
 3090POPC   D2A42604   1.380  11.112   6.655
 3090POPC   C3A42605   1.119  11.177   7.025
 3090POPC   C4A42606   1.118  11.018   7.462
 3090POPC   C1B42607   1.558  11.668   6.116
 3090POPC   C2B42608   1.436  11.645   6.513
 3090POPC   C3B42609   1.516  11.549   6.910
 3090POPC   C4B42610   1.411  11.480   7.305
 3091POPC   NC342611  27.968  14.327   5.269
 3091POPC   PO442612  27.701  14.636   5.815
 3091POPC   GL142613  27.922  14.308   5.933
 3091POPC   GL242614  27.659  14.098   5.849
 3091POPC   C1A42615  27.950  14.251   6.379
 3091POPC   D2A42616  27.647  14.367   6.664
 3091POPC   C3A42617  27.776  14.434   7.090
 3091POPC   C4A42618  27.626  14.415   7.524
 3091POPC   C1B42619  27.330  13.983   6.157
 3091POPC   C2B42620  27.196  14.134   6.570
 3091POPC   C3B42621  27.369  14.103   6.993
 3091POPC   C4B42622  27.222  14.087   7.404
 3092POPC   NC342623  30.296  42.126   5.360
 3092POPC   PO442624  29.765  42.570   5.351
 3092POPC   GL142625  29.812  42.346   5.741
 3092POPC   GL242626  30.057  42.122   5.807
 3092POPC   C1A42627  29.925  42.442   6.194
 3092POPC   D2A42628  29.810  42.185   6.536
 3092POPC   C3A42629  29.651  42.344   6.902
 3092POPC   C4A42630  29.645  42.133   7.282
 3092POPC   C1B42631  30.215  41.970   6.194
 3092POPC   C2B42632  30.300  42.039   6.607
 3092POPC   C3B42633  30.094  42.108   6.993
 3092POPC   C4B42634  30.070  42.436   7.255
 3093POPC   NC342635  25.349  18.559   5.438
 3093POPC   PO442636  25.107  17.993   5.430
 3093POPC   GL142637  25.172  18.196   5.832
 3093POPC   GL242638  25.399  18.454   5.931
 3093POPC   C1A42639  25.055  18.272   6.253
 3093POPC   D2A42640  25.347  18.348   6.543
 3093POPC   C3A42641  25.102  18.242   6.900
 3093POPC   C4A42642  24.965  18.191   7.342
 3093POPC   C1B42643  25.561  18.770   6.242
 3093POPC   C2B42644  25.571  18.830   6.692
 3093POPC   C3B42645  25.541  18.508   6.986
 3093POPC   C4B42646  25.359  18.519   7.344
 3094POPC   NC342647  24.662  40.713   5.326
 3094POPC   PO442648  24.018  40.943   5.375
 3094POPC   GL142649  24.265  40.992   5.770
 3094POPC   GL242650  24.616  40.925   5.819
 3094POPC   C1A42651  24.322  41.158   6.189
 3094POPC   D2A42652  24.421  41.034   6.608
 3094POPC   C3A42653  24.153  41.197   6.939
 3094POPC   C4A42654  24.255  40.933   7.276
 3094POPC   C1B42655  24.810  40.911   6.272
 3094POPC   C2B42656  24.945  40.933   6.730
 3094POPC   C3B42657  24.831  40.733   7.124
 3094POPC   C4B42658  24.992  40.693   7.577
 3095POPC   NC342659   4.349  29.513   5.525
 3095POPC   PO442660   4.245  30.164   5.539
 3095POPC   GL142661   4.102  29.872   5.877
 3095POPC   GL242662   3.889  29.556   5.799
 3095POPC   C1A42663   4.264  29.954   6.306
 3095POPC   D2A42664   4.456  30.169   6.671
 3095POPC   C3A42665   4.266  30.223   7.089
 3095POPC   C4A42666   4.084  29.951   7.392
 3095POPC   C1B42667   4.105  29.458   6.214
 3095POPC   C2B42668   4.147  29.547   6.683
 3095POPC   C3B42669   4.402  29.726   7.026
 3095POPC   C4B42670   4.588  29.518   7.417
 3096POPC   NC342671  26.144   8.558   5.371
 3096POPC   PO442672  25.833   9.172   5.202
 3096POPC   GL142673  25.865   8.973   5.666
 3096POPC   GL242674  26.183   8.957   5.828
 3096POPC   C1A42675  25.812   9.049   6.165
 3096POPC   D2A42676  25.909   9.211   6.608
 3096POPC   C3A42677  25.939   8.877   6.906
 3096POPC   C4A42678  25.736   8.743   7.302
 3096POPC   C1B42679  26.276   8.872   6.289
 3096POPC   C2B42680  26.393   9.070   6.696
 3096POPC   C3B42681  26.378   9.009   7.134
 3096POPC   C4B42682  26.235   8.622   7.277
 3097POPC   NC342683  36.417  30.864   5.740
 3097POPC   PO442684  36.128  30.424   5.284
 3097POPC   GL142685  36.094  30.487   5.737
 3097POPC   GL242686  35.866  30.772   5.665
 3097POPC   C1A42687  36.314  30.496   6.219
 3097POPC   D2A42688  36.455  30.794   6.543
 3097POPC   C3A42689  36.394  30.707   6.974
 3097POPC   C4A42690  36.459  30.438   7.307
 3097POPC   C1B42691  35.855  30.771   6.123
 3097POPC   C2B42692  36.053  31.078   6.418
 3097POPC   C3B42693  36.086  31.110   6.861
 3097POPC   C4B42694  35.777  30.880   7.074
 3098POPC   NC342695   5.371  12.600   5.360
 3098POPC   PO442696   4.881  13.011   5.554
 3098POPC   GL142697   5.113  12.739   5.795
 3098POPC   GL242698   4.860  12.500   5.743
 3098POPC   C1A42699   5.319  12.855   6.196
 3098POPC   D2A42700   5.152  13.095   6.559
 3098POPC   C3A42701   5.152  12.921   6.962
 3098POPC   C4A42702   5.369  12.818   7.315
 3098POPC   C1B42703   5.010  12.426   6.181
 3098POPC   C2B42704   5.042  12.586   6.569
 3098POPC   C3B42705   4.793  12.558   6.920
 3098POPC   C4B42706   4.977  12.501   7.270
 3099POPC   NC342707  43.046   2.357   5.547
 3099POPC   PO442708  43.292   2.985   5.318
 3099POPC   GL142709  43.201   2.942   5.768
 3099POPC   GL242710  43.450   3.187   5.861
 3099POPC   C1A42711  43.094   2.710   6.191
 3099POPC   D2A42712  42.861   2.687   6.642
 3099POPC   C3A42713  42.892   2.649   7.132
 3099POPC   C4A42714  43.154   2.434   7.456
 3099POPC   C1B42715  43.557   2.968   6.238
 3099POPC   C2B42716  43.364   2.806   6.625
 3099POPC   C3B42717  43.349   2.882   7.051
 3099POPC   C4B42718  43.420   3.234   7.299
 3100POPC   NC342719  25.265   8.080   5.371
 3100POPC   PO442720  25.072   8.747   5.496
 3100POPC   GL142721  25.027   8.364   5.754
 3100POPC   GL242722  25.362   8.218   5.848
 3100POPC   C1A42723  24.979   8.133   6.142
 3100POPC   D2A42724  25.260   8.209   6.470
 3100POPC   C3A42725  25.222   8.155   6.866
 3100POPC   C4A42726  24.931   8.192   7.162
 3100POPC   C1B42727  25.642   8.105   6.170
 3100POPC   C2B42728  25.706   7.996   6.609
 3100POPC   C3B42729  25.627   7.835   6.986
 3100POPC   C4B42730  25.374   7.987   7.316
 3101POPC   NC342731  33.441   2.950   5.498
 3101POPC   PO442732  32.791   2.937   5.379
 3101POPC   GL142733  33.030   2.747   5.759
 3101POPC   GL242734  33.212   2.402   5.761
 3101POPC   C1A42735  33.271   2.882   6.150
 3101POPC   D2A42736  33.300   3.175   6.520
 3101POPC   C3A42737  33.111   3.122   6.968
 3101POPC   C4A42738  32.844   2.795   7.202
 3101POPC   C1B42739  32.883   2.363   6.113
 3101POPC   C2B42740  32.950   2.393   6.583
 3101POPC   C3B42741  32.793   2.270   7.001
 3101POPC   C4B42742  32.779   2.318   7.425
 3102POPC   NC342743  44.505  30.648   5.428
 3102POPC   PO442744   0.042  31.040   5.415
 3102POPC   GL142745  44.918  30.814   5.790
 3102POPC   GL242746  44.601  30.640   5.915
 3102POPC   C1A42747  44.885  30.919   6.224
 3102POPC   D2A42748  44.659  30.783   6.565
 3102POPC   C3A42749  44.762  30.895   6.951
 3102POPC   C4A42750  44.684  30.566   7.233
 3102POPC   C1B42751  44.293  30.693   6.228
 3102POPC   C2B42752  44.163  30.989   6.538
 3102POPC   C3B42753  44.232  30.922   6.971
 3102POPC   C4B42754  44.107  31.173   7.298
 3103POPC   NC342755  32.584  19.920   5.407
 3103POPC   PO442756  32.369  19.307   5.510
 3103POPC   GL142757  32.324  19.726   5.788
 3103POPC   GL242758  32.559  20.007   5.897
 3103POPC   C1A42759  32.169  19.777   6.220
 3103POPC   D2A42760  32.174  19.458   6.555
 3103POPC   C3A42761  32.360  19.525   6.945
 3103POPC   C4A42762  32.510  19.824   7.230
 3103POPC   C1B42763  32.554  20.099   6.338
 3103POPC   C2B42764  32.308  19.992   6.733
 3103POPC   C3B42765  32.052  19.945   7.119
 3103POPC   C4B42766  32.066  20.060   7.572
 3104POPC   NC342767  16.640  44.504   5.151
 3104POPC   PO442768  16.780   0.121   5.226
 3104POPC   GL142769  16.854  44.923   5.700
 3104POPC   GL242770  16.566  44.773   5.907
 3104POPC   C1A42771  16.976  44.922   6.179
 3104POPC   D2A42772  17.317  44.918   6.511
 3104POPC   C3A42773  17.229  44.745   6.921
 3104POPC   C4A42774  17.113  44.805   7.338
 3104POPC   C1B42775  16.609  44.617   6.359
 3104POPC   C2B42776  16.753  44.886   6.709
 3104POPC   C3B42777  16.630  44.790   7.126
 3104POPC   C4B42778  16.484  44.358   7.184
 3105POPC   NC342779  15.387   1.786   5.347
 3105POPC   PO442780  14.889   2.261   5.398
 3105POPC   GL142781  15.023   1.925   5.744
 3105POPC   GL242782  15.367   1.879   5.860
 3105POPC   C1A42783  14.923   1.843   6.201
 3105POPC   D2A42784  14.879   1.955   6.656
 3105POPC   C3A42785  15.218   1.940   6.954
 3105POPC   C4A42786  15.094   1.706   7.288
 3105POPC   C1B42787  15.437   1.630   6.240
 3105POPC   C2B42788  15.490   1.581   6.686
 3105POPC   C3B42789  15.596   1.605   7.130
 3105POPC   C4B42790  15.519   1.863   7.496
 3106POPC   NC342791  44.486   7.042   5.604
 3106POPC   PO442792  44.639   7.560   5.139
 3106POPC   GL142793  44.563   7.556   5.678
 3106POPC   GL242794  44.729   7.309   5.950
 3106POPC   C1A42795  44.584   7.730   6.172
 3106POPC   D2A42796  44.827   7.450   6.466
 3106POPC   C3A42797  44.824   7.376   6.926
 3106POPC   C4A42798  44.683   7.565   7.308
 3106POPC   C1B42799  44.350   7.287   6.246
 3106POPC   C2B42800  44.267   7.373   6.700
 3106POPC   C3B42801  44.351   7.197   7.130
 3106POPC   C4B42802  44.387   7.223   7.592
 3107POPC   NC342803   5.731  16.258   5.391
 3107POPC   PO442804   6.037  15.690   5.241
 3107POPC   GL142805   6.004  15.678   5.727
 3107POPC   GL242806   5.847  16.014   5.838
 3107POPC   C1A42807   6.204  15.838   6.143
 3107POPC   D2A42808   6.060  15.928   6.563
 3107POPC   C3A42809   6.145  15.623   6.893
 3107POPC   C4A42810   6.060  15.683   7.317
 3107POPC   C1B42811   5.650  15.925   6.228
 3107POPC   C2B42812   5.490  16.026   6.634
 3107POPC   C3B42813   5.712  15.963   6.978
 3107POPC   C4B42814   5.504  15.904   7.314
 3108POPC   NC342815   4.774  44.941   5.344
 3108POPC   PO442816   5.490  44.691   5.382
 3108POPC   GL142817   5.485  44.500   5.819
 3108POPC   GL242818   5.172  44.700   5.863
 3108POPC   C1A42819   5.313  44.419   6.256
 3108POPC   D2A42820   4.975  44.648   6.449
 3108POPC   C3A42821   4.892  44.670   6.897
 3108POPC   C4A42822   5.013  44.662   7.321
 3108POPC   C1B42823   5.401  44.915   6.246
 3108POPC   C2B42824   5.441  44.775   6.706
 3108POPC   C3B42825   5.497  44.732   7.185
 3108POPC   C4B42826   5.374  44.882   7.630
 3109POPC   NC342827  21.077   2.311   5.423
 3109POPC   PO442828  21.446   1.666   5.542
 3109POPC   GL142829  21.393   1.849   5.928
 3109POPC   GL242830  21.160   2.073   5.847
 3109POPC   C1A42831  21.197   1.956   6.339
 3109POPC   D2A42832  21.326   2.121   6.736
 3109POPC   C3A42833  21.380   1.802   7.044
 3109POPC   C4A42834  21.531   1.817   7.468
 3109POPC   C1B42835  21.063   2.402   6.138
 3109POPC   C2B42836  20.889   2.387   6.592
 3109POPC   C3B42837  20.974   2.402   7.038
 3109POPC   C4B42838  21.361   2.326   7.219
 3110POPC   NC342839  37.800  20.622   4.975
 3110POPC   PO442840  37.685  20.325   5.616
 3110POPC   GL142841  37.563  20.553   5.897
 3110POPC   GL242842  37.457  20.881   5.891
 3110POPC   C1A42843  37.741  20.621   6.290
 3110POPC   D2A42844  37.780  20.323   6.648
 3110POPC   C3A42845  37.541  20.304   7.037
 3110POPC   C4A42846  37.535  20.273   7.513
 3110POPC   C1B42847  37.227  20.700   6.233
 3110POPC   C2B42848  37.392  20.682   6.652
 3110POPC   C3B42849  37.672  20.809   6.980
 3110POPC   C4B42850  37.444  20.744   7.348
 3111POPC   NC342851  43.583  28.413   5.278
 3111POPC   PO442852  43.528  27.897   5.428
 3111POPC   GL142853  43.425  28.275   5.755
 3111POPC   GL242854  43.516  28.647   5.783
 3111POPC   C1A42855  43.180  28.445   6.128
 3111POPC   D2A42856  43.071  28.365   6.566
 3111POPC   C3A42857  43.231  28.510   6.981
 3111POPC   C4A42858  43.171  28.358   7.427
 3111POPC   C1B42859  43.658  28.556   6.248
 3111POPC   C2B42860  43.615  28.363   6.661
 3111POPC   C3B42861  43.652  28.247   7.110
 3111POPC   C4B42862  43.670  28.509   7.462
 3112POPC   NC342863   4.901  37.142   5.319
 3112POPC   PO442864   5.280  37.655   5.488
 3112POPC   GL142865   5.050  37.802   5.855
 3112POPC   GL242866   4.691  37.762   5.819
 3112POPC   C1A42867   5.122  37.663   6.286
 3112POPC   D2A42868   5.334  37.563   6.682
 3112POPC   C3A42869   5.215  37.796   7.062
 3112POPC   C4A42870   5.011  37.871   7.438
 3112POPC   C1B42871   4.712  37.406   6.121
 3112POPC   C2B42872   4.888  37.273   6.533
 3112POPC   C3B42873   4.848  37.512   6.883
 3112POPC   C4B42874   4.836  37.415   7.284
 3113POPC   NC342875  20.516   3.599   5.060
 3113POPC   PO442876  20.814   3.181   5.600
 3113POPC   GL142877  20.594   3.417   5.954
 3113POPC   GL242878  20.617   3.804   6.001
 3113POPC   C1A42879  20.357   3.340   6.297
 3113POPC   D2A42880  20.238   3.433   6.694
 3113POPC   C3A42881  20.554   3.323   6.944
 3113POPC   C4A42882  20.422   3.200   7.313
 3113POPC   C1B42883  20.622   3.767   6.463
 3113POPC   C2B42884  20.882   3.710   6.830
 3113POPC   C3B42885  20.734   3.695   7.240
 3113POPC   C4B42886  20.290   3.705   7.257
 3114POPC   NC342887   8.716  32.429   5.020
 3114POPC   PO442888   8.970  32.016   5.490
 3114POPC   GL142889   8.998  32.217   5.880
 3114POPC   GL242890   9.037  32.543   5.726
 3114POPC   C1A42891   8.950  32.158   6.314
 3114POPC   D2A42892   8.735  31.934   6.594
 3114POPC   C3A42893   8.854  32.151   6.923
 3114POPC   C4A42894   8.850  32.130   7.338
 3114POPC   C1B42895   9.038  32.637   6.191
 3114POPC   C2B42896   8.835  32.589   6.629
 3114POPC   C3B42897   9.053  32.671   7.044
 3114POPC   C4B42898   8.982  32.665   7.518
 3115POPC   NC342899  12.237   0.630   5.363
 3115POPC   PO442900  11.662   0.299   5.241
 3115POPC   GL142901  11.864   0.445   5.690
 3115POPC   GL242902  12.206   0.290   5.742
 3115POPC   C1A42903  11.907   0.661   6.174
 3115POPC   D2A42904  12.049   0.746   6.636
 3115POPC   C3A42905  11.884   0.831   7.081
 3115POPC   C4A42906  11.960   0.555   7.430
 3115POPC   C1B42907  12.399   0.565   6.057
 3115POPC   C2B42908  12.498   0.503   6.514
 3115POPC   C3B42909  12.308   0.318   6.883
 3115POPC   C4B42910  12.434   0.279   7.295
 3116POPC   NC342911  25.891  24.165   5.478
 3116POPC   PO442912  26.355  24.645   5.393
 3116POPC   GL142913  26.104  24.531   5.756
 3116POPC   GL242914  25.740  24.581   5.727
 3116POPC   C1A42915  26.141  24.409   6.187
 3116POPC   D2A42916  26.384  24.565   6.507
 3116POPC   C3A42917  26.250  24.547   6.906
 3116POPC   C4A42918  26.307  24.783   7.257
 3116POPC   C1B42919  25.639  24.472   6.111
 3116POPC   C2B42920  25.584  24.330   6.515
 3116POPC   C3B42921  25.746  24.506   6.872
 3116POPC   C4B42922  25.851  24.499   7.257
 3117POPC   NC342923  41.764  19.617   5.397
 3117POPC   PO442924  41.483  20.080   5.290
 3117POPC   GL142925  41.543  20.076   5.766
 3117POPC   GL242926  41.801  19.836   5.884
 3117POPC   C1A42927  41.491  20.084   6.259
 3117POPC   D2A42928  41.425  19.844   6.679
 3117POPC   C3A42929  41.514  20.012   7.110
 3117POPC   C4A42930  41.649  20.261   7.489
 3117POPC   C1B42931  41.793  19.676   6.333
 3117POPC   C2B42932  41.712  19.419   6.722
 3117POPC   C3B42933  41.629  19.497   7.176
 3117POPC   C4B42934  41.822  19.436   7.609
 3118POPC   NC342935   6.765   8.448   5.303
 3118POPC   PO442936   6.886   7.922   5.321
 3118POPC   GL142937   6.591   8.123   5.697
 3118POPC   GL242938   6.481   8.493   5.753
 3118POPC   C1A42939   6.463   8.147   6.166
 3118POPC   D2A42940   6.551   8.300   6.608
 3118POPC   C3A42941   6.688   8.115   7.014
 3118POPC   C4A42942   6.949   8.009   7.391
 3118POPC   C1B42943   6.602   8.639   6.186
 3118POPC   C2B42944   6.606   8.796   6.626
 3118POPC   C3B42945   6.551   8.631   7.056
 3118POPC   C4B42946   6.401   8.716   7.485
 3119POPC   NC342947  26.815  22.640   5.290
 3119POPC   PO442948  26.555  22.015   5.395
 3119POPC   GL142949  26.813  22.218   5.692
 3119POPC   GL242950  27.157  22.382   5.727
 3119POPC   C1A42951  26.940  22.014   6.076
 3119POPC   D2A42952  27.063  22.090   6.514
 3119POPC   C3A42953  26.828  22.181   6.884
 3119POPC   C4A42954  27.079  22.162   7.264
 3119POPC   C1B42955  26.900  22.519   6.093
 3119POPC   C2B42956  26.794  22.610   6.498
 3119POPC   C3B42957  26.739  22.680   6.906
 3119POPC   C4B42958  26.933  22.680   7.265
 3120POPC   NC342959  23.924  22.671   5.408
 3120POPC   PO442960  23.274  22.833   5.410
 3120POPC   GL142961  23.537  22.956   5.750
 3120POPC   GL242962  23.843  23.112   5.681
 3120POPC   C1A42963  23.674  22.795   6.148
 3120POPC   D2A42964  23.519  22.720   6.562
 3120POPC   C3A42965  23.639  22.857   6.952
 3120POPC   C4A42966  23.490  23.072   7.291
 3120POPC   C1B42967  23.874  23.259   6.109
 3120POPC   C2B42968  23.851  23.153   6.561
 3120POPC   C3B42969  23.991  23.220   7.012
 3120POPC   C4B42970  23.947  23.288   7.441
 3121POPC   NC342971   4.444  16.780   5.501
 3121POPC   PO442972   3.888  17.149   5.463
 3121POPC   GL142973   4.110  17.022   5.821
 3121POPC   GL242974   4.079  16.637   5.831
 3121POPC   C1A42975   4.332  16.902   6.205
 3121POPC   D2A42976   4.205  17.027   6.601
 3121POPC   C3A42977   4.396  16.913   6.979
 3121POPC   C4A42978   4.536  16.528   7.186
 3121POPC   C1B42979   3.817  16.772   6.171
 3121POPC   C2B42980   3.695  16.859   6.590
 3121POPC   C3B42981   3.873  16.847   6.982
 3121POPC   C4B42982   4.111  16.733   7.355
 3122POPC   NC342983  23.861  43.451   5.596
 3122POPC   PO442984  23.648  44.065   5.541
 3122POPC   GL142985  23.813  43.892   5.886
 3122POPC   GL242986  23.553  43.673   5.943
 3122POPC   C1A42987  23.948  43.703   6.270
 3122POPC   D2A42988  23.740  43.673   6.656
 3122POPC   C3A42989  23.934  43.796   7.054
 3122POPC   C4A42990  23.865  44.033   7.435
 3122POPC   C1B42991  23.301  43.487   6.263
 3122POPC   C2B42992  23.329  43.372   6.717
 3122POPC   C3B42993  23.452  43.601   7.091
 3122POPC   C4B42994  23.377  43.592   7.545
 3123POPC   NC342995  40.348  42.975   5.459
 3123POPC   PO442996  39.770  42.690   5.396
 3123POPC   GL142997  39.943  42.954   5.766
 3123POPC   GL242998  40.015  43.331   5.686
 3123POPC   C1A42999  40.009  42.906   6.226
 3123POPC   D2A43000  39.795  42.734   6.588
 3123POPC   C3A43001  39.951  42.871   6.967
 3123POPC   C4A43002  40.317  42.866   7.251
 3123POPC   C1B43003  39.887  43.397   6.119
 3123POPC   C2B43004  39.712  43.243   6.503
 3123POPC   C3B43005  39.713  43.373   6.911
 3123POPC   C4B43006  39.970  43.282   7.260
 3124POPC   NC343007  33.901   2.229   5.429
 3124POPC   PO443008  33.994   1.644   5.504
 3124POPC   GL143009  33.857   1.823   5.894
 3124POPC   GL243010  34.071   2.129   5.894
 3124POPC   C1A43011  33.672   1.730   6.333
 3124POPC   D2A43012  33.582   1.542   6.770
 3124POPC   C3A43013  33.573   1.790   7.204
 3124POPC   C4A43014  33.377   1.727   7.669
 3124POPC   C1B43015  33.771   2.234   6.215
 3124POPC   C2B43016  33.673   2.157   6.647
 3124POPC   C3B43017  33.821   2.264   7.061
 3124POPC   C4B43018  34.107   2.313   7.404
 3125POPC   NC343019  31.789  40.399   5.599
 3125POPC   PO443020  31.822  41.026   5.329
 3125POPC   GL143021  31.692  40.976   5.791
 3125POPC   GL243022  31.401  40.721   5.787
 3125POPC   C1A43023  31.438  41.019   6.219
 3125POPC   D2A43024  31.336  41.165   6.647
 3125POPC   C3A43025  31.345  40.879   7.002
 3125POPC   C4A43026  31.192  40.408   7.032
 3125POPC   C1B43027  31.367  40.505   6.202
 3125POPC   C2B43028  31.475  40.540   6.614
 3125POPC   C3B43029  31.705  40.520   6.972
 3125POPC   C4B43030  32.079  40.370   7.133
 3126POPC   NC343031   7.660  17.182   5.556
 3126POPC   PO443032   7.178  17.800   5.414
 3126POPC   GL143033   7.172  17.619   5.812
 3126POPC   GL243034   7.492  17.535   5.944
 3126POPC   C1A43035   7.064  17.502   6.242
 3126POPC   D2A43036   7.251  17.522   6.624
 3126POPC   C3A43037   6.971  17.496   6.949
 3126POPC   C4A43038   7.285  17.563   7.237
 3126POPC   C1B43039   7.661  17.312   6.317
 3126POPC   C2B43040   7.740  17.395   6.764
 3126POPC   C3B43041   7.657  17.807   6.909
 3126POPC   C4B43042   7.556  18.036   7.265
 3127POPC   NC343043  36.299  27.979   5.533
 3127POPC   PO443044  35.799  28.410   5.429
 3127POPC   GL143045  36.110  28.455   5.757
 3127POPC   GL243046  36.082  28.149   5.933
 3127POPC   C1A43047  36.278  28.528   6.213
 3127POPC   D2A43048  36.143  28.462   6.638
 3127POPC   C3A43049  36.381  28.461   7.008
 3127POPC   C4A43050  36.111  28.567   7.325
 3127POPC   C1B43051  36.242  28.028   6.325
 3127POPC   C2B43052  36.119  27.954   6.722
 3127POPC   C3B43053  35.947  28.100   7.109
 3127POPC   C4B43054  36.035  28.038   7.567
 3128POPC   NC343055  13.389  12.244   5.389
 3128POPC   PO443056  12.761  12.047   5.278
 3128POPC   GL143057  12.807  12.161   5.742
 3128POPC   GL243058  13.168  12.098   5.846
 3128POPC   C1A43059  12.643  12.063   6.184
 3128POPC   D2A43060  12.782  11.827   6.570
 3128POPC   C3A43061  12.619  11.915   7.008
 3128POPC   C4A43062  12.839  12.139   7.396
 3128POPC   C1B43063  13.133  11.745   6.162
 3128POPC   C2B43064  13.296  11.665   6.604
 3128POPC   C3B43065  13.112  11.827   6.984
 3128POPC   C4B43066  12.919  11.656   7.352
 3129POPC   NC343067  16.735  38.041   5.376
 3129POPC   PO443068  16.543  37.415   5.524
 3129POPC   GL143069  16.747  37.479   5.914
 3129POPC   GL243070  16.730  37.799   5.829
 3129POPC   C1A43071  16.680  37.553   6.363
 3129POPC   D2A43072  16.538  37.831   6.647
 3129POPC   C3A43073  16.561  37.705   7.066
 3129POPC   C4A43074  16.590  37.490   7.473
 3129POPC   C1B43075  16.949  37.924   6.159
 3129POPC   C2B43076  17.058  37.827   6.576
 3129POPC   C3B43077  16.973  38.004   6.972
 3129POPC   C4B43078  16.931  37.846   7.391
 3130POPC   NC343079  17.063  32.735   5.097
 3130POPC   PO443080  17.636  33.071   5.117
 3130POPC   GL143081  17.502  33.163   5.563
 3130POPC   GL243082  17.497  32.863   5.726
 3130POPC   C1A43083  17.416  33.250   6.042
 3130POPC   D2A43084  17.169  33.243   6.449
 3130POPC   C3A43085  17.355  33.095   6.836
 3130POPC   C4A43086  17.262  33.208   7.225
 3130POPC   C1B43087  17.380  32.754   6.162
 3130POPC   C2B43088  17.419  32.606   6.578
 3130POPC   C3B43089  17.240  32.603   6.965
 3130POPC   C4B43090  17.490  32.760   7.252
 3131POPC   NC343091   4.976  34.170   5.426
 3131POPC   PO443092   5.142  33.594   5.531
 3131POPC   GL143093   5.076  33.850   5.875
 3131POPC   GL243094   5.294  34.091   5.824
 3131POPC   C1A43095   5.123  33.743   6.304
 3131POPC   D2A43096   4.870  33.692   6.649
 3131POPC   C3A43097   5.121  33.689   7.027
 3131POPC   C4A43098   5.148  33.573   7.471
 3131POPC   C1B43099   5.207  34.247   6.236
 3131POPC   C2B43100   5.153  34.136   6.692
 3131POPC   C3B43101   5.400  34.106   7.084
 3131POPC   C4B43102   5.321  34.086   7.524
 3132POPC   NC343103  35.432  28.700   5.450
 3132POPC   PO443104  35.028  28.189   5.509
 3132POPC   GL143105  35.239  28.344   5.875
 3132POPC   GL243106  35.607  28.412   5.905
 3132POPC   C1A43107  35.299  28.247   6.321
 3132POPC   D2A43108  35.529  28.524   6.669
 3132POPC   C3A43109  35.622  28.531   7.135
 3132POPC   C4A43110  35.337  28.544   7.472
 3132POPC   C1B43111  35.797  28.270   6.310
 3132POPC   C2B43112  35.627  28.007   6.636
 3132POPC   C3B43113  35.412  28.091   6.998
 3132POPC   C4B43114  35.528  28.062   7.432
 3133POPC   NC343115  12.759  18.689   5.144
 3133POPC   PO443116  12.996  18.108   5.310
 3133POPC   GL143117  12.927  18.326   5.699
 3133POPC   GL243118  12.794  18.022   5.836
 3133POPC   C1A43119  12.729  18.442   6.111
 3133POPC   D2A43120  12.467  18.295   6.453
 3133POPC   C3A43121  12.614  18.454   6.804
 3133POPC   C4A43122  12.830  18.364   7.145
 3133POPC   C1B43123  12.863  17.962   6.288
 3133POPC   C2B43124  12.774  17.960   6.731
 3133POPC   C3B43125  12.971  17.883   7.107
 3133POPC   C4B43126  13.312  18.180   7.264
 3134POPC   NC343127   5.428  16.947   5.552
 3134POPC   PO443128   6.039  16.684   5.304
 3134POPC   GL143129   5.929  16.637   5.749
 3134POPC   GL243130   5.605  16.482   5.860
 3134POPC   C1A43131   5.830  16.898   6.115
 3134POPC   D2A43132   5.597  16.862   6.495
 3134POPC   C3A43133   5.745  16.830   6.928
 3134POPC   C4A43134   6.007  16.895   7.274
 3134POPC   C1B43135   5.888  16.390   6.223
 3134POPC   C2B43136   5.845  16.395   6.660
 3134POPC   C3B43137   5.976  16.388   7.072
 3134POPC   C4B43138   5.860  16.461   7.510
 3135POPC   NC343139  28.275  34.711   5.428
 3135POPC   PO443140  28.707  34.218   5.519
 3135POPC   GL143141  28.513  34.482   5.820
 3135POPC   GL243142  28.583  34.823   5.812
 3135POPC   C1A43143  28.314  34.640   6.217
 3135POPC   D2A43144  28.166  34.422   6.594
 3135POPC   C3A43145  28.311  34.634   6.957
 3135POPC   C4A43146  28.700  34.674   7.175
 3135POPC   C1B43147  28.851  34.653   6.144
 3135POPC   C2B43148  28.752  34.707   6.589
 3135POPC   C3B43149  28.904  35.024   6.862
 3135POPC   C4B43150  28.810  35.164   7.295
 3136POPC   NC343151  41.026  42.616   5.488
 3136POPC   PO443152  40.710  43.243   5.508
 3136POPC   GL143153  40.734  42.912   5.816
 3136POPC   GL243154  40.413  42.787   5.926
 3136POPC   C1A43155  40.768  42.916   6.280
 3136POPC   D2A43156  40.744  43.337   6.480
 3136POPC   C3A43157  40.913  43.383   6.878
 3136POPC   C4A43158  40.806  43.102   7.222
 3136POPC   C1B43159  40.380  43.236   6.113
 3136POPC   C2B43160  40.220  43.353   6.549
 3136POPC   C3B43161  40.400  43.327   6.966
 3136POPC   C4B43162  40.458  43.394   7.419
 3137POPC   NC343163  32.431   4.941   5.693
 3137POPC   PO443164  32.122   5.469   5.380
 3137POPC   GL143165  32.167   5.355   5.844
 3137POPC   GL243166  31.986   5.032   5.910
 3137POPC   C1A43167  32.306   5.281   6.305
 3137POPC   D2A43168  32.387   5.296   6.765
 3137POPC   C3A43169  32.020   5.323   7.038
 3137POPC   C4A43170  31.981   5.180   7.492
 3137POPC   C1B43171  32.163   4.799   6.282
 3137POPC   C2B43172  32.075   4.900   6.714
 3137POPC   C3B43173  32.186   4.817   7.129
 3137POPC   C4B43174  32.430   4.872   7.484
 3138POPC   NC343175  12.242  21.043   5.281
 3138POPC   PO443176  11.847  21.562   5.437
 3138POPC   GL143177  12.147  21.439   5.734
 3138POPC   GL243178  12.137  21.116   5.825
 3138POPC   C1A43179  12.139  21.527   6.211
 3138POPC   D2A43180  12.415  21.590   6.599
 3138POPC   C3A43181  12.240  21.554   7.040
 3138POPC   C4A43182  12.495  21.364   7.411
 3138POPC   C1B43183  12.053  21.032   6.279
 3138POPC   C2B43184  12.329  20.964   6.623
 3138POPC   C3B43185  12.278  21.067   7.047
 3138POPC   C4B43186  11.994  21.243   7.372
 3139POPC   NC343187  37.297  20.388   5.385
 3139POPC   PO443188  36.721  20.100   5.455
 3139POPC   GL143189  36.944  19.929   5.792
 3139POPC   GL243190  37.268  20.117   5.835
 3139POPC   C1A43191  37.069  19.832   6.213
 3139POPC   D2A43192  37.093  19.502   6.488
 3139POPC   C3A43193  36.733  19.586   6.707
 3139POPC   C4A43194  36.880  19.663   7.141
 3139POPC   C1B43195  37.496  20.143   6.236
 3139POPC   C2B43196  37.411  19.937   6.627
 3139POPC   C3B43197  37.088  20.049   6.926
 3139POPC   C4B43198  37.075  20.312   7.306
 3140POPC   NC343199  17.028  12.444   5.496
 3140POPC   PO443200  16.630  11.909   5.507
 3140POPC   GL143201  16.773  11.892   5.916
 3140POPC   GL243202  17.130  11.900   5.902
 3140POPC   C1A43203  16.691  11.879   6.362
 3140POPC   D2A43204  16.888  11.813   6.746
 3140POPC   C3A43205  16.620  11.909   7.089
 3140POPC   C4A43206  16.297  12.243   7.094
 3140POPC   C1B43207  17.067  12.225   6.241
 3140POPC   C2B43208  17.141  12.342   6.694
 3140POPC   C3B43209  17.060  12.125   7.112
 3140POPC   C4B43210  17.042  12.154   7.607
 3141POPC   NC343211  23.334  38.594   5.539
 3141POPC   PO443212  23.882  39.001   5.559
 3141POPC   GL143213  23.712  38.739   5.909
 3141POPC   GL243214  23.700  38.375   5.838
 3141POPC   C1A43215  23.504  38.526   6.284
 3141POPC   D2A43216  23.270  38.661   6.652
 3141POPC   C3A43217  23.554  38.819   6.954
 3141POPC   C4A43218  23.897  38.845   7.217
 3141POPC   C1B43219  23.724  38.029   6.147
 3141POPC   C2B43220  23.725  38.079   6.588
 3141POPC   C3B43221  23.494  38.263   6.914
 3141POPC   C4B43222  23.731  38.358   7.279
 3142POPC   NC343223  24.380  16.406   5.464
 3142POPC   PO443224  24.650  17.063   5.696
 3142POPC   GL143225  24.507  16.824   5.976
 3142POPC   GL243226  24.686  16.549   5.824
 3142POPC   C1A43227  24.531  16.784   6.418
 3142POPC   D2A43228  24.252  16.890   6.750
 3142POPC   C3A43229  24.435  16.892   7.096
 3142POPC   C4A43230  24.873  16.917   7.029
 3142POPC   C1B43231  24.446  16.348   6.126
 3142POPC   C2B43232  24.608  16.257   6.483
 3142POPC   C3B43233  24.606  16.479   6.858
 3142POPC   C4B43234  24.394  16.269   7.175
 3143POPC   NC343235   3.853  32.090   5.499
 3143POPC   PO443236   3.130  32.081   5.532
 3143POPC   GL143237   3.431  32.304   5.775
 3143POPC   GL243238   3.635  32.614   5.731
 3143POPC   C1A43239   3.543  32.163   6.165
 3143POPC   D2A43240   3.533  32.345   6.579
 3143POPC   C3A43241   3.677  32.103   6.931
 3143POPC   C4A43242   3.391  31.961   7.234
 3143POPC   C1B43243   3.743  32.628   6.182
 3143POPC   C2B43244   3.981  32.574   6.626
 3143POPC   C3B43245   3.740  32.623   7.028
 3143POPC   C4B43246   3.632  32.398   7.410
 3144POPC   NC343247   1.126  40.534   5.395
 3144POPC   PO443248   0.965  41.097   5.579
 3144POPC   GL143249   1.053  40.785   5.855
 3144POPC   GL243250   1.387  40.775   5.809
 3144POPC   C1A43251   1.039  40.744   6.284
 3144POPC   D2A43252   1.250  40.752   6.644
 3144POPC   C3A43253   1.030  40.710   7.004
 3144POPC   C4A43254   1.025  40.920   7.390
 3144POPC   C1B43255   1.544  40.916   6.215
 3144POPC   C2B43256   1.722  40.895   6.641
 3144POPC   C3B43257   1.537  40.897   7.067
 3144POPC   C4B43258   1.517  40.955   7.535
 3145POPC   NC343259  42.902   6.298   5.576
 3145POPC   PO443260  43.287   6.890   5.529
 3145POPC   GL143261  43.546   6.805   5.885
 3145POPC   GL243262  43.374   6.496   5.887
 3145POPC   C1A43263  43.552   6.750   6.332
 3145POPC   D2A43264  43.191   6.898   6.573
 3145POPC   C3A43265  43.248   6.872   6.985
 3145POPC   C4A43266  43.528   6.591   7.160
 3145POPC   C1B43267  43.069   6.561   6.205
 3145POPC   C2B43268  42.898   6.447   6.619
 3145POPC   C3B43269  42.907   6.492   7.072
 3145POPC   C4B43270  42.689   6.830   7.299
 3146POPC   NC343271  30.843  14.434   5.077
 3146POPC   PO443272  30.506  14.834   5.528
 3146POPC   GL143273  30.720  14.604   5.821
 3146POPC   GL243274  30.705  14.263   5.808
 3146POPC   C1A43275  30.530  14.467   6.223
 3146POPC   D2A43276  30.295  14.566   6.587
 3146POPC   C3A43277  30.594  14.389   6.900
 3146POPC   C4A43278  30.757  14.579   7.239
 3146POPC   C1B43279  30.924  14.039   6.120
 3146POPC   C2B43280  30.860  14.105   6.544
 3146POPC   C3B43281  30.639  13.868   6.866
 3146POPC   C4B43282  30.497  13.989   7.275
 3147POPC   NC343283  40.140  21.667   5.435
 3147POPC   PO443284  39.869  21.005   5.430
 3147POPC   GL143285  39.807  21.353   5.687
 3147POPC   GL243286  40.143  21.286   5.791
 3147POPC   C1A43287  39.729  21.385   6.141
 3147POPC   D2A43288  39.845  21.101   6.499
 3147POPC   C3A43289  39.812  21.169   6.962
 3147POPC   C4A43290  39.815  21.466   7.327
 3147POPC   C1B43291  40.238  21.374   6.231
 3147POPC   C2B43292  40.136  21.515   6.663
 3147POPC   C3B43293  40.269  21.361   7.069
 3147POPC   C4B43294  40.295  21.505   7.483
 3148POPC   NC343295   0.451   1.774   5.223
 3148POPC   PO443296   0.720   2.222   5.613
 3148POPC   GL143297   0.369   2.061   5.812
 3148POPC   GL243298   0.415   1.745   5.786
 3148POPC   C1A43299   0.292   2.170   6.222
 3148POPC   D2A43300   0.565   2.193   6.577
 3148POPC   C3A43301   0.336   2.175   6.940
 3148POPC   C4A43302   0.314   1.917   7.273
 3148POPC   C1B43303   0.668   1.764   6.190
 3148POPC   C2B43304   0.708   1.690   6.640
 3148POPC   C3B43305   0.810   1.757   7.074
 3148POPC   C4B43306   0.915   1.548   7.486
 3149POPC   NC343307  35.030  39.498   5.641
 3149POPC   PO443308  34.465  39.111   5.445
 3149POPC   GL143309  34.692  39.156   5.807
 3149POPC   GL243310  34.542  39.491   5.831
 3149POPC   C1A43311  34.703  39.218   6.247
 3149POPC   D2A43312  34.444  39.057   6.571
 3149POPC   C3A43313  34.513  39.141   7.014
 3149POPC   C4A43314  34.494  39.040   7.474
 3149POPC   C1B43315  34.663  39.726   6.194
 3149POPC   C2B43316  34.589  39.589   6.608
 3149POPC   C3B43317  34.663  39.639   7.016
 3149POPC   C4B43318  34.427  39.524   7.369
 3150POPC   NC343319  24.043  26.571   5.424
 3150POPC   PO443320  24.581  26.953   5.490
 3150POPC   GL143321  24.256  26.845   5.788
 3150POPC   GL243322  24.028  27.125   5.921
 3150POPC   C1A43323  24.153  26.718   6.187
 3150POPC   D2A43324  24.231  26.921   6.559
 3150POPC   C3A43325  24.420  26.819   6.915
 3150POPC   C4A43326  24.167  26.732   7.235
 3150POPC   C1B43327  24.422  27.162   6.161
 3150POPC   C2B43328  24.665  27.169   6.564
 3150POPC   C3B43329  24.705  27.241   7.011
 3150POPC   C4B43330  24.549  27.046   7.373
 3151POPC   NC343331   9.306  18.878   5.446
 3151POPC   PO443332   8.707  19.317   5.446
 3151POPC   GL143333   9.013  19.204   5.761
 3151POPC   GL243334   9.038  18.841   5.876
 3151POPC   C1A43335   9.081  19.241   6.220
 3151POPC   D2A43336   8.850  19.088   6.589
 3151POPC   C3A43337   8.973  19.171   7.013
 3151POPC   C4A43338   8.709  18.893   7.254
 3151POPC   C1B43339   9.279  18.585   6.171
 3151POPC   C2B43340   9.066  18.469   6.526
 3151POPC   C3B43341   9.062  18.684   6.915
 3151POPC   C4B43342   9.183  18.792   7.350
 3152POPC   NC343343  36.994  18.451   5.450
 3152POPC   PO443344  36.990  17.739   5.400
 3152POPC   GL143345  37.029  17.927   5.825
 3152POPC   GL243346  36.770  18.203   5.861
 3152POPC   C1A43347  36.967  18.027   6.295
 3152POPC   D2A43348  36.683  18.203   6.623
 3152POPC   C3A43349  36.881  18.262   7.033
 3152POPC   C4A43350  37.313  18.405   7.127
 3152POPC   C1B43351  36.574  18.497   6.184
 3152POPC   C2B43352  36.449  18.665   6.612
 3152POPC   C3B43353  36.539  18.723   7.057
 3152POPC   C4B43354  36.770  18.595   7.423
 3153POPC   NC343355  38.690  20.742   5.342
 3153POPC   PO443356  38.112  20.392   5.282
 3153POPC   GL143357  38.359  20.482   5.655
 3153POPC   GL243358  38.131  20.360   5.852
 3153POPC   C1A43359  38.505  20.664   6.092
 3153POPC   D2A43360  38.694  20.982   6.424
 3153POPC   C3A43361  38.610  20.842   6.865
 3153POPC   C4A43362  38.569  20.482   7.125
 3153POPC   C1B43363  38.145  20.296   6.264
 3153POPC   C2B43364  38.317  20.383   6.657
 3153POPC   C3B43365  38.117  20.286   7.026
 3153POPC   C4B43366  37.947  20.489   7.322
 3154POPC   NC343367  44.508  38.337   5.102
 3154POPC   PO443368   0.021  38.710   5.361
 3154POPC   GL143369  44.732  38.613   5.671
 3154POPC   GL243370  44.950  38.441   5.823
 3154POPC   C1A43371  44.608  38.687   6.129
 3154POPC   D2A43372  44.729  38.761   6.580
 3154POPC   C3A43373  44.642  38.507   6.980
 3154POPC   C4A43374  44.506  38.345   7.414
 3154POPC   C1B43375  44.967  38.317   6.215
 3154POPC   C2B43376  44.944  38.210   6.603
 3154POPC   C3B43377   0.134  38.340   6.936
 3154POPC   C4B43378   0.004  38.361   7.329
 3155POPC   NC343379  31.233  33.771   5.020
 3155POPC   PO443380  31.787  33.480   5.295
 3155POPC   GL143381  31.613  33.579   5.751
 3155POPC   GL243382  31.261  33.445   5.859
 3155POPC   C1A43383  31.470  33.905   6.096
 3155POPC   D2A43384  31.243  34.030   6.509
 3155POPC   C3A43385  31.288  33.766   6.896
 3155POPC   C4A43386  31.119  33.743   7.333
 3155POPC   C1B43387  31.174  33.542   6.296
 3155POPC   C2B43388  31.245  33.307   6.670
 3155POPC   C3B43389  31.208  33.277   7.088
 3155POPC   C4B43390  31.495  33.421   7.266
 3156POPC   NC343391   4.177  40.876   5.529
 3156POPC   PO443392   4.689  40.445   5.558
 3156POPC   GL143393   4.464  40.673   5.908
 3156POPC   GL243394   4.069  40.622   5.952
 3156POPC   C1A43395   4.420  40.672   6.361
 3156POPC   D2A43396   4.388  40.453   6.771
 3156POPC   C3A43397   4.497  40.705   7.141
 3156POPC   C4A43398   4.216  40.731   7.536
 3156POPC   C1B43399   4.108  41.032   6.170
 3156POPC   C2B43400   4.239  41.126   6.561
 3156POPC   C3B43401   4.110  40.933   6.904
 3156POPC   C4B43402   4.264  41.162   7.229
 3157POPC   NC343403  11.305  29.345   5.530
 3157POPC   PO443404  11.035  28.736   5.520
 3157POPC   GL143405  11.150  28.957   5.890
 3157POPC   GL243406  11.057  29.292   5.981
 3157POPC   C1A43407  11.197  28.972   6.348
 3157POPC   D2A43408  11.082  28.809   6.727
 3157POPC   C3A43409  11.373  28.936   7.028
 3157POPC   C4A43410  11.712  29.204   7.208
 3157POPC   C1B43411  11.143  29.520   6.343
 3157POPC   C2B43412  11.077  29.366   6.746
 3157POPC   C3B43413  11.226  29.400   7.167
 3157POPC   C4B43414  11.342  29.559   7.585
 3158POPC   NC343415   1.316   1.559   5.021
 3158POPC   PO443416   1.211   1.351   5.633
 3158POPC   GL143417   1.032   1.221   5.997
 3158POPC   GL243418   1.040   0.896   5.881
 3158POPC   C1A43419   1.018   1.330   6.411
 3158POPC   D2A43420   1.392   1.285   6.671
 3158POPC   C3A43421   1.232   1.459   7.030
 3158POPC   C4A43422   1.387   1.426   7.391
 3158POPC   C1B43423   1.208   0.870   6.331
 3158POPC   C2B43424   1.058   0.923   6.763
 3158POPC   C3B43425   1.330   0.976   7.143
 3158POPC   C4B43426   1.560   0.829   7.536
 3159POPC   NC343427  32.676   3.523   5.464
 3159POPC   PO443428  33.333   3.391   5.363
 3159POPC   GL143429  33.112   3.564   5.721
 3159POPC   GL243430  32.933   3.261   5.850
 3159POPC   C1A43431  33.022   3.658   6.168
 3159POPC   D2A43432  33.056   3.915   6.540
 3159POPC   C3A43433  32.978   3.665   6.922
 3159POPC   C4A43434  33.113   3.545   7.333
 3159POPC   C1B43435  32.728   3.225   6.290
 3159POPC   C2B43436  32.656   3.279   6.765
 3159POPC   C3B43437  32.660   3.289   7.232
 3159POPC   C4B43438  32.739   3.261   7.685
 3160POPC   NC343439  26.771  24.203   5.443
 3160POPC   PO443440  27.102  24.706   5.164
 3160POPC   GL143441  26.925  24.648   5.610
 3160POPC   GL243442  27.140  24.685   5.866
 3160POPC   C1A43443  26.681  24.541   6.031
 3160POPC   D2A43444  26.874  24.643   6.428
 3160POPC   C3A43445  26.762  24.634   6.863
 3160POPC   C4A43446  26.661  24.361   7.173
 3160POPC   C1B43447  27.203  24.327   6.195
 3160POPC   C2B43448  27.148  24.258   6.635
 3160POPC   C3B43449  27.174  24.384   7.060
 3160POPC   C4B43450  27.020  24.469   7.498
 3161POPC   NC343451   9.281  16.456   5.113
 3161POPC   PO443452   9.029  16.936   5.531
 3161POPC   GL143453   8.779  16.778   5.836
 3161POPC   GL243454   8.836  16.478   5.945
 3161POPC   C1A43455   8.959  16.878   6.251
 3161POPC   D2A43456   8.937  17.154   6.611
 3161POPC   C3A43457   9.205  16.970   6.914
 3161POPC   C4A43458   8.971  16.767   7.209
 3161POPC   C1B43459   9.098  16.353   6.276
 3161POPC   C2B43460   9.085  16.504   6.685
 3161POPC   C3B43461   9.178  16.318   7.059
 3161POPC   C4B43462   9.035  16.344   7.491
 3162POPC   NC343463  14.215  35.885   5.428
 3162POPC   PO443464  14.712  36.269   5.344
 3162POPC   GL143465  14.652  35.993   5.751
 3162POPC   GL243466  14.410  35.709   5.847
 3162POPC   C1A43467  14.479  36.078   6.203
 3162POPC   D2A43468  14.474  35.983   6.658
 3162POPC   C3A43469  14.345  36.204   7.033
 3162POPC   C4A43470  14.577  36.478   7.282
 3162POPC   C1B43471  14.288  35.582   6.249
 3162POPC   C2B43472  14.126  35.598   6.640
 3162POPC   C3B43473  14.282  35.681   7.042
 3162POPC   C4B43474  14.493  35.873   7.399
 3163POPC   NC343475  27.849  12.637   5.473
 3163POPC   PO443476  27.501  13.224   5.438
 3163POPC   GL143477  27.610  13.115   5.872
 3163POPC   GL243478  27.893  12.893   5.894
 3163POPC   C1A43479  27.653  13.003   6.325
 3163POPC   D2A43480  27.517  12.661   6.600
 3163POPC   C3A43481  27.355  12.817   6.997
 3163POPC   C4A43482  27.299  13.247   7.122
 3163POPC   C1B43483  27.947  12.623   6.244
 3163POPC   C2B43484  28.041  12.854   6.649
 3163POPC   C3B43485  27.897  12.889   7.095
 3163POPC   C4B43486  28.023  12.731   7.508
 3164POPC   NC343487  26.498  17.624   5.501
 3164POPC   PO443488  26.946  17.145   5.308
 3164POPC   GL143489  26.827  17.202   5.759
 3164POPC   GL243490  27.007  17.512   5.864
 3164POPC   C1A43491  26.776  17.239   6.244
 3164POPC   D2A43492  26.438  17.284   6.596
 3164POPC   C3A43493  26.586  17.406   7.030
 3164POPC   C4A43494  27.007  17.332   7.228
 3164POPC   C1B43495  27.172  17.608   6.321
 3164POPC   C2B43496  27.061  17.630   6.803
 3164POPC   C3B43497  27.164  17.806   7.254
 3164POPC   C4B43498  27.213  17.927   7.748
 3165POPC   NC343499  15.414  11.251   5.644
 3165POPC   PO443500  14.974  11.760   5.406
 3165POPC   GL143501  15.031  11.590   5.829
 3165POPC   GL243502  14.923  11.243   5.869
 3165POPC   C1A43503  15.276  11.597   6.237
 3165POPC   D2A43504  15.177  11.419   6.651
 3165POPC   C3A43505  15.328  11.543   7.036
 3165POPC   C4A43506  15.099  11.634   7.392
 3165POPC   C1B43507  15.169  11.092   6.231
 3165POPC   C2B43508  15.139  10.914   6.641
 3165POPC   C3B43509  15.269  11.034   7.066
 3165POPC   C4B43510  15.513  11.224   7.432
 3166POPC   NC343511  26.435  35.455   5.323
 3166POPC   PO443512  26.910  35.049   5.472
 3166POPC   GL143513  26.889  35.388   5.812
 3166POPC   GL243514  26.536  35.494   5.826
 3166POPC   C1A43515  26.842  35.281   6.278
 3166POPC   D2A43516  26.883  35.081   6.711
 3166POPC   C3A43517  26.707  35.204   7.127
 3166POPC   C4A43518  26.698  35.174   7.603
 3166POPC   C1B43519  26.550  35.691   6.230
 3166POPC   C2B43520  26.793  35.642   6.634
 3166POPC   C3B43521  26.508  35.658   6.981
 3166POPC   C4B43522  26.604  35.627   7.399
 3167POPC   NC343523  27.295  26.285   5.388
 3167POPC   PO443524  27.823  25.832   5.355
 3167POPC   GL143525  27.898  25.873   5.823
 3167POPC   GL243526  27.626  26.090   5.926
 3167POPC   C1A43527  27.925  25.905   6.298
 3167POPC   D2A43528  27.521  26.052   6.523
 3167POPC   C3A43529  27.514  26.171   6.958
 3167POPC   C4A43530  27.798  25.984   7.261
 3167POPC   C1B43531  27.820  26.388   6.252
 3167POPC   C2B43532  27.936  26.331   6.709
 3167POPC   C3B43533  27.847  26.474   7.188
 3167POPC   C4B43534  27.521  26.331   7.509
 3168POPC   NC343535   1.949  17.200   4.991
 3168POPC   PO443536   2.289  17.704   5.375
 3168POPC   GL143537   1.973  17.600   5.745
 3168POPC   GL243538   2.223  17.575   5.926
 3168POPC   C1A43539   1.824  17.462   6.197
 3168POPC   D2A43540   2.017  17.321   6.606
 3168POPC   C3A43541   1.774  17.450   6.968
 3168POPC   C4A43542   1.567  17.387   7.373
 3168POPC   C1B43543   2.463  17.543   6.283
 3168POPC   C2B43544   2.425  17.603   6.695
 3168POPC   C3B43545   2.388  17.418   7.092
 3168POPC   C4B43546   2.425  17.620   7.485
 3169POPC   NC343547  18.632  32.507   5.595
 3169POPC   PO443548  18.054  32.177   5.417
 3169POPC   GL143549  18.276  32.219   5.811
 3169POPC   GL243550  18.568  32.025   5.786
 3169POPC   C1A43551  18.299  32.392   6.226
 3169POPC   D2A43552  18.614  32.546   6.533
 3169POPC   C3A43553  18.645  32.375   6.949
 3169POPC   C4A43554  18.355  32.474   7.276
 3169POPC   C1B43555  18.704  32.093   6.204
 3169POPC   C2B43556  18.453  32.028   6.564
 3169POPC   C3B43557  18.225  32.092   6.937
 3169POPC   C4B43558  18.368  31.944   7.300
 3170POPC   NC343559   4.728  33.337   5.509
 3170POPC   PO443560   4.523  34.049   5.404
 3170POPC   GL143561   4.579  33.822   5.757
 3170POPC   GL243562   4.236  33.797   5.865
 3170POPC   C1A43563   4.629  33.664   6.177
 3170POPC   D2A43564   4.321  33.758   6.520
 3170POPC   C3A43565   4.462  33.751   6.932
 3170POPC   C4A43566   4.694  33.759   7.311
 3170POPC   C1B43567   4.008  34.085   6.138
 3170POPC   C2B43568   3.874  34.038   6.542
 3170POPC   C3B43569   4.092  34.113   6.906
 3170POPC   C4B43570   4.019  34.288   7.293
 3171POPC   NC343571  22.190  14.905   5.117
 3171POPC   PO443572  22.144  15.432   5.505
 3171POPC   GL143573  22.189  15.297   5.919
 3171POPC   GL243574  22.233  14.923   5.964
 3171POPC   C1A43575  22.171  15.203   6.381
 3171POPC   D2A43576  22.344  14.902   6.676
 3171POPC   C3A43577  22.423  15.158   7.046
 3171POPC   C4A43578  22.510  15.586   7.138
 3171POPC   C1B43579  21.961  14.749   6.293
 3171POPC   C2B43580  21.732  14.822   6.632
 3171POPC   C3B43581  21.934  14.930   6.993
 3171POPC   C4B43582  22.101  14.917   7.386
 3172POPC   NC343583  35.206  16.732   5.468
 3172POPC   PO443584  35.919  16.532   5.455
 3172POPC   GL143585  35.745  16.896   5.750
 3172POPC   GL243586  35.367  16.933   5.900
 3172POPC   C1A43587  35.748  16.946   6.222
 3172POPC   D2A43588  35.368  16.980   6.520
 3172POPC   C3A43589  35.351  16.819   6.916
 3172POPC   C4A43590  35.604  16.927   7.240
 3172POPC   C1B43591  35.034  16.768   6.195
 3172POPC   C2B43592  34.901  16.743   6.640
 3172POPC   C3B43593  34.881  16.966   7.063
 3172POPC   C4B43594  35.141  17.132   7.348
 3173POPC   NC343595  42.186   1.462   5.159
 3173POPC   PO443596  42.715   1.078   5.418
 3173POPC   GL143597  42.412   1.111   5.766
 3173POPC   GL243598  42.189   1.415   5.688
 3173POPC   C1A43599  42.279   0.960   6.189
 3173POPC   D2A43600  42.382   0.622   6.515
 3173POPC   C3A43601  42.238   0.700   6.953
 3173POPC   C4A43602  42.425   0.979   7.275
 3173POPC   C1B43603  42.348   1.512   6.112
 3173POPC   C2B43604  42.574   1.301   6.462
 3173POPC   C3B43605  42.591   1.307   6.901
 3173POPC   C4B43606  42.433   1.501   7.239
 3174POPC   NC343607  12.340  35.393   5.213
 3174POPC   PO443608  11.666  35.188   5.428
 3174POPC   GL143609  12.074  35.253   5.677
 3174POPC   GL243610  12.264  34.947   5.749
 3174POPC   C1A43611  12.261  35.372   6.100
 3174POPC   D2A43612  12.122  35.570   6.487
 3174POPC   C3A43613  12.259  35.446   6.908
 3174POPC   C4A43614  12.113  35.511   7.316
 3174POPC   C1B43615  12.361  34.866   6.178
 3174POPC   C2B43616  12.241  35.027   6.577
 3174POPC   C3B43617  12.203  34.941   7.018
 3174POPC   C4B43618  12.422  35.094   7.383
 3175POPC   NC343619  26.127  12.646   5.048
 3175POPC   PO443620  25.822  13.205   5.266
 3175POPC   GL143621  26.027  12.974   5.649
 3175POPC   GL243622  26.017  13.266   5.875
 3175POPC   C1A43623  25.948  12.790   6.091
 3175POPC   D2A43624  25.768  12.735   6.497
 3175POPC   C3A43625  25.947  12.982   6.815
 3175POPC   C4A43626  25.940  12.761   7.216
 3175POPC   C1B43627  26.375  13.085   6.107
 3175POPC   C2B43628  26.507  13.031   6.556
 3175POPC   C3B43629  26.410  12.846   6.965
 3175POPC   C4B43630  26.300  13.102   7.338
 3176POPC   NC343631  40.349  11.638   5.402
 3176POPC   PO443632  40.107  12.282   5.517
 3176POPC   GL143633  40.308  12.049   5.847
 3176POPC   GL243634  40.234  11.673   5.901
 3176POPC   C1A43635  40.284  12.211   6.268
 3176POPC   D2A43636  40.103  11.975   6.586
 3176POPC   C3A43637  40.131  12.075   7.016
 3176POPC   C4A43638  40.110  12.051   7.452
 3176POPC   C1B43639  39.813  11.558   6.070
 3176POPC   C2B43640  39.635  11.693   6.467
 3176POPC   C3B43641  39.828  11.647   6.869
 3176POPC   C4B43642  39.748  11.530   7.263
 3177POPC   NC343643  44.325   2.852   5.295
 3177POPC   PO443644  44.951   2.807   5.463
 3177POPC   GL143645  44.757   2.676   5.825
 3177POPC   GL243646  44.401   2.698   5.790
 3177POPC   C1A43647  44.870   2.757   6.244
 3177POPC   D2A43648  44.729   2.754   6.668
 3177POPC   C3A43649  44.932   2.697   7.059
 3177POPC   C4A43650  44.982   2.316   7.301
 3177POPC   C1B43651  44.458   3.029   6.097
 3177POPC   C2B43652  44.530   3.202   6.502
 3177POPC   C3B43653  44.336   3.019   6.849
 3177POPC   C4B43654  44.424   2.894   7.236
 3178POPC   NC343655  27.035  42.738   5.315
 3178POPC   PO443656  27.093  42.096   5.228
 3178POPC   GL143657  26.842  42.286   5.658
 3178POPC   GL243658  26.993  42.601   5.808
 3178POPC   C1A43659  26.647  42.054   6.058
 3178POPC   D2A43660  26.578  42.005   6.510
 3178POPC   C3A43661  26.908  42.098   6.824
 3178POPC   C4A43662  26.766  42.224   7.233
 3178POPC   C1B43663  26.744  42.537   6.196
 3178POPC   C2B43664  26.653  42.487   6.635
 3178POPC   C3B43665  26.648  42.676   7.033
 3178POPC   C4B43666  26.886  42.728   7.417
 3179POPC   NC343667  14.911  34.581   5.124
 3179POPC   PO443668  15.367  34.349   5.599
 3179POPC   GL143669  15.243  34.661   5.849
 3179POPC   GL243670  14.928  34.824   5.751
 3179POPC   C1A43671  15.309  34.606   6.279
 3179POPC   D2A43672  15.435  34.828   6.619
 3179POPC   C3A43673  15.272  34.537   6.869
 3179POPC   C4A43674  15.231  34.519   7.254
 3179POPC   C1B43675  14.818  34.645   6.178
 3179POPC   C2B43676  14.853  34.756   6.628
 3179POPC   C3B43677  14.771  34.576   7.056
 3179POPC   C4B43678  14.800  34.570   7.526
 3180POPC   NC343679  34.050  41.831   5.364
 3180POPC   PO443680  33.591  41.392   5.207
 3180POPC   GL143681  33.946  41.465   5.692
 3180POPC   GL243682  33.953  41.746   5.861
 3180POPC   C1A43683  33.887  41.352   6.202
 3180POPC   D2A43684  34.080  41.526   6.591
 3180POPC   C3A43685  33.881  41.431   7.006
 3180POPC   C4A43686  33.807  41.265   7.442
 3180POPC   C1B43687  33.668  41.806   6.204
 3180POPC   C2B43688  33.567  41.623   6.619
 3180POPC   C3B43689  33.414  41.708   7.044
 3180POPC   C4B43690  33.641  41.764   7.431
 3181POPC   NC343691  34.978  29.443   5.456
 3181POPC   PO443692  35.568  29.112   5.255
 3181POPC   GL143693  35.301  29.123   5.682
 3181POPC   GL243694  35.343  29.422   5.810
 3181POPC   C1A43695  35.231  28.967   6.121
 3181POPC   D2A43696  35.211  29.102   6.567
 3181POPC   C3A43697  35.368  28.945   6.930
 3181POPC   C4A43698  35.489  29.026   7.322
 3181POPC   C1B43699  35.234  29.482   6.219
 3181POPC   C2B43700  35.300  29.603   6.652
 3181POPC   C3B43701  35.240  29.441   7.095
 3181POPC   C4B43702  35.271  29.413   7.577
 3182POPC   NC343703   9.707  37.297   5.267
 3182POPC   PO443704  10.234  37.676   5.435
 3182POPC   GL143705   9.861  37.599   5.696
 3182POPC   GL243706   9.497  37.463   5.700
 3182POPC   C1A43707   9.756  37.704   6.095
 3182POPC   D2A43708   9.641  37.823   6.486
 3182POPC   C3A43709   9.769  37.620   6.860
 3182POPC   C4A43710   9.610  37.836   7.223
 3182POPC   C1B43711   9.503  37.226   6.060
 3182POPC   C2B43712   9.507  37.318   6.494
 3182POPC   C3B43713   9.503  37.179   6.918
 3182POPC   C4B43714   9.669  37.318   7.317
 3183POPC   NC343715  29.443  17.325   5.663
 3183POPC   PO443716  29.012  17.783   5.530
 3183POPC   GL143717  29.072  17.636   5.908
 3183POPC   GL243718  28.964  17.314   5.886
 3183POPC   C1A43719  28.974  17.620   6.329
 3183POPC   D2A43720  29.020  17.379   6.700
 3183POPC   C3A43721  29.059  17.642   7.072
 3183POPC   C4A43722  28.889  17.600   7.495
 3183POPC   C1B43723  29.162  17.128   6.229
 3183POPC   C2B43724  29.210  16.872   6.549
 3183POPC   C3B43725  29.344  17.039   6.915
 3183POPC   C4B43726  29.184  17.211   7.299
 3184POPC   NC343727   8.606  32.751   5.478
 3184POPC   PO443728   8.305  33.409   5.429
 3184POPC   GL143729   8.363  33.239   5.797
 3184POPC   GL243730   8.258  32.900   5.818
 3184POPC   C1A43731   8.194  33.241   6.184
 3184POPC   D2A43732   7.941  33.101   6.512
 3184POPC   C3A43733   7.993  33.268   6.879
 3184POPC   C4A43734   8.296  33.243   7.168
 3184POPC   C1B43735   8.118  32.712   6.175
 3184POPC   C2B43736   8.224  32.697   6.606
 3184POPC   C3B43737   8.166  32.779   7.010
 3184POPC   C4B43738   8.240  32.820   7.469
 3185POPC   NC343739  31.723  42.762   5.376
 3185POPC   PO443740  31.210  43.180   5.488
 3185POPC   GL143741  31.559  43.158   5.770
 3185POPC   GL243742  31.621  42.807   5.883
 3185POPC   C1A43743  31.397  43.161   6.186
 3185POPC   D2A43744  31.245  43.008   6.575
 3185POPC   C3A43745  31.402  43.314   6.851
 3185POPC   C4A43746  31.574  43.405   7.216
 3185POPC   C1B43747  31.601  42.696   6.327
 3185POPC   C2B43748  31.643  42.716   6.777
 3185POPC   C3B43749  31.486  42.886   7.147
 3185POPC   C4B43750  31.558  42.730   7.582
 3186POPC   NC343751  31.096  20.814   5.373
 3186POPC   PO443752  30.977  20.208   5.404
 3186POPC   GL143753  30.886  20.493   5.762
 3186POPC   GL243754  30.672  20.769   5.681
 3186POPC   C1A43755  31.009  20.587   6.208
 3186POPC   D2A43756  31.089  20.440   6.635
 3186POPC   C3A43757  30.950  20.693   6.977
 3186POPC   C4A43758  31.043  20.892   7.379
 3186POPC   C1B43759  30.512  20.719   6.120
 3186POPC   C2B43760  30.655  20.839   6.548
 3186POPC   C3B43761  30.445  20.742   6.943
 3186POPC   C4B43762  30.184  20.678   7.293
 3187POPC   NC343763  31.643  12.263   5.278
 3187POPC   PO443764  31.291  11.739   5.164
 3187POPC   GL143765  31.311  11.922   5.650
 3187POPC   GL243766  31.129  12.265   5.762
 3187POPC   C1A43767  31.562  12.030   6.078
 3187POPC   D2A43768  31.506  11.863   6.544
 3187POPC   C3A43769  31.594  12.037   6.998
 3187POPC   C4A43770  31.318  12.106   7.396
 3187POPC   C1B43771  31.100  12.144   6.213
 3187POPC   C2B43772  31.298  12.317   6.607
 3187POPC   C3B43773  31.271  12.467   7.027
 3187POPC   C4B43774  30.901  12.436   7.263
 3188POPC   NC343775   1.916   5.346   5.420
 3188POPC   PO443776   1.740   4.611   5.411
 3188POPC   GL143777   1.786   4.935   5.776
 3188POPC   GL243778   2.117   5.057   5.818
 3188POPC   C1A43779   1.806   5.179   6.205
 3188POPC   D2A43780   1.688   5.343   6.631
 3188POPC   C3A43781   1.934   5.216   7.001
 3188POPC   C4A43782   1.976   4.858   7.267
 3188POPC   C1B43783   2.321   5.142   6.236
 3188POPC   C2B43784   2.328   5.221   6.674
 3188POPC   C3B43785   2.425   5.140   7.128
 3188POPC   C4B43786   2.378   5.079   7.596
 3189POPC   NC343787  31.963  12.914   5.636
 3189POPC   PO443788  32.562  13.058   5.582
 3189POPC   GL143789  32.376  12.781   5.950
 3189POPC   GL243790  32.070  12.913   6.125
 3189POPC   C1A43791  32.366  12.658   6.440
 3189POPC   D2A43792  32.644  12.628   6.824
 3189POPC   C3A43793  32.474  12.867   7.134
 3189POPC   C4A43794  32.058  12.917   7.218
 3189POPC   C1B43795  32.439  13.151   6.274
 3189POPC   C2B43796  32.590  13.130   6.676
 3189POPC   C3B43797  32.530  13.366   7.062
 3189POPC   C4B43798  32.317  13.306   7.478
 3190POPC   NC343799  36.331   2.666   5.479
 3190POPC   PO443800  35.810   2.980   5.234
 3190POPC   GL143801  35.975   3.004   5.723
 3190POPC   GL243802  35.850   2.748   5.981
 3190POPC   C1A43803  36.248   3.061   6.141
 3190POPC   D2A43804  36.343   2.901   6.607
 3190POPC   C3A43805  36.242   3.068   7.075
 3190POPC   C4A43806  36.257   3.108   7.577
 3190POPC   C1B43807  36.172   2.473   6.182
 3190POPC   C2B43808  36.377   2.256   6.541
 3190POPC   C3B43809  36.339   2.483   6.946
 3190POPC   C4B43810  35.904   2.499   7.103
 3191POPC   NC343811  41.585   5.051   5.445
 3191POPC   PO443812  41.136   4.564   5.460
 3191POPC   GL143813  41.284   4.862   5.813
 3191POPC   GL243814  41.483   5.198   5.908
 3191POPC   C1A43815  41.339   4.857   6.251
 3191POPC   D2A43816  41.662   4.832   6.553
 3191POPC   C3A43817  41.525   4.885   6.968
 3191POPC   C4A43818  41.694   5.231   7.162
 3191POPC   C1B43819  41.311   5.383   6.263
 3191POPC   C2B43820  41.381   5.286   6.651
 3191POPC   C3B43821  41.210   5.380   6.999
 3191POPC   C4B43822  41.191   5.119   7.303
 3192POPC   NC343823  34.034  30.657   5.385
 3192POPC   PO443824  33.443  30.698   5.618
 3192POPC   GL143825  33.775  30.657   5.889
 3192POPC   GL243826  34.020  30.367   5.836
 3192POPC   C1A43827  33.746  30.834   6.298
 3192POPC   D2A43828  33.579  30.672   6.679
 3192POPC   C3A43829  33.596  30.955   7.037
 3192POPC   C4A43830  33.920  31.081   7.312
 3192POPC   C1B43831  33.955  30.355   6.295
 3192POPC   C2B43832  34.098  30.614   6.626
 3192POPC   C3B43833  33.992  30.636   7.034
 3192POPC   C4B43834  33.997  30.383   7.356
 3193POPC   NC343835  12.429  10.720   5.493
 3193POPC   PO443836  12.967  10.289   5.425
 3193POPC   GL143837  12.749  10.449   5.777
 3193POPC   GL243838  12.912  10.737   5.794
 3193POPC   C1A43839  12.751  10.406   6.217
 3193POPC   D2A43840  13.066  10.291   6.548
 3193POPC   C3A43841  12.927  10.207   6.976
 3193POPC   C4A43842  12.904  10.340   7.428
 3193POPC   C1B43843  13.127  10.721   6.212
 3193POPC   C2B43844  12.943  10.790   6.647
 3193POPC   C3B43845  13.032  10.700   7.101
 3193POPC   C4B43846  13.033  10.818   7.587
 3194POPC   NC343847  12.056  37.122   5.274
 3194POPC   PO443848  12.327  36.515   5.357
 3194POPC   GL143849  12.222  36.784   5.721
 3194POPC   GL243850  12.109  37.146   5.771
 3194POPC   C1A43851  12.173  36.808   6.167
 3194POPC   D2A43852  12.297  37.060   6.509
 3194POPC   C3A43853  12.143  36.907   6.884
 3194POPC   C4A43854  12.210  36.727   7.255
 3194POPC   C1B43855  11.989  37.304   6.173
 3194POPC   C2B43856  11.808  37.161   6.554
 3194POPC   C3B43857  11.839  37.289   6.999
 3194POPC   C4B43858  11.913  37.113   7.413
 3195POPC   NC343859  44.473  21.638   5.385
 3195POPC   PO443860  44.540  20.997   5.162
 3195POPC   GL143861  44.571  21.150   5.635
 3195POPC   GL243862  44.732  21.465   5.770
 3195POPC   C1A43863  44.664  21.070   6.111
 3195POPC   D2A43864  44.563  21.203   6.555
 3195POPC   C3A43865  44.560  20.957   6.949
 3195POPC   C4A43866  44.334  21.031   7.364
 3195POPC   C1B43867  44.917  21.658   6.134
 3195POPC   C2B43868  44.782  21.651   6.568
 3195POPC   C3B43869  44.597  21.609   6.969
 3195POPC   C4B43870  44.827  21.779   7.364
 3196POPC   NC343871  39.153  21.820   5.491
 3196POPC   PO443872  39.322  22.464   5.453
 3196POPC   GL143873  39.137  22.234   5.811
 3196POPC   GL243874  39.396  21.993   5.901
 3196POPC   C1A43875  39.127  22.189   6.293
 3196POPC   D2A43876  39.310  22.006   6.710
 3196POPC   C3A43877  39.185  22.162   7.112
 3196POPC   C4A43878  38.940  22.526   7.269
 3196POPC   C1B43879  39.398  21.757   6.272
 3196POPC   C2B43880  39.612  21.576   6.613
 3196POPC   C3B43881  39.719  21.797   6.981
 3196POPC   C4B43882  39.527  21.901   7.401
 3197POPC   NC343883  16.630  16.723   5.219
 3197POPC   PO443884  17.359  16.839   5.411
 3197POPC   GL143885  17.038  16.652   5.656
 3197POPC   GL243886  16.775  16.891   5.726
 3197POPC   C1A43887  16.945  16.563   6.116
 3197POPC   D2A43888  16.838  16.759   6.559
 3197POPC   C3A43889  16.917  16.570   6.993
 3197POPC   C4A43890  17.230  16.522   7.343
 3197POPC   C1B43891  16.575  16.907   6.141
 3197POPC   C2B43892  16.361  16.931   6.560
 3197POPC   C3B43893  16.504  16.880   6.983
 3197POPC   C4B43894  16.387  16.814   7.395
 3198POPC   NC343895  29.228  36.963   5.233
 3198POPC   PO443896  28.937  36.452   5.461
 3198POPC   GL143897  29.125  36.696   5.819
 3198POPC   GL243898  29.257  37.036   5.807
 3198POPC   C1A43899  29.378  36.693   6.202
 3198POPC   D2A43900  29.329  36.903   6.600
 3198POPC   C3A43901  29.460  36.638   6.950
 3198POPC   C4A43902  29.424  36.732   7.382
 3198POPC   C1B43903  28.984  37.032   6.191
 3198POPC   C2B43904  28.789  36.875   6.592
 3198POPC   C3B43905  28.966  36.884   7.007
 3198POPC   C4B43906  28.709  37.189   7.207
 3199POPC   NC343907  28.622  22.011   5.359
 3199POPC   PO443908  28.021  22.142   5.466
 3199POPC   GL143909  28.307  22.074   5.792
 3199POPC   GL243910  28.367  21.747   5.761
 3199POPC   C1A43911  28.436  22.228   6.209
 3199POPC   D2A43912  28.460  22.094   6.666
 3199POPC   C3A43913  28.372  22.428   6.989
 3199POPC   C4A43914  28.644  22.385   7.387
 3199POPC   C1B43915  28.170  21.759   6.174
 3199POPC   C2B43916  28.008  21.793   6.589
 3199POPC   C3B43917  28.043  21.997   6.975
 3199POPC   C4B43918  28.396  21.988   7.224
 3200POPC   NC343919   4.439  24.608   5.171
 3200POPC   PO443920   3.885  24.827   5.539
 3200POPC   GL143921   4.219  24.596   5.800
 3200POPC   GL243922   4.411  24.290   5.872
 3200POPC   C1A43923   4.464  24.642   6.208
 3200POPC   D2A43924   4.619  24.463   6.570
 3200POPC   C3A43925   4.417  24.590   6.915
 3200POPC   C4A43926   4.516  24.825   7.243
 3200POPC   C1B43927   4.053  24.278   6.154
 3200POPC   C2B43928   4.071  24.486   6.533
 3200POPC   C3B43929   4.026  24.250   6.887
 3200POPC   C4B43930   4.180  24.335   7.297
 3201POPC   NC343931   5.622   2.716   5.529
 3201POPC   PO443932   6.158   2.961   5.682
 3201POPC   GL143933   5.848   2.814   5.984
 3201POPC   GL243934   5.835   2.465   5.931
 3201POPC   C1A43935   5.625   2.898   6.377
 3201POPC   D2A43936   5.426   3.001   6.754
 3201POPC   C3A43937   5.600   2.903   7.128
 3201POPC   C4A43938   5.710   2.503   7.214
 3201POPC   C1B43939   5.932   2.490   6.377
 3201POPC   C2B43940   5.921   2.704   6.768
 3201POPC   C3B43941   6.192   2.652   7.123
 3201POPC   C4B43942   6.502   2.482   7.424
 3202POPC   NC343943  22.644   2.039   5.332
 3202POPC   PO443944  23.230   2.095   5.523
 3202POPC   GL143945  22.835   2.017   5.813
 3202POPC   GL243946  22.500   2.173   5.811
 3202POPC   C1A43947  22.678   1.794   6.200
 3202POPC   D2A43948  22.796   1.545   6.602
 3202POPC   C3A43949  22.964   1.762   6.979
 3202POPC   C4A43950  23.386   1.746   7.212
 3202POPC   C1B43951  22.355   2.215   6.259
 3202POPC   C2B43952  22.524   2.041   6.657
 3202POPC   C3B43953  22.562   2.049   7.115
 3202POPC   C4B43954  22.598   2.072   7.567
 3203POPC   NC343955  33.112  30.366   5.640
 3203POPC   PO443956  32.858  30.963   5.428
 3203POPC   GL143957  33.016  30.830   5.865
 3203POPC   GL243958  32.808  30.919   6.118
 3203POPC   C1A43959  33.247  30.643   6.256
 3203POPC   D2A43960  33.170  30.349   6.610
 3203POPC   C3A43961  33.245  30.484   7.028
 3203POPC   C4A43962  33.118  30.479   7.423
 3203POPC   C1B43963  33.092  31.111   6.398
 3203POPC   C2B43964  33.141  30.929   6.788
 3203POPC   C3B43965  33.112  30.953   7.224
 3203POPC   C4B43966  32.987  31.219   7.511
 3204POPC   NC343967  32.371  24.297   5.322
 3204POPC   PO443968  31.904  24.787   5.690
 3204POPC   GL143969  32.199  24.455   5.915
 3204POPC   GL243970  32.517  24.328   5.827
 3204POPC   C1A43971  32.191  24.283   6.333
 3204POPC   D2A43972  31.999  24.516   6.624
 3204POPC   C3A43973  32.131  24.518   7.029
 3204POPC   C4A43974  31.902  24.773   7.252
 3204POPC   C1B43975  32.588  24.585   6.208
 3204POPC   C2B43976  32.499  24.626   6.652
 3204POPC   C3B43977  32.637  24.415   7.033
 3204POPC   C4B43978  32.497  24.525   7.454
 3205POPC   NC343979  39.429   5.646   5.410
 3205POPC   PO443980  39.026   6.161   5.474
 3205POPC   GL143981  39.222   6.039   5.854
 3205POPC   GL243982  39.280   5.695   5.891
 3205POPC   C1A43983  39.140   5.951   6.313
 3205POPC   D2A43984  38.813   5.760   6.585
 3205POPC   C3A43985  38.942   5.738   6.997
 3205POPC   C4A43986  39.092   6.084   7.209
 3205POPC   C1B43987  39.036   5.461   6.197
 3205POPC   C2B43988  39.231   5.446   6.595
 3205POPC   C3B43989  39.522   5.454   6.938
 3205POPC   C4B43990  39.252   5.458   7.286
 3206POPC   NC343991  28.620  20.202   5.173
 3206POPC   PO443992  28.078  19.942   5.385
 3206POPC   GL143993  28.376  19.991   5.726
 3206POPC   GL243994  28.587  19.677   5.816
 3206POPC   C1A43995  28.276  19.946   6.166
 3206POPC   D2A43996  28.513  19.879   6.529
 3206POPC   C3A43997  28.283  19.874   6.909
 3206POPC   C4A43998  28.458  19.976   7.288
 3206POPC   C1B43999  28.795  19.471   6.208
 3206POPC   C2B44000  28.808  19.478   6.680
 3206POPC   C3B44001  28.577  19.492   7.080
 3206POPC   C4B44002  28.676  19.505   7.537
 3207POPC   NC344003  18.829   3.385   5.358
 3207POPC   PO444004  19.353   3.759   5.321
 3207POPC   GL144005  19.262   3.445   5.686
 3207POPC   GL244006  19.255   3.068   5.779
 3207POPC   C1A44007  19.048   3.440   6.113
 3207POPC   D2A44008  19.063   3.208   6.545
 3207POPC   C3A44009  19.019   3.469   6.905
 3207POPC   C4A44010  19.169   3.683   7.273
 3207POPC   C1B44011  18.880   2.971   6.098
 3207POPC   C2B44012  18.578   3.129   6.443
 3207POPC   C3B44013  18.542   3.277   6.883
 3207POPC   C4B44014  18.675   3.486   7.287
 3208POPC   NC344015  30.285  40.359   5.408
 3208POPC   PO444016  29.760  39.965   5.380
 3208POPC   GL144017  29.790  40.006   5.805
 3208POPC   GL244018  30.172  40.017   5.847
 3208POPC   C1A44019  29.858  39.833   6.217
 3208POPC   D2A44020  29.920  39.659   6.615
 3208POPC   C3A44021  29.786  39.951   6.956
 3208POPC   C4A44022  29.790  40.354   7.179
 3208POPC   C1B44023  30.325  40.014   6.313
 3208POPC   C2B44024  30.267  40.003   6.773
 3208POPC   C3B44025  30.240  40.055   7.238
 3208POPC   C4B44026  30.101  40.327   7.594
 3209POPC   NC344027  37.595  14.200   5.535
 3209POPC   PO444028  37.865  14.862   5.404
 3209POPC   GL144029  37.809  14.619   5.827
 3209POPC   GL244030  37.561  14.378   6.012
 3209POPC   C1A44031  37.829  14.723   6.289
 3209POPC   D2A44032  37.914  14.677   6.729
 3209POPC   C3A44033  37.638  14.586   7.046
 3209POPC   C4A44034  37.701  14.504   7.473
 3209POPC   C1B44035  37.888  14.180   6.250
 3209POPC   C2B44036  37.935  14.015   6.674
 3209POPC   C3B44037  37.832  14.101   7.146
 3209POPC   C4B44038  37.916  14.071   7.614
 3210POPC   NC344039  37.122  33.388   5.374
 3210POPC   PO444040  37.652  32.919   5.381
 3210POPC   GL144041  37.739  33.152   5.772
 3210POPC   GL244042  37.369  33.126   5.792
 3210POPC   C1A44043  37.899  33.384   6.181
 3210POPC   D2A44044  37.905  33.193   6.605
 3210POPC   C3A44045  37.653  33.221   6.967
 3210POPC   C4A44046  37.341  33.197   7.247
 3210POPC   C1B44047  37.489  33.115   6.230
 3210POPC   C2B44048  37.459  32.911   6.595
 3210POPC   C3B44049  37.756  32.711   6.838
 3210POPC   C4B44050  37.965  32.682   7.212
 3211POPC   NC344051  34.386  42.408   5.643
 3211POPC   PO444052  34.627  42.944   5.322
 3211POPC   GL144053  34.621  42.965   5.802
 3211POPC   GL244054  34.784  42.648   5.853
 3211POPC   C1A44055  34.393  43.108   6.230
 3211POPC   D2A44056  34.241  43.022   6.687
 3211POPC   C3A44057  34.549  43.216   6.949
 3211POPC   C4A44058  34.571  43.450   7.307
 3211POPC   C1B44059  34.658  42.644   6.266
 3211POPC   C2B44060  34.682  42.790   6.652
 3211POPC   C3B44061  34.523  42.687   7.039
 3211POPC   C4B44062  34.614  42.924   7.397
 3212POPC   NC344063  22.795  12.294   5.447
 3212POPC   PO444064  23.151  11.778   5.230
 3212POPC   GL144065  22.955  11.862   5.682
 3212POPC   GL244066  23.195  11.831   5.973
 3212POPC   C1A44067  22.708  11.745   6.044
 3212POPC   D2A44068  22.956  11.610   6.401
 3212POPC   C3A44069  22.874  11.730   6.842
 3212POPC   C4A44070  22.909  12.131   7.101
 3212POPC   C1B44071  23.019  12.129   6.237
 3212POPC   C2B44072  23.154  12.162   6.650
 3212POPC   C3B44073  23.395  12.294   6.991
 3212POPC   C4B44074  23.270  12.461   7.379
 3213POPC   NC344075  31.722  16.746   5.780
 3213POPC   PO444076  32.208  16.912   5.316
 3213POPC   GL144077  32.344  16.785   5.784
 3213POPC   GL244078  32.209  16.443   5.791
 3213POPC   C1A44079  32.413  16.879   6.254
 3213POPC   D2A44080  32.623  16.909   6.684
 3213POPC   C3A44081  32.408  17.063   7.059
 3213POPC   C4A44082  32.183  16.916   7.432
 3213POPC   C1B44083  32.497  16.382   6.145
 3213POPC   C2B44084  32.404  16.395   6.604
 3213POPC   C3B44085  32.247  16.555   7.036
 3213POPC   C4B44086  32.184  16.419   7.491
 3214POPC   NC344087   2.377  39.494   5.538
 3214POPC   PO444088   1.739  39.584   5.135
 3214POPC   GL144089   1.839  39.524   5.637
 3214POPC   GL244090   1.649  39.800   5.774
 3214POPC   C1A44091   2.063  39.416   6.106
 3214POPC   D2A44092   1.925  39.259   6.543
 3214POPC   C3A44093   2.183  39.236   6.926
 3214POPC   C4A44094   2.224  38.944   7.281
 3214POPC   C1B44095   1.588  39.550   6.188
 3214POPC   C2B44096   1.458  39.469   6.635
 3214POPC   C3B44097   1.649  39.351   7.029
 3214POPC   C4B44098   1.651  39.637   7.367
 3215POPC   NC344099  15.446  31.407   5.283
 3215POPC   PO444100  14.914  31.073   5.531
 3215POPC   GL144101  15.122  31.503   5.680
 3215POPC   GL244102  15.474  31.533   5.804
 3215POPC   C1A44103  15.099  31.712   6.105
 3215POPC   D2A44104  15.038  31.602   6.546
 3215POPC   C3A44105  15.240  31.758   6.943
 3215POPC   C4A44106  15.426  31.551   7.286
 3215POPC   C1B44107  15.454  31.386   6.273
 3215POPC   C2B44108  15.452  31.321   6.748
 3215POPC   C3B44109  15.574  31.089   7.139
 3215POPC   C4B44110  15.646  31.209   7.620
 3216POPC   NC344111   8.414   1.368   5.458
 3216POPC   PO444112   7.767   1.251   5.448
 3216POPC   GL144113   8.073   1.223   5.819
 3216POPC   GL244114   8.224   0.894   5.926
 3216POPC   C1A44115   8.190   1.358   6.219
 3216POPC   D2A44116   8.235   1.449   6.647
 3216POPC   C3A44117   8.049   1.240   6.972
 3216POPC   C4A44118   8.236   1.405   7.314
 3216POPC   C1B44119   8.398   0.895   6.328
 3216POPC   C2B44120   8.458   0.892   6.761
 3216POPC   C3B44121   8.192   0.747   7.070
 3216POPC   C4B44122   8.028   0.969   7.420
 3217POPC   NC344123  33.816  11.103   5.164
 3217POPC   PO444124  33.482  11.526   5.363
 3217POPC   GL144125  33.755  11.399   5.747
 3217POPC   GL244126  33.936  11.069   5.808
 3217POPC   C1A44127  33.719  11.490   6.218
 3217POPC   D2A44128  33.509  11.501   6.643
 3217POPC   C3A44129  33.747  11.515   7.039
 3217POPC   C4A44130  33.682  11.587   7.480
 3217POPC   C1B44131  34.031  11.095   6.293
 3217POPC   C2B44132  33.848  11.105   6.729
 3217POPC   C3B44133  33.894  11.039   7.196
 3217POPC   C4B44134  34.047  10.948   7.632
 3218POPC   NC344135  28.741  39.941   5.535
 3218POPC   PO444136  28.133  39.875   5.427
 3218POPC   GL144137  28.291  39.817   5.799
 3218POPC   GL244138  28.420  40.134   5.869
 3218POPC   C1A44139  28.372  39.732   6.215
 3218POPC   D2A44140  28.414  39.959   6.579
 3218POPC   C3A44141  28.196  39.879   6.944
 3218POPC   C4A44142  28.325  39.745   7.334
 3218POPC   C1B44143  28.523  40.316   6.223
 3218POPC   C2B44144  28.416  40.484   6.578
 3218POPC   C3B44145  28.493  40.317   6.940
 3218POPC   C4B44146  28.535  40.203   7.341
 3219POPC   NC344147  16.786   4.117   4.971
 3219POPC   PO444148  16.811   4.358   5.355
 3219POPC   GL144149  16.664   4.276   5.777
 3219POPC   GL244150  16.749   3.976   5.914
 3219POPC   C1A44151  16.467   4.356   6.191
 3219POPC   D2A44152  16.534   4.316   6.635
 3219POPC   C3A44153  16.663   4.393   7.026
 3219POPC   C4A44154  16.681   3.985   7.265
 3219POPC   C1B44155  16.881   4.080   6.349
 3219POPC   C2B44156  16.947   4.011   6.811
 3219POPC   C3B44157  17.127   4.274   7.170
 3219POPC   C4B44158  17.119   4.647   7.459
 3220POPC   NC344159  37.367  30.968   5.590
 3220POPC   PO444160  36.675  30.633   5.453
 3220POPC   GL144161  36.815  30.516   5.832
 3220POPC   GL244162  36.946  30.842   5.835
 3220POPC   C1A44163  36.872  30.584   6.282
 3220POPC   D2A44164  37.032  30.310   6.601
 3220POPC   C3A44165  37.011  30.522   6.972
 3220POPC   C4A44166  36.938  30.443   7.417
 3220POPC   C1B44167  37.036  31.078   6.173
 3220POPC   C2B44168  36.864  31.096   6.559
 3220POPC   C3B44169  37.018  31.041   6.925
 3220POPC   C4B44170  36.836  30.900   7.242
 3221POPC   NC344171   7.525  29.577   5.335
 3221POPC   PO444172   7.163  30.150   5.464
 3221POPC   GL144173   7.370  29.835   5.769
 3221POPC   GL244174   7.758  29.835   5.723
 3221POPC   C1A44175   7.289  29.621   6.205
 3221POPC   D2A44176   7.003  29.623   6.603
 3221POPC   C3A44177   7.233  29.770   6.979
 3221POPC   C4A44178   7.229  29.618   7.433
 3221POPC   C1B44179   7.715  29.986   6.134
 3221POPC   C2B44180   7.526  30.094   6.523
 3221POPC   C3B44181   7.678  30.174   6.936
 3221POPC   C4B44182   7.648  29.884   7.252
 3222POPC   NC344183  36.193   1.878   5.458
 3222POPC   PO444184  35.912   2.513   5.536
 3222POPC   GL144185  35.926   2.169   5.845
 3222POPC   GL244186  36.262   2.025   5.927
 3222POPC   C1A44187  35.926   2.026   6.294
 3222POPC   D2A44188  35.796   1.840   6.673
 3222POPC   C3A44189  36.077   2.038   6.956
 3222POPC   C4A44190  36.528   1.997   6.993
 3222POPC   C1B44191  36.485   1.804   6.218
 3222POPC   C2B44192  36.325   1.695   6.593
 3222POPC   C3B44193  36.143   1.551   6.940
 3222POPC   C4B44194  36.268   1.691   7.313
 3223POPC   NC344195  19.689   7.650   5.447
 3223POPC   PO444196  20.326   7.431   5.478
 3223POPC   GL144197  20.034   7.502   5.802
 3223POPC   GL244198  19.960   7.173   5.952
 3223POPC   C1A44199  19.840   7.628   6.200
 3223POPC   D2A44200  19.906   7.734   6.660
 3223POPC   C3A44201  19.732   7.563   7.044
 3223POPC   C4A44202  19.926   7.343   7.372
 3223POPC   C1B44203  19.930   7.177   6.447
 3223POPC   C2B44204  19.751   7.063   6.883
 3223POPC   C3B44205  19.633   6.921   7.316
 3223POPC   C4B44206  19.906   6.952   7.694
 3224POPC   NC344207  17.176  13.427   5.601
 3224POPC   PO444208  17.757  13.625   5.335
 3224POPC   GL144209  17.593  13.638   5.769
 3224POPC   GL244210  17.649  13.273   5.739
 3224POPC   C1A44211  17.350  13.639   6.196
 3224POPC   D2A44212  17.139  13.749   6.577
 3224POPC   C3A44213  17.257  13.550   6.979
 3224POPC   C4A44214  17.375  13.725   7.374
 3224POPC   C1B44215  17.615  13.168   6.167
 3224POPC   C2B44216  17.404  13.238   6.563
 3224POPC   C3B44217  17.593  13.165   6.969
 3224POPC   C4B44218  17.416  13.128   7.366
 3225POPC   NC344219  38.234  28.392   5.432
 3225POPC   PO444220  37.933  28.035   5.834
 3225POPC   GL144221  38.286  28.304   5.968
 3225POPC   GL244222  38.524  28.110   6.119
 3225POPC   C1A44223  38.427  28.543   6.361
 3225POPC   D2A44224  38.417  28.416   6.807
 3225POPC   C3A44225  38.731  28.458   7.132
 3225POPC   C4A44226  38.603  28.426   7.560
 3225POPC   C1B44227  38.158  28.094   6.432
 3225POPC   C2B44228  37.878  27.821   6.691
 3225POPC   C3B44229  38.035  27.783   7.087
 3225POPC   C4B44230  38.395  28.063   7.215
 3226POPC   NC344231   4.272  27.163   5.132
 3226POPC   PO444232   4.563  26.705   5.459
 3226POPC   GL144233   4.388  27.003   5.716
 3226POPC   GL244234   4.058  26.927   5.842
 3226POPC   C1A44235   4.460  26.953   6.155
 3226POPC   D2A44236   4.436  26.658   6.468
 3226POPC   C3A44237   4.560  26.883   6.829
 3226POPC   C4A44238   4.688  26.684   7.182
 3226POPC   C1B44239   3.991  26.619   6.210
 3226POPC   C2B44240   3.993  26.448   6.659
 3226POPC   C3B44241   4.178  26.630   7.049
 3226POPC   C4B44242   4.139  26.625   7.518
 3227POPC   NC344243   8.122  30.340   5.418
 3227POPC   PO444244   7.976  29.697   5.278
 3227POPC   GL144245   8.279  29.814   5.641
 3227POPC   GL244246   8.553  30.088   5.674
 3227POPC   C1A44247   8.239  29.943   6.101
 3227POPC   D2A44248   8.040  30.094   6.517
 3227POPC   C3A44249   8.247  29.953   6.887
 3227POPC   C4A44250   8.117  30.056   7.268
 3227POPC   C1B44251   8.608  30.299   6.096
 3227POPC   C2B44252   8.543  30.117   6.506
 3227POPC   C3B44253   8.701  30.202   6.925
 3227POPC   C4B44254   8.543  30.326   7.272
 3228POPC   NC344255  25.893  22.880   4.973
 3228POPC   PO444256  25.963  22.725   5.612
 3228POPC   GL144257  25.901  23.067   5.917
 3228POPC   GL244258  26.241  23.157   6.018
 3228POPC   C1A44259  25.844  23.134   6.384
 3228POPC   D2A44260  26.069  23.271   6.768
 3228POPC   C3A44261  25.835  23.064   7.105
 3228POPC   C4A44262  25.760  22.608   7.182
 3228POPC   C1B44263  26.197  22.768   6.270
 3228POPC   C2B44264  26.062  22.745   6.710
 3228POPC   C3B44265  26.314  22.896   7.052
 3228POPC   C4B44266  26.448  22.784   7.481
 3229POPC   NC344267  10.686  42.568   5.606
 3229POPC   PO444268  10.424  42.067   5.279
 3229POPC   GL144269  10.395  42.100   5.747
 3229POPC   GL244270  10.702  42.159   5.917
 3229POPC   C1A44271  10.284  42.214   6.209
 3229POPC   D2A44272  10.453  42.469   6.557
 3229POPC   C3A44273  10.464  42.389   6.975
 3229POPC   C4A44274  10.196  42.435   7.332
 3229POPC   C1B44275  10.850  42.457   6.239
 3229POPC   C2B44276  10.940  42.712   6.597
 3229POPC   C3B44277  10.929  42.680   7.028
 3229POPC   C4B44278  10.803  42.390   7.386
 3230POPC   NC344279  31.200  43.614   5.368
 3230POPC   PO444280  31.625  44.090   5.497
 3230POPC   GL144281  31.518  43.724   5.813
 3230POPC   GL244282  31.204  43.532   5.885
 3230POPC   C1A44283  31.734  43.578   6.203
 3230POPC   D2A44284  31.700  43.694   6.654
 3230POPC   C3A44285  31.942  43.706   7.035
 3230POPC   C4A44286  31.785  43.791   7.486
 3230POPC   C1B44287  31.254  43.772   6.281
 3230POPC   C2B44288  31.217  43.827   6.721
 3230POPC   C3B44289  31.340  43.848   7.122
 3230POPC   C4B44290  30.965  43.917   7.332
 3231POPC   NC344291  30.503  29.293   5.409
 3231POPC   PO444292  29.953  29.063   5.495
 3231POPC   GL144293  30.235  29.149   5.853
 3231POPC   GL244294  30.313  29.519   5.857
 3231POPC   C1A44295  30.116  28.923   6.239
 3231POPC   D2A44296  30.311  28.778   6.595
 3231POPC   C3A44297  30.135  28.862   6.984
 3231POPC   C4A44298  29.891  29.019   7.360
 3231POPC   C1B44299  30.171  29.444   6.314
 3231POPC   C2B44300  29.977  29.300   6.735
 3231POPC   C3B44301  29.839  29.510   7.164
 3231POPC   C4B44302  29.836  29.830   7.537
 3232POPC   NC344303   4.881  17.679   5.524
 3232POPC   PO444304   5.171  18.299   5.478
 3232POPC   GL144305   5.098  18.430   5.856
 3232POPC   GL244306   5.350  18.656   5.874
 3232POPC   C1A44307   5.022  18.142   6.178
 3232POPC   D2A44308   4.850  17.970   6.548
 3232POPC   C3A44309   5.003  18.108   6.948
 3232POPC   C4A44310   4.868  18.305   7.334
 3232POPC   C1B44311   5.499  18.428   6.202
 3232POPC   C2B44312   5.332  18.240   6.559
 3232POPC   C3B44313   5.509  18.259   6.920
 3232POPC   C4B44314   5.363  18.245   7.304
 3233POPC   NC344315  36.499   3.852   5.396
 3233POPC   PO444316  36.277   4.451   5.470
 3233POPC   GL144317  36.155   4.506   5.861
 3233POPC   GL244318  36.396   4.755   5.873
 3233POPC   C1A44319  35.931   4.461   6.264
 3233POPC   D2A44320  35.999   4.283   6.674
 3233POPC   C3A44321  36.098   4.570   7.014
 3233POPC   C4A44322  35.771   4.487   7.280
 3233POPC   C1B44323  36.467   4.461   6.243
 3233POPC   C2B44324  36.520   4.337   6.674
 3233POPC   C3B44325  36.364   4.146   7.021
 3233POPC   C4B44326  35.955   3.992   7.188
 3234POPC   NC344327  17.124   0.371   5.035
 3234POPC   PO444328  16.806   0.813   5.407
 3234POPC   GL144329  16.690   0.450   5.689
 3234POPC   GL244330  17.013   0.396   5.836
 3234POPC   C1A44331  16.600   0.296   6.153
 3234POPC   D2A44332  16.374   0.399   6.580
 3234POPC   C3A44333  16.409   0.301   7.068
 3234POPC   C4A44334  16.412   0.464   7.509
 3234POPC   C1B44335  16.864   0.748   6.093
 3234POPC   C2B44336  16.928   0.794   6.521
 3234POPC   C3B44337  16.789   0.564   6.850
 3234POPC   C4B44338  16.957   0.220   7.080
 3235POPC   NC344339  11.879  26.854   5.360
 3235POPC   PO444340  11.162  26.912   5.429
 3235POPC   GL144341  11.055  26.969   5.869
 3235POPC   GL244342  11.265  26.697   5.963
 3235POPC   C1A44343  11.099  26.958   6.354
 3235POPC   D2A44344  11.257  26.743   6.709
 3235POPC   C3A44345  11.173  27.026   7.024
 3235POPC   C4A44346  11.023  27.419   7.042
 3235POPC   C1B44347  11.154  26.417   6.325
 3235POPC   C2B44348  10.886  26.391   6.717
 3235POPC   C3B44349  11.085  26.496   7.128
 3235POPC   C4B44350  11.540  26.709   7.149
 3236POPC   NC344351  30.981  40.372   5.424
 3236POPC   PO444352  30.463  39.866   5.374
 3236POPC   GL144353  30.701  39.962   5.709
 3236POPC   GL244354  30.619  40.303   5.808
 3236POPC   C1A44355  30.722  39.781   6.109
 3236POPC   D2A44356  30.820  39.857   6.554
 3236POPC   C3A44357  30.658  39.781   6.992
 3236POPC   C4A44358  30.845  39.889   7.384
 3236POPC   C1B44359  30.520  40.487   6.222
 3236POPC   C2B44360  30.631  40.342   6.649
 3236POPC   C3B44361  30.677  40.313   7.109
 3236POPC   C4B44362  30.494  40.620   7.423
 3237POPC   NC344363  21.116  12.060   5.402
 3237POPC   PO444364  21.608  12.429   5.392
 3237POPC   GL144365  21.636  12.240   5.833
 3237POPC   GL244366  21.416  11.941   5.823
 3237POPC   C1A44367  21.441  12.201   6.272
 3237POPC   D2A44368  21.489  11.958   6.660
 3237POPC   C3A44369  21.445  12.195   7.049
 3237POPC   C4A44370  21.181  11.939   7.359
 3237POPC   C1B44371  21.023  12.012   6.066
 3237POPC   C2B44372  20.869  12.169   6.468
 3237POPC   C3B44373  20.957  12.121   6.906
 3237POPC   C4B44374  20.772  12.283   7.311
 3238POPC   NC344375  11.954  41.091   5.174
 3238POPC   PO444376  12.183  40.507   5.210
 3238POPC   GL144377  12.012  40.513   5.708
 3238POPC   GL244378  12.320  40.624   5.890
 3238POPC   C1A44379  11.935  40.631   6.208
 3238POPC   D2A44380  12.263  40.663   6.510
 3238POPC   C3A44381  12.092  40.759   6.889
 3238POPC   C4A44382  11.925  40.598   7.240
 3238POPC   C1B44383  12.392  41.015   6.181
 3238POPC   C2B44384  12.343  41.167   6.611
 3238POPC   C3B44385  12.197  41.240   7.020
 3238POPC   C4B44386  12.208  41.026   7.375
 3239POPC   NC344387  42.365  15.104   5.212
 3239POPC   PO444388  42.028  15.001   5.500
 3239POPC   GL144389  42.023  15.209   5.894
 3239POPC   GL244390  42.254  15.485   5.787
 3239POPC   C1A44391  42.063  15.088   6.360
 3239POPC   D2A44392  42.341  14.950   6.716
 3239POPC   C3A44393  42.210  14.976   7.171
 3239POPC   C4A44394  42.164  14.809   7.613
 3239POPC   C1B44395  42.316  15.514   6.247
 3239POPC   C2B44396  42.236  15.451   6.695
 3239POPC   C3B44397  42.309  15.491   7.134
 3239POPC   C4B44398  42.141  15.803   7.425
 3240POPC   NC344399  20.843  37.842   5.357
 3240POPC   PO444400  20.630  37.220   5.363
 3240POPC   GL144401  20.468  37.558   5.660
 3240POPC   GL244402  20.788  37.688   5.852
 3240POPC   C1A44403  20.374  37.586   6.127
 3240POPC   D2A44404  20.582  37.811   6.475
 3240POPC   C3A44405  20.396  37.787   6.867
 3240POPC   C4A44406  20.457  37.462   7.150
 3240POPC   C1B44407  20.762  38.111   6.092
 3240POPC   C2B44408  20.652  38.315   6.518
 3240POPC   C3B44409  20.737  38.177   6.943
 3240POPC   C4B44410  20.794  37.856   7.224
 3241POPC   NC344411  33.042  32.056   5.274
 3241POPC   PO444412  32.563  32.510   5.148
 3241POPC   GL144413  32.768  32.341   5.614
 3241POPC   GL244414  33.079  32.208   5.750
 3241POPC   C1A44415  32.693  32.298   6.102
 3241POPC   D2A44416  32.571  32.054   6.482
 3241POPC   C3A44417  32.719  32.218   6.902
 3241POPC   C4A44418  32.713  31.966   7.287
 3241POPC   C1B44419  33.297  32.290   6.128
 3241POPC   C2B44420  33.365  32.532   6.502
 3241POPC   C3B44421  33.384  32.370   6.896
 3241POPC   C4B44422  33.184  32.162   7.191
 3242POPC   NC344423   8.346  35.526   5.566
 3242POPC   PO444424   8.161  34.951   5.221
 3242POPC   GL144425   8.015  35.142   5.701
 3242POPC   GL244426   8.275  35.224   5.992
 3242POPC   C1A44427   7.838  35.022   6.125
 3242POPC   D2A44428   7.876  35.270   6.516
 3242POPC   C3A44429   8.028  35.105   6.912
 3242POPC   C4A44430   8.299  35.234   7.233
 3242POPC   C1B44431   8.180  35.613   6.205
 3242POPC   C2B44432   8.286  35.809   6.596
 3242POPC   C3B44433   8.191  35.677   6.995
 3242POPC   C4B44434   8.022  35.691   7.396
 3243POPC   NC344435  21.421   6.524   5.321
 3243POPC   PO444436  21.025   7.056   5.354
 3243POPC   GL144437  21.257   6.828   5.708
 3243POPC   GL244438  21.174   6.467   5.789
 3243POPC   C1A44439  21.568   6.855   6.048
 3243POPC   D2A44440  21.387   6.802   6.460
 3243POPC   C3A44441  21.441   6.733   6.901
 3243POPC   C4A44442  21.518   7.012   7.248
 3243POPC   C1B44443  21.466   6.364   6.154
 3243POPC   C2B44444  21.599   6.337   6.562
 3243POPC   C3B44445  21.466   6.164   6.912
 3243POPC   C4B44446  21.392   6.359   7.252
 3244POPC   NC344447  13.872  12.367   5.513
 3244POPC   PO444448  13.497  11.798   5.452
 3244POPC   GL144449  13.712  11.983   5.819
 3244POPC   GL244450  13.848  12.319   5.993
 3244POPC   C1A44451  13.604  11.966   6.250
 3244POPC   D2A44452  13.793  11.786   6.595
 3244POPC   C3A44453  13.595  11.974   6.945
 3244POPC   C4A44454  13.299  12.285   7.165
 3244POPC   C1B44455  13.814  12.533   6.352
 3244POPC   C2B44456  13.647  12.493   6.777
 3244POPC   C3B44457  13.814  12.359   7.177
 3244POPC   C4B44458  13.735  12.285   7.647
 3245POPC   NC344459   1.805  31.075   5.307
 3245POPC   PO444460   2.242  30.630   5.390
 3245POPC   GL144461   2.080  30.873   5.775
 3245POPC   GL244462   1.703  30.842   5.808
 3245POPC   C1A44463   1.980  30.904   6.242
 3245POPC   D2A44464   1.764  30.652   6.556
 3245POPC   C3A44465   1.931  30.799   6.946
 3245POPC   C4A44466   2.196  31.105   7.181
 3245POPC   C1B44467   1.904  30.445   6.025
 3245POPC   C2B44468   1.927  30.191   6.415
 3245POPC   C3B44469   1.922  30.257   6.857
 3245POPC   C4B44470   2.128  30.402   7.241
 3246POPC   NC344471  26.428  20.827   5.428
 3246POPC   PO444472  25.783  20.437   5.368
 3246POPC   GL144473  25.945  20.669   5.685
 3246POPC   GL244474  25.655  20.842   5.787
 3246POPC   C1A44475  26.210  20.593   6.052
 3246POPC   D2A44476  26.043  20.553   6.463
 3246POPC   C3A44477  26.300  20.633   6.789
 3246POPC   C4A44478  26.285  20.543   7.213
 3246POPC   C1B44479  25.611  20.626   6.162
 3246POPC   C2B44480  25.599  20.789   6.588
 3246POPC   C3B44481  25.766  20.749   6.981
 3246POPC   C4B44482  25.705  21.021   7.338
 3247POPC   NC344483  30.247  13.467   5.658
 3247POPC   PO444484  30.651  13.036   5.338
 3247POPC   GL144485  30.608  12.910   5.788
 3247POPC   GL244486  30.670  12.562   5.882
 3247POPC   C1A44487  30.611  13.045   6.237
 3247POPC   D2A44488  30.330  12.972   6.585
 3247POPC   C3A44489  30.354  13.105   7.008
 3247POPC   C4A44490  30.403  12.732   7.264
 3247POPC   C1B44491  30.885  12.591   6.302
 3247POPC   C2B44492  30.752  12.695   6.731
 3247POPC   C3B44493  30.840  12.945   7.090
 3247POPC   C4B44494  31.197  12.909   7.306
 3248POPC   NC344495  42.836  32.138   5.446
 3248POPC   PO444496  43.419  32.212   5.352
 3248POPC   GL144497  43.248  32.349   5.766
 3248POPC   GL244498  42.924  32.516   5.876
 3248POPC   C1A44499  43.253  32.137   6.158
 3248POPC   D2A44500  43.425  32.260   6.556
 3248POPC   C3A44501  43.207  32.393   6.939
 3248POPC   C4A44502  43.262  32.166   7.301
 3248POPC   C1B44503  43.009  32.531   6.342
 3248POPC   C2B44504  42.923  32.176   6.569
 3248POPC   C3B44505  42.804  32.057   6.936
 3248POPC   C4B44506  42.762  32.145   7.318
 3249POPC   NC344507  10.254  27.183   5.302
 3249POPC   PO444508   9.665  27.608   5.437
 3249POPC   GL144509   9.685  27.644   5.872
 3249POPC   GL244510   9.683  27.272   5.906
 3249POPC   C1A44511   9.777  27.665   6.317
 3249POPC   D2A44512   9.673  27.850   6.730
 3249POPC   C3A44513   9.822  27.636   7.104
 3249POPC   C4A44514  10.075  27.305   7.291
 3249POPC   C1B44515   9.288  27.447   6.088
 3249POPC   C2B44516   9.195  27.468   6.501
 3249POPC   C3B44517   9.237  27.388   6.931
 3249POPC   C4B44518   9.335  27.600   7.302
 3250POPC   NC344519  27.277  18.213   5.713
 3250POPC   PO444520  26.582  18.065   5.625
 3250POPC   GL144521  26.791  18.317   5.924
 3250POPC   GL244522  26.945  17.992   6.014
 3250POPC   C1A44523  27.017  18.357   6.333
 3250POPC   D2A44524  26.974  18.121   6.683
 3250POPC   C3A44525  26.823  18.406   6.961
 3250POPC   C4A44526  26.863  18.667   7.336
 3250POPC   C1B44527  26.668  17.767   6.268
 3250POPC   C2B44528  26.543  17.795   6.687
 3250POPC   C3B44529  26.704  17.931   7.085
 3250POPC   C4B44530  26.870  18.171   7.454
 3251POPC   NC344531   3.446  34.074   5.715
 3251POPC   PO444532   3.674  33.521   5.370
 3251POPC   GL144533   3.395  33.552   5.726
 3251POPC   GL244534   3.719  33.671   5.867
 3251POPC   C1A44535   3.396  33.507   6.222
 3251POPC   D2A44536   3.370  33.870   6.537
 3251POPC   C3A44537   3.567  34.029   6.943
 3251POPC   C4A44538   3.664  33.921   7.362
 3251POPC   C1B44539   3.907  33.604   6.251
 3251POPC   C2B44540   3.770  33.512   6.655
 3251POPC   C3B44541   3.955  33.643   7.025
 3251POPC   C4B44542   4.189  33.826   7.339
 3252POPC   NC344543  21.619  38.411   5.498
 3252POPC   PO444544  22.177  38.287   5.101
 3252POPC   GL144545  22.154  38.330   5.598
 3252POPC   GL244546  22.044  38.677   5.693
 3252POPC   C1A44547  22.073  38.307   6.091
 3252POPC   D2A44548  22.107  38.512   6.570
 3252POPC   C3A44549  22.017  38.340   7.020
 3252POPC   C4A44550  22.206  38.226   7.445
 3252POPC   C1B44551  22.107  38.823   6.147
 3252POPC   C2B44552  22.265  39.037   6.536
 3252POPC   C3B44553  22.200  38.893   6.950
 3252POPC   C4B44554  22.140  38.719   7.355
 3253POPC   NC344555   3.654  11.619   5.444
 3253POPC   PO444556   3.262  11.133   5.678
 3253POPC   GL144557   3.480  11.390   5.925
 3253POPC   GL244558   3.805  11.393   5.875
 3253POPC   C1A44559   3.505  11.268   6.332
 3253POPC   D2A44560   3.163  11.332   6.588
 3253POPC   C3A44561   3.294  11.282   7.002
 3253POPC   C4A44562   3.418  11.505   7.311
 3253POPC   C1B44563   3.963  11.583   6.223
 3253POPC   C2B44564   3.869  11.472   6.626
 3253POPC   C3B44565   3.840  11.448   7.046
 3253POPC   C4B44566   3.909  11.350   7.459
 3254POPC   NC344567  29.605   2.143   5.573
 3254POPC   PO444568  30.103   2.007   5.313
 3254POPC   GL144569  30.134   2.007   5.746
 3254POPC   GL244570  30.407   2.226   5.853
 3254POPC   C1A44571  30.184   1.849   6.177
 3254POPC   D2A44572  30.307   1.880   6.631
 3254POPC   C3A44573  30.000   1.811   6.978
 3254POPC   C4A44574  29.990   1.852   7.444
 3254POPC   C1B44575  30.317   2.325   6.324
 3254POPC   C2B44576  30.052   2.315   6.721
 3254POPC   C3B44577  29.986   2.282   7.160
 3254POPC   C4B44578  29.754   2.444   7.525
 3255POPC   NC344579  33.450  42.586   5.628
 3255POPC   PO444580  34.045  42.300   5.304
 3255POPC   GL144581  33.884  42.229   5.718
 3255POPC   GL244582  33.532  42.103   5.797
 3255POPC   C1A44583  33.889  42.330   6.149
 3255POPC   D2A44584  33.719  42.517   6.523
 3255POPC   C3A44585  34.016  42.565   6.831
 3255POPC   C4A44586  33.861  42.499   7.213
 3255POPC   C1B44587  33.396  42.232   6.231
 3255POPC   C2B44588  33.410  42.107   6.659
 3255POPC   C3B44589  33.397  42.244   7.083
 3255POPC   C4B44590  33.484  42.268   7.525
 3256POPC   NC344591   3.861  28.757   5.433
 3256POPC   PO444592   4.113  28.236   5.159
 3256POPC   GL144593   3.819  28.343   5.662
 3256POPC   GL244594   3.924  28.575   5.921
 3256POPC   C1A44595   3.516  28.322   6.050
 3256POPC   D2A44596   3.372  28.283   6.488
 3256POPC   C3A44597   3.658  28.314   6.839
 3256POPC   C4A44598   3.508  28.202   7.248
 3256POPC   C1B44599   3.860  28.496   6.374
 3256POPC   C2B44600   4.091  28.621   6.706
 3256POPC   C3B44601   4.058  28.542   7.126
 3256POPC   C4B44602   3.865  28.469   7.502
 3257POPC   NC344603  16.109  15.874   5.136
 3257POPC   PO444604  15.511  15.647   5.463
 3257POPC   GL144605  15.714  15.866   5.805
 3257POPC   GL244606  16.061  15.942   5.714
 3257POPC   C1A44607  15.729  15.694   6.222
 3257POPC   D2A44608  15.595  15.843   6.644
 3257POPC   C3A44609  15.785  15.692   7.017
 3257POPC   C4A44610  15.925  16.084   7.183
 3257POPC   C1B44611  16.158  15.959   6.180
 3257POPC   C2B44612  16.120  15.711   6.591
 3257POPC   C3B44613  16.358  15.762   6.975
 3257POPC   C4B44614  16.425  16.153   7.233
 3258POPC   NC344615  10.715  23.327   5.461
 3258POPC   PO444616  10.529  22.719   5.240
 3258POPC   GL144617  10.327  22.929   5.639
 3258POPC   GL244618  10.109  23.231   5.736
 3258POPC   C1A44619  10.502  23.012   6.063
 3258POPC   D2A44620  10.760  22.848   6.406
 3258POPC   C3A44621  10.636  22.783   6.833
 3258POPC   C4A44622  10.849  22.678   7.230
 3258POPC   C1B44623  10.166  23.374   6.189
 3258POPC   C2B44624  10.526  23.345   6.491
 3258POPC   C3B44625  10.736  23.305   6.893
 3258POPC   C4B44626  10.580  23.105   7.276
 3259POPC   NC344627  41.222   9.046   5.683
 3259POPC   PO444628  40.801   8.710   5.299
 3259POPC   GL144629  40.691   8.894   5.776
 3259POPC   GL244630  40.668   9.242   5.790
 3259POPC   C1A44631  40.634   8.979   6.306
 3259POPC   D2A44632  40.923   9.071   6.684
 3259POPC   C3A44633  40.975   9.007   7.152
 3259POPC   C4A44634  40.745   8.856   7.506
 3259POPC   C1B44635  40.820   9.431   6.206
 3259POPC   C2B44636  40.596   9.454   6.621
 3259POPC   C3B44637  40.650   9.400   7.076
 3259POPC   C4B44638  40.751   9.402   7.533
 3260POPC   NC344639   0.923   6.514   5.206
 3260POPC   PO444640   1.507   6.702   5.569
 3260POPC   GL144641   1.400   6.465   5.920
 3260POPC   GL244642   1.069   6.477   5.812
 3260POPC   C1A44643   1.165   6.384   6.331
 3260POPC   D2A44644   0.867   6.364   6.645
 3260POPC   C3A44645   0.994   6.410   7.068
 3260POPC   C4A44646   1.337   6.459   7.369
 3260POPC   C1B44647   1.112   6.844   6.137
 3260POPC   C2B44648   1.034   6.840   6.563
 3260POPC   C3B44649   1.225   6.868   6.949
 3260POPC   C4B44650   1.018   6.865   7.306
 3261POPC   NC344651  14.806  16.949   5.467
 3261POPC   PO444652  15.360  16.532   5.599
 3261POPC   GL144653  14.986  16.604   5.830
 3261POPC   GL244654  14.764  16.274   5.790
 3261POPC   C1A44655  15.056  16.839   6.245
 3261POPC   D2A44656  15.365  16.850   6.626
 3261POPC   C3A44657  15.178  16.777   7.045
 3261POPC   C4A44658  14.773  16.993   7.136
 3261POPC   C1B44659  14.920  16.330   6.238
 3261POPC   C2B44660  14.885  16.542   6.637
 3261POPC   C3B44661  14.904  16.359   7.027
 3261POPC   C4B44662  15.073  16.313   7.450
 3262POPC   NC344663  32.932  12.829   5.404
 3262POPC   PO444664  33.548  12.986   5.729
 3262POPC   GL144665  33.101  13.114   5.802
 3262POPC   GL244666  32.895  12.807   5.907
 3262POPC   C1A44667  32.940  13.228   6.212
 3262POPC   D2A44668  33.117  13.073   6.606
 3262POPC   C3A44669  32.958  13.010   7.023
 3262POPC   C4A44670  33.245  13.013   7.378
 3262POPC   C1B44671  32.850  12.737   6.349
 3262POPC   C2B44672  33.127  12.549   6.677
 3262POPC   C3B44673  33.177  12.546   7.118
 3262POPC   C4B44674  32.856  12.644   7.389
 3263POPC   NC344675  23.217  37.855   5.501
 3263POPC   PO444676  22.733  37.469   5.249
 3263POPC   GL144677  22.810  37.582   5.698
 3263POPC   GL244678  23.132  37.409   5.750
 3263POPC   C1A44679  22.958  37.797   6.111
 3263POPC   D2A44680  22.833  37.679   6.515
 3263POPC   C3A44681  22.978  37.831   6.897
 3263POPC   C4A44682  22.807  37.572   7.212
 3263POPC   C1B44683  23.005  37.300   6.157
 3263POPC   C2B44684  23.239  37.222   6.496
 3263POPC   C3B44685  23.126  37.349   6.871
 3263POPC   C4B44686  23.324  37.300   7.251
 3264POPC   NC344687   4.785  27.260   5.477
 3264POPC   PO444688   5.467  27.044   5.372
 3264POPC   GL144689   5.327  26.856   5.769
 3264POPC   GL244690   4.952  26.762   5.800
 3264POPC   C1A44691   5.292  26.730   6.208
 3264POPC   D2A44692   4.935  26.769   6.473
 3264POPC   C3A44693   5.065  26.918   6.867
 3264POPC   C4A44694   5.167  26.848   7.296
 3264POPC   C1B44695   4.960  27.127   6.098
 3264POPC   C2B44696   4.821  27.274   6.503
 3264POPC   C3B44697   4.953  27.444   6.897
 3264POPC   C4B44698   4.816  27.224   7.233
 3265POPC   NC344699  43.731  42.093   5.673
 3265POPC   PO444700  43.578  42.728   5.543
 3265POPC   GL144701  43.782  42.595   5.906
 3265POPC   GL244702  44.101  42.408   5.888
 3265POPC   C1A44703  43.941  42.643   6.310
 3265POPC   D2A44704  43.804  42.549   6.703
 3265POPC   C3A44705  44.018  42.414   7.039
 3265POPC   C4A44706  43.867  42.146   7.311
 3265POPC   C1B44707  44.176  42.162   6.297
 3265POPC   C2B44708  44.447  41.997   6.634
 3265POPC   C3B44709  44.372  42.010   7.082
 3265POPC   C4B44710  44.329  42.238   7.489
 3266POPC   NC344711  21.656  13.695   5.338
 3266POPC   PO444712  21.029  13.248   5.342
 3266POPC   GL144713  21.293  13.442   5.642
 3266POPC   GL244714  21.588  13.247   5.585
 3266POPC   C1A44715  21.375  13.683   6.047
 3266POPC   D2A44716  21.263  13.614   6.501
 3266POPC   C3A44717  21.377  13.850   6.909
 3266POPC   C4A44718  21.238  13.757   7.336
 3266POPC   C1B44719  21.605  13.215   6.063
 3266POPC   C2B44720  21.716  13.351   6.504
 3266POPC   C3B44721  21.482  13.341   6.894
 3266POPC   C4B44722  21.558  13.341   7.320
 3267POPC   NC344723  25.579  21.060   5.335
 3267POPC   PO444724  25.214  21.597   5.136
 3267POPC   GL144725  25.319  21.570   5.600
 3267POPC   GL244726  25.038  21.544   5.854
 3267POPC   C1A44727  25.545  21.456   5.995
 3267POPC   D2A44728  25.637  21.319   6.433
 3267POPC   C3A44729  25.597  21.252   6.890
 3267POPC   C4A44730  25.583  21.512   7.308
 3267POPC   C1B44731  25.121  21.515   6.291
 3267POPC   C2B44732  24.893  21.577   6.658
 3267POPC   C3B44733  24.944  21.455   7.052
 3267POPC   C4B44734  25.205  21.157   7.184
 3268POPC   NC344735  23.037  32.895   5.507
 3268POPC   PO444736  22.563  33.291   5.395
 3268POPC   GL144737  22.801  33.383   5.816
 3268POPC   GL244738  23.160  33.273   5.860
 3268POPC   C1A44739  22.839  33.320   6.284
 3268POPC   D2A44740  22.849  33.006   6.622
 3268POPC   C3A44741  22.920  33.110   7.050
 3268POPC   C4A44742  22.688  32.849   7.327
 3268POPC   C1B44743  23.206  32.973   6.220
 3268POPC   C2B44744  23.348  32.862   6.649
 3268POPC   C3B44745  23.154  32.658   7.014
 3268POPC   C4B44746  23.166  32.799   7.449
 3269POPC   NC344747  42.981  44.751   5.544
 3269POPC   PO444748  43.356  44.288   5.344
 3269POPC   GL144749  43.229  44.300   5.767
 3269POPC   GL244750  42.929  44.264   5.831
 3269POPC   C1A44751  43.240  44.608   6.168
 3269POPC   D2A44752  43.165  44.946   6.497
 3269POPC   C3A44753  43.047  44.852   6.919
 3269POPC   C4A44754  43.104  44.973   7.330
 3269POPC   C1B44755  42.786  44.419   6.197
 3269POPC   C2B44756  42.988  44.460   6.581
 3269POPC   C3B44757  43.162  44.352   6.933
 3269POPC   C4B44758  43.125  44.469   7.336
 3270POPC   NC344759  23.804  35.097   5.353
 3270POPC   PO444760  23.507  35.752   5.376
 3270POPC   GL144761  23.657  35.725   5.780
 3270POPC   GL244762  23.705  35.359   5.780
 3270POPC   C1A44763  23.683  35.610   6.211
 3270POPC   D2A44764  23.615  35.369   6.583
 3270POPC   C3A44765  23.775  35.420   6.994
 3270POPC   C4A44766  23.537  35.559   7.343
 3270POPC   C1B44767  23.874  35.130   6.138
 3270POPC   C2B44768  23.748  34.893   6.526
 3270POPC   C3B44769  23.553  34.915   6.936
 3270POPC   C4B44770  23.711  34.998   7.336
 3271POPC   NC344771  17.710  43.262   5.231
 3271POPC   PO444772  17.219  42.860   5.420
 3271POPC   GL144773  17.545  43.039   5.699
 3271POPC   GL244774  17.697  43.375   5.744
 3271POPC   C1A44775  17.691  43.043   6.141
 3271POPC   D2A44776  17.443  43.036   6.513
 3271POPC   C3A44777  17.678  43.093   6.884
 3271POPC   C4A44778  17.491  42.933   7.278
 3271POPC   C1B44779  17.744  43.569   6.165
 3271POPC   C2B44780  17.584  43.520   6.583
 3271POPC   C3B44781  17.319  43.447   6.963
 3271POPC   C4B44782  17.604  43.426   7.299
 3272POPC   NC344783   6.914  27.152   5.335
 3272POPC   PO444784   6.782  27.807   5.147
 3272POPC   GL144785   6.821  27.638   5.574
 3272POPC   GL244786   6.694  27.916   5.812
 3272POPC   C1A44787   6.993  27.552   5.998
 3272POPC   D2A44788   6.773  27.726   6.350
 3272POPC   C3A44789   6.810  27.644   6.806
 3272POPC   C4A44790   6.758  27.390   7.175
 3272POPC   C1B44791   6.347  27.902   6.109
 3272POPC   C2B44792   6.281  27.666   6.484
 3272POPC   C3B44793   6.311  27.754   6.903
 3272POPC   C4B44794   6.564  27.850   7.270
 3273POPC   NC344795   3.337  16.081   5.431
 3273POPC   PO444796   2.673  16.145   5.394
 3273POPC   GL144797   2.951  16.192   5.758
 3273POPC   GL244798   2.715  15.980   5.906
 3273POPC   C1A44799   2.866  16.386   6.190
 3273POPC   D2A44800   2.602  16.087   6.418
 3273POPC   C3A44801   2.652  16.045   6.868
 3273POPC   C4A44802   2.855  16.240   7.214
 3273POPC   C1B44803   2.816  15.647   6.155
 3273POPC   C2B44804   2.871  15.661   6.565
 3273POPC   C3B44805   2.758  15.556   6.973
 3273POPC   C4B44806   3.027  15.579   7.335
 3274POPC   NC344807  18.182  24.375   5.100
 3274POPC   PO444808  18.483  23.978   5.462
 3274POPC   GL144809  18.351  23.806   5.809
 3274POPC   GL244810  17.999  23.863   5.763
 3274POPC   C1A44811  18.213  23.627   6.170
 3274POPC   D2A44812  18.145  23.752   6.566
 3274POPC   C3A44813  18.316  23.539   6.876
 3274POPC   C4A44814  18.214  23.427   7.277
 3274POPC   C1B44815  17.906  24.020   6.186
 3274POPC   C2B44816  18.054  24.251   6.561
 3274POPC   C3B44817  18.126  24.082   6.975
 3274POPC   C4B44818  17.820  24.046   7.287
 3275POPC   NC344819  15.064  35.531   5.391
 3275POPC   PO444820  15.241  34.887   5.280
 3275POPC   GL144821  15.342  35.140   5.680
 3275POPC   GL244822  15.057  35.320   5.856
 3275POPC   C1A44823  15.388  35.094   6.151
 3275POPC   D2A44824  15.185  35.293   6.524
 3275POPC   C3A44825  15.511  35.286   6.860
 3275POPC   C4A44826  15.474  34.989   7.208
 3275POPC   C1B44827  14.842  35.634   6.122
 3275POPC   C2B44828  14.714  35.567   6.548
 3275POPC   C3B44829  14.806  35.718   6.959
 3275POPC   C4B44830  15.089  35.419   7.098
 3276POPC   NC344831  13.330  35.307   5.419
 3276POPC   PO444832  13.937  35.525   5.475
 3276POPC   GL144833  13.771  35.326   5.819
 3276POPC   GL244834  13.428  35.234   5.913
 3276POPC   C1A44835  13.720  35.498   6.232
 3276POPC   D2A44836  13.633  35.750   6.579
 3276POPC   C3A44837  13.754  35.542   6.986
 3276POPC   C4A44838  13.393  35.415   7.168
 3276POPC   C1B44839  13.360  34.984   6.294
 3276POPC   C2B44840  13.217  34.930   6.745
 3276POPC   C3B44841  13.378  34.912   7.188
 3276POPC   C4B44842  13.326  35.088   7.638
 3277POPC   NC344843  25.209  36.539   5.698
 3277POPC   PO444844  25.373  36.122   5.255
 3277POPC   GL144845  25.366  36.051   5.772
 3277POPC   GL244846  25.064  35.866   5.942
 3277POPC   C1A44847  25.479  35.890   6.226
 3277POPC   D2A44848  25.414  36.144   6.613
 3277POPC   C3A44849  25.328  36.033   7.041
 3277POPC   C4A44850  25.614  36.145   7.388
 3277POPC   C1B44851  25.022  36.165   6.277
 3277POPC   C2B44852  24.895  36.180   6.711
 3277POPC   C3B44853  25.010  36.446   7.057
 3277POPC   C4B44854  25.156  36.325   7.483
 3278POPC   NC344855  31.362  11.305   5.346
 3278POPC   PO444856  30.702  11.199   5.212
 3278POPC   GL144857  30.986  11.419   5.668
 3278POPC   GL244858  31.302  11.277   5.841
 3278POPC   C1A44859  31.213  11.652   6.101
 3278POPC   D2A44860  31.431  11.378   6.435
 3278POPC   C3A44861  31.339  11.459   6.910
 3278POPC   C4A44862  31.461  11.574   7.351
 3278POPC   C1B44863  31.682  11.112   6.050
 3278POPC   C2B44864  31.795  10.984   6.477
 3278POPC   C3B44865  31.645  11.042   6.931
 3278POPC   C4B44866  31.443  11.046   7.361
 3279POPC   NC344867  24.050  21.505   5.613
 3279POPC   PO444868  23.850  22.210   5.435
 3279POPC   GL144869  23.803  22.250   5.864
 3279POPC   GL244870  23.851  21.908   5.885
 3279POPC   C1A44871  23.933  22.378   6.283
 3279POPC   D2A44872  24.009  22.620   6.662
 3279POPC   C3A44873  23.850  22.403   7.035
 3279POPC   C4A44874  23.502  22.526   7.324
 3279POPC   C1B44875  23.682  21.887   6.259
 3279POPC   C2B44876  23.857  21.904   6.643
 3279POPC   C3B44877  23.735  21.893   7.054
 3279POPC   C4B44878  23.948  21.834   7.431
 3280POPC   NC344879   1.618  16.794   5.420
 3280POPC   PO444880   0.996  16.768   5.374
 3280POPC   GL144881   1.226  16.836   5.774
 3280POPC   GL244882   1.536  16.686   5.908
 3280POPC   C1A44883   1.147  16.710   6.224
 3280POPC   D2A44884   1.337  16.697   6.568
 3280POPC   C3A44885   1.194  16.843   6.935
 3280POPC   C4A44886   0.957  16.658   7.238
 3280POPC   C1B44887   1.491  17.064   6.145
 3280POPC   C2B44888   1.549  17.167   6.538
 3280POPC   C3B44889   1.701  16.946   6.874
 3280POPC   C4B44890   1.550  16.821   7.278
 3281POPC   NC344891  38.837   4.946   5.451
 3281POPC   PO444892  38.212   4.816   5.386
 3281POPC   GL144893  38.467   4.858   5.782
 3281POPC   GL244894  38.551   5.239   5.802
 3281POPC   C1A44895  38.574   4.842   6.231
 3281POPC   D2A44896  38.339   4.839   6.642
 3281POPC   C3A44897  38.507   4.976   7.058
 3281POPC   C4A44898  38.748   5.324   7.272
 3281POPC   C1B44899  38.190   5.160   6.099
 3281POPC   C2B44900  37.992   5.222   6.499
 3281POPC   C3B44901  38.095   5.248   6.921
 3281POPC   C4B44902  38.235   5.305   7.368
 3282POPC   NC344903  19.586  44.444   5.526
 3282POPC   PO444904  18.961  44.584   5.426
 3282POPC   GL144905  18.854  44.485   5.818
 3282POPC   GL244906  19.141  44.243   5.895
 3282POPC   C1A44907  18.752  44.647   6.193
 3282POPC   D2A44908  18.978  44.512   6.545
 3282POPC   C3A44909  18.831  44.438   6.921
 3282POPC   C4A44910  19.000  44.551   7.324
 3282POPC   C1B44911  19.280  44.636   6.124
 3282POPC   C2B44912  19.357  44.871   6.518
 3282POPC   C3B44913  19.489  44.765   6.929
 3282POPC   C4B44914  19.422  44.939   7.333
 3283POPC   NC344915   9.049   9.281   5.463
 3283POPC   PO444916   8.824   9.937   5.239
 3283POPC   GL144917   9.111   9.801   5.625
 3283POPC   GL244918   8.987   9.540   5.886
 3283POPC   C1A44919   9.293   9.918   6.075
 3283POPC   D2A44920   9.412   9.810   6.555
 3283POPC   C3A44921   9.011   9.859   6.819
 3283POPC   C4A44922   8.871   9.994   7.237
 3283POPC   C1B44923   9.028   9.535   6.347
 3283POPC   C2B44924   9.142   9.380   6.771
 3283POPC   C3B44925   9.063   9.480   7.216
 3283POPC   C4B44926   8.740   9.575   7.549
 3284POPC   NC344927  33.269  41.086   5.361
 3284POPC   PO444928  32.681  40.818   5.225
 3284POPC   GL144929  32.827  40.925   5.635
 3284POPC   GL244930  32.894  41.260   5.655
 3284POPC   C1A44931  33.020  40.781   6.041
 3284POPC   D2A44932  33.185  40.577   6.438
 3284POPC   C3A44933  33.100  40.792   6.831
 3284POPC   C4A44934  33.108  40.640   7.238
 3284POPC   C1B44935  32.866  41.296   6.092
 3284POPC   C2B44936  32.765  41.023   6.457
 3284POPC   C3B44937  32.614  40.970   6.872
 3284POPC   C4B44938  32.803  41.028   7.277
 3285POPC   NC344939   9.267  14.187   5.431
 3285POPC   PO444940   8.709  14.530   5.417
 3285POPC   GL144941   8.973  14.435   5.767
 3285POPC   GL244942   8.823  14.115   5.801
 3285POPC   C1A44943   9.187  14.305   6.162
 3285POPC   D2A44944   9.004  14.228   6.577
 3285POPC   C3A44945   9.192  14.336   6.958
 3285POPC   C4A44946   9.134  14.144   7.342
 3285POPC   C1B44947   8.644  14.300   6.183
 3285POPC   C2B44948   8.483  14.222   6.612
 3285POPC   C3B44949   8.652  14.309   7.015
 3285POPC   C4B44950   8.879  14.582   7.280
 3286POPC   NC344951  24.185  37.680   5.325
 3286POPC   PO444952  23.627  38.039   5.459
 3286POPC   GL144953  23.658  37.634   5.722
 3286POPC   GL244954  23.902  37.328   5.624
 3286POPC   C1A44955  23.468  37.563   6.135
 3286POPC   D2A44956  23.328  37.764   6.493
 3286POPC   C3A44957  23.515  37.691   6.873
 3286POPC   C4A44958  23.406  37.880   7.237
 3286POPC   C1B44959  23.971  37.396   6.070
 3286POPC   C2B44960  23.890  37.605   6.462
 3286POPC   C3B44961  24.038  37.682   6.882
 3286POPC   C4B44962  23.843  37.576   7.281
 3287POPC   NC344963  28.747  13.949   5.438
 3287POPC   PO444964  29.143  13.337   5.418
 3287POPC   GL144965  29.237  13.377   5.847
 3287POPC   GL244966  29.086  13.698   5.848
 3287POPC   C1A44967  29.004  13.377   6.282
 3287POPC   D2A44968  28.890  13.322   6.734
 3287POPC   C3A44969  29.176  13.447   7.042
 3287POPC   C4A44970  29.192  13.387   7.491
 3287POPC   C1B44971  29.011  13.949   6.204
 3287POPC   C2B44972  29.089  13.823   6.626
 3287POPC   C3B44973  28.941  13.924   7.008
 3287POPC   C4B44974  29.227  13.856   7.331
 3288POPC   NC344975   9.247  43.789   5.439
 3288POPC   PO444976   8.724  44.215   5.340
 3288POPC   GL144977   8.938  44.087   5.739
 3288POPC   GL244978   9.305  44.116   5.800
 3288POPC   C1A44979   8.964  44.149   6.220
 3288POPC   D2A44980   8.826  44.185   6.680
 3288POPC   C3A44981   8.885  43.810   6.956
 3288POPC   C4A44982   8.879  43.582   7.362
 3288POPC   C1B44983   9.455  43.914   6.159
 3288POPC   C2B44984   9.288  43.876   6.581
 3288POPC   C3B44985   9.373  43.684   6.977
 3288POPC   C4B44986   9.463  43.931   7.309
 3289POPC   NC344987  40.706  41.925   5.438
 3289POPC   PO444988  40.506  42.539   5.404
 3289POPC   GL144989  40.710  42.381   5.818
 3289POPC   GL244990  40.776  42.043   5.925
 3289POPC   C1A44991  40.580  42.408   6.264
 3289POPC   D2A44992  40.401  42.571   6.672
 3289POPC   C3A44993  40.761  42.670   6.951
 3289POPC   C4A44994  41.169  42.441   7.036
 3289POPC   C1B44995  40.742  41.900   6.334
 3289POPC   C2B44996  40.825  42.189   6.683
 3289POPC   C3B44997  40.733  42.186   7.094
 3289POPC   C4B44998  40.827  41.943   7.444
 3290POPC   NC344999  43.721  43.953   5.381
 3290POPC   PO445000  44.283  43.467   5.560
 3290POPC   GL145001  44.082  43.852   5.751
 3290POPC   GL245002  43.724  43.835   5.912
 3290POPC   C1A45003  44.082  44.042   6.159
 3290POPC   D2A45004  43.809  43.876   6.436
 3290POPC   C3A45005  43.951  43.678   6.803
 3290POPC   C4A45006  43.867  43.804   7.219
 3290POPC   C1B45007  43.523  44.178   6.145
 3290POPC   C2B45008  43.534  44.382   6.554
 3290POPC   C3B45009  43.582  44.061   6.862
 3290POPC   C4B45010  43.413  44.043   7.246
 3291POPC   NC345011  17.784  23.020   5.402
 3291POPC   PO445012  17.121  22.701   5.455
 3291POPC   GL145013  17.309  22.989   5.776
 3291POPC   GL245014  17.620  22.948   5.857
 3291POPC   C1A45015  17.308  23.125   6.224
 3291POPC   D2A45016  17.118  23.047   6.644
 3291POPC   C3A45017  17.368  23.089   7.043
 3291POPC   C4A45018  17.449  22.811   7.405
 3291POPC   C1B45019  17.700  22.786   6.243
 3291POPC   C2B45020  17.638  22.976   6.611
 3291POPC   C3B45021  17.810  22.786   6.956
 3291POPC   C4B45022  17.915  22.540   7.301
 3292POPC   NC345023  13.872  43.862   5.335
 3292POPC   PO445024  13.259  43.606   5.554
 3292POPC   GL145025  13.563  43.982   5.762
 3292POPC   GL245026  13.335  44.156   5.997
 3292POPC   C1A45027  13.797  44.186   6.158
 3292POPC   D2A45028  13.804  44.136   6.593
 3292POPC   C3A45029  13.847  43.689   6.695
 3292POPC   C4A45030  13.641  43.434   7.047
 3292POPC   C1B45031  13.509  43.760   6.232
 3292POPC   C2B45032  13.339  43.599   6.622
 3292POPC   C3B45033  13.449  43.910   6.905
 3292POPC   C4B45034  13.402  44.315   7.087
 3293POPC   NC345035  29.469   4.382   5.461
 3293POPC   PO445036  29.862   3.948   5.313
 3293POPC   GL145037  30.024   4.151   5.728
 3293POPC   GL245038  29.917   4.486   5.791
 3293POPC   C1A45039  30.207   4.238   6.175
 3293POPC   D2A45040  30.336   4.453   6.574
 3293POPC   C3A45041  30.199   4.368   7.020
 3293POPC   C4A45042  30.055   4.103   7.369
 3293POPC   C1B45043  29.775   4.531   6.239
 3293POPC   C2B45044  29.842   4.603   6.708
 3293POPC   C3B45045  29.727   4.477   7.147
 3293POPC   C4B45046  29.877   4.539   7.585
 3294POPC   NC345047  14.923  17.885   5.321
 3294POPC   PO445048  15.407  18.253   5.468
 3294POPC   GL145049  15.212  18.182   5.832
 3294POPC   GL245050  14.990  18.465   5.957
 3294POPC   C1A45051  15.330  18.219   6.274
 3294POPC   D2A45052  15.416  18.397   6.699
 3294POPC   C3A45053  15.411  18.118   7.077
 3294POPC   C4A45054  15.659  18.092   7.457
 3294POPC   C1B45055  14.846  18.084   6.158
 3294POPC   C2B45056  14.932  17.980   6.543
 3294POPC   C3B45057  14.960  18.238   6.880
 3294POPC   C4B45058  14.949  18.013   7.257
 3295POPC   NC345059  10.273  34.475   5.380
 3295POPC   PO445060  10.964  34.427   5.432
 3295POPC   GL145061  10.659  34.600   5.728
 3295POPC   GL245062  10.538  34.269   5.785
 3295POPC   C1A45063  10.598  34.825   6.140
 3295POPC   D2A45064  10.808  34.780   6.558
 3295POPC   C3A45065  10.584  34.789   6.957
 3295POPC   C4A45066  10.610  34.488   7.297
 3295POPC   C1B45067  10.327  34.381   6.161
 3295POPC   C2B45068  10.319  34.586   6.542
 3295POPC   C3B45069  10.288  34.380   6.924
 3295POPC   C4B45070  10.137  34.256   7.322
 3296POPC   NC345071  27.352  35.062   5.381
 3296POPC   PO445072  27.745  34.488   5.331
 3296POPC   GL145073  27.684  34.770   5.693
 3296POPC   GL245074  27.513  34.548   5.948
 3296POPC   C1A45075  27.695  35.008   6.089
 3296POPC   D2A45076  27.688  35.130   6.539
 3296POPC   C3A45077  27.384  34.970   6.868
 3296POPC   C4A45078  27.401  34.632   7.172
 3296POPC   C1B45079  27.718  34.581   6.370
 3296POPC   C2B45080  27.783  34.675   6.798
 3296POPC   C3B45081  27.871  34.417   7.125
 3296POPC   C4B45082  27.744  34.303   7.535
 3297POPC   NC345083  37.060  38.395   5.170
 3297POPC   PO445084  36.809  38.940   5.227
 3297POPC   GL145085  36.920  38.571   5.627
 3297POPC   GL245086  36.753  38.747   5.880
 3297POPC   C1A45087  36.894  38.329   6.093
 3297POPC   D2A45088  36.848  38.130   6.487
 3297POPC   C3A45089  37.083  38.220   6.868
 3297POPC   C4A45090  36.993  38.078   7.293
 3297POPC   C1B45091  37.049  38.786   6.262
 3297POPC   C2B45092  37.275  38.664   6.647
 3297POPC   C3B45093  37.070  38.695   7.052
 3297POPC   C4B45094  36.814  38.594   7.442
 3298POPC   NC345095  29.164  16.997   5.207
 3298POPC   PO445096  28.596  16.566   5.381
 3298POPC   GL145097  28.798  16.559   5.848
 3298POPC   GL245098  29.062  16.796   5.841
 3298POPC   C1A45099  28.979  16.451   6.271
 3298POPC   D2A45100  29.056  16.391   6.711
 3298POPC   C3A45101  28.939  16.725   6.958
 3298POPC   C4A45102  28.959  16.760   7.363
 3298POPC   C1B45103  29.424  16.652   6.113
 3298POPC   C2B45104  29.514  16.464   6.496
 3298POPC   C3B45105  29.496  16.488   6.912
 3298POPC   C4B45106  29.467  16.720   7.271
 3299POPC   NC345107  17.057  13.981   5.152
 3299POPC   PO445108  16.475  13.631   5.248
 3299POPC   GL145109  16.676  13.606   5.689
 3299POPC   GL245110  16.707  13.915   5.901
 3299POPC   C1A45111  16.839  13.481   6.134
 3299POPC   D2A45112  16.888  13.302   6.513
 3299POPC   C3A45113  16.763  13.519   6.831
 3299POPC   C4A45114  16.741  13.447   7.224
 3299POPC   C1B45115  16.579  13.877   6.346
 3299POPC   C2B45116  16.748  14.024   6.738
 3299POPC   C3B45117  16.931  13.913   7.149
 3299POPC   C4B45118  16.887  13.891   7.626
 3300POPC   NC345119  16.028  13.639   5.126
 3300POPC   PO445120  15.687  14.137   5.490
 3300POPC   GL145121  15.818  13.727   5.640
 3300POPC   GL245122  16.130  13.528   5.632
 3300POPC   C1A45123  15.830  13.641   6.075
 3300POPC   D2A45124  15.872  13.475   6.501
 3300POPC   C3A45125  15.773  13.675   6.912
 3300POPC   C4A45126  15.986  13.772   7.303
 3300POPC   C1B45127  16.325  13.487   6.061
 3300POPC   C2B45128  16.376  13.366   6.509
 3300POPC   C3B45129  16.268  13.545   6.910
 3300POPC   C4B45130  16.421  13.925   7.120
 3301POPC   NC345131  37.925  42.586   5.270
 3301POPC   PO445132  37.492  42.029   5.418
 3301POPC   GL145133  37.722  42.204   5.740
 3301POPC   GL245134  37.676  42.550   5.747
 3301POPC   C1A45135  37.711  42.072   6.169
 3301POPC   D2A45136  37.496  42.152   6.576
 3301POPC   C3A45137  37.678  42.021   6.979
 3301POPC   C4A45138  37.867  42.246   7.345
 3301POPC   C1B45139  37.579  42.556   6.169
 3301POPC   C2B45140  37.759  42.598   6.562
 3301POPC   C3B45141  37.650  42.524   6.954
 3301POPC   C4B45142  37.500  42.703   7.316
 3302POPC   NC345143  13.910   8.323   4.912
 3302POPC   PO445144  14.267   8.002   5.337
 3302POPC   GL145145  14.384   8.187   5.823
 3302POPC   GL245146  14.175   8.485   5.877
 3302POPC   C1A45147  14.201   8.198   6.293
 3302POPC   D2A45148  14.178   8.493   6.679
 3302POPC   C3A45149  14.241   8.333   7.088
 3302POPC   C4A45150  14.599   8.086   7.222
 3302POPC   C1B45151  14.479   8.610   6.233
 3302POPC   C2B45152  14.728   8.555   6.628
 3302POPC   C3B45153  14.708   8.584   7.097
 3302POPC   C4B45154  14.489   8.536   7.508
 3303POPC   NC345155  38.103   3.585   5.426
 3303POPC   PO445156  38.735   3.520   5.777
 3303POPC   GL145157  38.347   3.623   5.920
 3303POPC   GL245158  38.184   3.308   5.850
 3303POPC   C1A45159  38.440   3.761   6.343
 3303POPC   D2A45160  38.703   3.494   6.610
 3303POPC   C3A45161  38.803   3.633   7.024
 3303POPC   C4A45162  38.648   3.663   7.439
 3303POPC   C1B45163  38.031   3.424   6.277
 3303POPC   C2B45164  38.208   3.425   6.673
 3303POPC   C3B45165  38.300   3.537   7.075
 3303POPC   C4B45166  38.415   3.204   7.358
 3304POPC   NC345167   1.537  38.215   5.398
 3304POPC   PO445168   1.265  38.813   5.367
 3304POPC   GL145169   1.112  38.444   5.632
 3304POPC   GL245170   1.375  38.431   5.865
 3304POPC   C1A45171   0.923  38.437   6.074
 3304POPC   D2A45172   1.231  38.576   6.392
 3304POPC   C3A45173   1.179  38.504   6.839
 3304POPC   C4A45174   0.975  38.496   7.259
 3304POPC   C1B45175   1.607  38.266   6.230
 3304POPC   C2B45176   1.444  38.073   6.576
 3304POPC   C3B45177   1.556  38.156   6.947
 3304POPC   C4B45178   1.507  38.476   7.220
 3305POPC   NC345179  31.584  13.906   5.453
 3305POPC   PO445180  31.556  14.568   5.502
 3305POPC   GL145181  31.207  14.411   5.763
 3305POPC   GL245182  31.150  14.077   5.657
 3305POPC   C1A45183  31.082  14.512   6.192
 3305POPC   D2A45184  31.293  14.593   6.582
 3305POPC   C3A45185  31.112  14.382   6.907
 3305POPC   C4A45186  31.173  14.298   7.327
 3305POPC   C1B45187  31.426  14.102   6.087
 3305POPC   C2B45188  31.435  14.082   6.567
 3305POPC   C3B45189  31.581  14.186   7.004
 3305POPC   C4B45190  31.656  14.390   7.428
 3306POPC   NC345191   3.731  16.820   5.171
 3306POPC   PO445192   3.626  17.537   5.200
 3306POPC   GL145193   3.786  17.638   5.647
 3306POPC   GL245194   3.668  17.372   5.876
 3306POPC   C1A45195   3.644  17.856   6.060
 3306POPC   D2A45196   3.342  17.766   6.421
 3306POPC   C3A45197   3.518  17.723   6.818
 3306POPC   C4A45198   3.504  17.768   7.256
 3306POPC   C1B45199   3.836  17.279   6.284
 3306POPC   C2B45200   3.844  17.339   6.740
 3306POPC   C3B45201   3.841  17.371   7.151
 3306POPC   C4B45202   3.719  17.037   7.427
 3307POPC   NC345203  38.917  12.227   5.110
 3307POPC   PO445204  38.328  11.995   5.355
 3307POPC   GL145205  38.529  12.061   5.725
 3307POPC   GL245206  38.777  11.820   5.871
 3307POPC   C1A45207  38.499  12.226   6.122
 3307POPC   D2A45208  38.731  12.189   6.486
 3307POPC   C3A45209  38.555  12.021   6.850
 3307POPC   C4A45210  38.729  12.196   7.200
 3307POPC   C1B45211  38.416  11.686   6.149
 3307POPC   C2B45212  38.286  11.573   6.578
 3307POPC   C3B45213  38.211  11.670   7.020
 3307POPC   C4B45214  38.505  11.763   7.321
 3308POPC   NC345215  24.860  21.384   5.415
 3308POPC   PO445216  24.254  21.325   5.203
 3308POPC   GL145217  24.441  21.217   5.736
 3308POPC   GL245218  24.696  21.014   5.733
 3308POPC   C1A45219  24.424  21.463   6.177
 3308POPC   D2A45220  24.386  21.660   6.610
 3308POPC   C3A45221  24.428  21.487   7.016
 3308POPC   C4A45222  24.618  21.769   7.304
 3308POPC   C1B45223  24.801  21.137   6.149
 3308POPC   C2B45224  24.616  21.163   6.570
 3308POPC   C3B45225  24.714  21.001   6.982
 3308POPC   C4B45226  24.468  21.060   7.335
 3309POPC   NC345227  37.436   4.421   5.268
 3309POPC   PO445228  37.775   3.918   5.447
 3309POPC   GL145229  37.754   4.118   5.832
 3309POPC   GL245230  37.591   4.450   5.816
 3309POPC   C1A45231  38.040   4.033   6.160
 3309POPC   D2A45232  37.990   3.875   6.577
 3309POPC   C3A45233  37.740   4.148   6.792
 3309POPC   C4A45234  37.662   4.413   7.140
 3309POPC   C1B45235  37.653   4.372   6.292
 3309POPC   C2B45236  37.418   4.522   6.651
 3309POPC   C3B45237  37.341   4.795   7.016
 3309POPC   C4B45238  37.467   4.761   7.492
 3310POPC   NC345239  31.998  42.025   5.341
 3310POPC   PO445240  31.444  42.349   5.314
 3310POPC   GL145241  31.394  42.365   5.725
 3310POPC   GL245242  31.145  42.603   5.785
 3310POPC   C1A45243  31.684  42.242   6.029
 3310POPC   D2A45244  31.762  42.022   6.418
 3310POPC   C3A45245  31.485  42.097   6.780
 3310POPC   C4A45246  31.455  42.377   7.135
 3310POPC   C1B45247  31.207  42.386   6.212
 3310POPC   C2B45248  31.195  42.501   6.627
 3310POPC   C3B45249  31.020  42.605   7.014
 3310POPC   C4B45250  31.086  42.638   7.426
 3311POPC   NC345251  10.921  36.240   5.503
 3311POPC   PO445252  10.295  35.931   5.400
 3311POPC   GL145253  10.520  36.060   5.783
 3311POPC   GL245254  10.810  35.857   5.889
 3311POPC   C1A45255  10.511  36.085   6.241
 3311POPC   D2A45256  10.482  36.425   6.538
 3311POPC   C3A45257  10.464  36.201   6.953
 3311POPC   C4A45258  10.372  35.737   7.049
 3311POPC   C1B45259  10.946  35.744   6.352
 3311POPC   C2B45260  10.831  35.733   6.825
 3311POPC   C3B45261  10.817  35.877   7.292
 3311POPC   C4B45262  11.038  36.152   7.642
 3312POPC   NC345263   5.688   1.111   5.220
 3312POPC   PO445264   6.100   1.533   5.452
 3312POPC   GL145265   5.885   1.191   5.712
 3312POPC   GL245266   5.625   1.309   5.908
 3312POPC   C1A45267   5.862   0.942   6.130
 3312POPC   D2A45268   5.960   1.011   6.577
 3312POPC   C3A45269   5.692   1.012   6.960
 3312POPC   C4A45270   5.763   1.186   7.385
 3312POPC   C1B45271   5.444   1.182   6.298
 3312POPC   C2B45272   5.342   1.327   6.717
 3312POPC   C3B45273   5.507   1.517   7.080
 3312POPC   C4B45274   5.558   1.652   7.544
 3313POPC   NC345275   8.025  26.222   5.450
 3313POPC   PO445276   8.531  25.763   5.336
 3313POPC   GL145277   8.308  25.914   5.739
 3313POPC   GL245278   8.510  26.205   5.844
 3313POPC   C1A45279   8.085  26.155   6.129
 3313POPC   D2A45280   8.111  26.346   6.546
 3313POPC   C3A45281   7.963  26.117   6.913
 3313POPC   C4A45282   8.084  26.238   7.337
 3313POPC   C1B45283   8.525  25.860   6.188
 3313POPC   C2B45284   8.286  25.863   6.577
 3313POPC   C3B45285   8.410  25.864   7.010
 3313POPC   C4B45286   8.721  25.613   7.226
 3314POPC   NC345287  27.464  35.967   5.355
 3314POPC   PO445288  28.036  36.486   5.411
 3314POPC   GL145289  27.908  36.404   5.895
 3314POPC   GL245290  27.561  36.186   5.934
 3314POPC   C1A45291  27.823  36.413   6.305
 3314POPC   D2A45292  27.590  36.350   6.659
 3314POPC   C3A45293  27.806  36.502   7.012
 3314POPC   C4A45294  27.628  36.306   7.344
 3314POPC   C1B45295  27.567  35.938   6.308
 3314POPC   C2B45296  27.460  35.845   6.738
 3314POPC   C3B45297  27.483  35.823   7.180
 3314POPC   C4B45298  27.574  35.839   7.608
 3315POPC   NC345299  31.849  36.438   5.391
 3315POPC   PO445300  32.433  36.185   5.451
 3315POPC   GL145301  32.202  36.264   5.807
 3315POPC   GL245302  31.947  36.001   5.809
 3315POPC   C1A45303  32.393  36.454   6.186
 3315POPC   D2A45304  32.603  36.541   6.601
 3315POPC   C3A45305  32.332  36.437   6.947
 3315POPC   C4A45306  32.379  36.355   7.373
 3315POPC   C1B45307  32.123  35.897   6.212
 3315POPC   C2B45308  32.262  36.079   6.594
 3315POPC   C3B45309  32.637  36.002   6.889
 3315POPC   C4B45310  32.603  35.798   7.299
 3316POPC   NC345311  39.499   2.409   5.446
 3316POPC   PO445312  38.963   1.949   5.415
 3316POPC   GL145313  39.245   1.994   5.754
 3316POPC   GL245314  39.262   2.323   5.896
 3316POPC   C1A45315  39.265   1.869   6.181
 3316POPC   D2A45316  39.476   1.945   6.551
 3316POPC   C3A45317  39.339   1.879   6.931
 3316POPC   C4A45318  39.406   2.066   7.290
 3316POPC   C1B45319  39.318   2.401   6.336
 3316POPC   C2B45320  39.318   2.377   6.758
 3316POPC   C3B45321  39.026   2.316   7.053
 3316POPC   C4B45322  39.218   2.564   7.362
 3317POPC   NC345323  18.990  11.074   5.458
 3317POPC   PO445324  19.098  11.710   5.392
 3317POPC   GL145325  19.247  11.450   5.732
 3317POPC   GL245326  18.931  11.411   5.906
 3317POPC   C1A45327  19.347  11.311   6.165
 3317POPC   D2A45328  19.153  11.184   6.542
 3317POPC   C3A45329  19.297  11.246   6.957
 3317POPC   C4A45330  19.187  11.115   7.406
 3317POPC   C1B45331  18.840  11.560   6.301
 3317POPC   C2B45332  18.704  11.389   6.682
 3317POPC   C3B45333  18.785  11.276   7.111
 3317POPC   C4B45334  18.787  11.464   7.527
 3318POPC   NC345335  11.250  11.187   5.433
 3318POPC   PO445336  11.309  11.883   5.441
 3318POPC   GL145337  11.418  11.551   5.788
 3318POPC   GL245338  11.204  11.230   5.932
 3318POPC   C1A45339  11.578  11.389   6.207
 3318POPC   D2A45340  11.341  11.124   6.463
 3318POPC   C3A45341  11.458  11.041   6.846
 3318POPC   C4A45342  11.359  11.297   7.133
 3318POPC   C1B45343  10.874  11.101   6.231
 3318POPC   C2B45344  10.838  11.135   6.691
 3318POPC   C3B45345  10.982  10.924   7.071
 3318POPC   C4B45346  10.901  10.891   7.565
 3319POPC   NC345347  27.926  21.621   5.530
 3319POPC   PO445348  28.694  21.528   5.384
 3319POPC   GL145349  28.518  21.253   5.745
 3319POPC   GL245350  28.172  21.297   5.901
 3319POPC   C1A45351  28.601  21.277   6.202
 3319POPC   D2A45352  28.797  21.420   6.581
 3319POPC   C3A45353  28.487  21.555   6.903
 3319POPC   C4A45354  28.588  21.549   7.350
 3319POPC   C1B45355  27.982  21.300   6.324
 3319POPC   C2B45356  28.062  21.281   6.785
 3319POPC   C3B45357  28.221  21.207   7.223
 3319POPC   C4B45358  28.024  21.173   7.685
 3320POPC   NC345359  23.118  40.193   5.393
 3320POPC   PO445360  22.752  39.609   5.468
 3320POPC   GL145361  22.898  39.828   5.836
 3320POPC   GL245362  23.216  39.933   5.838
 3320POPC   C1A45363  22.799  39.842   6.267
 3320POPC   D2A45364  22.786  40.057   6.650
 3320POPC   C3A45365  22.635  39.857   6.991
 3320POPC   C4A45366  22.885  39.950   7.281
 3320POPC   C1B45367  23.384  39.910   6.243
 3320POPC   C2B45368  23.345  40.126   6.637
 3320POPC   C3B45369  23.318  40.014   7.067
 3320POPC   C4B45370  23.316  40.056   7.559
 3321POPC   NC345371  44.376   5.550   5.480
 3321POPC   PO445372  44.348   4.906   5.560
 3321POPC   GL145373  44.714   5.036   5.780
 3321POPC   GL245374  44.919   5.347   5.652
 3321POPC   C1A45375  44.706   4.948   6.219
 3321POPC   D2A45376  44.579   5.241   6.545
 3321POPC   C3A45377  44.527   5.034   6.945
 3321POPC   C4A45378  44.844   5.016   7.290
 3321POPC   C1B45379   0.026   5.378   6.092
 3321POPC   C2B45380   0.083   5.150   6.487
 3321POPC   C3B45381   0.018   5.302   6.891
 3321POPC   C4B45382   0.232   5.329   7.277
 3322POPC   NC345383   2.635  31.832   5.499
 3322POPC   PO445384   3.010  31.269   5.346
 3322POPC   GL145385   2.926  31.322   5.795
 3322POPC   GL245386   2.561  31.396   5.830
 3322POPC   C1A45387   2.808  31.155   6.228
 3322POPC   D2A45388   2.619  31.007   6.637
 3322POPC   C3A45389   2.830  31.159   7.010
 3322POPC   C4A45390   3.144  31.494   7.142
 3322POPC   C1B45391   2.548  31.667   6.237
 3322POPC   C2B45392   2.556  31.763   6.722
 3322POPC   C3B45393   2.598  31.590   7.180
 3322POPC   C4B45394   2.388  31.371   7.570
 3323POPC   NC345395   2.814  25.715   5.045
 3323POPC   PO445396   2.736  25.329   5.573
 3323POPC   GL145397   2.612  25.327   5.943
 3323POPC   GL245398   2.965  25.279   6.045
 3323POPC   C1A45399   2.551  25.283   6.356
 3323POPC   D2A45400   2.837  25.022   6.570
 3323POPC   C3A45401   2.859  25.204   6.965
 3323POPC   C4A45402   2.633  25.321   7.358
 3323POPC   C1B45403   3.269  25.564   6.224
 3323POPC   C2B45404   3.418  25.500   6.609
 3323POPC   C3B45405   3.285  25.463   6.993
 3323POPC   C4B45406   3.147  25.404   7.383
 3324POPC   NC345407   7.571  38.687   5.356
 3324POPC   PO445408   7.052  38.272   5.472
 3324POPC   GL145409   7.405  38.228   5.779
 3324POPC   GL245410   7.644  38.494   5.825
 3324POPC   C1A45411   7.613  38.123   6.196
 3324POPC   D2A45412   7.410  38.210   6.606
 3324POPC   C3A45413   7.553  38.389   6.987
 3324POPC   C4A45414   7.340  38.547   7.319
 3324POPC   C1B45415   7.444  38.605   6.231
 3324POPC   C2B45416   7.623  38.783   6.625
 3324POPC   C3B45417   7.541  38.923   7.063
 3324POPC   C4B45418   7.556  38.932   7.570
 3325POPC   NC345419   3.805  34.947   5.020
 3325POPC   PO445420   4.099  35.340   5.400
 3325POPC   GL145421   4.122  35.344   5.823
 3325POPC   GL245422   3.971  35.663   5.887
 3325POPC   C1A45423   4.269  35.080   6.156
 3325POPC   D2A45424   4.455  35.188   6.543
 3325POPC   C3A45425   4.222  35.154   6.918
 3325POPC   C4A45426   4.515  35.093   7.231
 3325POPC   C1B45427   4.103  35.537   6.323
 3325POPC   C2B45428   4.232  35.642   6.763
 3325POPC   C3B45429   4.481  35.652   7.135
 3325POPC   C4B45430   4.517  35.487   7.539
 3326POPC   NC345431  16.445  43.867   5.132
 3326POPC   PO445432  15.905  43.762   5.652
 3326POPC   GL145433  16.036  43.723   6.023
 3326POPC   GL245434  16.345  43.647   6.043
 3326POPC   C1A45435  16.076  43.803   6.444
 3326POPC   D2A45436  15.858  44.075   6.685
 3326POPC   C3A45437  15.663  43.939   7.060
 3326POPC   C4A45438  15.329  44.156   7.220
 3326POPC   C1B45439  16.428  44.104   6.238
 3326POPC   C2B45440  16.403  44.136   6.685
 3326POPC   C3B45441  16.212  43.804   6.951
 3326POPC   C4B45442  16.322  43.706   7.365
 3327POPC   NC345443  31.817   5.036   5.393
 3327POPC   PO445444  31.130   4.859   5.345
 3327POPC   GL145445  31.252   4.916   5.765
 3327POPC   GL245446  31.165   5.241   5.849
 3327POPC   C1A45447  31.211   4.830   6.211
 3327POPC   D2A45448  31.259   4.936   6.601
 3327POPC   C3A45449  31.626   5.132   6.715
 3327POPC   C4A45450  31.686   4.954   7.131
 3327POPC   C1B45451  31.345   5.327   6.271
 3327POPC   C2B45452  31.197   5.455   6.681
 3327POPC   C3B45453  31.257   5.235   7.038
 3327POPC   C4B45454  31.185   4.917   7.289
 3328POPC   NC345455  19.614  31.343   5.420
 3328POPC   PO445456  19.955  31.925   5.471
 3328POPC   GL145457  19.808  31.779   5.842
 3328POPC   GL245458  19.911  31.431   5.839
 3328POPC   C1A45459  19.675  31.637   6.242
 3328POPC   D2A45460  19.874  31.404   6.543
 3328POPC   C3A45461  20.042  31.116   6.832
 3328POPC   C4A45462  19.995  31.370   7.233
 3328POPC   C1B45463  19.696  31.131   6.126
 3328POPC   C2B45464  19.635  30.959   6.566
 3328POPC   C3B45465  19.571  31.188   6.947
 3328POPC   C4B45466  19.518  31.299   7.372
 3329POPC   NC345467  11.340  28.354   5.405
 3329POPC   PO445468  10.738  28.432   5.104
 3329POPC   GL145469  10.858  28.285   5.628
 3329POPC   GL245470  11.047  27.997   5.810
 3329POPC   C1A45471  11.112  28.421   6.096
 3329POPC   D2A45472  11.216  28.285   6.567
 3329POPC   C3A45473  11.269  28.436   7.026
 3329POPC   C4A45474  11.471  28.564   7.413
 3329POPC   C1B45475  11.318  27.889   6.206
 3329POPC   C2B45476  11.589  27.807   6.583
 3329POPC   C3B45477  11.566  28.024   6.989
 3329POPC   C4B45478  11.520  28.072   7.440
 3330POPC   NC345479  24.471  44.196   5.481
 3330POPC   PO445480  24.309  43.531   5.506
 3330POPC   GL145481  24.480  43.571   5.868
 3330POPC   GL245482  24.335  43.890   5.911
 3330POPC   C1A45483  24.440  43.519   6.296
 3330POPC   D2A45484  24.270  43.621   6.689
 3330POPC   C3A45485  24.490  43.799   7.044
 3330POPC   C4A45486  24.311  43.759   7.469
 3330POPC   C1B45487  24.322  44.036   6.338
 3330POPC   C2B45488  24.065  44.126   6.694
 3330POPC   C3B45489  24.207  44.240   7.099
 3330POPC   C4B45490  24.288  44.318   7.526
 3331POPC   NC345491   9.389  41.072   5.433
 3331POPC   PO445492   9.875  40.624   5.269
 3331POPC   GL145493   9.679  40.675   5.707
 3331POPC   GL245494  10.009  40.761   5.822
 3331POPC   C1A45495   9.580  40.961   6.119
 3331POPC   D2A45496   9.631  41.173   6.546
 3331POPC   C3A45497   9.727  40.913   6.920
 3331POPC   C4A45498   9.617  41.003   7.335
 3331POPC   C1B45499   9.911  40.550   6.167
 3331POPC   C2B45500  10.024  40.646   6.576
 3331POPC   C3B45501  10.003  40.400   6.949
 3331POPC   C4B45502   9.961  40.615   7.329
 3332POPC   NC345503  24.601   8.968   5.438
 3332POPC   PO445504  24.137   8.514   5.437
 3332POPC   GL145505  24.322   8.774   5.831
 3332POPC   GL245506  24.713   8.770   5.886
 3332POPC   C1A45507  24.392   9.020   6.235
 3332POPC   D2A45508  24.444   9.421   6.502
 3332POPC   C3A45509  24.546   9.325   6.914
 3332POPC   C4A45510  24.348   8.961   7.055
 3332POPC   C1B45511  24.673   8.535   6.247
 3332POPC   C2B45512  24.557   8.606   6.661
 3332POPC   C3B45513  24.716   8.635   7.061
 3332POPC   C4B45514  24.857   9.033   7.219
 3333POPC   NC345515  20.999   4.603   5.438
 3333POPC   PO445516  20.461   4.041   5.367
 3333POPC   GL145517  20.628   4.303   5.702
 3333POPC   GL245518  20.935   4.235   5.856
 3333POPC   C1A45519  20.554   4.631   6.012
 3333POPC   D2A45520  20.707   4.794   6.396
 3333POPC   C3A45521  20.759   4.533   6.739
 3333POPC   C4A45522  20.587   4.671   7.113
 3333POPC   C1B45523  20.706   4.251   6.281
 3333POPC   C2B45524  20.337   4.220   6.538
 3333POPC   C3B45525  20.351   4.214   6.978
 3333POPC   C4B45526  20.758   4.190   7.142
 3334POPC   NC345527  34.886  38.800   5.480
 3334POPC   PO445528  34.356  38.429   5.443
 3334POPC   GL145529  34.461  38.665   5.774
 3334POPC   GL245530  34.423  38.327   5.945
 3334POPC   C1A45531  34.574  38.725   6.200
 3334POPC   D2A45532  34.315  38.538   6.526
 3334POPC   C3A45533  34.440  38.478   6.947
 3334POPC   C4A45534  34.222  38.254   7.239
 3334POPC   C1B45535  34.517  38.072   6.289
 3334POPC   C2B45536  34.658  38.068   6.704
 3334POPC   C3B45537  34.586  37.952   7.091
 3334POPC   C4B45538  34.705  38.216   7.418
 3335POPC   NC345539  31.615  39.607   5.315
 3335POPC   PO445540  31.353  40.196   5.630
 3335POPC   GL145541  31.553  39.845   5.780
 3335POPC   GL245542  31.216  39.676   5.689
 3335POPC   C1A45543  31.728  39.940   6.205
 3335POPC   D2A45544  31.809  40.131   6.647
 3335POPC   C3A45545  31.605  40.033   7.069
 3335POPC   C4A45546  31.317  40.120   7.449
 3335POPC   C1B45547  31.243  39.703   6.153
 3335POPC   C2B45548  31.333  39.938   6.552
 3335POPC   C3B45549  31.151  39.865   6.956
 3335POPC   C4B45550  31.287  39.632   7.302
 3336POPC   NC345551   1.017  26.413   5.585
 3336POPC   PO445552   1.536  26.128   5.335
 3336POPC   GL145553   1.530  26.015   5.804
 3336POPC   GL245554   1.245  25.781   5.871
 3336POPC   C1A45555   1.471  26.042   6.300
 3336POPC   D2A45556   1.448  25.950   6.791
 3336POPC   C3A45557   1.266  26.169   7.149
 3336POPC   C4A45558   1.382  26.166   7.603
 3336POPC   C1B45559   1.004  25.846   6.252
 3336POPC   C2B45560   0.933  25.866   6.703
 3336POPC   C3B45561   1.037  25.694   7.096
 3336POPC   C4B45562   1.019  25.852   7.505
 3337POPC   NC345563  29.772  44.776   5.583
 3337POPC   PO445564  29.973  44.115   5.429
 3337POPC   GL145565  30.018  44.288   5.870
 3337POPC   GL245566  29.713  44.428   5.951
 3337POPC   C1A45567  30.043  44.407   6.354
 3337POPC   D2A45568  30.106  44.743   6.674
 3337POPC   C3A45569  29.933  44.726   7.076
 3337POPC   C4A45570  29.743  44.591   7.443
 3337POPC   C1B45571  29.529  44.451   6.358
 3337POPC   C2B45572  29.591  44.476   6.799
 3337POPC   C3B45573  29.312  44.575   7.152
 3337POPC   C4B45574  29.253  44.635   7.603
 3338POPC   NC345575   3.852   4.673   5.247
 3338POPC   PO445576   3.607   4.109   5.469
 3338POPC   GL145577   3.476   4.222   5.906
 3338POPC   GL245578   3.347   4.533   5.821
 3338POPC   C1A45579   3.388   4.146   6.364
 3338POPC   D2A45580   3.532   4.165   6.807
 3338POPC   C3A45581   3.305   3.980   7.152
 3338POPC   C4A45582   3.184   4.103   7.580
 3338POPC   C1B45583   3.168   4.616   6.246
 3338POPC   C2B45584   3.271   4.625   6.696
 3338POPC   C3B45585   3.556   4.619   7.083
 3338POPC   C4B45586   3.654   4.906   7.445
 3339POPC   NC345587  19.116  34.173   5.528
 3339POPC   PO445588  18.889  33.536   5.300
 3339POPC   GL145589  18.850  33.624   5.803
 3339POPC   GL245590  19.180  33.649   5.976
 3339POPC   C1A45591  18.758  33.661   6.291
 3339POPC   D2A45592  18.747  33.650   6.787
 3339POPC   C3A45593  19.154  33.814   6.968
 3339POPC   C4A45594  19.261  34.220   7.152
 3339POPC   C1B45595  19.306  33.360   6.342
 3339POPC   C2B45596  19.568  33.325   6.738
 3339POPC   C3B45597  19.481  33.443   7.167
 3339POPC   C4B45598  19.034  33.468   7.330
 3340POPC   NC345599  37.855  41.725   5.514
 3340POPC   PO445600  37.450  41.343   5.188
 3340POPC   GL145601  37.466  41.423   5.669
 3340POPC   GL245602  37.441  41.748   5.836
 3340POPC   C1A45603  37.727  41.409   6.112
 3340POPC   D2A45604  37.838  41.201   6.539
 3340POPC   C3A45605  37.899  41.432   6.952
 3340POPC   C4A45606  37.955  41.205   7.329
 3340POPC   C1B45607  37.350  41.731   6.270
 3340POPC   C2B45608  37.542  41.630   6.655
 3340POPC   C3B45609  37.443  41.594   7.108
 3340POPC   C4B45610  37.459  41.918   7.441
 3341POPC   NC345611  36.363  37.838   5.472
 3341POPC   PO445612  35.749  37.582   5.397
 3341POPC   GL145613  35.849  37.860   5.748
 3341POPC   GL245614  36.043  37.562   5.818
 3341POPC   C1A45615  36.093  37.927   6.146
 3341POPC   D2A45616  36.209  37.551   6.377
 3341POPC   C3A45617  36.275  37.675   6.807
 3341POPC   C4A45618  36.255  37.910   7.188
 3341POPC   C1B45619  35.934  37.162   6.065
 3341POPC   C2B45620  35.949  37.061   6.486
 3341POPC   C3B45621  35.949  37.303   6.840
 3341POPC   C4B45622  36.150  37.395   7.243
 3342POPC   NC345623  12.802  42.368   5.482
 3342POPC   PO445624  13.326  42.731   5.672
 3342POPC   GL145625  13.042  42.452   5.909
 3342POPC   GL245626  12.694  42.608   5.896
 3342POPC   C1A45627  12.960  42.340   6.326
 3342POPC   D2A45628  13.193  42.191   6.666
 3342POPC   C3A45629  13.105  42.523   6.964
 3342POPC   C4A45630  13.167  42.592   7.392
 3342POPC   C1B45631  12.539  42.233   6.057
 3342POPC   C2B45632  12.446  42.234   6.461
 3342POPC   C3B45633  12.430  42.148   6.888
 3342POPC   C4B45634  12.677  42.389   7.189
 3343POPC   NC345635  20.221   9.489   5.595
 3343POPC   PO445636  19.818   9.803   5.191
 3343POPC   GL145637  19.930   9.904   5.647
 3343POPC   GL245638  19.799   9.626   5.850
 3343POPC   C1A45639  20.027  10.013   6.108
 3343POPC   D2A45640  20.125   9.901   6.538
 3343POPC   C3A45641  19.896   9.978   6.907
 3343POPC   C4A45642  19.934   9.826   7.323
 3343POPC   C1B45643  19.664   9.569   6.279
 3343POPC   C2B45644  19.799   9.493   6.705
 3343POPC   C3B45645  19.562   9.620   7.067
 3343POPC   C4B45646  19.578   9.453   7.493
 3344POPC   NC345647   3.812  30.352   5.443
 3344POPC   PO445648   3.505  29.782   5.376
 3344POPC   GL145649   3.599  30.017   5.783
 3344POPC   GL245650   3.460  29.778   5.986
 3344POPC   C1A45651   3.752  30.066   6.269
 3344POPC   D2A45652   3.942  30.019   6.703
 3344POPC   C3A45653   3.754  29.785   7.044
 3344POPC   C4A45654   3.673  29.640   7.513
 3344POPC   C1B45655   3.248  30.136   6.169
 3344POPC   C2B45656   3.277  30.349   6.570
 3344POPC   C3B45657   3.223  30.217   6.996
 3344POPC   C4B45658   3.443  30.064   7.348
 3345POPC   NC345659  15.796  16.683   5.627
 3345POPC   PO445660  16.293  16.257   5.336
 3345POPC   GL145661  16.322  16.566   5.758
 3345POPC   GL245662  16.147  16.907   5.901
 3345POPC   C1A45663  16.275  16.508   6.246
 3345POPC   D2A45664  16.407  16.436   6.715
 3345POPC   C3A45665  16.097  16.562   7.059
 3345POPC   C4A45666  15.861  16.807   7.400
 3345POPC   C1B45667  15.938  17.018   6.299
 3345POPC   C2B45668  15.898  16.953   6.770
 3345POPC   C3B45669  16.084  17.183   7.138
 3345POPC   C4B45670  16.123  17.214   7.617
 3346POPC   NC345671   6.019  21.710   5.317
 3346POPC   PO445672   5.639  21.197   5.567
 3346POPC   GL145673   5.905  21.493   5.801
 3346POPC   GL245674   5.615  21.637   5.937
 3346POPC   C1A45675   6.105  21.555   6.220
 3346POPC   D2A45676   5.993  21.396   6.641
 3346POPC   C3A45677   6.020  21.579   7.043
 3346POPC   C4A45678   6.096  21.384   7.460
 3346POPC   C1B45679   5.627  21.337   6.279
 3346POPC   C2B45680   5.500  21.242   6.719
 3346POPC   C3B45681   5.493  21.462   7.101
 3346POPC   C4B45682   5.666  21.676   7.402
 3347POPC   NC345683  31.488  23.835   5.239
 3347POPC   PO445684  31.880  23.936   5.749
 3347POPC   GL145685  31.798  24.009   6.144
 3347POPC   GL245686  31.718  24.362   6.058
 3347POPC   C1A45687  31.451  23.828   6.397
 3347POPC   D2A45688  31.213  23.863   6.790
 3347POPC   C3A45689  31.245  23.477   7.063
 3347POPC   C4A45690  31.106  23.445   7.493
 3347POPC   C1B45691  31.542  24.324   6.457
 3347POPC   C2B45692  31.766  24.065   6.748
 3347POPC   C3B45693  31.650  23.815   7.083
 3347POPC   C4B45694  31.301  23.934   7.308
 3348POPC   NC345695  27.215   7.425   5.454
 3348POPC   PO445696  26.547   7.590   5.325
 3348POPC   GL145697  26.742   7.443   5.692
 3348POPC   GL245698  26.455   7.314   5.860
 3348POPC   C1A45699  26.924   7.313   6.083
 3348POPC   D2A45700  26.954   7.508   6.485
 3348POPC   C3A45701  26.856   7.259   6.842
 3348POPC   C4A45702  27.037   7.383   7.216
 3348POPC   C1B45703  26.593   7.700   6.129
 3348POPC   C2B45704  26.562   7.862   6.560
 3348POPC   C3B45705  26.646   7.702   6.969
 3348POPC   C4B45706  26.524   7.450   7.309
 3349POPC   NC345707  19.944  10.256   5.252
 3349POPC   PO445708  20.161  10.830   5.439
 3349POPC   GL145709  19.978  10.717   5.837
 3349POPC   GL245710  19.601  10.785   5.895
 3349POPC   C1A45711  19.945  10.606   6.280
 3349POPC   D2A45712  19.991  10.707   6.721
 3349POPC   C3A45713  20.073  10.430   7.065
 3349POPC   C4A45714  20.041  10.326   7.529
 3349POPC   C1B45715  19.466  10.828   6.329
 3349POPC   C2B45716  19.490  10.812   6.784
 3349POPC   C3B45717  19.550  10.775   7.245
 3349POPC   C4B45718  19.608  10.851   7.706
 3350POPC   NC345719  13.501  34.318   5.535
 3350POPC   PO445720  13.658  34.986   5.446
 3350POPC   GL145721  13.648  34.777   5.833
 3350POPC   GL245722  13.313  34.663   5.902
 3350POPC   C1A45723  13.712  34.573   6.231
 3350POPC   D2A45724  13.584  34.581   6.661
 3350POPC   C3A45725  13.874  34.431   6.956
 3350POPC   C4A45726  13.933  34.268   7.335
 3350POPC   C1B45727  13.153  34.499   6.323
 3350POPC   C2B45728  13.123  34.369   6.767
 3350POPC   C3B45729  13.376  34.402   7.149
 3350POPC   C4B45730  13.259  34.565   7.549
 3351POPC   NC345731  32.154  32.502   5.388
 3351POPC   PO445732  32.544  31.904   5.380
 3351POPC   GL145733  32.339  32.145   5.759
 3351POPC   GL245734  32.359  32.557   5.832
 3351POPC   C1A45735  32.181  32.233   6.188
 3351POPC   D2A45736  31.954  32.106   6.525
 3351POPC   C3A45737  32.208  32.175   6.864
 3351POPC   C4A45738  32.333  32.288   7.260
 3351POPC   C1B45739  32.019  32.730   6.087
 3351POPC   C2B45740  31.905  32.615   6.481
 3351POPC   C3B45741  31.960  32.621   6.927
 3351POPC   C4B45742  31.894  32.516   7.347
 3352POPC   NC345743  44.876  37.538   5.401
 3352POPC   PO445744  44.695  36.943   5.387
 3352POPC   GL145745  44.854  37.100   5.847
 3352POPC   GL245746  44.859  37.462   5.951
 3352POPC   C1A45747  44.889  36.941   6.315
 3352POPC   D2A45748  44.721  36.949   6.766
 3352POPC   C3A45749   0.003  36.962   7.131
 3352POPC   C4A45750   0.097  36.793   7.556
 3352POPC   C1B45751  44.722  37.405   6.406
 3352POPC   C2B45752  44.345  37.291   6.667
 3352POPC   C3B45753  44.341  37.116   7.109
 3352POPC   C4B45754  44.611  36.975   7.453
 3353POPC   NC345755  33.604  35.650   5.346
 3353POPC   PO445756  33.895  35.096   5.131
 3353POPC   GL145757  33.721  35.194   5.559
 3353POPC   GL245758  33.674  34.953   5.811
 3353POPC   C1A45759  33.686  35.460   5.969
 3353POPC   D2A45760  33.909  35.604   6.390
 3353POPC   C3A45761  33.835  35.484   6.818
 3353POPC   C4A45762  33.562  35.475   7.188
 3353POPC   C1B45763  33.824  35.065   6.256
 3353POPC   C2B45764  34.034  35.029   6.661
 3353POPC   C3B45765  33.778  35.017   7.042
 3353POPC   C4B45766  33.758  35.010   7.485
 3354POPC   NC345767  31.144  14.804   5.462
 3354POPC   PO445768  31.292  15.448   5.449
 3354POPC   GL145769  31.325  15.298   5.828
 3354POPC   GL245770  31.500  14.999   5.804
 3354POPC   C1A45771  31.259  15.463   6.218
 3354POPC   D2A45772  31.526  15.442   6.573
 3354POPC   C3A45773  31.410  15.329   6.986
 3354POPC   C4A45774  31.527  15.202   7.413
 3354POPC   C1B45775  31.354  14.965   6.224
 3354POPC   C2B45776  31.131  15.111   6.591
 3354POPC   C3B45777  31.126  14.898   6.968
 3354POPC   C4B45778  31.536  14.755   7.101
 3355POPC   NC345779  36.173   3.273   5.341
 3355POPC   PO445780  36.053   3.944   5.217
 3355POPC   GL145781  36.174   3.842   5.763
 3355POPC   GL245782  36.341   3.488   5.779
 3355POPC   C1A45783  35.973   3.733   6.181
 3355POPC   D2A45784  36.056   3.414   6.515
 3355POPC   C3A45785  35.881   3.525   6.919
 3355POPC   C4A45786  36.019   3.476   7.330
 3355POPC   C1B45787  36.480   3.643   6.188
 3355POPC   C2B45788  36.333   3.843   6.581
 3355POPC   C3B45789  36.359   3.661   7.004
 3355POPC   C4B45790  36.401   3.824   7.426
 3356POPC   NC345791  29.347   6.054   5.440
 3356POPC   PO445792  28.667   5.845   5.411
 3356POPC   GL145793  28.935   6.022   5.777
 3356POPC   GL245794  29.170   6.316   5.850
 3356POPC   C1A45795  28.851   5.893   6.207
 3356POPC   D2A45796  28.940   5.715   6.590
 3356POPC   C3A45797  28.919   5.970   6.928
 3356POPC   C4A45798  28.924   5.843   7.323
 3356POPC   C1B45799  29.362   6.007   6.130
 3356POPC   C2B45800  29.354   6.018   6.578
 3356POPC   C3B45801  29.406   5.841   6.986
 3356POPC   C4B45802  29.320   6.164   7.273
 3357POPC   NC345803  16.357   0.928   5.443
 3357POPC   PO445804  16.697   1.503   5.458
 3357POPC   GL145805  16.815   1.306   5.783
 3357POPC   GL245806  17.100   1.535   5.803
 3357POPC   C1A45807  16.577   1.177   6.130
 3357POPC   D2A45808  16.447   0.942   6.487
 3357POPC   C3A45809  16.497   1.130   6.905
 3357POPC   C4A45810  16.606   0.847   7.225
 3357POPC   C1B45811  16.947   1.541   6.211
 3357POPC   C2B45812  16.815   1.336   6.565
 3357POPC   C3B45813  16.879   1.468   6.983
 3357POPC   C4B45814  17.127   1.599   7.310
 3358POPC   NC345815  22.673  42.390   5.088
 3358POPC   PO445816  23.279  42.412   5.490
 3358POPC   GL145817  22.988  42.280   5.776
 3358POPC   GL245818  22.753  42.552   5.705
 3358POPC   C1A45819  23.086  42.161   6.211
 3358POPC   D2A45820  22.946  42.027   6.608
 3358POPC   C3A45821  23.077  42.235   6.974
 3358POPC   C4A45822  22.897  42.005   7.286
 3358POPC   C1B45823  22.653  42.445   6.155
 3358POPC   C2B45824  22.818  42.524   6.567
 3358POPC   C3B45825  22.653  42.578   6.984
 3358POPC   C4B45826  22.844  42.538   7.372
 3359POPC   NC345827  31.070  29.584   5.526
 3359POPC   PO445828  30.839  28.993   5.305
 3359POPC   GL145829  30.771  28.940   5.770
 3359POPC   GL245830  30.773  29.283   5.874
 3359POPC   C1A45831  30.992  28.890   6.192
 3359POPC   D2A45832  31.003  29.045   6.627
 3359POPC   C3A45833  30.725  28.951   7.002
 3359POPC   C4A45834  30.753  29.260   7.324
 3359POPC   C1B45835  30.579  29.145   6.281
 3359POPC   C2B45836  30.504  29.301   6.705
 3359POPC   C3B45837  30.299  29.317   7.130
 3359POPC   C4B45838  30.164  29.402   7.581
 3360POPC   NC345839   8.361  18.668   5.626
 3360POPC   PO445840   7.973  18.053   5.463
 3360POPC   GL145841   8.007  18.279   5.868
 3360POPC   GL245842   7.892  18.632   5.946
 3360POPC   C1A45843   8.186  18.314   6.282
 3360POPC   D2A45844   8.097  18.497   6.666
 3360POPC   C3A45845   8.052  18.182   6.964
 3360POPC   C4A45846   8.453  18.047   7.153
 3360POPC   C1B45847   8.191  18.840   6.247
 3360POPC   C2B45848   8.586  18.671   6.405
 3360POPC   C3B45849   8.602  18.456   6.814
 3360POPC   C4B45850   8.338  18.549   7.194
 3361POPC   NC345851   9.232  38.303   5.487
 3361POPC   PO445852   8.843  38.753   5.476
 3361POPC   GL145853   8.843  38.490   5.822
 3361POPC   GL245854   8.515  38.653   5.907
 3361POPC   C1A45855   9.092  38.310   6.179
 3361POPC   D2A45856   9.143  38.498   6.607
 3361POPC   C3A45857   9.023  38.382   7.033
 3361POPC   C4A45858   9.178  38.516   7.446
 3361POPC   C1B45859   8.729  38.692   6.300
 3361POPC   C2B45860   8.608  38.762   6.716
 3361POPC   C3B45861   8.823  38.872   7.062
 3361POPC   C4B45862   8.710  38.684   7.416
 3362POPC   NC345863  32.780  19.141   5.379
 3362POPC   PO445864  32.850  18.449   5.329
 3362POPC   GL145865  32.704  18.709   5.752
 3362POPC   GL245866  32.707  19.082   5.880
 3362POPC   C1A45867  32.843  18.706   6.222
 3362POPC   D2A45868  33.027  18.769   6.659
 3362POPC   C3A45869  32.933  19.001   7.071
 3362POPC   C4A45870  33.103  19.255   7.422
 3362POPC   C1B45871  32.918  19.201   6.279
 3362POPC   C2B45872  33.099  19.368   6.681
 3362POPC   C3B45873  32.889  19.533   7.054
 3362POPC   C4B45874  32.601  19.340   7.389
 3363POPC   NC345875  14.129   0.397   5.437
 3363POPC   PO445876  14.675   0.054   5.552
 3363POPC   GL145877  14.410   0.215   5.836
 3363POPC   GL245878  14.491   0.585   5.769
 3363POPC   C1A45879  14.509   0.266   6.255
 3363POPC   D2A45880  14.747   0.529   6.536
 3363POPC   C3A45881  14.706   0.257   6.867
 3363POPC   C4A45882  14.640   0.319   7.273
 3363POPC   C1B45883  14.359   0.734   6.177
 3363POPC   C2B45884  14.244   0.615   6.606
 3363POPC   C3B45885  14.457   0.708   7.003
 3363POPC   C4B45886  14.271   0.648   7.433
 3364POPC   NC345887   8.349  44.469   5.214
 3364POPC   PO445888   7.885  44.729   5.552
 3364POPC   GL145889   8.131  44.475   5.803
 3364POPC   GL245890   7.869  44.395   6.020
 3364POPC   C1A45891   8.324  44.511   6.229
 3364POPC   D2A45892   8.047  44.557   6.601
 3364POPC   C3A45893   8.268  44.492   6.974
 3364POPC   C4A45894   8.478  44.815   7.230
 3364POPC   C1B45895   7.942  44.848   6.183
 3364POPC   C2B45896   7.853   0.035   6.591
 3364POPC   C3B45897   7.965  44.889   7.007
 3364POPC   C4B45898   7.829  44.987   7.397
 3365POPC   NC345899   2.228  30.168   5.381
 3365POPC   PO445900   1.791  29.603   5.252
 3365POPC   GL145901   2.022  29.783   5.656
 3365POPC   GL245902   1.791  30.075   5.682
 3365POPC   C1A45903   2.217  29.885   6.115
 3365POPC   D2A45904   2.166  29.762   6.609
 3365POPC   C3A45905   2.218  29.897   7.069
 3365POPC   C4A45906   2.236  29.972   7.554
 3365POPC   C1B45907   1.697  29.867   6.072
 3365POPC   C2B45908   1.685  29.672   6.476
 3365POPC   C3B45909   1.699  29.777   6.914
 3365POPC   C4B45910   1.783  30.011   7.314
 3366POPC   NC345911  28.576  41.548   5.526
 3366POPC   PO445912  29.321  41.730   5.502
 3366POPC   GL145913  29.108  41.506   5.793
 3366POPC   GL245914  28.874  41.737   5.887
 3366POPC   C1A45915  29.068  41.374   6.212
 3366POPC   D2A45916  28.877  41.416   6.599
 3366POPC   C3A45917  29.162  41.387   6.953
 3366POPC   C4A45918  29.196  41.376   7.394
 3366POPC   C1B45919  29.000  41.877   6.310
 3366POPC   C2B45920  29.008  41.865   6.763
 3366POPC   C3B45921  29.087  41.852   7.212
 3366POPC   C4B45922  28.927  41.930   7.635
 3367POPC   NC345923  37.628  11.236   5.505
 3367POPC   PO445924  38.296  11.200   5.588
 3367POPC   GL145925  38.037  11.286   5.890
 3367POPC   GL245926  37.937  10.960   5.908
 3367POPC   C1A45927  37.897  11.525   6.242
 3367POPC   D2A45928  37.596  11.543   6.607
 3367POPC   C3A45929  37.725  11.540   7.048
 3367POPC   C4A45930  37.879  11.407   7.463
 3367POPC   C1B45931  37.949  11.015   6.329
 3367POPC   C2B45932  37.735  10.958   6.674
 3367POPC   C3B45933  37.505  11.084   6.990
 3367POPC   C4B45934  37.665  10.976   7.347
 3368POPC   NC345935   6.688  14.854   5.646
 3368POPC   PO445936   6.631  14.335   5.062
 3368POPC   GL145937   6.688  14.335   5.564
 3368POPC   GL245938   6.348  14.269   5.722
 3368POPC   C1A45939   6.754  14.303   6.057
 3368POPC   D2A45940   6.763  14.531   6.451
 3368POPC   C3A45941   6.693  14.401   6.861
 3368POPC   C4A45942   6.826  14.451   7.270
 3368POPC   C1B45943   6.301  14.495   6.125
 3368POPC   C2B45944   6.234  14.531   6.552
 3368POPC   C3B45945   6.109  14.392   6.936
 3368POPC   C4B45946   6.348  14.266   7.270
 3369POPC   NC345947  11.420  12.478   5.395
 3369POPC   PO445948  11.102  13.045   5.272
 3369POPC   GL145949  11.212  12.870   5.712
 3369POPC   GL245950  11.572  12.798   5.776
 3369POPC   C1A45951  11.100  12.770   6.161
 3369POPC   D2A45952  10.947  12.786   6.590
 3369POPC   C3A45953  11.193  12.847   6.968
 3369POPC   C4A45954  11.084  12.614   7.328
 3369POPC   C1B45955  11.626  12.815   6.206
 3369POPC   C2B45956  11.549  12.788   6.616
 3369POPC   C3B45957  11.726  12.636   6.985
 3369POPC   C4B45958  11.613  12.496   7.373
 3370POPC   NC345959  35.889  40.219   5.466
 3370POPC   PO445960  36.382  39.751   5.519
 3370POPC   GL145961  36.204  40.005   5.829
 3370POPC   GL245962  36.514  40.089   5.909
 3370POPC   C1A45963  36.084  39.956   6.267
 3370POPC   D2A45964  35.975  39.611   6.530
 3370POPC   C3A45965  36.087  39.771   6.916
 3370POPC   C4A45966  36.070  40.201   7.096
 3370POPC   C1B45967  36.675  39.964   6.301
 3370POPC   C2B45968  36.473  40.074   6.682
 3370POPC   C3B45969  36.524  40.001   7.106
 3370POPC   C4B45970  36.265  39.786   7.383
 3371POPC   NC345971  12.489  33.153   5.298
 3371POPC   PO445972  11.945  32.825   5.498
 3371POPC   GL145973  12.255  32.971   5.796
 3371POPC   GL245974  12.293  33.323   5.770
 3371POPC   C1A45975  12.241  32.798   6.225
 3371POPC   D2A45976  11.936  32.829   6.575
 3371POPC   C3A45977  12.115  32.907   6.948
 3371POPC   C4A45978  12.486  32.755   7.183
 3371POPC   C1B45979  12.129  33.295   6.212
 3371POPC   C2B45980  12.116  33.446   6.647
 3371POPC   C3B45981  11.903  33.435   7.053
 3371POPC   C4B45982  11.741  33.077   7.265
 3372POPC   NC345983  29.726  28.666   5.460
 3372POPC   PO445984  30.113  28.105   5.259
 3372POPC   GL145985  30.062  28.195   5.727
 3372POPC   GL245986  29.797  28.062   5.958
 3372POPC   C1A45987  30.186  28.339   6.170
 3372POPC   D2A45988  29.963  28.151   6.539
 3372POPC   C3A45989  29.984  28.362   6.927
 3372POPC   C4A45990  30.099  28.524   7.352
 3372POPC   C1B45991  29.698  28.469   6.207
 3372POPC   C2B45992  29.777  28.713   6.616
 3372POPC   C3B45993  29.625  28.677   7.078
 3372POPC   C4B45994  29.526  28.315   7.346
 3373POPC   NC345995  18.139  39.948   5.460
 3373POPC   PO445996  18.781  40.107   5.618
 3373POPC   GL145997  18.414  40.186   5.894
 3373POPC   GL245998  18.083  39.988   5.966
 3373POPC   C1A45999  18.417  40.133   6.337
 3373POPC   D2A46000  18.173  39.914   6.606
 3373POPC   C3A46001  18.444  39.753   6.891
 3373POPC   C4A46002  18.384  39.891   7.264
 3373POPC   C1B46003  17.977  40.363   6.213
 3373POPC   C2B46004  18.038  40.451   6.669
 3373POPC   C3B46005  17.988  40.179   7.041
 3373POPC   C4B46006  17.963  40.069   7.478
 3374POPC   NC346007  15.736  40.231   5.383
 3374POPC   PO446008  16.159  40.802   5.490
 3374POPC   GL146009  15.941  40.628   5.801
 3374POPC   GL246010  16.242  40.403   5.831
 3374POPC   C1A46011  15.686  40.773   6.178
 3374POPC   D2A46012  15.636  41.063   6.544
 3374POPC   C3A46013  15.570  40.854   6.916
 3374POPC   C4A46014  15.840  40.746   7.225
 3374POPC   C1B46015  16.191  40.619   6.229
 3374POPC   C2B46016  15.961  40.649   6.620
 3374POPC   C3B46017  16.243  40.615   6.947
 3374POPC   C4B46018  16.345  40.839   7.292
 3375POPC   NC346019  33.770  31.811   5.436
 3375POPC   PO446020  33.362  32.404   5.318
 3375POPC   GL146021  33.597  32.336   5.715
 3375POPC   GL246022  33.891  32.123   5.829
 3375POPC   C1A46023  33.727  32.586   6.085
 3375POPC   D2A46024  33.807  32.792   6.485
 3375POPC   C3A46025  33.878  32.465   6.775
 3375POPC   C4A46026  33.791  32.367   7.196
 3375POPC   C1B46027  33.630  31.899   6.129
 3375POPC   C2B46028  33.575  32.056   6.544
 3375POPC   C3B46029  33.561  31.877   6.960
 3375POPC   C4B46030  33.920  31.859   7.240
 3376POPC   NC346031  35.542   4.029   5.167
 3376POPC   PO446032  35.838   3.555   5.538
 3376POPC   GL146033  35.415   3.654   5.749
 3376POPC   GL246034  35.174   3.357   5.772
 3376POPC   C1A46035  35.293   3.681   6.198
 3376POPC   D2A46036  35.539   3.728   6.587
 3376POPC   C3A46037  35.371   3.645   7.018
 3376POPC   C4A46038  35.544   3.285   7.249
 3376POPC   C1B46039  34.946   3.300   6.170
 3376POPC   C2B46040  35.016   3.456   6.588
 3376POPC   C3B46041  34.930   3.364   7.006
 3376POPC   C4B46042  35.088   3.386   7.434
 3377POPC   NC346043  11.072  33.908   5.583
 3377POPC   PO446044  10.463  33.991   5.280
 3377POPC   GL146045  10.596  33.761   5.732
 3377POPC   GL246046  10.904  33.605   5.949
 3377POPC   C1A46047  10.564  33.909   6.193
 3377POPC   D2A46048  10.304  34.027   6.554
 3377POPC   C3A46049  10.389  33.872   6.989
 3377POPC   C4A46050  10.552  33.982   7.421
 3377POPC   C1B46051  10.576  33.396   6.187
 3377POPC   C2B46052  10.390  33.497   6.581
 3377POPC   C3B46053  10.537  33.321   6.938
 3377POPC   C4B46054  10.497  33.471   7.318
 3378POPC   NC346055  44.920  39.103   5.595
 3378POPC   PO446056  44.358  39.548   5.507
 3378POPC   GL146057  44.650  39.476   5.861
 3378POPC   GL246058   0.007  39.595   5.799
 3378POPC   C1A46059  44.606  39.344   6.335
 3378POPC   D2A46060  44.514  39.422   6.791
 3378POPC   C3A46061  44.577  39.040   7.059
 3378POPC   C4A46062  44.766  38.810   7.399
 3378POPC   C1B46063   0.089  39.378   6.176
 3378POPC   C2B46064   0.167  39.187   6.563
 3378POPC   C3B46065   0.004  39.334   6.939
 3378POPC   C4B46066  44.729  39.493   7.250
 3379POPC   NC346067  10.128  26.206   5.474
 3379POPC   PO446068   9.446  26.139   5.444
 3379POPC   GL146069   9.650  26.089   5.853
 3379POPC   GL246070   9.915  26.283   5.913
 3379POPC   C1A46071   9.656  25.818   6.234
 3379POPC   D2A46072   9.468  25.668   6.620
 3379POPC   C3A46073   9.673  25.778   6.986
 3379POPC   C4A46074   9.677  26.001   7.367
 3379POPC   C1B46075   9.798  26.308   6.305
 3379POPC   C2B46076   9.850  26.119   6.646
 3379POPC   C3B46077   9.893  26.317   6.994
 3379POPC   C4B46078  10.095  26.276   7.388
 3380POPC   NC346079  20.491   0.705   5.385
 3380POPC   PO446080  20.613   0.079   5.293
 3380POPC   GL146081  20.579   0.279   5.759
 3380POPC   GL246082  20.304   0.517   5.835
 3380POPC   C1A46083  20.693   0.600   6.170
 3380POPC   D2A46084  20.531   0.600   6.580
 3380POPC   C3A46085  20.748   0.500   6.980
 3380POPC   C4A46086  20.550   0.665   7.325
 3380POPC   C1B46087  20.367   0.226   6.204
 3380POPC   C2B46088  20.234   0.176   6.605
 3380POPC   C3B46089  20.223   0.403   6.987
 3380POPC   C4B46090  20.305   0.220   7.399
 3381POPC   NC346091   9.907  43.704   5.007
 3381POPC   PO446092   9.526  44.181   5.349
 3381POPC   GL146093   9.820  44.125   5.722
 3381POPC   GL246094   9.928  43.797   5.849
 3381POPC   C1A46095   9.892  44.255   6.139
 3381POPC   D2A46096   9.683  44.193   6.537
 3381POPC   C3A46097   9.777  44.204   6.967
 3381POPC   C4A46098   9.971  43.971   7.284
 3381POPC   C1B46099   9.932  43.769   6.321
 3381POPC   C2B46100   9.849  43.724   6.783
 3381POPC   C3B46101   9.827  43.499   7.197
 3381POPC   C4B46102  10.172  43.520   7.531
 3382POPC   NC346103  15.038  18.562   5.462
 3382POPC   PO446104  14.934  19.214   5.472
 3382POPC   GL146105  14.973  19.000   5.849
 3382POPC   GL246106  15.213  19.251   5.947
 3382POPC   C1A46107  15.047  18.853   6.302
 3382POPC   D2A46108  15.269  19.020   6.672
 3382POPC   C3A46109  15.267  18.795   7.059
 3382POPC   C4A46110  15.137  18.484   7.324
 3382POPC   C1B46111  14.910  19.348   6.267
 3382POPC   C2B46112  14.913  19.386   6.702
 3382POPC   C3B46113  15.055  19.262   7.093
 3382POPC   C4B46114  15.468  19.320   7.217
 3383POPC   NC346115  36.481  20.539   5.410
 3383POPC   PO446116  37.174  20.826   5.487
 3383POPC   GL146117  36.949  20.569   5.753
 3383POPC   GL246118  36.632  20.744   5.832
 3383POPC   C1A46119  36.861  20.333   6.111
 3383POPC   D2A46120  37.075  20.297   6.492
 3383POPC   C3A46121  36.957  20.531   6.861
 3383POPC   C4A46122  36.603  20.416   7.100
 3383POPC   C1B46123  36.743  20.862   6.218
 3383POPC   C2B46124  36.909  20.962   6.590
 3383POPC   C3B46125  36.703  20.943   6.999
 3383POPC   C4B46126  36.746  20.751   7.435
 3384POPC   NC346127  13.405  15.822   5.329
 3384POPC   PO446128  13.453  16.514   5.339
 3384POPC   GL146129  13.410  16.297   5.766
 3384POPC   GL246130  13.353  15.951   5.795
 3384POPC   C1A46131  13.620  16.138   6.168
 3384POPC   D2A46132  13.640  15.850   6.512
 3384POPC   C3A46133  13.724  16.042   6.933
 3384POPC   C4A46134  13.628  16.301   7.341
 3384POPC   C1B46135  13.243  15.726   6.123
 3384POPC   C2B46136  13.098  15.751   6.502
 3384POPC   C3B46137  13.307  15.745   6.870
 3384POPC   C4B46138  13.428  15.825   7.263
 3385POPC   NC346139  23.308  34.505   5.477
 3385POPC   PO446140  23.864  34.638   5.274
 3385POPC   GL146141  23.887  34.753   5.715
 3385POPC   GL246142  23.565  34.862   5.797
 3385POPC   C1A46143  23.931  34.621   6.138
 3385POPC   D2A46144  23.900  34.404   6.555
 3385POPC   C3A46145  23.920  34.585   6.988
 3385POPC   C4A46146  23.872  34.499   7.423
 3385POPC   C1B46147  23.385  34.624   6.139
 3385POPC   C2B46148  23.371  34.538   6.562
 3385POPC   C3B46149  23.230  34.404   6.952
 3385POPC   C4B46150  23.361  34.613   7.313
 3386POPC   NC346151  31.237   4.426   5.444
 3386POPC   PO446152  31.490   3.898   5.459
 3386POPC   GL146153  31.591   4.187   5.798
 3386POPC   GL246154  31.633   4.564   5.725
 3386POPC   C1A46155  31.539   4.236   6.245
 3386POPC   D2A46156  31.619   4.082   6.654
 3386POPC   C3A46157  31.463   4.144   7.062
 3386POPC   C4A46158  31.286   4.548   6.977
 3386POPC   C1B46159  31.692   4.701   6.140
 3386POPC   C2B46160  31.674   4.608   6.584
 3386POPC   C3B46161  31.837   4.471   6.972
 3386POPC   C4B46162  31.670   4.505   7.377
 3387POPC   NC346163  31.076  31.282   5.091
 3387POPC   PO446164  30.533  31.489   5.409
 3387POPC   GL146165  30.814  31.558   5.744
 3387POPC   GL246166  30.527  31.645   5.966
 3387POPC   C1A46167  30.901  31.391   6.174
 3387POPC   D2A46168  30.677  31.400   6.566
 3387POPC   C3A46169  30.883  31.546   6.914
 3387POPC   C4A46170  30.848  31.415   7.324
 3387POPC   C1B46171  30.389  31.793   6.381
 3387POPC   C2B46172  30.455  31.809   6.840
 3387POPC   C3B46173  30.427  31.760   7.282
 3387POPC   C4B46174  30.156  31.932   7.600
 3388POPC   NC346175  34.979  43.198   5.488
 3388POPC   PO446176  35.615  43.001   5.464
 3388POPC   GL146177  35.419  43.192   5.764
 3388POPC   GL246178  35.231  42.897   5.821
 3388POPC   C1A46179  35.464  43.249   6.184
 3388POPC   D2A46180  35.503  42.948   6.499
 3388POPC   C3A46181  35.495  43.131   6.898
 3388POPC   C4A46182  35.444  43.484   7.177
 3388POPC   C1B46183  35.026  42.982   6.211
 3388POPC   C2B46184  35.043  43.147   6.624
 3388POPC   C3B46185  35.013  42.945   7.021
 3388POPC   C4B46186  35.033  43.208   7.342
 3389POPC   NC346187   3.386  36.366   5.387
 3389POPC   PO446188   3.993  36.546   5.415
 3389POPC   GL146189   3.872  36.272   5.730
 3389POPC   GL246190   3.604  36.468   5.833
 3389POPC   C1A46191   3.767  36.077   6.146
 3389POPC   D2A46192   3.858  35.914   6.545
 3389POPC   C3A46193   3.677  35.942   6.933
 3389POPC   C4A46194   3.614  36.274   7.239
 3389POPC   C1B46195   3.290  36.228   6.067
 3389POPC   C2B46196   3.339  36.080   6.474
 3389POPC   C3B46197   3.274  36.236   6.871
 3389POPC   C4B46198   3.199  35.981   7.180
 3390POPC   NC346199  37.300   0.427   5.238
 3390POPC   PO446200  36.712   0.748   5.445
 3390POPC   GL146201  36.883   0.612   5.833
 3390POPC   GL246202  37.091   0.340   5.791
 3390POPC   C1A46203  36.702   0.312   6.149
 3390POPC   D2A46204  36.409   0.287   6.496
 3390POPC   C3A46205  36.585   0.157   6.897
 3390POPC   C4A46206  36.561   0.352   7.290
 3390POPC   C1B46207  37.173   0.498   6.251
 3390POPC   C2B46208  37.106   0.356   6.697
 3390POPC   C3B46209  37.183   0.590   7.096
 3390POPC   C4B46210  37.268   0.812   7.513
 3391POPC   NC346211  41.553  11.992   5.288
 3391POPC   PO446212  41.411  12.544   5.373
 3391POPC   GL146213  41.586  12.268   5.729
 3391POPC   GL246214  41.471  11.905   5.771
 3391POPC   C1A46215  41.706  12.088   6.165
 3391POPC   D2A46216  41.527  11.890   6.503
 3391POPC   C3A46217  41.651  12.001   6.893
 3391POPC   C4A46218  41.723  11.873   7.297
 3391POPC   C1B46219  41.202  11.952   6.108
 3391POPC   C2B46220  41.082  12.122   6.492
 3391POPC   C3B46221  41.141  11.975   6.877
 3391POPC   C4B46222  41.166  12.084   7.282
 3392POPC   NC346223   7.010  17.304   5.423
 3392POPC   PO446224   6.440  17.586   5.438
 3392POPC   GL146225   6.651  17.606   5.857
 3392POPC   GL246226   6.775  17.276   5.871
 3392POPC   C1A46227   6.611  17.720   6.327
 3392POPC   D2A46228   6.488  17.492   6.710
 3392POPC   C3A46229   6.500  17.595   7.174
 3392POPC   C4A46230   6.796  17.521   7.493
 3392POPC   C1B46231   6.534  17.209   6.217
 3392POPC   C2B46232   6.611  17.005   6.591
 3392POPC   C3B46233   6.624  17.109   7.039
 3392POPC   C4B46234   6.494  17.075   7.460
 3393POPC   NC346235  15.083  42.699   4.892
 3393POPC   PO446236  15.139  42.313   5.491
 3393POPC   GL146237  15.190  42.344   5.926
 3393POPC   GL246238  15.215  42.026   6.105
 3393POPC   C1A46239  15.130  42.655   6.265
 3393POPC   D2A46240  15.215  42.859   6.683
 3393POPC   C3A46241  15.075  42.574   7.019
 3393POPC   C4A46242  15.274  42.207   7.185
 3393POPC   C1B46243  14.839  42.208   6.316
 3393POPC   C2B46244  14.749  42.298   6.732
 3393POPC   C3B46245  14.783  42.051   7.101
 3393POPC   C4B46246  14.851  42.156   7.535
 3394POPC   NC346247  11.389  30.095   5.294
 3394POPC   PO446248  11.059  29.697   5.685
 3394POPC   GL146249  11.353  29.958   5.790
 3394POPC   GL246250  11.167  30.235   5.780
 3394POPC   C1A46251  11.455  30.094   6.183
 3394POPC   D2A46252  11.552  29.850   6.523
 3394POPC   C3A46253  11.318  29.811   6.866
 3394POPC   C4A46254  11.356  29.966   7.262
 3394POPC   C1B46255  10.928  30.066   6.169
 3394POPC   C2B46256  10.833  29.857   6.564
 3394POPC   C3B46257  10.885  30.044   6.959
 3394POPC   C4B46258  10.913  30.257   7.329
 3395POPC   NC346259  12.707   3.596   5.446
 3395POPC   PO446260  13.240   3.198   5.466
 3395POPC   GL146261  12.939   3.127   5.837
 3395POPC   GL246262  12.588   3.262   5.837
 3395POPC   C1A46263  12.859   3.246   6.292
 3395POPC   D2A46264  12.910   3.059   6.696
 3395POPC   C3A46265  12.880   3.347   7.033
 3395POPC   C4A46266  12.606   3.431   7.348
 3395POPC   C1B46267  12.559   3.634   6.134
 3395POPC   C2B46268  12.640   3.696   6.590
 3395POPC   C3B46269  12.600   3.826   7.028
 3395POPC   C4B46270  12.689   3.917   7.498
 3396POPC   NC346271  18.967  15.211   5.379
 3396POPC   PO446272  19.215  14.595   5.340
 3396POPC   GL146273  19.119  14.720   5.819
 3396POPC   GL246274  19.007  15.070   5.870
 3396POPC   C1A46275  18.935  14.772   6.277
 3396POPC   D2A46276  18.837  15.044   6.650
 3396POPC   C3A46277  18.898  15.061   7.099
 3396POPC   C4A46278  19.098  15.114   7.512
 3396POPC   C1B46279  19.151  15.246   6.272
 3396POPC   C2B46280  19.117  15.479   6.678
 3396POPC   C3B46281  19.158  15.491   7.130
 3396POPC   C4B46282  19.008  15.709   7.511
 3397POPC   NC346283  13.009  19.605   5.459
 3397POPC   PO446284  12.810  20.228   5.536
 3397POPC   GL146285  12.866  19.902   5.855
 3397POPC   GL246286  12.527  19.803   5.855
 3397POPC   C1A46287  13.098  19.858   6.273
 3397POPC   D2A46288  13.116  19.624   6.656
 3397POPC   C3A46289  13.046  19.791   7.061
 3397POPC   C4A46290  12.682  19.597   7.272
 3397POPC   C1B46291  12.628  20.047   6.272
 3397POPC   C2B46292  12.665  19.897   6.695
 3397POPC   C3B46293  12.456  20.037   7.050
 3397POPC   C4B46294  12.414  20.329   7.363
 3398POPC   NC346295  11.082  27.387   5.389
 3398POPC   PO446296  11.478  27.909   5.526
 3398POPC   GL146297  11.369  27.560   5.779
 3398POPC   GL246298  11.484  27.219   5.691
 3398POPC   C1A46299  11.155  27.411   6.108
 3398POPC   D2A46300  11.218  27.430   6.544
 3398POPC   C3A46301  11.104  27.815   6.737
 3398POPC   C4A46302  11.083  27.976   7.140
 3398POPC   C1B46303  11.563  27.112   6.126
 3398POPC   C2B46304  11.601  27.092   6.577
 3398POPC   C3B46305  11.552  27.346   6.935
 3398POPC   C4B46306  11.440  27.601   7.266
 3399POPC   NC346307   2.139  32.486   5.357
 3399POPC   PO446308   2.174  31.812   5.421
 3399POPC   GL146309   2.005  31.951   5.787
 3399POPC   GL246310   2.063  32.311   5.815
 3399POPC   C1A46311   1.833  32.057   6.186
 3399POPC   D2A46312   1.859  32.303   6.560
 3399POPC   C3A46313   1.998  32.071   6.895
 3399POPC   C4A46314   1.866  32.222   7.273
 3399POPC   C1B46315   1.995  32.578   6.157
 3399POPC   C2B46316   2.323  32.574   6.484
 3399POPC   C3B46317   2.337  32.456   6.912
 3399POPC   C4B46318   2.145  32.656   7.233
 3400POPC   NC346319  12.627  32.351   5.353
 3400POPC   PO446320  13.279  32.429   5.490
 3400POPC   GL146321  12.924  32.396   5.794
 3400POPC   GL246322  12.613  32.596   5.832
 3400POPC   C1A46323  12.954  32.281   6.209
 3400POPC   D2A46324  12.812  32.590   6.493
 3400POPC   C3A46325  12.765  32.435   6.911
 3400POPC   C4A46326  12.939  32.183   7.192
 3400POPC   C1B46327  12.469  32.310   6.178
 3400POPC   C2B46328  12.587  32.081   6.582
 3400POPC   C3B46329  12.503  31.979   7.042
 3400POPC   C4B46330  12.467  32.268   7.408
 3401POPC   NC346331  31.441  26.038   5.349
 3401POPC   PO446332  31.980  26.274   5.596
 3401POPC   GL146333  31.648  26.080   5.844
 3401POPC   GL246334  31.331  26.273   5.815
 3401POPC   C1A46335  31.590  26.113   6.297
 3401POPC   D2A46336  31.815  26.373   6.610
 3401POPC   C3A46337  31.746  26.235   7.018
 3401POPC   C4A46338  31.648  25.824   7.039
 3401POPC   C1B46339  31.091  26.201   6.181
 3401POPC   C2B46340  31.043  25.946   6.529
 3401POPC   C3B46341  31.061  26.097   6.942
 3401POPC   C4B46342  31.316  26.228   7.270
 3402POPC   NC346343  36.766  12.940   5.391
 3402POPC   PO446344  37.259  12.419   5.425
 3402POPC   GL146345  37.126  12.810   5.733
 3402POPC   GL246346  36.985  13.204   5.769
 3402POPC   C1A46347  37.144  12.966   6.185
 3402POPC   D2A46348  37.187  12.851   6.624
 3402POPC   C3A46349  36.840  12.760   6.884
 3402POPC   C4A46350  37.037  12.819   7.253
 3402POPC   C1B46351  36.726  13.283   6.126
 3402POPC   C2B46352  36.762  13.127   6.531
 3402POPC   C3B46353  36.720  13.262   6.950
 3402POPC   C4B46354  36.332  13.263   7.184
 3403POPC   NC346355  21.689  15.340   5.527
 3403POPC   PO446356  21.127  15.047   5.555
 3403POPC   GL146357  21.388  15.171   5.908
 3403POPC   GL246358  21.740  15.064   5.949
 3403POPC   C1A46359  21.410  15.115   6.337
 3403POPC   D2A46360  21.205  14.932   6.647
 3403POPC   C3A46361  21.421  15.055   7.000
 3403POPC   C4A46362  21.256  15.018   7.431
 3403POPC   C1B46363  21.762  15.465   6.195
 3403POPC   C2B46364  21.612  15.480   6.638
 3403POPC   C3B46365  21.817  15.432   7.029
 3403POPC   C4B46366  21.703  15.222   7.388
 3404POPC   NC346367   7.708  13.437   5.372
 3404POPC   PO446368   7.092  13.702   5.469
 3404POPC   GL146369   7.410  13.614   5.755
 3404POPC   GL246370   7.145  13.593   5.993
 3404POPC   C1A46371   7.599  13.530   6.177
 3404POPC   D2A46372   7.310  13.549   6.546
 3404POPC   C3A46373   7.494  13.396   6.924
 3404POPC   C4A46374   7.769  13.555   7.242
 3404POPC   C1B46375   7.012  13.920   6.281
 3404POPC   C2B46376   7.087  14.146   6.658
 3404POPC   C3B46377   7.216  14.049   7.054
 3404POPC   C4B46378   7.302  13.724   7.307
 3405POPC   NC346379  30.282  22.740   5.446
 3405POPC   PO446380  30.227  23.394   5.452
 3405POPC   GL146381  30.290  23.091   5.813
 3405POPC   GL246382  30.073  22.768   5.897
 3405POPC   C1A46383  30.154  23.147   6.219
 3405POPC   D2A46384  29.995  22.950   6.529
 3405POPC   C3A46385  30.046  23.235   6.846
 3405POPC   C4A46386  29.997  23.122   7.252
 3405POPC   C1B46387  29.938  22.513   6.258
 3405POPC   C2B46388  29.869  22.447   6.705
 3405POPC   C3B46389  29.798  22.458   7.145
 3405POPC   C4B46390  29.470  22.537   7.415
 3406POPC   NC346391   4.140  19.325   5.482
 3406POPC   PO446392   4.633  18.847   5.454
 3406POPC   GL146393   4.319  18.912   5.768
 3406POPC   GL246394   4.107  18.644   5.873
 3406POPC   C1A46395   4.282  18.994   6.208
 3406POPC   D2A46396   4.459  18.880   6.591
 3406POPC   C3A46397   4.460  19.217   6.882
 3406POPC   C4A46398   4.166  19.061   7.130
 3406POPC   C1B46399   4.503  18.530   6.098
 3406POPC   C2B46400   4.709  18.445   6.493
 3406POPC   C3B46401   4.645  18.512   6.925
 3406POPC   C4B46402   4.633  18.848   7.223
 3407POPC   NC346403  37.895   5.235   5.479
 3407POPC   PO446404  37.224   4.831   5.405
 3407POPC   GL146405  37.450   4.999   5.838
 3407POPC   GL246406  37.682   5.298   5.939
 3407POPC   C1A46407  37.597   4.920   6.315
 3407POPC   D2A46408  37.837   4.785   6.729
 3407POPC   C3A46409  37.818   4.926   7.169
 3407POPC   C4A46410  37.868   5.052   7.620
 3407POPC   C1B46411  37.545   5.447   6.328
 3407POPC   C2B46412  37.513   5.277   6.735
 3407POPC   C3B46413  37.483   5.307   7.165
 3407POPC   C4B46414  37.219   5.561   7.430
 3408POPC   NC346415  34.276  13.930   5.372
 3408POPC   PO446416  34.904  13.745   5.451
 3408POPC   GL146417  34.638  13.848   5.767
 3408POPC   GL246418  34.363  13.612   5.761
 3408POPC   C1A46419  34.750  13.899   6.190
 3408POPC   D2A46420  34.573  13.758   6.572
 3408POPC   C3A46421  34.761  13.854   6.926
 3408POPC   C4A46422  34.732  13.737   7.338
 3408POPC   C1B46423  34.336  13.503   6.203
 3408POPC   C2B46424  34.204  13.406   6.653
 3408POPC   C3B46425  34.360  13.438   7.112
 3408POPC   C4B46426  34.156  13.314   7.528
 3409POPC   NC346427  18.291  27.438   5.319
 3409POPC   PO446428  17.763  27.369   5.501
 3409POPC   GL146429  18.133  27.367   5.826
 3409POPC   GL246430  18.425  27.596   5.796
 3409POPC   C1A46431  18.197  27.439   6.306
 3409POPC   D2A46432  18.175  27.317   6.774
 3409POPC   C3A46433  18.123  27.640   7.119
 3409POPC   C4A46434  17.785  27.778   7.455
 3409POPC   C1B46435  18.661  27.368   6.110
 3409POPC   C2B46436  18.686  27.449   6.585
 3409POPC   C3B46437  18.602  27.371   7.045
 3409POPC   C4B46438  18.522  27.377   7.477
 3410POPC   NC346439  14.664  22.836   5.436
 3410POPC   PO446440  14.281  23.330   5.393
 3410POPC   GL146441  14.363  23.109   5.778
 3410POPC   GL246442  14.353  22.765   5.833
 3410POPC   C1A46443  14.313  23.147   6.213
 3410POPC   D2A46444  14.116  23.015   6.563
 3410POPC   C3A46445  14.240  23.157   6.984
 3410POPC   C4A46446  14.534  22.929   7.260
 3410POPC   C1B46447  14.197  22.608   6.209
 3410POPC   C2B46448  14.143  22.399   6.573
 3410POPC   C3B46449  14.224  22.492   6.999
 3410POPC   C4B46450  14.016  22.495   7.405
 3411POPC   NC346451  16.725  36.518   5.555
 3411POPC   PO446452  17.037  35.934   5.467
 3411POPC   GL146453  16.688  36.012   5.739
 3411POPC   GL246454  16.913  36.231   5.931
 3411POPC   C1A46455  16.516  36.051   6.155
 3411POPC   D2A46456  16.791  36.112   6.500
 3411POPC   C3A46457  16.625  36.162   6.895
 3411POPC   C4A46458  16.473  36.121   7.302
 3411POPC   C1B46459  17.124  36.424   6.268
 3411POPC   C2B46460  17.004  36.688   6.611
 3411POPC   C3B46461  17.026  36.459   6.949
 3411POPC   C4B46462  17.030  36.107   7.224
 3412POPC   NC346463  21.300  28.101   5.628
 3412POPC   PO446464  21.361  27.379   5.592
 3412POPC   GL146465  21.262  27.658   5.859
 3412POPC   GL246466  21.625  27.760   5.846
 3412POPC   C1A46467  21.256  27.735   6.269
 3412POPC   D2A46468  21.000  27.625   6.574
 3412POPC   C3A46469  21.036  27.525   6.998
 3412POPC   C4A46470  21.216  27.758   7.354
 3412POPC   C1B46471  21.665  27.427   6.183
 3412POPC   C2B46472  21.465  27.404   6.592
 3412POPC   C3B46473  21.540  27.484   7.002
 3412POPC   C4B46474  21.769  27.235   7.221
 3413POPC   NC346475  13.332   9.988   5.468
 3413POPC   PO446476  13.786   9.524   5.406
 3413POPC   GL146477  13.573   9.632   5.812
 3413POPC   GL246478  13.658   9.980   5.896
 3413POPC   C1A46479  13.620   9.590   6.288
 3413POPC   D2A46480  13.878   9.719   6.658
 3413POPC   C3A46481  13.652   9.750   7.047
 3413POPC   C4A46482  13.569   9.628   7.486
 3413POPC   C1B46483  13.982  10.173   6.172
 3413POPC   C2B46484  14.169  10.139   6.589
 3413POPC   C3B46485  13.947  10.162   6.982
 3413POPC   C4B46486  13.769  10.136   7.395
 3414POPC   NC346487   0.879  34.505   5.610
 3414POPC   PO446488   1.316  34.878   5.265
 3414POPC   GL146489   1.365  34.772   5.729
 3414POPC   GL246490   1.297  34.461   5.925
 3414POPC   C1A46491   1.215  34.897   6.167
 3414POPC   D2A46492   1.317  34.827   6.607
 3414POPC   C3A46493   1.134  34.623   6.951
 3414POPC   C4A46494   1.105  34.510   7.392
 3414POPC   C1B46495   1.492  34.170   6.213
 3414POPC   C2B46496   1.435  34.254   6.646
 3414POPC   C3B46497   1.553  34.052   7.010
 3414POPC   C4B46498   1.412  34.103   7.429
 3415POPC   NC346499  25.553  20.072   5.183
 3415POPC   PO446500  25.004  19.986   5.574
 3415POPC   GL146501  25.292  19.802   5.839
 3415POPC   GL246502  25.491  19.561   5.655
 3415POPC   C1A46503  25.254  19.758   6.286
 3415POPC   D2A46504  25.298  19.664   6.704
 3415POPC   C3A46505  25.020  19.687   7.048
 3415POPC   C4A46506  25.172  19.855   7.436
 3415POPC   C1B46507  25.680  19.524   6.092
 3415POPC   C2B46508  25.639  19.331   6.546
 3415POPC   C3B46509  25.699  19.521   7.007
 3415POPC   C4B46510  25.589  19.502   7.464
 3416POPC   NC346511  36.659  40.149   5.403
 3416POPC   PO446512  37.088  39.763   5.075
 3416POPC   GL146513  37.074  39.822   5.586
 3416POPC   GL246514  37.024  40.175   5.766
 3416POPC   C1A46515  37.138  39.786   6.066
 3416POPC   D2A46516  37.195  40.000   6.459
 3416POPC   C3A46517  36.918  39.796   6.769
 3416POPC   C4A46518  36.907  39.710   7.215
 3416POPC   C1B46519  36.783  40.460   6.091
 3416POPC   C2B46520  36.612  40.571   6.507
 3416POPC   C3B46521  36.579  40.517   6.966
 3416POPC   C4B46522  36.760  40.386   7.374
 3417POPC   NC346523   3.977  12.060   5.096
 3417POPC   PO446524   3.376  12.028   5.500
 3417POPC   GL146525   3.563  12.203   5.831
 3417POPC   GL246526   3.674  11.883   5.915
 3417POPC   C1A46527   3.586  12.430   6.221
 3417POPC   D2A46528   3.682  12.205   6.598
 3417POPC   C3A46529   3.793  12.392   6.999
 3417POPC   C4A46530   3.413  12.452   7.247
 3417POPC   C1B46531   3.486  11.786   6.329
 3417POPC   C2B46532   3.463  11.747   6.792
 3417POPC   C3B46533   3.563  11.962   7.182
 3417POPC   C4B46534   3.725  11.803   7.577
 3418POPC   NC346535   2.640  18.546   5.442
 3418POPC   PO446536   3.040  18.035   5.376
 3418POPC   GL146537   2.857  18.213   5.763
 3418POPC   GL246538   2.487  18.198   5.782
 3418POPC   C1A46539   2.834  18.485   6.143
 3418POPC   D2A46540   2.674  18.586   6.560
 3418POPC   C3A46541   2.793  18.372   6.904
 3418POPC   C4A46542   2.804  18.348   7.350
 3418POPC   C1B46543   2.340  18.363   6.182
 3418POPC   C2B46544   2.407  18.153   6.584
 3418POPC   C3B46545   2.301  18.273   6.970
 3418POPC   C4B46546   2.342  18.124   7.390
 3419POPC   NC346547  43.310  12.244   5.224
 3419POPC   PO446548  42.667  11.928   5.369
 3419POPC   GL146549  42.932  12.047   5.744
 3419POPC   GL246550  43.290  12.058   5.712
 3419POPC   C1A46551  43.102  12.188   6.151
 3419POPC   D2A46552  43.383  12.138   6.490
 3419POPC   C3A46553  43.129  12.161   6.825
 3419POPC   C4A46554  43.095  12.111   7.219
 3419POPC   C1B46555  43.376  11.745   6.074
 3419POPC   C2B46556  43.500  11.616   6.506
 3419POPC   C3B46557  43.437  11.758   6.945
 3419POPC   C4B46558  43.206  11.647   7.341
 3420POPC   NC346559  34.955  26.039   5.706
 3420POPC   PO446560  34.344  25.805   5.365
 3420POPC   GL146561  34.508  25.802   5.816
 3420POPC   GL246562  34.824  25.597   5.943
 3420POPC   C1A46563  34.468  26.095   6.193
 3420POPC   D2A46564  34.438  26.361   6.588
 3420POPC   C3A46565  34.816  26.370   6.848
 3420POPC   C4A46566  34.901  26.344   7.290
 3420POPC   C1B46567  35.000  25.787   6.321
 3420POPC   C2B46568  34.716  25.914   6.631
 3420POPC   C3B46569  34.741  25.906   7.068
 3420POPC   C4B46570  34.911  25.564   7.302
 3421POPC   NC346571  21.896  41.346   5.128
 3421POPC   PO446572  22.365  41.736   5.429
 3421POPC   GL146573  22.420  41.518   5.800
 3421POPC   GL246574  22.292  41.826   5.934
 3421POPC   C1A46575  22.269  41.420   6.229
 3421POPC   D2A46576  21.940  41.603   6.485
 3421POPC   C3A46577  21.902  41.360   6.853
 3421POPC   C4A46578  21.901  41.559   7.258
 3421POPC   C1B46579  22.612  41.926   6.199
 3421POPC   C2B46580  22.561  41.712   6.538
 3421POPC   C3B46581  22.296  41.698   6.859
 3421POPC   C4B46582  22.415  41.604   7.238
 3422POPC   NC346583  32.517  42.840   5.372
 3422POPC   PO446584  31.963  43.198   5.413
 3422POPC   GL146585  32.101  42.928   5.741
 3422POPC   GL246586  32.423  43.065   5.825
 3422POPC   C1A46587  31.986  43.039   6.176
 3422POPC   D2A46588  31.764  43.159   6.537
 3422POPC   C3A46589  31.936  43.141   6.957
 3422POPC   C4A46590  31.976  42.840   7.309
 3422POPC   C1B46591  32.462  42.875   6.208
 3422POPC   C2B46592  32.505  43.077   6.603
 3422POPC   C3B46593  32.411  42.956   7.024
 3422POPC   C4B46594  32.423  42.990   7.488
 3423POPC   NC346595  22.910   7.223   5.584
 3423POPC   PO446596  22.861   6.657   5.240
 3423POPC   GL146597  22.867   6.692   5.723
 3423POPC   GL246598  22.815   6.353   5.909
 3423POPC   C1A46599  23.029   6.800   6.169
 3423POPC   D2A46600  23.008   6.855   6.637
 3423POPC   C3A46601  22.989   6.956   7.094
 3423POPC   C4A46602  23.096   6.833   7.548
 3423POPC   C1B46603  22.846   6.372   6.384
 3423POPC   C2B46604  23.178   6.378   6.720
 3423POPC   C3B46605  23.099   6.457   7.161
 3423POPC   C4B46606  22.764   6.408   7.465
 3424POPC   NC346607   6.712  40.748   5.342
 3424POPC   PO446608   6.253  41.174   5.419
 3424POPC   GL146609   6.452  40.923   5.764
 3424POPC   GL246610   6.807  40.865   5.825
 3424POPC   C1A46611   6.429  40.809   6.194
 3424POPC   D2A46612   6.280  40.866   6.618
 3424POPC   C3A46613   6.458  40.626   6.971
 3424POPC   C4A46614   6.601  40.825   7.369
 3424POPC   C1B46615   6.969  40.696   6.199
 3424POPC   C2B46616   7.066  40.780   6.630
 3424POPC   C3B46617   7.047  40.756   7.092
 3424POPC   C4B46618   7.082  40.666   7.527
 3425POPC   NC346619  29.696  25.906   5.268
 3425POPC   PO446620  30.378  25.663   5.510
 3425POPC   GL146621  30.036  25.769   5.797
 3425POPC   GL246622  29.795  26.072   5.758
 3425POPC   C1A46623  29.805  25.769   6.174
 3425POPC   D2A46624  29.693  26.067   6.507
 3425POPC   C3A46625  29.875  25.883   6.868
 3425POPC   C4A46626  29.855  25.731   7.266
 3425POPC   C1B46627  30.052  26.214   6.157
 3425POPC   C2B46628  30.232  26.141   6.597
 3425POPC   C3B46629  30.094  26.313   7.042
 3425POPC   C4B46630  30.318  26.383   7.448
 3426POPC   NC346631  38.601  25.972   5.420
 3426POPC   PO446632  38.058  25.893   5.471
 3426POPC   GL146633  38.331  25.938   5.877
 3426POPC   GL246634  38.716  25.966   5.925
 3426POPC   C1A46635  38.334  26.105   6.332
 3426POPC   D2A46636  38.454  26.078   6.784
 3426POPC   C3A46637  38.390  26.389   7.124
 3426POPC   C4A46638  38.671  26.322   7.493
 3426POPC   C1B46639  38.761  25.816   6.369
 3426POPC   C2B46640  38.502  25.573   6.649
 3426POPC   C3B46641  38.279  25.637   7.024
 3426POPC   C4B46642  38.220  25.955   7.285
 3427POPC   NC346643  22.437  13.119   5.581
 3427POPC   PO446644  22.927  12.730   5.292
 3427POPC   GL146645  22.961  12.675   5.776
 3427POPC   GL246646  22.803  12.965   5.892
 3427POPC   C1A46647  23.091  12.713   6.231
 3427POPC   D2A46648  22.883  12.618   6.639
 3427POPC   C3A46649  23.140  12.751   6.970
 3427POPC   C4A46650  23.096  12.971   7.336
 3427POPC   C1B46651  22.600  12.910   6.307
 3427POPC   C2B46652  22.423  12.981   6.721
 3427POPC   C3B46653  22.636  12.846   7.077
 3427POPC   C4B46654  22.774  12.559   7.372
 3428POPC   NC346655  25.128   9.956   5.154
 3428POPC   PO446656  25.266  10.681   5.250
 3428POPC   GL146657  25.283  10.636   5.745
 3428POPC   GL246658  24.983  10.877   5.761
 3428POPC   C1A46659  25.325  10.389   6.178
 3428POPC   D2A46660  25.555  10.467   6.584
 3428POPC   C3A46661  25.416  10.377   7.009
 3428POPC   C4A46662  25.257  10.507   7.402
 3428POPC   C1B46663  24.963  10.753   6.186
 3428POPC   C2B46664  25.012  10.543   6.587
 3428POPC   C3B46665  25.067  10.739   6.982
 3428POPC   C4B46666  25.012  11.064   7.252
 3429POPC   NC346667  37.078  31.925   5.592
 3429POPC   PO446668  36.833  32.538   5.673
 3429POPC   GL146669  36.801  32.186   5.968
 3429POPC   GL246670  36.583  31.888   5.832
 3429POPC   C1A46671  36.975  32.176   6.406
 3429POPC   D2A46672  37.201  32.020   6.785
 3429POPC   C3A46673  37.147  32.137   7.228
 3429POPC   C4A46674  37.125  32.442   7.556
 3429POPC   C1B46675  36.552  31.846   6.291
 3429POPC   C2B46676  36.694  31.898   6.733
 3429POPC   C3B46677  36.795  32.316   6.919
 3429POPC   C4B46678  36.582  32.534   7.246
 3430POPC   NC346679  27.178  20.721   5.292
 3430POPC   PO446680  26.643  20.300   5.510
 3430POPC   GL146681  27.040  20.498   5.774
 3430POPC   GL246682  27.070  20.854   5.800
 3430POPC   C1A46683  27.088  20.400   6.236
 3430POPC   D2A46684  26.689  20.382   6.524
 3430POPC   C3A46685  26.754  20.515   6.986
 3430POPC   C4A46686  27.080  20.376   7.266
 3430POPC   C1B46687  26.757  20.776   6.153
 3430POPC   C2B46688  26.833  20.861   6.605
 3430POPC   C3B46689  26.866  20.999   7.038
 3430POPC   C4B46690  26.592  20.899   7.396
 3431POPC   NC346691  33.049  25.937   5.281
 3431POPC   PO446692  32.608  25.495   5.630
 3431POPC   GL146693  33.022  25.739   5.772
 3431POPC   GL246694  33.198  26.100   5.828
 3431POPC   C1A46695  33.090  25.791   6.215
 3431POPC   D2A46696  32.988  25.507   6.545
 3431POPC   C3A46697  33.031  25.674   6.975
 3431POPC   C4A46698  33.184  25.961   7.281
 3431POPC   C1B46699  33.407  26.236   6.252
 3431POPC   C2B46700  33.440  26.233   6.729
 3431POPC   C3B46701  33.271  26.433   7.122
 3431POPC   C4B46702  33.366  26.326   7.588
 3432POPC   NC346703   5.409  11.825   5.109
 3432POPC   PO446704   4.969  11.483   5.501
 3432POPC   GL146705   4.910  11.186   5.867
 3432POPC   GL246706   5.153  11.437   6.029
 3432POPC   C1A46707   5.106  10.973   6.259
 3432POPC   D2A46708   5.365  11.255   6.504
 3432POPC   C3A46709   5.215  11.375   6.917
 3432POPC   C4A46710   5.284  11.096   7.271
 3432POPC   C1B46711   4.831  11.389   6.346
 3432POPC   C2B46712   4.791  11.126   6.722
 3432POPC   C3B46713   4.754  11.240   7.158
 3432POPC   C4B46714   4.826  11.635   7.312
 3433POPC   NC346715   0.982  39.582   5.008
 3433POPC   PO446716   0.880  40.143   5.353
 3433POPC   GL146717   1.140  40.004   5.686
 3433POPC   GL246718   1.382  40.261   5.764
 3433POPC   C1A46719   1.224  39.893   6.111
 3433POPC   D2A46720   1.431  39.953   6.489
 3433POPC   C3A46721   1.266  39.890   6.874
 3433POPC   C4A46722   1.326  40.018   7.276
 3433POPC   C1B46723   1.408  40.401   6.170
 3433POPC   C2B46724   1.634  40.410   6.525
 3433POPC   C3B46725   1.472  40.370   6.930
 3433POPC   C4B46726   1.544  40.476   7.355
 3434POPC   NC346727  10.147  27.503   5.723
 3434POPC   PO446728  10.629  27.469   5.232
 3434POPC   GL146729  10.745  27.578   5.728
 3434POPC   GL246730  10.538  27.822   5.848
 3434POPC   C1A46731  10.685  27.536   6.235
 3434POPC   D2A46732  10.736  27.250   6.618
 3434POPC   C3A46733  10.515  27.377   7.011
 3434POPC   C4A46734  10.670  27.710   7.272
 3434POPC   C1B46735  10.291  27.914   6.252
 3434POPC   C2B46736  10.199  27.818   6.678
 3434POPC   C3B46737  10.236  27.944   7.092
 3434POPC   C4B46738  10.208  27.793   7.503
 3435POPC   NC346739   2.930  44.861   4.954
 3435POPC   PO446740   2.449  44.632   5.389
 3435POPC   GL146741   2.760  44.664   5.758
 3435POPC   GL246742   2.874  44.350   5.898
 3435POPC   C1A46743   2.899  44.801   6.175
 3435POPC   D2A46744   3.090  44.705   6.565
 3435POPC   C3A46745   2.927  44.827   6.971
 3435POPC   C4A46746   3.195  44.902   7.320
 3435POPC   C1B46747   2.854  44.220   6.305
 3435POPC   C2B46748   2.927  44.211   6.717
 3435POPC   C3B46749   2.989  44.333   7.108
 3435POPC   C4B46750   2.797  44.554   7.420
 3436POPC   NC346751   0.725  28.899   5.425
 3436POPC   PO446752   0.237  29.443   5.468
 3436POPC   GL146753   0.489  29.265   5.796
 3436POPC   GL246754   0.317  28.956   5.804
 3436POPC   C1A46755   0.538  29.128   6.256
 3436POPC   D2A46756   0.681  29.176   6.708
 3436POPC   C3A46757   0.387  29.318   7.064
 3436POPC   C4A46758   0.367  29.175   7.521
 3436POPC   C1B46759   0.120  28.827   6.232
 3436POPC   C2B46760   0.229  28.901   6.680
 3436POPC   C3B46761   0.401  28.823   7.100
 3436POPC   C4B46762   0.275  28.674   7.514
 3437POPC   NC346763  30.689  38.819   5.258
 3437POPC   PO446764  30.839  38.146   5.106
 3437POPC   GL146765  30.785  38.303   5.607
 3437POPC   GL246766  30.458  38.422   5.829
 3437POPC   C1A46767  30.813  38.186   6.094
 3437POPC   D2A46768  30.858  38.403   6.505
 3437POPC   C3A46769  30.779  38.257   6.930
 3437POPC   C4A46770  30.962  38.442   7.301
 3437POPC   C1B46771  30.493  38.698   6.267
 3437POPC   C2B46772  30.382  38.766   6.720
 3437POPC   C3B46773  30.546  38.697   7.135
 3437POPC   C4B46774  30.488  38.282   7.361
 3438POPC   NC346775  44.885  40.687   5.367
 3438POPC   PO446776  44.519  40.998   5.794
 3438POPC   GL146777  44.853  40.736   5.997
 3438POPC   GL246778   0.062  40.509   5.817
 3438POPC   C1A46779  44.967  40.773   6.437
 3438POPC   D2A46780  44.730  41.118   6.674
 3438POPC   C3A46781  44.637  40.951   7.056
 3438POPC   C4A46782  44.705  40.749   7.399
 3438POPC   C1B46783  44.981  40.281   6.222
 3438POPC   C2B46784   0.104  40.249   6.668
 3438POPC   C3B46785  44.912  40.396   7.101
 3438POPC   C4B46786  44.770  40.293   7.591
 3439POPC   NC346787  34.231  16.515   5.506
 3439POPC   PO446788  34.779  16.916   5.518
 3439POPC   GL146789  34.611  16.927   5.935
 3439POPC   GL246790  34.275  17.030   5.929
 3439POPC   C1A46791  34.481  16.663   6.302
 3439POPC   D2A46792  34.443  16.488   6.719
 3439POPC   C3A46793  34.789  16.449   7.052
 3439POPC   C4A46794  34.912  16.633   7.471
 3439POPC   C1B46795  34.399  17.164   6.355
 3439POPC   C2B46796  34.489  17.028   6.750
 3439POPC   C3B46797  34.401  16.812   7.130
 3439POPC   C4B46798  34.183  16.958   7.489
 3440POPC   NC346799   4.191  23.054   5.406
 3440POPC   PO446800   4.192  22.472   5.658
 3440POPC   GL146801   4.269  22.867   5.892
 3440POPC   GL246802   4.099  23.224   5.902
 3440POPC   C1A46803   4.523  22.939   6.254
 3440POPC   D2A46804   4.397  23.094   6.667
 3440POPC   C3A46805   4.644  23.081   7.053
 3440POPC   C4A46806   4.485  22.915   7.463
 3440POPC   C1B46807   4.033  23.370   6.355
 3440POPC   C2B46808   3.928  23.273   6.799
 3440POPC   C3B46809   4.000  22.931   7.099
 3440POPC   C4B46810   4.003  23.040   7.556
 3441POPC   NC346811  15.758  10.334   5.441
 3441POPC   PO446812  16.008  10.841   5.069
 3441POPC   GL146813  15.884  10.812   5.603
 3441POPC   GL246814  15.623  10.872   5.883
 3441POPC   C1A46815  15.976  10.588   6.066
 3441POPC   D2A46816  16.019  10.344   6.461
 3441POPC   C3A46817  16.174  10.483   6.877
 3441POPC   C4A46818  16.139  10.647   7.319
 3441POPC   C1B46819  15.475  10.655   6.257
 3441POPC   C2B46820  15.621  10.598   6.673
 3441POPC   C3B46821  15.693  10.460   7.064
 3441POPC   C4B46822  15.545  10.720   7.346
 3442POPC   NC346823  40.963  43.623   5.445
 3442POPC   PO446824  40.416  43.936   5.350
 3442POPC   GL146825  40.700  44.001   5.731
 3442POPC   GL246826  41.002  44.206   5.596
 3442POPC   C1A46827  40.734  43.793   6.193
 3442POPC   D2A46828  40.546  43.787   6.650
 3442POPC   C3A46829  40.625  43.796   7.092
 3442POPC   C4A46830  40.956  43.606   7.328
 3442POPC   C1B46831  41.087  44.139   6.044
 3442POPC   C2B46832  40.929  44.186   6.487
 3442POPC   C3B46833  41.042  43.931   6.838
 3442POPC   C4B46834  41.087  44.082   7.251
 3443POPC   NC346835  35.433  42.609   5.292
 3443POPC   PO446836  34.797  42.342   5.410
 3443POPC   GL146837  35.183  42.363   5.716
 3443POPC   GL246838  35.395  42.070   5.688
 3443POPC   C1A46839  35.330  42.524   6.158
 3443POPC   D2A46840  35.153  42.594   6.597
 3443POPC   C3A46841  35.405  42.590   6.993
 3443POPC   C4A46842  35.336  42.331   7.382
 3443POPC   C1B46843  35.518  42.030   6.129
 3443POPC   C2B46844  35.405  42.060   6.581
 3443POPC   C3B46845  35.585  42.065   7.023
 3443POPC   C4B46846  35.838  42.212   7.426
 3444POPC   NC346847  43.811  30.915   5.401
 3444POPC   PO446848  44.173  30.340   5.317
 3444POPC   GL146849  44.077  30.578   5.721
 3444POPC   GL246850  44.149  30.900   5.795
 3444POPC   C1A46851  43.848  30.491   6.118
 3444POPC   D2A46852  44.006  30.375   6.536
 3444POPC   C3A46853  43.739  30.451   6.913
 3444POPC   C4A46854  43.919  30.631   7.291
 3444POPC   C1B46855  43.807  30.980   6.117
 3444POPC   C2B46856  43.661  30.810   6.544
 3444POPC   C3B46857  43.682  30.996   6.989
 3444POPC   C4B46858  43.650  31.010   7.469
 3445POPC   NC346859  24.636  43.215   5.422
 3445POPC   PO446860  24.104  42.781   5.497
 3445POPC   GL146861  24.260  43.095   5.782
 3445POPC   GL246862  24.595  43.056   5.904
 3445POPC   C1A46863  24.201  43.083   6.229
 3445POPC   D2A46864  24.464  43.103   6.593
 3445POPC   C3A46865  24.313  43.035   6.969
 3445POPC   C4A46866  24.241  43.371   7.154
 3445POPC   C1B46867  24.847  43.071   6.259
 3445POPC   C2B46868  24.942  43.307   6.605
 3445POPC   C3B46869  24.806  43.211   6.992
 3445POPC   C4B46870  24.884  42.797   7.129
 3446POPC   NC346871  26.242  14.316   5.396
 3446POPC   PO446872  25.669  14.770   5.361
 3446POPC   GL146873  25.863  14.474   5.712
 3446POPC   GL246874  25.687  14.184   5.830
 3446POPC   C1A46875  26.139  14.270   6.073
 3446POPC   D2A46876  26.224  14.433   6.495
 3446POPC   C3A46877  26.201  14.252   6.912
 3446POPC   C4A46878  26.129  14.623   7.093
 3446POPC   C1B46879  25.673  14.418   6.223
 3446POPC   C2B46880  25.748  14.301   6.652
 3446POPC   C3B46881  25.668  14.440   7.055
 3446POPC   C4B46882  25.777  14.397   7.486
 3447POPC   NC346883  35.961  39.572   5.643
 3447POPC   PO446884  36.137  38.989   5.503
 3447POPC   GL146885  36.128  39.169   5.901
 3447POPC   GL246886  36.449  39.145   5.917
 3447POPC   C1A46887  36.066  39.035   6.326
 3447POPC   D2A46888  35.977  38.746   6.697
 3447POPC   C3A46889  36.081  38.974   7.078
 3447POPC   C4A46890  36.006  39.375   7.221
 3447POPC   C1B46891  36.580  39.028   6.285
 3447POPC   C2B46892  36.439  39.028   6.687
 3447POPC   C3B46893  36.612  38.909   7.041
 3447POPC   C4B46894  36.481  38.979   7.428
 3448POPC   NC346895  14.607  32.999   5.412
 3448POPC   PO446896  13.988  33.080   5.727
 3448POPC   GL146897  14.371  32.974   5.888
 3448POPC   GL246898  14.606  33.242   5.884
 3448POPC   C1A46899  14.399  32.936   6.309
 3448POPC   D2A46900  14.097  32.963   6.627
 3448POPC   C3A46901  14.313  32.845   6.993
 3448POPC   C4A46902  14.734  32.981   7.097
 3448POPC   C1B46903  14.321  33.465   6.192
 3448POPC   C2B46904  14.222  33.450   6.659
 3448POPC   C3B46905  14.384  33.362   7.087
 3448POPC   C4B46906  14.655  33.285   7.483
 3449POPC   NC346907  20.851  44.050   5.459
 3449POPC   PO446908  20.419  43.546   5.510
 3449POPC   GL146909  20.616  43.762   5.853
 3449POPC   GL246910  20.609  44.142   5.892
 3449POPC   C1A46911  20.706  43.736   6.301
 3449POPC   D2A46912  20.446  43.669   6.711
 3449POPC   C3A46913  20.473  43.649   7.211
 3449POPC   C4A46914  20.446  44.012   7.551
 3449POPC   C1B46915  20.780  44.241   6.282
 3449POPC   C2B46916  20.831  44.022   6.681
 3449POPC   C3B46917  20.595  44.095   7.024
 3449POPC   C4B46918  20.725  44.384   7.322
 3450POPC   NC346919   6.866  28.910   5.409
 3450POPC   PO446920   6.468  29.435   5.534
 3450POPC   GL146921   6.780  29.266   5.778
 3450POPC   GL246922   6.628  28.945   5.865
 3450POPC   C1A46923   6.851  29.295   6.219
 3450POPC   D2A46924   6.843  29.102   6.637
 3450POPC   C3A46925   6.580  29.270   6.971
 3450POPC   C4A46926   6.174  29.352   7.223
 3450POPC   C1B46927   6.827  28.758   6.237
 3450POPC   C2B46928   6.662  28.594   6.628
 3450POPC   C3B46929   6.435  28.762   6.946
 3450POPC   C4B46930   6.454  28.920   7.323
 3451POPC   NC346931  39.071  37.855   5.016
 3451POPC   PO446932  39.057  37.466   5.432
 3451POPC   GL146933  39.040  37.690   5.863
 3451POPC   GL246934  39.385  37.719   5.948
 3451POPC   C1A46935  39.040  37.875   6.306
 3451POPC   D2A46936  39.214  37.809   6.742
 3451POPC   C3A46937  39.009  37.901   7.166
 3451POPC   C4A46938  39.234  38.083   7.541
 3451POPC   C1B46939  39.598  37.847   6.335
 3451POPC   C2B46940  39.738  37.859   6.756
 3451POPC   C3B46941  39.547  37.885   7.167
 3451POPC   C4B46942  39.725  37.905   7.587
 3452POPC   NC346943  17.326  23.956   5.404
 3452POPC   PO446944  17.482  23.360   5.432
 3452POPC   GL146945  17.624  23.476   5.858
 3452POPC   GL246946  17.505  23.819   5.878
 3452POPC   C1A46947  17.701  23.565   6.311
 3452POPC   D2A46948  17.660  23.881   6.645
 3452POPC   C3A46949  17.542  23.692   7.029
 3452POPC   C4A46950  17.700  23.540   7.386
 3452POPC   C1B46951  17.376  24.083   6.225
 3452POPC   C2B46952  17.161  24.025   6.643
 3452POPC   C3B46953  17.341  24.154   7.057
 3452POPC   C4B46954  17.384  24.117   7.543
 3453POPC   NC346955   3.091  39.402   5.324
 3453POPC   PO446956   2.470  39.009   5.497
 3453POPC   GL146957   2.796  39.214   5.721
 3453POPC   GL246958   3.013  38.908   5.792
 3453POPC   C1A46959   2.706  39.408   6.118
 3453POPC   D2A46960   2.458  39.208   6.440
 3453POPC   C3A46961   2.727  39.076   6.748
 3453POPC   C4A46962   2.653  39.162   7.143
 3453POPC   C1B46963   3.087  39.100   6.229
 3453POPC   C2B46964   3.102  39.435   6.569
 3453POPC   C3B46965   3.119  39.336   7.009
 3453POPC   C4B46966   3.074  38.893   7.178
 3454POPC   NC346967  11.546   8.955   5.376
 3454POPC   PO446968  11.091   9.351   5.532
 3454POPC   GL146969  11.241   9.066   5.862
 3454POPC   GL246970  11.467   8.754   5.850
 3454POPC   C1A46971  11.437   9.042   6.275
 3454POPC   D2A46972  11.716   9.015   6.601
 3454POPC   C3A46973  11.464   9.037   6.913
 3454POPC   C4A46974  11.423   8.992   7.310
 3454POPC   C1B46975  11.262   8.554   6.220
 3454POPC   C2B46976  11.350   8.598   6.673
 3454POPC   C3B46977  11.305   8.540   7.120
 3454POPC   C4B46978  11.237   8.554   7.585
 3455POPC   NC346979  15.179  30.700   5.562
 3455POPC   PO446980  15.622  30.982   5.325
 3455POPC   GL146981  15.565  30.974   5.824
 3455POPC   GL246982  15.260  31.074   5.899
 3455POPC   C1A46983  15.431  30.873   6.318
 3455POPC   D2A46984  15.155  30.622   6.606
 3455POPC   C3A46985  15.154  30.699   7.064
 3455POPC   C4A46986  15.273  30.429   7.457
 3455POPC   C1B46987  14.989  31.184   6.219
 3455POPC   C2B46988  15.008  31.107   6.659
 3455POPC   C3B46989  15.066  31.238   7.083
 3455POPC   C4B46990  14.794  31.137   7.405
 3456POPC   NC346991  14.327  18.584   5.439
 3456POPC   PO446992  14.138  19.189   5.344
 3456POPC   GL146993  14.439  19.017   5.678
 3456POPC   GL246994  14.155  18.974   5.872
 3456POPC   C1A46995  14.574  18.796   6.078
 3456POPC   D2A46996  14.573  18.990   6.492
 3456POPC   C3A46997  14.791  18.834   6.843
 3456POPC   C4A46998  14.724  18.934   7.266
 3456POPC   C1B46999  14.421  19.304   6.118
 3456POPC   C2B47000  14.460  19.511   6.535
 3456POPC   C3B47001  14.480  19.270   6.929
 3456POPC   C4B47002  14.408  19.335   7.319
 3457POPC   NC347003  16.304  38.706   5.483
 3457POPC   PO447004  16.979  38.467   5.385
 3457POPC   GL147005  16.953  38.284   5.769
 3457POPC   GL247006  16.593  38.292   5.828
 3457POPC   C1A47007  17.017  38.414   6.185
 3457POPC   D2A47008  16.781  38.275   6.546
 3457POPC   C3A47009  16.771  38.555   6.895
 3457POPC   C4A47010  16.823  38.385   7.311
 3457POPC   C1B47011  16.387  38.033   6.171
 3457POPC   C2B47012  16.153  38.157   6.566
 3457POPC   C3B47013  16.393  38.215   6.977
 3457POPC   C4B47014  16.392  38.622   7.231
 3458POPC   NC347015  23.102  35.475   5.353
 3458POPC   PO447016  22.589  35.829   5.731
 3458POPC   GL147017  22.812  35.441   5.868
 3458POPC   GL247018  23.182  35.341   5.829
 3458POPC   C1A47019  22.882  35.335   6.317
 3458POPC   D2A47020  22.680  35.092   6.666
 3458POPC   C3A47021  22.699  35.271   7.094
 3458POPC   C4A47022  22.740  35.068   7.498
 3458POPC   C1B47023  23.354  35.140   6.180
 3458POPC   C2B47024  23.214  35.046   6.587
 3458POPC   C3B47025  23.225  35.293   6.971
 3458POPC   C4B47026  23.224  35.123   7.396
 3459POPC   NC347027  36.491  18.933   5.528
 3459POPC   PO447028  36.191  19.425   5.390
 3459POPC   GL147029  35.972  19.198   5.721
 3459POPC   GL247030  36.019  18.820   5.749
 3459POPC   C1A47031  36.132  19.186   6.145
 3459POPC   D2A47032  36.244  19.437   6.506
 3459POPC   C3A47033  36.384  19.186   6.845
 3459POPC   C4A47034  36.206  19.119   7.232
 3459POPC   C1B47035  36.084  18.675   6.174
 3459POPC   C2B47036  35.986  18.885   6.555
 3459POPC   C3B47037  36.005  18.747   6.959
 3459POPC   C4B47038  36.143  18.620   7.358
 3460POPC   NC347039  19.728  14.696   5.496
 3460POPC   PO447040  19.385  15.268   5.559
 3460POPC   GL147041  19.554  15.003   5.891
 3460POPC   GL247042  19.915  15.046   5.822
 3460POPC   C1A47043  19.483  14.840   6.322
 3460POPC   D2A47044  19.356  15.018   6.748
 3460POPC   C3A47045  19.699  15.137   7.025
 3460POPC   C4A47046  19.916  15.502   7.202
 3460POPC   C1B47047  20.011  14.829   6.195
 3460POPC   C2B47048  19.947  14.844   6.629
 3460POPC   C3B47049  20.129  14.817   7.033
 3460POPC   C4B47050  20.087  15.055   7.381
 3461POPC   NC347051  35.805  26.292   5.401
 3461POPC   PO447052  36.400  25.917   5.503
 3461POPC   GL147053  36.064  26.022   5.792
 3461POPC   GL247054  36.156  26.355   5.792
 3461POPC   C1A47055  35.890  26.102   6.239
 3461POPC   D2A47056  35.737  26.220   6.671
 3461POPC   C3A47057  35.694  25.924   6.999
 3461POPC   C4A47058  36.059  25.725   7.145
 3461POPC   C1B47059  36.448  26.208   6.126
 3461POPC   C2B47060  36.404  25.967   6.501
 3461POPC   C3B47061  36.415  26.059   6.926
 3461POPC   C4B47062  36.077  26.267   7.102
 3462POPC   NC347063  35.682  38.758   5.474
 3462POPC   PO447064  35.130  38.365   5.451
 3462POPC   GL147065  35.453  38.306   5.801
 3462POPC   GL247066  35.670  38.552   5.926
 3462POPC   C1A47067  35.589  38.099   6.184
 3462POPC   D2A47068  35.599  38.285   6.607
 3462POPC   C3A47069  35.210  38.351   6.849
 3462POPC   C4A47070  35.251  38.511   7.238
 3462POPC   C1B47071  35.619  38.772   6.289
 3462POPC   C2B47072  35.442  38.776   6.690
 3462POPC   C3B47073  35.519  38.974   7.062
 3462POPC   C4B47074  35.261  38.977   7.449
 3463POPC   NC347075  41.691  31.007   5.485
 3463POPC   PO447076  41.279  30.477   5.438
 3463POPC   GL147077  41.403  30.670   5.846
 3463POPC   GL247078  41.097  30.877   5.845
 3463POPC   C1A47079  41.532  30.794   6.320
 3463POPC   D2A47080  41.766  31.007   6.678
 3463POPC   C3A47081  41.707  30.826   7.095
 3463POPC   C4A47082  41.835  30.642   7.537
 3463POPC   C1B47083  41.014  30.732   6.260
 3463POPC   C2B47084  40.953  30.604   6.673
 3463POPC   C3B47085  41.213  30.648   7.019
 3463POPC   C4B47086  41.338  30.702   7.429
 3464POPC   NC347087  10.257  17.616   5.409
 3464POPC   PO447088   9.575  17.758   5.369
 3464POPC   GL147089   9.803  17.562   5.661
 3464POPC   GL247090   9.967  17.865   5.760
 3464POPC   C1A47091   9.780  17.510   6.110
 3464POPC   D2A47092   9.745  17.655   6.541
 3464POPC   C3A47093   9.606  17.368   6.866
 3464POPC   C4A47094   9.651  17.526   7.289
 3464POPC   C1B47095  10.278  17.694   6.088
 3464POPC   C2B47096  10.272  17.648   6.555
 3464POPC   C3B47097  10.093  17.481   6.958
 3464POPC   C4B47098  10.143  17.415   7.418
 3465POPC   NC347099  25.697  10.548   5.396
 3465POPC   PO447100  26.189  10.086   5.372
 3465POPC   GL147101  26.017  10.289   5.738
 3465POPC   GL247102  26.101  10.653   5.713
 3465POPC   C1A47103  25.861  10.385   6.173
 3465POPC   D2A47104  26.050  10.293   6.606
 3465POPC   C3A47105  25.880  10.566   6.999
 3465POPC   C4A47106  25.772  10.503   7.459
 3465POPC   C1B47107  26.017  10.868   6.109
 3465POPC   C2B47108  26.066  10.782   6.547
 3465POPC   C3B47109  26.367  10.556   6.890
 3465POPC   C4B47110  26.282  10.636   7.333
 3466POPC   NC347111   5.290  28.117   5.576
 3466POPC   PO447112   4.875  28.507   5.195
 3466POPC   GL147113   4.866  28.433   5.696
 3466POPC   GL247114   4.979  28.137   5.960
 3466POPC   C1A47115   4.932  28.601   6.142
 3466POPC   D2A47116   5.134  28.513   6.561
 3466POPC   C3A47117   4.935  28.429   6.940
 3466POPC   C4A47118   5.031  28.570   7.298
 3466POPC   C1B47119   5.376  28.264   6.197
 3466POPC   C2B47120   5.563  28.262   6.605
 3466POPC   C3B47121   5.409  28.231   7.015
 3466POPC   C4B47122   5.222  28.117   7.389
 3467POPC   NC347123  26.656  11.790   5.317
 3467POPC   PO447124  27.091  12.314   5.487
 3467POPC   GL147125  26.700  12.145   5.679
 3467POPC   GL247126  26.703  12.380   5.883
 3467POPC   C1A47127  26.532  11.952   6.103
 3467POPC   D2A47128  26.746  11.894   6.538
 3467POPC   C3A47129  26.591  12.104   6.934
 3467POPC   C4A47130  26.673  12.009   7.371
 3467POPC   C1B47131  27.008  12.196   6.147
 3467POPC   C2B47132  27.078  12.284   6.568
 3467POPC   C3B47133  27.104  12.034   6.932
 3467POPC   C4B47134  27.130  12.207   7.341
 3468POPC   NC347135  44.834  14.455   5.424
 3468POPC   PO447136  44.742  13.811   5.305
 3468POPC   GL147137  44.728  14.065   5.729
 3468POPC   GL247138   0.031  14.051   5.842
 3468POPC   C1A47139  44.773  14.398   6.123
 3468POPC   D2A47140  44.911  14.488   6.603
 3468POPC   C3A47141  44.646  14.630   6.951
 3468POPC   C4A47142  44.515  14.484   7.385
 3468POPC   C1B47143   0.041  13.996   6.271
 3468POPC   C2B47144  44.689  14.037   6.553
 3468POPC   C3B47145  44.723  14.139   7.014
 3468POPC   C4B47146  44.995  14.263   7.370
 3469POPC   NC347147  14.262  38.493   5.483
 3469POPC   PO447148  14.844  38.470   5.160
 3469POPC   GL147149  14.730  38.371   5.614
 3469POPC   GL247150  14.651  38.707   5.803
 3469POPC   C1A47151  14.762  38.218   6.074
 3469POPC   D2A47152  14.562  38.264   6.495
 3469POPC   C3A47153  14.680  38.219   6.947
 3469POPC   C4A47154  14.405  38.201   7.300
 3469POPC   C1B47155  14.326  38.602   6.151
 3469POPC   C2B47156  14.114  38.516   6.568
 3469POPC   C3B47157  14.257  38.590   7.002
 3469POPC   C4B47158  14.251  38.827   7.420
 3470POPC   NC347159  20.835  28.313   5.395
 3470POPC   PO447160  20.327  27.916   5.367
 3470POPC   GL147161  20.441  28.181   5.735
 3470POPC   GL247162  20.781  28.153   5.881
 3470POPC   C1A47163  20.388  28.260   6.197
 3470POPC   D2A47164  20.666  28.416   6.593
 3470POPC   C3A47165  20.498  28.467   7.025
 3470POPC   C4A47166  20.374  28.411   7.442
 3470POPC   C1B47167  21.005  28.174   6.268
 3470POPC   C2B47168  21.149  28.088   6.673
 3470POPC   C3B47169  20.976  28.280   7.024
 3470POPC   C4B47170  20.873  28.308   7.428
 3471POPC   NC347171   0.736   0.828   5.381
 3471POPC   PO447172   0.377   0.200   5.290
 3471POPC   GL147173   0.440   0.477   5.653
 3471POPC   GL247174   0.778   0.479   5.742
 3471POPC   C1A47175   0.411   0.518   6.109
 3471POPC   D2A47176   0.302   0.254   6.460
 3471POPC   C3A47177   0.041   0.496   6.730
 3471POPC   C4A47178   0.137   0.621   7.136
 3471POPC   C1B47179   0.922   0.482   6.153
 3471POPC   C2B47180   0.744   0.522   6.580
 3471POPC   C3B47181   0.618   0.386   7.011
 3471POPC   C4B47182   0.719   0.245   7.472
 3472POPC   NC347183  22.803   9.188   5.458
 3472POPC   PO447184  23.344   8.759   5.448
 3472POPC   GL147185  23.064   8.900   5.759
 3472POPC   GL247186  22.806   8.687   5.642
 3472POPC   C1A47187  22.981   9.189   6.144
 3472POPC   D2A47188  22.804   9.144   6.582
 3472POPC   C3A47189  23.000   8.885   6.889
 3472POPC   C4A47190  23.120   9.104   7.238
 3472POPC   C1B47191  22.850   8.631   6.118
 3472POPC   C2B47192  22.667   8.655   6.540
 3472POPC   C3B47193  22.526   8.662   6.979
 3472POPC   C4B47194  22.717   8.795   7.367
 3473POPC   NC347195   2.361   4.103   5.414
 3473POPC   PO447196   1.756   3.887   5.651
 3473POPC   GL147197   1.767   4.291   5.829
 3473POPC   GL247198   2.080   4.511   5.795
 3473POPC   C1A47199   1.958   4.219   6.202
 3473POPC   D2A47200   1.816   4.291   6.573
 3473POPC   C3A47201   1.827   4.510   6.922
 3473POPC   C4A47202   1.991   4.320   7.242
 3473POPC   C1B47203   2.026   4.715   6.240
 3473POPC   C2B47204   2.259   4.680   6.672
 3473POPC   C3B47205   2.408   4.619   7.138
 3473POPC   C4B47206   2.267   4.590   7.594
 3474POPC   NC347207  30.969  36.241   5.242
 3474POPC   PO447208  31.649  35.976   5.374
 3474POPC   GL147209  31.483  36.231   5.740
 3474POPC   GL247210  31.733  36.470   5.877
 3474POPC   C1A47211  31.428  36.167   6.202
 3474POPC   D2A47212  31.199  36.158   6.583
 3474POPC   C3A47213  31.382  36.083   6.977
 3474POPC   C4A47214  31.388  36.286   7.400
 3474POPC   C1B47215  31.892  36.348   6.244
 3474POPC   C2B47216  31.707  36.377   6.631
 3474POPC   C3B47217  31.868  36.219   6.985
 3474POPC   C4B47218  32.171  35.959   7.099
 3475POPC   NC347219  20.832  22.425   5.321
 3475POPC   PO447220  21.412  22.420   5.527
 3475POPC   GL147221  21.530  22.341   5.945
 3475POPC   GL247222  21.720  22.665   5.962
 3475POPC   C1A47223  21.378  22.167   6.375
 3475POPC   D2A47224  21.235  22.366   6.783
 3475POPC   C3A47225  21.343  22.134   7.169
 3475POPC   C4A47226  21.472  21.876   7.532
 3475POPC   C1B47227  21.826  22.435   6.343
 3475POPC   C2B47228  21.724  22.521   6.735
 3475POPC   C3B47229  21.564  22.601   7.126
 3475POPC   C4B47230  21.624  22.382   7.517
 3476POPC   NC347231  17.914   1.536   5.421
 3476POPC   PO447232  18.348   1.073   5.376
 3476POPC   GL147233  18.394   1.152   5.802
 3476POPC   GL247234  18.091   1.330   5.870
 3476POPC   C1A47235  18.320   0.994   6.219
 3476POPC   D2A47236  18.191   1.030   6.645
 3476POPC   C3A47237  18.495   1.083   6.944
 3476POPC   C4A47238  18.563   0.786   7.244
 3476POPC   C1B47239  17.886   1.258   6.285
 3476POPC   C2B47240  17.791   1.323   6.725
 3476POPC   C3B47241  18.014   1.285   7.151
 3476POPC   C4B47242  18.024   1.431   7.618
 3477POPC   NC347243  38.479  38.510   5.484
 3477POPC   PO447244  38.015  38.850   5.794
 3477POPC   GL147245  38.136  38.433   5.895
 3477POPC   GL247246  38.470  38.256   5.923
 3477POPC   C1A47247  38.237  38.479   6.331
 3477POPC   D2A47248  38.380  38.797   6.604
 3477POPC   C3A47249  38.382  38.713   7.017
 3477POPC   C4A47250  38.104  38.549   7.278
 3477POPC   C1B47251  38.483  38.051   6.319
 3477POPC   C2B47252  38.478  38.253   6.742
 3477POPC   C3B47253  38.505  38.234   7.181
 3477POPC   C4B47254  38.726  38.158   7.557
 3478POPC   NC347255  23.219  36.211   5.360
 3478POPC   PO447256  22.761  35.759   5.204
 3478POPC   GL147257  23.079  35.847   5.671
 3478POPC   GL247258  22.999  36.153   5.826
 3478POPC   C1A47259  23.166  35.750   6.141
 3478POPC   D2A47260  23.391  35.835   6.559
 3478POPC   C3A47261  23.170  35.812   6.945
 3478POPC   C4A47262  23.021  35.608   7.320
 3478POPC   C1B47263  23.078  36.300   6.227
 3478POPC   C2B47264  23.196  36.300   6.646
 3478POPC   C3B47265  23.011  36.319   7.074
 3478POPC   C4B47266  23.034  36.403   7.537
 3479POPC   NC347267  11.676  12.067   5.642
 3479POPC   PO447268  11.011  12.389   5.599
 3479POPC   GL147269  11.311  12.356   5.893
 3479POPC   GL247270  11.244  12.017   5.947
 3479POPC   C1A47271  11.392  12.362   6.333
 3479POPC   D2A47272  11.659  12.225   6.672
 3479POPC   C3A47273  11.350  12.309   6.979
 3479POPC   C4A47274  11.228  12.137   7.369
 3479POPC   C1B47275  11.120  11.664   6.226
 3479POPC   C2B47276  11.267  11.595   6.658
 3479POPC   C3B47277  11.478  11.804   7.008
 3479POPC   C4B47278  11.430  11.700   7.439
 3480POPC   NC347279  36.394  42.352   4.997
 3480POPC   PO447280  35.797  42.313   5.388
 3480POPC   GL147281  35.915  42.166   5.784
 3480POPC   GL247282  36.098  41.850   5.743
 3480POPC   C1A47283  35.996  42.371   6.201
 3480POPC   D2A47284  35.830  42.332   6.623
 3480POPC   C3A47285  35.917  42.524   7.005
 3480POPC   C4A47286  36.273  42.507   7.245
 3480POPC   C1B47287  36.014  41.847   6.198
 3480POPC   C2B47288  35.924  41.825   6.653
 3480POPC   C3B47289  36.107  42.042   7.024
 3480POPC   C4B47290  36.348  42.068   7.462
 3481POPC   NC347291   1.809   6.296   5.615
 3481POPC   PO447292   2.243   6.809   5.443
 3481POPC   GL147293   2.200   6.597   5.837
 3481POPC   GL247294   1.896   6.742   5.889
 3481POPC   C1A47295   2.112   6.591   6.320
 3481POPC   D2A47296   2.082   6.398   6.739
 3481POPC   C3A47297   2.172   6.664   7.130
 3481POPC   C4A47298   2.088   6.920   7.520
 3481POPC   C1B47299   1.635   6.783   6.232
 3481POPC   C2B47300   1.518   6.653   6.590
 3481POPC   C3B47301   1.680   6.635   6.977
 3481POPC   C4B47302   1.635   6.851   7.328
 3482POPC   NC347303   2.241  15.095   5.371
 3482POPC   PO447304   1.683  15.512   5.521
 3482POPC   GL147305   1.970  15.286   5.792
 3482POPC   GL247306   2.178  14.978   5.872
 3482POPC   C1A47307   1.990  15.305   6.247
 3482POPC   D2A47308   2.164  14.947   6.470
 3482POPC   C3A47309   2.073  14.887   6.888
 3482POPC   C4A47310   1.923  15.118   7.252
 3482POPC   C1B47311   1.761  14.882   6.057
 3482POPC   C2B47312   1.668  14.785   6.486
 3482POPC   C3B47313   1.589  14.838   6.920
 3482POPC   C4B47314   1.728  14.607   7.259
 3483POPC   NC347315   4.723  23.895   5.295
 3483POPC   PO447316   5.223  23.531   5.229
 3483POPC   GL147317   5.004  23.663   5.685
 3483POPC   GL247318   4.912  24.025   5.772
 3483POPC   C1A47319   5.011  23.729   6.182
 3483POPC   D2A47320   5.151  23.557   6.615
 3483POPC   C3A47321   5.425  23.730   6.937
 3483POPC   C4A47322   5.357  23.887   7.364
 3483POPC   C1B47323   4.827  24.216   6.173
 3483POPC   C2B47324   4.877  24.030   6.593
 3483POPC   C3B47325   4.975  23.957   7.026
 3483POPC   C4B47326   4.861  23.856   7.462
 3484POPC   NC347327  31.924  14.850   5.542
 3484POPC   PO447328  32.135  15.497   5.433
 3484POPC   GL147329  31.916  15.323   5.767
 3484POPC   GL247330  32.217  15.101   5.894
 3484POPC   C1A47331  31.815  15.244   6.198
 3484POPC   D2A47332  32.071  15.169   6.593
 3484POPC   C3A47333  31.896  15.157   7.021
 3484POPC   C4A47334  32.086  15.437   7.303
 3484POPC   C1B47335  32.468  14.891   6.262
 3484POPC   C2B47336  32.580  14.962   6.710
 3484POPC   C3B47337  32.391  15.060   7.135
 3484POPC   C4B47338  32.540  15.164   7.553
 3485POPC   NC347339  13.351  44.716   5.474
 3485POPC   PO447340  13.967  44.309   5.477
 3485POPC   GL147341  13.734  44.522   5.795
 3485POPC   GL247342  13.569  44.845   5.902
 3485POPC   C1A47343  13.953  44.684   6.175
 3485POPC   D2A47344  13.802  44.702   6.575
 3485POPC   C3A47345  13.973  44.531   6.917
 3485POPC   C4A47346  13.854  44.808   7.208
 3485POPC   C1B47347  13.421  44.613   6.231
 3485POPC   C2B47348  13.321  44.538   6.637
 3485POPC   C3B47349  13.360  44.801   6.985
 3485POPC   C4B47350  13.370  44.746   7.406
 3486POPC   NC347351   1.091  21.922   5.393
 3486POPC   PO447352   1.539  22.395   5.502
 3486POPC   GL147353   1.367  22.073   5.802
 3486POPC   GL247354   1.036  22.227   5.837
 3486POPC   C1A47355   1.262  22.022   6.255
 3486POPC   D2A47356   1.368  22.359   6.558
 3486POPC   C3A47357   1.274  22.194   6.930
 3486POPC   C4A47358   1.106  21.810   6.917
 3486POPC   C1B47359   0.805  22.278   6.244
 3486POPC   C2B47360   0.824  22.244   6.696
 3486POPC   C3B47361   0.791  22.141   7.152
 3486POPC   C4B47362   0.888  21.766   7.399
 3487POPC   NC347363  10.121  43.316   5.640
 3487POPC   PO447364   9.566  43.106   5.338
 3487POPC   GL147365   9.625  42.883   5.744
 3487POPC   GL247366   9.392  42.601   5.822
 3487POPC   C1A47367   9.794  43.011   6.142
 3487POPC   D2A47368   9.767  43.297   6.491
 3487POPC   C3A47369  10.006  43.171   6.838
 3487POPC   C4A47370  10.162  43.113   7.219
 3487POPC   C1B47371   9.289  42.983   6.093
 3487POPC   C2B47372   9.319  43.007   6.551
 3487POPC   C3B47373   9.500  43.171   6.926
 3487POPC   C4B47374   9.703  42.932   7.221
 3488POPC   NC347375  28.175  36.939   5.447
 3488POPC   PO447376  28.776  36.951   5.199
 3488POPC   GL147377  28.646  36.835   5.705
 3488POPC   GL247378  28.352  36.632   5.794
 3488POPC   C1A47379  28.480  36.940   6.177
 3488POPC   D2A47380  28.207  36.805   6.549
 3488POPC   C3A47381  28.338  36.993   6.902
 3488POPC   C4A47382  28.125  37.026   7.289
 3488POPC   C1B47383  28.324  36.450   6.188
 3488POPC   C2B47384  28.524  36.429   6.586
 3488POPC   C3B47385  28.327  36.496   6.960
 3488POPC   C4B47386  28.558  36.703   7.259
 3489POPC   NC347387   0.113  27.452   5.059
 3489POPC   PO447388   0.585  27.644   5.435
 3489POPC   GL147389   0.554  27.708   5.871
 3489POPC   GL247390   0.339  27.970   5.934
 3489POPC   C1A47391   0.678  27.573   6.300
 3489POPC   D2A47392   0.876  27.568   6.696
 3489POPC   C3A47393   0.616  27.495   7.049
 3489POPC   C4A47394   0.551  27.427   7.458
 3489POPC   C1B47395   0.184  27.719   6.291
 3489POPC   C2B47396   0.206  27.543   6.735
 3489POPC   C3B47397   0.100  27.501   7.215
 3489POPC   C4B47398   0.121  27.638   7.664
 3490POPC   NC347399  32.350  21.751   5.404
 3490POPC   PO447400  32.087  22.291   5.295
 3490POPC   GL147401  32.339  22.205   5.654
 3490POPC   GL247402  32.266  22.490   5.795
 3490POPC   C1A47403  32.380  22.013   6.075
 3490POPC   D2A47404  32.209  22.080   6.481
 3490POPC   C3A47405  32.352  22.023   6.908
 3490POPC   C4A47406  32.151  21.787   7.237
 3490POPC   C1B47407  32.010  22.411   6.137
 3490POPC   C2B47408  31.770  22.366   6.507
 3490POPC   C3B47409  32.007  22.403   6.870
 3490POPC   C4B47410  32.120  22.329   7.275
 3491POPC   NC347411   4.564  30.485   5.431
 3491POPC   PO447412   3.955  30.791   5.346
 3491POPC   GL147413   4.116  30.679   5.747
 3491POPC   GL247414   3.979  30.375   5.928
 3491POPC   C1A47415   4.057  30.798   6.182
 3491POPC   D2A47416   4.049  30.471   6.475
 3491POPC   C3A47417   4.200  30.656   6.811
 3491POPC   C4A47418   4.248  30.727   7.214
 3491POPC   C1B47419   4.414  30.428   6.113
 3491POPC   C2B47420   4.586  30.640   6.464
 3491POPC   C3B47421   4.698  30.565   6.886
 3491POPC   C4B47422   4.667  30.498   7.319
 3492POPC   NC347423  37.231  42.391   5.543
 3492POPC   PO447424  36.744  42.052   5.202
 3492POPC   GL147425  36.689  42.312   5.611
 3492POPC   GL247426  36.829  42.662   5.709
 3492POPC   C1A47427  36.523  42.400   6.050
 3492POPC   D2A47428  36.409  42.184   6.454
 3492POPC   C3A47429  36.710  42.243   6.791
 3492POPC   C4A47430  36.750  42.299   7.223
 3492POPC   C1B47431  37.099  42.757   6.097
 3492POPC   C2B47432  37.198  42.585   6.528
 3492POPC   C3B47433  37.110  42.621   6.961
 3492POPC   C4B47434  37.260  42.279   7.164
 3493POPC   NC347435  39.429  36.149   5.317
 3493POPC   PO447436  38.893  36.042   5.322
 3493POPC   GL147437  39.125  36.038   5.740
 3493POPC   GL247438  39.419  36.253   5.858
 3493POPC   C1A47439  39.066  36.024   6.198
 3493POPC   D2A47440  39.029  36.167   6.628
 3493POPC   C3A47441  38.983  35.867   6.961
 3493POPC   C4A47442  39.019  35.913   7.404
 3493POPC   C1B47443  39.549  36.172   6.326
 3493POPC   C2B47444  39.483  35.967   6.753
 3493POPC   C3B47445  39.366  36.166   7.139
 3493POPC   C4B47446  39.614  36.394   7.456
 3494POPC   NC347447   2.809  44.323   5.398
 3494POPC   PO447448   2.520  43.671   5.344
 3494POPC   GL147449   2.608  43.913   5.699
 3494POPC   GL247450   2.401  44.228   5.728
 3494POPC   C1A47451   2.786  43.707   6.086
 3494POPC   D2A47452   2.919  43.728   6.503
 3494POPC   C3A47453   2.960  43.424   6.821
 3494POPC   C4A47454   2.994  43.613   7.200
 3494POPC   C1B47455   2.400  44.028   6.145
 3494POPC   C2B47456   2.418  43.824   6.520
 3494POPC   C3B47457   2.621  43.831   6.910
 3494POPC   C4B47458   2.372  43.670   7.184
 3495POPC   NC347459   2.065  35.685   5.514
 3495POPC   PO447460   2.133  36.333   5.395
 3495POPC   GL147461   2.136  36.188   5.822
 3495POPC   GL247462   2.463  36.244   5.947
 3495POPC   C1A47463   1.941  36.312   6.244
 3495POPC   D2A47464   1.796  36.512   6.664
 3495POPC   C3A47465   1.979  36.305   7.006
 3495POPC   C4A47466   1.813  35.951   7.169
 3495POPC   C1B47467   2.273  35.918   6.260
 3495POPC   C2B47468   2.107  35.910   6.671
 3495POPC   C3B47469   2.317  35.907   7.058
 3495POPC   C4B47470   2.246  36.042   7.501
 3496POPC   NC347471   6.615  36.272   5.346
 3496POPC   PO447472   6.425  35.668   5.594
 3496POPC   GL147473   6.703  35.915   5.846
 3496POPC   GL247474   6.819  36.273   5.804
 3496POPC   C1A47475   6.639  35.884   6.290
 3496POPC   D2A47476   6.442  36.107   6.669
 3496POPC   C3A47477   6.649  35.976   7.045
 3496POPC   C4A47478   6.500  35.982   7.448
 3496POPC   C1B47479   6.722  36.373   6.230
 3496POPC   C2B47480   6.916  36.181   6.591
 3496POPC   C3B47481   6.809  36.420   6.917
 3496POPC   C4B47482   6.593  36.472   7.281
 3497POPC   NC347483  18.779   0.913   5.443
 3497POPC   PO447484  19.263   1.476   5.401
 3497POPC   GL147485  19.150   1.274   5.774
 3497POPC   GL247486  18.837   1.434   5.810
 3497POPC   C1A47487  19.149   1.068   6.196
 3497POPC   D2A47488  19.013   0.982   6.632
 3497POPC   C3A47489  19.300   1.036   6.957
 3497POPC   C4A47490  19.371   1.429   7.130
 3497POPC   C1B47491  18.706   1.335   6.216
 3497POPC   C2B47492  18.766   1.449   6.637
 3497POPC   C3B47493  18.865   1.435   7.066
 3497POPC   C4B47494  18.986   1.093   7.348
 3498POPC   NC347495   2.014  44.437   5.460
 3498POPC   PO447496   1.846   0.090   5.541
 3498POPC   GL147497   1.914  44.808   5.843
 3498POPC   GL247498   2.254  44.768   5.834
 3498POPC   C1A47499   1.970  44.747   6.267
 3498POPC   D2A47500   2.066  44.778   6.662
 3498POPC   C3A47501   1.802  44.527   6.858
 3498POPC   C4A47502   1.799  44.727   7.217
 3498POPC   C1B47503   2.443  44.541   6.152
 3498POPC   C2B47504   2.585  44.603   6.567
 3498POPC   C3B47505   2.496  44.487   6.983
 3498POPC   C4B47506   2.324  44.754   7.296
 3499POPC   NC347507  32.913   0.131   5.561
 3499POPC   PO447508  33.237  44.493   5.388
 3499POPC   GL147509  33.150  44.709   5.766
 3499POPC   GL247510  33.470  44.679   5.862
 3499POPC   C1A47511  33.000  44.826   6.192
 3499POPC   D2A47512  32.835  44.785   6.606
 3499POPC   C3A47513  33.027  44.935   6.959
 3499POPC   C4A47514  33.069  44.727   7.342
 3499POPC   C1B47515  33.446  44.581   6.245
 3499POPC   C2B47516  33.362  44.746   6.601
 3499POPC   C3B47517  33.360  44.541   6.971
 3499POPC   C4B47518  33.378  44.288   7.326
 3500POPC   NC347519  20.803   8.681   5.509
 3500POPC   PO447520  20.719   9.372   5.484
 3500POPC   GL147521  20.803   9.092   5.808
 3500POPC   GL247522  20.520   8.904   5.891
 3500POPC   C1A47523  20.851   9.110   6.254
 3500POPC   D2A47524  20.716   8.996   6.673
 3500POPC   C3A47525  20.667   9.253   7.020
 3500POPC   C4A47526  20.977   9.386   7.338
 3500POPC   C1B47527  20.352   9.031   6.316
 3500POPC   C2B47528  20.199   9.096   6.760
 3500POPC   C3B47529  20.253   8.887   7.153
 3500POPC   C4B47530  20.283   9.012   7.574
 3501POPC   NC347531   4.406  36.667   5.241
 3501POPC   PO447532   5.146  36.704   5.251
 3501POPC   GL147533   5.128  36.886   5.714
 3501POPC   GL247534   4.942  36.685   5.952
 3501POPC   C1A47535   5.194  37.150   6.123
 3501POPC   D2A47536   5.384  37.064   6.576
 3501POPC   C3A47537   5.215  37.175   7.018
 3501POPC   C4A47538   5.170  37.048   7.480
 3501POPC   C1B47539   4.953  36.777   6.373
 3501POPC   C2B47540   4.956  36.793   6.816
 3501POPC   C3B47541   5.041  36.598   7.230
 3501POPC   C4B47542   4.883  36.644   7.668
 3502POPC   NC347543   5.151  15.645   5.319
 3502POPC   PO447544   4.879  15.062   5.330
 3502POPC   GL147545   5.087  15.241   5.681
 3502POPC   GL247546   5.444  15.379   5.698
 3502POPC   C1A47547   4.996  15.117   6.111
 3502POPC   D2A47548   4.989  14.787   6.431
 3502POPC   C3A47549   5.205  14.934   6.806
 3502POPC   C4A47550   4.990  15.131   7.159
 3502POPC   C1B47551   5.372  15.464   6.161
 3502POPC   C2B47552   5.188  15.514   6.592
 3502POPC   C3B47553   5.185  15.614   7.036
 3502POPC   C4B47554   5.171  15.465   7.488
 3503POPC   NC347555  30.316  10.014   5.453
 3503POPC   PO447556  29.682   9.598   5.369
 3503POPC   GL147557  29.920   9.793   5.701
 3503POPC   GL247558  30.099   9.526   5.818
 3503POPC   C1A47559  29.966   9.901   6.153
 3503POPC   D2A47560  29.732  10.128   6.494
 3503POPC   C3A47561  29.969  10.133   6.846
 3503POPC   C4A47562  30.274  10.254   7.162
 3503POPC   C1B47563  29.705   9.429   6.019
 3503POPC   C2B47564  29.663   9.464   6.460
 3503POPC   C3B47565  29.760   9.517   6.908
 3503POPC   C4B47566  30.071   9.477   7.269
 3504POPC   NC347567   9.144  44.463   5.323
 3504POPC   PO447568   8.948   0.092   5.334
 3504POPC   GL147569   9.059  44.912   5.782
 3504POPC   GL247570   9.119  44.577   5.815
 3504POPC   C1A47571   8.873  44.688   6.230
 3504POPC   D2A47572   8.637  44.683   6.636
 3504POPC   C3A47573   8.925  44.647   6.983
 3504POPC   C4A47574   8.935  44.598   7.421
 3504POPC   C1B47575   9.389  44.425   6.174
 3504POPC   C2B47576   9.245  44.468   6.575
 3504POPC   C3B47577   9.256  44.244   6.954
 3504POPC   C4B47578   9.411  44.447   7.297
 3505POPC   NC347579  28.323  15.881   5.098
 3505POPC   PO447580  28.255  15.447   5.626
 3505POPC   GL147581  28.500  15.755   5.876
 3505POPC   GL247582  28.653  16.079   5.728
 3505POPC   C1A47583  28.403  15.760   6.331
 3505POPC   D2A47584  28.527  15.623   6.760
 3505POPC   C3A47585  28.330  15.849   7.089
 3505POPC   C4A47586  28.006  15.779   7.392
 3505POPC   C1B47587  28.465  16.276   6.126
 3505POPC   C2B47588  28.225  16.283   6.516
 3505POPC   C3B47589  28.349  16.348   6.927
 3505POPC   C4B47590  28.660  16.373   7.202
 3506POPC   NC347591  24.566  12.497   5.340
 3506POPC   PO447592  24.905  13.062   5.421
 3506POPC   GL147593  24.786  12.904   5.806
 3506POPC   GL247594  24.843  12.560   5.804
 3506POPC   C1A47595  24.511  13.037   6.150
 3506POPC   D2A47596  24.265  12.931   6.513
 3506POPC   C3A47597  24.519  13.034   6.860
 3506POPC   C4A47598  24.604  13.217   7.258
 3506POPC   C1B47599  24.459  12.534   6.040
 3506POPC   C2B47600  24.474  12.469   6.469
 3506POPC   C3B47601  24.347  12.535   6.864
 3506POPC   C4B47602  24.568  12.663   7.211
 3507POPC   NC347603  43.011  11.467   5.484
 3507POPC   PO447604  43.138  10.833   5.377
 3507POPC   GL147605  43.300  10.918   5.798
 3507POPC   GL247606  42.962  11.058   5.899
 3507POPC   C1A47607  43.354  11.218   6.172
 3507POPC   D2A47608  43.119  11.265   6.551
 3507POPC   C3A47609  43.278  11.274   6.954
 3507POPC   C4A47610  42.976  11.197   7.289
 3507POPC   C1B47611  42.908  11.499   6.126
 3507POPC   C2B47612  43.009  11.775   6.491
 3507POPC   C3B47613  42.914  11.697   6.924
 3507POPC   C4B47614  42.624  11.603   7.263
 3508POPC   NC347615  27.845   8.634   5.738
 3508POPC   PO447616  27.348   8.171   5.504
 3508POPC   GL147617  27.456   7.959   5.865
 3508POPC   GL247618  27.718   8.169   5.948
 3508POPC   C1A47619  27.432   7.997   6.311
 3508POPC   D2A47620  27.680   8.074   6.667
 3508POPC   C3A47621  27.434   8.260   6.970
 3508POPC   C4A47622  27.441   8.250   7.399
 3508POPC   C1B47623  27.714   8.464   6.341
 3508POPC   C2B47624  27.851   8.554   6.782
 3508POPC   C3B47625  27.898   8.314   7.189
 3508POPC   C4B47626  27.900   8.306   7.682
 3509POPC   NC347627  43.904  41.371   5.379
 3509POPC   PO447628  44.143  41.921   5.710
 3509POPC   GL147629  43.844  41.657   5.933
 3509POPC   GL247630  43.664  41.336   5.833
 3509POPC   C1A47631  43.931  41.654   6.382
 3509POPC   D2A47632  43.945  41.953   6.731
 3509POPC   C3A47633  43.932  41.707   7.080
 3509POPC   C4A47634  43.752  41.715   7.515
 3509POPC   C1B47635  43.746  41.177   6.286
 3509POPC   C2B47636  43.776  41.265   6.763
 3509POPC   C3B47637  43.520  41.416   7.148
 3509POPC   C4B47638  43.533  41.283   7.590
 3510POPC   NC347639   7.196  33.227   5.405
 3510POPC   PO447640   6.614  32.856   5.493
 3510POPC   GL147641   6.816  33.148   5.764
 3510POPC   GL247642   7.082  32.892   5.779
 3510POPC   C1A47643   6.748  33.300   6.206
 3510POPC   D2A47644   6.870  33.090   6.631
 3510POPC   C3A47645   6.730  33.291   7.024
 3510POPC   C4A47646   6.359  33.043   7.188
 3510POPC   C1B47647   7.134  32.972   6.190
 3510POPC   C2B47648   7.234  32.718   6.538
 3510POPC   C3B47649   7.121  32.632   6.923
 3510POPC   C4B47650   6.825  32.827   7.213
 3511POPC   NC347651  41.371  41.597   5.467
 3511POPC   PO447652  41.977  41.875   5.464
 3511POPC   GL147653  41.794  42.027   5.857
 3511POPC   GL247654  41.477  41.921   5.841
 3511POPC   C1A47655  41.672  41.947   6.312
 3511POPC   D2A47656  41.559  41.526   6.471
 3511POPC   C3A47657  41.461  41.504   6.929
 3511POPC   C4A47658  41.426  41.174   7.232
 3511POPC   C1B47659  41.205  41.781   6.157
 3511POPC   C2B47660  41.163  41.810   6.609
 3511POPC   C3B47661  40.936  41.712   6.966
 3511POPC   C4B47662  41.086  41.522   7.332
 3512POPC   NC347663  41.837   8.332   5.444
 3512POPC   PO447664  41.320   7.872   5.161
 3512POPC   GL147665  41.488   7.877   5.610
 3512POPC   GL247666  41.839   7.862   5.715
 3512POPC   C1A47667  41.398   8.098   6.026
 3512POPC   D2A47668  41.511   8.435   6.335
 3512POPC   C3A47669  41.404   8.363   6.787
 3512POPC   C4A47670  41.557   8.335   7.226
 3512POPC   C1B47671  41.711   7.710   6.117
 3512POPC   C2B47672  41.585   7.939   6.489
 3512POPC   C3B47673  41.695   7.927   6.913
 3512POPC   C4B47674  41.424   7.833   7.264
 3513POPC   NC347675  33.306  18.374   5.455
 3513POPC   PO447676  33.855  18.183   5.201
 3513POPC   GL147677  33.789  18.308   5.624
 3513POPC   GL247678  34.034  18.135   5.760
 3513POPC   C1A47679  33.708  18.395   6.079
 3513POPC   D2A47680  33.852  18.365   6.519
 3513POPC   C3A47681  33.736  18.025   6.805
 3513POPC   C4A47682  33.572  18.027   7.255
 3513POPC   C1B47683  34.120  18.073   6.197
 3513POPC   C2B47684  34.281  18.033   6.628
 3513POPC   C3B47685  34.130  18.326   6.970
 3513POPC   C4B47686  34.036  18.699   7.250
 3514POPC   NC347687  27.426  10.318   5.323
 3514POPC   PO447688  27.753  10.865   5.138
 3514POPC   GL147689  27.777  10.677   5.584
 3514POPC   GL247690  27.432  10.660   5.710
 3514POPC   C1A47691  27.816  10.633   6.085
 3514POPC   D2A47692  27.929  10.554   6.544
 3514POPC   C3A47693  27.754  10.446   6.960
 3514POPC   C4A47694  27.553  10.403   7.402
 3514POPC   C1B47695  27.321  10.783   6.119
 3514POPC   C2B47696  27.487  10.830   6.513
 3514POPC   C3B47697  27.350  10.785   6.916
 3514POPC   C4B47698  27.600  10.864   7.249
 3515POPC   NC347699  37.404  17.539   5.423
 3515POPC   PO447700  37.991  17.774   5.416
 3515POPC   GL147701  37.783  17.551   5.784
 3515POPC   GL247702  37.430  17.605   5.932
 3515POPC   C1A47703  37.811  17.487   6.236
 3515POPC   D2A47704  37.635  17.455   6.655
 3515POPC   C3A47705  37.927  17.425   7.010
 3515POPC   C4A47706  37.985  17.456   7.491
 3515POPC   C1B47707  37.387  17.199   6.157
 3515POPC   C2B47708  37.212  17.082   6.552
 3515POPC   C3B47709  37.208  17.226   6.959
 3515POPC   C4B47710  37.487  17.410   7.258
 3516POPC   NC347711  17.972  42.490   5.329
 3516POPC   PO447712  18.625  42.245   5.439
 3516POPC   GL147713  18.317  42.392   5.698
 3516POPC   GL247714  18.473  42.715   5.737
 3516POPC   C1A47715  18.059  42.315   6.064
 3516POPC   D2A47716  18.306  42.334   6.432
 3516POPC   C3A47717  18.148  42.429   6.861
 3516POPC   C4A47718  18.234  42.565   7.308
 3516POPC   C1B47719  18.671  42.700   6.150
 3516POPC   C2B47720  18.830  42.361   6.412
 3516POPC   C3B47721  18.657  42.375   6.808
 3516POPC   C4B47722  18.595  42.217   7.191
 3517POPC   NC347723   3.882   3.701   5.483
 3517POPC   PO447724   3.581   3.115   5.514
 3517POPC   GL147725   3.611   3.398   5.862
 3517POPC   GL247726   3.442   3.716   5.825
 3517POPC   C1A47727   3.453   3.456   6.309
 3517POPC   D2A47728   3.290   3.720   6.654
 3517POPC   C3A47729   3.462   3.515   7.003
 3517POPC   C4A47730   3.519   3.202   7.312
 3517POPC   C1B47731   3.756   3.829   6.163
 3517POPC   C2B47732   3.829   3.717   6.632
 3517POPC   C3B47733   3.844   3.855   7.080
 3517POPC   C4B47734   3.637   3.707   7.461
 3518POPC   NC347735   1.099  10.457   5.313
 3518POPC   PO447736   1.501  10.876   5.629
 3518POPC   GL147737   1.346  10.539   5.916
 3518POPC   GL247738   1.009  10.358   5.802
 3518POPC   C1A47739   1.392  10.672   6.356
 3518POPC   D2A47740   1.616  10.587   6.761
 3518POPC   C3A47741   1.397  10.716   7.094
 3518POPC   C4A47742   0.988  10.676   7.114
 3518POPC   C1B47743   1.040  10.265   6.243
 3518POPC   C2B47744   1.191  10.316   6.664
 3518POPC   C3B47745   1.134  10.197   7.060
 3518POPC   C4B47746   1.079  10.345   7.504
 3519POPC   NC347747  10.716  30.818   5.443
 3519POPC   PO447748  10.246  30.358   5.667
 3519POPC   GL147749  10.385  30.727   5.817
 3519POPC   GL247750  10.110  30.942   5.832
 3519POPC   C1A47751  10.677  30.649   6.158
 3519POPC   D2A47752  10.683  30.358   6.508
 3519POPC   C3A47753  10.798  30.547   6.884
 3519POPC   C4A47754  10.533  30.612   7.218
 3519POPC   C1B47755  10.375  31.049   6.209
 3519POPC   C2B47756  10.550  30.954   6.629
 3519POPC   C3B47757  10.338  31.086   7.006
 3519POPC   C4B47758  10.194  30.931   7.420
 3520POPC   NC347759  38.928  19.927   5.492
 3520POPC   PO447760  38.317  19.714   5.263
 3520POPC   GL147761  38.350  19.903   5.709
 3520POPC   GL247762  38.628  20.112   5.862
 3520POPC   C1A47763  38.323  19.828   6.162
 3520POPC   D2A47764  38.515  19.796   6.595
 3520POPC   C3A47765  38.381  19.862   7.026
 3520POPC   C4A47766  38.404  20.039   7.463
 3520POPC   C1B47767  38.652  20.184   6.302
 3520POPC   C2B47768  38.800  20.228   6.736
 3520POPC   C3B47769  38.834  20.060   7.180
 3520POPC   C4B47770  38.843  20.323   7.584
 3521POPC   NC347771  13.576  28.529   5.446
 3521POPC   PO447772  13.281  27.954   5.609
 3521POPC   GL147773  13.536  28.248   5.887
 3521POPC   GL247774  13.546  28.633   5.933
 3521POPC   C1A47775  13.583  28.218   6.338
 3521POPC   D2A47776  13.555  28.038   6.755
 3521POPC   C3A47777  13.460  28.317   7.074
 3521POPC   C4A47778  13.420  28.641   7.402
 3521POPC   C1B47779  13.871  28.613   6.238
 3521POPC   C2B47780  13.920  28.456   6.673
 3521POPC   C3B47781  13.835  28.643   7.058
 3521POPC   C4B47782  13.922  28.488   7.450
 3522POPC   NC347783  29.573  43.850   5.279
 3522POPC   PO447784  29.092  43.606   5.543
 3522POPC   GL147785  29.148  43.959   5.815
 3522POPC   GL247786  29.511  43.968   5.854
 3522POPC   C1A47787  29.102  44.125   6.267
 3522POPC   D2A47788  29.162  44.142   6.738
 3522POPC   C3A47789  28.905  43.797   6.961
 3522POPC   C4A47790  28.971  43.647   7.382
 3522POPC   C1B47791  29.330  43.668   6.183
 3522POPC   C2B47792  29.268  43.650   6.625
 3522POPC   C3B47793  29.404  43.801   7.046
 3522POPC   C4B47794  29.595  44.160   7.234
 3523POPC   NC347795  20.640  24.988   5.477
 3523POPC   PO447796  20.842  25.671   5.438
 3523POPC   GL147797  20.617  25.450   5.759
 3523POPC   GL247798  20.926  25.353   5.933
 3523POPC   C1A47799  20.406  25.330   6.162
 3523POPC   D2A47800  20.675  25.338   6.548
 3523POPC   C3A47801  20.572  25.170   6.956
 3523POPC   C4A47802  20.401  25.287   7.352
 3523POPC   C1B47803  21.085  25.608   6.334
 3523POPC   C2B47804  20.895  25.770   6.718
 3523POPC   C3B47805  20.775  25.609   7.116
 3523POPC   C4B47806  20.905  25.562   7.545
 3524POPC   NC347807  12.604  36.231   5.126
 3524POPC   PO447808  13.058  35.839   5.457
 3524POPC   GL147809  12.894  36.187   5.690
 3524POPC   GL247810  12.538  36.211   5.691
 3524POPC   C1A47811  12.897  36.202   6.135
 3524POPC   D2A47812  13.021  35.954   6.504
 3524POPC   C3A47813  12.889  36.131   6.900
 3524POPC   C4A47814  12.863  36.004   7.310
 3524POPC   C1B47815  12.388  36.341   6.076
 3524POPC   C2B47816  12.340  36.373   6.504
 3524POPC   C3B47817  12.518  36.553   6.845
 3524POPC   C4B47818  12.631  36.437   7.234
 3525POPC   NC347819  33.802  19.088   5.447
 3525POPC   PO447820  33.218  18.798   5.652
 3525POPC   GL147821  33.606  18.916   5.901
 3525POPC   GL247822  33.689  19.287   5.906
 3525POPC   C1A47823  33.899  18.867   6.272
 3525POPC   D2A47824  33.966  18.818   6.736
 3525POPC   C3A47825  33.730  19.066   7.075
 3525POPC   C4A47826  33.674  19.494   7.149
 3525POPC   C1B47827  34.055  19.372   6.174
 3525POPC   C2B47828  34.252  19.287   6.577
 3525POPC   C3B47829  34.153  19.357   6.998
 3525POPC   C4B47830  34.066  19.335   7.445
 3526POPC   NC347831   1.885  18.942   5.237
 3526POPC   PO447832   2.192  19.555   5.362
 3526POPC   GL147833   2.045  19.288   5.717
 3526POPC   GL247834   2.150  18.949   5.682
 3526POPC   C1A47835   2.040  19.296   6.189
 3526POPC   D2A47836   2.148  19.242   6.610
 3526POPC   C3A47837   1.927  19.132   6.966
 3526POPC   C4A47838   2.254  19.184   7.260
 3526POPC   C1B47839   1.826  18.881   5.989
 3526POPC   C2B47840   1.854  18.853   6.454
 3526POPC   C3B47841   2.200  18.744   6.768
 3526POPC   C4B47842   2.151  18.677   7.221
 3527POPC   NC347843  27.753  15.321   5.344
 3527POPC   PO447844  27.649  14.655   5.270
 3527POPC   GL147845  27.476  15.033   5.650
 3527POPC   GL247846  27.772  15.136   5.893
 3527POPC   C1A47847  27.378  15.360   6.078
 3527POPC   D2A47848  27.607  15.447   6.485
 3527POPC   C3A47849  27.505  15.276   6.897
 3527POPC   C4A47850  27.661  15.384   7.310
 3527POPC   C1B47851  27.568  14.961   6.330
 3527POPC   C2B47852  27.772  14.856   6.709
 3527POPC   C3B47853  27.856  14.948   7.105
 3527POPC   C4B47854  27.524  14.895   7.381
 3528POPC   NC347855  36.746  44.381   5.451
 3528POPC   PO447856  37.047   0.039   5.233
 3528POPC   GL147857  36.991  44.842   5.696
 3528POPC   GL247858  37.284  44.815   5.879
 3528POPC   C1A47859  36.913  44.529   6.092
 3528POPC   D2A47860  36.913  44.308   6.536
 3528POPC   C3A47861  36.629  44.456   6.893
 3528POPC   C4A47862  36.748  44.663   7.303
 3528POPC   C1B47863  37.106   0.004   6.198
 3528POPC   C2B47864  36.813  44.894   6.496
 3528POPC   C3B47865  36.997  44.818   6.873
 3528POPC   C4B47866  37.059   0.104   7.181
 3529POPC   NC347867  14.953  10.331   5.449
 3529POPC   PO447868  15.369  10.842   5.442
 3529POPC   GL147869  15.115  10.742   5.810
 3529POPC   GL247870  15.210  10.399   5.881
 3529POPC   C1A47871  14.937  10.649   6.232
 3529POPC   D2A47872  15.138  10.399   6.576
 3529POPC   C3A47873  15.174  10.541   6.974
 3529POPC   C4A47874  15.050  10.656   7.405
 3529POPC   C1B47875  15.344  10.123   6.188
 3529POPC   C2B47876  15.549  10.098   6.568
 3529POPC   C3B47877  15.388  10.040   6.957
 3529POPC   C4B47878  15.300  10.205   7.304
 3530POPC   NC347879   6.083  41.588   5.539
 3530POPC   PO447880   5.417  41.339   5.359
 3530POPC   GL147881   5.718  41.290   5.770
 3530POPC   GL247882   6.063  41.229   5.889
 3530POPC   C1A47883   5.705  41.363   6.236
 3530POPC   D2A47884   5.461  41.557   6.606
 3530POPC   C3A47885   5.665  41.500   7.024
 3530POPC   C4A47886   6.010  41.730   7.158
 3530POPC   C1B47887   6.252  41.297   6.292
 3530POPC   C2B47888   6.288  41.381   6.735
 3530POPC   C3B47889   6.306  41.250   7.157
 3530POPC   C4B47890   6.021  41.323   7.475
 3531POPC   NC347891  43.624   6.561   5.446
 3531POPC   PO447892  44.264   6.703   5.345
 3531POPC   GL147893  44.033   6.792   5.680
 3531POPC   GL247894  44.003   6.454   5.770
 3531POPC   C1A47895  44.006   6.884   6.110
 3531POPC   D2A47896  44.114   6.912   6.536
 3531POPC   C3A47897  43.896   6.809   6.889
 3531POPC   C4A47898  44.009   6.783   7.306
 3531POPC   C1B47899  43.981   6.365   6.190
 3531POPC   C2B47900  43.917   6.392   6.610
 3531POPC   C3B47901  44.086   6.356   7.044
 3531POPC   C4B47902  43.835   6.296   7.418
 3532POPC   NC347903  40.450  40.541   5.092
 3532POPC   PO447904  40.917  40.854   5.370
 3532POPC   GL147905  40.597  40.703   5.619
 3532POPC   GL247906  40.867  40.557   5.800
 3532POPC   C1A47907  40.526  40.841   6.057
 3532POPC   D2A47908  40.756  40.929   6.460
 3532POPC   C3A47909  40.687  40.730   6.863
 3532POPC   C4A47910  40.535  40.820   7.242
 3532POPC   C1B47911  40.815  40.458   6.220
 3532POPC   C2B47912  40.834  40.310   6.613
 3532POPC   C3B47913  40.992  40.354   7.014
 3532POPC   C4B47914  40.970  40.538   7.395
 3533POPC   NC347915  27.888  42.984   5.478
 3533POPC   PO447916  28.572  42.995   5.379
 3533POPC   GL147917  28.577  43.033   5.813
 3533POPC   GL247918  28.309  43.248   5.895
 3533POPC   C1A47919  28.542  42.863   6.249
 3533POPC   D2A47920  28.340  42.665   6.619
 3533POPC   C3A47921  28.204  42.941   6.969
 3533POPC   C4A47922  28.493  43.216   7.174
 3533POPC   C1B47923  28.124  43.154   6.333
 3533POPC   C2B47924  28.091  43.406   6.732
 3533POPC   C3B47925  28.023  43.500   7.188
 3533POPC   C4B47926  28.132  43.640   7.626
 3534POPC   NC347927  29.021   7.693   5.060
 3534POPC   PO447928  29.351   7.175   5.341
 3534POPC   GL147929  29.283   7.345   5.746
 3534POPC   GL247930  28.971   7.298   5.823
 3534POPC   C1A47931  29.374   7.332   6.211
 3534POPC   D2A47932  29.334   7.634   6.533
 3534POPC   C3A47933  29.215   7.599   6.932
 3534POPC   C4A47934  29.329   7.295   7.185
 3534POPC   C1B47935  28.877   7.442   6.245
 3534POPC   C2B47936  28.960   7.273   6.654
 3534POPC   C3B47937  28.809   7.302   7.098
 3534POPC   C4B47938  28.863   7.160   7.534
 3535POPC   NC347939  16.598  32.570   5.506
 3535POPC   PO447940  16.419  31.944   5.507
 3535POPC   GL147941  16.717  32.168   5.800
 3535POPC   GL247942  17.083  32.098   5.731
 3535POPC   C1A47943  16.623  32.412   6.195
 3535POPC   D2A47944  16.530  32.618   6.604
 3535POPC   C3A47945  16.684  32.484   7.041
 3535POPC   C4A47946  16.642  32.088   7.337
 3535POPC   C1B47947  17.126  32.298   6.163
 3535POPC   C2B47948  16.965  32.330   6.608
 3535POPC   C3B47949  17.063  32.128   7.025
 3535POPC   C4B47950  17.078  32.324   7.480
 3536POPC   NC347951  13.913  13.786   5.448
 3536POPC   PO447952  13.388  13.340   5.487
 3536POPC   GL147953  13.546  13.598   5.799
 3536POPC   GL247954  13.836  13.370   5.827
 3536POPC   C1A47955  13.425  13.890   6.169
 3536POPC   D2A47956  13.599  14.013   6.588
 3536POPC   C3A47957  13.443  13.896   7.007
 3536POPC   C4A47958  13.737  13.716   7.299
 3536POPC   C1B47959  13.712  13.468   6.256
 3536POPC   C2B47960  13.752  13.383   6.680
 3536POPC   C3B47961  13.539  13.313   7.040
 3536POPC   C4B47962  13.669  13.211   7.419
 3537POPC   NC347963   3.572  12.414   5.349
 3537POPC   PO447964   4.012  12.822   5.488
 3537POPC   GL147965   3.748  12.800   5.833
 3537POPC   GL247966   3.417  12.694   5.760
 3537POPC   C1A47967   3.741  12.918   6.259
 3537POPC   D2A47968   3.659  12.764   6.657
 3537POPC   C3A47969   3.776  12.995   7.018
 3537POPC   C4A47970   3.795  12.751   7.387
 3537POPC   C1B47971   3.286  12.997   6.073
 3537POPC   C2B47972   3.251  13.040   6.537
 3537POPC   C3B47973   3.264  12.897   6.977
 3537POPC   C4B47974   3.318  12.971   7.416
 3538POPC   NC347975  38.397  30.140   5.256
 3538POPC   PO447976  38.547  29.547   5.503
 3538POPC   GL147977  38.510  29.910   5.803
 3538POPC   GL247978  38.385  30.276   5.762
 3538POPC   C1A47979  38.295  29.958   6.212
 3538POPC   D2A47980  38.107  29.735   6.564
 3538POPC   C3A47981  38.292  29.856   6.949
 3538POPC   C4A47982  38.687  29.745   7.091
 3538POPC   C1B47983  38.594  30.359   6.177
 3538POPC   C2B47984  38.583  30.189   6.628
 3538POPC   C3B47985  38.610  30.248   7.084
 3538POPC   C4B47986  38.773  30.466   7.453
 3539POPC   NC347987  39.379  11.441   5.280
 3539POPC   PO447988  39.643  10.867   5.301
 3539POPC   GL147989  39.373  11.081   5.707
 3539POPC   GL247990  39.166  10.864   5.880
 3539POPC   C1A47991  39.346  11.307   6.141
 3539POPC   D2A47992  39.234  11.271   6.600
 3539POPC   C3A47993  39.315  11.614   6.887
 3539POPC   C4A47994  38.964  11.746   7.130
 3539POPC   C1B47995  38.997  10.904   6.279
 3539POPC   C2B47996  38.826  10.876   6.680
 3539POPC   C3B47997  39.003  10.878   7.043
 3539POPC   C4B47998  39.122  11.264   7.194
 3540POPC   NC347999   0.766   1.422   5.632
 3540POPC   PO448000   0.270   1.037   5.484
 3540POPC   GL148001   0.541   0.971   5.837
 3540POPC   GL248002   0.435   1.276   6.000
 3540POPC   C1A48003   0.686   0.944   6.271
 3540POPC   D2A48004   0.461   1.226   6.551
 3540POPC   C3A48005   0.463   1.040   6.962
 3540POPC   C4A48006   0.844   1.113   7.202
 3540POPC   C1B48007   0.183   1.587   6.213
 3540POPC   C2B48008   0.210   1.813   6.577
 3540POPC   C3B48009   0.276   1.551   6.920
 3540POPC   C4B48010   0.458   1.436   7.294
 3541POPC   NC348011  27.328  41.392   5.318
 3541POPC   PO448012  27.581  40.708   5.384
 3541POPC   GL148013  27.690  40.773   5.787
 3541POPC   GL248014  27.683  40.400   5.823
 3541POPC   C1A48015  27.729  41.002   6.173
 3541POPC   D2A48016  27.642  41.092   6.620
 3541POPC   C3A48017  27.349  40.827   6.834
 3541POPC   C4A48018  27.254  40.834   7.270
 3541POPC   C1B48019  27.588  40.440   6.263
 3541POPC   C2B48020  27.441  40.326   6.671
 3541POPC   C3B48021  27.520  40.410   7.077
 3541POPC   C4B48022  27.756  40.664   7.314
 3542POPC   NC348023  33.873  23.772   5.384
 3542POPC   PO448024  33.569  23.186   5.484
 3542POPC   GL148025  33.666  23.545   5.832
 3542POPC   GL248026  33.871  23.887   5.874
 3542POPC   C1A48027  33.605  23.704   6.277
 3542POPC   D2A48028  33.390  23.600   6.649
 3542POPC   C3A48029  33.496  23.487   7.073
 3542POPC   C4A48030  33.696  23.786   7.352
 3542POPC   C1B48031  34.104  23.816   6.284
 3542POPC   C2B48032  33.982  23.760   6.751
 3542POPC   C3B48033  34.118  23.956   7.145
 3542POPC   C4B48034  34.099  23.898   7.648
 3543POPC   NC348035   0.160  34.955   5.489
 3543POPC   PO448036   0.560  35.531   5.314
 3543POPC   GL148037   0.286  35.424   5.658
 3543POPC   GL248038   0.602  35.449   5.819
 3543POPC   C1A48039   0.236  35.208   6.085
 3543POPC   D2A48040   0.377  35.262   6.493
 3543POPC   C3A48041   0.462  35.253   6.913
 3543POPC   C4A48042   0.294  35.162   7.297
 3543POPC   C1B48043   0.681  35.570   6.214
 3543POPC   C2B48044   0.808  35.528   6.628
 3543POPC   C3B48045   0.752  35.660   7.066
 3543POPC   C4B48046   0.511  35.606   7.446
 3544POPC   NC348047   1.480  42.902   5.300
 3544POPC   PO448048   1.011  43.370   5.433
 3544POPC   GL148049   1.260  43.281   5.781
 3544POPC   GL248050   1.165  42.941   5.720
 3544POPC   C1A48051   1.222  43.169   6.251
 3544POPC   D2A48052   1.398  43.211   6.682
 3544POPC   C3A48053   1.225  43.110   7.105
 3544POPC   C4A48054   0.970  43.405   7.350
 3544POPC   C1B48055   1.535  42.864   5.977
 3544POPC   C2B48056   1.601  42.803   6.422
 3544POPC   C3B48057   1.360  42.700   6.810
 3544POPC   C4B48058   1.329  42.539   7.237
 3545POPC   NC348059  40.600   1.146   5.329
 3545POPC   PO448060  41.032   0.693   5.423
 3545POPC   GL148061  40.675   0.825   5.765
 3545POPC   GL248062  40.406   1.103   5.801
 3545POPC   C1A48063  40.715   1.026   6.204
 3545POPC   D2A48064  40.875   1.384   6.470
 3545POPC   C3A48065  40.888   1.201   6.891
 3545POPC   C4A48066  41.101   1.117   7.283
 3545POPC   C1B48067  40.273   1.291   6.227
 3545POPC   C2B48068  40.398   1.326   6.671
 3545POPC   C3B48069  40.503   1.439   7.116
 3545POPC   C4B48070  40.566   1.127   7.454
 3546POPC   NC348071  13.092  20.598   5.545
 3546POPC   PO448072  12.404  20.746   5.591
 3546POPC   GL148073  12.730  20.837   5.805
 3546POPC   GL248074  12.739  20.509   5.951
 3546POPC   C1A48075  12.977  20.946   6.140
 3546POPC   D2A48076  12.818  20.794   6.511
 3546POPC   C3A48077  13.015  20.780   6.882
 3546POPC   C4A48078  12.704  20.781   7.179
 3546POPC   C1B48079  13.030  20.390   6.250
 3546POPC   C2B48080  12.999  20.269   6.676
 3546POPC   C3B48081  12.897  20.310   7.101
 3546POPC   C4B48082  12.835  20.052   7.457
 3547POPC   NC348083  11.074  39.474   5.390
 3547POPC   PO448084  10.439  39.185   5.375
 3547POPC   GL148085  10.639  39.386   5.725
 3547POPC   GL248086  10.862  39.115   5.793
 3547POPC   C1A48087  10.789  39.472   6.150
 3547POPC   D2A48088  10.795  39.239   6.532
 3547POPC   C3A48089  10.563  39.360   6.837
 3547POPC   C4A48090  10.640  39.326   7.253
 3547POPC   C1B48091  10.592  38.971   6.147
 3547POPC   C2B48092  10.347  38.967   6.547
 3547POPC   C3B48093  10.427  38.907   6.979
 3547POPC   C4B48094  10.269  38.952   7.383
 3548POPC   NC348095   0.097   9.132   5.544
 3548POPC   PO448096  44.439   9.308   5.486
 3548POPC   GL148097  44.649   9.044   5.816
 3548POPC   GL248098  44.525   8.687   5.885
 3548POPC   C1A48099  44.870   9.003   6.226
 3548POPC   D2A48100   0.062   8.807   6.616
 3548POPC   C3A48101  44.897   8.992   6.960
 3548POPC   C4A48102  44.627   8.724   7.191
 3548POPC   C1B48103  44.530   8.626   6.329
 3548POPC   C2B48104  44.410   8.798   6.720
 3548POPC   C3B48105  44.437   9.197   6.920
 3548POPC   C4B48106  44.597   9.243   7.346
 3549POPC   NC348107   8.833  23.372   5.424
 3549POPC   PO448108   9.355  23.825   5.334
 3549POPC   GL148109   9.125  23.725   5.699
 3549POPC   GL248110   9.222  23.391   5.793
 3549POPC   C1A48111   8.948  23.827   6.113
 3549POPC   D2A48112   9.059  23.726   6.536
 3549POPC   C3A48113   8.843  23.916   6.908
 3549POPC   C4A48114   8.950  23.929   7.354
 3549POPC   C1B48115   9.006  23.221   6.160
 3549POPC   C2B48116   8.805  23.245   6.572
 3549POPC   C3B48117   8.980  23.418   6.949
 3549POPC   C4B48118   8.791  23.311   7.286
 3550POPC   NC348119   8.796  20.534   5.578
 3550POPC   PO448120   9.413  20.692   5.559
 3550POPC   GL148121   9.129  20.687   5.901
 3550POPC   GL248122   8.825  20.943   5.867
 3550POPC   C1A48123   8.905  20.462   6.229
 3550POPC   D2A48124   8.729  20.274   6.608
 3550POPC   C3A48125   8.971  20.436   6.958
 3550POPC   C4A48126   9.224  20.300   7.294
 3550POPC   C1B48127   9.019  21.012   6.250
 3550POPC   C2B48128   8.948  20.834   6.620
 3550POPC   C3B48129   8.916  20.960   7.025
 3550POPC   C4B48130   8.935  20.729   7.408
 3551POPC   NC348131   5.170   2.292   5.013
 3551POPC   PO448132   5.192   2.887   5.435
 3551POPC   GL148133   4.931   2.669   5.720
 3551POPC   GL248134   5.155   2.415   5.781
 3551POPC   C1A48135   4.848   2.561   6.165
 3551POPC   D2A48136   5.054   2.725   6.521
 3551POPC   C3A48137   4.915   3.047   6.771
 3551POPC   C4A48138   5.078   3.002   7.141
 3551POPC   C1B48139   5.376   2.516   6.160
 3551POPC   C2B48140   5.471   2.434   6.616
 3551POPC   C3B48141   5.244   2.541   6.998
 3551POPC   C4B48142   5.261   2.651   7.459
 3552POPC   NC348143  12.408  12.324   5.428
 3552POPC   PO448144  12.049  11.818   5.584
 3552POPC   GL148145  12.079  12.093   5.952
 3552POPC   GL248146  11.810  12.333   6.058
 3552POPC   C1A48147  12.109  12.039   6.388
 3552POPC   D2A48148  12.387  12.184   6.639
 3552POPC   C3A48149  12.191  12.373   6.960
 3552POPC   C4A48150  12.358  12.242   7.292
 3552POPC   C1B48151  11.636  11.903   6.262
 3552POPC   C2B48152  11.808  11.659   6.616
 3552POPC   C3B48153  12.060  11.867   6.926
 3552POPC   C4B48154  11.878  12.044   7.287
 3553POPC   NC348155   1.576   3.492   5.512
 3553POPC   PO448156   2.151   3.721   5.214
 3553POPC   GL148157   2.225   3.672   5.700
 3553POPC   GL248158   2.015   3.382   5.781
 3553POPC   C1A48159   2.160   3.720   6.175
 3553POPC   D2A48160   1.861   3.773   6.539
 3553POPC   C3A48161   2.069   3.914   6.917
 3553POPC   C4A48162   1.974   3.811   7.356
 3553POPC   C1B48163   2.160   3.191   6.193
 3553POPC   C2B48164   2.233   3.396   6.606
 3553POPC   C3B48165   1.986   3.415   6.989
 3553POPC   C4B48166   2.156   3.215   7.330
 3554POPC   NC348167  21.128  25.821   5.124
 3554POPC   PO448168  21.610  26.006   5.549
 3554POPC   GL148169  21.379  26.131   5.883
 3554POPC   GL248170  21.096  26.336   5.905
 3554POPC   C1A48171  21.443  26.010   6.283
 3554POPC   D2A48172  21.681  26.207   6.606
 3554POPC   C3A48173  21.572  25.968   6.940
 3554POPC   C4A48174  21.233  25.808   7.168
 3554POPC   C1B48175  20.965  26.183   6.300
 3554POPC   C2B48176  21.165  26.185   6.682
 3554POPC   C3B48177  21.334  26.462   6.943
 3554POPC   C4B48178  21.308  26.358   7.364
 3555POPC   NC348179  35.166  34.078   5.426
 3555POPC   PO448180  35.775  33.572   5.458
 3555POPC   GL148181  35.417  33.623   5.693
 3555POPC   GL248182  35.504  33.941   5.766
 3555POPC   C1A48183  35.207  33.686   6.098
 3555POPC   D2A48184  35.227  33.551   6.524
 3555POPC   C3A48185  35.342  33.742   6.903
 3555POPC   C4A48186  35.113  33.836   7.259
 3555POPC   C1B48187  35.637  33.997   6.147
 3555POPC   C2B48188  35.690  33.866   6.530
 3555POPC   C3B48189  35.712  34.113   6.881
 3555POPC   C4B48190  35.524  34.107   7.283
 3556POPC   NC348191  43.330  35.245   5.450
 3556POPC   PO448192  42.811  35.124   5.604
 3556POPC   GL148193  43.120  35.324   5.915
 3556POPC   GL248194  43.455  35.497   5.890
 3556POPC   C1A48195  43.208  35.321   6.346
 3556POPC   D2A48196  42.952  35.333   6.707
 3556POPC   C3A48197  43.127  35.112   7.043
 3556POPC   C4A48198  43.217  35.222   7.465
 3556POPC   C1B48199  43.256  35.804   6.202
 3556POPC   C2B48200  43.114  35.819   6.653
 3556POPC   C3B48201  43.179  35.614   7.078
 3556POPC   C4B48202  43.385  35.733   7.470
 3557POPC   NC348203  38.245  40.177   5.427
 3557POPC   PO448204  38.641  39.616   5.423
 3557POPC   GL148205  38.450  39.837   5.758
 3557POPC   GL248206  38.586  40.158   5.808
 3557POPC   C1A48207  38.250  39.971   6.148
 3557POPC   D2A48208  38.343  40.220   6.507
 3557POPC   C3A48209  38.180  40.089   6.864
 3557POPC   C4A48210  38.338  39.995   7.256
 3557POPC   C1B48211  38.773  40.162   6.179
 3557POPC   C2B48212  38.914  40.155   6.583
 3557POPC   C3B48213  38.707  40.164   6.937
 3557POPC   C4B48214  38.638  40.405   7.306
 3558POPC   NC348215  12.233  25.008   5.465
 3558POPC   PO448216  12.014  25.600   5.285
 3558POPC   GL148217  12.061  25.512   5.723
 3558POPC   GL248218  12.366  25.333   5.831
 3558POPC   C1A48219  11.981  25.423   6.176
 3558POPC   D2A48220  12.100  25.219   6.568
 3558POPC   C3A48221  12.081  25.403   6.966
 3558POPC   C4A48222  11.848  25.343   7.325
 3558POPC   C1B48223  12.294  24.964   6.148
 3558POPC   C2B48224  12.492  24.889   6.578
 3558POPC   C3B48225  12.289  24.830   6.978
 3558POPC   C4B48226  12.274  25.070   7.331
 3559POPC   NC348227  39.429  20.994   5.636
 3559POPC   PO448228  39.104  20.363   5.380
 3559POPC   GL148229  38.932  20.572   5.806
 3559POPC   GL248230  39.036  20.921   5.959
 3559POPC   C1A48231  38.972  20.553   6.296
 3559POPC   D2A48232  39.068  20.704   6.709
 3559POPC   C3A48233  39.076  20.493   7.120
 3559POPC   C4A48234  39.300  20.582   7.509
 3559POPC   C1B48235  39.416  20.790   6.273
 3559POPC   C2B48236  39.573  20.666   6.701
 3559POPC   C3B48237  39.419  20.850   7.081
 3559POPC   C4B48238  39.541  21.060   7.426
 3560POPC   NC348239  34.775  27.801   5.424
 3560POPC   PO448240  34.559  27.242   5.536
 3560POPC   GL148241  34.764  27.521   5.849
 3560POPC   GL248242  34.479  27.646   5.883
 3560POPC   C1A48243  34.753  27.737   6.293
 3560POPC   D2A48244  34.756  27.997   6.690
 3560POPC   C3A48245  34.684  27.745   7.051
 3560POPC   C4A48246  34.934  27.473   7.297
 3560POPC   C1B48247  34.224  27.698   6.215
 3560POPC   C2B48248  34.341  27.667   6.638
 3560POPC   C3B48249  34.299  27.403   6.981
 3560POPC   C4B48250  34.217  27.721   7.280
 3561POPC   NC348251  39.461  43.122   5.346
 3561POPC   PO448252  39.068  42.726   5.570
 3561POPC   GL148253  39.436  42.869   5.790
 3561POPC   GL248254  39.517  43.234   5.825
 3561POPC   C1A48255  39.502  42.851   6.196
 3561POPC   D2A48256  39.252  42.938   6.546
 3561POPC   C3A48257  39.421  42.956   6.940
 3561POPC   C4A48258  39.149  42.864   7.286
 3561POPC   C1B48259  39.331  43.366   6.186
 3561POPC   C2B48260  39.253  43.452   6.615
 3561POPC   C3B48261  38.962  43.286   6.908
 3561POPC   C4B48262  38.775  43.511   7.246
 3562POPC   NC348263   0.345  12.420   5.402
 3562POPC   PO448264   0.435  11.729   5.325
 3562POPC   GL148265   0.469  11.931   5.726
 3562POPC   GL248266   0.130  12.050   5.716
 3562POPC   C1A48267   0.627  12.025   6.151
 3562POPC   D2A48268   0.570  12.378   6.389
 3562POPC   C3A48269   0.594  12.323   6.813
 3562POPC   C4A48270   0.725  12.177   7.200
 3562POPC   C1B48271   0.120  12.023   6.159
 3562POPC   C2B48272   0.274  11.967   6.582
 3562POPC   C3B48273   0.300  11.877   7.022
 3562POPC   C4B48274   0.252  12.115   7.388
 3563POPC   NC348275  21.775  29.416   5.251
 3563POPC   PO448276  22.408  29.513   5.402
 3563POPC   GL148277  22.073  29.389   5.713
 3563POPC   GL248278  22.091  29.020   5.736
 3563POPC   C1A48279  22.061  29.439   6.189
 3563POPC   D2A48280  22.020  29.228   6.609
 3563POPC   C3A48281  22.285  29.404   6.943
 3563POPC   C4A48282  22.421  29.237   7.330
 3563POPC   C1B48283  22.148  28.936   6.197
 3563POPC   C2B48284  22.110  28.704   6.610
 3563POPC   C3B48285  22.146  28.914   7.042
 3563POPC   C4B48286  22.043  28.933   7.517
 3564POPC   NC348287  19.821  13.670   5.336
 3564POPC   PO448288  19.342  13.073   5.336
 3564POPC   GL148289  19.536  13.430   5.684
 3564POPC   GL248290  19.941  13.425   5.783
 3564POPC   C1A48291  19.638  13.461   6.159
 3564POPC   D2A48292  19.688  13.284   6.553
 3564POPC   C3A48293  19.728  13.495   6.947
 3564POPC   C4A48294  19.915  13.430   7.312
 3564POPC   C1B48295  20.104  13.714   6.162
 3564POPC   C2B48296  20.052  13.909   6.574
 3564POPC   C3B48297  20.145  13.826   7.015
 3564POPC   C4B48298  19.996  14.061   7.381
 3565POPC   NC348299  40.136  13.030   5.463
 3565POPC   PO448300  39.475  12.826   5.497
 3565POPC   GL148301  39.710  12.880   5.864
 3565POPC   GL248302  39.701  13.248   5.848
 3565POPC   C1A48303  39.948  12.652   6.240
 3565POPC   D2A48304  40.088  12.501   6.669
 3565POPC   C3A48305  39.922  12.682   7.052
 3565POPC   C4A48306  40.005  12.554   7.480
 3565POPC   C1B48307  39.962  13.172   6.220
 3565POPC   C2B48308  39.978  13.032   6.656
 3565POPC   C3B48309  40.181  13.120   7.074
 3565POPC   C4B48310  40.377  12.965   7.483
 3566POPC   NC348311  11.464  42.558   5.382
 3566POPC   PO448312  11.187  41.928   5.269
 3566POPC   GL148313  11.149  42.172   5.646
 3566POPC   GL248314  11.194  41.868   5.830
 3566POPC   C1A48315  11.305  42.329   6.064
 3566POPC   D2A48316  11.258  42.222   6.538
 3566POPC   C3A48317  11.375  42.456   6.933
 3566POPC   C4A48318  11.284  42.620   7.392
 3566POPC   C1B48319  11.008  41.906   6.215
 3566POPC   C2B48320  10.751  42.045   6.552
 3566POPC   C3B48321  10.928  42.166   6.945
 3566POPC   C4B48322  11.014  41.933   7.323
 3567POPC   NC348323  40.249   2.661   5.540
 3567POPC   PO448324  40.083   3.278   5.376
 3567POPC   GL148325  39.950   3.044   5.735
 3567POPC   GL248326  39.777   2.717   5.740
 3567POPC   C1A48327  40.205   3.062   6.106
 3567POPC   D2A48328  40.245   2.847   6.492
 3567POPC   C3A48329  40.106   3.048   6.866
 3567POPC   C4A48330  40.142   2.895   7.275
 3567POPC   C1B48331  39.940   2.592   6.146
 3567POPC   C2B48332  39.798   2.479   6.559
 3567POPC   C3B48333  39.894   2.554   6.981
 3567POPC   C4B48334  40.271   2.418   7.193
 3568POPC   NC348335   3.048  25.668   5.602
 3568POPC   PO448336   3.572  25.305   5.329
 3568POPC   GL148337   3.545  25.355   5.789
 3568POPC   GL248338   3.506  25.016   5.886
 3568POPC   C1A48339   3.767  25.368   6.222
 3568POPC   D2A48340   3.917  25.499   6.656
 3568POPC   C3A48341   3.764  25.273   6.970
 3568POPC   C4A48342   3.663  25.483   7.324
 3568POPC   C1B48343   3.349  25.057   6.332
 3568POPC   C2B48344   3.323  24.996   6.787
 3568POPC   C3B48345   3.443  24.972   7.236
 3568POPC   C4B48346   3.351  25.041   7.685
 3569POPC   NC348347  32.434  40.175   5.398
 3569POPC   PO448348  31.798  40.026   5.334
 3569POPC   GL148349  32.063  39.986   5.748
 3569POPC   GL248350  32.378  39.774   5.727
 3569POPC   C1A48351  32.156  40.253   6.155
 3569POPC   D2A48352  32.200  40.454   6.583
 3569POPC   C3A48353  32.312  40.074   6.802
 3569POPC   C4A48354  32.078  39.846   7.125
 3569POPC   C1B48355  32.578  39.836   6.137
 3569POPC   C2B48356  32.552  39.640   6.567
 3569POPC   C3B48357  32.672  39.769   6.991
 3569POPC   C4B48358  32.512  40.052   7.301
 3570POPC   NC348359   3.349  28.083   5.441
 3570POPC   PO448360   2.710  28.151   5.514
 3570POPC   GL148361   2.703  28.349   5.860
 3570POPC   GL248362   3.044  28.230   5.907
 3570POPC   C1A48363   2.685  28.268   6.290
 3570POPC   D2A48364   2.900  28.095   6.653
 3570POPC   C3A48365   2.725  28.303   6.972
 3570POPC   C4A48366   2.491  28.262   7.311
 3570POPC   C1B48367   3.081  28.580   6.177
 3570POPC   C2B48368   2.963  28.602   6.590
 3570POPC   C3B48369   3.189  28.521   6.969
 3570POPC   C4B48370   3.386  28.686   7.334
 3571POPC   NC348371  28.726  12.273   5.540
 3571POPC   PO448372  28.302  12.800   5.359
 3571POPC   GL148373  28.433  12.832   5.761
 3571POPC   GL248374  28.284  12.547   5.853
 3571POPC   C1A48375  28.325  12.965   6.180
 3571POPC   D2A48376  28.383  13.245   6.538
 3571POPC   C3A48377  28.480  13.026   6.906
 3571POPC   C4A48378  28.361  13.110   7.311
 3571POPC   C1B48379  28.411  12.440   6.283
 3571POPC   C2B48380  28.504  12.495   6.710
 3571POPC   C3B48381  28.668  12.457   7.130
 3571POPC   C4B48382  28.643  12.735   7.501
 3572POPC   NC348383  10.364  33.254   5.314
 3572POPC   PO448384  10.944  33.467   5.460
 3572POPC   GL148385  10.708  33.165   5.741
 3572POPC   GL248386  10.421  32.911   5.689
 3572POPC   C1A48387  10.734  32.893   6.123
 3572POPC   D2A48388  10.563  33.000   6.525
 3572POPC   C3A48389  10.729  32.803   6.868
 3572POPC   C4A48390  10.837  32.998   7.218
 3572POPC   C1B48391  10.235  32.933   6.094
 3572POPC   C2B48392  10.087  32.832   6.472
 3572POPC   C3B48393  10.167  32.830   6.876
 3572POPC   C4B48394  10.354  32.933   7.258
 3573POPC   NC348395   4.722  10.084   5.411
 3573POPC   PO448396   5.351   9.970   5.440
 3573POPC   GL148397   5.087   9.955   5.810
 3573POPC   GL248398   4.784   9.742   5.840
 3573POPC   C1A48399   4.936  10.053   6.226
 3573POPC   D2A48400   5.115   9.967   6.614
 3573POPC   C3A48401   4.992   9.873   7.032
 3573POPC   C4A48402   5.275  10.117   7.279
 3573POPC   C1B48403   5.018   9.548   6.237
 3573POPC   C2B48404   5.122   9.462   6.709
 3573POPC   C3B48405   5.142   9.429   7.195
 3573POPC   C4B48406   5.115   9.341   7.676
 3574POPC   NC348407  43.769  32.510   5.368
 3574POPC   PO448408  44.283  32.038   5.291
 3574POPC   GL148409  43.974  31.888   5.646
 3574POPC   GL248410  43.716  32.108   5.750
 3574POPC   C1A48411  44.007  31.929   6.137
 3574POPC   D2A48412  43.974  32.181   6.548
 3574POPC   C3A48413  43.740  32.023   6.881
 3574POPC   C4A48414  43.753  32.108   7.295
 3574POPC   C1B48415  43.735  32.366   6.133
 3574POPC   C2B48416  43.738  32.643   6.529
 3574POPC   C3B48417  43.712  32.522   6.964
 3574POPC   C4B48418  43.527  32.588   7.357
 3575POPC   NC348419   5.851  26.767   5.352
 3575POPC   PO448420   6.368  26.505   5.671
 3575POPC   GL148421   5.937  26.695   5.873
 3575POPC   GL248422   5.814  27.058   5.821
 3575POPC   C1A48423   5.807  26.852   6.313
 3575POPC   D2A48424   5.583  26.888   6.732
 3575POPC   C3A48425   5.791  26.849   7.147
 3575POPC   C4A48426   6.038  26.473   7.260
 3575POPC   C1B48427   5.479  27.237   6.133
 3575POPC   C2B48428   5.347  27.314   6.592
 3575POPC   C3B48429   5.413  27.227   7.081
 3575POPC   C4B48430   5.545  27.118   7.538
 3576POPC   NC348431  13.393  18.369   5.445
 3576POPC   PO448432  13.780  17.863   5.375
 3576POPC   GL148433  13.630  18.040   5.777
 3576POPC   GL248434  13.288  17.940   5.724
 3576POPC   C1A48435  13.769  18.265   6.194
 3576POPC   D2A48436  13.675  18.466   6.614
 3576POPC   C3A48437  13.735  18.221   6.970
 3576POPC   C4A48438  13.970  17.827   7.072
 3576POPC   C1B48439  13.266  18.213   6.101
 3576POPC   C2B48440  13.237  18.196   6.562
 3576POPC   C3B48441  13.195  18.557   6.824
 3576POPC   C4B48442  13.198  18.697   7.242
 3577POPC   NC348443  40.056   0.085   5.443
 3577POPC   PO448444  39.541   0.448   5.185
 3577POPC   GL148445  39.781   0.387   5.758
 3577POPC   GL248446  39.890   0.700   5.903
 3577POPC   C1A48447  40.031   0.312   6.177
 3577POPC   D2A48448  39.882   0.567   6.543
 3577POPC   C3A48449  40.045   0.497   6.969
 3577POPC   C4A48450  39.841   0.451   7.372
 3577POPC   C1B48451  40.234   0.783   6.154
 3577POPC   C2B48452  40.366   0.815   6.559
 3577POPC   C3B48453  40.349   0.927   7.001
 3577POPC   C4B48454  40.289   0.698   7.395
 3578POPC   NC348455   3.244  31.647   5.459
 3578POPC   PO448456   3.857  31.551   5.352
 3578POPC   GL148457   3.628  31.405   5.727
 3578POPC   GL248458   3.809  31.106   5.809
 3578POPC   C1A48459   3.480  31.609   6.110
 3578POPC   D2A48460   3.699  31.796   6.482
 3578POPC   C3A48461   3.648  31.565   6.873
 3578POPC   C4A48462   3.807  31.678   7.263
 3578POPC   C1B48463   3.854  31.282   6.241
 3578POPC   C2B48464   3.970  31.072   6.623
 3578POPC   C3B48465   3.834  30.963   7.039
 3578POPC   C4B48466   3.599  31.225   7.266
 3579POPC   NC348467  20.018  33.779   5.350
 3579POPC   PO448468  19.562  34.256   5.468
 3579POPC   GL148469  19.576  33.989   5.818
 3579POPC   GL248470  19.910  33.815   5.873
 3579POPC   C1A48471  19.565  33.883   6.255
 3579POPC   D2A48472  19.904  33.658   6.406
 3579POPC   C3A48473  19.899  33.692   6.832
 3579POPC   C4A48474  19.659  33.924   7.079
 3579POPC   C1B48475  19.990  34.159   6.169
 3579POPC   C2B48476  19.906  34.172   6.608
 3579POPC   C3B48477  20.128  34.112   6.993
 3579POPC   C4B48478  20.280  33.678   7.166
 3580POPC   NC348479  27.447  17.213   5.382
 3580POPC   PO448480  27.428  17.776   5.656
 3580POPC   GL148481  27.696  17.488   5.866
 3580POPC   GL248482  27.654  17.141   5.829
 3580POPC   C1A48483  27.681  17.334   6.302
 3580POPC   D2A48484  27.541  17.489   6.691
 3580POPC   C3A48485  27.691  17.432   7.110
 3580POPC   C4A48486  27.519  17.562   7.490
 3580POPC   C1B48487  27.274  17.133   6.058
 3580POPC   C2B48488  27.218  17.120   6.507
 3580POPC   C3B48489  27.347  17.089   6.945
 3580POPC   C4B48490  27.454  17.059   7.396
 3581POPC   NC348491   3.230   9.306   5.133
 3581POPC   PO448492   3.689   9.185   5.654
 3581POPC   GL148493   3.650   9.103   6.032
 3581POPC   GL248494   3.460   8.796   6.017
 3581POPC   C1A48495   3.633   9.139   6.459
 3581POPC   D2A48496   3.803   9.264   6.811
 3581POPC   C3A48497   3.827   8.931   7.103
 3581POPC   C4A48498   3.483   8.617   7.051
 3581POPC   C1B48499   3.181   9.035   6.294
 3581POPC   C2B48500   3.135   8.934   6.738
 3581POPC   C3B48501   3.357   9.152   7.062
 3581POPC   C4B48502   3.305   9.309   7.482
 3582POPC   NC348503  37.802   8.719   5.395
 3582POPC   PO448504  37.805   9.336   5.521
 3582POPC   GL148505  37.657   9.137   5.873
 3582POPC   GL248506  37.634   8.777   5.914
 3582POPC   C1A48507  37.642   9.312   6.283
 3582POPC   D2A48508  37.583   9.204   6.697
 3582POPC   C3A48509  37.923   9.071   6.937
 3582POPC   C4A48510  37.989   9.220   7.346
 3582POPC   C1B48511  37.649   8.790   6.381
 3582POPC   C2B48512  37.494   8.715   6.797
 3582POPC   C3B48513  37.540   8.863   7.212
 3582POPC   C4B48514  37.721   8.895   7.602
 3583POPC   NC348515   3.405  18.882   5.486
 3583POPC   PO448516   3.709  19.521   5.417
 3583POPC   GL148517   3.621  19.271   5.805
 3583POPC   GL248518   3.263  19.179   5.887
 3583POPC   C1A48519   3.765  19.016   6.184
 3583POPC   D2A48520   3.957  19.027   6.631
 3583POPC   C3A48521   3.766  18.766   6.975
 3583POPC   C4A48522   3.385  18.620   7.199
 3583POPC   C1B48523   3.379  19.350   6.299
 3583POPC   C2B48524   3.468  19.202   6.760
 3583POPC   C3B48525   3.516  19.142   7.208
 3583POPC   C4B48526   3.397  19.363   7.589
 3584POPC   NC348527  31.616  24.953   5.350
 3584POPC   PO448528  31.369  25.582   5.403
 3584POPC   GL148529  31.706  25.421   5.720
 3584POPC   GL248530  31.533  25.135   5.842
 3584POPC   C1A48531  31.821  25.353   6.197
 3584POPC   D2A48532  31.546  25.149   6.490
 3584POPC   C3A48533  31.636  25.090   6.917
 3584POPC   C4A48534  31.497  25.359   7.225
 3584POPC   C1B48535  31.348  25.504   6.109
 3584POPC   C2B48536  31.462  25.649   6.548
 3584POPC   C3B48537  31.186  25.609   6.913
 3584POPC   C4B48538  31.003  25.743   7.312
 3585POPC   NC348539   8.515  26.936   5.467
 3585POPC   PO448540   9.123  26.937   5.304
 3585POPC   GL148541   8.991  26.794   5.705
 3585POPC   GL248542   9.217  27.021   5.836
 3585POPC   C1A48543   8.903  26.764   6.164
 3585POPC   D2A48544   9.037  26.628   6.571
 3585POPC   C3A48545   8.890  26.729   6.971
 3585POPC   C4A48546   8.972  26.531   7.336
 3585POPC   C1B48547   9.401  26.901   6.241
 3585POPC   C2B48548   9.544  26.660   6.619
 3585POPC   C3B48549   9.417  26.832   7.024
 3585POPC   C4B48550   9.149  27.037   7.323
 3586POPC   NC348551  32.296  41.133   5.138
 3586POPC   PO448552  32.267  40.598   5.590
 3586POPC   GL148553  32.162  40.757   5.961
 3586POPC   GL248554  32.471  40.961   6.007
 3586POPC   C1A48555  31.860  40.704   6.261
 3586POPC   D2A48556  31.790  40.943   6.611
 3586POPC   C3A48557  32.076  40.870   6.914
 3586POPC   C4A48558  31.872  40.873   7.292
 3586POPC   C1B48559  32.563  40.601   6.240
 3586POPC   C2B48560  32.712  40.496   6.638
 3586POPC   C3B48561  32.611  40.498   7.071
 3586POPC   C4B48562  32.364  40.747   7.313
 3587POPC   NC348563  33.861  41.063   5.420
 3587POPC   PO448564  33.379  40.627   5.452
 3587POPC   GL148565  33.546  40.774   5.849
 3587POPC   GL248566  33.922  40.873   5.886
 3587POPC   C1A48567  33.664  40.585   6.236
 3587POPC   D2A48568  33.794  40.718   6.629
 3587POPC   C3A48569  33.561  40.577   6.984
 3587POPC   C4A48570  33.566  40.827   7.364
 3587POPC   C1B48571  34.186  40.910   6.277
 3587POPC   C2B48572  34.182  41.041   6.723
 3587POPC   C3B48573  34.046  40.795   7.089
 3587POPC   C4B48574  33.976  40.315   7.160
 3588POPC   NC348575  21.546  10.141   5.355
 3588POPC   PO448576  21.135  10.612   5.432
 3588POPC   GL148577  21.334  10.560   5.859
 3588POPC   GL248578  21.667  10.391   5.884
 3588POPC   C1A48579  21.345  10.504   6.326
 3588POPC   D2A48580  21.165  10.765   6.680
 3588POPC   C3A48581  21.198  10.599   7.103
 3588POPC   C4A48582  21.467  10.256   7.198
 3588POPC   C1B48583  21.777  10.740   6.194
 3588POPC   C2B48584  21.692  10.913   6.617
 3588POPC   C3B48585  21.686  10.737   7.033
 3588POPC   C4B48586  21.952  10.441   7.256
 3589POPC   NC348587  39.436  42.400   5.583
 3589POPC   PO448588  39.019  42.054   5.153
 3589POPC   GL148589  38.969  42.166   5.643
 3589POPC   GL248590  39.178  41.925   5.831
 3589POPC   C1A48591  39.052  42.336   6.128
 3589POPC   D2A48592  39.356  42.421   6.502
 3589POPC   C3A48593  39.165  42.511   6.910
 3589POPC   C4A48594  39.012  42.316   7.283
 3589POPC   C1B48595  39.488  42.036   6.171
 3589POPC   C2B48596  39.467  41.906   6.590
 3589POPC   C3B48597  39.292  42.017   6.978
 3589POPC   C4B48598  39.517  42.138   7.373
 3590POPC   NC348599  18.290  12.697   5.650
 3590POPC   PO448600  18.631  13.139   5.351
 3590POPC   GL148601  18.441  13.176   5.814
 3590POPC   GL248602  18.080  13.074   5.920
 3590POPC   C1A48603  18.434  12.968   6.262
 3590POPC   D2A48604  18.442  13.129   6.700
 3590POPC   C3A48605  18.412  12.942   7.103
 3590POPC   C4A48606  18.713  12.826   7.437
 3590POPC   C1B48607  17.943  12.749   6.240
 3590POPC   C2B48608  17.898  12.379   6.529
 3590POPC   C3B48609  18.043  12.353   6.976
 3590POPC   C4B48610  18.194  12.570   7.369
 3591POPC   NC348611  12.627  33.993   5.446
 3591POPC   PO448612  13.118  33.494   5.458
 3591POPC   GL148613  13.020  33.809   5.735
 3591POPC   GL248614  12.706  33.657   5.816
 3591POPC   C1A48615  12.959  34.044   6.131
 3591POPC   D2A48616  13.083  33.899   6.536
 3591POPC   C3A48617  12.915  33.916   6.930
 3591POPC   C4A48618  13.139  33.967   7.271
 3591POPC   C1B48619  12.917  33.543   6.181
 3591POPC   C2B48620  12.709  33.535   6.564
 3591POPC   C3B48621  12.942  33.420   6.900
 3591POPC   C4B48622  12.867  33.454   7.320
 3592POPC   NC348623   0.465  24.970   5.442
 3592POPC   PO448624   0.777  25.536   5.606
 3592POPC   GL148625   0.607  25.233   5.859
 3592POPC   GL248626   0.823  24.917   5.783
 3592POPC   C1A48627   0.380  25.233   6.262
 3592POPC   D2A48628   0.287  25.114   6.702
 3592POPC   C3A48629   0.252  25.335   7.105
 3592POPC   C4A48630   0.108  25.608   7.449
 3592POPC   C1B48631   0.620  24.792   6.148
 3592POPC   C2B48632   0.718  24.868   6.575
 3592POPC   C3B48633   0.873  24.758   6.986
 3592POPC   C4B48634   0.663  24.912   7.346
 3593POPC   NC348635  42.034   4.652   5.402
 3593POPC   PO448636  42.566   4.296   5.396
 3593POPC   GL148637  42.403   4.222   5.832
 3593POPC   GL248638  42.047   4.261   5.791
 3593POPC   C1A48639  42.587   4.162   6.268
 3593POPC   D2A48640  42.634   4.453   6.625
 3593POPC   C3A48641  42.420   4.344   7.024
 3593POPC   C4A48642  42.538   4.322   7.478
 3593POPC   C1B48643  42.052   3.981   6.165
 3593POPC   C2B48644  42.180   4.049   6.598
 3593POPC   C3B48645  41.991   4.014   6.990
 3593POPC   C4B48646  42.065   4.130   7.392
 3594POPC   NC348647  26.197   7.860   5.083
 3594POPC   PO448648  26.071   7.254   5.481
 3594POPC   GL148649  25.930   7.372   5.890
 3594POPC   GL248650  25.733   7.696   5.859
 3594POPC   C1A48651  26.177   7.482   6.271
 3594POPC   D2A48652  26.012   7.414   6.669
 3594POPC   C3A48653  26.104   7.617   7.051
 3594POPC   C4A48654  26.051   7.353   7.416
 3594POPC   C1B48655  25.711   7.609   6.295
 3594POPC   C2B48656  25.492   7.415   6.650
 3594POPC   C3B48657  25.657   7.324   7.054
 3594POPC   C4B48658  25.610   7.560   7.432
 3595POPC   NC348659  17.102   1.571   5.261
 3595POPC   PO448660  17.640   1.173   5.479
 3595POPC   GL148661  17.574   1.372   5.890
 3595POPC   GL248662  17.532   1.050   5.975
 3595POPC   C1A48663  17.471   1.544   6.363
 3595POPC   D2A48664  17.375   1.592   6.850
 3595POPC   C3A48665  17.479   1.226   7.121
 3595POPC   C4A48666  17.753   0.848   6.961
 3595POPC   C1B48667  17.221   1.111   6.246
 3595POPC   C2B48668  17.270   1.144   6.664
 3595POPC   C3B48669  17.032   0.999   6.991
 3595POPC   C4B48670  17.031   1.090   7.425
 3596POPC   NC348671  39.823  41.258   5.396
 3596POPC   PO448672  40.299  41.638   5.429
 3596POPC   GL148673  39.993  41.662   5.787
 3596POPC   GL248674  39.986  41.325   5.873
 3596POPC   C1A48675  39.890  41.699   6.256
 3596POPC   D2A48676  39.972  41.713   6.700
 3596POPC   C3A48677  40.053  41.477   7.080
 3596POPC   C4A48678  39.926  41.776   7.384
 3596POPC   C1B48679  39.821  41.170   6.233
 3596POPC   C2B48680  39.993  41.180   6.653
 3596POPC   C3B48681  39.715  41.103   7.002
 3596POPC   C4B48682  39.645  41.290   7.410
 3597POPC   NC348683  10.142  21.706   5.503
 3597POPC   PO448684   9.582  21.401   5.413
 3597POPC   GL148685   9.749  21.520   5.795
 3597POPC   GL248686   9.460  21.654   5.880
 3597POPC   C1A48687   9.942  21.499   6.209
 3597POPC   D2A48688   9.755  21.518   6.612
 3597POPC   C3A48689   9.831  21.222   6.903
 3597POPC   C4A48690   9.875  21.361   7.318
 3597POPC   C1B48691   9.525  21.818   6.247
 3597POPC   C2B48692   9.320  21.775   6.643
 3597POPC   C3B48693   9.532  21.810   7.020
 3597POPC   C4B48694   9.509  21.693   7.437
 3598POPC   NC348695   3.132  34.476   5.399
 3598POPC   PO448696   3.755  34.423   5.604
 3598POPC   GL148697   3.448  34.662   5.771
 3598POPC   GL248698   3.173  34.441   5.924
 3598POPC   C1A48699   3.494  34.759   6.186
 3598POPC   D2A48700   3.494  34.415   6.477
 3598POPC   C3A48701   3.759  34.505   6.812
 3598POPC   C4A48702   3.560  34.507   7.191
 3598POPC   C1B48703   3.010  34.221   6.273
 3598POPC   C2B48704   2.938  34.081   6.693
 3598POPC   C3B48705   3.082  34.292   7.068
 3598POPC   C4B48706   3.238  34.186   7.459
 3599POPC   NC348707  12.875  28.005   5.418
 3599POPC   PO448708  13.166  28.681   5.217
 3599POPC   GL148709  13.103  28.460   5.664
 3599POPC   GL248710  12.763  28.327   5.807
 3599POPC   C1A48711  13.125  28.460   6.158
 3599POPC   D2A48712  13.205  28.413   6.627
 3599POPC   C3A48713  12.934  28.505   6.997
 3599POPC   C4A48714  12.631  28.279   7.260
 3599POPC   C1B48715  12.649  28.264   6.283
 3599POPC   C2B48716  12.491  28.366   6.733
 3599POPC   C3B48717  12.324  28.632   7.109
 3599POPC   C4B48718  12.336  28.566   7.596
 3600POPC   NC348719   9.101  31.586   5.395
 3600POPC   PO448720   8.687  31.061   5.404
 3600POPC   GL148721   8.694  31.269   5.835
 3600POPC   GL248722   8.833  31.634   5.849
 3600POPC   C1A48723   8.909  31.270   6.233
 3600POPC   D2A48724   8.939  31.470   6.619
 3600POPC   C3A48725   8.960  31.254   6.995
 3600POPC   C4A48726   8.814  31.358   7.389
 3600POPC   C1B48727   9.163  31.723   6.192
 3600POPC   C2B48728   9.292  31.828   6.656
 3600POPC   C3B48729   9.084  31.729   7.082
 3600POPC   C4B48730   9.103  31.729   7.558
 3601POPC   NC348731  36.401  32.657   5.519
 3601POPC   PO448732  36.893  33.000   5.236
 3601POPC   GL148733  36.849  33.057   5.715
 3601POPC   GL248734  36.478  33.116   5.783
 3601POPC   C1A48735  37.053  32.897   6.134
 3601POPC   D2A48736  36.983  32.694   6.529
 3601POPC   C3A48737  37.043  32.969   6.882
 3601POPC   C4A48738  36.985  32.840   7.256
 3601POPC   C1B48739  36.567  33.010   6.202
 3601POPC   C2B48740  36.592  33.019   6.647
 3601POPC   C3B48741  36.545  33.042   7.094
 3601POPC   C4B48742  36.614  33.449   7.231
 3602POPC   NC348743  38.139   9.650   5.504
 3602POPC   PO448744  38.803   9.358   5.581
 3602POPC   GL148745  38.564   9.630   5.896
 3602POPC   GL248746  38.341   9.933   5.878
 3602POPC   C1A48747  38.506   9.773   6.339
 3602POPC   D2A48748  38.563   9.606   6.726
 3602POPC   C3A48749  38.563   9.854   7.077
 3602POPC   C4A48750  38.449   9.717   7.510
 3602POPC   C1B48751  38.095   9.567   6.139
 3602POPC   C2B48752  38.070   9.429   6.579
 3602POPC   C3B48753  38.160   9.548   7.014
 3602POPC   C4B48754  37.946   9.732   7.356
 3603POPC   NC348755  34.854  18.771   5.536
 3603POPC   PO448756  34.257  19.066   5.502
 3603POPC   GL148757  34.454  19.210   5.871
 3603POPC   GL248758  34.814  19.107   5.923
 3603POPC   C1A48759  34.403  18.969   6.215
 3603POPC   D2A48760  34.658  18.888   6.545
 3603POPC   C3A48761  34.423  18.911   6.899
 3603POPC   C4A48762  34.452  19.040   7.280
 3603POPC   C1B48763  34.729  19.344   6.313
 3603POPC   C2B48764  34.728  19.321   6.786
 3603POPC   C3B48765  34.909  18.974   7.040
 3603POPC   C4B48766  34.960  19.252   7.388
 3604POPC   NC348767  23.018  13.959   5.581
 3604POPC   PO448768  22.513  13.579   5.508
 3604POPC   GL148769  22.820  13.605   5.896
 3604POPC   GL248770  23.199  13.518   5.856
 3604POPC   C1A48771  23.081  13.765   6.270
 3604POPC   D2A48772  22.965  13.888   6.669
 3604POPC   C3A48773  23.153  13.852   7.062
 3604POPC   C4A48774  22.889  13.856   7.426
 3604POPC   C1B48775  23.029  13.255   6.237
 3604POPC   C2B48776  22.932  13.153   6.677
 3604POPC   C3B48777  23.036  13.369   7.056
 3604POPC   C4B48778  23.390  13.491   7.342
 3605POPC   NC348779  11.501  35.652   5.413
 3605POPC   PO448780  10.961  35.335   5.291
 3605POPC   GL148781  11.178  35.319   5.701
 3605POPC   GL248782  11.273  35.625   5.888
 3605POPC   C1A48783  11.239  35.149   6.135
 3605POPC   D2A48784  11.453  35.171   6.540
 3605POPC   C3A48785  11.226  35.400   6.850
 3605POPC   C4A48786  11.146  35.405   7.280
 3605POPC   C1B48787  11.629  35.530   6.179
 3605POPC   C2B48788  11.630  35.668   6.623
 3605POPC   C3B48789  11.686  35.517   7.039
 3605POPC   C4B48790  11.625  35.585   7.474
 3606POPC   NC348791   2.992  41.577   5.225
 3606POPC   PO448792   3.678  41.598   5.444
 3606POPC   GL148793   3.481  41.509   5.825
 3606POPC   GL248794   3.160  41.659   5.865
 3606POPC   C1A48795   3.481  41.672   6.251
 3606POPC   D2A48796   3.330  41.510   6.631
 3606POPC   C3A48797   3.524  41.651   6.975
 3606POPC   C4A48798   3.525  41.395   7.324
 3606POPC   C1B48799   2.980  41.792   6.255
 3606POPC   C2B48800   2.890  41.802   6.683
 3606POPC   C3B48801   3.021  41.570   7.045
 3606POPC   C4B48802   3.156  41.732   7.430
 3607POPC   NC348803  22.092   1.367   5.416
 3607POPC   PO448804  22.433   0.779   5.409
 3607POPC   GL148805  22.274   1.073   5.798
 3607POPC   GL248806  22.371   1.447   5.859
 3607POPC   C1A48807  21.950   1.286   6.104
 3607POPC   D2A48808  21.855   1.437   6.546
 3607POPC   C3A48809  22.004   1.246   6.951
 3607POPC   C4A48810  22.047   1.325   7.400
 3607POPC   C1B48811  22.444   1.290   6.289
 3607POPC   C2B48812  22.453   1.101   6.715
 3607POPC   C3B48813  22.573   1.231   7.128
 3607POPC   C4B48814  22.853   1.134   7.483
 3608POPC   NC348815   6.227  22.688   5.200
 3608POPC   PO448816   5.803  22.124   5.331
 3608POPC   GL148817   5.743  22.119   5.799
 3608POPC   GL248818   5.888  22.423   5.950
 3608POPC   C1A48819   5.817  21.983   6.253
 3608POPC   D2A48820   6.066  21.946   6.644
 3608POPC   C3A48821   5.822  22.060   7.010
 3608POPC   C4A48822   5.648  22.186   7.391
 3608POPC   C1B48823   6.214  22.313   6.270
 3608POPC   C2B48824   6.423  22.350   6.670
 3608POPC   C3B48825   6.254  22.324   7.089
 3608POPC   C4B48826   6.047  22.471   7.480
 3609POPC   NC348827  11.028  34.885   5.374
 3609POPC   PO448828  11.454  34.429   5.066
 3609POPC   GL148829  11.421  34.314   5.636
 3609POPC   GL248830  11.080  34.297   5.895
 3609POPC   C1A48831  11.442  34.561   6.096
 3609POPC   D2A48832  11.307  34.515   6.563
 3609POPC   C3A48833  11.199  34.858   6.882
 3609POPC   C4A48834  10.988  34.877   7.276
 3609POPC   C1B48835  10.827  34.360   6.255
 3609POPC   C2B48836  10.758  34.285   6.699
 3609POPC   C3B48837  11.042  34.367   7.054
 3609POPC   C4B48838  11.013  34.224   7.486
 3610POPC   NC348839   1.385  43.663   5.382
 3610POPC   PO448840   0.910  44.062   4.980
 3610POPC   GL148841   0.903  43.947   5.529
 3610POPC   GL248842   0.876  43.703   5.796
 3610POPC   C1A48843   1.054  44.146   5.980
 3610POPC   D2A48844   0.976  44.036   6.451
 3610POPC   C3A48845   1.081  44.026   6.926
 3610POPC   C4A48846   0.877  43.925   7.359
 3610POPC   C1B48847   1.185  43.670   6.136
 3610POPC   C2B48848   1.353  43.722   6.574
 3610POPC   C3B48849   1.360  43.602   7.009
 3610POPC   C4B48850   1.646  43.374   7.233
 3611POPC   NC348851  27.027  20.039   5.574
 3611POPC   PO448852  27.230  19.413   5.424
 3611POPC   GL148853  26.895  19.512   5.734
 3611POPC   GL248854  26.585  19.761   5.700
 3611POPC   C1A48855  26.741  19.501   6.165
 3611POPC   D2A48856  26.507  19.677   6.516
 3611POPC   C3A48857  26.717  19.638   6.923
 3611POPC   C4A48858  26.952  19.822   7.273
 3611POPC   C1B48859  26.641  19.996   6.110
 3611POPC   C2B48860  26.947  19.942   6.423
 3611POPC   C3B48861  26.944  20.075   6.845
 3611POPC   C4B48862  26.538  20.081   7.131
 3612POPC   NC348863  37.772  43.308   5.503
 3612POPC   PO448864  37.429  42.762   5.365
 3612POPC   GL148865  37.387  43.067   5.766
 3612POPC   GL248866  37.681  43.012   5.974
 3612POPC   C1A48867  37.477  43.434   6.126
 3612POPC   D2A48868  37.608  43.473   6.552
 3612POPC   C3A48869  37.492  43.530   7.001
 3612POPC   C4A48870  37.581  43.212   7.319
 3612POPC   C1B48871  37.459  43.006   6.400
 3612POPC   C2B48872  37.595  43.017   6.842
 3612POPC   C3B48873  37.954  42.899   7.159
 3612POPC   C4B48874  37.907  42.820   7.619
 3613POPC   NC348875  26.239  22.343   5.545
 3613POPC   PO448876  25.677  22.429   5.158
 3613POPC   GL148877  25.740  22.245   5.678
 3613POPC   GL248878  25.978  22.393   5.980
 3613POPC   C1A48879  25.819  21.943   6.094
 3613POPC   D2A48880  26.016  22.038   6.529
 3613POPC   C3A48881  26.330  21.895   6.884
 3613POPC   C4A48882  26.254  21.937   7.340
 3613POPC   C1B48883  26.377  22.277   6.211
 3613POPC   C2B48884  26.395  22.354   6.647
 3613POPC   C3B48885  26.302  22.388   7.064
 3613POPC   C4B48886  26.604  22.303   7.356
 3614POPC   NC348887  31.962  37.409   5.314
 3614POPC   PO448888  32.397  37.868   5.378
 3614POPC   GL148889  32.432  37.668   5.760
 3614POPC   GL248890  32.121  37.509   5.803
 3614POPC   C1A48891  32.372  37.814   6.171
 3614POPC   D2A48892  32.371  37.588   6.545
 3614POPC   C3A48893  32.256  37.808   6.895
 3614POPC   C4A48894  32.214  38.040   7.244
 3614POPC   C1B48895  31.877  37.377   6.137
 3614POPC   C2B48896  31.948  37.207   6.516
 3614POPC   C3B48897  31.815  37.351   6.876
 3614POPC   C4B48898  31.917  37.573   7.193
 3615POPC   NC348899  14.124  44.760   5.519
 3615POPC   PO448900  14.634  44.531   5.123
 3615POPC   GL148901  14.548  44.547   5.654
 3615POPC   GL248902  14.457  44.250   5.695
 3615POPC   C1A48903  14.470  44.735   6.129
 3615POPC   D2A48904  14.282  44.903   6.561
 3615POPC   C3A48905  14.339  44.924   7.043
 3615POPC   C4A48906  14.613  44.828   7.422
 3615POPC   C1B48907  14.295  44.240   6.098
 3615POPC   C2B48908  14.244  44.388   6.483
 3615POPC   C3B48909  14.490  44.497   6.816
 3615POPC   C4B48910  14.390  44.402   7.221
 3616POPC   NC348911  23.177  39.462   5.602
 3616POPC   PO448912  22.952  38.910   5.213
 3616POPC   GL148913  22.738  39.095   5.681
 3616POPC   GL248914  22.823  39.342   5.931
 3616POPC   C1A48915  22.620  38.975   6.165
 3616POPC   D2A48916  22.805  39.152   6.535
 3616POPC   C3A48917  22.917  38.940   6.904
 3616POPC   C4A48918  23.028  39.096   7.295
 3616POPC   C1B48919  23.141  39.443   6.254
 3616POPC   C2B48920  23.117  39.663   6.642
 3616POPC   C3B48921  23.027  39.527   7.027
 3616POPC   C4B48922  23.177  39.564   7.458
 3617POPC   NC348923  44.515  25.270   5.347
 3617POPC   PO448924   0.113  25.287   5.488
 3617POPC   GL148925  44.861  25.207   5.878
 3617POPC   GL248926  44.527  25.343   5.882
 3617POPC   C1A48927  44.864  25.301   6.360
 3617POPC   D2A48928  44.777  25.168   6.811
 3617POPC   C3A48929  44.482  25.350   7.117
 3617POPC   C4A48930  44.590  25.602   7.498
 3617POPC   C1B48931  44.454  25.019   6.231
 3617POPC   C2B48932  44.421  24.814   6.672
 3617POPC   C3B48933  44.619  24.754   7.090
 3617POPC   C4B48934  44.580  24.707   7.551
 3618POPC   NC348935   3.093  12.096   5.132
 3618POPC   PO448936   2.523  11.769   5.129
 3618POPC   GL148937   2.690  12.035   5.524
 3618POPC   GL248938   2.975  11.848   5.730
 3618POPC   C1A48939   2.713  12.168   6.004
 3618POPC   D2A48940   2.731  12.291   6.477
 3618POPC   C3A48941   2.615  12.094   6.888
 3618POPC   C4A48942   2.569  12.251   7.334
 3618POPC   C1B48943   3.000  11.664   6.158
 3618POPC   C2B48944   2.976  11.810   6.597
 3618POPC   C3B48945   2.992  11.723   7.046
 3618POPC   C4B48946   3.040  12.075   7.302
 3619POPC   NC348947   7.723  25.340   5.397
 3619POPC   PO448948   7.060  25.136   5.383
 3619POPC   GL148949   7.326  25.236   5.750
 3619POPC   GL248950   7.560  24.964   5.759
 3619POPC   C1A48951   7.573  25.366   6.145
 3619POPC   D2A48952   7.700  25.152   6.540
 3619POPC   C3A48953   7.495  25.243   6.940
 3619POPC   C4A48954   7.424  25.606   7.216
 3619POPC   C1B48955   7.357  24.885   6.147
 3619POPC   C2B48956   7.424  24.688   6.539
 3619POPC   C3B48957   7.714  24.717   6.866
 3619POPC   C4B48958   7.717  24.886   7.249
 3620POPC   NC348959   2.454  13.734   5.527
 3620POPC   PO448960   1.809  13.800   5.419
 3620POPC   GL148961   2.002  13.640   5.785
 3620POPC   GL248962   1.708  13.519   5.863
 3620POPC   C1A48963   2.183  13.797   6.189
 3620POPC   D2A48964   2.309  13.632   6.600
 3620POPC   C3A48965   2.243  13.859   6.960
 3620POPC   C4A48966   2.063  13.687   7.327
 3620POPC   C1B48967   1.863  13.397   6.237
 3620POPC   C2B48968   1.719  13.259   6.607
 3620POPC   C3B48969   1.917  13.391   6.941
 3620POPC   C4B48970   2.248  13.206   7.144
 3621POPC   NC348971   2.213   8.958   5.413
 3621POPC   PO448972   1.687   9.242   5.430
 3621POPC   GL148973   1.750   8.865   5.697
 3621POPC   GL248974   2.091   8.747   5.852
 3621POPC   C1A48975   1.713   8.958   6.135
 3621POPC   D2A48976   1.612   8.846   6.541
 3621POPC   C3A48977   1.857   9.042   6.846
 3621POPC   C4A48978   2.058   8.840   7.169
 3621POPC   C1B48979   2.248   8.965   6.236
 3621POPC   C2B48980   2.218   9.256   6.572
 3621POPC   C3B48981   2.325   9.254   7.044
 3621POPC   C4B48982   2.315   9.102   7.520
 3622POPC   NC348983  13.620   5.324   5.290
 3622POPC   PO448984  14.013   5.346   5.468
 3622POPC   GL148985  13.792   5.015   5.711
 3622POPC   GL248986  13.432   5.047   5.712
 3622POPC   C1A48987  13.639   4.802   6.119
 3622POPC   D2A48988  13.427   4.933   6.536
 3622POPC   C3A48989  13.503   4.823   6.979
 3622POPC   C4A48990  13.754   5.002   7.318
 3622POPC   C1B48991  13.384   5.267   6.138
 3622POPC   C2B48992  13.311   5.437   6.593
 3622POPC   C3B48993  13.458   5.331   7.024
 3622POPC   C4B48994  13.246   5.129   7.361
 3623POPC   NC348995  38.435  36.039   5.319
 3623POPC   PO448996  38.078  36.587   5.517
 3623POPC   GL148997  38.222  36.209   5.783
 3623POPC   GL248998  38.604  36.137   5.819
 3623POPC   C1A48999  38.294  35.991   6.218
 3623POPC   D2A49000  38.584  35.882   6.612
 3623POPC   C3A49001  38.480  35.933   7.108
 3623POPC   C4A49002  38.302  35.864   7.560
 3623POPC   C1B49003  38.663  36.342   6.266
 3623POPC   C2B49004  38.569  36.374   6.724
 3623POPC   C3B49005  38.820  36.334   7.104
 3623POPC   C4B49006  38.644  36.239   7.517
 3624POPC   NC349007  34.391  36.264   5.415
 3624POPC   PO449008  35.066  36.098   5.449
 3624POPC   GL149009  34.774  36.295   5.792
 3624POPC   GL249010  34.369  36.348   5.907
 3624POPC   C1A49011  34.704  36.135   6.219
 3624POPC   D2A49012  34.765  35.940   6.602
 3624POPC   C3A49013  34.618  36.184   6.924
 3624POPC   C4A49014  34.509  36.072   7.317
 3624POPC   C1B49015  34.123  36.172   6.249
 3624POPC   C2B49016  34.071  36.055   6.686
 3624POPC   C3B49017  34.111  36.320   7.050
 3624POPC   C4B49018  34.385  36.569   7.266
 3625POPC   NC349019  41.644   6.473   5.365
 3625POPC   PO449020  41.284   7.047   5.435
 3625POPC   GL149021  41.565   6.850   5.791
 3625POPC   GL249022  41.836   6.560   5.819
 3625POPC   C1A49023  41.449   6.691   6.220
 3625POPC   D2A49024  41.440   6.480   6.639
 3625POPC   C3A49025  41.241   6.649   7.002
 3625POPC   C4A49026  41.145   6.501   7.392
 3625POPC   C1B49027  41.969   6.683   6.219
 3625POPC   C2B49028  41.934   6.634   6.632
 3625POPC   C3B49029  41.729   6.733   6.983
 3625POPC   C4B49030  41.686   6.487   7.319
 3626POPC   NC349031   0.782  35.867   5.542
 3626POPC   PO449032   0.789  36.410   5.734
 3626POPC   GL149033   0.677  36.061   5.996
 3626POPC   GL249034   0.371  35.898   5.887
 3626POPC   C1A49035   0.575  36.039   6.409
 3626POPC   D2A49036   0.422  36.237   6.784
 3626POPC   C3A49037   0.366  36.112   7.217
 3626POPC   C4A49038   0.512  36.478   7.483
 3626POPC   C1B49039   0.202  35.708   6.279
 3626POPC   C2B49040   0.342  35.725   6.731
 3626POPC   C3B49041   0.132  35.625   7.104
 3626POPC   C4B49042   0.002  35.827   7.469
 3627POPC   NC349043  32.235   8.083   5.320
 3627POPC   PO449044  31.877   8.400   5.341
 3627POPC   GL149045  32.100   8.281   5.798
 3627POPC   GL249046  32.189   7.929   5.918
 3627POPC   C1A49047  32.407   8.329   6.194
 3627POPC   D2A49048  32.593   8.472   6.625
 3627POPC   C3A49049  32.594   8.214   7.008
 3627POPC   C4A49050  32.289   8.130   7.305
 3627POPC   C1B49051  32.018   8.038   6.346
 3627POPC   C2B49052  32.087   7.967   6.814
 3627POPC   C3B49053  32.055   7.692   7.168
 3627POPC   C4B49054  32.355   7.615   7.488
 3628POPC   NC349055  33.957  16.115   5.052
 3628POPC   PO449056  33.665  15.551   5.321
 3628POPC   GL149057  33.780  15.793   5.662
 3628POPC   GL249058  33.817  16.157   5.563
 3628POPC   C1A49059  33.707  15.681   6.102
 3628POPC   D2A49060  33.818  15.897   6.486
 3628POPC   C3A49061  33.936  15.733   6.899
 3628POPC   C4A49062  33.921  16.012   7.242
 3628POPC   C1B49063  33.946  16.157   6.007
 3628POPC   C2B49064  34.012  16.363   6.401
 3628POPC   C3B49065  33.967  16.338   6.843
 3628POPC   C4B49066  34.049  16.486   7.271
 3629POPC   NC349067  18.781  10.253   5.435
 3629POPC   PO449068  19.328  10.737   5.413
 3629POPC   GL149069  19.040  10.635   5.734
 3629POPC   GL249070  19.088  10.918   5.952
 3629POPC   C1A49071  18.937  10.432   6.122
 3629POPC   D2A49072  19.083  10.532   6.530
 3629POPC   C3A49073  18.908  10.360   6.898
 3629POPC   C4A49074  19.267  10.364   7.169
 3629POPC   C1B49075  18.766  10.938   6.279
 3629POPC   C2B49076  18.780  10.878   6.726
 3629POPC   C3B49077  19.037  10.819   7.031
 3629POPC   C4B49078  18.747  10.774   7.307
 3630POPC   NC349079  22.388  10.623   5.400
 3630POPC   PO449080  22.004  10.114   5.320
 3630POPC   GL149081  22.170  10.317   5.740
 3630POPC   GL249082  22.088  10.701   5.792
 3630POPC   C1A49083  22.224  10.420   6.197
 3630POPC   D2A49084  22.075  10.571   6.605
 3630POPC   C3A49085  22.373  10.515   6.912
 3630POPC   C4A49086  22.433  10.258   7.240
 3630POPC   C1B49087  22.244  10.944   6.143
 3630POPC   C2B49088  22.210  11.070   6.575
 3630POPC   C3B49089  22.151  10.977   7.031
 3630POPC   C4B49090  22.333  10.761   7.390
 3631POPC   NC349091  32.772  33.477   5.597
 3631POPC   PO449092  33.208  33.946   5.628
 3631POPC   GL149093  32.917  33.922   5.955
 3631POPC   GL249094  32.891  33.624   6.066
 3631POPC   C1A49095  32.764  34.038   6.351
 3631POPC   D2A49096  32.731  33.739   6.692
 3631POPC   C3A49097  32.648  34.002   7.026
 3631POPC   C4A49098  32.867  34.063   7.391
 3631POPC   C1B49099  33.286  33.561   6.277
 3631POPC   C2B49100  33.345  33.545   6.728
 3631POPC   C3B49101  33.169  33.639   7.108
 3631POPC   C4B49102  32.790  33.554   7.281
 3632POPC   NC349103  14.914  34.313   5.608
 3632POPC   PO449104  15.382  33.906   5.284
 3632POPC   GL149105  15.276  33.863   5.738
 3632POPC   GL249106  15.573  33.725   5.847
 3632POPC   C1A49107  15.236  33.972   6.187
 3632POPC   D2A49108  14.999  34.220   6.506
 3632POPC   C3A49109  15.064  34.045   6.918
 3632POPC   C4A49110  14.930  34.112   7.333
 3632POPC   C1B49111  15.516  33.492   6.209
 3632POPC   C2B49112  15.267  33.585   6.556
 3632POPC   C3B49113  15.432  33.657   6.943
 3632POPC   C4B49114  15.423  33.916   7.296
 3633POPC   NC349115   9.517  33.187   5.536
 3633POPC   PO449116   9.027  32.812   5.239
 3633POPC   GL149117   9.024  33.064   5.661
 3633POPC   GL249118   8.780  32.962   5.896
 3633POPC   C1A49119   9.169  33.175   6.127
 3633POPC   D2A49120   9.157  32.980   6.555
 3633POPC   C3A49121   9.106  33.199   6.933
 3633POPC   C4A49122   9.286  33.101   7.324
 3633POPC   C1B49123   8.581  32.909   6.275
 3633POPC   C2B49124   8.450  33.149   6.624
 3633POPC   C3B49125   8.646  32.975   6.933
 3633POPC   C4B49126   8.768  33.087   7.329
 3634POPC   NC349127   7.877  41.637   5.435
 3634POPC   PO449128   8.514  41.834   5.437
 3634POPC   GL149129   8.319  41.617   5.809
 3634POPC   GL249130   7.991  41.677   5.929
 3634POPC   C1A49131   8.372  41.590   6.269
 3634POPC   D2A49132   8.317  41.850   6.635
 3634POPC   C3A49133   8.316  41.629   7.030
 3634POPC   C4A49134   8.020  41.742   7.343
 3634POPC   C1B49135   7.985  41.276   6.172
 3634POPC   C2B49136   8.037  41.182   6.601
 3634POPC   C3B49137   7.755  41.150   6.940
 3634POPC   C4B49138   7.862  41.118   7.364
 3635POPC   NC349139  39.258  19.184   5.518
 3635POPC   PO449140  39.536  18.681   5.656
 3635POPC   GL149141  39.221  18.896   5.937
 3635POPC   GL249142  38.939  18.715   6.024
 3635POPC   C1A49143  39.185  19.297   6.177
 3635POPC   D2A49144  39.316  19.438   6.577
 3635POPC   C3A49145  39.136  19.216   6.919
 3635POPC   C4A49146  39.034  19.313   7.335
 3635POPC   C1B49147  38.758  19.045   6.271
 3635POPC   C2B49148  38.790  19.365   6.549
 3635POPC   C3B49149  38.658  19.405   6.969
 3635POPC   C4B49150  38.665  19.002   7.163
 3636POPC   NC349151  30.707  31.072   5.556
 3636POPC   PO449152  30.741  30.569   5.117
 3636POPC   GL149153  30.751  30.428   5.582
 3636POPC   GL249154  30.984  30.640   5.733
 3636POPC   C1A49155  30.678  30.420   6.077
 3636POPC   D2A49156  30.691  30.673   6.503
 3636POPC   C3A49157  30.473  30.638   6.921
 3636POPC   C4A49158  30.606  30.657   7.354
 3636POPC   C1B49159  31.033  30.842   6.139
 3636POPC   C2B49160  31.043  31.042   6.542
 3636POPC   C3B49161  30.867  31.003   6.937
 3636POPC   C4B49162  31.001  30.602   7.049
 3637POPC   NC349163   2.692  40.319   5.319
 3637POPC   PO449164   2.720  39.691   5.322
 3637POPC   GL149165   2.889  39.776   5.723
 3637POPC   GL249166   2.639  40.088   5.765
 3637POPC   C1A49167   3.124  39.763   6.149
 3637POPC   D2A49168   2.937  39.931   6.574
 3637POPC   C3A49169   3.147  39.862   6.983
 3637POPC   C4A49170   3.034  40.034   7.419
 3637POPC   C1B49171   2.641  39.904   6.153
 3637POPC   C2B49172   2.441  39.719   6.487
 3637POPC   C3B49173   2.603  39.589   6.871
 3637POPC   C4B49174   2.791  39.614   7.287
 3638POPC   NC349175  35.422  15.010   5.061
 3638POPC   PO449176  35.688  15.559   5.455
 3638POPC   GL149177  35.590  15.237   5.861
 3638POPC   GL249178  35.241  14.962   5.817
 3638POPC   C1A49179  35.547  14.993   6.186
 3638POPC   D2A49180  35.292  14.991   6.535
 3638POPC   C3A49181  35.491  15.143   6.897
 3638POPC   C4A49182  35.609  14.990   7.287
 3638POPC   C1B49183  35.112  15.287   6.147
 3638POPC   C2B49184  34.953  15.388   6.563
 3638POPC   C3B49185  35.075  15.414   6.982
 3638POPC   C4B49186  35.145  15.203   7.339
 3639POPC   NC349187  18.543  33.804   5.434
 3639POPC   PO449188  17.899  33.922   5.309
 3639POPC   GL149189  18.139  33.999   5.721
 3639POPC   GL249190  18.311  33.697   5.862
 3639POPC   C1A49191  18.166  34.039   6.194
 3639POPC   D2A49192  18.055  33.772   6.552
 3639POPC   C3A49193  17.990  33.897   6.967
 3639POPC   C4A49194  18.373  33.875   7.179
 3639POPC   C1B49195  18.331  33.398   6.183
 3639POPC   C2B49196  18.162  33.264   6.585
 3639POPC   C3B49197  18.237  33.398   6.999
 3639POPC   C4B49198  18.527  33.424   7.372
 3640POPC   NC349199  33.243  17.485   5.507
 3640POPC   PO449200  32.618  17.833   5.470
 3640POPC   GL149201  32.805  17.493   5.744
 3640POPC   GL249202  32.608  17.251   5.922
 3640POPC   C1A49203  33.076  17.383   6.129
 3640POPC   D2A49204  32.872  17.336   6.529
 3640POPC   C3A49205  33.094  17.390   6.915
 3640POPC   C4A49206  33.023  17.433   7.356
 3640POPC   C1B49207  32.644  17.665   6.185
 3640POPC   C2B49208  32.622  17.770   6.654
 3640POPC   C3B49209  32.610  17.633   7.119
 3640POPC   C4B49210  32.658  17.710   7.602
 3641POPC   NC349211   2.466  27.120   5.299
 3641POPC   PO449212   3.088  26.994   5.287
 3641POPC   GL149213   2.754  26.858   5.640
 3641POPC   GL249214   2.489  26.574   5.679
 3641POPC   C1A49215   2.742  26.796   6.105
 3641POPC   D2A49216   2.838  27.015   6.497
 3641POPC   C3A49217   2.770  26.830   6.902
 3641POPC   C4A49218   2.528  27.116   7.124
 3641POPC   C1B49219   2.319  26.489   6.117
 3641POPC   C2B49220   2.382  26.452   6.575
 3641POPC   C3B49221   2.474  26.396   7.018
 3641POPC   C4B49222   2.507  26.658   7.375
 3642POPC   NC349223  42.190  44.140   5.573
 3642POPC   PO449224  42.593  43.757   5.193
 3642POPC   GL149225  42.584  43.880   5.706
 3642POPC   GL249226  42.314  43.682   5.848
 3642POPC   C1A49227  42.448  44.064   6.168
 3642POPC   D2A49228  42.519  44.277   6.613
 3642POPC   C3A49229  42.325  44.112   6.993
 3642POPC   C4A49230  42.340  43.929   7.411
 3642POPC   C1B49231  42.404  43.595   6.302
 3642POPC   C2B49232  42.589  43.775   6.646
 3642POPC   C3B49233  42.481  43.632   7.017
 3642POPC   C4B49234  42.260  43.433   7.359
 3643POPC   NC349235  27.279  33.118   5.380
 3643POPC   PO449236  27.833  32.856   5.680
 3643POPC   GL149237  27.622  33.120   5.986
 3643POPC   GL249238  27.272  33.176   5.920
 3643POPC   C1A49239  27.600  33.167   6.426
 3643POPC   D2A49240  27.396  33.202   6.806
 3643POPC   C3A49241  27.689  33.139   7.120
 3643POPC   C4A49242  27.982  33.238   7.472
 3643POPC   C1B49243  27.126  33.043   6.346
 3643POPC   C2B49244  27.226  32.742   6.685
 3643POPC   C3B49245  27.256  32.839   7.147
 3643POPC   C4B49246  27.092  32.971   7.565
 3644POPC   NC349247  26.640  10.880   5.381
 3644POPC   PO449248  27.055  11.512   5.298
 3644POPC   GL149249  26.881  11.351   5.713
 3644POPC   GL249250  27.024  11.012   5.723
 3644POPC   C1A49251  26.779  11.488   6.189
 3644POPC   D2A49252  26.626  11.406   6.635
 3644POPC   C3A49253  26.667  11.598   7.039
 3644POPC   C4A49254  27.057  11.643   7.290
 3644POPC   C1B49255  26.860  10.975   6.144
 3644POPC   C2B49256  27.055  11.122   6.506
 3644POPC   C3B49257  27.063  11.270   6.920
 3644POPC   C4B49258  27.143  11.083   7.316
 3645POPC   NC349259   7.605  19.155   5.338
 3645POPC   PO449260   6.991  19.406   5.558
 3645POPC   GL149261   7.274  19.105   5.771
 3645POPC   GL249262   7.636  19.059   5.820
 3645POPC   C1A49263   7.246  18.894   6.156
 3645POPC   D2A49264   7.204  19.086   6.546
 3645POPC   C3A49265   7.301  18.880   6.895
 3645POPC   C4A49266   7.498  19.088   7.206
 3645POPC   C1B49267   7.721  19.049   6.231
 3645POPC   C2B49268   7.649  18.750   6.523
 3645POPC   C3B49269   7.827  18.833   6.921
 3645POPC   C4B49270   7.899  18.805   7.351
 3646POPC   NC349271  32.011  44.438   5.528
 3646POPC   PO449272  32.448   0.015   5.494
 3646POPC   GL149273  32.229  44.819   5.863
 3646POPC   GL249274  32.262  44.432   5.964
 3646POPC   C1A49275  32.446  44.782   6.274
 3646POPC   D2A49276  32.345  44.589   6.669
 3646POPC   C3A49277  32.545  44.736   7.034
 3646POPC   C4A49278  32.397  44.928   7.355
 3646POPC   C1B49279  31.919  44.549   6.263
 3646POPC   C2B49280  31.842  44.652   6.708
 3646POPC   C3B49281  32.015  44.681   7.103
 3646POPC   C4B49282  32.086  44.572   7.532
 3647POPC   NC349283  26.447   4.808   5.516
 3647POPC   PO449284  25.817   4.619   5.447
 3647POPC   GL149285  25.870   4.994   5.775
 3647POPC   GL249286  26.189   4.950   5.975
 3647POPC   C1A49287  25.785   5.075   6.246
 3647POPC   D2A49288  25.893   5.313   6.612
 3647POPC   C3A49289  25.826   5.191   7.033
 3647POPC   C4A49290  25.634   4.792   7.093
 3647POPC   C1B49291  26.315   5.233   6.344
 3647POPC   C2B49292  26.342   5.404   6.804
 3647POPC   C3B49293  26.572   5.287   7.180
 3647POPC   C4B49294  26.526   5.336   7.661
 3648POPC   NC349295  11.166  15.180   5.402
 3648POPC   PO449296  11.692  15.200   5.205
 3648POPC   GL149297  11.504  15.211   5.755
 3648POPC   GL249298  11.123  15.003   5.858
 3648POPC   C1A49299  11.347  15.265   6.204
 3648POPC   D2A49300  11.231  15.432   6.609
 3648POPC   C3A49301  11.253  15.207   6.962
 3648POPC   C4A49302  11.431  15.085   7.325
 3648POPC   C1B49303  10.877  15.019   6.215
 3648POPC   C2B49304  11.002  14.949   6.606
 3648POPC   C3B49305  11.203  14.712   6.925
 3648POPC   C4B49306  10.997  14.832   7.307
 3649POPC   NC349307   2.484  24.939   5.581
 3649POPC   PO449308   2.961  24.456   5.444
 3649POPC   GL149309   2.836  24.334   5.860
 3649POPC   GL249310   2.483  24.441   5.872
 3649POPC   C1A49311   2.703  24.294   6.308
 3649POPC   D2A49312   2.608  24.506   6.671
 3649POPC   C3A49313   2.867  24.674   6.955
 3649POPC   C4A49314   2.681  24.535   7.332
 3649POPC   C1B49315   2.522  24.774   6.218
 3649POPC   C2B49316   2.310  24.908   6.617
 3649POPC   C3B49317   2.446  24.943   7.062
 3649POPC   C4B49318   2.378  24.888   7.529
 3650POPC   NC349319  24.104  23.439   5.356
 3650POPC   PO449320  23.470  23.706   5.392
 3650POPC   GL149321  23.740  23.618   5.742
 3650POPC   GL249322  23.448  23.437   5.899
 3650POPC   C1A49323  24.040  23.765   6.086
 3650POPC   D2A49324  24.176  23.966   6.460
 3650POPC   C3A49325  24.072  23.696   6.787
 3650POPC   C4A49326  24.071  23.740   7.215
 3650POPC   C1B49327  23.554  23.734   6.224
 3650POPC   C2B49328  23.400  23.944   6.588
 3650POPC   C3B49329  23.618  23.859   6.940
 3650POPC   C4B49330  23.538  23.580   7.261
 3651POPC   NC349331  35.654  34.951   5.421
 3651POPC   PO449332  35.089  34.638   5.431
 3651POPC   GL149333  35.364  34.579   5.776
 3651POPC   GL249334  35.222  34.304   5.972
 3651POPC   C1A49335  35.526  34.738   6.153
 3651POPC   D2A49336  35.576  34.470   6.506
 3651POPC   C3A49337  35.482  34.659   6.893
 3651POPC   C4A49338  35.379  34.624   7.307
 3651POPC   C1B49339  35.195  34.110   6.403
 3651POPC   C2B49340  35.206  34.225   6.836
 3651POPC   C3B49341  35.009  34.307   7.213
 3651POPC   C4B49342  35.137  34.155   7.648
 3652POPC   NC349343  42.379  43.037   5.366
 3652POPC   PO449344  41.989  43.607   5.440
 3652POPC   GL149345  41.963  43.287   5.796
 3652POPC   GL249346  41.960  42.892   5.762
 3652POPC   C1A49347  42.114  43.195   6.240
 3652POPC   D2A49348  42.186  43.307   6.705
 3652POPC   C3A49349  42.458  43.087   7.015
 3652POPC   C4A49350  42.363  42.952   7.461
 3652POPC   C1B49351  42.126  42.693   6.186
 3652POPC   C2B49352  42.242  42.737   6.667
 3652POPC   C3B49353  42.036  42.791   7.105
 3652POPC   C4B49354  41.913  42.754   7.574
 3653POPC   NC349355   3.636  13.012   5.326
 3653POPC   PO449356   3.499  13.736   5.208
 3653POPC   GL149357   3.694  13.662   5.630
 3653POPC   GL249358   3.775  13.972   5.816
 3653POPC   C1A49359   3.656  13.392   6.020
 3653POPC   D2A49360   3.686  13.375   6.487
 3653POPC   C3A49361   3.370  13.526   6.776
 3653POPC   C4A49362   3.472  13.394   7.199
 3653POPC   C1B49363   3.800  13.852   6.246
 3653POPC   C2B49364   3.689  13.963   6.663
 3653POPC   C3B49365   3.662  13.859   7.082
 3653POPC   C4B49366   3.234  13.835   7.272
 3654POPC   NC349367   0.879  16.353   5.527
 3654POPC   PO449368   1.544  16.340   5.545
 3654POPC   GL149369   1.398  16.029   5.823
 3654POPC   GL249370   1.192  16.290   5.970
 3654POPC   C1A49371   1.315  15.872   6.265
 3654POPC   D2A49372   1.291  16.161   6.652
 3654POPC   C3A49373   1.163  15.908   7.021
 3654POPC   C4A49374   1.098  15.465   7.115
 3654POPC   C1B49375   1.620  16.265   6.223
 3654POPC   C2B49376   1.747  15.932   6.567
 3654POPC   C3B49377   1.667  16.028   7.023
 3654POPC   C4B49378   1.372  16.366   7.135
 3655POPC   NC349379  20.729   3.644   5.526
 3655POPC   PO449380  21.288   3.432   5.143
 3655POPC   GL149381  21.309   3.633   5.649
 3655POPC   GL249382  21.076   3.575   5.886
 3655POPC   C1A49383  21.462   3.587   6.202
 3655POPC   D2A49384  21.360   3.697   6.665
 3655POPC   C3A49385  21.596   3.668   7.056
 3655POPC   C4A49386  21.828   3.959   7.348
 3655POPC   C1B49387  20.980   3.440   6.301
 3655POPC   C2B49388  21.189   3.219   6.622
 3655POPC   C3B49389  21.194   3.322   7.038
 3655POPC   C4B49390  20.916   3.236   7.340
 3656POPC   NC349391   2.487  11.312   4.999
 3656POPC   PO449392   2.212  11.588   5.570
 3656POPC   GL149393   1.942  11.667   5.797
 3656POPC   GL249394   1.851  11.324   5.897
 3656POPC   C1A49395   2.090  11.649   6.206
 3656POPC   D2A49396   1.928  11.474   6.532
 3656POPC   C3A49397   1.995  11.713   6.864
 3656POPC   C4A49398   1.932  11.518   7.255
 3656POPC   C1B49399   1.741  11.069   6.240
 3656POPC   C2B49400   1.870  10.994   6.653
 3656POPC   C3B49401   1.731  11.100   7.070
 3656POPC   C4B49402   1.725  11.140   7.553
 3657POPC   NC349403  10.443  24.081   5.645
 3657POPC   PO449404  10.969  23.715   5.348
 3657POPC   GL149405  10.942  23.549   5.854
 3657POPC   GL249406  10.591  23.555   5.945
 3657POPC   C1A49407  10.957  23.626   6.345
 3657POPC   D2A49408  10.899  24.000   6.652
 3657POPC   C3A49409  10.657  23.932   7.037
 3657POPC   C4A49410  10.675  23.598   7.343
 3657POPC   C1B49411  10.471  23.832   6.294
 3657POPC   C2B49412  10.310  23.797   6.682
 3657POPC   C3B49413  10.273  23.533   7.011
 3657POPC   C4B49414  10.047  23.161   7.065
 3658POPC   NC349415  28.626   8.131   5.370
 3658POPC   PO449416  27.989   8.351   5.405
 3658POPC   GL149417  28.185   8.219   5.786
 3658POPC   GL249418  28.475   8.035   5.850
 3658POPC   C1A49419  28.149   8.155   6.244
 3658POPC   D2A49420  28.423   8.040   6.578
 3658POPC   C3A49421  28.295   8.063   7.006
 3658POPC   C4A49422  28.351   8.340   7.403
 3658POPC   C1B49423  28.770   7.938   6.177
 3658POPC   C2B49424  28.898   7.867   6.617
 3658POPC   C3B49425  28.756   7.844   7.062
 3658POPC   C4B49426  28.774   7.931   7.537
 3659POPC   NC349427   5.425  20.770   5.579
 3659POPC   PO449428   5.831  20.217   5.618
 3659POPC   GL149429   6.053  20.389   5.947
 3659POPC   GL249430   6.155  20.729   5.842
 3659POPC   C1A49431   5.825  20.591   6.243
 3659POPC   D2A49432   5.712  20.789   6.608
 3659POPC   C3A49433   5.928  20.603   6.962
 3659POPC   C4A49434   5.744  20.671   7.376
 3659POPC   C1B49435   6.061  21.026   6.205
 3659POPC   C2B49436   6.198  20.932   6.623
 3659POPC   C3B49437   6.195  21.068   7.027
 3659POPC   C4B49438   5.812  21.092   7.117
 3660POPC   NC349439  29.361  37.933   5.439
 3660POPC   PO449440  29.295  38.644   5.428
 3660POPC   GL149441  29.107  38.672   5.854
 3660POPC   GL249442  29.074  38.329   5.893
 3660POPC   C1A49443  29.174  38.549   6.328
 3660POPC   D2A49444  29.323  38.640   6.708
 3660POPC   C3A49445  29.012  38.666   7.017
 3660POPC   C4A49446  29.109  38.628   7.430
 3660POPC   C1B49447  28.749  38.314   6.239
 3660POPC   C2B49448  28.839  38.310   6.696
 3660POPC   C3B49449  28.906  38.183   7.149
 3660POPC   C4B49450  29.186  38.152   7.550
 3661POPC   NC349451  10.785  38.784   5.378
 3661POPC   PO449452  10.382  38.281   5.674
 3661POPC   GL149453  10.577  38.392   5.984
 3661POPC   GL249454  10.791  38.606   5.847
 3661POPC   C1A49455  10.392  38.498   6.365
 3661POPC   D2A49456  10.042  38.471   6.670
 3661POPC   C3A49457  10.136  38.527   7.101
 3661POPC   C4A49458  10.476  38.457   7.388
 3661POPC   C1B49459  10.938  38.589   6.271
 3661POPC   C2B49460  10.801  38.734   6.642
 3661POPC   C3B49461  10.843  38.600   7.040
 3661POPC   C4B49462  10.790  38.857   7.371
 3662POPC   NC349463  32.466  17.300   5.407
 3662POPC   PO449464  31.976  17.121   5.754
 3662POPC   GL149465  32.154  17.492   5.956
 3662POPC   GL249466  31.868  17.727   6.009
 3662POPC   C1A49467  32.222  17.504   6.397
 3662POPC   D2A49468  32.098  17.785   6.708
 3662POPC   C3A49469  32.094  17.670   7.098
 3662POPC   C4A49470  32.223  17.466   7.461
 3662POPC   C1B49471  31.727  17.384   6.281
 3662POPC   C2B49472  31.878  17.277   6.696
 3662POPC   C3B49473  31.899  17.216   7.126
 3662POPC   C4B49474  31.684  16.987   7.417
 3663POPC   NC349475   0.174  35.610   5.086
 3663POPC   PO449476  44.773  35.246   5.426
 3663POPC   GL149477  44.794  35.154   5.836
 3663POPC   GL249478  44.834  34.791   5.841
 3663POPC   C1A49479  44.774  35.393   6.229
 3663POPC   D2A49480  44.915  35.467   6.654
 3663POPC   C3A49481  44.619  35.482   7.002
 3663POPC   C4A49482  44.766  35.375   7.397
 3663POPC   C1B49483  44.855  34.894   6.292
 3663POPC   C2B49484  44.639  35.049   6.669
 3663POPC   C3B49485  44.873  35.026   7.052
 3663POPC   C4B49486  44.782  34.768   7.441
 3664POPC   NC349487  19.308  43.364   5.477
 3664POPC   PO449488  18.975  42.793   5.527
 3664POPC   GL149489  19.025  43.086   5.870
 3664POPC   GL249490  19.351  43.190   6.013
 3664POPC   C1A49491  18.905  43.212   6.285
 3664POPC   D2A49492  19.047  43.375   6.686
 3664POPC   C3A49493  18.923  43.124   7.040
 3664POPC   C4A49494  18.640  42.788   7.112
 3664POPC   C1B49495  19.643  42.891   6.245
 3664POPC   C2B49496  19.571  42.767   6.680
 3664POPC   C3B49497  19.424  43.050   7.030
 3664POPC   C4B49498  19.496  43.004   7.495
 3665POPC   NC349499  43.351  43.251   5.457
 3665POPC   PO449500  42.818  42.880   5.451
 3665POPC   GL149501  43.146  42.886   5.809
 3665POPC   GL249502  43.208  43.206   5.938
 3665POPC   C1A49503  43.059  42.771   6.236
 3665POPC   D2A49504  42.795  42.967   6.554
 3665POPC   C3A49505  42.917  42.831   6.947
 3665POPC   C4A49506  42.848  42.895   7.349
 3665POPC   C1B49507  43.412  43.506   6.206
 3665POPC   C2B49508  43.467  43.564   6.632
 3665POPC   C3B49509  43.465  43.519   7.031
 3665POPC   C4B49510  43.284  43.146   7.187
 3666POPC   NC349511  34.662  34.832   5.470
 3666POPC   PO449512  34.701  34.148   5.387
 3666POPC   GL149513  34.743  34.405   5.787
 3666POPC   GL249514  34.902  34.728   5.903
 3666POPC   C1A49515  34.555  34.528   6.198
 3666POPC   D2A49516  34.483  34.715   6.615
 3666POPC   C3A49517  34.575  34.422   6.927
 3666POPC   C4A49518  34.512  34.408   7.363
 3666POPC   C1B49519  35.045  34.636   6.334
 3666POPC   C2B49520  34.989  34.681   6.773
 3666POPC   C3B49521  34.877  34.790   7.188
 3666POPC   C4B49522  34.903  34.593   7.615
 3667POPC   NC349523  31.807  18.956   5.236
 3667POPC   PO449524  31.389  19.417   5.498
 3667POPC   GL149525  31.407  19.059   5.780
 3667POPC   GL249526  31.716  18.876   5.767
 3667POPC   C1A49527  31.355  19.059   6.243
 3667POPC   D2A49528  31.194  19.393   6.554
 3667POPC   C3A49529  31.179  19.124   6.870
 3667POPC   C4A49530  31.497  19.046   7.048
 3667POPC   C1B49531  31.850  18.691   6.176
 3667POPC   C2B49532  31.684  18.767   6.604
 3667POPC   C3B49533  31.676  18.579   7.016
 3667POPC   C4B49534  31.644  18.719   7.424
 3668POPC   NC349535  32.457  15.856   5.487
 3668POPC   PO449536  31.932  16.215   5.418
 3668POPC   GL149537  32.039  15.921   5.778
 3668POPC   GL249538  32.297  15.635   5.912
 3668POPC   C1A49539  32.128  16.012   6.191
 3668POPC   D2A49540  32.296  15.860   6.564
 3668POPC   C3A49541  32.131  16.080   6.905
 3668POPC   C4A49542  32.114  15.947   7.303
 3668POPC   C1B49543  32.632  15.877   6.152
 3668POPC   C2B49544  32.797  16.029   6.547
 3668POPC   C3B49545  32.632  15.967   6.962
 3668POPC   C4B49546  32.597  16.158   7.353
 3669POPC   NC349547  13.108  44.066   5.544
 3669POPC   PO449548  12.666  43.597   5.360
 3669POPC   GL149549  12.660  43.924   5.701
 3669POPC   GL249550  12.816  43.674   5.852
 3669POPC   C1A49551  12.561  44.082   6.127
 3669POPC   D2A49552  12.598  43.875   6.545
 3669POPC   C3A49553  12.366  44.003   6.882
 3669POPC   C4A49554  12.533  43.935   7.276
 3669POPC   C1B49555  13.001  43.814   6.223
 3669POPC   C2B49556  13.069  44.085   6.588
 3669POPC   C3B49557  12.977  43.993   7.038
 3669POPC   C4B49558  13.165  43.563   7.170
 3670POPC   NC349559   8.719  28.369   5.420
 3670POPC   PO449560   9.346  28.464   5.775
 3670POPC   GL149561   8.948  28.275   5.928
 3670POPC   GL249562   8.615  28.156   5.860
 3670POPC   C1A49563   8.885  28.248   6.354
 3670POPC   D2A49564   9.243  28.454   6.544
 3670POPC   C3A49565   9.277  28.564   6.974
 3670POPC   C4A49566   9.385  28.505   7.387
 3670POPC   C1B49567   8.477  28.499   6.180
 3670POPC   C2B49568   8.590  28.571   6.620
 3670POPC   C3B49569   8.858  28.307   6.866
 3670POPC   C4B49570   8.926  28.326   7.271
 3671POPC   NC349571  25.968  24.912   5.392
 3671POPC   PO449572  26.378  25.382   5.304
 3671POPC   GL149573  26.169  25.271   5.730
 3671POPC   GL249574  25.783  25.190   5.772
 3671POPC   C1A49575  26.006  25.416   6.161
 3671POPC   D2A49576  26.197  25.558   6.553
 3671POPC   C3A49577  25.986  25.493   6.943
 3671POPC   C4A49578  26.274  25.308   7.186
 3671POPC   C1B49579  25.971  24.901   6.068
 3671POPC   C2B49580  25.909  24.785   6.486
 3671POPC   C3B49581  25.964  24.972   6.897
 3671POPC   C4B49582  25.833  25.015   7.313
 3672POPC   NC349583   7.285  26.245   5.140
 3672POPC   PO449584   7.799  25.831   5.276
 3672POPC   GL149585   7.533  26.027   5.630
 3672POPC   GL249586   7.239  26.292   5.658
 3672POPC   C1A49587   7.545  25.981   6.099
 3672POPC   D2A49588   7.596  26.215   6.484
 3672POPC   C3A49589   7.458  25.984   6.844
 3672POPC   C4A49590   7.503  26.118   7.254
 3672POPC   C1B49591   7.054  26.228   6.085
 3672POPC   C2B49592   7.057  26.034   6.506
 3672POPC   C3B49593   6.981  26.188   6.944
 3672POPC   C4B49594   7.072  26.367   7.374
 3673POPC   NC349595   7.755  28.620   5.511
 3673POPC   PO449596   7.268  29.185   5.434
 3673POPC   GL149597   7.208  28.952   5.842
 3673POPC   GL249598   7.570  28.923   5.871
 3673POPC   C1A49599   7.293  29.047   6.312
 3673POPC   D2A49600   7.426  29.317   6.679
 3673POPC   C3A49601   7.122  29.276   7.023
 3673POPC   C4A49602   6.922  28.896   7.151
 3673POPC   C1B49603   7.794  29.104   6.201
 3673POPC   C2B49604   7.761  28.898   6.590
 3673POPC   C3B49605   7.862  29.118   6.952
 3673POPC   C4B49606   7.603  29.384   7.190
 3674POPC   NC349607  38.851   8.235   5.331
 3674POPC   PO449608  38.253   8.548   5.371
 3674POPC   GL149609  38.484   8.306   5.692
 3674POPC   GL249610  38.766   8.498   5.782
 3674POPC   C1A49611  38.386   8.105   6.106
 3674POPC   D2A49612  38.358   8.267   6.547
 3674POPC   C3A49613  38.185   8.140   6.973
 3674POPC   C4A49614  38.335   8.331   7.368
 3674POPC   C1B49615  38.895   8.109   6.050
 3674POPC   C2B49616  38.773   7.965   6.491
 3674POPC   C3B49617  38.671   8.058   6.938
 3674POPC   C4B49618  38.872   7.968   7.325
 3675POPC   NC349619   7.324  12.575   5.015
 3675POPC   PO449620   7.343  13.121   5.344
 3675POPC   GL149621   7.432  12.857   5.672
 3675POPC   GL249622   7.336  13.134   5.871
 3675POPC   C1A49623   7.379  12.722   6.133
 3675POPC   D2A49624   7.515  12.675   6.551
 3675POPC   C3A49625   7.379  12.763   6.983
 3675POPC   C4A49626   7.530  12.545   7.389
 3675POPC   C1B49627   7.769  13.063   5.990
 3675POPC   C2B49628   7.872  13.118   6.407
 3675POPC   C3B49629   7.829  12.983   6.818
 3675POPC   C4B49630   7.732  13.033   7.226
 3676POPC   NC349631   8.415  24.621   5.356
 3676POPC   PO449632   7.841  24.171   5.361
 3676POPC   GL149633   8.143  24.216   5.717
 3676POPC   GL249634   8.160  24.572   5.793
 3676POPC   C1A49635   8.331  24.299   6.167
 3676POPC   D2A49636   8.409  24.688   6.419
 3676POPC   C3A49637   8.295  24.684   6.866
 3676POPC   C4A49638   8.178  24.451   7.235
 3676POPC   C1B49639   7.915  24.670   6.173
 3676POPC   C2B49640   7.964  24.411   6.539
 3676POPC   C3B49641   7.828  24.209   6.906
 3676POPC   C4B49642   7.650  24.378   7.264
 3677POPC   NC349643  32.589  36.651   5.494
 3677POPC   PO449644  31.938  36.933   5.362
 3677POPC   GL149645  32.127  36.777   5.719
 3677POPC   GL249646  32.357  37.042   5.770
 3677POPC   C1A49647  32.045  36.845   6.155
 3677POPC   D2A49648  32.103  36.690   6.558
 3677POPC   C3A49649  32.062  36.897   6.935
 3677POPC   C4A49650  32.417  36.852   7.210
 3677POPC   C1B49651  32.383  37.245   6.169
 3677POPC   C2B49652  32.451  37.084   6.590
 3677POPC   C3B49653  32.379  37.303   6.977
 3677POPC   C4B49654  32.477  37.576   7.302
 3678POPC   NC349655  28.171  25.153   5.435
 3678POPC   PO449656  28.541  25.697   5.433
 3678POPC   GL149657  28.437  25.388   5.805
 3678POPC   GL249658  28.058  25.395   5.889
 3678POPC   C1A49659  28.664  25.248   6.211
 3678POPC   D2A49660  28.711  25.041   6.612
 3678POPC   C3A49661  28.524  25.269   6.935
 3678POPC   C4A49662  28.525  25.165   7.364
 3678POPC   C1B49663  28.166  25.192   6.281
 3678POPC   C2B49664  28.059  24.793   6.433
 3678POPC   C3B49665  28.085  24.761   6.856
 3678POPC   C4B49666  28.003  24.706   7.259
 3679POPC   NC349667  44.113   1.229   5.360
 3679POPC   PO449668  43.464   1.013   5.442
 3679POPC   GL149669  43.602   1.258   5.807
 3679POPC   GL249670  43.933   1.441   5.792
 3679POPC   C1A49671  43.761   1.190   6.235
 3679POPC   D2A49672  43.945   0.963   6.587
 3679POPC   C3A49673  43.786   1.184   6.958
 3679POPC   C4A49674  43.678   1.181   7.391
 3679POPC   C1B49675  44.140   1.679   6.101
 3679POPC   C2B49676  44.242   1.580   6.492
 3679POPC   C3B49677  44.369   1.583   6.884
 3679POPC   C4B49678  44.083   1.561   7.199
 3680POPC   NC349679  23.534   9.227   5.275
 3680POPC   PO449680  24.156   9.146   5.542
 3680POPC   GL149681  23.882   9.175   5.881
 3680POPC   GL249682  23.520   9.110   5.802
 3680POPC   C1A49683  23.887   8.872   6.219
 3680POPC   D2A49684  24.084   8.775   6.605
 3680POPC   C3A49685  23.854   8.879   6.973
 3680POPC   C4A49686  23.619   8.752   7.315
 3680POPC   C1B49687  23.381   8.841   6.153
 3680POPC   C2B49688  23.488   8.906   6.580
 3680POPC   C3B49689  23.517   9.255   6.845
 3680POPC   C4B49690  23.590   9.256   7.258
 3681POPC   NC349691   3.254  20.798   5.622
 3681POPC   PO449692   3.649  20.340   5.182
 3681POPC   GL149693   3.790  20.487   5.728
 3681POPC   GL249694   3.708  20.793   5.847
 3681POPC   C1A49695   3.576  20.433   6.194
 3681POPC   D2A49696   3.395  20.543   6.599
 3681POPC   C3A49697   3.672  20.409   6.920
 3681POPC   C4A49698   3.508  20.182   7.241
 3681POPC   C1B49699   3.416  20.917   6.217
 3681POPC   C2B49700   3.248  21.043   6.592
 3681POPC   C3B49701   3.241  21.108   7.009
 3681POPC   C4B49702   3.378  20.737   7.177
 3682POPC   NC349703  19.542  36.190   5.049
 3682POPC   PO449704  18.949  36.025   5.358
 3682POPC   GL149705  18.933  35.963   5.782
 3682POPC   GL249706  19.274  35.928   5.793
 3682POPC   C1A49707  18.836  36.094   6.184
 3682POPC   D2A49708  18.923  36.362   6.511
 3682POPC   C3A49709  18.858  36.140   6.893
 3682POPC   C4A49710  18.937  36.232   7.322
 3682POPC   C1B49711  19.283  35.771   6.202
 3682POPC   C2B49712  19.204  35.930   6.561
 3682POPC   C3B49713  19.350  35.959   6.935
 3682POPC   C4B49714  19.659  35.759   7.197
 3683POPC   NC349715  29.869  27.900   4.927
 3683POPC   PO449716  29.895  27.408   5.279
 3683POPC   GL149717  29.852  27.624   5.673
 3683POPC   GL249718  30.189  27.692   5.780
 3683POPC   C1A49719  29.814  27.531   6.127
 3683POPC   D2A49720  29.652  27.471   6.561
 3683POPC   C3A49721  29.819  27.518   6.957
 3683POPC   C4A49722  29.787  27.918   7.141
 3683POPC   C1B49723  30.201  27.830   6.203
 3683POPC   C2B49724  30.196  27.631   6.608
 3683POPC   C3B49725  30.282  27.691   7.055
 3683POPC   C4B49726  30.260  28.072   7.213
 3684POPC   NC349727  18.967  41.139   5.272
 3684POPC   PO449728  19.044  41.793   5.440
 3684POPC   GL149729  19.060  41.436   5.682
 3684POPC   GL249730  18.767  41.518   5.890
 3684POPC   C1A49731  19.222  41.384   6.092
 3684POPC   D2A49732  18.974  41.582   6.411
 3684POPC   C3A49733  19.057  41.525   6.836
 3684POPC   C4A49734  18.940  41.391   7.239
 3684POPC   C1B49735  18.627  41.886   6.154
 3684POPC   C2B49736  18.620  41.914   6.598
 3684POPC   C3B49737  18.603  41.717   6.987
 3684POPC   C4B49738  18.556  41.769   7.423
 3685POPC   NC349739   5.816  19.425   5.530
 3685POPC   PO449740   5.619  18.775   5.416
 3685POPC   GL149741   5.690  19.021   5.808
 3685POPC   GL249742   6.036  19.025   5.908
 3685POPC   C1A49743   5.616  18.998   6.257
 3685POPC   D2A49744   5.805  19.228   6.603
 3685POPC   C3A49745   5.581  19.260   6.977
 3685POPC   C4A49746   5.478  18.986   7.280
 3685POPC   C1B49747   6.079  19.398   6.180
 3685POPC   C2B49748   6.259  19.461   6.604
 3685POPC   C3B49749   6.358  19.266   7.009
 3685POPC   C4B49750   6.039  19.055   7.190
 3686POPC   NC349751   7.610  36.183   5.406
 3686POPC   PO449752   6.984  35.980   5.372
 3686POPC   GL149753   7.252  35.970   5.738
 3686POPC   GL249754   7.524  36.222   5.895
 3686POPC   C1A49755   7.137  36.013   6.145
 3686POPC   D2A49756   7.407  36.162   6.459
 3686POPC   C3A49757   7.315  36.065   6.882
 3686POPC   C4A49758   7.238  36.163   7.306
 3686POPC   C1B49759   7.708  36.492   6.221
 3686POPC   C2B49760   7.660  36.586   6.660
 3686POPC   C3B49761   7.692  36.379   7.086
 3686POPC   C4B49762   7.604  36.506   7.501
 3687POPC   NC349763  17.365  40.582   5.478
 3687POPC   PO449764  17.589  41.155   5.247
 3687POPC   GL149765  17.656  41.017   5.756
 3687POPC   GL249766  17.667  40.666   5.875
 3687POPC   C1A49767  17.507  41.000   6.220
 3687POPC   D2A49768  17.617  40.788   6.652
 3687POPC   C3A49769  17.253  40.830   6.971
 3687POPC   C4A49770  17.059  41.181   7.238
 3687POPC   C1B49771  17.488  40.487   6.261
 3687POPC   C2B49772  17.293  40.384   6.634
 3687POPC   C3B49773  17.501  40.365   6.990
 3687POPC   C4B49774  17.328  40.477   7.356
 3688POPC   NC349775  20.976  36.898   5.260
 3688POPC   PO449776  20.439  36.563   5.483
 3688POPC   GL149777  20.739  36.787   5.776
 3688POPC   GL249778  20.644  37.123   5.879
 3688POPC   C1A49779  20.833  36.710   6.250
 3688POPC   D2A49780  20.878  36.628   6.720
 3688POPC   C3A49781  20.650  36.909   7.005
 3688POPC   C4A49782  20.233  36.765   7.140
 3688POPC   C1B49783  20.883  37.268   6.256
 3688POPC   C2B49784  20.828  37.419   6.706
 3688POPC   C3B49785  20.944  37.325   7.125
 3688POPC   C4B49786  20.955  37.029   7.439
 3689POPC   NC349787  32.070  28.087   5.594
 3689POPC   PO449788  32.257  28.538   5.146
 3689POPC   GL149789  32.335  28.490   5.677
 3689POPC   GL249790  32.474  28.207   5.909
 3689POPC   C1A49791  32.117  28.484   6.121
 3689POPC   D2A49792  32.010  28.300   6.524
 3689POPC   C3A49793  32.220  28.513   6.861
 3689POPC   C4A49794  32.138  28.544   7.313
 3689POPC   C1B49795  32.303  27.983   6.239
 3689POPC   C2B49796  32.380  27.885   6.652
 3689POPC   C3B49797  32.088  27.992   6.938
 3689POPC   C4B49798  32.024  28.020   7.357
 3690POPC   NC349799  44.835  29.721   5.450
 3690POPC   PO449800  44.862  30.366   5.554
 3690POPC   GL149801  44.621  30.100   5.813
 3690POPC   GL249802  44.895  29.897   5.905
 3690POPC   C1A49803  44.583  30.057   6.273
 3690POPC   D2A49804  44.544  30.280   6.655
 3690POPC   C3A49805  44.814  30.141   6.980
 3690POPC   C4A49806  44.613  30.051   7.330
 3690POPC   C1B49807   0.090  29.688   6.213
 3690POPC   C2B49808  44.952  29.823   6.591
 3690POPC   C3B49809  44.984  29.652   6.968
 3690POPC   C4B49810   0.137  29.791   7.322
 3691POPC   NC349811  41.505   9.749   5.276
 3691POPC   PO449812  41.561   9.159   5.356
 3691POPC   GL149813  41.646   9.476   5.713
 3691POPC   GL249814  41.697   9.890   5.760
 3691POPC   C1A49815  41.716   9.584   6.158
 3691POPC   D2A49816  41.543   9.767   6.547
 3691POPC   C3A49817  41.597   9.612   6.969
 3691POPC   C4A49818  41.837   9.580   7.344
 3691POPC   C1B49819  41.878  10.085   6.162
 3691POPC   C2B49820  41.887  10.145   6.633
 3691POPC   C3B49821  41.813  10.073   7.112
 3691POPC   C4B49822  41.991  10.019   7.551
 3692POPC   NC349823  17.317   0.137   5.527
 3692POPC   PO449824  17.537  44.534   5.513
 3692POPC   GL149825  17.324  44.675   5.891
 3692POPC   GL249826  17.431   0.032   5.997
 3692POPC   C1A49827  17.354  44.448   6.301
 3692POPC   D2A49828  17.631  44.509   6.664
 3692POPC   C3A49829  17.509  44.328   7.077
 3692POPC   C4A49830  17.437  44.381   7.539
 3692POPC   C1B49831  17.766  44.784   6.177
 3692POPC   C2B49832  17.962  44.877   6.561
 3692POPC   C3B49833  17.763  44.865   6.998
 3692POPC   C4B49834  17.604  44.851   7.411
 3693POPC   NC349835  11.650  21.831   5.108
 3693POPC   PO449836  11.997  22.267   5.514
 3693POPC   GL149837  12.225  22.205   5.865
 3693POPC   GL249838  12.045  21.906   5.894
 3693POPC   C1A49839  12.341  22.488   6.236
 3693POPC   D2A49840  12.255  22.699   6.649
 3693POPC   C3A49841  12.420  22.515   7.001
 3693POPC   C4A49842  12.304  22.269   7.323
 3693POPC   C1B49843  12.019  22.086   6.318
 3693POPC   C2B49844  12.017  22.244   6.753
 3693POPC   C3B49845  11.913  22.026   7.128
 3693POPC   C4B49846  11.710  21.666   7.263
 3694POPC   NC349847  41.146   9.002   5.177
 3694POPC   PO449848  41.451   8.615   5.618
 3694POPC   GL149849  41.669   8.942   5.839
 3694POPC   GL249850  41.907   8.923   5.770
 3694POPC   C1A49851  41.597   9.063   6.240
 3694POPC   D2A49852  41.390   8.870   6.570
 3694POPC   C3A49853  41.410   9.138   6.891
 3694POPC   C4A49854  41.509   9.195   7.290
 3694POPC   C1B49855  41.955   8.698   6.183
 3694POPC   C2B49856  41.984   8.833   6.592
 3694POPC   C3B49857  41.745   8.739   6.912
 3694POPC   C4B49858  41.869   8.810   7.277
 3695POPC   NC349859  11.636   4.596   5.266
 3695POPC   PO449860  11.104   4.181   5.349
 3695POPC   GL149861  11.182   4.481   5.736
 3695POPC   GL249862  11.093   4.236   5.997
 3695POPC   C1A49863  11.251   4.658   6.201
 3695POPC   D2A49864  11.367   4.530   6.649
 3695POPC   C3A49865  11.272   4.762   7.030
 3695POPC   C4A49866  11.088   4.571   7.377
 3695POPC   C1B49867  11.302   4.112   6.353
 3695POPC   C2B49868  11.150   3.848   6.672
 3695POPC   C3B49869  11.178   3.994   7.065
 3695POPC   C4B49870  11.466   4.305   7.154
 3696POPC   NC349871  18.285  21.209   5.433
 3696POPC   PO449872  17.755  21.124   5.572
 3696POPC   GL149873  18.050  21.181   5.901
 3696POPC   GL249874  18.141  21.509   5.860
 3696POPC   C1A49875  18.222  21.206   6.322
 3696POPC   D2A49876  18.219  21.463   6.695
 3696POPC   C3A49877  18.183  21.233   7.104
 3696POPC   C4A49878  18.055  21.393   7.506
 3696POPC   C1B49879  17.965  21.643   6.256
 3696POPC   C2B49880  17.705  21.586   6.620
 3696POPC   C3B49881  17.766  21.527   7.053
 3696POPC   C4B49882  17.561  21.561   7.454
 3697POPC   NC349883  33.548   1.510   5.544
 3697POPC   PO449884  34.005   0.942   5.511
 3697POPC   GL149885  33.895   1.248   5.819
 3697POPC   GL249886  34.164   1.407   5.931
 3697POPC   C1A49887  33.696   1.199   6.223
 3697POPC   D2A49888  33.805   0.897   6.554
 3697POPC   C3A49889  33.630   1.015   6.946
 3697POPC   C4A49890  33.458   1.300   7.231
 3697POPC   C1B49891  34.121   1.449   6.353
 3697POPC   C2B49892  34.053   1.305   6.743
 3697POPC   C3B49893  33.956   1.365   7.152
 3697POPC   C4B49894  33.784   1.476   7.569
 3698POPC   NC349895  20.311  32.211   5.576
 3698POPC   PO449896  20.933  32.133   5.476
 3698POPC   GL149897  20.719  32.382   5.803
 3698POPC   GL249898  20.686  32.070   5.913
 3698POPC   C1A49899  20.524  32.468   6.208
 3698POPC   D2A49900  20.699  32.425   6.623
 3698POPC   C3A49901  20.648  32.590   7.017
 3698POPC   C4A49902  20.488  32.486   7.420
 3698POPC   C1B49903  20.819  32.064   6.274
 3698POPC   C2B49904  20.477  31.971   6.540
 3698POPC   C3B49905  20.415  32.120   6.954
 3698POPC   C4B49906  20.563  31.900   7.315
 3699POPC   NC349907   3.841  33.087   5.419
 3699POPC   PO449908   3.150  33.060   5.332
 3699POPC   GL149909   3.249  32.991   5.793
 3699POPC   GL249910   3.603  33.114   5.868
 3699POPC   C1A49911   3.342  32.980   6.262
 3699POPC   D2A49912   3.569  32.874   6.609
 3699POPC   C3A49913   3.391  33.043   6.919
 3699POPC   C4A49914   3.260  32.892   7.274
 3699POPC   C1B49915   3.844  33.112   6.263
 3699POPC   C2B49916   4.063  33.070   6.660
 3699POPC   C3B49917   3.870  33.147   7.035
 3699POPC   C4B49918   3.553  33.411   7.257
 3700POPC   NC349919  11.786  18.354   5.379
 3700POPC   PO449920  12.324  18.864   5.425
 3700POPC   GL149921  12.168  18.521   5.681
 3700POPC   GL249922  12.292  18.158   5.720
 3700POPC   C1A49923  12.160  18.467   6.100
 3700POPC   D2A49924  12.123  18.701   6.447
 3700POPC   C3A49925  12.096  18.481   6.837
 3700POPC   C4A49926  12.329  18.413   7.252
 3700POPC   C1B49927  12.077  17.964   6.094
 3700POPC   C2B49928  11.903  18.109   6.511
 3700POPC   C3B49929  11.767  17.883   6.898
 3700POPC   C4B49930  11.757  17.777   7.354
 3701POPC   NC349931  10.523  35.481   5.282
 3701POPC   PO449932  10.170  34.939   5.403
 3701POPC   GL149933  10.378  35.143   5.754
 3701POPC   GL249934  10.379  35.537   5.780
 3701POPC   C1A49935  10.284  35.246   6.185
 3701POPC   D2A49936  10.395  35.555   6.474
 3701POPC   C3A49937  10.276  35.262   6.763
 3701POPC   C4A49938  10.255  35.236   7.166
 3701POPC   C1B49939  10.755  35.365   6.055
 3701POPC   C2B49940  10.831  35.279   6.532
 3701POPC   C3B49941  10.739  35.269   7.010
 3701POPC   C4B49942  10.622  35.449   7.443
 3702POPC   NC349943  11.629  44.839   5.298
 3702POPC   PO449944  12.056  44.389   5.378
 3702POPC   GL149945  12.102  44.767   5.631
 3702POPC   GL249946  11.763  44.703   5.773
 3702POPC   C1A49947  12.112  44.921   6.091
 3702POPC   D2A49948  11.840  44.886   6.469
 3702POPC   C3A49949  11.982  44.885   6.876
 3702POPC   C4A49950  12.070  44.794   7.294
 3702POPC   C1B49951  11.699  44.462   6.170
 3702POPC   C2B49952  11.937  44.363   6.540
 3702POPC   C3B49953  11.994  44.379   6.958
 3702POPC   C4B49954  12.344  44.385   7.230
 3703POPC   NC349955  29.619  41.368   5.513
 3703POPC   PO449956  30.299  41.572   5.361
 3703POPC   GL149957  30.130  41.387   5.759
 3703POPC   GL249958  29.895  41.648   5.850
 3703POPC   C1A49959  30.027  41.335   6.218
 3703POPC   D2A49960  29.916  41.664   6.529
 3703POPC   C3A49961  30.081  41.604   6.942
 3703POPC   C4A49962  30.067  41.318   7.262
 3703POPC   C1B49963  29.534  41.618   6.129
 3703POPC   C2B49964  29.388  41.628   6.526
 3703POPC   C3B49965  29.513  41.842   6.865
 3703POPC   C4B49966  29.609  41.572   7.160
 3704POPC   NC349967  24.310   9.562   5.398
 3704POPC   PO449968  24.807   9.926   5.476
 3704POPC   GL149969  24.625   9.713   5.803
 3704POPC   GL249970  24.848   9.845   6.028
 3704POPC   C1A49971  24.337   9.840   6.160
 3704POPC   D2A49972  24.106   9.802   6.563
 3704POPC   C3A49973  24.333   9.802   6.930
 3704POPC   C4A49974  24.462  10.111   7.217
 3704POPC   C1B49975  24.861   9.401   6.213
 3704POPC   C2B49976  24.984   9.173   6.631
 3704POPC   C3B49977  25.088   9.420   6.992
 3704POPC   C4B49978  24.810   9.744   7.125
 3705POPC   NC349979  17.165  19.818   5.475
 3705POPC   PO449980  16.592  19.752   5.381
 3705POPC   GL149981  16.792  19.748   5.820
 3705POPC   GL249982  16.758  20.104   5.931
 3705POPC   C1A49983  16.801  19.781   6.307
 3705POPC   D2A49984  16.876  19.993   6.721
 3705POPC   C3A49985  16.671  19.780   7.054
 3705POPC   C4A49986  16.538  19.382   7.276
 3705POPC   C1B49987  16.593  20.258   6.365
 3705POPC   C2B49988  16.452  20.260   6.810
 3705POPC   C3B49989  16.648  20.302   7.208
 3705POPC   C4B49990  16.640  20.413   7.653
 3706POPC   NC349991  18.663  39.125   5.240
 3706POPC   PO449992  18.045  39.494   5.332
 3706POPC   GL149993  17.977  39.206   5.691
 3706POPC   GL249994  18.335  39.076   5.752
 3706POPC   C1A49995  18.054  39.265   6.140
 3706POPC   D2A49996  18.302  39.415   6.490
 3706POPC   C3A49997  18.033  39.440   6.851
 3706POPC   C4A49998  18.219  39.415   7.241
 3706POPC   C1B49999  18.531  38.871   6.117
 3706POPC   C2B50000  18.673  38.995   6.532
 3706POPC   C3B50001  18.675  38.984   6.970
 3706POPC   C4B50002  18.416  38.953   7.292
 3707POPC   NC350003  40.209   8.003   5.560
 3707POPC   PO450004  39.938   8.685   5.702
 3707POPC   GL150005  40.073   8.369   5.910
 3707POPC   GL250006  39.794   8.194   5.904
 3707POPC   C1A50007  40.229   8.183   6.271
 3707POPC   D2A50008  40.069   7.905   6.569
 3707POPC   C3A50009  40.216   8.097   6.945
 3707POPC   C4A50010  40.558   8.343   7.145
 3707POPC   C1B50011  39.687   8.507   6.260
 3707POPC   C2B50012  39.841   8.681   6.678
 3707POPC   C3B50013  40.038   8.556   7.078
 3707POPC   C4B50014  39.888   8.187   7.358
 3708POPC   NC350015  34.159  29.115   5.174
 3708POPC   PO450016  34.730  29.014   5.537
 3708POPC   GL150017  34.747  28.967   5.934
 3708POPC   GL250018  34.838  29.311   5.944
 3708POPC   C1A50019  34.486  28.870   6.289
 3708POPC   D2A50020  34.438  29.055   6.716
 3708POPC   C3A50021  34.321  28.833   7.097
 3708POPC   C4A50022  34.545  28.910   7.480
 3708POPC   C1B50023  34.776  29.295   6.377
 3708POPC   C2B50024  34.838  29.395   6.798
 3708POPC   C3B50025  34.751  29.331   7.246
 3708POPC   C4B50026  34.766  29.547   7.631
 3709POPC   NC350027  26.904   6.275   5.407
 3709POPC   PO450028  27.035   7.005   5.399
 3709POPC   GL150029  26.800   6.785   5.697
 3709POPC   GL250030  27.059   6.572   5.792
 3709POPC   C1A50031  26.685   6.823   6.130
 3709POPC   D2A50032  26.834   6.763   6.570
 3709POPC   C3A50033  26.648   6.742   6.960
 3709POPC   C4A50034  26.722   6.987   7.286
 3709POPC   C1B50035  27.286   6.399   6.139
 3709POPC   C2B50036  27.286   6.516   6.571
 3709POPC   C3B50037  27.068   6.414   6.944
 3709POPC   C4B50038  26.964   6.547   7.340
 3710POPC   NC350039  40.563   3.361   5.407
 3710POPC   PO450040  41.203   3.698   5.391
 3710POPC   GL150041  40.893   3.703   5.742
 3710POPC   GL250042  40.832   3.340   5.853
 3710POPC   C1A50043  40.911   3.751   6.204
 3710POPC   D2A50044  40.627   3.763   6.570
 3710POPC   C3A50045  40.763   3.660   6.984
 3710POPC   C4A50046  40.834   3.547   7.391
 3710POPC   C1B50047  40.671   3.288   6.286
 3710POPC   C2B50048  40.578   3.253   6.710
 3710POPC   C3B50049  40.536   3.196   7.153
 3710POPC   C4B50050  40.370   3.190   7.591
 3711POPC   NC350051  19.417  37.376   5.427
 3711POPC   PO450052  18.751  37.683   5.417
 3711POPC   GL150053  19.058  37.818   5.760
 3711POPC   GL250054  19.211  37.523   5.858
 3711POPC   C1A50055  19.250  37.945   6.184
 3711POPC   D2A50056  19.393  37.733   6.580
 3711POPC   C3A50057  19.194  37.820   6.978
 3711POPC   C4A50058  18.987  37.828   7.383
 3711POPC   C1B50059  19.333  37.257   6.154
 3711POPC   C2B50060  19.081  37.288   6.469
 3711POPC   C3B50061  19.134  37.317   6.882
 3711POPC   C4B50062  19.222  36.970   7.138
 3712POPC   NC350063  37.154  41.017   5.373
 3712POPC   PO450064  36.599  40.601   5.347
 3712POPC   GL150065  36.770  40.824   5.696
 3712POPC   GL250066  37.115  40.683   5.760
 3712POPC   C1A50067  36.867  40.972   6.114
 3712POPC   D2A50068  36.701  41.114   6.493
 3712POPC   C3A50069  36.937  40.933   6.813
 3712POPC   C4A50070  36.904  40.855   7.223
 3712POPC   C1B50071  37.286  40.536   6.173
 3712POPC   C2B50072  37.114  40.503   6.603
 3712POPC   C3B50073  37.300  40.591   7.027
 3712POPC   C4B50074  37.269  40.632   7.479
 3713POPC   NC350075  30.507   1.824   5.280
 3713POPC   PO450076  31.112   1.730   5.427
 3713POPC   GL150077  30.851   1.953   5.771
 3713POPC   GL250078  30.899   2.305   5.669
 3713POPC   C1A50079  30.698   1.975   6.272
 3713POPC   D2A50080  30.785   1.994   6.784
 3713POPC   C3A50081  30.451   2.020   7.151
 3713POPC   C4A50082  30.479   1.844   7.602
 3713POPC   C1B50083  30.985   2.373   6.136
 3713POPC   C2B50084  30.780   2.450   6.568
 3713POPC   C3B50085  30.749   2.448   7.052
 3713POPC   C4B50086  30.564   2.672   7.425
 3714POPC   NC350087   7.404  14.040   5.460
 3714POPC   PO450088   7.172  14.692   5.466
 3714POPC   GL150089   7.172  14.389   5.811
 3714POPC   GL250090   7.384  14.089   5.956
 3714POPC   C1A50091   7.254  14.448   6.268
 3714POPC   D2A50092   7.486  14.531   6.637
 3714POPC   C3A50093   7.235  14.552   6.987
 3714POPC   C4A50094   7.315  14.414   7.413
 3714POPC   C1B50095   7.522  14.003   6.397
 3714POPC   C2B50096   7.670  13.883   6.821
 3714POPC   C3B50097   7.695  14.073   7.239
 3714POPC   C4B50098   7.810  14.344   7.590
 3715POPC   NC350099  35.885  17.460   5.553
 3715POPC   PO450100  35.307  17.176   5.400
 3715POPC   GL150101  35.423  17.423   5.765
 3715POPC   GL250102  35.220  17.699   5.874
 3715POPC   C1A50103  35.412  17.368   6.204
 3715POPC   D2A50104  35.295  17.608   6.569
 3715POPC   C3A50105  35.392  17.389   6.954
 3715POPC   C4A50106  35.299  17.630   7.336
 3715POPC   C1B50107  35.573  17.850   6.174
 3715POPC   C2B50108  35.757  17.821   6.610
 3715POPC   C3B50109  35.708  17.814   7.075
 3715POPC   C4B50110  35.695  17.815   7.610
 3716POPC   NC350111  10.701   5.482   5.418
 3716POPC   PO450112  10.437   4.984   5.493
 3716POPC   GL150113  10.742   4.981   5.842
 3716POPC   GL250114  10.749   4.646   5.944
 3716POPC   C1A50115  10.862   5.013   6.322
 3716POPC   D2A50116  10.968   5.096   6.792
 3716POPC   C3A50117  10.679   5.312   7.098
 3716POPC   C4A50118  10.580   5.385   7.539
 3716POPC   C1B50119  10.779   4.509   6.372
 3716POPC   C2B50120  10.599   4.749   6.719
 3716POPC   C3B50121  10.697   4.805   7.159
 3716POPC   C4B50122  10.601   4.544   7.540
 3717POPC   NC350123  35.531  12.445   5.394
 3717POPC   PO450124  35.550  13.103   5.396
 3717POPC   GL150125  35.513  12.839   5.767
 3717POPC   GL250126  35.425  13.139   5.925
 3717POPC   C1A50127  35.567  12.671   6.218
 3717POPC   D2A50128  35.631  12.447   6.660
 3717POPC   C3A50129  35.569  12.673   7.085
 3717POPC   C4A50130  35.437  13.101   7.229
 3717POPC   C1B50131  35.364  13.113   6.380
 3717POPC   C2B50132  35.243  12.946   6.781
 3717POPC   C3B50133  35.009  12.834   7.179
 3717POPC   C4B50134  34.763  12.730   7.567
 3718POPC   NC350135  37.966  32.189   5.349
 3718POPC   PO450136  38.453  32.677   5.406
 3718POPC   GL150137  38.529  32.311   5.720
 3718POPC   GL250138  38.293  32.040   5.730
 3718POPC   C1A50139  38.577  32.104   6.146
 3718POPC   D2A50140  38.522  32.215   6.561
 3718POPC   C3A50141  38.707  32.124   6.964
 3718POPC   C4A50142  38.561  32.262   7.332
 3718POPC   C1B50143  38.128  32.408   6.013
 3718POPC   C2B50144  37.990  32.450   6.456
 3718POPC   C3B50145  38.198  32.362   6.904
 3718POPC   C4B50146  38.119  32.086   7.214
 3719POPC   NC350147  32.390  28.982   5.108
 3719POPC   PO450148  32.138  29.497   5.403
 3719POPC   GL150149  32.366  29.316   5.743
 3719POPC   GL250150  32.337  28.973   5.777
 3719POPC   C1A50151  32.403  29.216   6.188
 3719POPC   D2A50152  32.192  29.241   6.572
 3719POPC   C3A50153  32.458  29.268   6.927
 3719POPC   C4A50154  32.447  28.889   7.139
 3719POPC   C1B50155  31.972  28.968   6.141
 3719POPC   C2B50156  31.905  28.804   6.548
 3719POPC   C3B50157  31.963  28.939   6.965
 3719POPC   C4B50158  31.690  28.817   7.276
 3720POPC   NC350159  19.982  24.868   5.342
 3720POPC   PO450160  20.026  25.523   5.430
 3720POPC   GL150161  19.870  25.444   5.848
 3720POPC   GL250162  19.785  25.116   5.784
 3720POPC   C1A50163  19.926  25.406   6.300
 3720POPC   D2A50164  20.150  25.357   6.647
 3720POPC   C3A50165  19.847  25.460   6.915
 3720POPC   C4A50166  19.685  25.543   7.252
 3720POPC   C1B50167  19.902  24.926   6.184
 3720POPC   C2B50168  20.076  24.860   6.609
 3720POPC   C3B50169  20.083  25.024   7.037
 3720POPC   C4B50170  19.686  25.012   7.211
 3721POPC   NC350171  11.368  25.067   5.161
 3721POPC   PO450172  10.704  25.240   5.416
 3721POPC   GL150173  11.033  25.390   5.738
 3721POPC   GL250174  10.936  25.669   5.972
 3721POPC   C1A50175  11.400  25.470   6.059
 3721POPC   D2A50176  11.558  25.499   6.506
 3721POPC   C3A50177  11.498  25.281   6.926
 3721POPC   C4A50178  11.381  25.494   7.332
 3721POPC   C1B50179  10.942  25.242   6.217
 3721POPC   C2B50180  10.934  25.101   6.651
 3721POPC   C3B50181  10.997  25.285   7.062
 3721POPC   C4B50182  11.013  25.168   7.489
 3722POPC   NC350183  38.322  14.851   5.340
 3722POPC   PO450184  38.708  14.330   5.329
 3722POPC   GL150185  38.470  14.299   5.705
 3722POPC   GL250186  38.736  14.455   5.879
 3722POPC   C1A50187  38.249  14.473   6.059
 3722POPC   D2A50188  38.264  14.399   6.499
 3722POPC   C3A50189  38.230  14.331   6.930
 3722POPC   C4A50190  38.216  14.393   7.362
 3722POPC   C1B50191  38.735  14.414   6.318
 3722POPC   C2B50192  38.724  14.424   6.766
 3722POPC   C3B50193  38.857  14.485   7.173
 3722POPC   C4B50194  39.036  14.872   7.333
 3723POPC   NC350195  17.345  13.034   5.005
 3723POPC   PO450196  17.869  12.844   5.494
 3723POPC   GL150197  17.631  12.670   5.829
 3723POPC   GL250198  17.321  12.854   5.789
 3723POPC   C1A50199  17.444  12.586   6.243
 3723POPC   D2A50200  17.541  12.748   6.637
 3723POPC   C3A50201  17.352  12.670   7.026
 3723POPC   C4A50202  17.710  12.699   7.256
 3723POPC   C1B50203  17.128  12.994   6.175
 3723POPC   C2B50204  17.043  12.832   6.581
 3723POPC   C3B50205  17.058  13.077   6.955
 3723POPC   C4B50206  16.918  12.981   7.350
 3724POPC   NC350207  33.361  19.984   5.407
 3724POPC   PO450208  32.813  19.585   5.198
 3724POPC   GL150209  32.835  19.564   5.679
 3724POPC   GL250210  33.143  19.358   5.777
 3724POPC   C1A50211  32.828  19.672   6.131
 3724POPC   D2A50212  32.684  19.655   6.559
 3724POPC   C3A50213  32.820  20.004   6.829
 3724POPC   C4A50214  32.942  20.050   7.274
 3724POPC   C1B50215  33.313  19.519   6.186
 3724POPC   C2B50216  33.219  19.844   6.511
 3724POPC   C3B50217  33.316  19.869   6.960
 3724POPC   C4B50218  33.316  19.722   7.397
 3725POPC   NC350219  23.869  25.747   5.514
 3725POPC   PO450220  23.333  26.157   5.513
 3725POPC   GL150221  23.699  26.195   5.769
 3725POPC   GL250222  24.022  26.351   5.868
 3725POPC   C1A50223  23.611  26.007   6.152
 3725POPC   D2A50224  23.610  26.123   6.564
 3725POPC   C3A50225  23.340  26.007   6.866
 3725POPC   C4A50226  23.428  26.205   7.251
 3725POPC   C1B50227  24.135  26.013   6.116
 3725POPC   C2B50228  23.961  25.768   6.439
 3725POPC   C3B50229  23.806  25.720   6.863
 3725POPC   C4B50230  24.082  25.666   7.209
 3726POPC   NC350231   7.782  27.108   5.054
 3726POPC   PO450232   8.143  26.666   5.523
 3726POPC   GL150233   8.157  26.841   5.882
 3726POPC   GL250234   8.458  26.974   5.966
 3726POPC   C1A50235   7.909  26.717   6.221
 3726POPC   D2A50236   7.985  26.855   6.603
 3726POPC   C3A50237   7.921  26.620   6.948
 3726POPC   C4A50238   7.975  26.819   7.290
 3726POPC   C1B50239   8.425  26.590   6.215
 3726POPC   C2B50240   8.507  26.726   6.597
 3726POPC   C3B50241   8.391  26.874   6.962
 3726POPC   C4B50242   8.510  26.828   7.357
 3727POPC   NC350243   7.968  42.880   5.371
 3727POPC   PO450244   8.598  42.827   5.453
 3727POPC   GL150245   8.339  42.934   5.797
 3727POPC   GL250246   7.988  42.824   5.887
 3727POPC   C1A50247   8.355  42.970   6.243
 3727POPC   D2A50248   8.163  42.927   6.617
 3727POPC   C3A50249   8.431  43.144   6.867
 3727POPC   C4A50250   8.299  43.076   7.254
 3727POPC   C1B50251   8.046  43.300   6.024
 3727POPC   C2B50252   8.011  43.479   6.478
 3727POPC   C3B50253   7.927  43.299   6.915
 3727POPC   C4B50254   7.843  42.887   7.148
 3728POPC   NC350255   4.132  14.700   5.375
 3728POPC   PO450256   4.173  14.013   5.510
 3728POPC   GL150257   4.284  14.305   5.792
 3728POPC   GL250258   3.955  14.459   5.778
 3728POPC   C1A50259   4.599  14.351   6.137
 3728POPC   D2A50260   4.659  14.218   6.577
 3728POPC   C3A50261   4.601  14.483   6.968
 3728POPC   C4A50262   4.316  14.401   7.298
 3728POPC   C1B50263   4.090  14.729   6.114
 3728POPC   C2B50264   4.192  14.863   6.533
 3728POPC   C3B50265   4.106  14.720   6.931
 3728POPC   C4B50266   3.876  14.715   7.322
 3729POPC   NC350267  36.104  13.226   5.294
 3729POPC   PO450268  36.406  12.588   5.366
 3729POPC   GL150269  36.343  12.894   5.732
 3729POPC   GL250270  35.995  13.028   5.768
 3729POPC   C1A50271  36.399  12.903   6.204
 3729POPC   D2A50272  36.281  12.975   6.660
 3729POPC   C3A50273  36.336  12.754   7.039
 3729POPC   C4A50274  36.073  12.718   7.392
 3729POPC   C1B50275  35.899  13.075   6.212
 3729POPC   C2B50276  35.772  12.931   6.633
 3729POPC   C3B50277  35.903  13.057   7.037
 3729POPC   C4B50278  35.855  13.214   7.486
 3730POPC   NC350279  13.074  23.283   5.389
 3730POPC   PO450280  12.486  23.031   5.612
 3730POPC   GL150281  12.915  22.910   5.749
 3730POPC   GL250282  13.047  22.542   5.758
 3730POPC   C1A50283  12.902  22.877   6.180
 3730POPC   D2A50284  12.886  23.159   6.518
 3730POPC   C3A50285  12.667  22.973   6.853
 3730POPC   C4A50286  12.683  22.895   7.288
 3730POPC   C1B50287  13.309  22.592   6.150
 3730POPC   C2B50288  13.235  22.770   6.582
 3730POPC   C3B50289  13.088  22.696   7.021
 3730POPC   C4B50290  13.152  22.661   7.517
 3731POPC   NC350291  27.900  20.373   5.465
 3731POPC   PO450292  27.592  20.893   5.115
 3731POPC   GL150293  27.551  20.751   5.627
 3731POPC   GL250294  27.616  20.458   5.885
 3731POPC   C1A50295  27.497  20.889   6.088
 3731POPC   D2A50296  27.544  20.567   6.430
 3731POPC   C3A50297  27.251  20.577   6.804
 3731POPC   C4A50298  27.331  20.846   7.176
 3731POPC   C1B50299  27.981  20.397   6.169
 3731POPC   C2B50300  28.132  20.258   6.587
 3731POPC   C3B50301  28.007  20.291   7.053
 3731POPC   C4B50302  27.599  20.365   7.299
 3732POPC   NC350303  11.712  30.799   5.532
 3732POPC   PO450304  11.131  30.495   5.322
 3732POPC   GL150305  11.221  30.740   5.759
 3732POPC   GL250306  11.410  31.100   5.799
 3732POPC   C1A50307  11.172  30.527   6.217
 3732POPC   D2A50308  11.184  30.241   6.592
 3732POPC   C3A50309  11.298  30.423   6.983
 3732POPC   C4A50310  11.152  30.797   7.199
 3732POPC   C1B50311  11.541  30.855   6.158
 3732POPC   C2B50312  11.372  30.888   6.569
 3732POPC   C3B50313  11.628  30.912   6.895
 3732POPC   C4B50314  11.654  30.801   7.280
 3733POPC   NC350315   5.702  34.170   5.531
 3733POPC   PO450316   5.966  33.556   5.496
 3733POPC   GL150317   5.883  33.785   5.841
 3733POPC   GL250318   6.118  34.070   5.813
 3733POPC   C1A50319   5.607  33.894   6.178
 3733POPC   D2A50320   5.647  34.036   6.599
 3733POPC   C3A50321   5.759  33.757   6.950
 3733POPC   C4A50322   5.626  33.718   7.365
 3733POPC   C1B50323   6.096  34.031   6.228
 3733POPC   C2B50324   6.134  33.874   6.601
 3733POPC   C3B50325   6.134  34.113   6.963
 3733POPC   C4B50326   6.106  33.930   7.340
 3734POPC   NC350327   3.988  20.147   4.932
 3734POPC   PO450328   4.268  19.777   5.491
 3734POPC   GL150329   4.284  19.885   5.901
 3734POPC   GL250330   4.195  20.210   5.902
 3734POPC   C1A50331   4.473  20.028   6.304
 3734POPC   D2A50332   4.619  19.991   6.728
 3734POPC   C3A50333   4.378  19.742   7.025
 3734POPC   C4A50334   4.400  19.439   7.359
 3734POPC   C1B50335   3.946  20.084   6.237
 3734POPC   C2B50336   4.064  19.936   6.634
 3734POPC   C3B50337   3.910  19.955   7.022
 3734POPC   C4B50338   4.129  20.263   7.177
 3735POPC   NC350339  29.775   0.539   4.942
 3735POPC   PO450340  30.079   0.109   5.422
 3735POPC   GL150341  30.054   0.083   5.889
 3735POPC   GL250342  30.086  44.787   6.023
 3735POPC   C1A50343  30.085   0.346   6.252
 3735POPC   D2A50344  30.152   0.255   6.649
 3735POPC   C3A50345  30.109   0.197   7.061
 3735POPC   C4A50346  30.081   0.514   7.361
 3735POPC   C1B50347  29.788  44.928   6.331
 3735POPC   C2B50348  29.677   0.060   6.765
 3735POPC   C3B50349  29.563   0.056   7.212
 3735POPC   C4B50350  29.881   0.068   7.491
 3736POPC   NC350351   6.498  37.265   5.310
 3736POPC   PO450352   6.812  36.686   5.295
 3736POPC   GL150353   6.762  36.794   5.729
 3736POPC   GL250354   6.588  37.083   5.778
 3736POPC   C1A50355   6.863  36.910   6.172
 3736POPC   D2A50356   6.662  36.816   6.553
 3736POPC   C3A50357   6.807  36.916   6.956
 3736POPC   C4A50358   6.596  36.982   7.329
 3736POPC   C1B50359   6.407  37.160   6.193
 3736POPC   C2B50360   6.458  37.304   6.588
 3736POPC   C3B50361   6.328  37.176   6.948
 3736POPC   C4B50362   6.133  37.205   7.326
 3737POPC   NC350363  37.924  27.587   5.870
 3737POPC   PO450364  38.251  27.931   5.341
 3737POPC   GL150365  38.396  27.719   5.793
 3737POPC   GL250366  38.342  27.323   5.915
 3737POPC   C1A50367  38.423  27.645   6.295
 3737POPC   D2A50368  38.516  27.345   6.650
 3737POPC   C3A50369  38.490  27.538   7.044
 3737POPC   C4A50370  38.362  27.599   7.446
 3737POPC   C1B50371  38.109  27.227   6.364
 3737POPC   C2B50372  38.023  27.319   6.822
 3737POPC   C3B50373  38.172  27.162   7.224
 3737POPC   C4B50374  38.372  26.795   7.430
 3738POPC   NC350375  29.558  30.858   5.297
 3738POPC   PO450376  29.007  30.564   5.240
 3738POPC   GL150377  29.059  30.680   5.681
 3738POPC   GL250378  29.196  30.990   5.805
 3738POPC   C1A50379  29.162  30.509   6.106
 3738POPC   D2A50380  29.143  30.592   6.578
 3738POPC   C3A50381  29.414  30.584   6.944
 3738POPC   C4A50382  29.200  30.467   7.333
 3738POPC   C1B50383  28.988  30.973   6.250
 3738POPC   C2B50384  28.882  31.024   6.715
 3738POPC   C3B50385  29.087  30.929   7.116
 3738POPC   C4B50386  29.323  31.062   7.518
 3739POPC   NC350387   0.880  31.398   5.464
 3739POPC   PO450388   1.254  31.822   5.178
 3739POPC   GL150389   1.235  31.761   5.670
 3739POPC   GL250390   1.201  31.440   5.863
 3739POPC   C1A50391   1.075  31.859   6.134
 3739POPC   D2A50392   0.984  31.690   6.548
 3739POPC   C3A50393   0.987  31.826   6.966
 3739POPC   C4A50394   0.774  31.714   7.378
 3739POPC   C1B50395   1.092  31.265   6.292
 3739POPC   C2B50396   1.122  31.239   6.771
 3739POPC   C3B50397   1.191  31.397   7.212
 3739POPC   C4B50398   1.403  31.215   7.590
 3740POPC   NC350399  15.903  43.380   5.399
 3740POPC   PO450400  15.651  42.799   5.416
 3740POPC   GL150401  15.846  43.056   5.802
 3740POPC   GL250402  16.183  43.202   5.803
 3740POPC   C1A50403  15.933  43.283   6.241
 3740POPC   D2A50404  16.157  43.344   6.654
 3740POPC   C3A50405  16.009  43.320   7.101
 3740POPC   C4A50406  15.718  43.237   7.481
 3740POPC   C1B50407  16.152  42.812   6.119
 3740POPC   C2B50408  15.996  42.665   6.535
 3740POPC   C3B50409  16.120  42.821   6.955
 3740POPC   C4B50410  16.027  42.823   7.431
 3741POPC   NC350411  35.240  13.429   5.469
 3741POPC   PO450412  35.632  14.035   5.461
 3741POPC   GL150413  35.460  13.988   5.867
 3741POPC   GL250414  35.237  13.739   5.864
 3741POPC   C1A50415  35.279  14.008   6.310
 3741POPC   D2A50416  35.422  13.794   6.675
 3741POPC   C3A50417  35.245  13.797   7.108
 3741POPC   C4A50418  35.168  13.926   7.538
 3741POPC   C1B50419  35.107  13.529   6.234
 3741POPC   C2B50420  35.017  13.461   6.672
 3741POPC   C3B50421  34.966  13.346   7.097
 3741POPC   C4B50422  35.163  13.442   7.482
 3742POPC   NC350423  20.323   2.065   5.386
 3742POPC   PO450424  20.956   1.872   5.349
 3742POPC   GL150425  20.834   1.676   5.746
 3742POPC   GL250426  20.637   1.982   5.795
 3742POPC   C1A50427  20.729   1.672   6.213
 3742POPC   D2A50428  20.570   1.889   6.609
 3742POPC   C3A50429  20.877   1.913   6.942
 3742POPC   C4A50430  21.025   1.997   7.389
 3742POPC   C1B50431  20.586   2.184   6.193
 3742POPC   C2B50432  20.381   2.380   6.566
 3742POPC   C3B50433  20.461   2.391   6.975
 3742POPC   C4B50434  20.569   2.181   7.329
 3743POPC   NC350435  12.427  15.898   5.131
 3743POPC   PO450436  12.962  15.654   5.482
 3743POPC   GL150437  12.796  15.685   5.860
 3743POPC   GL250438  12.859  15.995   5.890
 3743POPC   C1A50439  12.617  15.761   6.263
 3743POPC   D2A50440  12.495  15.996   6.619
 3743POPC   C3A50441  12.842  15.974   6.900
 3743POPC   C4A50442  12.949  15.698   7.222
 3743POPC   C1B50443  13.113  16.237   6.182
 3743POPC   C2B50444  13.302  16.215   6.570
 3743POPC   C3B50445  13.261  16.290   6.976
 3743POPC   C4B50446  13.089  16.192   7.356
 3744POPC   NC350447  26.561  10.077   5.627
 3744POPC   PO450448  27.014  10.563   5.419
 3744POPC   GL150449  26.929  10.512   5.820
 3744POPC   GL250450  26.600  10.569   5.809
 3744POPC   C1A50451  26.944  10.397   6.229
 3744POPC   D2A50452  26.985  10.616   6.584
 3744POPC   C3A50453  26.862  10.399   6.940
 3744POPC   C4A50454  27.069  10.538   7.285
 3744POPC   C1B50455  26.471  10.653   6.237
 3744POPC   C2B50456  26.567  10.915   6.595
 3744POPC   C3B50457  26.729  10.897   7.037
 3744POPC   C4B50458  26.723  10.850   7.505
 3745POPC   NC350459   5.442  34.910   5.294
 3745POPC   PO450460   6.017  34.555   5.503
 3745POPC   GL150461   5.931  34.528   5.960
 3745POPC   GL250462   5.580  34.498   5.939
 3745POPC   C1A50463   5.919  34.465   6.448
 3745POPC   D2A50464   5.622  34.490   6.833
 3745POPC   C3A50465   5.822  34.425   7.237
 3745POPC   C4A50466   6.208  34.694   7.216
 3745POPC   C1B50467   5.589  34.809   6.273
 3745POPC   C2B50468   5.657  34.995   6.691
 3745POPC   C3B50469   5.705  34.917   7.145
 3745POPC   C4B50470   5.455  34.979   7.511
 3746POPC   NC350471  34.773  41.147   5.457
 3746POPC   PO450472  34.212  40.619   5.499
 3746POPC   GL150473  34.513  40.867   5.803
 3746POPC   GL250474  34.750  40.624   5.943
 3746POPC   C1A50475  34.706  41.020   6.227
 3746POPC   D2A50476  34.659  40.788   6.645
 3746POPC   C3A50477  34.571  41.013   7.041
 3746POPC   C4A50478  34.305  41.183   7.400
 3746POPC   C1B50479  35.065  40.655   6.294
 3746POPC   C2B50480  35.141  40.538   6.731
 3746POPC   C3B50481  34.902  40.629   7.102
 3746POPC   C4B50482  34.462  40.494   7.081
 3747POPC   NC350483  40.528  41.194   5.386
 3747POPC   PO450484  40.982  41.632   5.224
 3747POPC   GL150485  40.878  41.545   5.724
 3747POPC   GL250486  40.523  41.601   5.877
 3747POPC   C1A50487  40.879  41.374   6.184
 3747POPC   D2A50488  41.122  41.289   6.583
 3747POPC   C3A50489  40.923  41.183   6.956
 3747POPC   C4A50490  40.594  41.338   7.245
 3747POPC   C1B50491  40.367  41.508   6.304
 3747POPC   C2B50492  40.485  41.555   6.744
 3747POPC   C3B50493  40.434  41.790   7.130
 3747POPC   C4B50494  40.397  41.724   7.599
 3748POPC   NC350495  15.242  16.066   5.596
 3748POPC   PO450496  14.626  15.875   5.432
 3748POPC   GL150497  14.893  15.726   5.795
 3748POPC   GL250498  15.252  15.662   5.918
 3748POPC   C1A50499  14.865  15.810   6.237
 3748POPC   D2A50500  15.059  15.946   6.614
 3748POPC   C3A50501  14.907  15.856   6.952
 3748POPC   C4A50502  15.135  15.796   7.298
 3748POPC   C1B50503  15.354  16.040   6.218
 3748POPC   C2B50504  15.373  16.326   6.608
 3748POPC   C3B50505  15.406  16.187   7.055
 3748POPC   C4B50506  15.595  16.352   7.452
 3749POPC   NC350507  11.494  43.357   5.444
 3749POPC   PO450508  11.068  42.779   5.446
 3749POPC   GL150509  11.277  42.957   5.757
 3749POPC   GL250510  11.118  43.284   5.777
 3749POPC   C1A50511  11.250  42.842   6.184
 3749POPC   D2A50512  11.303  43.097   6.517
 3749POPC   C3A50513  11.329  42.964   6.889
 3749POPC   C4A50514  11.640  42.976   7.165
 3749POPC   C1B50515  10.975  43.296   6.189
 3749POPC   C2B50516  10.818  43.249   6.615
 3749POPC   C3B50517  10.995  43.338   7.010
 3749POPC   C4B50518  11.188  43.121   7.349
 3750POPC   NC350519  23.952  13.429   5.388
 3750POPC   PO450520  23.470  13.869   5.530
 3750POPC   GL150521  23.710  13.763   5.876
 3750POPC   GL250522  23.719  13.410   5.831
 3750POPC   C1A50523  23.585  13.608   6.285
 3750POPC   D2A50524  23.373  13.530   6.670
 3750POPC   C3A50525  23.681  13.672   6.981
 3750POPC   C4A50526  23.788  14.070   7.215
 3750POPC   C1B50527  24.002  13.279   6.152
 3750POPC   C2B50528  23.876  13.268   6.580
 3750POPC   C3B50529  24.049  13.252   6.976
 3750POPC   C4B50530  23.861  13.266   7.372
 3751POPC   NC350531   1.327  36.521   5.443
 3751POPC   PO450532   1.199  35.868   5.343
 3751POPC   GL150533   1.241  35.811   5.787
 3751POPC   GL250534   1.189  36.154   5.919
 3751POPC   C1A50535   1.553  35.870   6.130
 3751POPC   D2A50536   1.461  36.210   6.423
 3751POPC   C3A50537   1.455  36.098   6.848
 3751POPC   C4A50538   1.355  36.243   7.245
 3751POPC   C1B50539   1.065  35.902   6.293
 3751POPC   C2B50540   0.972  36.003   6.717
 3751POPC   C3B50541   0.852  36.166   7.087
 3751POPC   C4B50542   0.937  36.002   7.442
 3752POPC   NC350543  28.219   9.852   5.180
 3752POPC   PO450544  28.835   9.739   5.246
 3752POPC   GL150545  28.456   9.715   5.655
 3752POPC   GL250546  28.294   9.393   5.802
 3752POPC   C1A50547  28.465   9.737   6.162
 3752POPC   D2A50548  28.458   9.459   6.566
 3752POPC   C3A50549  28.476   9.741   6.978
 3752POPC   C4A50550  28.614   9.648   7.410
 3752POPC   C1B50551  28.035   9.451   6.228
 3752POPC   C2B50552  27.990   9.596   6.664
 3752POPC   C3B50553  28.168   9.354   7.015
 3752POPC   C4B50554  28.309   9.232   7.444
 3753POPC   NC350555  44.465  44.081   5.494
 3753POPC   PO450556   0.067  43.694   5.372
 3753POPC   GL150557  44.844  43.817   5.748
 3753POPC   GL250558  44.945  43.533   5.970
 3753POPC   C1A50559  44.581  43.914   6.113
 3753POPC   D2A50560  44.369  43.888   6.535
 3753POPC   C3A50561  44.591  43.866   6.907
 3753POPC   C4A50562  44.378  43.775   7.295
 3753POPC   C1B50563   0.080  43.934   6.195
 3753POPC   C2B50564  44.990  44.274   6.505
 3753POPC   C3B50565  44.920  44.286   6.960
 3753POPC   C4B50566  44.822  44.078   7.317
 3754POPC   NC350567  12.546  10.070   5.499
 3754POPC   PO450568  12.833   9.544   5.571
 3754POPC   GL150569  12.922   9.951   5.839
 3754POPC   GL250570  13.197  10.250   5.891
 3754POPC   C1A50571  12.736   9.890   6.252
 3754POPC   D2A50572  12.638   9.541   6.537
 3754POPC   C3A50573  12.695   9.742   6.895
 3754POPC   C4A50574  12.731   9.877   7.319
 3754POPC   C1B50575  13.259   9.945   6.223
 3754POPC   C2B50576  13.147   9.706   6.609
 3754POPC   C3B50577  13.163   9.643   7.067
 3754POPC   C4B50578  13.268  10.005   7.314
 3755POPC   NC350579  26.336  18.455   5.530
 3755POPC   PO450580  26.102  17.917   5.362
 3755POPC   GL150581  26.063  18.098   5.780
 3755POPC   GL250582  25.711  18.068   5.800
 3755POPC   C1A50583  26.294  18.144   6.191
 3755POPC   D2A50584  26.523  18.319   6.509
 3755POPC   C3A50585  26.316  18.211   6.869
 3755POPC   C4A50586  26.425  18.346   7.255
 3755POPC   C1B50587  25.779  18.286   6.203
 3755POPC   C2B50588  25.914  18.476   6.586
 3755POPC   C3B50589  26.027  18.589   7.009
 3755POPC   C4B50590  25.887  18.233   7.251
 3756POPC   NC350591  24.221  27.247   5.465
 3756POPC   PO450592  24.837  27.478   5.325
 3756POPC   GL150593  24.670  27.415   5.765
 3756POPC   GL250594  24.370  27.555   5.829
 3756POPC   C1A50595  24.669  27.596   6.245
 3756POPC   D2A50596  24.476  27.621   6.699
 3756POPC   C3A50597  24.728  27.750   7.090
 3756POPC   C4A50598  24.729  27.510   7.500
 3756POPC   C1B50599  24.134  27.606   6.189
 3756POPC   C2B50600  24.030  27.379   6.541
 3756POPC   C3B50601  24.181  27.276   6.973
 3756POPC   C4B50602  24.279  27.619   7.247
 3757POPC   NC350603   5.560  42.699   5.247
 3757POPC   PO450604   5.785  43.400   5.380
 3757POPC   GL150605   5.833  43.263   5.807
 3757POPC   GL250606   6.168  43.412   5.819
 3757POPC   C1A50607   5.590  43.266   6.227
 3757POPC   D2A50608   5.425  43.218   6.665
 3757POPC   C3A50609   5.692  43.203   7.005
 3757POPC   C4A50610   5.764  42.972   7.382
 3757POPC   C1B50611   6.162  43.221   6.233
 3757POPC   C2B50612   6.187  43.231   6.686
 3757POPC   C3B50613   6.184  43.117   7.107
 3757POPC   C4B50614   6.043  43.402   7.443
 3758POPC   NC350615   4.436  32.434   5.195
 3758POPC   PO450616   4.319  33.072   5.465
 3758POPC   GL150617   4.104  32.938   5.828
 3758POPC   GL250618   4.086  33.300   5.871
 3758POPC   C1A50619   4.235  32.759   6.206
 3758POPC   D2A50620   4.548  32.844   6.487
 3758POPC   C3A50621   4.486  32.626   6.861
 3758POPC   C4A50622   4.208  32.789   7.150
 3758POPC   C1B50623   4.335  33.270   6.268
 3758POPC   C2B50624   4.525  33.299   6.706
 3758POPC   C3B50625   4.367  33.296   7.153
 3758POPC   C4B50626   4.043  33.368   7.473
 3759POPC   NC350627   3.569  29.326   5.414
 3759POPC   PO450628   3.076  29.583   5.728
 3759POPC   GL150629   3.383  29.276   5.887
 3759POPC   GL250630   3.693  29.071   5.831
 3759POPC   C1A50631   3.598  29.346   6.266
 3759POPC   D2A50632   3.449  29.326   6.689
 3759POPC   C3A50633   3.607  29.305   7.095
 3759POPC   C4A50634   3.391  29.203   7.486
 3759POPC   C1B50635   3.535  28.834   6.155
 3759POPC   C2B50636   3.449  28.794   6.586
 3759POPC   C3B50637   3.670  28.824   6.959
 3759POPC   C4B50638   3.845  28.961   7.381
 3760POPC   NC350639  23.332  24.871   5.050
 3760POPC   PO450640  23.691  25.279   5.478
 3760POPC   GL150641  23.676  25.155   5.867
 3760POPC   GL250642  23.971  24.949   5.824
 3760POPC   C1A50643  23.587  25.489   6.142
 3760POPC   D2A50644  23.436  25.645   6.506
 3760POPC   C3A50645  23.445  25.322   6.806
 3760POPC   C4A50646  23.533  25.318   7.235
 3760POPC   C1B50647  24.073  25.288   6.142
 3760POPC   C2B50648  23.860  25.290   6.522
 3760POPC   C3B50649  23.956  25.236   6.932
 3760POPC   C4B50650  24.080  25.152   7.338
 3761POPC   NC350651  13.792   9.058   5.393
 3761POPC   PO450652  13.240   8.730   5.673
 3761POPC   GL150653  13.518   8.998   5.861
 3761POPC   GL250654  13.876   8.922   5.890
 3761POPC   C1A50655  13.550   9.051   6.297
 3761POPC   D2A50656  13.319   9.204   6.637
 3761POPC   C3A50657  13.490   9.065   7.014
 3761POPC   C4A50658  13.804   9.226   7.308
 3761POPC   C1B50659  13.925   8.679   6.275
 3761POPC   C2B50660  13.705   8.717   6.700
 3761POPC   C3B50661  13.900   8.739   7.123
 3761POPC   C4B50662  14.039   8.848   7.571
 3762POPC   NC350663  18.091  31.762   5.204
 3762POPC   PO450664  18.502  31.190   5.414
 3762POPC   GL150665  18.414  31.486   5.769
 3762POPC   GL250666  18.118  31.730   5.743
 3762POPC   C1A50667  18.289  31.459   6.232
 3762POPC   D2A50668  18.356  31.518   6.678
 3762POPC   C3A50669  18.256  31.216   6.986
 3762POPC   C4A50670  18.105  31.139   7.403
 3762POPC   C1B50671  18.075  31.926   6.169
 3762POPC   C2B50672  17.975  31.819   6.584
 3762POPC   C3B50673  17.985  31.650   7.027
 3762POPC   C4B50674  17.842  31.894   7.356
 3763POPC   NC350675  30.611  41.284   5.601
 3763POPC   PO450676  30.844  40.782   5.249
 3763POPC   GL150677  30.849  40.797   5.712
 3763POPC   GL250678  30.522  40.812   5.817
 3763POPC   C1A50679  30.945  40.819   6.174
 3763POPC   D2A50680  30.994  40.708   6.632
 3763POPC   C3A50681  30.835  40.812   7.061
 3763POPC   C4A50682  31.057  41.098   7.390
 3763POPC   C1B50683  30.472  41.016   6.194
 3763POPC   C2B50684  30.453  40.849   6.606
 3763POPC   C3B50685  30.428  41.131   6.928
 3763POPC   C4B50686  30.556  41.163   7.326
 3764POPC   NC350687   5.774  36.654   5.291
 3764POPC   PO450688   6.004  37.274   5.275
 3764POPC   GL150689   6.090  37.023   5.656
 3764POPC   GL250690   6.268  36.687   5.566
 3764POPC   C1A50691   5.928  37.009   6.107
 3764POPC   D2A50692   5.966  37.176   6.548
 3764POPC   C3A50693   5.831  36.984   6.947
 3764POPC   C4A50694   5.635  37.192   7.303
 3764POPC   C1B50695   6.345  36.670   6.023
 3764POPC   C2B50696   6.183  36.672   6.455
 3764POPC   C3B50697   6.304  36.650   6.894
 3764POPC   C4B50698   6.135  36.713   7.312
 3765POPC   NC350699   1.598   0.889   5.477
 3765POPC   PO450700   1.736   1.504   5.231
 3765POPC   GL150701   1.714   1.335   5.750
 3765POPC   GL250702   1.525   1.030   5.936
 3765POPC   C1A50703   1.681   1.363   6.251
 3765POPC   D2A50704   1.907   1.164   6.631
 3765POPC   C3A50705   2.191   1.244   6.986
 3765POPC   C4A50706   2.525   1.472   7.181
 3765POPC   C1B50707   1.755   0.822   6.276
 3765POPC   C2B50708   1.584   0.769   6.701
 3765POPC   C3B50709   1.824   0.886   7.080
 3765POPC   C4B50710   1.831   1.224   7.354
 3766POPC   NC350711  43.314  29.249   5.302
 3766POPC   PO450712  42.720  29.119   5.510
 3766POPC   GL150713  43.147  29.042   5.746
 3766POPC   GL250714  43.301  29.365   5.855
 3766POPC   C1A50715  43.316  28.949   6.174
 3766POPC   D2A50716  43.516  29.027   6.598
 3766POPC   C3A50717  43.205  29.030   6.951
 3766POPC   C4A50718  43.160  28.854   7.355
 3766POPC   C1B50719  43.183  29.425   6.312
 3766POPC   C2B50720  43.065  29.479   6.765
 3766POPC   C3B50721  43.064  29.492   7.253
 3766POPC   C4B50722  43.090  29.657   7.699
 3767POPC   NC350723   1.115  44.336   5.321
 3767POPC   PO450724   1.046   0.025   5.212
 3767POPC   GL150725   1.199  44.748   5.618
 3767POPC   GL250726   0.960  44.704   5.902
 3767POPC   C1A50727   1.458  44.513   5.986
 3767POPC   D2A50728   1.501  44.289   6.413
 3767POPC   C3A50729   1.289  44.469   6.774
 3767POPC   C4A50730   1.305  44.585   7.201
 3767POPC   C1B50731   0.958  44.539   6.326
 3767POPC   C2B50732   0.780  44.419   6.729
 3767POPC   C3B50733   0.839  44.413   7.195
 3767POPC   C4B50734   0.926  44.756   7.543
 3768POPC   NC350735  35.483  38.002   5.397
 3768POPC   PO450736  34.876  37.580   5.344
 3768POPC   GL150737  35.252  37.606   5.657
 3768POPC   GL250738  35.527  37.367   5.811
 3768POPC   C1A50739  35.235  37.655   6.112
 3768POPC   D2A50740  35.341  37.540   6.567
 3768POPC   C3A50741  35.319  37.863   6.839
 3768POPC   C4A50742  35.094  37.959   7.208
 3768POPC   C1B50743  35.718  37.590   6.210
 3768POPC   C2B50744  35.828  37.830   6.596
 3768POPC   C3B50745  35.782  37.756   7.033
 3768POPC   C4B50746  35.479  37.437   7.079
 3769POPC   NC350747  44.901   7.919   5.358
 3769POPC   PO450748  44.360   8.318   5.376
 3769POPC   GL150749  44.636   8.230   5.673
 3769POPC   GL250750  44.428   8.027   5.796
 3769POPC   C1A50751  44.809   8.205   6.104
 3769POPC   D2A50752  44.860   8.016   6.526
 3769POPC   C3A50753  44.835   8.348   6.847
 3769POPC   C4A50754  44.956   8.328   7.269
 3769POPC   C1B50755  44.289   8.195   6.167
 3769POPC   C2B50756  44.352   8.244   6.613
 3769POPC   C3B50757  44.338   8.336   7.054
 3769POPC   C4B50758  44.442   8.000   7.329
 3770POPC   NC350759  36.308  13.951   5.211
 3770POPC   PO450760  36.519  13.330   5.489
 3770POPC   GL150761  36.140  13.546   5.702
 3770POPC   GL250762  35.743  13.514   5.710
 3770POPC   C1A50763  36.131  13.623   6.136
 3770POPC   D2A50764  36.341  13.437   6.473
 3770POPC   C3A50765  36.386  13.672   6.854
 3770POPC   C4A50766  36.101  13.763   7.165
 3770POPC   C1B50767  35.626  13.523   6.173
 3770POPC   C2B50768  35.804  13.436   6.596
 3770POPC   C3B50769  35.678  13.521   7.041
 3770POPC   C4B50770  35.672  13.714   7.469
 3771POPC   NC350771  40.235   9.002   5.531
 3771POPC   PO450772  39.689   9.377   5.568
 3771POPC   GL150773  39.876   9.186   5.921
 3771POPC   GL250774  40.220   9.113   6.025
 3771POPC   C1A50775  39.850   9.121   6.367
 3771POPC   D2A50776  40.210   9.104   6.626
 3771POPC   C3A50777  40.020   9.074   6.987
 3771POPC   C4A50778  39.790   9.306   7.245
 3771POPC   C1B50779  40.179   8.718   6.293
 3771POPC   C2B50780  40.406   8.575   6.658
 3771POPC   C3B50781  40.493   8.846   7.017
 3771POPC   C4B50782  40.271   8.948   7.397
 3772POPC   NC350783  20.369  14.266   5.397
 3772POPC   PO450784  21.024  14.074   5.350
 3772POPC   GL150785  20.701  14.058   5.756
 3772POPC   GL250786  20.340  13.893   5.746
 3772POPC   C1A50787  20.628  14.160   6.247
 3772POPC   D2A50788  20.519  14.155   6.741
 3772POPC   C3A50789  20.633  14.550   6.960
 3772POPC   C4A50790  20.992  14.640   7.239
 3772POPC   C1B50791  20.171  14.216   6.057
 3772POPC   C2B50792  20.169  14.407   6.472
 3772POPC   C3B50793  20.078  14.331   6.934
 3772POPC   C4B50794  20.325  14.428   7.341
 3773POPC   NC350795  37.969  30.522   5.403
 3773POPC   PO450796  37.273  30.524   5.520
 3773POPC   GL150797  37.650  30.584   5.797
 3773POPC   GL250798  37.868  30.268   5.838
 3773POPC   C1A50799  37.641  30.781   6.211
 3773POPC   D2A50800  37.319  30.833   6.556
 3773POPC   C3A50801  37.514  30.891   6.968
 3773POPC   C4A50802  37.979  30.993   7.110
 3773POPC   C1B50803  37.519  30.194   6.112
 3773POPC   C2B50804  37.531  30.353   6.513
 3773POPC   C3B50805  37.501  30.402   6.927
 3773POPC   C4B50806  37.858  30.503   7.144
 3774POPC   NC350807  19.487   9.520   5.387
 3774POPC   PO450808  18.890   9.806   5.520
 3774POPC   GL150809  18.983   9.681   5.923
 3774POPC   GL250810  19.292   9.487   5.878
 3774POPC   C1A50811  19.180   9.877   6.299
 3774POPC   D2A50812  19.299  10.065   6.697
 3774POPC   C3A50813  19.105   9.906   7.061
 3774POPC   C4A50814  19.323   9.897   7.431
 3774POPC   C1B50815  19.184   9.364   6.315
 3774POPC   C2B50816  19.180   9.505   6.753
 3774POPC   C3B50817  19.109   9.420   7.233
 3774POPC   C4B50818  18.799   9.290   7.585
 3775POPC   NC350819   6.254  26.108   5.438
 3775POPC   PO450820   6.881  26.109   5.298
 3775POPC   GL150821   6.690  26.074   5.722
 3775POPC   GL250822   6.528  25.747   5.729
 3775POPC   C1A50823   6.547  26.121   6.169
 3775POPC   D2A50824   6.675  26.372   6.524
 3775POPC   C3A50825   6.453  26.322   6.908
 3775POPC   C4A50826   6.577  26.496   7.272
 3775POPC   C1B50827   6.510  25.601   6.143
 3775POPC   C2B50828   6.586  25.750   6.562
 3775POPC   C3B50829   6.463  25.808   6.982
 3775POPC   C4B50830   6.674  26.021   7.323
 3776POPC   NC350831  20.770  16.885   5.061
 3776POPC   PO450832  20.739  16.345   5.373
 3776POPC   GL150833  20.718  16.563   5.784
 3776POPC   GL250834  20.486  16.396   6.010
 3776POPC   C1A50835  20.827  16.714   6.223
 3776POPC   D2A50836  20.613  16.668   6.629
 3776POPC   C3A50837  20.787  16.652   7.065
 3776POPC   C4A50838  20.719  16.747   7.529
 3776POPC   C1B50839  20.392  16.238   6.435
 3776POPC   C2B50840  20.452  16.253   6.886
 3776POPC   C3B50841  20.434  16.377   7.310
 3776POPC   C4B50842  20.295  16.448   7.742
 3777POPC   NC350843  25.066   5.805   5.440
 3777POPC   PO450844  25.593   6.259   5.447
 3777POPC   GL150845  25.364   6.096   5.839
 3777POPC   GL250846  25.267   5.731   5.894
 3777POPC   C1A50847  25.232   6.009   6.306
 3777POPC   D2A50848  25.253   6.059   6.760
 3777POPC   C3A50849  25.231   5.702   7.040
 3777POPC   C4A50850  25.216   5.802   7.454
 3777POPC   C1B50851  25.609   5.656   6.175
 3777POPC   C2B50852  25.551   5.666   6.627
 3777POPC   C3B50853  25.739   5.758   7.030
 3777POPC   C4B50854  25.649   5.582   7.420
 3778POPC   NC350855   4.818  36.486   5.508
 3778POPC   PO450856   4.702  35.846   5.507
 3778POPC   GL150857   5.042  36.039   5.754
 3778POPC   GL250858   5.384  35.837   5.751
 3778POPC   C1A50859   5.027  36.238   6.185
 3778POPC   D2A50860   4.780  36.335   6.559
 3778POPC   C3A50861   4.892  36.195   6.956
 3778POPC   C4A50862   5.334  36.193   7.097
 3778POPC   C1B50863   5.200  35.746   6.170
 3778POPC   C2B50864   5.203  35.920   6.601
 3778POPC   C3B50865   5.113  35.735   6.995
 3778POPC   C4B50866   5.270  35.769   7.395
 3779POPC   NC350867  26.786  39.701   5.021
 3779POPC   PO450868  26.650  40.230   5.491
 3779POPC   GL150869  26.941  40.253   5.859
 3779POPC   GL250870  26.819  39.943   6.070
 3779POPC   C1A50871  27.115  40.240   6.291
 3779POPC   D2A50872  26.804  40.072   6.593
 3779POPC   C3A50873  27.055  40.132   6.962
 3779POPC   C4A50874  27.087  40.363   7.317
 3779POPC   C1B50875  26.649  39.584   6.223
 3779POPC   C2B50876  26.793  39.538   6.615
 3779POPC   C3B50877  26.740  39.734   6.997
 3779POPC   C4B50878  26.928  39.874   7.383
 3780POPC   NC350879  36.798  15.619   5.505
 3780POPC   PO450880  36.889  16.278   5.427
 3780POPC   GL150881  36.937  16.050   5.782
 3780POPC   GL250882  37.278  16.111   5.874
 3780POPC   C1A50883  36.661  15.977   6.136
 3780POPC   D2A50884  36.429  15.956   6.524
 3780POPC   C3A50885  36.598  15.571   6.673
 3780POPC   C4A50886  36.684  15.539   7.088
 3780POPC   C1B50887  37.178  15.826   6.187
 3780POPC   C2B50888  36.997  15.883   6.582
 3780POPC   C3B50889  36.986  15.953   7.030
 3780POPC   C4B50890  37.237  15.675   7.272
 3781POPC   NC350891  44.812  39.828   5.371
 3781POPC   PO450892  44.486  40.399   5.403
 3781POPC   GL150893  44.546  40.354   5.837
 3781POPC   GL250894  44.736  40.058   5.824
 3781POPC   C1A50895  44.464  40.232   6.275
 3781POPC   D2A50896  44.601  40.183   6.703
 3781POPC   C3A50897  44.400  40.451   6.993
 3781POPC   C4A50898  44.222  40.315   7.347
 3781POPC   C1B50899  44.761  39.821   6.204
 3781POPC   C2B50900  44.905  39.710   6.586
 3781POPC   C3B50901  44.940  39.866   6.987
 3781POPC   C4B50902  44.607  39.995   7.227
 3782POPC   NC350903  23.462  27.382   5.482
 3782POPC   PO450904  24.102  27.685   5.407
 3782POPC   GL150905  23.847  27.572   5.758
 3782POPC   GL250906  23.570  27.810   5.778
 3782POPC   C1A50907  23.643  27.464   6.160
 3782POPC   D2A50908  23.482  27.354   6.571
 3782POPC   C3A50909  23.708  27.462   6.940
 3782POPC   C4A50910  23.812  27.471   7.362
 3782POPC   C1B50911  23.737  27.971   6.174
 3782POPC   C2B50912  23.797  27.837   6.601
 3782POPC   C3B50913  23.785  27.937   7.075
 3782POPC   C4B50914  23.714  28.156   7.479
 3783POPC   NC350915   1.815  34.156   5.567
 3783POPC   PO450916   2.245  33.633   5.460
 3783POPC   GL150917   2.047  33.773   5.797
 3783POPC   GL250918   1.718  33.654   5.726
 3783POPC   C1A50919   1.998  33.973   6.210
 3783POPC   D2A50920   1.933  34.124   6.642
 3783POPC   C3A50921   2.046  33.924   7.062
 3783POPC   C4A50922   1.900  33.937   7.522
 3783POPC   C1B50923   1.707  33.534   6.159
 3783POPC   C2B50924   1.573  33.724   6.544
 3783POPC   C3B50925   1.694  33.543   6.925
 3783POPC   C4B50926   1.535  33.633   7.311
 3784POPC   NC350927  28.976  11.466   5.470
 3784POPC   PO450928  29.659  11.848   5.396
 3784POPC   GL150929  29.444  11.658   5.824
 3784POPC   GL250930  29.137  11.479   5.929
 3784POPC   C1A50931  29.428  11.518   6.320
 3784POPC   D2A50932  29.182  11.309   6.695
 3784POPC   C3A50933  29.386  11.375   7.111
 3784POPC   C4A50934  29.553  11.559   7.471
 3784POPC   C1B50935  28.813  11.539   6.247
 3784POPC   C2B50936  28.744  11.582   6.676
 3784POPC   C3B50937  28.884  11.555   7.063
 3784POPC   C4B50938  28.935  11.191   7.278
 3785POPC   NC350939   1.000  32.151   5.348
 3785POPC   PO450940   1.631  32.297   5.551
 3785POPC   GL150941   1.361  32.218   5.861
 3785POPC   GL250942   1.020  32.285   5.837
 3785POPC   C1A50943   1.378  32.234   6.301
 3785POPC   D2A50944   1.459  31.952   6.578
 3785POPC   C3A50945   1.493  32.184   6.916
 3785POPC   C4A50946   1.379  31.974   7.239
 3785POPC   C1B50947   0.935  32.449   6.250
 3785POPC   C2B50948   1.029  32.327   6.702
 3785POPC   C3B50949   1.118  32.438   7.151
 3785POPC   C4B50950   1.044  32.650   7.537
 3786POPC   NC350951  43.009   4.171   5.354
 3786POPC   PO450952  43.558   4.498   5.360
 3786POPC   GL150953  43.317   4.342   5.730
 3786POPC   GL250954  43.462   4.033   5.843
 3786POPC   C1A50955  42.956   4.490   6.034
 3786POPC   D2A50956  43.110   4.357   6.447
 3786POPC   C3A50957  43.102   4.514   6.836
 3786POPC   C4A50958  42.883   4.553   7.188
 3786POPC   C1B50959  43.091   4.010   6.076
 3786POPC   C2B50960  43.025   3.859   6.511
 3786POPC   C3B50961  42.858   4.044   6.886
 3786POPC   C4B50962  42.930   4.012   7.323
 3787POPC   NC350963  29.583   8.387   5.509
 3787POPC   PO450964  29.909   7.939   5.664
 3787POPC   GL150965  29.691   8.155   5.972
 3787POPC   GL250966  29.879   8.478   5.934
 3787POPC   C1A50967  29.791   8.250   6.408
 3787POPC   D2A50968  30.024   8.032   6.715
 3787POPC   C3A50969  29.930   8.177   7.126
 3787POPC   C4A50970  29.545   8.337   7.290
 3787POPC   C1B50971  30.060   8.688   6.306
 3787POPC   C2B50972  30.054   8.639   6.768
 3787POPC   C3B50973  30.362   8.516   7.066
 3787POPC   C4B50974  30.338   8.291   7.451
 3788POPC   NC350975  13.670   2.125   5.342
 3788POPC   PO450976  13.393   1.490   5.304
 3788POPC   GL150977  13.586   1.747   5.682
 3788POPC   GL250978  13.901   1.632   5.844
 3788POPC   C1A50979  13.517   2.066   6.062
 3788POPC   D2A50980  13.445   2.344   6.440
 3788POPC   C3A50981  13.584   2.398   6.895
 3788POPC   C4A50982  13.806   2.235   7.255
 3788POPC   C1B50983  13.605   1.584   6.173
 3788POPC   C2B50984  13.643   1.836   6.512
 3788POPC   C3B50985  13.782   1.841   6.916
 3788POPC   C4B50986  13.503   1.695   7.180
 3789POPC   NC350987  25.953  19.264   5.369
 3789POPC   PO450988  26.475  18.904   5.454
 3789POPC   GL150989  26.093  18.922   5.747
 3789POPC   GL250990  25.878  18.619   5.813
 3789POPC   C1A50991  25.958  19.099   6.157
 3789POPC   D2A50992  26.139  19.262   6.542
 3789POPC   C3A50993  25.972  19.089   6.909
 3789POPC   C4A50994  25.989  19.222   7.322
 3789POPC   C1B50995  26.181  18.639   6.174
 3789POPC   C2B50996  26.314  18.780   6.595
 3789POPC   C3B50997  26.499  18.780   6.977
 3789POPC   C4B50998  26.355  18.849   7.402
 3790POPC   NC350999   3.893   1.435   5.428
 3790POPC   PO451000   4.473   1.127   5.275
 3790POPC   GL151001   4.373   1.412   5.640
 3790POPC   GL251002   4.221   1.185   5.787
 3790POPC   C1A51003   4.285   1.641   6.067
 3790POPC   D2A51004   4.147   1.560   6.529
 3790POPC   C3A51005   4.477   1.523   6.902
 3790POPC   C4A51006   4.330   1.467   7.373
 3790POPC   C1B51007   4.484   1.207   6.172
 3790POPC   C2B51008   4.372   1.065   6.580
 3790POPC   C3B51009   4.296   1.059   7.017
 3790POPC   C4B51010   4.630   1.051   7.326
 3791POPC   NC351011  20.921  24.532   5.414
 3791POPC   PO451012  20.348  24.651   5.618
 3791POPC   GL151013  20.710  24.573   5.870
 3791POPC   GL251014  20.969  24.816   5.888
 3791POPC   C1A51015  20.893  24.483   6.277
 3791POPC   D2A51016  20.998  24.475   6.713
 3791POPC   C3A51017  20.796  24.319   7.126
 3791POPC   C4A51018  20.346  24.261   7.253
 3791POPC   C1B51019  20.750  24.966   6.201
 3791POPC   C2B51020  20.616  24.821   6.580
 3791POPC   C3B51021  20.437  24.640   6.909
 3791POPC   C4B51022  20.473  24.759   7.302
 3792POPC   NC351023   5.045  35.541   5.495
 3792POPC   PO451024   4.995  34.897   5.392
 3792POPC   GL151025   5.080  35.091   5.753
 3792POPC   GL251026   5.416  34.982   5.807
 3792POPC   C1A51027   4.821  35.181   6.133
 3792POPC   D2A51028   4.994  35.101   6.542
 3792POPC   C3A51029   4.860  35.286   6.908
 3792POPC   C4A51030   4.969  35.358   7.338
 3792POPC   C1B51031   5.337  35.250   6.169
 3792POPC   C2B51032   5.380  35.430   6.589
 3792POPC   C3B51033   5.401  35.319   7.029
 3792POPC   C4B51034   5.655  35.421   7.367
 3793POPC   NC351035  27.929  26.895   5.538
 3793POPC   PO451036  27.317  27.080   5.343
 3793POPC   GL151037  27.338  26.988   5.829
 3793POPC   GL251038  27.651  26.805   5.966
 3793POPC   C1A51039  27.249  26.861   6.296
 3793POPC   D2A51040  27.428  26.566   6.611
 3793POPC   C3A51041  27.385  26.664   7.079
 3793POPC   C4A51042  27.553  26.819   7.479
 3793POPC   C1B51043  27.811  26.874   6.384
 3793POPC   C2B51044  27.811  26.816   6.827
 3793POPC   C3B51045  27.955  26.982   7.207
 3793POPC   C4B51046  28.067  26.792   7.570
 3794POPC   NC351047   1.229   9.245   5.462
 3794POPC   PO451048   1.123   9.991   5.369
 3794POPC   GL151049   1.179   9.862   5.787
 3794POPC   GL251050   1.499  10.046   5.823
 3794POPC   C1A51051   1.049   9.758   6.219
 3794POPC   D2A51052   1.278   9.798   6.608
 3794POPC   C3A51053   1.092   9.686   6.978
 3794POPC   C4A51054   1.056   9.817   7.378
 3794POPC   C1B51055   1.581   9.765   6.173
 3794POPC   C2B51056   1.629   9.390   6.474
 3794POPC   C3B51057   1.521   9.420   6.903
 3794POPC   C4B51058   1.554   9.832   7.077
 3795POPC   NC351059  14.946  38.038   5.257
 3795POPC   PO451060  14.994  37.446   5.365
 3795POPC   GL151061  15.126  37.457   5.771
 3795POPC   GL251062  15.416  37.646   5.704
 3795POPC   C1A51063  14.985  37.475   6.214
 3795POPC   D2A51064  14.927  37.265   6.629
 3795POPC   C3A51065  14.752  37.403   7.037
 3795POPC   C4A51066  14.817  37.785   7.262
 3795POPC   C1B51067  15.218  37.922   6.010
 3795POPC   C2B51068  15.098  37.921   6.450
 3795POPC   C3B51069  15.150  37.702   6.853
 3795POPC   C4B51070  15.295  37.900   7.226
 3796POPC   NC351071  25.480  14.286   5.384
 3796POPC   PO451072  24.905  14.603   5.367
 3796POPC   GL151073  25.114  14.400   5.721
 3796POPC   GL251074  25.374  14.634   5.762
 3796POPC   C1A51075  25.246  14.160   6.102
 3796POPC   D2A51076  25.346  14.003   6.534
 3796POPC   C3A51077  25.257  14.184   6.927
 3796POPC   C4A51078  25.247  14.355   7.327
 3796POPC   C1B51079  25.226  14.717   6.159
 3796POPC   C2B51080  25.298  14.554   6.556
 3796POPC   C3B51081  25.175  14.686   6.947
 3796POPC   C4B51082  24.940  14.764   7.329
 3797POPC   NC351083  37.413  10.316   5.178
 3797POPC   PO451084  37.755  10.773   5.447
 3797POPC   GL151085  37.724  10.495   5.832
 3797POPC   GL251086  37.864  10.143   5.892
 3797POPC   C1A51087  37.820  10.513   6.295
 3797POPC   D2A51088  38.104  10.599   6.642
 3797POPC   C3A51089  37.931  10.623   7.079
 3797POPC   C4A51090  37.747  10.507   7.503
 3797POPC   C1B51091  37.826   9.990   6.347
 3797POPC   C2B51092  37.755  10.229   6.753
 3797POPC   C3B51093  37.652  10.125   7.191
 3797POPC   C4B51094  37.624  10.006   7.650
 3798POPC   NC351095  23.071  23.960   5.368
 3798POPC   PO451096  23.063  24.616   5.322
 3798POPC   GL151097  23.150  24.436   5.719
 3798POPC   GL251098  22.863  24.220   5.774
 3798POPC   C1A51099  23.030  24.638   6.134
 3798POPC   D2A51100  22.677  24.697   6.435
 3798POPC   C3A51101  22.754  24.594   6.871
 3798POPC   C4A51102  23.044  24.586   7.201
 3798POPC   C1B51103  22.694  24.137   6.186
 3798POPC   C2B51104  22.478  24.211   6.582
 3798POPC   C3B51105  22.547  24.104   7.002
 3798POPC   C4B51106  22.635  24.346   7.352
 3799POPC   NC351107  34.372   6.774   5.071
 3799POPC   PO451108  34.487   6.558   5.480
 3799POPC   GL151109  34.610   6.466   5.911
 3799POPC   GL251110  34.955   6.583   5.960
 3799POPC   C1A51111  34.399   6.385   6.312
 3799POPC   D2A51112  34.360   6.656   6.683
 3799POPC   C3A51113  34.449   6.571   7.120
 3799POPC   C4A51114  34.198   6.579   7.512
 3799POPC   C1B51115  34.806   6.690   6.381
 3799POPC   C2B51116  34.860   6.757   6.842
 3799POPC   C3B51117  34.863   6.793   7.331
 3799POPC   C4B51118  35.007   6.701   7.789
 3800POPC   NC351119  17.113  38.946   5.457
 3800POPC   PO451120  16.425  39.215   5.318
 3800POPC   GL151121  16.673  39.159   5.720
 3800POPC   GL251122  16.765  38.788   5.795
 3800POPC   C1A51123  16.767  39.286   6.178
 3800POPC   D2A51124  16.889  39.487   6.589
 3800POPC   C3A51125  16.825  39.329   7.005
 3800POPC   C4A51126  16.533  39.124   7.277
 3800POPC   C1B51127  17.111  38.907   6.090
 3800POPC   C2B51128  17.144  39.014   6.515
 3800POPC   C3B51129  17.218  38.990   6.961
 3800POPC   C4B51130  16.988  38.868   7.286
 3801POPC   NC351131   6.751  44.072   5.369
 3801POPC   PO451132   6.429  43.551   5.172
 3801POPC   GL151133   6.511  43.775   5.706
 3801POPC   GL251134   6.829  43.900   5.839
 3801POPC   C1A51135   6.421  43.894   6.180
 3801POPC   D2A51136   6.154  44.063   6.558
 3801POPC   C3A51137   6.401  44.114   6.978
 3801POPC   C4A51138   6.524  43.749   7.274
 3801POPC   C1B51139   6.867  44.208   6.172
 3801POPC   C2B51140   6.735  44.199   6.593
 3801POPC   C3B51141   6.935  44.209   7.003
 3801POPC   C4B51142   6.918  44.043   7.429
 3802POPC   NC351143  44.284  10.399   5.393
 3802POPC   PO451144  43.725  10.235   5.580
 3802POPC   GL151145  43.751  10.572   5.857
 3802POPC   GL251146  44.075  10.535   5.848
 3802POPC   C1A51147  43.605  10.519   6.235
 3802POPC   D2A51148  43.990  10.515   6.426
 3802POPC   C3A51149  43.938  10.506   6.828
 3802POPC   C4A51150  43.643  10.474   7.164
 3802POPC   C1B51151  44.242  10.821   6.102
 3802POPC   C2B51152  44.250  10.945   6.519
 3802POPC   C3B51153  44.306  10.883   6.929
 3802POPC   C4B51154  44.114  10.666   7.264
 3803POPC   NC351155   5.120  40.555   5.616
 3803POPC   PO451156   5.109  39.910   5.352
 3803POPC   GL151157   5.180  40.055   5.772
 3803POPC   GL251158   4.858  40.086   5.875
 3803POPC   C1A51159   5.257  39.887   6.204
 3803POPC   D2A51160   5.156  40.035   6.623
 3803POPC   C3A51161   5.077  39.808   6.985
 3803POPC   C4A51162   5.288  39.745   7.387
 3803POPC   C1B51163   5.019  40.349   6.214
 3803POPC   C2B51164   4.856  40.449   6.592
 3803POPC   C3B51165   4.854  40.297   6.995
 3803POPC   C4B51166   5.213  40.263   7.215
 3804POPC   NC351167  10.914  34.068   5.128
 3804POPC   PO451168  11.453  33.692   5.423
 3804POPC   GL151169  11.440  33.580   5.843
 3804POPC   GL251170  11.363  33.888   5.998
 3804POPC   C1A51171  11.739  33.625   6.201
 3804POPC   D2A51172  11.706  33.753   6.624
 3804POPC   C3A51173  11.419  33.663   6.956
 3804POPC   C4A51174  11.424  33.646   7.425
 3804POPC   C1B51175  11.069  33.909   6.365
 3804POPC   C2B51176  10.855  33.755   6.766
 3804POPC   C3B51177  10.964  33.769   7.227
 3804POPC   C4B51178  11.050  33.796   7.738
 3805POPC   NC351179  22.493  37.933   5.413
 3805POPC   PO451180  22.095  37.397   5.549
 3805POPC   GL151181  22.330  37.507   5.898
 3805POPC   GL251182  22.241  37.856   5.867
 3805POPC   C1A51183  22.377  37.482   6.345
 3805POPC   D2A51184  22.416  37.582   6.790
 3805POPC   C3A51185  22.069  37.824   6.959
 3805POPC   C4A51186  21.757  37.646   7.201
 3805POPC   C1B51187  22.482  37.971   6.238
 3805POPC   C2B51188  22.519  38.103   6.683
 3805POPC   C3B51189  22.528  37.989   7.123
 3805POPC   C4B51190  22.536  37.855   7.576
 3806POPC   NC351191   5.327  23.099   5.346
 3806POPC   PO451192   4.926  22.596   5.422
 3806POPC   GL151193   4.973  22.812   5.817
 3806POPC   GL251194   5.297  23.020   5.852
 3806POPC   C1A51195   5.134  22.718   6.231
 3806POPC   D2A51196   5.340  22.763   6.619
 3806POPC   C3A51197   4.971  22.665   6.846
 3806POPC   C4A51198   4.865  22.654   7.240
 3806POPC   C1B51199   5.001  23.209   6.157
 3806POPC   C2B51200   4.912  23.087   6.568
 3806POPC   C3B51201   5.142  23.135   6.943
 3806POPC   C4B51202   5.019  23.471   7.154
 3807POPC   NC351203  31.965   1.903   5.317
 3807POPC   PO451204  32.588   2.094   5.301
 3807POPC   GL151205  32.417   1.918   5.687
 3807POPC   GL251206  32.065   1.977   5.803
 3807POPC   C1A51207  32.437   2.049   6.124
 3807POPC   D2A51208  32.155   2.022   6.483
 3807POPC   C3A51209  32.274   2.192   6.877
 3807POPC   C4A51210  32.341   2.037   7.289
 3807POPC   C1B51211  32.146   1.629   6.135
 3807POPC   C2B51212  31.928   1.550   6.527
 3807POPC   C3B51213  32.080   1.712   6.912
 3807POPC   C4B51214  32.001   1.617   7.313
 3808POPC   NC351215  42.594  31.520   5.344
 3808POPC   PO451216  42.059  31.069   5.223
 3808POPC   GL151217  42.172  31.472   5.657
 3808POPC   GL251218  42.535  31.614   5.819
 3808POPC   C1A51219  42.182  31.448   6.125
 3808POPC   D2A51220  42.390  31.298   6.510
 3808POPC   C3A51221  42.238  31.354   6.933
 3808POPC   C4A51222  42.505  31.213   7.274
 3808POPC   C1B51223  42.863  31.791   6.087
 3808POPC   C2B51224  42.958  31.674   6.512
 3808POPC   C3B51225  42.731  31.545   6.871
 3808POPC   C4B51226  42.513  31.717   7.212
 3809POPC   NC351227   7.656  41.070   5.411
 3809POPC   PO451228   7.127  40.618   5.468
 3809POPC   GL151229   7.326  40.879   5.763
 3809POPC   GL251230   7.191  41.221   5.681
 3809POPC   C1A51231   7.633  40.898   6.107
 3809POPC   D2A51232   7.820  40.724   6.493
 3809POPC   C3A51233   7.540  40.674   6.844
 3809POPC   C4A51234   7.563  40.689   7.270
 3809POPC   C1B51235   7.164  41.179   6.132
 3809POPC   C2B51236   7.419  41.179   6.501
 3809POPC   C3B51237   7.210  41.218   6.876
 3809POPC   C4B51238   7.336  41.145   7.262
 3810POPC   NC351239  31.192  34.282   5.446
 3810POPC   PO451240  30.505  34.221   5.472
 3810POPC   GL151241  30.706  34.523   5.786
 3810POPC   GL251242  30.602  34.898   5.694
 3810POPC   C1A51243  30.926  34.528   6.213
 3810POPC   D2A51244  31.133  34.529   6.677
 3810POPC   C3A51245  30.860  34.510   7.088
 3810POPC   C4A51246  30.691  34.430   7.556
 3810POPC   C1B51247  30.500  34.851   6.145
 3810POPC   C2B51248  30.681  34.789   6.566
 3810POPC   C3B51249  30.488  34.816   6.940
 3810POPC   C4B51250  30.588  34.881   7.317
 3811POPC   NC351251   8.602  13.510   5.604
 3811POPC   PO451252   8.056  13.805   5.190
 3811POPC   GL151253   8.131  13.589   5.589
 3811POPC   GL251254   8.327  13.921   5.690
 3811POPC   C1A51255   8.113  13.437   6.045
 3811POPC   D2A51256   8.307  13.386   6.465
 3811POPC   C3A51257   8.047  13.440   6.818
 3811POPC   C4A51258   8.264  13.456   7.211
 3811POPC   C1B51259   8.382  13.858   6.150
 3811POPC   C2B51260   8.113  13.870   6.512
 3811POPC   C3B51261   8.244  13.893   6.943
 3811POPC   C4B51262   8.534  13.913   7.305
 3812POPC   NC351263   8.189  23.872   5.330
 3812POPC   PO451264   8.335  23.225   5.316
 3812POPC   GL151265   8.324  23.529   5.682
 3812POPC   GL251266   8.599  23.770   5.705
 3812POPC   C1A51267   8.203  23.816   6.048
 3812POPC   D2A51268   8.079  23.906   6.476
 3812POPC   C3A51269   8.322  24.078   6.831
 3812POPC   C4A51270   8.234  23.957   7.257
 3812POPC   C1B51271   8.578  23.503   6.131
 3812POPC   C2B51272   8.539  23.683   6.555
 3812POPC   C3B51273   8.473  23.590   7.020
 3812POPC   C4B51274   8.557  23.689   7.542
 3813POPC   NC351275  24.606   1.263   5.091
 3813POPC   PO451276  24.382   1.398   5.479
 3813POPC   GL151277  24.549   1.250   5.907
 3813POPC   GL251278  24.372   0.953   5.870
 3813POPC   C1A51279  24.688   1.321   6.393
 3813POPC   D2A51280  24.770   1.422   6.881
 3813POPC   C3A51281  24.423   1.316   7.145
 3813POPC   C4A51282  24.220   0.919   7.194
 3813POPC   C1B51283  24.401   0.879   6.327
 3813POPC   C2B51284  24.578   0.947   6.747
 3813POPC   C3B51285  24.771   0.924   7.146
 3813POPC   C4B51286  24.893   0.794   7.578
 3814POPC   NC351287  12.716  36.692   5.568
 3814POPC   PO451288  12.494  37.343   5.406
 3814POPC   GL151289  12.618  37.104   5.850
 3814POPC   GL251290  13.014  37.000   5.868
 3814POPC   C1A51291  12.719  36.871   6.279
 3814POPC   D2A51292  13.116  36.999   6.551
 3814POPC   C3A51293  13.029  37.128   6.988
 3814POPC   C4A51294  12.675  36.948   7.204
 3814POPC   C1B51295  13.155  36.638   6.161
 3814POPC   C2B51296  13.010  36.492   6.553
 3814POPC   C3B51297  13.022  36.621   6.965
 3814POPC   C4B51298  13.178  36.422   7.331
 3815POPC   NC351299  21.289  44.318   5.364
 3815POPC   PO451300  21.141  43.648   5.529
 3815POPC   GL151301  21.360  43.938   5.748
 3815POPC   GL251302  21.085  43.915   5.989
 3815POPC   C1A51303  21.550  43.815   6.126
 3815POPC   D2A51304  21.265  43.764   6.463
 3815POPC   C3A51305  21.402  43.822   6.874
 3815POPC   C4A51306  21.516  43.999   7.283
 3815POPC   C1B51307  21.315  44.230   6.263
 3815POPC   C2B51308  21.215  44.352   6.667
 3815POPC   C3B51309  21.114  44.206   7.062
 3815POPC   C4B51310  20.976  43.758   7.154
 3816POPC   NC351311   1.615  28.013   5.455
 3816POPC   PO451312   1.067  28.511   5.461
 3816POPC   GL151313   1.224  28.236   5.756
 3816POPC   GL251314   1.510  28.429   5.763
 3816POPC   C1A51315   1.342  28.269   6.206
 3816POPC   D2A51316   1.123  28.429   6.534
 3816POPC   C3A51317   1.133  28.308   6.909
 3816POPC   C4A51318   1.113  28.218   7.297
 3816POPC   C1B51319   1.704  28.634   6.103
 3816POPC   C2B51320   1.836  28.561   6.526
 3816POPC   C3B51321   1.524  28.660   6.837
 3816POPC   C4B51322   1.386  28.639   7.245
 3817POPC   NC351323   0.577  10.002   5.429
 3817POPC   PO451324   0.854   9.454   5.603
 3817POPC   GL151325   0.659   9.761   5.870
 3817POPC   GL251326   0.309   9.754   5.837
 3817POPC   C1A51327   0.543   9.927   6.282
 3817POPC   D2A51328   0.719  10.123   6.666
 3817POPC   C3A51329   0.677   9.958   7.059
 3817POPC   C4A51330   0.527   9.761   7.406
 3817POPC   C1B51331   0.137   9.452   6.164
 3817POPC   C2B51332   0.169   9.336   6.621
 3817POPC   C3B51333   0.265   9.646   6.949
 3817POPC   C4B51334   0.189  10.075   7.021
 3818POPC   NC351335  15.080  40.965   5.211
 3818POPC   PO451336  15.313  40.345   5.216
 3818POPC   GL151337  15.182  40.554   5.643
 3818POPC   GL251338  15.137  40.923   5.701
 3818POPC   C1A51339  15.212  40.517   6.104
 3818POPC   D2A51340  15.258  40.707   6.532
 3818POPC   C3A51341  15.221  40.433   6.927
 3818POPC   C4A51342  14.931  40.432   7.291
 3818POPC   C1B51343  15.242  41.021   6.094
 3818POPC   C2B51344  15.125  41.235   6.422
 3818POPC   C3B51345  15.085  41.236   6.838
 3818POPC   C4B51346  14.943  40.878   7.049
 3819POPC   NC351347   3.044  13.701   5.120
 3819POPC   PO451348   2.599  13.326   5.357
 3819POPC   GL151349   2.790  13.412   5.770
 3819POPC   GL251350   3.171  13.419   5.778
 3819POPC   C1A51351   2.613  13.502   6.196
 3819POPC   D2A51352   2.762  13.838   6.495
 3819POPC   C3A51353   2.802  13.810   6.951
 3819POPC   C4A51354   2.563  13.594   7.250
 3819POPC   C1B51355   3.117  13.450   6.256
 3819POPC   C2B51356   2.854  13.348   6.640
 3819POPC   C3B51357   2.987  13.345   7.072
 3819POPC   C4B51358   2.974  13.456   7.495
 3820POPC   NC351359   4.113  39.388   5.059
 3820POPC   PO451360   4.044  38.884   5.511
 3820POPC   GL151361   4.285  39.128   5.808
 3820POPC   GL251362   4.066  39.375   5.944
 3820POPC   C1A51363   4.508  39.348   6.175
 3820POPC   D2A51364   4.737  39.461   6.565
 3820POPC   C3A51365   4.423  39.451   6.868
 3820POPC   C4A51366   4.255  39.521   7.249
 3820POPC   C1B51367   4.021  39.104   6.273
 3820POPC   C2B51368   4.029  39.070   6.695
 3820POPC   C3B51369   3.938  39.183   7.072
 3820POPC   C4B51370   4.030  39.061   7.479
 3821POPC   NC351371  24.040   4.180   5.479
 3821POPC   PO451372  23.559   4.544   5.465
 3821POPC   GL151373  23.621   4.250   5.797
 3821POPC   GL251374  23.819   4.484   5.904
 3821POPC   C1A51375  23.657   4.216   6.291
 3821POPC   D2A51376  23.683   4.457   6.692
 3821POPC   C3A51377  23.810   4.255   7.093
 3821POPC   C4A51378  23.790   3.983   7.488
 3821POPC   C1B51379  23.910   4.689   6.276
 3821POPC   C2B51380  24.176   4.706   6.620
 3821POPC   C3B51381  24.000   4.741   7.001
 3821POPC   C4B51382  23.562   4.712   7.141
 3822POPC   NC351383  22.567  26.645   5.392
 3822POPC   PO451384  23.056  27.108   5.552
 3822POPC   GL151385  22.918  26.775   5.832
 3822POPC   GL251386  23.192  26.612   5.954
 3822POPC   C1A51387  22.690  26.447   6.097
 3822POPC   D2A51388  22.674  26.426   6.538
 3822POPC   C3A51389  22.789  26.796   6.728
 3822POPC   C4A51390  22.861  26.939   7.124
 3822POPC   C1B51391  23.152  26.896   6.305
 3822POPC   C2B51392  23.285  26.898   6.733
 3822POPC   C3B51393  23.293  27.204   7.043
 3822POPC   C4B51394  23.386  27.206   7.479
 3823POPC   NC351395  24.322  41.293   5.343
 3823POPC   PO451396  23.853  41.683   5.473
 3823POPC   GL151397  24.169  41.500   5.814
 3823POPC   GL251398  24.536  41.488   5.760
 3823POPC   C1A51399  24.395  41.684   6.212
 3823POPC   D2A51400  24.331  41.771   6.668
 3823POPC   C3A51401  24.598  41.736   7.042
 3823POPC   C4A51402  24.338  41.497   7.351
 3823POPC   C1B51403  24.796  41.384   6.105
 3823POPC   C2B51404  24.782  41.406   6.590
 3823POPC   C3B51405  24.657  41.225   7.031
 3823POPC   C4B51406  24.700  41.165   7.478
 3824POPC   NC351407  24.384  19.104   5.371
 3824POPC   PO451408  24.913  18.742   5.498
 3824POPC   GL151409  24.750  19.027   5.836
 3824POPC   GL251410  24.422  19.149   5.865
 3824POPC   C1A51411  24.735  19.118   6.302
 3824POPC   D2A51412  24.814  19.463   6.617
 3824POPC   C3A51413  24.792  19.213   6.998
 3824POPC   C4A51414  24.444  18.954   7.095
 3824POPC   C1B51415  24.422  19.456   6.148
 3824POPC   C2B51416  24.303  19.529   6.558
 3824POPC   C3B51417  24.423  19.566   6.977
 3824POPC   C4B51418  24.133  19.345   7.189
 3825POPC   NC351419  34.914  15.808   5.386
 3825POPC   PO451420  34.290  16.057   5.368
 3825POPC   GL151421  34.419  15.984   5.779
 3825POPC   GL251422  34.548  15.644   5.749
 3825POPC   C1A51423  34.453  16.127   6.225
 3825POPC   D2A51424  34.306  15.968   6.618
 3825POPC   C3A51425  34.373  16.095   7.031
 3825POPC   C4A51426  34.356  15.796   7.351
 3825POPC   C1B51427  34.843  15.745   6.098
 3825POPC   C2B51428  34.819  15.880   6.534
 3825POPC   C3B51429  34.674  15.712   6.922
 3825POPC   C4B51430  34.828  15.952   7.267
 3826POPC   NC351431  39.905  38.635   5.589
 3826POPC   PO451432  39.683  39.281   5.268
 3826POPC   GL151433  39.924  39.446   5.764
 3826POPC   GL251434  40.153  39.153   5.911
 3826POPC   C1A51435  39.928  39.398   6.270
 3826POPC   D2A51436  39.807  39.220   6.687
 3826POPC   C3A51437  40.018  39.366   7.052
 3826POPC   C4A51438  40.149  39.295   7.498
 3826POPC   C1B51439  40.354  39.057   6.257
 3826POPC   C2B51440  40.307  39.079   6.689
 3826POPC   C3B51441  40.371  39.014   7.111
 3826POPC   C4B51442  40.699  39.191   7.343
 3827POPC   NC351443  16.397  23.709   5.363
 3827POPC   PO451444  15.884  24.051   5.623
 3827POPC   GL151445  15.835  23.587   5.806
 3827POPC   GL251446  16.102  23.385   5.681
 3827POPC   C1A51447  15.861  23.359   6.242
 3827POPC   D2A51448  15.709  23.441   6.654
 3827POPC   C3A51449  15.922  23.497   7.012
 3827POPC   C4A51450  15.685  23.313   7.288
 3827POPC   C1B51451  16.327  23.456   6.070
 3827POPC   C2B51452  16.279  23.543   6.519
 3827POPC   C3B51453  16.419  23.475   6.948
 3827POPC   C4B51454  16.402  23.749   7.329
 3828POPC   NC351455  38.448   4.425   5.369
 3828POPC   PO451456  38.528   3.794   5.350
 3828POPC   GL151457  38.303   4.085   5.717
 3828POPC   GL251458  38.126   4.451   5.758
 3828POPC   C1A51459  38.476   4.325   6.102
 3828POPC   D2A51460  38.621   4.393   6.518
 3828POPC   C3A51461  38.521   4.052   6.774
 3828POPC   C4A51462  38.612   4.103   7.181
 3828POPC   C1B51463  38.077   4.644   6.178
 3828POPC   C2B51464  38.118   4.389   6.551
 3828POPC   C3B51465  38.211   4.460   7.003
 3828POPC   C4B51466  38.051   4.570   7.439
 3829POPC   NC351467  12.538  30.237   5.506
 3829POPC   PO451468  13.115  30.597   5.515
 3829POPC   GL151469  12.758  30.640   5.815
 3829POPC   GL251470  12.634  30.983   5.897
 3829POPC   C1A51471  12.673  30.639   6.269
 3829POPC   D2A51472  12.795  30.758   6.696
 3829POPC   C3A51473  12.640  30.598   7.081
 3829POPC   C4A51474  12.905  30.561   7.463
 3829POPC   C1B51475  12.847  31.180   6.274
 3829POPC   C2B51476  12.963  31.234   6.733
 3829POPC   C3B51477  13.018  30.985   7.159
 3829POPC   C4B51478  13.016  30.998   7.677
 3830POPC   NC351479  32.926  32.719   5.345
 3830POPC   PO451480  33.317  33.264   5.461
 3830POPC   GL151481  33.063  33.067   5.809
 3830POPC   GL251482  33.208  32.711   5.785
 3830POPC   C1A51483  32.938  33.172   6.264
 3830POPC   D2A51484  32.623  33.247   6.544
 3830POPC   C3A51485  32.854  33.243   6.888
 3830POPC   C4A51486  33.178  33.124   7.163
 3830POPC   C1B51487  32.996  32.690   6.178
 3830POPC   C2B51488  32.877  32.764   6.615
 3830POPC   C3B51489  33.003  32.659   7.032
 3830POPC   C4B51490  32.812  32.456   7.384
 3831POPC   NC351491  24.692  35.543   5.467
 3831POPC   PO451492  24.253  35.069   5.486
 3831POPC   GL151493  24.364  35.317   5.819
 3831POPC   GL251494  24.707  35.192   5.853
 3831POPC   C1A51495  24.240  35.530   6.202
 3831POPC   D2A51496  24.459  35.615   6.596
 3831POPC   C3A51497  24.320  35.455   7.008
 3831POPC   C4A51498  24.165  35.054   7.127
 3831POPC   C1B51499  24.789  35.487   6.183
 3831POPC   C2B51500  24.969  35.665   6.583
 3831POPC   C3B51501  24.849  35.565   7.034
 3831POPC   C4B51502  24.917  35.398   7.465
 3832POPC   NC351503  28.309   6.157   5.435
 3832POPC   PO451504  28.424   6.815   5.411
 3832POPC   GL151505  28.244   6.736   5.795
 3832POPC   GL251506  28.464   6.472   5.816
 3832POPC   C1A51507  28.293   6.759   6.248
 3832POPC   D2A51508  28.346   6.976   6.659
 3832POPC   C3A51509  28.123   6.748   6.984
 3832POPC   C4A51510  27.912   6.854   7.358
 3832POPC   C1B51511  28.756   6.400   6.126
 3832POPC   C2B51512  28.778   6.292   6.522
 3832POPC   C3B51513  28.607   6.356   6.889
 3832POPC   C4B51514  28.833   6.373   7.279
 3833POPC   NC351515  43.315   8.094   5.146
 3833POPC   PO451516  43.116   8.623   5.505
 3833POPC   GL151517  43.145   8.278   5.802
 3833POPC   GL251518  43.010   7.951   5.708
 3833POPC   C1A51519  43.139   8.256   6.268
 3833POPC   D2A51520  42.907   8.210   6.652
 3833POPC   C3A51521  43.086   8.350   7.047
 3833POPC   C4A51522  43.200   8.248   7.478
 3833POPC   C1B51523  43.322   7.838   6.069
 3833POPC   C2B51524  43.239   7.797   6.532
 3833POPC   C3B51525  43.129   7.845   6.980
 3833POPC   C4B51526  43.168   7.720   7.432
 3834POPC   NC351527  14.501  23.743   5.307
 3834POPC   PO451528  13.815  23.808   5.336
 3834POPC   GL151529  14.196  23.773   5.724
 3834POPC   GL251530  14.561  23.574   5.771
 3834POPC   C1A51531  14.353  23.719   6.201
 3834POPC   D2A51532  14.402  23.567   6.634
 3834POPC   C3A51533  14.594  23.810   6.982
 3834POPC   C4A51534  14.490  23.991   7.386
 3834POPC   C1B51535  14.783  23.244   6.053
 3834POPC   C2B51536  14.710  23.180   6.542
 3834POPC   C3B51537  14.732  23.328   6.992
 3834POPC   C4B51538  14.465  23.461   7.385
 3835POPC   NC351539  21.163  31.705   5.442
 3835POPC   PO451540  21.734  31.276   5.397
 3835POPC   GL151541  21.488  31.434   5.774
 3835POPC   GL251542  21.130  31.304   5.798
 3835POPC   C1A51543  21.341  31.648   6.165
 3835POPC   D2A51544  21.493  31.794   6.601
 3835POPC   C3A51545  21.255  31.696   6.982
 3835POPC   C4A51546  21.109  31.851   7.401
 3835POPC   C1B51547  21.178  31.158   6.209
 3835POPC   C2B51548  21.342  31.303   6.593
 3835POPC   C3B51549  21.330  31.132   6.996
 3835POPC   C4B51550  21.325  31.346   7.369
 3836POPC   NC351551  22.992  25.834   5.409
 3836POPC   PO451552  22.908  26.426   5.159
 3836POPC   GL151553  22.867  26.283   5.660
 3836POPC   GL251554  22.689  25.979   5.794
 3836POPC   C1A51555  23.098  26.160   6.118
 3836POPC   D2A51556  23.196  26.424   6.523
 3836POPC   C3A51557  23.003  26.382   6.964
 3836POPC   C4A51558  22.965  25.995   7.230
 3836POPC   C1B51559  22.818  25.722   6.136
 3836POPC   C2B51560  22.909  25.926   6.525
 3836POPC   C3B51561  22.631  26.007   6.838
 3836POPC   C4B51562  22.470  25.862   7.209
 3837POPC   NC351563  16.091   8.319   5.327
 3837POPC   PO451564  16.516   7.951   5.389
 3837POPC   GL151565  16.249   8.194   5.791
 3837POPC   GL251566  15.883   8.131   5.902
 3837POPC   C1A51567  16.168   8.371   6.248
 3837POPC   D2A51568  15.928   8.178   6.614
 3837POPC   C3A51569  15.941   8.327   7.043
 3837POPC   C4A51570  16.259   8.257   7.376
 3837POPC   C1B51571  15.628   8.379   6.235
 3837POPC   C2B51572  15.391   8.270   6.636
 3837POPC   C3B51573  15.485   8.117   7.078
 3837POPC   C4B51574  15.844   7.929   7.352
 3838POPC   NC351575  34.310  29.166   5.676
 3838POPC   PO451576  33.723  29.223   5.275
 3838POPC   GL151577  33.808  29.316   5.687
 3838POPC   GL251578  33.821  28.980   5.787
 3838POPC   C1A51579  33.833  29.350   6.153
 3838POPC   D2A51580  33.751  29.399   6.609
 3838POPC   C3A51581  34.033  29.285   6.955
 3838POPC   C4A51582  33.882  29.348   7.360
 3838POPC   C1B51583  33.888  28.796   6.221
 3838POPC   C2B51584  33.933  28.839   6.698
 3838POPC   C3B51585  33.797  28.861   7.153
 3838POPC   C4B51586  34.005  28.884   7.562
 3839POPC   NC351587  36.532  23.647   5.645
 3839POPC   PO451588  36.393  24.190   5.222
 3839POPC   GL151589  36.333  24.099   5.710
 3839POPC   GL251590  36.081  23.799   5.817
 3839POPC   C1A51591  36.331  24.026   6.196
 3839POPC   D2A51592  36.298  24.172   6.623
 3839POPC   C3A51593  36.441  23.916   6.993
 3839POPC   C4A51594  36.349  23.490   7.179
 3839POPC   C1B51595  36.053  23.572   6.203
 3839POPC   C2B51596  36.216  23.667   6.605
 3839POPC   C3B51597  35.953  23.714   6.952
 3839POPC   C4B51598  35.822  23.333   7.162
 3840POPC   NC351599   9.085  30.014   5.466
 3840POPC   PO451600   8.740  29.467   5.479
 3840POPC   GL151601   8.898  29.678   5.815
 3840POPC   GL251602   9.249  29.668   5.849
 3840POPC   C1A51603   8.888  29.872   6.206
 3840POPC   D2A51604   9.047  30.117   6.554
 3840POPC   C3A51605   8.971  29.795   6.869
 3840POPC   C4A51606   8.636  29.729   7.207
 3840POPC   C1B51607   9.404  29.871   6.264
 3840POPC   C2B51608   9.499  29.937   6.684
 3840POPC   C3B51609   9.310  30.127   7.038
 3840POPC   C4B51610   9.156  29.922   7.400
 3841POPC   NC351611  18.492  36.070   5.418
 3841POPC   PO451612  17.866  36.266   5.509
 3841POPC   GL151613  18.155  36.118   5.867
 3841POPC   GL251614  18.413  35.807   5.840
 3841POPC   C1A51615  18.096  36.232   6.317
 3841POPC   D2A51616  17.835  36.101   6.683
 3841POPC   C3A51617  18.033  36.237   7.055
 3841POPC   C4A51618  18.455  36.284   7.175
 3841POPC   C1B51619  18.340  35.793   6.284
 3841POPC   C2B51620  18.320  35.957   6.712
 3841POPC   C3B51621  18.286  35.776   7.108
 3841POPC   C4B51622  18.636  35.834   7.300
 3842POPC   NC351623   3.576   6.003   5.408
 3842POPC   PO451624   2.907   6.062   5.445
 3842POPC   GL151625   3.174   6.017   5.838
 3842POPC   GL251626   3.404   6.267   5.824
 3842POPC   C1A51627   3.240   5.959   6.322
 3842POPC   D2A51628   3.284   5.967   6.820
 3842POPC   C3A51629   3.365   5.591   7.091
 3842POPC   C4A51630   3.619   5.585   7.485
 3842POPC   C1B51631   3.672   6.157   6.138
 3842POPC   C2B51632   3.743   5.927   6.526
 3842POPC   C3B51633   3.786   5.844   6.962
 3842POPC   C4B51634   3.540   6.037   7.273
 3843POPC   NC351635  21.227  32.540   5.461
 3843POPC   PO451636  21.536  31.960   5.326
 3843POPC   GL151637  21.377  32.037   5.781
 3843POPC   GL251638  21.203  32.346   5.906
 3843POPC   C1A51639  21.511  32.151   6.230
 3843POPC   D2A51640  21.571  32.552   6.476
 3843POPC   C3A51641  21.649  32.430   6.893
 3843POPC   C4A51642  21.409  32.170   7.133
 3843POPC   C1B51643  21.093  32.514   6.298
 3843POPC   C2B51644  21.165  32.199   6.637
 3843POPC   C3B51645  20.928  32.144   6.998
 3843POPC   C4B51646  20.992  32.345   7.369
 3844POPC   NC351647  12.914  37.556   5.358
 3844POPC   PO451648  12.976  38.213   5.509
 3844POPC   GL151649  12.809  37.908   5.822
 3844POPC   GL251650  12.846  37.558   5.852
 3844POPC   C1A51651  12.890  37.867   6.265
 3844POPC   D2A51652  12.986  37.966   6.680
 3844POPC   C3A51653  12.922  37.636   6.949
 3844POPC   C4A51654  13.076  37.849   7.229
 3844POPC   C1B51655  12.881  37.347   6.227
 3844POPC   C2B51656  12.717  37.309   6.619
 3844POPC   C3B51657  12.404  37.350   6.936
 3844POPC   C4B51658  12.394  37.326   7.375
 3845POPC   NC351659  11.904  24.380   5.424
 3845POPC   PO451660  11.796  25.084   5.579
 3845POPC   GL151661  12.010  24.698   5.809
 3845POPC   GL251662  12.258  24.383   5.870
 3845POPC   C1A51663  11.894  24.525   6.194
 3845POPC   D2A51664  12.003  24.690   6.586
 3845POPC   C3A51665  11.870  24.489   6.986
 3845POPC   C4A51666  11.886  24.692   7.396
 3845POPC   C1B51667  12.394  24.452   6.319
 3845POPC   C2B51668  12.500  24.252   6.730
 3845POPC   C3B51669  12.535  24.245   7.198
 3845POPC   C4B51670  12.299  24.462   7.554
 3846POPC   NC351671   6.391   9.237   5.415
 3846POPC   PO451672   5.743   9.132   5.292
 3846POPC   GL151673   5.953   9.206   5.696
 3846POPC   GL251674   6.131   8.894   5.815
 3846POPC   C1A51675   5.855   9.224   6.143
 3846POPC   D2A51676   5.772   8.902   6.486
 3846POPC   C3A51677   5.749   8.984   6.970
 3846POPC   C4A51678   5.566   8.727   7.348
 3846POPC   C1B51679   6.097   8.610   6.204
 3846POPC   C2B51680   6.138   8.599   6.681
 3846POPC   C3B51681   6.044   8.603   7.136
 3846POPC   C4B51682   5.961   8.448   7.561
 3847POPC   NC351683  37.487   0.677   5.707
 3847POPC   PO451684  37.490   0.128   5.543
 3847POPC   GL151685  37.580   0.237   5.960
 3847POPC   GL251686  37.903   0.332   5.888
 3847POPC   C1A51687  37.660   0.391   6.402
 3847POPC   D2A51688  37.519   0.758   6.699
 3847POPC   C3A51689  37.671   0.723   7.139
 3847POPC   C4A51690  37.572   0.277   7.235
 3847POPC   C1B51691  38.071   0.036   6.184
 3847POPC   C2B51692  38.035  44.997   6.633
 3847POPC   C3B51693  37.994   0.331   6.956
 3847POPC   C4B51694  38.063   0.352   7.424
 3848POPC   NC351695  12.501  40.912   5.241
 3848POPC   PO451696  13.133  40.797   5.329
 3848POPC   GL151697  12.845  40.703   5.707
 3848POPC   GL251698  12.658  41.010   5.743
 3848POPC   C1A51699  12.731  40.604   6.173
 3848POPC   D2A51700  12.743  40.854   6.544
 3848POPC   C3A51701  12.596  40.697   6.934
 3848POPC   C4A51702  12.669  40.779   7.365
 3848POPC   C1B51703  12.948  41.061   6.097
 3848POPC   C2B51704  13.205  41.076   6.498
 3848POPC   C3B51705  13.034  41.089   6.917
 3848POPC   C4B51706  13.116  41.109   7.358
 3849POPC   NC351707  12.186  13.103   5.545
 3849POPC   PO451708  11.888  12.474   5.512
 3849POPC   GL151709  12.195  12.590   5.813
 3849POPC   GL251710  12.085  12.868   5.990
 3849POPC   C1A51711  12.306  12.489   6.221
 3849POPC   D2A51712  12.015  12.589   6.532
 3849POPC   C3A51713  12.143  12.894   6.865
 3849POPC   C4A51714  12.391  12.755   7.248
 3849POPC   C1B51715  12.061  13.098   6.383
 3849POPC   C2B51716  11.744  13.316   6.605
 3849POPC   C3B51717  11.631  13.150   6.993
 3849POPC   C4B51718  11.918  12.963   7.318
 3850POPC   NC351719  38.955  30.691   5.408
 3850POPC   PO451720  39.629  30.604   5.475
 3850POPC   GL151721  39.305  30.548   5.801
 3850POPC   GL251722  39.191  30.872   5.823
 3850POPC   C1A51723  39.137  30.476   6.249
 3850POPC   D2A51724  39.329  30.686   6.643
 3850POPC   C3A51725  39.400  30.568   7.093
 3850POPC   C4A51726  39.523  30.707   7.512
 3850POPC   C1B51727  39.255  30.985   6.230
 3850POPC   C2B51728  38.977  31.179   6.516
 3850POPC   C3B51729  39.104  31.082   6.910
 3850POPC   C4B51730  39.373  31.123   7.245
 3851POPC   NC351731   7.447  42.243   5.306
 3851POPC   PO451732   6.921  42.703   5.367
 3851POPC   GL151733   7.205  42.501   5.730
 3851POPC   GL251734   7.593  42.404   5.777
 3851POPC   C1A51735   7.284  42.351   6.172
 3851POPC   D2A51736   7.237  42.452   6.591
 3851POPC   C3A51737   7.308  42.249   6.976
 3851POPC   C4A51738   7.109  42.424   7.319
 3851POPC   C1B51739   7.662  42.035   6.093
 3851POPC   C2B51740   7.586  42.079   6.540
 3851POPC   C3B51741   7.766  42.019   6.961
 3851POPC   C4B51742   7.720  42.325   7.300
 3852POPC   NC351743   8.284  14.369   5.415
 3852POPC   PO451744   7.808  13.947   5.665
 3852POPC   GL151745   7.895  14.398   5.759
 3852POPC   GL251746   7.634  14.563   5.910
 3852POPC   C1A51747   8.096  14.726   6.050
 3852POPC   D2A51748   8.326  14.671   6.449
 3852POPC   C3A51749   8.293  14.704   6.920
 3852POPC   C4A51750   8.541  14.972   7.204
 3852POPC   C1B51751   7.857  14.376   6.311
 3852POPC   C2B51752   7.966  14.321   6.766
 3852POPC   C3B51753   8.150  14.308   7.198
 3852POPC   C4B51754   8.403  14.549   7.450
 3853POPC   NC351755  29.916   5.277   5.448
 3853POPC   PO451756  29.532   4.797   5.615
 3853POPC   GL151757  29.870   4.973   5.949
 3853POPC   GL251758  30.216   5.084   5.867
 3853POPC   C1A51759  30.135   4.874   6.357
 3853POPC   D2A51760  30.282   4.896   6.826
 3853POPC   C3A51761  29.914   4.981   7.085
 3853POPC   C4A51762  29.556   4.890   7.386
 3853POPC   C1B51763  30.332   5.327   6.266
 3853POPC   C2B51764  30.184   5.392   6.720
 3853POPC   C3B51765  30.251   5.375   7.190
 3853POPC   C4B51766  30.099   5.542   7.598
 3854POPC   NC351767  33.687  34.683   5.307
 3854POPC   PO451768  34.207  34.981   5.638
 3854POPC   GL151769  34.106  34.617   5.867
 3854POPC   GL251770  33.779  34.461   5.801
 3854POPC   C1A51771  34.062  34.611   6.299
 3854POPC   D2A51772  34.093  34.396   6.653
 3854POPC   C3A51773  34.129  34.646   7.005
 3854POPC   C4A51774  34.017  34.564   7.404
 3854POPC   C1B51775  33.557  34.624   6.201
 3854POPC   C2B51776  33.655  34.692   6.630
 3854POPC   C3B51777  33.404  34.686   6.989
 3854POPC   C4B51778  33.509  34.569   7.377
 3855POPC   NC351779  18.847   1.794   5.445
 3855POPC   PO451780  19.265   2.267   5.331
 3855POPC   GL151781  19.365   2.158   5.746
 3855POPC   GL251782  19.238   1.806   5.786
 3855POPC   C1A51783  19.198   2.142   6.160
 3855POPC   D2A51784  19.132   2.301   6.558
 3855POPC   C3A51785  19.395   2.227   6.882
 3855POPC   C4A51786  19.273   1.919   7.180
 3855POPC   C1B51787  19.151   1.632   6.219
 3855POPC   C2B51788  19.158   1.763   6.670
 3855POPC   C3B51789  18.852   1.955   6.896
 3855POPC   C4B51790  18.775   1.895   7.294
 3856POPC   NC351791  32.918  26.985   5.054
 3856POPC   PO451792  32.865  26.371   5.256
 3856POPC   GL151793  32.995  26.582   5.691
 3856POPC   GL251794  33.307  26.817   5.752
 3856POPC   C1A51795  33.051  26.628   6.173
 3856POPC   D2A51796  32.993  26.474   6.610
 3856POPC   C3A51797  32.936  26.785   6.938
 3856POPC   C4A51798  33.075  26.911   7.343
 3856POPC   C1B51799  33.340  27.092   6.158
 3856POPC   C2B51800  33.191  27.125   6.620
 3856POPC   C3B51801  33.417  27.151   7.039
 3856POPC   C4B51802  33.452  27.214   7.525
 3857POPC   NC351803   4.278  35.766   5.343
 3857POPC   PO451804   4.665  36.284   5.115
 3857POPC   GL151805   4.378  36.231   5.540
 3857POPC   GL251806   4.367  36.495   5.751
 3857POPC   C1A51807   4.263  36.075   6.002
 3857POPC   D2A51808   4.371  36.039   6.458
 3857POPC   C3A51809   4.177  36.162   6.873
 3857POPC   C4A51810   4.066  35.995   7.256
 3857POPC   C1B51811   4.491  36.503   6.171
 3857POPC   C2B51812   4.293  36.546   6.566
 3857POPC   C3B51813   4.521  36.567   6.927
 3857POPC   C4B51814   4.532  36.429   7.326
 3858POPC   NC351815  17.977  15.073   5.414
 3858POPC   PO451816  18.544  15.371   5.276
 3858POPC   GL151817  18.524  15.311   5.737
 3858POPC   GL251818  18.232  15.116   5.860
 3858POPC   C1A51819  18.607  15.208   6.193
 3858POPC   D2A51820  18.350  15.045   6.525
 3858POPC   C3A51821  18.391  15.221   6.941
 3858POPC   C4A51822  18.618  15.507   7.236
 3858POPC   C1B51823  17.953  14.935   6.180
 3858POPC   C2B51824  17.856  15.061   6.605
 3858POPC   C3B51825  17.932  14.834   6.943
 3858POPC   C4B51826  18.033  15.044   7.267
 3859POPC   NC351827   2.462   2.586   5.469
 3859POPC   PO451828   2.794   3.062   5.200
 3859POPC   GL151829   2.742   2.953   5.697
 3859POPC   GL251830   2.777   2.619   5.850
 3859POPC   C1A51831   2.619   2.933   6.182
 3859POPC   D2A51832   2.427   2.893   6.594
 3859POPC   C3A51833   2.651   2.891   7.003
 3859POPC   C4A51834   2.649   3.183   7.394
 3859POPC   C1B51835   2.705   2.380   6.203
 3859POPC   C2B51836   2.626   2.388   6.611
 3859POPC   C3B51837   2.816   2.269   6.948
 3859POPC   C4B51838   2.793   2.464   7.290
 3860POPC   NC351839  25.660  39.461   5.525
 3860POPC   PO451840  25.122  39.715   5.167
 3860POPC   GL151841  25.134  39.433   5.614
 3860POPC   GL251842  25.326  39.096   5.677
 3860POPC   C1A51843  25.019  39.227   6.069
 3860POPC   D2A51844  25.134  38.948   6.442
 3860POPC   C3A51845  25.047  39.141   6.846
 3860POPC   C4A51846  25.082  39.257   7.278
 3860POPC   C1B51847  25.539  39.120   6.103
 3860POPC   C2B51848  25.759  39.130   6.507
 3860POPC   C3B51849  25.580  39.125   6.909
 3860POPC   C4B51850  25.496  38.913   7.301
 3861POPC   NC351851  10.733  12.861   5.497
 3861POPC   PO451852  10.082  12.647   5.432
 3861POPC   GL151853  10.307  12.865   5.833
 3861POPC   GL251854  10.598  13.119   5.962
 3861POPC   C1A51855  10.547  12.703   6.225
 3861POPC   D2A51856  10.407  12.760   6.642
 3861POPC   C3A51857  10.653  12.630   6.995
 3861POPC   C4A51858  10.765  12.985   7.199
 3861POPC   C1B51859  10.292  13.189   6.327
 3861POPC   C2B51860  10.207  13.222   6.800
 3861POPC   C3B51861  10.235  13.101   7.251
 3861POPC   C4B51862  10.129  13.214   7.701
 3862POPC   NC351863  44.629   4.536   5.496
 3862POPC   PO451864  44.833   3.798   5.532
 3862POPC   GL151865  44.529   3.920   5.877
 3862POPC   GL251866  44.699   4.226   5.891
 3862POPC   C1A51867  44.514   4.077   6.336
 3862POPC   D2A51868  44.804   4.144   6.711
 3862POPC   C3A51869  44.714   4.079   7.166
 3862POPC   C4A51870  44.462   4.266   7.511
 3862POPC   C1B51871  44.913   4.433   6.241
 3862POPC   C2B51872  44.993   4.646   6.635
 3862POPC   C3B51873  44.784   4.585   7.025
 3862POPC   C4B51874  44.900   4.523   7.438
 3863POPC   NC351875   7.704  21.343   5.500
 3863POPC   PO451876   7.136  21.056   5.393
 3863POPC   GL151877   7.243  21.277   5.772
 3863POPC   GL251878   7.108  20.996   5.940
 3863POPC   C1A51879   7.404  21.465   6.162
 3863POPC   D2A51880   7.636  21.405   6.575
 3863POPC   C3A51881   7.493  21.511   6.985
 3863POPC   C4A51882   7.621  21.138   7.169
 3863POPC   C1B51883   7.031  21.110   6.374
 3863POPC   C2B51884   7.181  21.121   6.811
 3863POPC   C3B51885   7.138  21.109   7.253
 3863POPC   C4B51886   7.075  21.005   7.676
 3864POPC   NC351887  20.952  39.373   5.415
 3864POPC   PO451888  20.350  39.023   5.495
 3864POPC   GL151889  20.557  39.062   5.814
 3864POPC   GL251890  20.638  39.421   5.833
 3864POPC   C1A51891  20.491  39.161   6.217
 3864POPC   D2A51892  20.721  39.417   6.508
 3864POPC   C3A51893  20.700  39.266   6.910
 3864POPC   C4A51894  20.480  39.069   7.234
 3864POPC   C1B51895  20.373  39.649   6.178
 3864POPC   C2B51896  20.307  39.758   6.630
 3864POPC   C3B51897  20.336  39.630   7.061
 3864POPC   C4B51898  20.255  39.461   7.474
 3865POPC   NC351899  22.952   7.112   5.096
 3865POPC   PO451900  22.791   7.667   5.523
 3865POPC   GL151901  23.082   7.627   5.876
 3865POPC   GL251902  23.051   7.289   6.053
 3865POPC   C1A51903  23.094   7.687   6.327
 3865POPC   D2A51904  23.185   7.342   6.586
 3865POPC   C3A51905  23.085   7.490   6.948
 3865POPC   C4A51906  22.862   7.451   7.274
 3865POPC   C1B51907  22.723   7.211   6.335
 3865POPC   C2B51908  22.672   7.242   6.757
 3865POPC   C3B51909  22.494   7.092   7.101
 3865POPC   C4B51910  22.644   7.058   7.528
 3866POPC   NC351911  32.993  22.510   5.302
 3866POPC   PO451912  32.796  21.883   5.446
 3866POPC   GL151913  32.843  22.127   5.858
 3866POPC   GL251914  32.786  22.483   5.787
 3866POPC   C1A51915  33.075  22.373   6.224
 3866POPC   D2A51916  33.190  22.371   6.679
 3866POPC   C3A51917  32.946  22.046   6.904
 3866POPC   C4A51918  33.046  21.810   7.248
 3866POPC   C1B51919  32.577  22.478   6.191
 3866POPC   C2B51920  32.627  22.344   6.614
 3866POPC   C3B51921  32.629  22.440   7.063
 3866POPC   C4B51922  32.839  22.242   7.422
 3867POPC   NC351923   4.342   0.002   5.686
 3867POPC   PO451924   4.683  44.481   5.418
 3867POPC   GL151925   4.375  44.457   5.780
 3867POPC   GL251926   4.008  44.565   5.871
 3867POPC   C1A51927   4.374  44.578   6.221
 3867POPC   D2A51928   4.508  44.490   6.606
 3867POPC   C3A51929   4.353  44.728   6.917
 3867POPC   C4A51930   4.540  44.824   7.290
 3867POPC   C1B51931   3.849  44.389   6.268
 3867POPC   C2B51932   3.970  44.407   6.702
 3867POPC   C3B51933   4.129  44.128   7.010
 3867POPC   C4B51934   4.208  44.403   7.297
 3868POPC   NC351935  35.943  34.001   5.540
 3868POPC   PO451936  36.479  34.243   5.692
 3868POPC   GL151937  36.329  33.802   5.803
 3868POPC   GL251938  36.001  33.657   5.911
 3868POPC   C1A51939  36.462  33.542   6.147
 3868POPC   D2A51940  36.157  33.552   6.491
 3868POPC   C3A51941  36.292  33.653   6.882
 3868POPC   C4A51942  36.079  33.899   7.157
 3868POPC   C1B51943  35.661  33.462   6.127
 3868POPC   C2B51944  35.690  33.338   6.529
 3868POPC   C3B51945  35.788  33.519   6.904
 3868POPC   C4B51946  35.677  33.603   7.300
 3869POPC   NC351947  25.554  42.878   5.679
 3869POPC   PO451948  25.055  43.022   5.301
 3869POPC   GL151949  25.093  43.154   5.759
 3869POPC   GL251950  25.087  42.835   5.883
 3869POPC   C1A51951  25.311  43.258   6.198
 3869POPC   D2A51952  25.441  43.401   6.641
 3869POPC   C3A51953  25.315  43.261   7.068
 3869POPC   C4A51954  25.324  43.492   7.470
 3869POPC   C1B51955  25.310  42.751   6.277
 3869POPC   C2B51956  25.245  42.876   6.706
 3869POPC   C3B51957  25.378  42.708   7.107
 3869POPC   C4B51958  25.255  42.623   7.515
 3870POPC   NC351959  17.747  11.808   5.218
 3870POPC   PO451960  17.706  11.151   5.223
 3870POPC   GL151961  17.575  11.184   5.667
 3870POPC   GL251962  17.469  11.512   5.600
 3870POPC   C1A51963  17.434  11.103   6.131
 3870POPC   D2A51964  17.490  10.948   6.551
 3870POPC   C3A51965  17.419  11.076   6.968
 3870POPC   C4A51966  17.397  11.159   7.409
 3870POPC   C1B51967  17.509  11.587   6.047
 3870POPC   C2B51968  17.544  11.461   6.493
 3870POPC   C3B51969  17.565  11.577   6.936
 3870POPC   C4B51970  17.692  11.617   7.380
 3871POPC   NC351971  10.954  24.190   5.406
 3871POPC   PO451972  11.488  24.618   5.298
 3871POPC   GL151973  11.202  24.589   5.707
 3871POPC   GL251974  10.882  24.829   5.739
 3871POPC   C1A51975  11.292  24.458   6.170
 3871POPC   D2A51976  11.524  24.464   6.570
 3871POPC   C3A51977  11.307  24.317   6.949
 3871POPC   C4A51978  11.482  24.345   7.349
 3871POPC   C1B51979  10.825  24.707   6.205
 3871POPC   C2B51980  10.946  24.571   6.657
 3871POPC   C3B51981  11.057  24.761   7.093
 3871POPC   C4B51982  11.153  24.672   7.556
 3872POPC   NC351983  32.938  40.478   5.394
 3872POPC   PO451984  32.773  39.835   5.383
 3872POPC   GL151985  32.887  40.061   5.739
 3872POPC   GL251986  33.113  39.817   5.894
 3872POPC   C1A51987  32.914  40.233   6.160
 3872POPC   D2A51988  32.905  40.021   6.568
 3872POPC   C3A51989  33.016  40.223   6.953
 3872POPC   C4A51990  32.994  40.180   7.381
 3872POPC   C1B51991  33.083  39.608   6.306
 3872POPC   C2B51992  33.107  39.562   6.771
 3872POPC   C3B51993  33.159  39.727   7.198
 3872POPC   C4B51994  33.315  39.879   7.617
 3873POPC   NC351995  44.325  35.332   5.403
 3873POPC   PO451996  43.775  35.308   5.417
 3873POPC   GL151997  43.949  35.296   5.858
 3873POPC   GL251998  44.313  35.379   5.935
 3873POPC   C1A51999  43.766  35.357   6.304
 3873POPC   D2A52000  43.530  35.492   6.704
 3873POPC   C3A52001  43.596  35.327   7.139
 3873POPC   C4A52002  43.703  35.375   7.615
 3873POPC   C1B52003  44.290  35.412   6.409
 3873POPC   C2B52004  44.149  35.313   6.833
 3873POPC   C3B52005  44.069  35.466   7.231
 3873POPC   C4B52006  43.950  35.837   7.475
 3874POPC   NC352007  21.968  34.830   5.223
 3874POPC   PO452008  22.452  34.408   5.254
 3874POPC   GL152009  22.250  34.513   5.702
 3874POPC   GL252010  21.877  34.641   5.725
 3874POPC   C1A52011  22.429  34.441   6.160
 3874POPC   D2A52012  22.204  34.446   6.572
 3874POPC   C3A52013  22.435  34.582   6.921
 3874POPC   C4A52014  22.284  34.520   7.320
 3874POPC   C1B52015  22.006  34.711   6.174
 3874POPC   C2B52016  22.138  34.959   6.543
 3874POPC   C3B52017  21.964  34.787   6.930
 3874POPC   C4B52018  21.769  34.812   7.310
 3875POPC   NC352019   6.861  24.710   5.399
 3875POPC   PO452020   6.451  24.323   5.082
 3875POPC   GL152021   6.540  24.344   5.601
 3875POPC   GL252022   6.845  24.420   5.810
 3875POPC   C1A52023   6.412  24.397   6.061
 3875POPC   D2A52024   6.559  24.379   6.501
 3875POPC   C3A52025   6.336  24.206   6.841
 3875POPC   C4A52026   6.263  24.304   7.278
 3875POPC   C1B52027   6.904  24.628   6.226
 3875POPC   C2B52028   6.900  24.710   6.706
 3875POPC   C3B52029   6.735  24.655   7.162
 3875POPC   C4B52030   6.979  24.835   7.557
 3876POPC   NC352031  24.907  22.883   5.137
 3876POPC   PO452032  24.260  22.998   5.384
 3876POPC   GL152033  24.267  22.782   5.779
 3876POPC   GL252034  24.596  22.869   5.822
 3876POPC   C1A52035  24.242  22.834   6.243
 3876POPC   D2A52036  24.332  23.030   6.661
 3876POPC   C3A52037  24.313  22.794   7.044
 3876POPC   C4A52038  24.400  23.038   7.422
 3876POPC   C1B52039  24.802  23.181   6.120
 3876POPC   C2B52040  24.819  23.112   6.543
 3876POPC   C3B52041  24.779  22.996   6.964
 3876POPC   C4B52042  24.772  22.717   7.304
 3877POPC   NC352043  19.926   8.544   5.457
 3877POPC   PO452044  19.815   9.223   5.521
 3877POPC   GL152045  20.015   9.130   5.924
 3877POPC   GL252046  20.035   8.764   5.917
 3877POPC   C1A52047  19.848   9.070   6.365
 3877POPC   D2A52048  19.479   9.075   6.652
 3877POPC   C3A52049  19.559   9.119   7.088
 3877POPC   C4A52050  19.956   9.295   7.196
 3877POPC   C1B52051  20.125   8.581   6.308
 3877POPC   C2B52052  20.007   8.640   6.707
 3877POPC   C3B52053  19.778   8.662   7.073
 3877POPC   C4B52054  19.455   8.595   7.374
 3878POPC   NC352055  12.072  41.692   5.382
 3878POPC   PO452056  12.179  40.985   5.563
 3878POPC   GL152057  12.112  41.347   5.863
 3878POPC   GL252058  12.190  41.708   5.877
 3878POPC   C1A52059  11.905  41.503   6.258
 3878POPC   D2A52060  11.853  41.325   6.648
 3878POPC   C3A52061  11.772  41.552   7.028
 3878POPC   C4A52062  11.847  41.382   7.432
 3878POPC   C1B52063  12.353  41.769   6.289
 3878POPC   C2B52064  12.270  41.663   6.710
 3878POPC   C3B52065  12.263  41.723   7.144
 3878POPC   C4B52066  12.312  41.544   7.575
 3879POPC   NC352067  10.755  38.037   5.607
 3879POPC   PO452068  10.970  37.427   5.457
 3879POPC   GL152069  10.628  37.552   5.819
 3879POPC   GL252070  10.335  37.808   5.908
 3879POPC   C1A52071  10.494  37.479   6.275
 3879POPC   D2A52072  10.644  37.670   6.704
 3879POPC   C3A52073  10.491  37.447   7.095
 3879POPC   C4A52074  10.150  37.495   7.390
 3879POPC   C1B52075  10.568  37.981   6.264
 3879POPC   C2B52076  10.732  38.209   6.587
 3879POPC   C3B52077  10.510  38.210   6.938
 3879POPC   C4B52078  10.444  37.937   7.287
 3880POPC   NC352079  37.536  43.962   5.603
 3880POPC   PO452080  38.026  43.693   5.488
 3880POPC   GL152081  37.938  43.770   5.881
 3880POPC   GL252082  37.962  43.449   5.979
 3880POPC   C1A52083  37.708  43.902   6.253
 3880POPC   D2A52084  37.451  44.018   6.591
 3880POPC   C3A52085  37.610  44.162   6.992
 3880POPC   C4A52086  37.612  44.115   7.416
 3880POPC   C1B52087  38.077  43.589   6.390
 3880POPC   C2B52088  37.906  43.810   6.762
 3880POPC   C3B52089  37.937  43.751   7.219
 3880POPC   C4B52090  38.028  43.876   7.686
 3881POPC   NC352091   3.389  14.088   5.499
 3881POPC   PO452092   3.631  14.698   5.451
 3881POPC   GL152093   3.414  14.525   5.772
 3881POPC   GL252094   3.061  14.673   5.708
 3881POPC   C1A52095   3.637  14.364   6.152
 3881POPC   D2A52096   3.914  14.410   6.520
 3881POPC   C3A52097   3.664  14.456   6.910
 3881POPC   C4A52098   3.530  14.289   7.307
 3881POPC   C1B52099   3.129  14.667   6.176
 3881POPC   C2B52100   3.306  14.438   6.531
 3881POPC   C3B52101   3.219  14.143   6.852
 3881POPC   C4B52102   3.030  14.295   7.215
 3882POPC   NC352103  41.776  10.276   5.413
 3882POPC   PO452104  41.246  10.880   5.364
 3882POPC   GL152105  41.417  10.571   5.647
 3882POPC   GL252106  41.715  10.655   5.833
 3882POPC   C1A52107  41.422  10.293   6.015
 3882POPC   D2A52108  41.382  10.248   6.463
 3882POPC   C3A52109  41.276  10.566   6.749
 3882POPC   C4A52110  41.361  10.411   7.163
 3882POPC   C1B52111  41.968  10.857   6.139
 3882POPC   C2B52112  41.929  10.696   6.542
 3882POPC   C3B52113  41.764  10.565   6.892
 3882POPC   C4B52114  41.848  10.559   7.292
 3883POPC   NC352115  43.578   8.514   5.579
 3883POPC   PO452116  43.717   7.915   5.291
 3883POPC   GL152117  43.934   8.112   5.666
 3883POPC   GL252118  44.063   8.466   5.759
 3883POPC   C1A52119  43.784   8.124   6.105
 3883POPC   D2A52120  43.617   8.159   6.527
 3883POPC   C3A52121  43.914   8.102   6.873
 3883POPC   C4A52122  43.940   8.092   7.316
 3883POPC   C1B52123  44.009   8.640   6.185
 3883POPC   C2B52124  43.942   8.572   6.644
 3883POPC   C3B52125  43.858   8.559   7.121
 3883POPC   C4B52126  44.117   8.532   7.518
 3884POPC   NC352127  13.230  33.806   5.139
 3884POPC   PO452128  13.840  34.006   5.379
 3884POPC   GL152129  13.576  33.724   5.665
 3884POPC   GL252130  13.799  33.527   5.903
 3884POPC   C1A52131  13.412  33.804   6.087
 3884POPC   D2A52132  13.502  34.130   6.371
 3884POPC   C3A52133  13.532  34.048   6.791
 3884POPC   C4A52134  13.636  33.918   7.181
 3884POPC   C1B52135  13.785  33.503   6.328
 3884POPC   C2B52136  13.399  33.515   6.535
 3884POPC   C3B52137  13.423  33.552   6.928
 3884POPC   C4B52138  13.825  33.441   7.156
 3885POPC   NC352139  36.153  17.999   5.389
 3885POPC   PO452140  36.528  18.488   5.482
 3885POPC   GL152141  36.250  18.307   5.806
 3885POPC   GL252142  35.890  18.317   5.762
 3885POPC   C1A52143  36.177  18.159   6.226
 3885POPC   D2A52144  36.232  17.975   6.619
 3885POPC   C3A52145  36.245  18.278   6.928
 3885POPC   C4A52146  36.442  18.226   7.288
 3885POPC   C1B52147  35.687  18.352   6.165
 3885POPC   C2B52148  35.860  18.366   6.581
 3885POPC   C3B52149  35.692  18.342   6.987
 3885POPC   C4B52150  35.932  18.173   7.341
 3886POPC   NC352151  30.151  35.769   5.572
 3886POPC   PO452152  29.738  36.247   5.267
 3886POPC   GL152153  29.830  36.305   5.745
 3886POPC   GL252154  29.541  36.246   5.969
 3886POPC   C1A52155  30.024  36.359   6.150
 3886POPC   D2A52156  29.810  36.460   6.557
 3886POPC   C3A52157  29.941  36.338   6.983
 3886POPC   C4A52158  29.704  36.309   7.386
 3886POPC   C1B52159  29.697  35.981   6.313
 3886POPC   C2B52160  29.758  35.926   6.751
 3886POPC   C3B52161  29.803  35.860   7.178
 3886POPC   C4B52162  29.990  35.506   7.379
 3887POPC   NC352163  15.055  22.367   5.201
 3887POPC   PO452164  15.561  22.110   5.550
 3887POPC   GL152165  15.273  22.331   5.815
 3887POPC   GL252166  14.985  22.120   5.822
 3887POPC   C1A52167  15.135  22.409   6.257
 3887POPC   D2A52168  15.083  22.184   6.660
 3887POPC   C3A52169  15.078  22.424   7.032
 3887POPC   C4A52170  15.369  22.462   7.377
 3887POPC   C1B52171  14.974  21.901   6.230
 3887POPC   C2B52172  14.819  21.759   6.630
 3887POPC   C3B52173  14.984  21.674   7.032
 3887POPC   C4B52174  15.145  22.001   7.284
 3888POPC   NC352175  10.877  11.876   5.596
 3888POPC   PO452176  10.215  11.785   5.489
 3888POPC   GL152177  10.421  12.016   5.816
 3888POPC   GL252178  10.416  12.368   5.764
 3888POPC   C1A52179  10.619  12.055   6.222
 3888POPC   D2A52180  10.712  12.315   6.589
 3888POPC   C3A52181  10.877  12.132   6.982
 3888POPC   C4A52182  10.733  11.913   7.341
 3888POPC   C1B52183  10.191  12.347   6.171
 3888POPC   C2B52184  10.189  12.298   6.621
 3888POPC   C3B52185  10.374  12.088   6.976
 3888POPC   C4B52186  10.336  11.642   7.099
 3889POPC   NC352187  14.534  11.621   5.446
 3889POPC   PO452188  14.187  11.144   5.439
 3889POPC   GL152189  14.386  11.267   5.814
 3889POPC   GL252190  14.219  11.575   5.868
 3889POPC   C1A52191  14.559  11.070   6.211
 3889POPC   D2A52192  14.679  11.245   6.611
 3889POPC   C3A52193  14.415  11.119   6.977
 3889POPC   C4A52194  14.143  11.416   7.226
 3889POPC   C1B52195  14.390  11.576   6.278
 3889POPC   C2B52196  14.233  11.540   6.705
 3889POPC   C3B52197  14.551  11.622   7.006
 3889POPC   C4B52198  14.860  11.324   7.088
 3890POPC   NC352199  34.625  14.906   5.334
 3890POPC   PO452200  34.380  14.336   5.191
 3890POPC   GL152201  34.546  14.364   5.642
 3890POPC   GL252202  34.775  14.652   5.752
 3890POPC   C1A52203  34.472  14.334   6.117
 3890POPC   D2A52204  34.670  14.264   6.558
 3890POPC   C3A52205  34.619  14.524   6.922
 3890POPC   C4A52206  34.434  14.438   7.344
 3890POPC   C1B52207  34.848  14.863   6.152
 3890POPC   C2B52208  34.757  14.909   6.575
 3890POPC   C3B52209  35.014  14.864   6.954
 3890POPC   C4B52210  34.865  14.730   7.360
 3891POPC   NC352211  34.447  42.524   5.148
 3891POPC   PO452212  34.396  41.957   5.635
 3891POPC   GL152213  34.740  42.118   5.897
 3891POPC   GL252214  34.476  42.213   6.109
 3891POPC   C1A52215  34.962  42.191   6.290
 3891POPC   D2A52216  34.742  42.287   6.676
 3891POPC   C3A52217  34.934  42.390   7.068
 3891POPC   C4A52218  34.818  42.344   7.512
 3891POPC   C1B52219  34.169  41.927   6.269
 3891POPC   C2B52220  33.903  42.017   6.605
 3891POPC   C3B52221  33.890  41.999   7.027
 3891POPC   C4B52222  34.275  42.208   7.102
 3892POPC   NC352223  18.806  12.021   5.195
 3892POPC   PO452224  18.142  11.995   5.361
 3892POPC   GL152225  18.249  12.074   5.834
 3892POPC   GL252226  18.010  12.283   6.002
 3892POPC   C1A52227  18.437  11.925   6.220
 3892POPC   D2A52228  18.329  12.071   6.610
 3892POPC   C3A52229  18.524  11.866   6.917
 3892POPC   C4A52230  18.377  12.062   7.271
 3892POPC   C1B52231  18.398  12.439   6.236
 3892POPC   C2B52232  18.648  12.511   6.616
 3892POPC   C3B52233  18.618  12.465   7.090
 3892POPC   C4B52234  18.680  12.335   7.566
 3893POPC   NC352235  16.573  21.628   5.480
 3893POPC   PO452236  16.861  21.083   5.599
 3893POPC   GL152237  16.780  21.401   5.908
 3893POPC   GL252238  16.442  21.324   5.872
 3893POPC   C1A52239  16.658  21.325   6.354
 3893POPC   D2A52240  16.864  21.077   6.659
 3893POPC   C3A52241  16.709  21.104   7.062
 3893POPC   C4A52242  16.848  21.406   7.361
 3893POPC   C1B52243  16.387  21.705   6.108
 3893POPC   C2B52244  16.382  21.748   6.540
 3893POPC   C3B52245  16.532  21.598   6.951
 3893POPC   C4B52246  16.361  21.419   7.337
 3894POPC   NC352247  10.944  20.913   5.577
 3894POPC   PO452248  11.507  20.633   5.588
 3894POPC   GL152249  11.317  20.742   5.929
 3894POPC   GL252250  11.005  20.595   5.968
 3894POPC   C1A52251  11.404  20.726   6.363
 3894POPC   D2A52252  11.282  20.946   6.733
 3894POPC   C3A52253  11.382  20.653   7.027
 3894POPC   C4A52254  11.512  20.368   7.347
 3894POPC   C1B52255  10.985  20.999   6.221
 3894POPC   C2B52256  10.772  20.976   6.591
 3894POPC   C3B52257  10.817  20.872   7.006
 3894POPC   C4B52258  10.972  20.632   7.332
 3895POPC   NC352259  22.211  43.937   5.339
 3895POPC   PO452260  21.728  44.325   5.549
 3895POPC   GL152261  21.942  43.944   5.793
 3895POPC   GL252262  22.328  43.949   5.843
 3895POPC   C1A52263  22.020  43.778   6.256
 3895POPC   D2A52264  21.834  43.628   6.639
 3895POPC   C3A52265  21.905  43.917   6.965
 3895POPC   C4A52266  22.118  43.956   7.336
 3895POPC   C1B52267  22.428  43.576   6.089
 3895POPC   C2B52268  22.298  43.399   6.515
 3895POPC   C3B52269  22.296  43.583   6.925
 3895POPC   C4B52270  22.568  43.673   7.304
 3896POPC   NC352271  43.270   9.055   5.417
 3896POPC   PO452272  42.558   9.235   5.369
 3896POPC   GL152273  42.851   9.124   5.708
 3896POPC   GL252274  42.994   9.411   5.732
 3896POPC   C1A52275  42.893   8.887   6.113
 3896POPC   D2A52276  43.020   8.684   6.522
 3896POPC   C3A52277  43.039   8.849   6.955
 3896POPC   C4A52278  43.250   8.751   7.347
 3896POPC   C1B52279  43.132   9.352   6.158
 3896POPC   C2B52280  42.985   9.189   6.551
 3896POPC   C3B52281  43.004   9.353   6.969
 3896POPC   C4B52282  43.137   9.248   7.415
 3897POPC   NC352283  19.653  39.246   5.313
 3897POPC   PO452284  19.033  39.411   5.200
 3897POPC   GL152285  19.230  39.286   5.615
 3897POPC   GL252286  19.390  38.934   5.711
 3897POPC   C1A52287  19.120  39.225   6.060
 3897POPC   D2A52288  19.156  39.224   6.519
 3897POPC   C3A52289  18.878  39.457   6.823
 3897POPC   C4A52290  18.746  39.447   7.269
 3897POPC   C1B52291  19.550  38.949   6.181
 3897POPC   C2B52292  19.466  38.849   6.659
 3897POPC   C3B52293  19.182  39.047   7.010
 3897POPC   C4B52294  19.238  39.310   7.396
 3898POPC   NC352295  22.357   3.757   5.364
 3898POPC   PO452296  21.777   3.438   5.680
 3898POPC   GL152297  22.081   3.646   5.856
 3898POPC   GL252298  22.421   3.544   5.815
 3898POPC   C1A52299  22.013   3.742   6.288
 3898POPC   D2A52300  21.834   3.908   6.660
 3898POPC   C3A52301  22.113   3.757   6.998
 3898POPC   C4A52302  21.984   3.427   7.277
 3898POPC   C1B52303  22.357   3.363   6.216
 3898POPC   C2B52304  22.361   3.493   6.648
 3898POPC   C3B52305  22.459   3.331   7.074
 3898POPC   C4B52306  22.426   3.266   7.525
 3899POPC   NC352307  10.010  32.320   5.279
 3899POPC   PO452308  10.595  32.055   5.328
 3899POPC   GL152309  10.580  32.054   5.763
 3899POPC   GL252310  10.217  32.154   5.781
 3899POPC   C1A52311  10.460  31.938   6.186
 3899POPC   D2A52312  10.365  31.975   6.609
 3899POPC   C3A52313  10.724  31.991   6.865
 3899POPC   C4A52314  10.525  32.013   7.256
 3899POPC   C1B52315  10.447  32.452   6.057
 3899POPC   C2B52316  10.491  32.490   6.496
 3899POPC   C3B52317  10.423  32.396   6.932
 3899POPC   C4B52318  10.181  32.457   7.285
 3900POPC   NC352319  17.916  12.369   5.486
 3900POPC   PO452320  17.342  12.000   5.389
 3900POPC   GL152321  17.608  12.037   5.744
 3900POPC   GL252322  17.851  11.800   5.737
 3900POPC   C1A52323  17.570  12.077   6.191
 3900POPC   D2A52324  17.354  11.915   6.556
 3900POPC   C3A52325  17.555  12.113   6.928
 3900POPC   C4A52326  17.463  12.269   7.332
 3900POPC   C1B52327  17.973  11.737   6.168
 3900POPC   C2B52328  17.856  11.864   6.580
 3900POPC   C3B52329  18.000  11.836   6.997
 3900POPC   C4B52330  17.901  12.064   7.385
 3901POPC   NC352331  44.286  29.026   5.377
 3901POPC   PO452332  43.613  28.872   5.291
 3901POPC   GL152333  43.710  29.123   5.661
 3901POPC   GL252334  44.031  29.304   5.720
 3901POPC   C1A52335  43.809  29.005   6.086
 3901POPC   D2A52336  44.101  28.836   6.407
 3901POPC   C3A52337  44.024  28.914   6.868
 3901POPC   C4A52338  43.655  28.920   7.152
 3901POPC   C1B52339  44.231  29.265   6.127
 3901POPC   C2B52340  44.271  29.286   6.580
 3901POPC   C3B52341  44.023  29.442   6.893
 3901POPC   C4B52342  43.915  29.334   7.306
 3902POPC   NC352343   0.670  20.086   5.348
 3902POPC   PO452344   0.328  19.532   5.393
 3902POPC   GL152345   0.385  19.845   5.730
 3902POPC   GL252346   0.681  19.715   5.866
 3902POPC   C1A52347   0.307  20.035   6.166
 3902POPC   D2A52348   0.428  19.935   6.626
 3902POPC   C3A52349   0.127  20.000   6.982
 3902POPC   C4A52350   0.041  19.838   7.427
 3902POPC   C1B52351   0.833  19.606   6.310
 3902POPC   C2B52352   0.704  19.478   6.745
 3902POPC   C3B52353   0.454  19.633   7.118
 3902POPC   C4B52354   0.509  20.032   7.369
 3903POPC   NC352355  13.402  36.188   5.514
 3903POPC   PO452356  14.017  36.322   5.512
 3903POPC   GL152357  13.815  35.954   5.751
 3903POPC   GL252358  13.493  35.734   5.730
 3903POPC   C1A52359  13.926  35.952   6.167
 3903POPC   D2A52360  14.015  36.119   6.535
 3903POPC   C3A52361  13.870  36.044   6.909
 3903POPC   C4A52362  13.867  36.362   7.195
 3903POPC   C1B52363  13.410  35.940   6.128
 3903POPC   C2B52364  13.468  36.241   6.445
 3903POPC   C3B52365  13.401  36.263   6.892
 3903POPC   C4B52366  13.408  35.946   7.231
 3904POPC   NC352367  19.618  12.666   5.289
 3904POPC   PO452368  20.228  12.705   5.617
 3904POPC   GL152369  19.846  12.702   5.855
 3904POPC   GL252370  19.622  12.944   5.780
 3904POPC   C1A52371  19.789  12.834   6.292
 3904POPC   D2A52372  19.846  12.691   6.715
 3904POPC   C3A52373  20.070  12.950   7.064
 3904POPC   C4A52374  20.194  13.063   7.517
 3904POPC   C1B52375  19.340  13.029   6.136
 3904POPC   C2B52376  19.355  12.923   6.596
 3904POPC   C3B52377  19.567  13.018   6.994
 3904POPC   C4B52378  19.688  12.959   7.423
 3905POPC   NC352379   1.441  39.228   5.308
 3905POPC   PO452380   0.797  39.303   5.320
 3905POPC   GL152381   1.008  39.261   5.728
 3905POPC   GL252382   1.274  39.459   5.784
 3905POPC   C1A52383   1.243  38.960   6.011
 3905POPC   D2A52384   1.484  39.035   6.364
 3905POPC   C3A52385   1.227  39.012   6.723
 3905POPC   C4A52386   1.300  38.931   7.136
 3905POPC   C1B52387   1.100  39.405   6.229
 3905POPC   C2B52388   0.914  39.693   6.523
 3905POPC   C3B52389   0.848  39.636   6.953
 3905POPC   C4B52390   1.161  39.444   7.176
 3906POPC   NC352391  14.005  37.711   5.350
 3906POPC   PO452392  13.394  37.569   5.440
 3906POPC   GL152393  13.685  37.596   5.743
 3906POPC   GL252394  13.754  37.288   5.903
 3906POPC   C1A52395  13.755  37.769   6.160
 3906POPC   D2A52396  13.748  37.643   6.595
 3906POPC   C3A52397  13.513  37.966   6.822
 3906POPC   C4A52398  13.548  38.026   7.245
 3906POPC   C1B52399  13.373  37.420   6.128
 3906POPC   C2B52400  13.234  37.522   6.552
 3906POPC   C3B52401  13.404  37.488   6.958
 3906POPC   C4B52402  13.387  37.331   7.338
 3907POPC   NC352403   2.120  11.957   5.317
 3907POPC   PO452404   1.763  12.490   5.071
 3907POPC   GL152405   1.893  12.282   5.598
 3907POPC   GL252406   2.233  12.110   5.775
 3907POPC   C1A52407   1.804  12.130   6.017
 3907POPC   D2A52408   1.804  11.984   6.444
 3907POPC   C3A52409   1.683  12.154   6.811
 3907POPC   C4A52410   1.687  11.951   7.209
 3907POPC   C1B52411   2.265  12.140   6.240
 3907POPC   C2B52412   2.161  12.291   6.652
 3907POPC   C3B52413   2.129  12.194   7.077
 3907POPC   C4B52414   2.341  11.806   7.219
 3908POPC   NC352415  44.410   7.089   5.090
 3908POPC   PO452416  44.818   6.707   5.553
 3908POPC   GL152417  44.714   6.603   5.912
 3908POPC   GL252418  44.876   6.293   5.896
 3908POPC   C1A52419  44.535   6.797   6.246
 3908POPC   D2A52420  44.627   6.988   6.625
 3908POPC   C3A52421  44.442   6.730   6.930
 3908POPC   C4A52422  44.507   6.736   7.352
 3908POPC   C1B52423   0.004   6.457   6.325
 3908POPC   C2B52424  44.965   6.584   6.775
 3908POPC   C3B52425  44.769   6.334   7.117
 3908POPC   C4B52426  44.838   6.100   7.519
 3909POPC   NC352427  38.130  15.621   5.411
 3909POPC   PO452428  38.236  16.251   5.532
 3909POPC   GL152429  38.134  16.083   5.961
 3909POPC   GL252430  38.150  15.720   5.907
 3909POPC   C1A52431  38.007  16.174   6.434
 3909POPC   D2A52432  37.982  16.168   6.914
 3909POPC   C3A52433  38.318  16.232   7.246
 3909POPC   C4A52434  38.418  16.291   7.696
 3909POPC   C1B52435  38.202  15.722   6.330
 3909POPC   C2B52436  38.047  15.673   6.732
 3909POPC   C3B52437  38.190  15.734   7.159
 3909POPC   C4B52438  38.198  15.840   7.575
 3910POPC   NC352439   2.105  24.155   5.394
 3910POPC   PO452440   2.021  24.796   5.423
 3910POPC   GL152441   1.984  24.529   5.789
 3910POPC   GL252442   1.679  24.402   5.903
 3910POPC   C1A52443   2.020  24.656   6.235
 3910POPC   D2A52444   1.771  24.912   6.540
 3910POPC   C3A52445   1.923  24.860   6.965
 3910POPC   C4A52446   2.197  24.536   7.162
 3910POPC   C1B52447   1.547  24.501   6.332
 3910POPC   C2B52448   1.653  24.452   6.779
 3910POPC   C3B52449   1.708  24.438   7.214
 3910POPC   C4B52450   1.828  24.827   7.471
 3911POPC   NC352451  25.559  35.287   5.314
 3911POPC   PO452452  25.099  35.753   5.463
 3911POPC   GL152453  25.192  35.397   5.703
 3911POPC   GL252454  25.517  35.548   5.778
 3911POPC   C1A52455  25.191  35.160   6.103
 3911POPC   D2A52456  25.358  35.306   6.504
 3911POPC   C3A52457  25.333  35.438   6.928
 3911POPC   C4A52458  25.223  35.092   7.189
 3911POPC   C1B52459  25.700  35.332   6.122
 3911POPC   C2B52460  25.867  35.253   6.547
 3911POPC   C3B52461  25.692  35.070   6.926
 3911POPC   C4B52462  25.684  35.292   7.330
 3912POPC   NC352463  26.449  41.066   5.493
 3912POPC   PO452464  25.914  40.698   5.389
 3912POPC   GL152465  26.028  40.826   5.797
 3912POPC   GL252466  26.046  40.492   5.969
 3912POPC   C1A52467  25.759  40.860   6.163
 3912POPC   D2A52468  25.752  40.539   6.489
 3912POPC   C3A52469  25.864  40.655   6.912
 3912POPC   C4A52470  25.864  40.945   7.278
 3912POPC   C1B52471  26.259  40.709   6.269
 3912POPC   C2B52472  26.473  40.798   6.630
 3912POPC   C3B52473  26.318  40.884   7.023
 3912POPC   C4B52474  26.217  40.562   7.279
 3913POPC   NC352475  11.589  14.074   5.551
 3913POPC   PO452476  11.417  14.750   5.549
 3913POPC   GL152477  11.422  14.598   5.935
 3913POPC   GL252478  11.355  14.244   5.972
 3913POPC   C1A52479  11.329  14.621   6.356
 3913POPC   D2A52480  11.407  14.264   6.623
 3913POPC   C3A52481  11.579  14.375   7.025
 3913POPC   C4A52482  11.423  14.582   7.385
 3913POPC   C1B52483  11.098  13.990   6.250
 3913POPC   C2B52484  10.911  13.861   6.646
 3913POPC   C3B52485  11.141  13.998   6.991
 3913POPC   C4B52486  11.023  14.313   7.272
 3914POPC   NC352487  23.413  11.626   5.576
 3914POPC   PO452488  23.980  11.363   5.430
 3914POPC   GL152489  24.111  11.207   5.844
 3914POPC   GL252490  23.761  11.178   5.975
 3914POPC   C1A52491  24.139  11.179   6.321
 3914POPC   D2A52492  23.745  11.271   6.605
 3914POPC   C3A52493  23.634  11.106   7.013
 3914POPC   C4A52494  23.718  11.137   7.456
 3914POPC   C1B52495  23.485  11.474   6.209
 3914POPC   C2B52496  23.423  11.731   6.544
 3914POPC   C3B52497  23.376  11.783   6.966
 3914POPC   C4B52498  23.420  11.502   7.273
 3915POPC   NC352499  22.386   7.937   5.119
 3915POPC   PO452500  22.012   8.215   5.632
 3915POPC   GL152501  22.247   8.234   5.956
 3915POPC   GL252502  22.398   8.529   5.902
 3915POPC   C1A52503  22.099   8.089   6.357
 3915POPC   D2A52504  22.168   7.908   6.747
 3915POPC   C3A52505  21.949   7.960   7.150
 3915POPC   C4A52506  22.142   8.011   7.556
 3915POPC   C1B52507  22.179   8.601   6.311
 3915POPC   C2B52508  22.106   8.464   6.742
 3915POPC   C3B52509  22.059   8.564   7.185
 3915POPC   C4B52510  22.347   8.474   7.543
 3916POPC   NC352511  14.197  21.915   5.447
 3916POPC   PO452512  14.625  22.393   5.340
 3916POPC   GL152513  14.480  22.260   5.763
 3916POPC   GL252514  14.120  22.300   5.783
 3916POPC   C1A52515  14.624  22.276   6.203
 3916POPC   D2A52516  14.639  22.418   6.619
 3916POPC   C3A52517  14.627  22.133   6.947
 3916POPC   C4A52518  14.617  22.380   7.315
 3916POPC   C1B52519  14.186  22.040   6.151
 3916POPC   C2B52520  14.341  21.925   6.535
 3916POPC   C3B52521  14.100  21.974   6.870
 3916POPC   C4B52522  14.211  22.033   7.250
 3917POPC   NC352523  34.608  38.045   5.398
 3917POPC   PO452524  34.291  37.506   5.149
 3917POPC   GL152525  34.421  37.594   5.622
 3917POPC   GL252526  34.217  37.839   5.837
 3917POPC   C1A52527  34.686  37.560   6.012
 3917POPC   D2A52528  34.845  37.693   6.425
 3917POPC   C3A52529  34.869  37.579   6.845
 3917POPC   C4A52530  34.729  37.498   7.245
 3917POPC   C1B52531  34.233  37.640   6.280
 3917POPC   C2B52532  34.347  37.625   6.737
 3917POPC   C3B52533  34.216  37.568   7.170
 3917POPC   C4B52534  34.354  37.380   7.566
 3918POPC   NC352535  23.247   8.292   5.484
 3918POPC   PO452536  22.552   8.268   5.418
 3918POPC   GL152537  22.793   8.177   5.809
 3918POPC   GL252538  22.681   7.913   6.009
 3918POPC   C1A52539  23.097   8.185   6.192
 3918POPC   D2A52540  23.329   8.062   6.601
 3918POPC   C3A52541  23.056   8.004   6.983
 3918POPC   C4A52542  22.890   8.368   7.158
 3918POPC   C1B52543  22.595   8.205   6.313
 3918POPC   C2B52544  22.595   8.203   6.743
 3918POPC   C3B52545  22.411   8.177   7.119
 3918POPC   C4B52546  22.632   7.961   7.389
 3919POPC   NC352547   6.436  34.802   5.321
 3919POPC   PO452548   6.910  34.316   5.496
 3919POPC   GL152549   6.739  34.626   5.750
 3919POPC   GL252550   6.434  34.529   5.769
 3919POPC   C1A52551   6.773  34.791   6.162
 3919POPC   D2A52552   6.561  34.806   6.559
 3919POPC   C3A52553   6.909  34.804   6.878
 3919POPC   C4A52554   6.888  34.756   7.322
 3919POPC   C1B52555   6.426  34.416   6.168
 3919POPC   C2B52556   6.414  34.293   6.563
 3919POPC   C3B52557   6.539  34.445   6.929
 3919POPC   C4B52558   6.583  34.345   7.336
 3920POPC   NC352559  32.782  18.198   5.709
 3920POPC   PO452560  33.449  17.919   5.565
 3920POPC   GL152561  33.309  18.122   5.911
 3920POPC   GL252562  33.080  17.873   5.970
 3920POPC   C1A52563  33.188  18.313   6.316
 3920POPC   D2A52564  32.851  18.250   6.647
 3920POPC   C3A52565  32.841  18.465   7.075
 3920POPC   C4A52566  32.639  18.714   7.420
 3920POPC   C1B52567  33.085  17.817   6.413
 3920POPC   C2B52568  33.200  17.895   6.827
 3920POPC   C3B52569  33.024  17.940   7.226
 3920POPC   C4B52570  33.169  17.843   7.638
 3921POPC   NC352571   0.610  15.298   5.075
 3921POPC   PO452572   0.146  15.238   5.518
 3921POPC   GL152573   0.376  15.315   5.930
 3921POPC   GL252574   0.736  15.345   5.800
 3921POPC   C1A52575   0.336  15.069   6.334
 3921POPC   D2A52576   0.281  14.836   6.751
 3921POPC   C3A52577   0.227  15.144   7.131
 3921POPC   C4A52578   0.392  15.101   7.572
 3921POPC   C1B52579   0.835  15.113   6.189
 3921POPC   C2B52580   0.758  14.941   6.607
 3921POPC   C3B52581   0.684  15.203   6.961
 3921POPC   C4B52582   0.616  15.492   7.322
 3922POPC   NC352583  26.581  25.863   5.073
 3922POPC   PO452584  26.039  26.187   5.399
 3922POPC   GL152585  26.037  26.021   5.792
 3922POPC   GL252586  25.879  26.318   5.880
 3922POPC   C1A52587  26.002  25.934   6.248
 3922POPC   D2A52588  25.901  25.977   6.682
 3922POPC   C3A52589  26.242  25.936   6.948
 3922POPC   C4A52590  26.444  25.796   7.292
 3922POPC   C1B52591  26.295  26.335   6.138
 3922POPC   C2B52592  26.250  26.443   6.589
 3922POPC   C3B52593  26.351  26.424   7.018
 3922POPC   C4B52594  26.128  26.260   7.375
 3923POPC   NC352595  39.630  29.444   5.121
 3923POPC   PO452596  40.092  29.068   5.453
 3923POPC   GL152597  40.120  29.379   5.820
 3923POPC   GL252598  40.455  29.350   5.867
 3923POPC   C1A52599  39.852  29.426   6.236
 3923POPC   D2A52600  39.675  29.188   6.604
 3923POPC   C3A52601  39.839  29.088   7.039
 3923POPC   C4A52602  39.654  29.002   7.461
 3923POPC   C1B52603  40.252  29.078   6.204
 3923POPC   C2B52604  40.186  29.199   6.660
 3923POPC   C3B52605  40.349  29.264   7.095
 3923POPC   C4B52606  40.237  29.133   7.551
 3924POPC   NC352607  42.802  22.224   5.483
 3924POPC   PO452608  43.449  22.169   5.419
 3924POPC   GL152609  43.236  22.005   5.791
 3924POPC   GL252610  43.375  21.684   5.843
 3924POPC   C1A52611  43.368  21.982   6.256
 3924POPC   D2A52612  43.446  21.959   6.714
 3924POPC   C3A52613  43.171  22.198   7.016
 3924POPC   C4A52614  43.271  22.475   7.369
 3924POPC   C1B52615  43.024  21.610   6.119
 3924POPC   C2B52616  43.022  21.692   6.549
 3924POPC   C3B52617  43.077  21.691   6.981
 3924POPC   C4B52618  42.804  21.791   7.287
 3925POPC   NC352619  13.010   1.397   5.524
 3925POPC   PO452620  12.529   0.999   5.194
 3925POPC   GL152621  12.544   0.998   5.678
 3925POPC   GL252622  12.880   1.065   5.904
 3925POPC   C1A52623  12.436   1.070   6.138
 3925POPC   D2A52624  12.754   0.943   6.446
 3925POPC   C3A52625  12.767   1.102   6.857
 3925POPC   C4A52626  12.640   1.146   7.273
 3925POPC   C1B52627  12.950   1.392   6.276
 3925POPC   C2B52628  13.158   1.484   6.711
 3925POPC   C3B52629  13.130   1.325   7.161
 3925POPC   C4B52630  13.049   1.177   7.572
 3926POPC   NC352631  14.062  15.288   5.196
 3926POPC   PO452632  13.429  15.407   5.114
 3926POPC   GL152633  13.547  15.182   5.526
 3926POPC   GL252634  13.884  15.224   5.689
 3926POPC   C1A52635  13.450  15.265   5.977
 3926POPC   D2A52636  13.477  15.379   6.417
 3926POPC   C3A52637  13.211  15.254   6.766
 3926POPC   C4A52638  13.361  15.326   7.192
 3926POPC   C1B52639  13.965  15.366   6.108
 3926POPC   C2B52640  13.987  15.468   6.545
 3926POPC   C3B52641  13.808  15.517   6.957
 3926POPC   C4B52642  13.868  15.272   7.338
 3927POPC   NC352643  23.121  40.901   5.220
 3927POPC   PO452644  22.716  40.467   5.336
 3927POPC   GL152645  22.931  40.625   5.665
 3927POPC   GL252646  22.864  40.329   5.841
 3927POPC   C1A52647  22.877  40.770   6.107
 3927POPC   D2A52648  23.007  41.011   6.484
 3927POPC   C3A52649  22.885  40.933   6.918
 3927POPC   C4A52650  23.069  40.979   7.329
 3927POPC   C1B52651  23.044  40.298   6.243
 3927POPC   C2B52652  23.013  40.511   6.637
 3927POPC   C3B52653  22.861  40.438   7.073
 3927POPC   C4B52654  22.544  40.738   7.269
 3928POPC   NC352655  38.177  39.342   5.445
 3928POPC   PO452656  38.769  38.889   5.376
 3928POPC   GL152657  38.672  39.194   5.758
 3928POPC   GL252658  38.336  39.354   5.913
 3928POPC   C1A52659  38.617  39.087   6.222
 3928POPC   D2A52660  38.327  39.296   6.501
 3928POPC   C3A52661  38.415  39.228   6.933
 3928POPC   C4A52662  38.239  39.465   7.251
 3928POPC   C1B52663  38.609  39.604   6.189
 3928POPC   C2B52664  38.594  39.750   6.629
 3928POPC   C3B52665  38.681  39.652   7.084
 3928POPC   C4B52666  38.699  39.295   7.403
 3929POPC   NC352667  35.297  26.947   5.424
 3929POPC   PO452668  35.221  26.342   5.486
 3929POPC   GL152669  35.276  26.579   5.800
 3929POPC   GL252670  35.586  26.663   5.755
 3929POPC   C1A52671  35.073  26.648   6.167
 3929POPC   D2A52672  34.843  26.786   6.522
 3929POPC   C3A52673  35.072  26.803   6.902
 3929POPC   C4A52674  35.153  27.035   7.219
 3929POPC   C1B52675  35.634  26.598   6.168
 3929POPC   C2B52676  35.758  26.707   6.532
 3929POPC   C3B52677  35.631  26.769   6.919
 3929POPC   C4B52678  35.879  26.713   7.249
 3930POPC   NC352679  15.569  43.980   5.448
 3930POPC   PO452680  14.979  44.105   5.478
 3930POPC   GL152681  15.235  44.113   5.839
 3930POPC   GL252682  15.406  43.767   5.875
 3930POPC   C1A52683  15.162  44.003   6.265
 3930POPC   D2A52684  15.341  44.016   6.659
 3930POPC   C3A52685  15.153  43.763   6.942
 3930POPC   C4A52686  14.939  43.864   7.347
 3930POPC   C1B52687  15.591  43.696   6.286
 3930POPC   C2B52688  15.704  43.574   6.703
 3930POPC   C3B52689  15.507  43.429   7.057
 3930POPC   C4B52690  15.411  43.680   7.434
 3931POPC   NC352691   7.631  39.359   5.020
 3931POPC   PO452692   7.185  38.966   5.359
 3931POPC   GL152693   7.361  38.928   5.769
 3931POPC   GL252694   7.132  38.662   5.801
 3931POPC   C1A52695   7.483  39.116   6.189
 3931POPC   D2A52696   7.342  39.426   6.512
 3931POPC   C3A52697   7.543  39.429   6.920
 3931POPC   C4A52698   7.356  39.436   7.318
 3931POPC   C1B52699   7.006  38.894   6.144
 3931POPC   C2B52700   7.128  38.939   6.570
 3931POPC   C3B52701   7.080  39.151   6.949
 3931POPC   C4B52702   7.095  39.002   7.351
 3932POPC   NC352703  17.376  34.926   5.428
 3932POPC   PO452704  17.374  35.546   5.203
 3932POPC   GL152705  17.466  35.508   5.681
 3932POPC   GL252706  17.787  35.726   5.801
 3932POPC   C1A52707  17.590  35.337   6.106
 3932POPC   D2A52708  17.658  35.134   6.523
 3932POPC   C3A52709  17.349  35.233   6.838
 3932POPC   C4A52710  17.469  35.342   7.244
 3932POPC   C1B52711  17.794  35.792   6.252
 3932POPC   C2B52712  17.614  35.647   6.649
 3932POPC   C3B52713  17.761  35.778   7.079
 3932POPC   C4B52714  17.907  35.639   7.490
 3933POPC   NC352715  26.168  40.322   5.503
 3933POPC   PO452716  25.713  39.902   5.615
 3933POPC   GL152717  26.010  39.986   5.930
 3933POPC   GL252718  26.360  39.935   5.833
 3933POPC   C1A52719  25.915  40.012   6.388
 3933POPC   D2A52720  25.812  39.640   6.680
 3933POPC   C3A52721  25.790  39.799   7.093
 3933POPC   C4A52722  25.733  40.236   7.234
 3933POPC   C1B52723  26.395  40.180   6.224
 3933POPC   C2B52724  26.282  40.305   6.645
 3933POPC   C3B52725  26.237  40.087   7.048
 3933POPC   C4B52726  26.144  40.110   7.505
 3934POPC   NC352727   3.956  20.100   5.476
 3934POPC   PO452728   3.357  20.347   5.581
 3934POPC   GL152729   3.521  20.057   5.873
 3934POPC   GL252730   3.756  19.810   5.825
 3934POPC   C1A52731   3.474  19.865   6.248
 3934POPC   D2A52732   3.549  20.037   6.601
 3934POPC   C3A52733   3.396  19.766   6.857
 3934POPC   C4A52734   3.536  19.650   7.185
 3934POPC   C1B52735   3.890  19.558   6.143
 3934POPC   C2B52736   3.776  19.540   6.556
 3934POPC   C3B52737   3.931  19.453   6.950
 3934POPC   C4B52738   3.910  19.430   7.415
 3935POPC   NC352739  40.536  38.194   5.388
 3935POPC   PO452740  40.357  38.763   5.626
 3935POPC   GL152741  40.583  38.663   6.004
 3935POPC   GL252742  40.767  38.402   5.817
 3935POPC   C1A52743  40.416  38.581   6.463
 3935POPC   D2A52744  40.692  38.512   6.845
 3935POPC   C3A52745  40.689  38.666   7.275
 3935POPC   C4A52746  40.923  38.825   7.648
 3935POPC   C1B52747  40.605  38.175   6.144
 3935POPC   C2B52748  40.617  38.101   6.546
 3935POPC   C3B52749  40.728  38.001   6.940
 3935POPC   C4B52750  40.516  38.194   7.253
 3936POPC   NC352751  17.988  40.965   5.386
 3936POPC   PO452752  18.605  40.901   5.407
 3936POPC   GL152753  18.315  40.970   5.773
 3936POPC   GL252754  18.163  40.630   5.784
 3936POPC   C1A52755  18.032  40.987   6.140
 3936POPC   D2A52756  18.193  40.931   6.553
 3936POPC   C3A52757  18.117  40.935   6.989
 3936POPC   C4A52758  18.503  40.902   7.234
 3936POPC   C1B52759  18.431  40.633   6.181
 3936POPC   C2B52760  18.559  40.527   6.634
 3936POPC   C3B52761  18.427  40.417   7.064
 3936POPC   C4B52762  18.088  40.582   7.366
 3937POPC   NC352763  19.737   3.556   5.445
 3937POPC   PO452764  20.337   3.386   5.446
 3937POPC   GL152765  20.071   3.391   5.857
 3937POPC   GL252766  19.724   3.285   5.895
 3937POPC   C1A52767  19.921   3.599   6.289
 3937POPC   D2A52768  19.951   3.871   6.694
 3937POPC   C3A52769  19.806   3.655   7.076
 3937POPC   C4A52770  19.968   3.266   7.119
 3937POPC   C1B52771  19.502   3.288   6.285
 3937POPC   C2B52772  19.502   3.433   6.722
 3937POPC   C3B52773  19.422   3.253   7.138
 3937POPC   C4B52774  19.430   3.367   7.575
 3938POPC   NC352775  16.589  40.651   5.475
 3938POPC   PO452776  17.179  40.991   5.591
 3938POPC   GL152777  17.139  40.754   5.940
 3938POPC   GL252778  16.855  40.547   5.884
 3938POPC   C1A52779  16.982  40.662   6.353
 3938POPC   D2A52780  16.591  40.668   6.565
 3938POPC   C3A52781  16.693  40.893   6.920
 3938POPC   C4A52782  16.846  40.731   7.302
 3938POPC   C1B52783  16.630  40.320   6.181
 3938POPC   C2B52784  16.787  40.194   6.579
 3938POPC   C3B52785  16.874  40.391   6.931
 3938POPC   C4B52786  16.601  40.296   7.236
 3939POPC   NC352787  13.741  20.036   5.573
 3939POPC   PO452788  13.417  19.435   5.583
 3939POPC   GL152789  13.399  19.772   5.879
 3939POPC   GL252790  13.297  20.157   5.832
 3939POPC   C1A52791  13.611  19.699   6.275
 3939POPC   D2A52792  13.596  19.492   6.676
 3939POPC   C3A52793  13.617  19.742   7.057
 3939POPC   C4A52794  13.612  19.567   7.477
 3939POPC   C1B52795  13.508  20.194   6.219
 3939POPC   C2B52796  13.456  20.023   6.638
 3939POPC   C3B52797  13.471  20.241   7.012
 3939POPC   C4B52798  13.309  20.207   7.393
 3940POPC   NC352799   5.216  31.840   5.389
 3940POPC   PO452800   4.803  31.262   5.416
 3940POPC   GL152801   4.990  31.321   5.822
 3940POPC   GL252802   5.361  31.291   5.786
 3940POPC   C1A52803   4.820  31.522   6.240
 3940POPC   D2A52804   4.608  31.695   6.618
 3940POPC   C3A52805   4.724  31.512   7.019
 3940POPC   C4A52806   5.088  31.629   7.226
 3940POPC   C1B52807   5.293  31.290   6.257
 3940POPC   C2B52808   5.141  31.470   6.662
 3940POPC   C3B52809   5.319  31.267   6.999
 3940POPC   C4B52810   5.631  31.449   7.273
 3941POPC   NC352811   0.730   0.009   5.546
 3941POPC   PO452812   1.180   0.673   5.419
 3941POPC   GL152813   1.386   0.523   5.780
 3941POPC   GL252814   1.210   0.220   5.792
 3941POPC   C1A52815   1.440   0.442   6.205
 3941POPC   D2A52816   1.210   0.287   6.532
 3941POPC   C3A52817   1.152   0.448   6.905
 3941POPC   C4A52818   1.495   0.501   7.134
 3941POPC   C1B52819   1.296  44.961   6.151
 3941POPC   C2B52820   1.518  44.845   6.514
 3941POPC   C3B52821   1.464   0.001   6.933
 3941POPC   C4B52822   1.185   0.105   7.276
 3942POPC   NC352823  27.415  11.988   5.403
 3942POPC   PO452824  28.087  12.226   5.492
 3942POPC   GL152825  27.780  12.075   5.772
 3942POPC   GL252826  27.530  12.350   5.767
 3942POPC   C1A52827  27.636  11.805   6.112
 3942POPC   D2A52828  27.811  11.654   6.502
 3942POPC   C3A52829  27.844  11.904   6.913
 3942POPC   C4A52830  27.509  11.871   7.222
 3942POPC   C1B52831  27.523  12.315   6.200
 3942POPC   C2B52832  27.535  12.097   6.576
 3942POPC   C3B52833  27.536  12.321   6.987
 3942POPC   C4B52834  27.585  12.496   7.386
 3943POPC   NC352835   8.277  31.065   5.617
 3943POPC   PO452836   8.567  30.492   5.337
 3943POPC   GL152837   8.348  30.582   5.771
 3943POPC   GL252838   8.369  30.816   6.028
 3943POPC   C1A52839   8.074  30.434   6.122
 3943POPC   D2A52840   8.258  30.578   6.498
 3943POPC   C3A52841   8.121  30.447   6.916
 3943POPC   C4A52842   8.142  30.644   7.322
 3943POPC   C1B52843   8.430  31.108   6.310
 3943POPC   C2B52844   8.600  31.094   6.667
 3943POPC   C3B52845   8.441  31.163   7.089
 3943POPC   C4B52846   8.480  31.004   7.536
 3944POPC   NC352847  35.150   4.890   5.445
 3944POPC   PO452848  35.663   4.579   5.652
 3944POPC   GL152849  35.435   4.933   5.853
 3944POPC   GL252850  35.545   5.188   5.639
 3944POPC   C1A52851  35.289   5.113   6.250
 3944POPC   D2A52852  35.463   5.167   6.675
 3944POPC   C3A52853  35.216   5.083   7.037
 3944POPC   C4A52854  35.315   4.973   7.453
 3944POPC   C1B52855  35.674   5.376   6.055
 3944POPC   C2B52856  35.846   5.447   6.474
 3944POPC   C3B52857  35.835   5.432   6.945
 3944POPC   C4B52858  35.475   5.486   7.223
 3945POPC   NC352859  27.366  14.428   5.575
 3945POPC   PO452860  26.666  14.541   5.415
 3945POPC   GL152861  26.812  14.564   5.842
 3945POPC   GL252862  26.977  14.218   5.849
 3945POPC   C1A52863  26.697  14.566   6.302
 3945POPC   D2A52864  26.681  14.206   6.594
 3945POPC   C3A52865  26.884  14.252   6.975
 3945POPC   C4A52866  26.639  14.501   7.201
 3945POPC   C1B52867  27.185  14.469   6.192
 3945POPC   C2B52868  27.205  14.662   6.585
 3945POPC   C3B52869  27.297  14.622   7.004
 3945POPC   C4B52870  27.107  14.579   7.400
 3946POPC   NC352871  33.494  15.061   5.322
 3946POPC   PO452872  34.174  15.067   5.282
 3946POPC   GL152873  33.944  15.158   5.687
 3946POPC   GL252874  33.624  15.299   5.757
 3946POPC   C1A52875  34.001  15.236   6.144
 3946POPC   D2A52876  33.756  15.356   6.514
 3946POPC   C3A52877  33.883  15.213   6.918
 3946POPC   C4A52878  34.184  15.352   7.190
 3946POPC   C1B52879  33.470  15.096   6.110
 3946POPC   C2B52880  33.248  15.216   6.470
 3946POPC   C3B52881  33.378  15.341   6.887
 3946POPC   C4B52882  33.477  15.086   7.229
 3947POPC   NC352883   1.827  17.964   5.403
 3947POPC   PO452884   2.190  18.575   5.313
 3947POPC   GL152885   2.007  18.438   5.742
 3947POPC   GL252886   1.993  18.087   5.856
 3947POPC   C1A52887   1.806  18.404   6.174
 3947POPC   D2A52888   1.938  18.344   6.564
 3947POPC   C3A52889   1.746  18.524   6.904
 3947POPC   C4A52890   1.844  18.257   7.241
 3947POPC   C1B52891   2.097  17.921   6.253
 3947POPC   C2B52892   1.981  17.843   6.651
 3947POPC   C3B52893   2.098  17.827   7.047
 3947POPC   C4B52894   1.909  17.785   7.408
 3948POPC   NC352895  30.491  20.284   5.421
 3948POPC   PO452896  30.528  19.557   5.393
 3948POPC   GL152897  30.695  19.632   5.766
 3948POPC   GL252898  30.789  19.961   5.797
 3948POPC   C1A52899  30.555  19.699   6.187
 3948POPC   D2A52900  30.744  19.832   6.541
 3948POPC   C3A52901  30.467  19.804   6.856
 3948POPC   C4A52902  30.621  19.773   7.244
 3948POPC   C1B52903  30.630  20.212   6.141
 3948POPC   C2B52904  30.578  20.328   6.569
 3948POPC   C3B52905  30.680  20.247   6.994
 3948POPC   C4B52906  30.346  20.201   7.295
 3949POPC   NC352907  36.640   0.214   5.402
 3949POPC   PO452908  36.052   0.509   5.170
 3949POPC   GL152909  36.093   0.384   5.647
 3949POPC   GL252910  36.393   0.472   5.762
 3949POPC   C1A52911  36.001   0.440   6.121
 3949POPC   D2A52912  35.826   0.178   6.469
 3949POPC   C3A52913  36.041   0.137   6.843
 3949POPC   C4A52914  35.971   0.310   7.247
 3949POPC   C1B52915  36.437   0.747   6.085
 3949POPC   C2B52916  36.262   0.785   6.465
 3949POPC   C3B52917  36.166   0.626   6.851
 3949POPC   C4B52918  36.294   0.776   7.227
 3950POPC   NC352919  23.308  43.871   5.301
 3950POPC   PO452920  22.654  43.974   5.415
 3950POPC   GL152921  22.838  43.865   5.808
 3950POPC   GL252922  23.161  43.950   5.795
 3950POPC   C1A52923  22.734  44.023   6.210
 3950POPC   D2A52924  22.535  43.851   6.559
 3950POPC   C3A52925  22.505  44.056   6.967
 3950POPC   C4A52926  22.754  44.222   7.289
 3950POPC   C1B52927  23.246  43.990   6.232
 3950POPC   C2B52928  23.072  43.825   6.595
 3950POPC   C3B52929  23.038  43.908   7.015
 3950POPC   C4B52930  23.351  44.055   7.297
 3951POPC   NC352931  42.365  30.558   5.199
 3951POPC   PO452932  42.516  31.128   5.560
 3951POPC   GL152933  42.115  30.988   5.770
 3951POPC   GL252934  41.941  30.656   5.769
 3951POPC   C1A52935  41.985  30.984   6.191
 3951POPC   D2A52936  42.237  30.791   6.501
 3951POPC   C3A52937  42.315  30.854   6.937
 3951POPC   C4A52938  42.752  30.793   7.092
 3951POPC   C1B52939  41.893  30.469   6.209
 3951POPC   C2B52940  41.876  30.500   6.698
 3951POPC   C3B52941  42.078  30.437   7.127
 3951POPC   C4B52942  42.259  30.271   7.536
 3952POPC   NC352943   6.161  39.477   5.427
 3952POPC   PO452944   5.648  39.069   5.411
 3952POPC   GL152945   5.890  39.197   5.779
 3952POPC   GL252946   6.066  38.932   5.894
 3952POPC   C1A52947   5.819  39.496   6.126
 3952POPC   D2A52948   5.622  39.619   6.531
 3952POPC   C3A52949   5.768  39.336   6.879
 3952POPC   C4A52950   5.787  39.373   7.331
 3952POPC   C1B52951   6.045  39.099   6.321
 3952POPC   C2B52952   6.311  39.195   6.672
 3952POPC   C3B52953   6.163  39.029   7.003
 3952POPC   C4B52954   5.852  38.885   7.212
 3953POPC   NC352955   4.006  25.266   5.514
 3953POPC   PO452956   4.648  25.045   5.323
 3953POPC   GL152957   4.427  25.036   5.698
 3953POPC   GL252958   4.432  25.377   5.759
 3953POPC   C1A52959   4.166  25.037   6.102
 3953POPC   D2A52960   4.281  25.236   6.459
 3953POPC   C3A52961   4.226  25.068   6.869
 3953POPC   C4A52962   4.210  25.295   7.257
 3953POPC   C1B52963   4.519  25.605   6.114
 3953POPC   C2B52964   4.699  25.531   6.505
 3953POPC   C3B52965   4.492  25.528   6.879
 3953POPC   C4B52966   4.604  25.669   7.273
 3954POPC   NC352967  37.911  12.194   5.469
 3954POPC   PO452968  37.420  11.669   5.477
 3954POPC   GL152969  37.708  11.761   5.803
 3954POPC   GL252970  38.080  11.775   5.748
 3954POPC   C1A52971  37.521  11.891   6.199
 3954POPC   D2A52972  37.483  12.191   6.509
 3954POPC   C3A52973  37.535  12.027   6.933
 3954POPC   C4A52974  37.696  12.281   7.273
 3954POPC   C1B52975  38.020  12.021   6.134
 3954POPC   C2B52976  37.930  11.943   6.566
 3954POPC   C3B52977  38.045  12.173   6.897
 3954POPC   C4B52978  38.211  12.230   7.269
 3955POPC   NC352979  37.365  44.719   5.381
 3955POPC   PO452980  38.051  44.682   5.383
 3955POPC   GL152981  37.800  44.782   5.796
 3955POPC   GL252982  37.614  44.459   5.761
 3955POPC   C1A52983  37.608  44.861   6.292
 3955POPC   D2A52984  37.528   0.025   6.760
 3955POPC   C3A52985  37.452  44.718   7.102
 3955POPC   C4A52986  37.181  44.376   7.259
 3955POPC   C1B52987  37.792  44.406   6.165
 3955POPC   C2B52988  37.911  44.311   6.572
 3955POPC   C3B52989  37.927  44.569   6.940
 3955POPC   C4B52990  37.930  44.899   7.217
 3956POPC   NC352991  15.775  36.233   5.428
 3956POPC   PO452992  16.284  36.505   5.735
 3956POPC   GL152993  16.091  36.058   5.838
 3956POPC   GL252994  15.718  35.930   5.837
 3956POPC   C1A52995  16.032  35.948   6.270
 3956POPC   D2A52996  16.259  36.235   6.559
 3956POPC   C3A52997  16.113  36.385   6.959
 3956POPC   C4A52998  15.987  36.335   7.390
 3956POPC   C1B52999  15.547  36.110   6.229
 3956POPC   C2B53000  15.757  36.145   6.651
 3956POPC   C3B53001  15.773  35.996   7.060
 3956POPC   C4B53002  15.497  36.240   7.276
 3957POPC   NC353003   4.719  20.084   5.410
 3957POPC   PO453004   5.181  19.659   5.254
 3957POPC   GL153005   4.971  19.771   5.746
 3957POPC   GL253006   4.785  20.087   5.901
 3957POPC   C1A53007   4.908  19.701   6.244
 3957POPC   D2A53008   4.876  19.543   6.717
 3957POPC   C3A53009   5.255  19.656   6.958
 3957POPC   C4A53010   5.504  19.791   7.308
 3957POPC   C1B53011   4.993  20.264   6.264
 3957POPC   C2B53012   5.050  20.331   6.708
 3957POPC   C3B53013   4.976  20.117   7.082
 3957POPC   C4B53014   4.608  20.103   7.360
 3958POPC   NC353015  20.554   7.013   5.415
 3958POPC   PO453016  20.250   6.434   5.458
 3958POPC   GL153017  20.577   6.419   5.784
 3958POPC   GL253018  20.748   6.751   5.852
 3958POPC   C1A53019  20.468   6.490   6.222
 3958POPC   D2A53020  20.629   6.657   6.624
 3958POPC   C3A53021  20.453   6.546   7.027
 3958POPC   C4A53022  20.623   6.840   7.340
 3958POPC   C1B53023  20.978   6.557   6.236
 3958POPC   C2B53024  21.090   6.420   6.653
 3958POPC   C3B53025  20.965   6.551   7.043
 3958POPC   C4B53026  21.114   6.727   7.418
 3959POPC   NC353027  17.038  23.206   5.393
 3959POPC   PO453028  16.861  23.876   5.362
 3959POPC   GL153029  16.915  23.727   5.772
 3959POPC   GL253030  17.122  23.462   5.824
 3959POPC   C1A53031  16.721  23.782   6.179
 3959POPC   D2A53032  16.784  23.616   6.587
 3959POPC   C3A53033  16.727  23.898   6.925
 3959POPC   C4A53034  16.950  23.929   7.300
 3959POPC   C1B53035  17.194  23.614   6.226
 3959POPC   C2B53036  17.290  23.514   6.624
 3959POPC   C3B53037  17.065  23.513   7.006
 3959POPC   C4B53038  17.187  23.400   7.412
 3960POPC   NC353039  40.120   6.005   5.421
 3960POPC   PO453040  39.826   6.606   5.316
 3960POPC   GL153041  39.953   6.642   5.727
 3960POPC   GL253042  40.220   6.461   5.653
 3960POPC   C1A53043  40.175   6.828   6.092
 3960POPC   D2A53044  40.049   6.920   6.506
 3960POPC   C3A53045  40.224   6.814   6.912
 3960POPC   C4A53046  40.017   6.901   7.310
 3960POPC   C1B53047  40.088   6.319   6.064
 3960POPC   C2B53048  40.159   6.425   6.473
 3960POPC   C3B53049  39.941   6.322   6.837
 3960POPC   C4B53050  40.083   6.414   7.241
 3961POPC   NC353051  42.649  23.182   5.243
 3961POPC   PO453052  42.542  22.590   5.420
 3961POPC   GL153053  42.411  22.803   5.791
 3961POPC   GL253054  42.481  22.510   5.967
 3961POPC   C1A53055  42.326  22.918   6.252
 3961POPC   D2A53056  42.434  22.751   6.699
 3961POPC   C3A53057  42.230  22.795   7.127
 3961POPC   C4A53058  41.909  22.638   7.457
 3961POPC   C1B53059  42.773  22.656   6.298
 3961POPC   C2B53060  42.915  22.575   6.743
 3961POPC   C3B53061  42.765  22.667   7.168
 3961POPC   C4B53062  42.728  22.931   7.547
 3962POPC   NC353063   0.172  33.729   4.967
 3962POPC   PO453064   0.572  33.651   5.478
 3962POPC   GL153065   0.418  33.623   5.916
 3962POPC   GL253066   0.426  33.963   6.031
 3962POPC   C1A53067   0.549  33.614   6.367
 3962POPC   D2A53068   0.505  33.898   6.717
 3962POPC   C3A53069   0.159  33.763   6.966
 3962POPC   C4A53070   0.372  33.379   7.125
 3962POPC   C1B53071   0.497  34.270   6.328
 3962POPC   C2B53072   0.693  34.425   6.697
 3962POPC   C3B53073   0.591  34.293   7.119
 3962POPC   C4B53074   0.469  34.312   7.567
 3963POPC   NC353075  27.992  14.844   5.524
 3963POPC   PO453076  28.416  14.260   5.310
 3963POPC   GL153077  28.378  14.146   5.740
 3963POPC   GL253078  28.668  14.363   5.769
 3963POPC   C1A53079  28.446  14.101   6.213
 3963POPC   D2A53080  28.616  14.164   6.663
 3963POPC   C3A53081  28.372  14.383   7.000
 3963POPC   C4A53082  28.146  14.350   7.434
 3963POPC   C1B53083  28.365  14.575   6.034
 3963POPC   C2B53084  28.266  14.642   6.464
 3963POPC   C3B53085  28.303  14.889   6.816
 3963POPC   C4B53086  28.347  14.830   7.244
 3964POPC   NC353087  35.735  24.595   5.597
 3964POPC   PO453088  35.209  24.208   5.320
 3964POPC   GL153089  35.198  24.349   5.755
 3964POPC   GL253090  35.500  24.409   5.999
 3964POPC   C1A53091  35.128  24.111   6.145
 3964POPC   D2A53092  35.322  24.247   6.513
 3964POPC   C3A53093  35.163  24.059   6.885
 3964POPC   C4A53094  35.262  24.332   7.186
 3964POPC   C1B53095  35.637  24.815   6.228
 3964POPC   C2B53096  35.523  24.941   6.655
 3964POPC   C3B53097  35.594  24.745   7.059
 3964POPC   C4B53098  35.975  24.817   7.256
 3965POPC   NC353099  43.963   4.666   5.528
 3965POPC   PO453100  43.746   5.347   5.384
 3965POPC   GL153101  43.938   5.203   5.739
 3965POPC   GL253102  43.657   4.981   5.779
 3965POPC   C1A53103  44.084   5.353   6.157
 3965POPC   D2A53104  44.105   5.432   6.616
 3965POPC   C3A53105  43.797   5.223   6.882
 3965POPC   C4A53106  43.688   5.339   7.309
 3965POPC   C1B53107  43.882   4.871   6.153
 3965POPC   C2B53108  44.156   4.939   6.485
 3965POPC   C3B53109  44.074   4.779   6.860
 3965POPC   C4B53110  43.993   4.920   7.252
 3966POPC   NC353111   8.366  16.439   5.474
 3966POPC   PO453112   8.461  15.733   5.373
 3966POPC   GL153113   8.266  15.793   5.780
 3966POPC   GL253114   8.094  16.117   5.827
 3966POPC   C1A53115   8.187  15.722   6.225
 3966POPC   D2A53116   8.124  15.613   6.642
 3966POPC   C3A53117   8.400  15.800   6.907
 3966POPC   C4A53118   8.421  15.769   7.337
 3966POPC   C1B53119   8.118  16.219   6.301
 3966POPC   C2B53120   8.179  16.429   6.689
 3966POPC   C3B53121   8.036  16.145   6.961
 3966POPC   C4B53122   8.047  16.090   7.386
 3967POPC   NC353123  43.119   1.336   5.385
 3967POPC   PO453124  42.584   1.740   5.232
 3967POPC   GL153125  42.718   1.531   5.681
 3967POPC   GL253126  42.942   1.216   5.851
 3967POPC   C1A53127  42.839   1.610   6.128
 3967POPC   D2A53128  42.885   1.711   6.534
 3967POPC   C3A53129  43.075   1.386   6.763
 3967POPC   C4A53130  43.141   1.409   7.187
 3967POPC   C1B53131  43.261   1.026   6.174
 3967POPC   C2B53132  43.415   0.984   6.637
 3967POPC   C3B53133  43.429   0.800   7.084
 3967POPC   C4B53134  43.354   0.820   7.562
 3968POPC   NC353135  11.548  31.461   5.415
 3968POPC   PO453136  10.954  31.216   5.585
 3968POPC   GL153137  11.153  31.580   5.834
 3968POPC   GL253138  11.521  31.603   5.919
 3968POPC   C1A53139  11.092  31.694   6.289
 3968POPC   D2A53140  10.970  31.277   6.537
 3968POPC   C3A53141  11.067  31.244   6.959
 3968POPC   C4A53142  11.146  31.654   7.059
 3968POPC   C1B53143  11.438  31.336   6.294
 3968POPC   C2B53144  11.507  31.395   6.746
 3968POPC   C3B53145  11.531  31.330   7.199
 3968POPC   C4B53146  11.672  31.196   7.624
 3969POPC   NC353147  44.780  44.709   5.462
 3969POPC   PO453148  44.268  44.454   5.720
 3969POPC   GL153149  44.607  44.652   5.941
 3969POPC   GL253150  44.820  44.357   5.970
 3969POPC   C1A53151  44.816  44.753   6.360
 3969POPC   D2A53152  44.962  44.768   6.803
 3969POPC   C3A53153  44.745  44.739   7.216
 3969POPC   C4A53154  44.936  44.917   7.614
 3969POPC   C1B53155  44.489  44.358   6.328
 3969POPC   C2B53156  44.469  44.397   6.746
 3969POPC   C3B53157  44.337  44.261   7.128
 3969POPC   C4B53158  44.467  44.390   7.499
 3970POPC   NC353159  34.177  39.503   5.441
 3970POPC   PO453160  33.605  39.089   5.433
 3970POPC   GL153161  33.864  39.236   5.763
 3970POPC   GL253162  34.183  39.108   5.882
 3970POPC   C1A53163  33.733  39.296   6.183
 3970POPC   D2A53164  33.593  39.579   6.513
 3970POPC   C3A53165  33.590  39.388   6.927
 3970POPC   C4A53166  33.638  38.949   7.130
 3970POPC   C1B53167  34.220  39.401   6.257
 3970POPC   C2B53168  34.083  39.399   6.723
 3970POPC   C3B53169  34.031  39.272   7.183
 3970POPC   C4B53170  34.049  39.268   7.650
 3971POPC   NC353171  35.582  36.290   5.347
 3971POPC   PO453172  36.252  36.176   5.440
 3971POPC   GL153173  36.272  36.264   5.858
 3971POPC   GL253174  35.970  36.030   5.910
 3971POPC   C1A53175  36.249  36.217   6.299
 3971POPC   D2A53176  36.067  36.164   6.722
 3971POPC   C3A53177  36.287  36.225   7.129
 3971POPC   C4A53178  36.291  36.132   7.599
 3971POPC   C1B53179  35.931  35.796   6.323
 3971POPC   C2B53180  36.007  35.663   6.757
 3971POPC   C3B53181  36.087  35.726   7.198
 3971POPC   C4B53182  36.067  35.659   7.655
 3972POPC   NC353183  24.211  31.123   5.511
 3972POPC   PO453184  24.765  31.042   5.743
 3972POPC   GL153185  24.598  31.422   5.939
 3972POPC   GL253186  24.252  31.467   5.894
 3972POPC   C1A53187  24.464  31.561   6.360
 3972POPC   D2A53188  24.259  31.356   6.722
 3972POPC   C3A53189  24.347  31.477   7.125
 3972POPC   C4A53190  24.575  31.876   7.263
 3972POPC   C1B53191  24.105  31.180   6.246
 3972POPC   C2B53192  23.953  30.961   6.651
 3972POPC   C3B53193  23.875  31.104   7.098
 3972POPC   C4B53194  24.033  31.290   7.499
 3973POPC   NC353195  11.388   7.948   5.377
 3973POPC   PO453196  11.701   8.544   5.436
 3973POPC   GL153197  11.539   8.258   5.736
 3973POPC   GL253198  11.183   8.275   5.774
 3973POPC   C1A53199  11.650   8.113   6.111
 3973POPC   D2A53200  11.522   8.160   6.494
 3973POPC   C3A53201  11.615   8.190   6.913
 3973POPC   C4A53202  11.433   8.092   7.295
 3973POPC   C1B53203  11.149   8.023   6.144
 3973POPC   C2B53204  11.071   7.980   6.583
 3973POPC   C3B53205  10.987   8.001   7.019
 3973POPC   C4B53206  10.786   7.892   7.390
 3974POPC   NC353207  23.412  22.066   5.543
 3974POPC   PO453208  22.833  22.294   5.405
 3974POPC   GL153209  23.003  22.406   5.818
 3974POPC   GL253210  23.338  22.497   5.832
 3974POPC   C1A53211  22.925  22.225   6.238
 3974POPC   D2A53212  22.973  22.041   6.677
 3974POPC   C3A53213  22.765  22.281   6.996
 3974POPC   C4A53214  22.565  22.178   7.393
 3974POPC   C1B53215  23.420  22.324   6.255
 3974POPC   C2B53216  23.468  22.229   6.718
 3974POPC   C3B53217  23.255  22.120   7.120
 3974POPC   C4B53218  23.025  22.373   7.432
 3975POPC   NC353219   5.622  25.720   5.404
 3975POPC   PO453220   5.906  26.323   5.235
 3975POPC   GL153221   5.840  26.210   5.717
 3975POPC   GL253222   6.070  25.942   5.876
 3975POPC   C1A53223   5.867  26.298   6.198
 3975POPC   D2A53224   5.628  26.391   6.587
 3975POPC   C3A53225   5.456  26.039   6.836
 3975POPC   C4A53226   5.508  25.939   7.234
 3975POPC   C1B53227   6.034  25.769   6.288
 3975POPC   C2B53228   5.942  25.937   6.688
 3975POPC   C3B53229   5.997  25.986   7.113
 3975POPC   C4B53230   6.203  25.815   7.438
 3976POPC   NC353231  39.809  27.475   5.472
 3976POPC   PO453232  40.324  27.679   5.455
 3976POPC   GL153233  40.237  27.733   5.881
 3976POPC   GL253234  40.227  28.098   5.856
 3976POPC   C1A53235  40.273  27.521   6.310
 3976POPC   D2A53236  40.307  27.327   6.743
 3976POPC   C3A53237  40.185  27.626   7.100
 3976POPC   C4A53238  39.913  27.671   7.464
 3976POPC   C1B53239  40.266  28.036   6.332
 3976POPC   C2B53240  40.094  28.081   6.805
 3976POPC   C3B53241  40.118  28.124   7.284
 3976POPC   C4B53242  40.185  28.006   7.742
 3977POPC   NC353243  13.360  39.571   5.618
 3977POPC   PO453244  12.682  39.880   5.510
 3977POPC   GL153245  13.051  39.943   5.791
 3977POPC   GL253246  13.069  40.272   5.915
 3977POPC   C1A53247  13.208  39.896   6.228
 3977POPC   D2A53248  13.008  39.948   6.641
 3977POPC   C3A53249  13.206  39.906   7.063
 3977POPC   C4A53250  13.095  40.186   7.412
 3977POPC   C1B53251  12.719  40.093   6.189
 3977POPC   C2B53252  12.583  40.261   6.594
 3977POPC   C3B53253  12.744  40.197   7.016
 3977POPC   C4B53254  12.552  40.286   7.402
 3978POPC   NC353255  36.353   5.511   5.449
 3978POPC   PO453256  36.894   5.770   5.164
 3978POPC   GL153257  37.042   5.801   5.605
 3978POPC   GL253258  36.797   5.565   5.710
 3978POPC   C1A53259  37.131   5.740   6.075
 3978POPC   D2A53260  37.114   5.649   6.527
 3978POPC   C3A53261  36.900   5.926   6.827
 3978POPC   C4A53262  36.871   5.895   7.262
 3978POPC   C1B53263  36.654   5.479   6.137
 3978POPC   C2B53264  36.569   5.686   6.539
 3978POPC   C3B53265  36.510   5.619   7.017
 3978POPC   C4B53266  36.383   5.787   7.445
 3979POPC   NC353267  14.118   9.901   5.448
 3979POPC   PO453268  14.586   9.471   5.508
 3979POPC   GL153269  14.523   9.827   5.774
 3979POPC   GL253270  14.785  10.050   5.839
 3979POPC   C1A53271  14.413   9.886   6.203
 3979POPC   D2A53272  14.586   9.734   6.600
 3979POPC   C3A53273  14.329   9.813   6.962
 3979POPC   C4A53274  14.073   9.740   7.342
 3979POPC   C1B53275  14.821  10.165   6.257
 3979POPC   C2B53276  14.678  10.220   6.687
 3979POPC   C3B53277  14.825  10.036   7.063
 3979POPC   C4B53278  14.590   9.780   7.408
 3980POPC   NC353279  30.461  31.931   5.538
 3980POPC   PO453280  30.807  32.437   5.326
 3980POPC   GL153281  30.903  32.395   5.797
 3980POPC   GL253282  30.840  32.048   5.922
 3980POPC   C1A53283  30.795  32.409   6.273
 3980POPC   D2A53284  30.474  32.269   6.597
 3980POPC   C3A53285  30.516  32.295   7.072
 3980POPC   C4A53286  30.571  32.206   7.523
 3980POPC   C1B53287  30.892  31.890   6.372
 3980POPC   C2B53288  30.912  32.064   6.801
 3980POPC   C3B53289  30.895  31.952   7.238
 3980POPC   C4B53290  30.795  31.780   7.681
 3981POPC   NC353291  21.019  34.214   5.442
 3981POPC   PO453292  21.572  34.583   5.302
 3981POPC   GL153293  21.274  34.639   5.683
 3981POPC   GL253294  21.433  34.359   5.774
 3981POPC   C1A53295  21.146  34.774   6.145
 3981POPC   D2A53296  21.232  34.627   6.580
 3981POPC   C3A53297  21.391  34.856   6.941
 3981POPC   C4A53298  21.264  34.789   7.382
 3981POPC   C1B53299  21.562  34.467   6.189
 3981POPC   C2B53300  21.696  34.435   6.639
 3981POPC   C3B53301  21.574  34.409   7.080
 3981POPC   C4B53302  21.837  34.318   7.444
 3982POPC   NC353303  23.753   7.583   5.491
 3982POPC   PO453304  23.349   7.088   5.378
 3982POPC   GL153305  23.495   7.242   5.811
 3982POPC   GL253306  23.809   7.440   5.979
 3982POPC   C1A53307  23.507   7.116   6.254
 3982POPC   D2A53308  23.778   7.190   6.601
 3982POPC   C3A53309  23.592   7.421   6.931
 3982POPC   C4A53310  23.363   7.231   7.285
 3982POPC   C1B53311  24.125   7.466   6.345
 3982POPC   C2B53312  24.116   7.513   6.839
 3982POPC   C3B53313  23.967   7.585   7.256
 3982POPC   C4B53314  24.044   7.723   7.681
 3983POPC   NC353315  30.915  17.929   5.293
 3983POPC   PO453316  30.509  17.394   5.432
 3983POPC   GL153317  30.446  17.585   5.831
 3983POPC   GL253318  30.559  17.921   5.815
 3983POPC   C1A53319  30.417  17.416   6.244
 3983POPC   D2A53320  30.648  17.276   6.626
 3983POPC   C3A53321  30.544  17.478   7.022
 3983POPC   C4A53322  30.463  17.338   7.469
 3983POPC   C1B53323  30.719  17.862   6.234
 3983POPC   C2B53324  30.753  17.997   6.656
 3983POPC   C3B53325  30.532  17.984   7.063
 3983POPC   C4B53326  30.738  17.788   7.409
 3984POPC   NC353327  10.850   1.512   5.427
 3984POPC   PO453328  10.567   2.194   5.204
 3984POPC   GL153329  10.760   2.067   5.620
 3984POPC   GL253330  10.573   1.802   5.752
 3984POPC   C1A53331  10.717   2.177   6.078
 3984POPC   D2A53332  10.359   2.176   6.378
 3984POPC   C3A53333  10.389   2.186   6.836
 3984POPC   C4A53334  10.637   2.003   7.145
 3984POPC   C1B53335  10.692   1.683   6.178
 3984POPC   C2B53336  10.786   1.834   6.587
 3984POPC   C3B53337  10.762   1.548   6.949
 3984POPC   C4B53338  10.675   1.563   7.418
 3985POPC   NC353339  27.371  25.685   5.407
 3985POPC   PO453340  27.723  25.133   5.549
 3985POPC   GL153341  27.518  25.418   5.810
 3985POPC   GL253342  27.293  25.200   5.966
 3985POPC   C1A53343  27.491  25.650   6.194
 3985POPC   D2A53344  27.709  25.567   6.602
 3985POPC   C3A53345  27.502  25.669   6.961
 3985POPC   C4A53346  27.628  25.522   7.346
 3985POPC   C1B53347  27.664  25.181   6.250
 3985POPC   C2B53348  27.692  25.058   6.677
 3985POPC   C3B53349  27.831  25.156   7.086
 3985POPC   C4B53350  27.620  25.048   7.502
 3986POPC   NC353351  12.214  13.996   5.096
 3986POPC   PO453352  11.715  13.647   5.421
 3986POPC   GL153353  11.910  13.789   5.825
 3986POPC   GL253354  12.225  13.991   5.777
 3986POPC   C1A53355  12.004  13.598   6.230
 3986POPC   D2A53356  12.209  13.619   6.618
 3986POPC   C3A53357  12.047  13.478   6.993
 3986POPC   C4A53358  12.337  13.255   7.203
 3986POPC   C1B53359  12.384  13.948   6.226
 3986POPC   C2B53360  12.384  14.100   6.666
 3986POPC   C3B53361  12.319  13.911   7.088
 3986POPC   C4B53362  12.235  14.148   7.527
 3987POPC   NC353363  11.356  33.227   5.439
 3987POPC   PO453364  11.337  32.588   5.415
 3987POPC   GL153365  11.448  32.880   5.785
 3987POPC   GL253366  11.732  33.136   5.854
 3987POPC   C1A53367  11.187  33.136   6.076
 3987POPC   D2A53368  11.098  32.956   6.496
 3987POPC   C3A53369  11.042  33.251   6.812
 3987POPC   C4A53370  11.276  33.228   7.171
 3987POPC   C1B53371  11.637  33.144   6.309
 3987POPC   C2B53372  11.575  33.152   6.751
 3987POPC   C3B53373  11.443  32.776   6.970
 3987POPC   C4B53374  11.116  32.572   7.189
 3988POPC   NC353375  41.770  42.352   5.447
 3988POPC   PO453376  41.118  42.151   5.562
 3988POPC   GL153377  41.367  42.422   5.827
 3988POPC   GL253378  41.145  42.662   5.987
 3988POPC   C1A53379  41.671  42.448   6.153
 3988POPC   D2A53380  41.879  42.377   6.560
 3988POPC   C3A53381  41.641  42.576   6.889
 3988POPC   C4A53382  41.511  42.753   7.283
 3988POPC   C1B53383  41.101  42.297   6.243
 3988POPC   C2B53384  41.370  42.273   6.573
 3988POPC   C3B53385  41.594  42.026   6.861
 3988POPC   C4B53386  41.334  41.949   7.207
 3989POPC   NC353387   4.952  16.158   5.607
 3989POPC   PO453388   5.521  15.849   5.488
 3989POPC   GL153389   5.292  15.872   5.858
 3989POPC   GL253390   4.965  15.694   5.868
 3989POPC   C1A53391   5.137  15.934   6.279
 3989POPC   D2A53392   4.953  16.090   6.646
 3989POPC   C3A53393   5.107  16.122   7.039
 3989POPC   C4A53394   5.012  15.976   7.427
 3989POPC   C1B53395   4.770  15.577   6.300
 3989POPC   C2B53396   4.714  15.646   6.787
 3989POPC   C3B53397   4.728  15.585   7.263
 3989POPC   C4B53398   4.771  15.696   7.768
 3990POPC   NC353399   9.206  34.139   5.492
 3990POPC   PO453400   9.832  34.339   5.349
 3990POPC   GL153401   9.616  34.450   5.720
 3990POPC   GL253402   9.974  34.478   5.813
 3990POPC   C1A53403   9.578  34.531   6.152
 3990POPC   D2A53404   9.387  34.633   6.548
 3990POPC   C3A53405   9.455  34.407   6.907
 3990POPC   C4A53406   9.656  34.545   7.295
 3990POPC   C1B53407  10.037  34.801   6.088
 3990POPC   C2B53408   9.889  34.900   6.483
 3990POPC   C3B53409   9.898  34.717   6.879
 3990POPC   C4B53410  10.133  34.753   7.256
 3991POPC   NC353411  31.806  18.311   5.525
 3991POPC   PO453412  31.379  18.788   5.322
 3991POPC   GL153413  31.342  18.517   5.726
 3991POPC   GL253414  31.414  18.137   5.813
 3991POPC   C1A53415  31.355  18.517   6.199
 3991POPC   D2A53416  31.269  18.153   6.495
 3991POPC   C3A53417  31.388  18.146   6.932
 3991POPC   C4A53418  31.397  18.249   7.371
 3991POPC   C1B53419  31.731  18.176   6.178
 3991POPC   C2B53420  31.814  18.269   6.617
 3991POPC   C3B53421  31.942  18.159   7.039
 3991POPC   C4B53422  31.873  18.236   7.497
 3992POPC   NC353423  39.840  39.725   5.360
 3992POPC   PO453424  40.219  40.326   5.418
 3992POPC   GL153425  40.008  40.061   5.708
 3992POPC   GL253426  39.928  40.334   5.886
 3992POPC   C1A53427  40.093  39.860   6.115
 3992POPC   D2A53428  39.955  39.861   6.567
 3992POPC   C3A53429  40.196  39.843   6.968
 3992POPC   C4A53430  40.015  39.767   7.370
 3992POPC   C1B53431  39.800  40.247   6.253
 3992POPC   C2B53432  39.875  40.378   6.630
 3992POPC   C3B53433  39.795  40.177   6.985
 3992POPC   C4B53434  40.037  40.275   7.272
 3993POPC   NC353435  21.611  43.465   5.563
 3993POPC   PO453436  21.180  42.898   5.494
 3993POPC   GL153437  21.378  43.047   5.850
 3993POPC   GL253438  21.303  43.392   5.938
 3993POPC   C1A53439  21.305  42.887   6.256
 3993POPC   D2A53440  21.029  42.956   6.587
 3993POPC   C3A53441  21.188  42.827   6.948
 3993POPC   C4A53442  21.439  43.018   7.252
 3993POPC   C1B53443  21.518  43.337   6.331
 3993POPC   C2B53444  21.443  43.302   6.790
 3993POPC   C3B53445  21.681  43.473   7.176
 3993POPC   C4B53446  21.783  43.299   7.598
 3994POPC   NC353447   9.722  23.433   5.396
 3994POPC   PO453448  10.323  23.657   5.520
 3994POPC   GL153449  10.038  23.756   5.837
 3994POPC   GL253450   9.665  23.790   5.771
 3994POPC   C1A53451   9.960  23.852   6.258
 3994POPC   D2A53452   9.816  23.665   6.607
 3994POPC   C3A53453   9.877  23.958   6.911
 3994POPC   C4A53454   9.832  23.744   7.214
 3994POPC   C1B53455   9.451  23.838   6.165
 3994POPC   C2B53456   9.485  24.048   6.571
 3994POPC   C3B53457   9.360  23.861   6.956
 3994POPC   C4B53458   9.358  23.632   7.336
 3995POPC   NC353459   8.104  37.898   5.464
 3995POPC   PO453460   8.010  38.537   5.382
 3995POPC   GL153461   8.137  38.335   5.772
 3995POPC   GL253462   8.449  38.133   5.774
 3995POPC   C1A53463   8.095  38.344   6.224
 3995POPC   D2A53464   7.922  38.323   6.637
 3995POPC   C3A53465   8.012  38.653   6.959
 3995POPC   C4A53466   8.315  38.893   7.172
 3995POPC   C1B53467   8.583  38.226   6.196
 3995POPC   C2B53468   8.452  38.255   6.629
 3995POPC   C3B53469   8.485  38.369   7.067
 3995POPC   C4B53470   8.704  38.179   7.417
 3996POPC   NC353471  22.534  33.684   5.154
 3996POPC   PO453472  22.968  34.205   5.376
 3996POPC   GL153473  22.994  33.918   5.771
 3996POPC   GL253474  23.248  34.014   6.009
 3996POPC   C1A53475  22.780  33.813   6.174
 3996POPC   D2A53476  22.947  33.810   6.597
 3996POPC   C3A53477  22.769  33.607   6.951
 3996POPC   C4A53478  22.800  33.751   7.389
 3996POPC   C1B53479  23.263  33.600   6.253
 3996POPC   C2B53480  23.191  33.377   6.685
 3996POPC   C3B53481  23.246  33.509   7.142
 3996POPC   C4B53482  23.305  33.739   7.545
 3997POPC   NC353483  42.381   7.798   5.343
 3997POPC   PO453484  42.457   7.035   5.449
 3997POPC   GL153485  42.500   7.293   5.840
 3997POPC   GL253486  42.521   7.659   5.802
 3997POPC   C1A53487  42.577   7.361   6.285
 3997POPC   D2A53488  42.358   7.384   6.677
 3997POPC   C3A53489  42.521   7.238   7.066
 3997POPC   C4A53490  42.299   7.223   7.482
 3997POPC   C1B53491  42.229   7.709   6.126
 3997POPC   C2B53492  42.075   7.808   6.511
 3997POPC   C3B53493  42.218   7.907   6.881
 3997POPC   C4B53494  42.145   7.574   7.139
 3998POPC   NC353495   4.169  24.219   5.435
 3998POPC   PO453496   4.179  23.509   5.427
 3998POPC   GL153497   4.437  23.646   5.726
 3998POPC   GL253498   4.172  23.856   5.817
 3998POPC   C1A53499   4.537  23.427   6.114
 3998POPC   D2A53500   4.647  23.558   6.531
 3998POPC   C3A53501   4.342  23.581   6.849
 3998POPC   C4A53502   4.256  23.354   7.224
 3998POPC   C1B53503   4.418  23.902   6.183
 3998POPC   C2B53504   4.348  24.032   6.553
 3998POPC   C3B53505   4.494  24.076   6.943
 3998POPC   C4B53506   4.382  23.849   7.290
 3999POPC   NC353507  20.244   9.732   5.003
 3999POPC   PO453508  20.462   9.890   5.598
 3999POPC   GL153509  20.476   9.779   5.989
 3999POPC   GL253510  20.498   9.432   6.002
 3999POPC   C1A53511  20.745   9.845   6.319
 3999POPC   D2A53512  20.624   9.953   6.700
 3999POPC   C3A53513  20.738   9.776   7.038
 3999POPC   C4A53514  20.402  10.039   7.217
 3999POPC   C1B53515  20.167   9.487   6.259
 3999POPC   C2B53516  20.432   9.494   6.581
 3999POPC   C3B53517  20.267   9.608   6.940
 3999POPC   C4B53518  20.379   9.540   7.326
 4000POPC   NC353519  39.769  22.462   5.334
 4000POPC   PO453520  39.671  21.746   5.358
 4000POPC   GL153521  39.861  22.016   5.689
 4000POPC   GL253522  40.016  21.769   5.930
 4000POPC   C1A53523  39.869  22.218   6.109
 4000POPC   D2A53524  39.789  22.047   6.530
 4000POPC   C3A53525  39.869  22.277   6.959
 4000POPC   C4A53526  40.203  22.362   7.248
 4000POPC   C1B53527  40.263  21.892   6.296
 4000POPC   C2B53528  40.250  22.020   6.722
 4000POPC   C3B53529  40.257  21.872   7.104
 4000POPC   C4B53530  40.525  21.964   7.494
 4001POPC   NC353531   1.676   2.686   5.311
 4001POPC   PO453532   2.224   2.980   5.548
 4001POPC   GL153533   1.888   2.854   5.761
 4001POPC   GL253534   2.013   2.520   5.759
 4001POPC   C1A53535   1.745   2.832   6.187
 4001POPC   D2A53536   1.801   3.081   6.588
 4001POPC   C3A53537   2.032   2.895   6.940
 4001POPC   C4A53538   1.885   2.583   7.207
 4001POPC   C1B53539   2.216   2.597   6.180
 4001POPC   C2B53540   2.118   2.488   6.621
 4001POPC   C3B53541   2.335   2.447   7.034
 4001POPC   C4B53542   2.348   2.737   7.400
 4002POPC   NC353543  44.461   6.304   5.548
 4002POPC   PO453544  44.798   5.762   5.368
 4002POPC   GL153545  44.669   5.808   5.828
 4002POPC   GL253546  44.534   5.501   5.964
 4002POPC   C1A53547  44.890   5.907   6.240
 4002POPC   D2A53548  44.976   6.067   6.696
 4002POPC   C3A53549  44.928   5.799   7.079
 4002POPC   C4A53550  44.610   5.471   7.203
 4002POPC   C1B53551  44.406   5.732   6.323
 4002POPC   C2B53552  44.540   5.728   6.756
 4002POPC   C3B53553  44.434   5.961   7.154
 4002POPC   C4B53554  44.346   6.260   7.482
 4003POPC   NC353555   7.253  33.993   5.396
 4003POPC   PO453556   7.632  33.443   5.417
 4003POPC   GL153557   7.566  33.739   5.749
 4003POPC   GL253558   7.220  33.741   5.833
 4003POPC   C1A53559   7.572  33.923   6.170
 4003POPC   D2A53560   7.288  34.043   6.486
 4003POPC   C3A53561   7.466  34.045   6.871
 4003POPC   C4A53562   7.458  33.936   7.294
 4003POPC   C1B53563   7.221  33.495   6.170
 4003POPC   C2B53564   7.088  33.538   6.568
 4003POPC   C3B53565   7.093  33.691   6.953
 4003POPC   C4B53566   7.182  33.506   7.343
 4004POPC   NC353567  23.924  36.043   5.405
 4004POPC   PO453568  23.511  36.529   5.158
 4004POPC   GL153569  23.596  36.294   5.680
 4004POPC   GL253570  23.860  36.424   5.976
 4004POPC   C1A53571  23.526  36.106   6.125
 4004POPC   D2A53572  23.716  36.238   6.548
 4004POPC   C3A53573  23.534  36.176   6.990
 4004POPC   C4A53574  23.344  36.030   7.372
 4004POPC   C1B53575  24.028  36.012   6.157
 4004POPC   C2B53576  23.975  35.802   6.573
 4004POPC   C3B53577  24.012  36.049   6.930
 4004POPC   C4B53578  24.002  35.818   7.258
 4005POPC   NC353579   2.566   0.754   5.266
 4005POPC   PO453580   2.732   1.413   5.252
 4005POPC   GL153581   2.869   1.282   5.666
 4005POPC   GL253582   2.966   0.930   5.605
 4005POPC   C1A53583   2.861   1.354   6.151
 4005POPC   D2A53584   2.739   1.422   6.609
 4005POPC   C3A53585   2.972   1.241   6.961
 4005POPC   C4A53586   2.955   1.333   7.391
 4005POPC   C1B53587   2.588   0.942   5.916
 4005POPC   C2B53588   2.463   1.053   6.352
 4005POPC   C3B53589   2.552   0.962   6.774
 4005POPC   C4B53590   2.608   0.962   7.200
 4006POPC   NC353591  42.112  32.515   5.061
 4006POPC   PO453592  42.423  31.952   5.296
 4006POPC   GL153593  42.240  32.007   5.707
 4006POPC   GL253594  42.442  32.284   5.801
 4006POPC   C1A53595  42.210  31.957   6.187
 4006POPC   D2A53596  42.436  31.920   6.614
 4006POPC   C3A53597  42.310  32.159   7.030
 4006POPC   C4A53598  42.133  32.134   7.458
 4006POPC   C1B53599  42.564  32.310   6.231
 4006POPC   C2B53600  42.500  32.461   6.657
 4006POPC   C3B53601  42.635  32.573   7.102
 4006POPC   C4B53602  42.508  32.476   7.583
 4007POPC   NC353603  16.463  34.783   5.461
 4007POPC   PO453604  17.134  34.531   5.519
 4007POPC   GL153605  16.868  34.698   5.831
 4007POPC   GL253606  16.536  34.552   5.907
 4007POPC   C1A53607  16.848  34.606   6.277
 4007POPC   D2A53608  16.568  34.724   6.572
 4007POPC   C3A53609  16.738  34.633   6.939
 4007POPC   C4A53610  16.996  34.772   7.238
 4007POPC   C1B53611  16.299  34.385   6.280
 4007POPC   C2B53612  16.211  34.387   6.727
 4007POPC   C3B53613  16.479  34.230   7.048
 4007POPC   C4B53614  16.556  34.328   7.523
 4008POPC   NC353615  10.382  28.168   5.188
 4008POPC   PO453616  10.057  27.958   5.664
 4008POPC   GL153617  10.354  28.263   5.716
 4008POPC   GL253618  10.366  28.568   5.799
 4008POPC   C1A53619  10.638  28.263   6.092
 4008POPC   D2A53620  10.527  28.293   6.533
 4008POPC   C3A53621  10.772  28.422   6.862
 4008POPC   C4A53622  10.654  28.239   7.216
 4008POPC   C1B53623  10.197  28.491   6.194
 4008POPC   C2B53624  10.111  28.619   6.599
 4008POPC   C3B53625  10.238  28.453   6.945
 4008POPC   C4B53626  10.464  28.710   7.186
 4009POPC   NC353627  22.400  25.093   5.336
 4009POPC   PO453628  21.776  25.368   5.530
 4009POPC   GL153629  22.148  25.244   5.777
 4009POPC   GL253630  22.430  25.496   5.781
 4009POPC   C1A53631  22.193  25.043   6.196
 4009POPC   D2A53632  22.064  25.236   6.605
 4009POPC   C3A53633  21.941  25.025   6.987
 4009POPC   C4A53634  22.131  25.057   7.407
 4009POPC   C1B53635  22.333  25.541   6.225
 4009POPC   C2B53636  22.518  25.525   6.649
 4009POPC   C3B53637  22.326  25.393   7.063
 4009POPC   C4B53638  22.414  25.474   7.531
 4010POPC   NC353639  14.523  20.391   5.486
 4010POPC   PO453640  14.237  21.004   5.260
 4010POPC   GL153641  14.284  20.791   5.707
 4010POPC   GL253642  14.594  20.646   5.916
 4010POPC   C1A53643  14.219  20.810   6.180
 4010POPC   D2A53644  14.564  20.894   6.497
 4010POPC   C3A53645  14.422  20.815   6.934
 4010POPC   C4A53646  14.529  20.843   7.370
 4010POPC   C1B53647  14.547  20.368   6.267
 4010POPC   C2B53648  14.712  20.423   6.669
 4010POPC   C3B53649  14.671  20.402   7.108
 4010POPC   C4B53650  14.674  20.369   7.557
 4011POPC   NC353651   9.207   2.012   5.474
 4011POPC   PO453652   8.771   1.606   5.334
 4011POPC   GL153653   8.916   1.688   5.769
 4011POPC   GL253654   8.887   2.072   5.885
 4011POPC   C1A53655   9.052   1.705   6.210
 4011POPC   D2A53656   8.864   1.959   6.552
 4011POPC   C3A53657   9.007   1.719   6.955
 4011POPC   C4A53658   9.266   1.857   7.315
 4011POPC   C1B53659   9.192   2.213   6.244
 4011POPC   C2B53660   9.298   2.111   6.719
 4011POPC   C3B53661   8.914   2.209   7.032
 4011POPC   C4B53662   8.760   2.459   7.410
 4012POPC   NC353663  20.321   2.767   5.257
 4012POPC   PO453664  19.825   3.089   5.437
 4012POPC   GL153665  19.924   2.816   5.769
 4012POPC   GL253666  19.729   2.536   5.813
 4012POPC   C1A53667  19.779   2.871   6.205
 4012POPC   D2A53668  19.842   3.080   6.628
 4012POPC   C3A53669  19.707   2.855   6.993
 4012POPC   C4A53670  19.722   2.972   7.455
 4012POPC   C1B53671  19.682   2.348   6.174
 4012POPC   C2B53672  19.792   2.478   6.570
 4012POPC   C3B53673  19.954   2.422   6.955
 4012POPC   C4B53674  20.089   2.302   7.343
 4013POPC   NC353675   0.919  27.298   5.518
 4013POPC   PO453676   1.460  27.591   5.439
 4013POPC   GL153677   1.315  27.464   5.836
 4013POPC   GL253678   1.063  27.731   5.778
 4013POPC   C1A53679   1.221  27.577   6.276
 4013POPC   D2A53680   1.229  27.918   6.573
 4013POPC   C3A53681   1.246  27.764   7.003
 4013POPC   C4A53682   1.313  27.439   7.349
 4013POPC   C1B53683   0.929  27.979   6.132
 4013POPC   C2B53684   0.750  28.053   6.540
 4013POPC   C3B53685   0.775  27.971   6.999
 4013POPC   C4B53686   0.930  27.753   7.397
 4014POPC   NC353687  25.772  36.361   5.231
 4014POPC   PO453688  26.272  35.865   5.472
 4014POPC   GL153689  26.263  36.052   5.920
 4014POPC   GL253690  25.897  36.089   6.030
 4014POPC   C1A53691  26.228  36.345   6.284
 4014POPC   D2A53692  25.955  36.189   6.574
 4014POPC   C3A53693  26.155  36.135   6.959
 4014POPC   C4A53694  26.180  35.925   7.323
 4014POPC   C1B53695  25.672  36.436   6.188
 4014POPC   C2B53696  25.641  36.597   6.579
 4014POPC   C3B53697  25.710  36.427   6.962
 4014POPC   C4B53698  26.024  36.519   7.250
 4015POPC   NC353699   9.769  10.709   5.445
 4015POPC   PO453700   9.764  10.091   5.510
 4015POPC   GL153701   9.627  10.325   5.866
 4015POPC   GL253702   9.442  10.656   5.829
 4015POPC   C1A53703   9.930  10.492   6.143
 4015POPC   D2A53704  10.050  10.705   6.536
 4015POPC   C3A53705  10.119  10.447   6.915
 4015POPC   C4A53706   9.890  10.320   7.306
 4015POPC   C1B53707   9.533  10.784   6.229
 4015POPC   C2B53708   9.564  10.545   6.592
 4015POPC   C3B53709   9.619  10.662   7.013
 4015POPC   C4B53710   9.492  10.691   7.452
 4016POPC   NC353711  39.145  39.194   5.377
 4016POPC   PO453712  39.698  39.008   5.727
 4016POPC   GL153713  39.406  39.306   5.811
 4016POPC   GL253714  39.419  39.582   5.621
 4016POPC   C1A53715  39.066  39.306   6.087
 4016POPC   D2A53716  39.044  39.293   6.545
 4016POPC   C3A53717  38.940  39.148   6.978
 4016POPC   C4A53718  39.169  39.100   7.412
 4016POPC   C1B53719  39.561  39.737   6.055
 4016POPC   C2B53720  39.512  39.588   6.494
 4016POPC   C3B53721  39.616  39.682   6.936
 4016POPC   C4B53722  39.525  39.886   7.330
 4017POPC   NC353723  28.040  21.019   5.197
 4017POPC   PO453724  28.454  20.563   5.391
 4017POPC   GL153725  28.311  20.512   5.786
 4017POPC   GL253726  28.049  20.766   5.797
 4017POPC   C1A53727  28.509  20.401   6.182
 4017POPC   D2A53728  28.763  20.361   6.531
 4017POPC   C3A53729  28.547  20.324   6.899
 4017POPC   C4A53730  28.775  20.389   7.269
 4017POPC   C1B53731  28.282  20.865   6.176
 4017POPC   C2B53732  28.387  20.727   6.601
 4017POPC   C3B53733  28.505  20.803   7.052
 4017POPC   C4B53734  28.633  20.989   7.433
 4018POPC   NC353735  32.654  31.410   5.393
 4018POPC   PO453736  33.303  31.664   5.399
 4018POPC   GL153737  32.982  31.687   5.716
 4018POPC   GL253738  32.976  31.328   5.773
 4018POPC   C1A53739  32.965  31.879   6.152
 4018POPC   D2A53740  33.072  32.084   6.550
 4018POPC   C3A53741  33.020  31.802   6.892
 4018POPC   C4A53742  33.102  31.653   7.297
 4018POPC   C1B53743  32.762  31.418   6.129
 4018POPC   C2B53744  32.803  31.527   6.536
 4018POPC   C3B53745  32.811  31.327   6.957
 4018POPC   C4B53746  32.585  31.484   7.316
 4019POPC   NC353747  17.433  24.908   5.493
 4019POPC   PO453748  17.814  24.356   5.401
 4019POPC   GL153749  17.702  24.307   5.811
 4019POPC   GL253750  17.385  24.461   5.842
 4019POPC   C1A53751  17.729  24.481   6.231
 4019POPC   D2A53752  17.543  24.378   6.616
 4019POPC   C3A53753  17.752  24.457   6.981
 4019POPC   C4A53754  17.548  24.555   7.364
 4019POPC   C1B53755  17.245  24.633   6.272
 4019POPC   C2B53756  17.154  24.708   6.756
 4019POPC   C3B53757  17.200  24.900   7.204
 4019POPC   C4B53758  17.410  24.973   7.624
 4020POPC   NC353759   6.693  44.752   5.384
 4020POPC   PO453760   6.326  44.201   5.536
 4020POPC   GL153761   6.587  44.445   5.834
 4020POPC   GL253762   6.780  44.779   5.872
 4020POPC   C1A53763   6.556  44.601   6.284
 4020POPC   D2A53764   6.343  44.543   6.652
 4020POPC   C3A53765   6.531  44.769   6.972
 4020POPC   C4A53766   6.694  44.543   7.307
 4020POPC   C1B53767   7.079  44.693   6.203
 4020POPC   C2B53768   7.046  44.614   6.641
 4020POPC   C3B53769   7.116  44.680   7.066
 4020POPC   C4B53770   7.174  44.489   7.484
 4021POPC   NC353771   3.210  41.056   5.423
 4021POPC   PO453772   3.766  40.648   5.478
 4021POPC   GL153773   3.571  40.915   5.773
 4021POPC   GL253774   3.287  40.676   5.783
 4021POPC   C1A53775   3.600  41.146   6.164
 4021POPC   D2A53776   3.728  40.924   6.534
 4021POPC   C3A53777   3.613  41.100   6.923
 4021POPC   C4A53778   3.810  40.974   7.323
 4021POPC   C1B53779   3.241  40.789   6.214
 4021POPC   C2B53780   3.220  40.976   6.611
 4021POPC   C3B53781   3.171  40.811   7.002
 4021POPC   C4B53782   3.155  40.514   7.313
 4022POPC   NC353783   6.712  17.945   5.449
 4022POPC   PO453784   6.554  18.578   5.494
 4022POPC   GL153785   6.350  18.424   5.855
 4022POPC   GL253786   6.529  18.109   5.927
 4022POPC   C1A53787   6.448  18.440   6.307
 4022POPC   D2A53788   6.753  18.186   6.527
 4022POPC   C3A53789   6.542  17.991   6.842
 4022POPC   C4A53790   6.448  18.167   7.242
 4022POPC   C1B53791   6.962  17.994   6.073
 4022POPC   C2B53792   7.235  18.000   6.428
 4022POPC   C3B53793   7.182  17.990   6.870
 4022POPC   C4B53794   6.908  17.934   7.202
 4023POPC   NC353795  11.702   2.171   5.519
 4023POPC   PO453796  12.314   1.773   5.486
 4023POPC   GL153797  12.064   1.916   5.828
 4023POPC   GL253798  11.707   1.824   5.914
 4023POPC   C1A53799  12.100   2.042   6.236
 4023POPC   D2A53800  12.027   1.824   6.595
 4023POPC   C3A53801  12.223   2.030   6.896
 4023POPC   C4A53802  12.191   2.011   7.299
 4023POPC   C1B53803  11.621   2.201   6.207
 4023POPC   C2B53804  11.841   2.364   6.588
 4023POPC   C3B53805  11.766   2.218   7.016
 4023POPC   C4B53806  11.781   2.224   7.473
 4024POPC   NC353807  10.063  13.136   5.413
 4024POPC   PO453808   9.465  12.937   5.469
 4024POPC   GL153809   9.773  12.875   5.809
 4024POPC   GL253810   9.819  12.517   5.866
 4024POPC   C1A53811   9.872  12.873   6.265
 4024POPC   D2A53812   9.618  13.065   6.618
 4024POPC   C3A53813   9.780  13.001   7.036
 4024POPC   C4A53814   9.722  12.898   7.490
 4024POPC   C1B53815   9.696  12.398   6.292
 4024POPC   C2B53816   9.762  12.579   6.699
 4024POPC   C3B53817   9.529  12.574   7.087
 4024POPC   C4B53818   9.513  12.404   7.492
 4025POPC   NC353819   3.449  19.913   5.399
 4025POPC   PO453820   2.776  19.865   5.307
 4025POPC   GL153821   3.006  19.976   5.705
 4025POPC   GL253822   3.151  19.687   5.884
 4025POPC   C1A53823   3.059  20.150   6.144
 4025POPC   D2A53824   3.029  19.963   6.548
 4025POPC   C3A53825   3.014  20.128   6.962
 4025POPC   C4A53826   2.697  19.954   7.244
 4025POPC   C1B53827   2.766  19.715   6.178
 4025POPC   C2B53828   2.539  19.604   6.586
 4025POPC   C3B53829   2.619  19.478   7.052
 4025POPC   C4B53830   2.808  19.528   7.505
 4026POPC   NC353831  27.955   5.332   5.379
 4026POPC   PO453832  28.491   4.941   5.466
 4026POPC   GL153833  28.277   5.154   5.787
 4026POPC   GL253834  28.569   5.219   5.954
 4026POPC   C1A53835  28.159   5.094   6.243
 4026POPC   D2A53836  28.356   4.985   6.662
 4026POPC   C3A53837  28.234   5.146   7.089
 4026POPC   C4A53838  28.215   5.436   7.484
 4026POPC   C1B53839  28.622   5.349   6.387
 4026POPC   C2B53840  28.560   5.447   6.830
 4026POPC   C3B53841  28.679   5.403   7.266
 4026POPC   C4B53842  28.946   5.387   7.640
 4027POPC   NC353843  11.621  34.723   5.397
 4027POPC   PO453844  12.240  34.309   5.457
 4027POPC   GL153845  12.238  34.429   5.853
 4027POPC   GL253846  11.892  34.520   5.811
 4027POPC   C1A53847  12.120  34.417   6.283
 4027POPC   D2A53848  12.255  34.520   6.670
 4027POPC   C3A53849  12.119  34.441   7.078
 4027POPC   C4A53850  12.395  34.598   7.391
 4027POPC   C1B53851  11.861  34.858   6.104
 4027POPC   C2B53852  11.791  34.772   6.541
 4027POPC   C3B53853  11.697  34.729   6.979
 4027POPC   C4B53854  11.626  34.362   7.246
 4028POPC   NC353855   2.288  10.497   5.499
 4028POPC   PO453856   2.141  11.081   5.244
 4028POPC   GL153857   1.996  10.850   5.714
 4028POPC   GL253858   1.843  10.472   5.770
 4028POPC   C1A53859   2.102  10.674   6.163
 4028POPC   D2A53860   2.096  10.510   6.592
 4028POPC   C3A53861   2.158  10.723   6.970
 4028POPC   C4A53862   1.883  10.684   7.312
 4028POPC   C1B53863   1.727  10.307   6.216
 4028POPC   C2B53864   1.733  10.103   6.628
 4028POPC   C3B53865   1.873  10.230   7.038
 4028POPC   C4B53866   1.551  10.286   7.324
 4029POPC   NC353867  11.696  15.877   5.512
 4029POPC   PO453868  11.010  15.660   5.474
 4029POPC   GL153869  11.251  15.662   5.848
 4029POPC   GL253870  11.301  15.993   5.834
 4029POPC   C1A53871  11.441  15.763   6.277
 4029POPC   D2A53872  11.370  15.914   6.720
 4029POPC   C3A53873  11.129  15.699   7.036
 4029POPC   C4A53874  11.540  15.563   7.194
 4029POPC   C1B53875  11.462  16.267   6.154
 4029POPC   C2B53876  11.350  16.402   6.576
 4029POPC   C3B53877  11.589  16.320   6.942
 4029POPC   C4B53878  11.415  16.068   7.220
 4030POPC   NC353879  35.654  25.413   5.360
 4030POPC   PO453880  35.016  25.620   5.480
 4030POPC   GL153881  35.295  25.354   5.793
 4030POPC   GL253882  35.410  24.979   5.777
 4030POPC   C1A53883  35.352  25.262   6.266
 4030POPC   D2A53884  35.169  25.419   6.665
 4030POPC   C3A53885  35.338  25.481   7.085
 4030POPC   C4A53886  35.284  25.294   7.493
 4030POPC   C1B53887  35.129  24.788   6.120
 4030POPC   C2B53888  35.009  24.935   6.545
 4030POPC   C3B53889  35.119  25.019   6.988
 4030POPC   C4B53890  35.178  24.809   7.354
 4031POPC   NC353891  44.900  31.450   5.268
 4031POPC   PO453892  44.251  31.128   5.342
 4031POPC   GL153893  44.564  31.183   5.681
 4031POPC   GL253894  44.870  31.320   5.877
 4031POPC   C1A53895  44.449  31.172   6.128
 4031POPC   D2A53896  44.645  31.288   6.525
 4031POPC   C3A53897  44.442  31.401   6.920
 4031POPC   C4A53898  44.596  31.702   7.216
 4031POPC   C1B53899  44.986  31.613   6.240
 4031POPC   C2B53900   0.147  31.867   6.602
 4031POPC   C3B53901   0.097  31.854   7.044
 4031POPC   C4B53902   0.284  31.523   7.293
 4032POPC   NC353903  42.157   2.925   5.463
 4032POPC   PO453904  42.592   2.395   5.466
 4032POPC   GL153905  42.696   2.733   5.776
 4032POPC   GL253906  42.509   3.072   5.845
 4032POPC   C1A53907  42.576   2.738   6.215
 4032POPC   D2A53908  42.313   2.575   6.530
 4032POPC   C3A53909  42.438   2.795   6.906
 4032POPC   C4A53910  42.368   2.588   7.266
 4032POPC   C1B53911  42.114   2.930   6.102
 4032POPC   C2B53912  41.831   2.854   6.444
 4032POPC   C3B53913  41.934   2.804   6.883
 4032POPC   C4B53914  42.109   3.046   7.242
 4033POPC   NC353915  22.509  42.134   5.591
 4033POPC   PO453916  22.013  42.570   5.418
 4033POPC   GL153917  22.215  42.607   5.825
 4033POPC   GL253918  22.052  42.287   5.932
 4033POPC   C1A53919  22.193  42.600   6.302
 4033POPC   D2A53920  22.211  42.721   6.719
 4033POPC   C3A53921  22.099  42.464   7.037
 4033POPC   C4A53922  22.320  42.535   7.419
 4033POPC   C1B53923  22.149  42.084   6.353
 4033POPC   C2B53924  22.413  42.196   6.703
 4033POPC   C3B53925  22.426  42.108   7.162
 4033POPC   C4B53926  22.225  41.967   7.567
 4034POPC   NC353927  14.494  31.237   5.537
 4034POPC   PO453928  14.108  31.639   5.360
 4034POPC   GL153929  14.313  31.685   5.782
 4034POPC   GL253930  14.663  31.696   5.753
 4034POPC   C1A53931  14.234  31.899   6.199
 4034POPC   D2A53932  14.099  31.979   6.647
 4034POPC   C3A53933  14.218  31.751   7.029
 4034POPC   C4A53934  14.371  31.422   7.305
 4034POPC   C1B53935  14.614  31.548   6.185
 4034POPC   C2B53936  14.537  31.717   6.597
 4034POPC   C3B53937  14.727  31.628   6.971
 4034POPC   C4B53938  14.854  31.633   7.383
 4035POPC   NC353939   1.416  41.225   5.530
 4035POPC   PO453940   0.950  41.727   5.419
 4035POPC   GL153941   1.133  41.586   5.787
 4035POPC   GL253942   1.281  41.944   5.858
 4035POPC   C1A53943   1.102  41.279   6.177
 4035POPC   D2A53944   0.910  41.141   6.587
 4035POPC   C3A53945   1.172  41.228   6.945
 4035POPC   C4A53946   1.421  41.482   7.240
 4035POPC   C1B53947   1.040  41.823   6.208
 4035POPC   C2B53948   1.098  41.621   6.567
 4035POPC   C3B53949   1.085  41.748   6.951
 4035POPC   C4B53950   0.981  41.743   7.353
 4036POPC   NC353951  17.900   9.250   5.295
 4036POPC   PO453952  18.388   9.049   5.576
 4036POPC   GL153953  18.135   9.290   5.866
 4036POPC   GL253954  17.848   9.078   5.814
 4036POPC   C1A53955  18.212   9.376   6.336
 4036POPC   D2A53956  18.507   9.189   6.640
 4036POPC   C3A53957  18.420   9.151   7.090
 4036POPC   C4A53958  18.312   9.169   7.518
 4036POPC   C1B53959  17.886   8.986   6.292
 4036POPC   C2B53960  18.014   9.037   6.762
 4036POPC   C3B53961  17.968   8.911   7.227
 4036POPC   C4B53962  18.049   8.769   7.675
 4037POPC   NC353963  12.635  17.971   5.014
 4037POPC   PO453964  12.856  17.375   5.213
 4037POPC   GL153965  12.946  17.528   5.681
 4037POPC   GL253966  12.760  17.267   5.742
 4037POPC   C1A53967  13.041  17.434   6.143
 4037POPC   D2A53968  13.096  17.596   6.565
 4037POPC   C3A53969  13.156  17.372   6.935
 4037POPC   C4A53970  12.976  17.427   7.338
 4037POPC   C1B53971  12.548  17.160   6.100
 4037POPC   C2B53972  12.543  17.368   6.497
 4037POPC   C3B53973  12.636  17.478   6.919
 4037POPC   C4B53974  12.515  17.174   7.239
 4038POPC   NC353975  23.220  26.610   5.445
 4038POPC   PO453976  23.808  27.009   5.447
 4038POPC   GL153977  23.671  26.756   5.786
 4038POPC   GL253978  23.481  27.041   5.916
 4038POPC   C1A53979  23.648  26.516   6.185
 4038POPC   D2A53980  23.897  26.528   6.580
 4038POPC   C3A53981  23.603  26.539   6.926
 4038POPC   C4A53982  23.314  26.728   7.242
 4038POPC   C1B53983  23.732  26.988   6.322
 4038POPC   C2B53984  23.785  26.990   6.774
 4038POPC   C3B53985  23.749  26.997   7.198
 4038POPC   C4B53986  23.819  27.020   7.665
 4039POPC   NC353987   8.311  12.672   5.143
 4039POPC   PO453988   8.291  12.036   5.383
 4039POPC   GL153989   8.198  12.031   5.823
 4039POPC   GL253990   7.877  12.199   5.860
 4039POPC   C1A53991   8.260  12.221   6.228
 4039POPC   D2A53992   8.423  12.336   6.623
 4039POPC   C3A53993   8.323  12.137   6.976
 4039POPC   C4A53994   8.357  11.970   7.390
 4039POPC   C1B53995   7.858  11.872   6.182
 4039POPC   C2B53996   8.057  11.895   6.583
 4039POPC   C3B53997   7.856  11.942   6.970
 4039POPC   C4B53998   7.889  12.161   7.321
 4040POPC   NC353999  44.347  23.280   5.585
 4040POPC   PO454000  44.916  23.676   5.497
 4040POPC   GL154001  44.777  23.659   5.907
 4040POPC   GL254002  44.782  23.337   5.906
 4040POPC   C1A54003  44.959  23.653   6.340
 4040POPC   D2A54004  44.885  23.940   6.698
 4040POPC   C3A54005  44.717  23.884   7.111
 4040POPC   C4A54006  44.858  23.637   7.487
 4040POPC   C1B54007  44.540  23.380   6.290
 4040POPC   C2B54008  44.559  23.511   6.740
 4040POPC   C3B54009  44.474  23.463   7.192
 4040POPC   C4B54010  44.365  23.416   7.631
 4041POPC   NC354011  27.564  42.064   5.257
 4041POPC   PO454012  27.496  42.742   5.414
 4041POPC   GL154013  27.630  42.425   5.713
 4041POPC   GL254014  27.351  42.230   5.713
 4041POPC   C1A54015  27.622  42.300   6.188
 4041POPC   D2A54016  27.480  41.973   6.506
 4041POPC   C3A54017  27.464  42.152   6.924
 4041POPC   C4A54018  27.688  42.515   7.117
 4041POPC   C1B54019  27.136  42.223   6.110
 4041POPC   C2B54020  27.175  42.411   6.515
 4041POPC   C3B54021  27.136  42.561   6.943
 4041POPC   C4B54022  27.240  42.387   7.332
 4042POPC   NC354023   3.331  37.900   5.433
 4042POPC   PO454024   3.820  37.472   5.519
 4042POPC   GL154025   3.663  37.666   5.849
 4042POPC   GL254026   3.368  37.531   5.787
 4042POPC   C1A54027   3.803  37.674   6.279
 4042POPC   D2A54028   3.592  37.751   6.658
 4042POPC   C3A54029   3.818  37.649   7.025
 4042POPC   C4A54030   3.631  37.853   7.336
 4042POPC   C1B54031   3.383  37.380   6.196
 4042POPC   C2B54032   3.264  37.356   6.597
 4042POPC   C3B54033   3.364  37.417   7.007
 4042POPC   C4B54034   3.102  37.431   7.356
 4043POPC   NC354035  43.440  23.593   5.305
 4043POPC   PO454036  43.940  23.491   5.608
 4043POPC   GL154037  44.203  23.625   5.965
 4043POPC   GL254038  43.986  23.910   6.014
 4043POPC   C1A54039  44.168  23.691   6.441
 4043POPC   D2A54040  43.867  23.588   6.776
 4043POPC   C3A54041  43.997  23.626   7.206
 4043POPC   C4A54042  44.289  23.905   7.431
 4043POPC   C1B54043  43.722  23.943   6.400
 4043POPC   C2B54044  43.774  24.106   6.834
 4043POPC   C3B54045  43.811  24.097   7.277
 4043POPC   C4B54046  43.762  24.325   7.673
 4044POPC   NC354047  38.772   2.447   5.356
 4044POPC   PO454048  38.248   2.931   5.140
 4044POPC   GL154049  38.451   2.929   5.614
 4044POPC   GL254050  38.580   2.637   5.785
 4044POPC   C1A54051  38.527   3.014   6.109
 4044POPC   D2A54052  38.411   2.975   6.543
 4044POPC   C3A54053  38.646   3.071   6.910
 4044POPC   C4A54054  38.725   2.787   7.259
 4044POPC   C1B54055  38.395   2.508   6.181
 4044POPC   C2B54056  38.150   2.540   6.555
 4044POPC   C3B54057  38.374   2.557   6.953
 4044POPC   C4B54058  38.301   2.383   7.379
 4045POPC   NC354059  34.586  25.432   5.439
 4045POPC   PO454060  34.538  24.784   5.298
 4045POPC   GL154061  34.323  25.035   5.637
 4045POPC   GL254062  34.404  24.800   5.841
 4045POPC   C1A54063  34.416  25.309   6.048
 4045POPC   D2A54064  34.731  25.347   6.402
 4045POPC   C3A54065  34.672  25.440   6.855
 4045POPC   C4A54066  34.424  25.548   7.256
 4045POPC   C1B54067  34.602  24.864   6.239
 4045POPC   C2B54068  34.519  24.722   6.659
 4045POPC   C3B54069  34.617  24.961   6.979
 4045POPC   C4B54070  34.734  25.088   7.390
 4046POPC   NC354071  23.398  18.949   5.385
 4046POPC   PO454072  23.965  19.298   5.352
 4046POPC   GL154073  23.948  19.062   5.686
 4046POPC   GL254074  23.635  19.179   5.808
 4046POPC   C1A54075  24.037  18.879   6.082
 4046POPC   D2A54076  23.774  18.947   6.453
 4046POPC   C3A54077  23.954  18.982   6.869
 4046POPC   C4A54078  23.756  18.960   7.285
 4046POPC   C1B54079  23.441  19.307   6.221
 4046POPC   C2B54080  23.334  19.177   6.659
 4046POPC   C3B54081  23.261  19.056   7.084
 4046POPC   C4B54082  23.363  19.283   7.459
 4047POPC   NC354083   7.289  27.963   5.086
 4047POPC   PO454084   7.620  27.407   5.381
 4047POPC   GL154085   7.520  27.629   5.773
 4047POPC   GL254086   7.267  27.903   5.685
 4047POPC   C1A54087   7.533  27.478   6.196
 4047POPC   D2A54088   7.205  27.489   6.498
 4047POPC   C3A54089   7.331  27.508   6.922
 4047POPC   C4A54090   7.226  27.258   7.253
 4047POPC   C1B54091   7.304  27.939   6.153
 4047POPC   C2B54092   7.514  27.885   6.582
 4047POPC   C3B54093   7.425  28.014   7.015
 4047POPC   C4B54094   7.626  27.738   7.315
 4048POPC   NC354095  15.646  34.722   5.475
 4048POPC   PO454096  16.251  34.381   5.536
 4048POPC   GL154097  15.972  34.454   5.805
 4048POPC   GL254098  16.054  34.769   5.829
 4048POPC   C1A54099  15.817  34.566   6.222
 4048POPC   D2A54100  15.690  34.377   6.596
 4048POPC   C3A54101  15.787  34.600   6.966
 4048POPC   C4A54102  16.095  34.451   7.251
 4048POPC   C1B54103  16.246  34.895   6.179
 4048POPC   C2B54104  16.061  34.885   6.573
 4048POPC   C3B54105  16.237  34.870   6.958
 4048POPC   C4B54106  16.010  34.965   7.316
 4049POPC   NC354107  22.831  31.734   5.209
 4049POPC   PO454108  23.096  31.119   5.315
 4049POPC   GL154109  22.941  31.321   5.690
 4049POPC   GL254110  23.270  31.440   5.784
 4049POPC   C1A54111  22.813  31.431   6.152
 4049POPC   D2A54112  22.794  31.600   6.607
 4049POPC   C3A54113  22.839  31.395   7.038
 4049POPC   C4A54114  22.631  31.502   7.440
 4049POPC   C1B54115  23.337  31.532   6.230
 4049POPC   C2B54116  23.278  31.523   6.669
 4049POPC   C3B54117  23.193  31.775   7.030
 4049POPC   C4B54118  23.119  31.638   7.452
 4050POPC   NC354119  28.192   7.214   5.445
 4050POPC   PO454120  28.603   7.689   5.268
 4050POPC   GL154121  28.493   7.532   5.747
 4050POPC   GL254122  28.481   7.178   5.890
 4050POPC   C1A54123  28.372   7.616   6.214
 4050POPC   D2A54124  28.520   7.528   6.653
 4050POPC   C3A54125  28.338   7.544   7.068
 4050POPC   C4A54126  28.331   7.148   7.268
 4050POPC   C1B54127  28.055   7.219   6.101
 4050POPC   C2B54128  27.857   7.263   6.512
 4050POPC   C3B54129  27.941   7.250   6.963
 4050POPC   C4B54130  27.951   7.424   7.429
 4051POPC   NC354131  23.906  21.649   5.161
 4051POPC   PO454132  23.992  21.038   5.571
 4051POPC   GL154133  23.999  21.188   6.009
 4051POPC   GL254134  23.713  21.389   5.980
 4051POPC   C1A54135  23.969  21.451   6.409
 4051POPC   D2A54136  23.739  21.419   6.808
 4051POPC   C3A54137  23.934  21.357   7.200
 4051POPC   C4A54138  23.999  21.003   7.520
 4051POPC   C1B54139  23.464  21.436   6.348
 4051POPC   C2B54140  23.372  21.724   6.669
 4051POPC   C3B54141  23.313  21.584   7.073
 4051POPC   C4B54142  23.440  21.744   7.455
 4052POPC   NC354143   3.449  27.292   5.373
 4052POPC   PO454144   3.722  27.876   5.628
 4052POPC   GL154145   3.514  27.549   5.842
 4052POPC   GL254146   3.617  27.208   5.874
 4052POPC   C1A54147   3.553  27.543   6.285
 4052POPC   D2A54148   3.653  27.841   6.612
 4052POPC   C3A54149   3.334  27.820   6.924
 4052POPC   C4A54150   3.315  27.507   7.275
 4052POPC   C1B54151   3.711  27.035   6.309
 4052POPC   C2B54152   3.743  26.981   6.781
 4052POPC   C3B54153   3.794  27.234   7.188
 4052POPC   C4B54154   3.885  27.076   7.629
 4053POPC   NC354155   3.954  37.005   5.549
 4053POPC   PO454156   4.632  36.893   5.590
 4053POPC   GL154157   4.515  36.968   5.966
 4053POPC   GL254158   4.183  36.902   5.984
 4053POPC   C1A54159   4.490  36.978   6.390
 4053POPC   D2A54160   4.224  37.037   6.701
 4053POPC   C3A54161   4.550  37.112   6.948
 4053POPC   C4A54162   4.693  36.935   7.295
 4053POPC   C1B54163   3.964  36.556   6.169
 4053POPC   C2B54164   3.744  36.427   6.555
 4053POPC   C3B54165   3.881  36.601   6.947
 4053POPC   C4B54166   4.193  36.834   7.169
 4054POPC   NC354167  20.310  26.345   5.507
 4054POPC   PO454168  20.495  26.995   5.325
 4054POPC   GL154169  20.586  26.909   5.754
 4054POPC   GL254170  20.691  26.601   5.770
 4054POPC   C1A54171  20.383  26.776   6.167
 4054POPC   D2A54172  20.537  26.893   6.579
 4054POPC   C3A54173  20.344  26.832   6.951
 4054POPC   C4A54174  20.358  27.059   7.332
 4054POPC   C1B54175  20.890  26.729   6.181
 4054POPC   C2B54176  20.995  26.647   6.598
 4054POPC   C3B54177  20.821  26.508   6.973
 4054POPC   C4B54178  20.569  26.585   7.338
 4055POPC   NC354179  39.925  30.930   5.358
 4055POPC   PO454180  40.324  30.399   5.531
 4055POPC   GL154181  40.164  30.514   5.940
 4055POPC   GL254182  39.818  30.683   5.936
 4055POPC   C1A54183  40.017  30.503   6.363
 4055POPC   D2A54184  39.813  30.865   6.521
 4055POPC   C3A54185  40.175  30.945   6.751
 4055POPC   C4A54186  40.314  30.830   7.149
 4055POPC   C1B54187  39.597  30.325   6.167
 4055POPC   C2B54188  39.596  30.225   6.607
 4055POPC   C3B54189  39.862  30.483   6.866
 4055POPC   C4B54190  39.805  30.894   7.098
 4056POPC   NC354191  29.367  31.709   5.122
 4056POPC   PO454192  29.432  32.208   5.401
 4056POPC   GL154193  29.459  32.282   5.872
 4056POPC   GL254194  29.271  32.587   5.954
 4056POPC   C1A54195  29.325  32.236   6.340
 4056POPC   D2A54196  29.244  32.356   6.791
 4056POPC   C3A54197  29.469  32.147   7.158
 4056POPC   C4A54198  29.643  31.978   7.567
 4056POPC   C1B54199  29.607  32.665   6.266
 4056POPC   C2B54200  29.704  32.635   6.727
 4056POPC   C3B54201  29.484  32.666   7.129
 4056POPC   C4B54202  29.055  32.514   7.258
 4057POPC   NC354203  16.776  42.977   5.443
 4057POPC   PO454204  16.370  43.494   5.396
 4057POPC   GL154205  16.688  43.390   5.770
 4057POPC   GL254206  16.658  43.038   5.919
 4057POPC   C1A54207  16.963  43.348   6.189
 4057POPC   D2A54208  16.932  43.195   6.626
 4057POPC   C3A54209  16.595  43.283   6.897
 4057POPC   C4A54210  16.689  43.404   7.262
 4057POPC   C1B54211  16.465  43.202   6.254
 4057POPC   C2B54212  16.443  42.932   6.560
 4057POPC   C3B54213  16.642  42.770   6.912
 4057POPC   C4B54214  16.508  42.911   7.299
 4058POPC   NC354215   7.481  16.620   5.384
 4058POPC   PO454216   7.262  17.116   5.761
 4058POPC   GL154217   7.321  16.713   5.879
 4058POPC   GL254218   7.660  16.760   5.887
 4058POPC   C1A54219   7.311  16.668   6.318
 4058POPC   D2A54220   7.153  17.024   6.531
 4058POPC   C3A54221   7.301  17.107   6.951
 4058POPC   C4A54222   7.044  17.110   7.335
 4058POPC   C1B54223   7.668  16.362   6.113
 4058POPC   C2B54224   7.684  16.369   6.557
 4058POPC   C3B54225   7.394  16.516   6.834
 4058POPC   C4B54226   7.350  16.681   7.222
 4059POPC   NC354227  14.400  15.498   5.577
 4059POPC   PO454228  14.111  14.870   5.404
 4059POPC   GL154229  14.253  14.865   5.863
 4059POPC   GL254230  14.506  15.124   5.915
 4059POPC   C1A54231  14.225  14.982   6.332
 4059POPC   D2A54232  14.354  15.180   6.746
 4059POPC   C3A54233  14.247  14.993   7.134
 4059POPC   C4A54234  14.402  15.097   7.562
 4059POPC   C1B54235  14.507  15.408   6.290
 4059POPC   C2B54236  14.787  15.480   6.634
 4059POPC   C3B54237  14.761  15.386   7.073
 4059POPC   C4B54238  14.744  15.504   7.512
 4060POPC   NC354239  23.780  24.053   5.409
 4060POPC   PO454240  23.658  24.685   5.325
 4060POPC   GL154241  23.716  24.472   5.723
 4060POPC   GL254242  23.541  24.661   5.968
 4060POPC   C1A54243  23.724  24.217   6.123
 4060POPC   D2A54244  23.511  24.440   6.471
 4060POPC   C3A54245  23.566  24.377   6.929
 4060POPC   C4A54246  23.814  24.179   7.298
 4060POPC   C1B54247  23.797  24.841   6.279
 4060POPC   C2B54248  23.680  24.856   6.708
 4060POPC   C3B54249  23.700  24.839   7.135
 4060POPC   C4B54250  23.972  24.643   7.421
 4061POPC   NC354251  28.508  27.040   5.292
 4061POPC   PO454252  28.133  26.505   5.406
 4061POPC   GL154253  28.373  26.765   5.726
 4061POPC   GL254254  28.258  27.077   5.880
 4061POPC   C1A54255  28.271  26.662   6.162
 4061POPC   D2A54256  28.264  26.798   6.596
 4061POPC   C3A54257  28.288  26.593   6.964
 4061POPC   C4A54258  28.643  26.610   7.107
 4061POPC   C1B54259  28.536  27.093   6.280
 4061POPC   C2B54260  28.495  27.245   6.696
 4061POPC   C3B54261  28.448  27.116   7.107
 4061POPC   C4B54262  28.536  27.368   7.466
 4062POPC   NC354263  36.721  14.595   5.254
 4062POPC   PO454264  37.326  14.605   5.608
 4062POPC   GL154265  37.082  14.572   5.934
 4062POPC   GL254266  36.761  14.563   5.785
 4062POPC   C1A54267  37.169  14.484   6.363
 4062POPC   D2A54268  37.527  14.330   6.607
 4062POPC   C3A54269  37.326  14.185   6.995
 4062POPC   C4A54270  36.920  14.341   7.099
 4062POPC   C1B54271  36.698  14.355   6.183
 4062POPC   C2B54272  36.654  14.517   6.607
 4062POPC   C3B54273  36.478  14.688   6.976
 4062POPC   C4B54274  36.347  14.499   7.377
 4063POPC   NC354275  36.368  27.074   5.367
 4063POPC   PO454276  35.761  26.833   5.323
 4063POPC   GL154277  36.055  26.848   5.704
 4063POPC   GL254278  36.140  27.148   5.848
 4063POPC   C1A54279  36.143  26.710   6.147
 4063POPC   D2A54280  36.185  26.442   6.519
 4063POPC   C3A54281  36.288  26.674   6.899
 4063POPC   C4A54282  36.421  26.766   7.318
 4063POPC   C1B54283  35.874  27.134   6.237
 4063POPC   C2B54284  35.940  27.142   6.708
 4063POPC   C3B54285  36.141  27.134   7.121
 4063POPC   C4B54286  36.020  27.104   7.601
 4064POPC   NC354287   6.295  10.111   5.548
 4064POPC   PO454288   5.846  10.643   5.458
 4064POPC   GL154289   5.962  10.530   5.894
 4064POPC   GL254290   5.620  10.570   5.914
 4064POPC   C1A54291   5.831  10.404   6.350
 4064POPC   D2A54292   5.594  10.160   6.642
 4064POPC   C3A54293   5.643  10.354   7.040
 4064POPC   C4A54294   5.883  10.537   7.358
 4064POPC   C1B54295   5.729  10.882   6.221
 4064POPC   C2B54296   6.111  10.845   6.471
 4064POPC   C3B54297   6.013  10.671   6.858
 4064POPC   C4B54298   5.667  10.882   7.038
 4065POPC   NC354299  40.178   1.669   5.431
 4065POPC   PO454300  39.957   2.291   5.473
 4065POPC   GL154301  39.773   2.039   5.751
 4065POPC   GL254302  40.102   1.938   5.886
 4065POPC   C1A54303  39.719   2.134   6.160
 4065POPC   D2A54304  39.970   1.996   6.516
 4065POPC   C3A54305  39.819   2.051   6.936
 4065POPC   C4A54306  39.889   2.137   7.386
 4065POPC   C1B54307  40.348   1.793   6.257
 4065POPC   C2B54308  40.398   1.823   6.731
 4065POPC   C3B54309  40.251   1.883   7.147
 4065POPC   C4B54310  40.146   1.722   7.559
 4066POPC   NC354311  34.696   0.680   5.429
 4066POPC   PO454312  34.183   0.209   5.372
 4066POPC   GL154313  34.431   0.357   5.722
 4066POPC   GL254314  34.206   0.553   5.851
 4066POPC   C1A54315  34.750   0.205   6.040
 4066POPC   D2A54316  34.967   0.139   6.409
 4066POPC   C3A54317  34.985   0.150   6.858
 4066POPC   C4A54318  34.865   0.421   7.167
 4066POPC   C1B54319  34.464   0.561   6.232
 4066POPC   C2B54320  34.640   0.491   6.660
 4066POPC   C3B54321  34.380   0.510   7.016
 4066POPC   C4B54322  34.097   0.863   7.059
 4067POPC   NC354323  21.687   8.276   5.316
 4067POPC   PO454324  21.092   7.974   5.268
 4067POPC   GL154325  21.275   8.082   5.622
 4067POPC   GL254326  21.555   7.847   5.603
 4067POPC   C1A54327  21.284   8.282   6.022
 4067POPC   D2A54328  21.426   8.238   6.446
 4067POPC   C3A54329  21.234   8.444   6.811
 4067POPC   C4A54330  21.494   8.244   7.137
 4067POPC   C1B54331  21.372   7.753   6.024
 4067POPC   C2B54332  21.372   7.670   6.477
 4067POPC   C3B54333  21.221   7.913   6.827
 4067POPC   C4B54334  21.196   7.843   7.268
 4068POPC   NC354335  39.256   9.303   5.418
 4068POPC   PO454336  39.005   8.684   5.341
 4068POPC   GL154337  39.260   8.855   5.662
 4068POPC   GL254338  38.992   8.963   5.824
 4068POPC   C1A54339  39.448   8.967   6.066
 4068POPC   D2A54340  39.374   8.844   6.491
 4068POPC   C3A54341  39.509   9.091   6.824
 4068POPC   C4A54342  39.429   8.917   7.217
 4068POPC   C1B54343  38.981   9.077   6.251
 4068POPC   C2B54344  38.945   9.194   6.695
 4068POPC   C3B54345  38.908   8.952   7.098
 4068POPC   C4B54346  39.056   8.992   7.543
 4069POPC   NC354347   0.853  37.996   5.416
 4069POPC   PO454348   0.284  37.749   5.447
 4069POPC   GL154349   0.547  37.804   5.808
 4069POPC   GL254350   0.381  37.521   5.928
 4069POPC   C1A54351   0.686  37.784   6.273
 4069POPC   D2A54352   0.574  37.536   6.668
 4069POPC   C3A54353   0.705  37.633   7.113
 4069POPC   C4A54354   0.794  37.922   7.486
 4069POPC   C1B54355   0.226  37.340   6.301
 4069POPC   C2B54356   0.153  37.232   6.720
 4069POPC   C3B54357   0.202  37.458   7.128
 4069POPC   C4B54358   0.005  37.322   7.525
 4070POPC   NC354359   8.949  37.467   5.523
 4070POPC   PO454360   9.493  37.925   5.479
 4070POPC   GL154361   9.296  37.937   5.856
 4070POPC   GL254362   8.937  37.946   5.764
 4070POPC   C1A54363   9.251  37.657   6.180
 4070POPC   D2A54364   9.019  37.479   6.517
 4070POPC   C3A54365   9.239  37.632   6.874
 4070POPC   C4A54366   9.154  37.522   7.294
 4070POPC   C1B54367   8.771  37.776   6.152
 4070POPC   C2B54368   8.911  37.987   6.561
 4070POPC   C3B54369   8.810  37.903   7.002
 4070POPC   C4B54370   8.591  37.584   7.260
 4071POPC   NC354371   7.158  36.983   5.243
 4071POPC   PO454372   7.754  36.657   5.440
 4071POPC   GL154373   7.510  36.761   5.805
 4071POPC   GL254374   7.223  36.587   5.664
 4071POPC   C1A54375   7.478  36.941   6.258
 4071POPC   D2A54376   7.338  37.018   6.703
 4071POPC   C3A54377   7.239  37.137   7.150
 4071POPC   C4A54378   7.361  37.013   7.590
 4071POPC   C1B54379   7.189  36.520   6.111
 4071POPC   C2B54380   7.140  36.610   6.530
 4071POPC   C3B54381   7.261  36.609   6.981
 4071POPC   C4B54382   7.073  36.664   7.357
 4072POPC   NC354383   7.851  27.915   5.516
 4072POPC   PO454384   7.310  28.356   5.366
 4072POPC   GL154385   7.341  28.422   5.809
 4072POPC   GL254386   7.631  28.247   5.846
 4072POPC   C1A54387   7.301  28.523   6.262
 4072POPC   D2A54388   7.157  28.690   6.672
 4072POPC   C3A54389   7.420  28.829   6.992
 4072POPC   C4A54390   7.577  28.494   7.220
 4072POPC   C1B54391   7.710  28.224   6.271
 4072POPC   C2B54392   7.629  28.386   6.697
 4072POPC   C3B54393   7.915  28.178   7.007
 4072POPC   C4B54394   7.863  28.145   7.475
 4073POPC   NC354395  20.236   6.014   5.275
 4073POPC   PO454396  20.788   5.643   5.170
 4073POPC   GL154397  20.667   5.767   5.628
 4073POPC   GL254398  20.801   5.490   5.832
 4073POPC   C1A54399  20.610   5.998   6.092
 4073POPC   D2A54400  20.645   6.151   6.552
 4073POPC   C3A54401  20.536   6.025   6.983
 4073POPC   C4A54402  20.558   5.886   7.437
 4073POPC   C1B54403  20.805   5.563   6.282
 4073POPC   C2B54404  20.636   5.621   6.677
 4073POPC   C3B54405  20.783   5.575   7.087
 4073POPC   C4B54406  20.634   5.405   7.500
 4074POPC   NC354407  33.354  39.519   5.445
 4074POPC   PO454408  32.976  39.046   5.139
 4074POPC   GL154409  32.969  39.099   5.610
 4074POPC   GL254410  32.792  39.418   5.701
 4074POPC   C1A54411  33.090  39.052   6.066
 4074POPC   D2A54412  33.340  39.116   6.456
 4074POPC   C3A54413  33.192  39.057   6.854
 4074POPC   C4A54414  33.211  39.218   7.236
 4074POPC   C1B54415  32.654  39.326   6.120
 4074POPC   C2B54416  32.828  39.210   6.520
 4074POPC   C3B54417  32.731  39.246   6.950
 4074POPC   C4B54418  32.772  39.416   7.346
 4075POPC   NC354419  16.479  41.900   5.405
 4075POPC   PO454420  16.674  42.542   5.382
 4075POPC   GL154421  16.745  42.399   5.797
 4075POPC   GL254422  16.741  42.027   5.834
 4075POPC   C1A54423  16.637  42.576   6.213
 4075POPC   D2A54424  16.449  42.427   6.590
 4075POPC   C3A54425  16.669  42.260   6.980
 4075POPC   C4A54426  16.856  42.519   7.329
 4075POPC   C1B54427  16.950  42.163   6.221
 4075POPC   C2B54428  16.993  42.402   6.616
 4075POPC   C3B54429  17.176  42.252   7.016
 4075POPC   C4B54430  17.114  42.039   7.439
 4076POPC   NC354431  35.062  37.155   5.447
 4076POPC   PO454432  35.490  36.706   5.065
 4076POPC   GL154433  35.422  36.763   5.535
 4076POPC   GL254434  35.100  36.715   5.705
 4076POPC   C1A54435  35.503  36.822   5.989
 4076POPC   D2A54436  35.465  37.134   6.301
 4076POPC   C3A54437  35.501  37.034   6.749
 4076POPC   C4A54438  35.735  36.965   7.139
 4076POPC   C1B54439  35.008  36.991   6.088
 4076POPC   C2B54440  35.014  36.946   6.538
 4076POPC   C3B54441  35.035  37.112   6.951
 4076POPC   C4B54442  35.235  36.832   7.210
 4077POPC   NC354443  32.964  23.361   5.327
 4077POPC   PO454444  32.993  23.952   5.199
 4077POPC   GL154445  32.856  23.978   5.647
 4077POPC   GL254446  32.825  23.646   5.796
 4077POPC   C1A54447  32.893  24.103   6.116
 4077POPC   D2A54448  32.679  24.152   6.522
 4077POPC   C3A54449  32.807  23.945   6.937
 4077POPC   C4A54450  33.160  23.846   7.195
 4077POPC   C1B54451  33.105  23.566   6.164
 4077POPC   C2B54452  33.046  23.261   6.506
 4077POPC   C3B54453  32.992  23.424   6.914
 4077POPC   C4B54454  32.907  23.331   7.308
 4078POPC   NC354455   0.737  20.990   5.476
 4078POPC   PO454456   0.302  20.381   5.346
 4078POPC   GL154457   0.302  20.412   5.781
 4078POPC   GL254458   0.403  20.754   5.760
 4078POPC   C1A54459   0.571  20.463   6.165
 4078POPC   D2A54460   0.734  20.340   6.573
 4078POPC   C3A54461   0.475  20.389   6.969
 4078POPC   C4A54462   0.546  20.613   7.384
 4078POPC   C1B54463   0.547  20.969   6.140
 4078POPC   C2B54464   0.483  20.806   6.574
 4078POPC   C3B54465   0.489  20.948   6.997
 4078POPC   C4B54466   0.211  21.023   7.341
 4079POPC   NC354467  22.011  39.576   5.540
 4079POPC   PO454468  21.949  40.201   5.538
 4079POPC   GL154469  22.067  39.998   5.878
 4079POPC   GL254470  22.426  40.019   5.913
 4079POPC   C1A54471  22.087  39.959   6.308
 4079POPC   D2A54472  22.271  40.018   6.684
 4079POPC   C3A54473  22.082  39.877   7.063
 4079POPC   C4A54474  22.018  39.638   7.453
 4079POPC   C1B54475  22.525  40.309   6.276
 4079POPC   C2B54476  22.491  40.487   6.715
 4079POPC   C3B54477  22.362  40.294   7.127
 4079POPC   C4B54478  22.416  39.973   7.455
 4080POPC   NC354479  44.894  28.949   5.464
 4080POPC   PO454480  44.434  29.472   5.424
 4080POPC   GL154481  44.614  29.460   5.847
 4080POPC   GL254482  44.855  29.194   5.929
 4080POPC   C1A54483  44.624  29.530   6.304
 4080POPC   D2A54484  44.791  29.295   6.666
 4080POPC   C3A54485  44.530  29.295   7.050
 4080POPC   C4A54486  44.692  29.552   7.373
 4080POPC   C1B54487  44.625  28.988   6.291
 4080POPC   C2B54488  44.540  28.851   6.702
 4080POPC   C3B54489  44.823  28.866   7.027
 4080POPC   C4B54490  44.778  28.645   7.376
 4081POPC   NC354491  26.704  24.952   5.275
 4081POPC   PO454492  26.886  25.656   5.390
 4081POPC   GL154493  26.717  25.373   5.708
 4081POPC   GL254494  26.785  25.065   5.855
 4081POPC   C1A54495  26.505  25.397   6.111
 4081POPC   D2A54496  26.342  25.073   6.378
 4081POPC   C3A54497  26.464  25.047   6.787
 4081POPC   C4A54498  26.764  25.123   7.111
 4081POPC   C1B54499  26.918  25.131   6.300
 4081POPC   C2B54500  27.235  25.317   6.594
 4081POPC   C3B54501  27.288  25.228   7.058
 4081POPC   C4B54502  27.145  24.932   7.378
 4082POPC   NC354503  25.230  14.963   5.360
 4082POPC   PO454504  24.707  15.280   5.338
 4082POPC   GL154505  24.983  15.243   5.753
 4082POPC   GL254506  25.385  15.183   5.783
 4082POPC   C1A54507  25.132  15.227   6.215
 4082POPC   D2A54508  25.357  15.075   6.580
 4082POPC   C3A54509  25.200  15.185   6.994
 4082POPC   C4A54510  25.123  15.220   7.422
 4082POPC   C1B54511  25.677  14.935   6.085
 4082POPC   C2B54512  25.808  14.830   6.545
 4082POPC   C3B54513  25.668  14.951   6.993
 4082POPC   C4B54514  25.459  14.809   7.381
 4083POPC   NC354515  24.981  11.795   5.403
 4083POPC   PO454516  24.341  12.085   5.322
 4083POPC   GL154517  24.565  12.096   5.713
 4083POPC   GL254518  24.224  12.081   5.831
 4083POPC   C1A54519  24.697  12.101   6.173
 4083POPC   D2A54520  24.894  12.072   6.603
 4083POPC   C3A54521  24.717  12.193   6.994
 4083POPC   C4A54522  24.686  11.989   7.402
 4083POPC   C1B54523  24.181  12.109   6.256
 4083POPC   C2B54524  24.356  12.006   6.638
 4083POPC   C3B54525  24.279  11.936   7.037
 4083POPC   C4B54526  24.266  12.258   7.301
 4084POPC   NC354527   2.988  37.257   5.606
 4084POPC   PO454528   2.656  36.682   5.380
 4084POPC   GL154529   2.750  36.863   5.798
 4084POPC   GL254530   2.538  37.087   5.879
 4084POPC   C1A54531   3.004  37.039   6.187
 4084POPC   D2A54532   2.970  36.945   6.607
 4084POPC   C3A54533   2.959  37.114   6.996
 4084POPC   C4A54534   2.884  36.976   7.432
 4084POPC   C1B54535   2.538  36.934   6.312
 4084POPC   C2B54536   2.524  37.174   6.708
 4084POPC   C3B54537   2.477  36.983   7.122
 4084POPC   C4B54538   2.216  37.097   7.466
 4085POPC   NC354539  37.932  19.985   5.422
 4085POPC   PO454540  37.809  19.354   5.411
 4085POPC   GL154541  37.662  19.686   5.750
 4085POPC   GL254542  37.867  19.924   5.953
 4085POPC   C1A54543  37.532  19.603   6.192
 4085POPC   D2A54544  37.618  19.431   6.606
 4085POPC   C3A54545  37.366  19.540   6.945
 4085POPC   C4A54546  37.404  19.852   7.252
 4085POPC   C1B54547  37.903  19.856   6.449
 4085POPC   C2B54548  37.828  19.831   6.923
 4085POPC   C3B54549  37.910  19.954   7.358
 4085POPC   C4B54550  37.999  20.227   7.757
 4086POPC   NC354551   9.307  41.962   5.264
 4086POPC   PO454552   8.983  42.487   5.181
 4086POPC   GL154553   9.009  42.289   5.621
 4086POPC   GL254554   9.288  42.072   5.762
 4086POPC   C1A54555   8.876  42.223   6.053
 4086POPC   D2A54556   8.985  42.149   6.505
 4086POPC   C3A54557   8.707  42.155   6.838
 4086POPC   C4A54558   8.742  42.306   7.251
 4086POPC   C1B54559   9.381  42.206   6.182
 4086POPC   C2B54560   9.444  42.329   6.627
 4086POPC   C3B54561   9.209  42.236   7.026
 4086POPC   C4B54562   9.290  42.333   7.460
 4087POPC   NC354563   6.528  34.043   5.528
 4087POPC   PO454564   6.960  33.620   5.401
 4087POPC   GL154565   6.715  33.658   5.808
 4087POPC   GL254566   6.379  33.590   5.784
 4087POPC   C1A54567   6.610  33.915   6.189
 4087POPC   D2A54568   6.791  33.945   6.584
 4087POPC   C3A54569   6.625  33.933   6.992
 4087POPC   C4A54570   6.906  33.952   7.346
 4087POPC   C1B54571   6.276  33.535   6.199
 4087POPC   C2B54572   6.498  33.522   6.605
 4087POPC   C3B54573   6.286  33.565   6.997
 4087POPC   C4B54574   6.400  33.493   7.427
 4088POPC   NC354575   8.954  15.765   5.357
 4088POPC   PO454576   8.837  16.446   5.377
 4088POPC   GL154577   8.705  16.085   5.670
 4088POPC   GL254578   9.010  15.939   5.867
 4088POPC   C1A54579   8.560  16.086   6.095
 4088POPC   D2A54580   8.739  16.047   6.485
 4088POPC   C3A54581   8.668  16.243   6.863
 4088POPC   C4A54582   8.845  15.941   7.125
 4088POPC   C1B54583   9.122  15.629   6.226
 4088POPC   C2B54584   9.147  15.393   6.631
 4088POPC   C3B54585   9.225  15.619   7.012
 4088POPC   C4B54586   9.282  15.916   7.373
 4089POPC   NC354587  12.456  25.598   5.362
 4089POPC   PO454588  12.957  26.050   5.402
 4089POPC   GL154589  12.723  25.929   5.789
 4089POPC   GL254590  12.483  26.202   5.744
 4089POPC   C1A54591  12.816  25.767   6.242
 4089POPC   D2A54592  13.086  25.765   6.627
 4089POPC   C3A54593  12.961  25.961   7.032
 4089POPC   C4A54594  12.969  26.252   7.421
 4089POPC   C1B54595  12.583  26.209   6.214
 4089POPC   C2B54596  12.563  26.026   6.661
 4089POPC   C3B54597  12.549  26.243   7.093
 4089POPC   C4B54598  12.537  26.545   7.434
 4090POPC   NC354599  12.024   9.571   5.367
 4090POPC   PO454600  12.146  10.269   5.608
 4090POPC   GL154601  12.193   9.866   5.811
 4090POPC   GL254602  11.904   9.682   5.847
 4090POPC   C1A54603  12.254   9.652   6.214
 4090POPC   D2A54604  12.176   9.817   6.622
 4090POPC   C3A54605  12.222   9.607   7.010
 4090POPC   C4A54606  12.230   9.760   7.408
 4090POPC   C1B54607  11.832   9.969   6.190
 4090POPC   C2B54608  11.705  10.047   6.613
 4090POPC   C3B54609  11.865   9.998   7.020
 4090POPC   C4B54610  11.735   9.675   7.278
 4091POPC   NC354611  42.653  39.893   5.380
 4091POPC   PO454612  42.032  39.756   5.277
 4091POPC   GL154613  42.218  39.958   5.690
 4091POPC   GL254614  42.454  40.233   5.731
 4091POPC   C1A54615  42.352  39.938   6.165
 4091POPC   D2A54616  42.365  39.711   6.572
 4091POPC   C3A54617  42.438  39.914   6.962
 4091POPC   C4A54618  42.186  40.031   7.337
 4091POPC   C1B54619  42.224  40.432   6.114
 4091POPC   C2B54620  42.191  40.301   6.557
 4091POPC   C3B54621  42.253  40.409   6.995
 4091POPC   C4B54622  42.621  40.296   7.233
 4092POPC   NC354623  35.386  21.306   5.307
 4092POPC   PO454624  35.186  20.580   5.289
 4092POPC   GL154625  35.334  20.731   5.714
 4092POPC   GL254626  35.048  20.846   5.784
 4092POPC   C1A54627  35.478  20.649   6.168
 4092POPC   D2A54628  35.295  20.635   6.565
 4092POPC   C3A54629  35.442  20.775   6.934
 4092POPC   C4A54630  35.781  20.637   7.148
 4092POPC   C1B54631  35.103  20.978   6.174
 4092POPC   C2B54632  35.273  21.154   6.533
 4092POPC   C3B54633  34.994  21.055   6.846
 4092POPC   C4B54634  34.969  20.854   7.253
 4093POPC   NC354635  32.315   4.120   5.269
 4093POPC   PO454636  32.102   4.687   5.505
 4093POPC   GL154637  32.087   4.371   5.841
 4093POPC   GL254638  32.197   4.021   5.811
 4093POPC   C1A54639  32.030   4.305   6.282
 4093POPC   D2A54640  32.218   4.428   6.643
 4093POPC   C3A54641  32.345   4.221   7.000
 4093POPC   C4A54642  32.171   4.364   7.376
 4093POPC   C1B54643  32.042   3.817   6.171
 4093POPC   C2B54644  32.085   3.926   6.632
 4093POPC   C3B54645  31.938   3.937   7.062
 4093POPC   C4B54646  31.989   3.901   7.495
 4094POPC   NC354647  10.781  22.347   5.269
 4094POPC   PO454648  11.459  22.205   5.327
 4094POPC   GL154649  11.370  22.316   5.791
 4094POPC   GL254650  11.694  22.295   5.941
 4094POPC   C1A54651  11.083  22.139   6.151
 4094POPC   D2A54652  10.850  22.342   6.498
 4094POPC   C3A54653  10.968  22.272   6.926
 4094POPC   C4A54654  10.926  22.114   7.351
 4094POPC   C1B54655  11.535  22.222   6.357
 4094POPC   C2B54656  11.495  22.245   6.777
 4094POPC   C3B54657  11.401  22.088   7.127
 4094POPC   C4B54658  11.528  22.149   7.490
 4095POPC   NC354659  26.060   6.229   5.445
 4095POPC   PO454660  26.628   5.900   5.466
 4095POPC   GL154661  26.845   6.029   5.851
 4095POPC   GL254662  26.646   6.297   5.883
 4095POPC   C1A54663  27.073   5.916   6.230
 4095POPC   D2A54664  27.011   5.986   6.675
 4095POPC   C3A54665  26.658   5.798   6.915
 4095POPC   C4A54666  26.585   5.766   7.370
 4095POPC   C1B54667  26.798   6.339   6.299
 4095POPC   C2B54668  26.593   6.306   6.698
 4095POPC   C3B54669  26.606   6.254   7.139
 4095POPC   C4B54670  26.666   6.226   7.587
 4096POPC   NC354671   2.168   1.669   5.200
 4096POPC   PO454672   1.692   2.190   5.380
 4096POPC   GL154673   1.777   2.066   5.797
 4096POPC   GL254674   1.981   1.792   5.682
 4096POPC   C1A54675   1.853   2.228   6.216
 4096POPC   D2A54676   1.648   2.273   6.616
 4096POPC   C3A54677   1.924   2.112   6.925
 4096POPC   C4A54678   1.799   2.091   7.321
 4096POPC   C1B54679   2.000   1.739   6.137
 4096POPC   C2B54680   1.759   1.768   6.547
 4096POPC   C3B54681   1.756   1.556   6.949
 4096POPC   C4B54682   2.066   1.680   7.224
 4097POPC   NC354683  21.135   5.619   5.465
 4097POPC   PO454684  21.469   6.135   5.554
 4097POPC   GL154685  21.380   5.853   5.862
 4097POPC   GL254686  21.065   5.948   5.885
 4097POPC   C1A54687  21.323   5.586   6.213
 4097POPC   D2A54688  21.500   5.752   6.579
 4097POPC   C3A54689  21.357   5.622   6.997
 4097POPC   C4A54690  21.506   5.852   7.331
 4097POPC   C1B54691  21.097   6.036   6.312
 4097POPC   C2B54692  21.043   5.909   6.730
 4097POPC   C3B54693  21.015   6.032   7.145
 4097POPC   C4B54694  21.066   6.039   7.565
 4098POPC   NC354695  18.223  24.318   5.658
 4098POPC   PO454696  18.707  24.774   5.398
 4098POPC   GL154697  18.662  24.552   5.805
 4098POPC   GL254698  18.696  24.187   5.863
 4098POPC   C1A54699  18.448  24.602   6.215
 4098POPC   D2A54700  18.513  24.791   6.610
 4098POPC   C3A54701  18.258  24.592   6.958
 4098POPC   C4A54702  18.062  24.649   7.370
 4098POPC   C1B54703  18.473  24.086   6.252
 4098POPC   C2B54704  18.559  24.280   6.651
 4098POPC   C3B54705  18.612  24.236   7.080
 4098POPC   C4B54706  18.537  23.826   7.242
 4099POPC   NC354707  37.743   1.318   5.334
 4099POPC   PO454708  37.939   0.708   5.539
 4099POPC   GL154709  37.834   1.063   5.806
 4099POPC   GL254710  37.878   1.440   5.794
 4099POPC   C1A54711  37.486   1.230   6.078
 4099POPC   D2A54712  37.328   1.444   6.443
 4099POPC   C3A54713  37.487   1.278   6.795
 4099POPC   C4A54714  37.615   1.390   7.192
 4099POPC   C1B54715  37.982   1.379   6.189
 4099POPC   C2B54716  37.890   1.075   6.489
 4099POPC   C3B54717  37.959   1.136   6.914
 4099POPC   C4B54718  38.109   1.277   7.307
 4100POPC   NC354719  19.413  28.968   5.361
 4100POPC   PO454720  18.867  28.900   5.340
 4100POPC   GL154721  19.091  28.961   5.787
 4100POPC   GL254722  19.466  28.931   5.895
 4100POPC   C1A54723  19.090  28.936   6.270
 4100POPC   D2A54724  19.128  28.669   6.659
 4100POPC   C3A54725  19.069  28.775   7.108
 4100POPC   C4A54726  19.336  28.647   7.455
 4100POPC   C1B54727  19.583  29.044   6.375
 4100POPC   C2B54728  19.429  29.073   6.829
 4100POPC   C3B54729  19.379  29.142   7.286
 4100POPC   C4B54730  19.642  29.027   7.637
 4101POPC   NC354731  19.565  25.500   5.421
 4101POPC   PO454732  19.977  26.142   5.263
 4101POPC   GL154733  19.920  25.946   5.692
 4101POPC   GL254734  19.755  26.156   5.932
 4101POPC   C1A54735  20.114  25.845   6.123
 4101POPC   D2A54736  19.921  25.852   6.575
 4101POPC   C3A54737  19.870  25.992   6.994
 4101POPC   C4A54738  19.597  26.141   7.303
 4101POPC   C1B54739  20.014  26.308   6.327
 4101POPC   C2B54740  20.085  26.412   6.789
 4101POPC   C3B54741  19.987  26.568   7.232
 4101POPC   C4B54742  19.938  26.346   7.635
 4102POPC   NC354743  19.438  23.644   5.326
 4102POPC   PO454744  20.091  23.674   5.337
 4102POPC   GL154745  19.771  23.737   5.705
 4102POPC   GL254746  19.378  23.693   5.818
 4102POPC   C1A54747  19.772  23.941   6.080
 4102POPC   D2A54748  19.700  23.892   6.508
 4102POPC   C3A54749  19.573  24.158   6.817
 4102POPC   C4A54750  19.887  24.051   7.115
 4102POPC   C1B54751  19.542  23.497   6.199
 4102POPC   C2B54752  19.488  23.452   6.661
 4102POPC   C3B54753  19.342  23.221   7.016
 4102POPC   C4B54754  19.592  23.189   7.423
 4103POPC   NC354755  32.168  38.267   5.497
 4103POPC   PO454756  32.497  38.844   5.574
 4103POPC   GL154757  32.335  38.590   5.900
 4103POPC   GL254758  31.979  38.573   5.866
 4103POPC   C1A54759  32.556  38.321   6.211
 4103POPC   D2A54760  32.559  38.073   6.579
 4103POPC   C3A54761  32.659  38.215   6.997
 4103POPC   C4A54762  32.537  38.458   7.360
 4103POPC   C1B54763  32.047  38.370   6.268
 4103POPC   C2B54764  32.258  38.545   6.619
 4103POPC   C3B54765  32.121  38.493   7.037
 4103POPC   C4B54766  31.805  38.415   7.309
 4104POPC   NC354767   7.796  27.006   5.584
 4104POPC   PO454768   7.260  26.692   5.293
 4104POPC   GL154769   7.203  26.819   5.713
 4104POPC   GL254770   7.252  27.187   5.721
 4104POPC   C1A54771   7.378  26.628   6.114
 4104POPC   D2A54772   7.176  26.538   6.522
 4104POPC   C3A54773   7.385  26.539   6.948
 4104POPC   C4A54774   7.398  26.795   7.353
 4104POPC   C1B54775   7.180  27.095   6.163
 4104POPC   C2B54776   7.475  26.992   6.498
 4104POPC   C3B54777   7.591  27.025   6.932
 4104POPC   C4B54778   7.718  27.241   7.308
 4105POPC   NC354779  20.816  13.664   5.235
 4105POPC   PO454780  20.263  13.457   5.402
 4105POPC   GL154781  20.648  13.490   5.686
 4105POPC   GL254782  20.463  13.308   5.927
 4105POPC   C1A54783  20.794  13.676   6.092
 4105POPC   D2A54784  20.535  13.712   6.475
 4105POPC   C3A54785  20.738  13.697   6.877
 4105POPC   C4A54786  20.842  13.443   7.219
 4105POPC   C1B54787  20.132  13.225   6.229
 4105POPC   C2B54788  20.164  13.395   6.665
 4105POPC   C3B54789  20.363  13.366   7.057
 4105POPC   C4B54790  20.391  13.550   7.463
 4106POPC   NC354791   0.899  11.835   5.436
 4106POPC   PO454792   1.568  11.966   5.351
 4106POPC   GL154793   1.377  12.119   5.744
 4106POPC   GL254794   1.029  12.134   5.847
 4106POPC   C1A54795   1.351  12.148   6.221
 4106POPC   D2A54796   1.028  12.150   6.493
 4106POPC   C3A54797   1.214  11.974   6.831
 4106POPC   C4A54798   1.228  12.144   7.183
 4106POPC   C1B54799   1.057  11.749   6.083
 4106POPC   C2B54800   0.929  11.636   6.475
 4106POPC   C3B54801   0.746  11.828   6.804
 4106POPC   C4B54802   0.944  11.710   7.191
 4107POPC   NC354803  21.142   9.320   5.287
 4107POPC   PO454804  21.222   8.674   5.304
 4107POPC   GL154805  21.210   8.766   5.809
 4107POPC   GL254806  21.303   9.147   5.816
 4107POPC   C1A54807  21.147   8.695   6.307
 4107POPC   D2A54808  21.234   9.026   6.652
 4107POPC   C3A54809  21.078   8.929   7.048
 4107POPC   C4A54810  21.198   8.608   7.315
 4107POPC   C1B54811  21.509   9.029   6.212
 4107POPC   C2B54812  21.641   8.705   6.545
 4107POPC   C3B54813  21.585   8.781   6.996
 4107POPC   C4B54814  21.480   9.213   7.176
 4108POPC   NC354815  21.881  30.838   5.422
 4108POPC   PO454816  21.266  30.504   5.517
 4108POPC   GL154817  21.173  30.753   5.875
 4108POPC   GL254818  21.475  30.915   5.810
 4108POPC   C1A54819  21.047  30.651   6.295
 4108POPC   D2A54820  21.015  30.666   6.743
 4108POPC   C3A54821  21.146  30.295   7.038
 4108POPC   C4A54822  21.320  30.348   7.487
 4108POPC   C1B54823  21.582  30.660   6.185
 4108POPC   C2B54824  21.470  30.503   6.598
 4108POPC   C3B54825  21.563  30.563   7.046
 4108POPC   C4B54826  21.837  30.442   7.396
 4109POPC   NC354827  13.171  13.767   5.479
 4109POPC   PO454828  12.589  13.924   5.348
 4109POPC   GL154829  12.765  13.892   5.785
 4109POPC   GL254830  12.903  13.517   5.844
 4109POPC   C1A54831  12.906  13.866   6.227
 4109POPC   D2A54832  12.737  13.665   6.587
 4109POPC   C3A54833  12.814  13.902   6.936
 4109POPC   C4A54834  13.045  13.957   7.336
 4109POPC   C1B54835  13.190  13.419   6.196
 4109POPC   C2B54836  13.264  13.599   6.616
 4109POPC   C3B54837  13.071  13.486   7.029
 4109POPC   C4B54838  12.766  13.513   7.357
 4110POPC   NC354839  25.996   4.197   5.455
 4110POPC   PO454840  26.564   4.379   5.492
 4110POPC   GL154841  26.239   4.445   5.862
 4110POPC   GL254842  25.884   4.523   5.926
 4110POPC   C1A54843  26.167   4.523   6.336
 4110POPC   D2A54844  25.987   4.803   6.664
 4110POPC   C3A54845  26.129   4.650   7.059
 4110POPC   C4A54846  26.314   4.414   7.417
 4110POPC   C1B54847  25.654   4.574   6.321
 4110POPC   C2B54848  25.746   4.344   6.694
 4110POPC   C3B54849  25.714   4.291   7.148
 4110POPC   C4B54850  25.442   4.323   7.539
 4111POPC   NC354851  32.112  35.830   5.350
 4111POPC   PO454852  32.282  35.201   5.355
 4111POPC   GL154853  32.385  35.196   5.786
 4111POPC   GL254854  32.188  35.489   5.881
 4111POPC   C1A54855  32.394  35.033   6.208
 4111POPC   D2A54856  32.115  34.831   6.487
 4111POPC   C3A54857  32.139  35.024   6.880
 4111POPC   C4A54858  31.878  35.085   7.209
 4111POPC   C1B54859  32.022  35.385   6.303
 4111POPC   C2B54860  32.123  35.549   6.728
 4111POPC   C3B54861  32.211  35.469   7.172
 4111POPC   C4B54862  32.245  35.542   7.617
 4112POPC   NC354863  34.155  15.525   5.382
 4112POPC   PO454864  34.832  15.346   5.373
 4112POPC   GL154865  34.768  15.187   5.776
 4112POPC   GL254866  34.439  15.060   5.787
 4112POPC   C1A54867  34.575  15.307   6.212
 4112POPC   D2A54868  34.377  15.365   6.637
 4112POPC   C3A54869  34.616  15.191   6.992
 4112POPC   C4A54870  34.683  15.422   7.377
 4112POPC   C1B54871  34.338  14.838   6.183
 4112POPC   C2B54872  34.167  14.897   6.601
 4112POPC   C3B54873  34.233  14.845   7.038
 4112POPC   C4B54874  34.391  14.950   7.438
 4113POPC   NC354875   0.182  22.341   5.426
 4113POPC   PO454876   0.689  22.018   5.197
 4113POPC   GL154877   0.570  22.067   5.657
 4113POPC   GL254878   0.555  22.417   5.773
 4113POPC   C1A54879   0.337  22.045   6.095
 4113POPC   D2A54880   0.260  21.837   6.517
 4113POPC   C3A54881   0.292  22.026   6.943
 4113POPC   C4A54882   0.354  21.856   7.382
 4113POPC   C1B54883   0.393  22.563   6.139
 4113POPC   C2B54884   0.349  22.372   6.543
 4113POPC   C3B54885   0.465  22.518   6.956
 4113POPC   C4B54886   0.390  22.377   7.370
 4114POPC   NC354887  39.349   6.636   5.333
 4114POPC   PO454888  38.760   6.927   5.350
 4114POPC   GL154889  39.028   6.657   5.731
 4114POPC   GL254890  39.437   6.683   5.814
 4114POPC   C1A54891  39.178   6.456   6.166
 4114POPC   D2A54892  39.398   6.342   6.569
 4114POPC   C3A54893  39.176   6.584   6.891
 4114POPC   C4A54894  39.020   6.584   7.300
 4114POPC   C1B54895  39.675   6.651   6.205
 4114POPC   C2B54896  39.564   6.830   6.616
 4114POPC   C3B54897  39.587   6.832   7.064
 4114POPC   C4B54898  39.548   6.719   7.513
 4115POPC   NC354899  15.642  21.023   5.408
 4115POPC   PO454900  16.016  21.577   5.326
 4115POPC   GL154901  15.987  21.533   5.787
 4115POPC   GL254902  15.834  21.207   5.890
 4115POPC   C1A54903  15.885  21.663   6.231
 4115POPC   D2A54904  15.892  21.775   6.677
 4115POPC   C3A54905  15.927  21.526   7.083
 4115POPC   C4A54906  15.966  21.609   7.569
 4115POPC   C1B54907  16.136  21.224   6.269
 4115POPC   C2B54908  16.242  21.256   6.714
 4115POPC   C3B54909  16.175  21.004   7.101
 4115POPC   C4B54910  16.170  20.802   7.531
 4116POPC   NC354911   7.521  18.163   5.430
 4116POPC   PO454912   7.307  18.789   5.346
 4116POPC   GL154913   7.279  18.574   5.739
 4116POPC   GL254914   6.983  18.348   5.693
 4116POPC   C1A54915   7.462  18.378   6.129
 4116POPC   D2A54916   7.707  18.202   6.490
 4116POPC   C3A54917   7.558  18.367   6.869
 4116POPC   C4A54918   7.471  18.559   7.253
 4116POPC   C1B54919   6.938  18.493   6.131
 4116POPC   C2B54920   7.154  18.518   6.549
 4116POPC   C3B54921   7.002  18.456   6.996
 4116POPC   C4B54922   7.052  18.355   7.442
 4117POPC   NC354923  12.428  15.499   5.529
 4117POPC   PO454924  12.080  16.109   5.355
 4117POPC   GL154925  12.083  16.152   5.788
 4117POPC   GL254926  12.326  15.917   5.873
 4117POPC   C1A54927  12.094  16.253   6.234
 4117POPC   D2A54928  11.794  16.087   6.519
 4117POPC   C3A54929  11.867  15.874   6.922
 4117POPC   C4A54930  12.160  16.034   7.204
 4117POPC   C1B54931  12.110  15.725   6.258
 4117POPC   C2B54932  12.202  15.546   6.680
 4117POPC   C3B54933  12.461  15.641   7.031
 4117POPC   C4B54934  12.521  15.644   7.481
 4118POPC   NC354935  39.424  31.618   5.394
 4118POPC   PO454936  38.846  31.226   5.462
 4118POPC   GL154937  39.147  31.388   5.785
 4118POPC   GL254938  38.893  31.285   5.992
 4118POPC   C1A54939  39.289  31.493   6.221
 4118POPC   D2A54940  39.474  31.291   6.607
 4118POPC   C3A54941  39.315  31.554   6.958
 4118POPC   C4A54942  39.391  31.628   7.399
 4118POPC   C1B54943  38.778  31.627   6.255
 4118POPC   C2B54944  38.857  31.751   6.640
 4118POPC   C3B54945  38.811  31.496   6.953
 4118POPC   C4B54946  38.917  31.351   7.319
 4119POPC   NC354947  40.082  42.339   5.310
 4119POPC   PO454948  39.593  41.956   5.532
 4119POPC   GL154949  39.912  42.186   5.772
 4119POPC   GL254950  40.288  42.093   5.704
 4119POPC   C1A54951  39.897  42.401   6.162
 4119POPC   D2A54952  39.857  42.215   6.562
 4119POPC   C3A54953  39.675  42.396   6.947
 4119POPC   C4A54954  39.900  42.505   7.331
 4119POPC   C1B54955  40.273  42.009   6.138
 4119POPC   C2B54956  40.337  42.050   6.596
 4119POPC   C3B54957  40.165  42.197   6.989
 4119POPC   C4B54958  40.325  42.197   7.411
 4120POPC   NC354959   9.957  38.103   5.570
 4120POPC   PO454960   9.509  38.660   5.586
 4120POPC   GL154961   9.625  38.357   5.902
 4120POPC   GL254962   9.986  38.453   5.974
 4120POPC   C1A54963   9.615  38.390   6.366
 4120POPC   D2A54964   9.562  38.209   6.793
 4120POPC   C3A54965   9.635  38.428   7.158
 4120POPC   C4A54966   9.845  38.670   7.498
 4120POPC   C1B54967  10.049  38.107   6.246
 4120POPC   C2B54968  10.173  37.931   6.621
 4120POPC   C3B54969  10.021  38.042   7.013
 4120POPC   C4B54970  10.025  38.168   7.449
 4121POPC   NC354971  12.158   8.583   5.446
 4121POPC   PO454972  11.889   7.922   5.439
 4121POPC   GL154973  12.053   8.161   5.792
 4121POPC   GL254974  11.953   8.498   5.892
 4121POPC   C1A54975  12.123   8.179   6.254
 4121POPC   D2A54976  11.981   7.949   6.601
 4121POPC   C3A54977  12.122   8.159   6.964
 4121POPC   C4A54978  11.903   8.277   7.339
 4121POPC   C1B54979  11.764   8.588   6.262
 4121POPC   C2B54980  11.885   8.523   6.652
 4121POPC   C3B54981  11.812   8.685   7.042
 4121POPC   C4B54982  12.093   8.787   7.350
 4122POPC   NC354983  27.709   9.377   5.664
 4122POPC   PO454984  27.584   9.883   5.228
 4122POPC   GL154985  27.467   9.875   5.694
 4122POPC   GL254986  27.130  10.042   5.720
 4122POPC   C1A54987  27.595   9.769   6.179
 4122POPC   D2A54988  27.471   9.797   6.635
 4122POPC   C3A54989  27.617   9.571   7.008
 4122POPC   C4A54990  27.818   9.345   7.365
 4122POPC   C1B54991  27.407  10.264   6.049
 4122POPC   C2B54992  27.412  10.315   6.523
 4122POPC   C3B54993  27.329  10.181   6.971
 4122POPC   C4B54994  27.467   9.914   7.355
 4123POPC   NC354995  25.904  41.904   5.510
 4123POPC   PO454996  26.469  41.507   5.585
 4123POPC   GL154997  26.267  41.748   5.847
 4123POPC   GL254998  25.974  41.527   5.871
 4123POPC   C1A54999  26.115  41.881   6.236
 4123POPC   D2A55000  26.184  41.710   6.630
 4123POPC   C3A55001  26.087  41.883   6.996
 4123POPC   C4A55002  25.746  41.807   7.185
 4123POPC   C1B55003  26.153  41.212   6.168
 4123POPC   C2B55004  25.995  41.046   6.581
 4123POPC   C3B55005  25.958  41.329   6.911
 4123POPC   C4B55006  26.105  41.423   7.284
 4124POPC   NC355007  29.717   6.849   5.369
 4124POPC   PO455008  30.160   6.273   5.449
 4124POPC   GL155009  30.112   6.558   5.809
 4124POPC   GL255010  29.760   6.643   5.821
 4124POPC   C1A55011  30.062   6.727   6.248
 4124POPC   D2A55012  29.864   6.905   6.615
 4124POPC   C3A55013  29.969   6.698   6.983
 4124POPC   C4A55014  30.289   6.835   7.241
 4124POPC   C1B55015  29.587   6.460   6.152
 4124POPC   C2B55016  29.649   6.444   6.572
 4124POPC   C3B55017  29.717   6.242   6.946
 4124POPC   C4B55018  29.849   6.344   7.342
 4125POPC   NC355019  26.282  23.337   5.546
 4125POPC   PO455020  26.791  23.759   5.233
 4125POPC   GL155021  26.722  23.721   5.688
 4125POPC   GL255022  26.756  23.362   5.792
 4125POPC   C1A55023  26.849  23.936   6.086
 4125POPC   D2A55024  26.969  23.760   6.514
 4125POPC   C3A55025  26.880  23.908   6.922
 4125POPC   C4A55026  26.938  23.676   7.283
 4125POPC   C1B55027  26.601  23.497   6.214
 4125POPC   C2B55028  26.480  23.585   6.652
 4125POPC   C3B55029  26.473  23.568   7.105
 4125POPC   C4B55030  26.523  23.584   7.589
 4126POPC   NC355031  29.924  21.818   5.546
 4126POPC   PO455032  29.901  22.472   5.485
 4126POPC   GL155033  30.032  22.243   5.836
 4126POPC   GL255034  30.323  22.217   5.680
 4126POPC   C1A55035  30.013  21.903   6.175
 4126POPC   D2A55036  29.979  21.645   6.529
 4126POPC   C3A55037  29.919  21.947   6.853
 4126POPC   C4A55038  29.684  21.975   7.233
 4126POPC   C1B55039  30.453  22.165   6.122
 4126POPC   C2B55040  30.288  22.213   6.525
 4126POPC   C3B55041  30.380  22.207   6.957
 4126POPC   C4B55042  30.174  22.091   7.303
 4127POPC   NC355043  44.027  39.219   5.480
 4127POPC   PO455044  43.581  38.811   5.373
 4127POPC   GL155045  43.601  39.088   5.736
 4127POPC   GL255046  43.541  39.420   5.629
 4127POPC   C1A55047  43.840  39.187   6.137
 4127POPC   D2A55048  44.099  39.328   6.502
 4127POPC   C3A55049  44.070  39.183   6.949
 4127POPC   C4A55050  43.778  38.972   7.216
 4127POPC   C1B55051  43.507  39.563   6.071
 4127POPC   C2B55052  43.765  39.702   6.398
 4127POPC   C3B55053  43.783  39.597   6.827
 4127POPC   C4B55054  43.759  39.487   7.247
 4128POPC   NC355055  16.928   2.225   5.439
 4128POPC   PO455056  17.506   1.812   5.273
 4128POPC   GL155057  17.334   1.964   5.651
 4128POPC   GL255058  17.633   1.878   5.793
 4128POPC   C1A55059  17.261   1.945   6.132
 4128POPC   D2A55060  17.452   2.021   6.586
 4128POPC   C3A55061  17.292   2.050   7.031
 4128POPC   C4A55062  17.222   2.224   7.439
 4128POPC   C1B55063  17.796   1.965   6.199
 4128POPC   C2B55064  17.943   1.867   6.587
 4128POPC   C3B55065  17.855   1.764   6.992
 4128POPC   C4B55066  17.632   1.670   7.350
 4129POPC   NC355067   1.137  35.408   5.266
 4129POPC   PO455068   1.751  35.336   5.503
 4129POPC   GL155069   1.338  35.290   5.727
 4129POPC   GL255070   0.987  35.125   5.682
 4129POPC   C1A55071   1.150  35.414   6.106
 4129POPC   D2A55072   1.266  35.334   6.518
 4129POPC   C3A55073   1.259  35.571   6.914
 4129POPC   C4A55074   1.282  35.297   7.289
 4129POPC   C1B55075   0.735  35.050   6.092
 4129POPC   C2B55076   0.814  34.980   6.543
 4129POPC   C3B55077   0.989  35.131   6.911
 4129POPC   C4B55078   0.798  35.211   7.310
 4130POPC   NC355079   6.160  11.909   5.487
 4130POPC   PO455080   5.560  12.148   5.404
 4130POPC   GL155081   5.819  12.233   5.743
 4130POPC   GL255082   5.773  11.898   5.882
 4130POPC   C1A55083   6.086  12.218   6.129
 4130POPC   D2A55084   5.916  12.029   6.495
 4130POPC   C3A55085   5.850  12.271   6.863
 4130POPC   C4A55086   6.049  12.253   7.258
 4130POPC   C1B55087   5.510  11.772   6.247
 4130POPC   C2B55088   5.579  11.693   6.679
 4130POPC   C3B55089   5.529  11.914   7.048
 4130POPC   C4B55090   5.716  11.875   7.459
 4131POPC   NC355091   1.042  10.885   5.715
 4131POPC   PO455092   0.640  10.447   5.356
 4131POPC   GL155093   0.489  10.284   5.836
 4131POPC   GL255094   0.121  10.247   5.836
 4131POPC   C1A55095   0.538  10.432   6.298
 4131POPC   D2A55096   0.697  10.649   6.671
 4131POPC   C3A55097   0.544  10.471   7.052
 4131POPC   C4A55098   0.458  10.263   7.428
 4131POPC   C1B55099   0.033  10.500   6.210
 4131POPC   C2B55100   0.155  10.490   6.653
 4131POPC   C3B55101   0.053  10.552   7.061
 4131POPC   C4B55102   0.202  10.741   7.384
 4132POPC   NC355103  17.800  10.098   5.552
 4132POPC   PO455104  18.340  10.585   5.436
 4132POPC   GL155105  18.112  10.480   5.782
 4132POPC   GL255106  17.986  10.826   5.805
 4132POPC   C1A55107  18.267  10.344   6.178
 4132POPC   D2A55108  18.567  10.453   6.482
 4132POPC   C3A55109  18.393  10.438   6.861
 4132POPC   C4A55110  18.358  10.455   7.285
 4132POPC   C1B55111  18.260  10.844   6.172
 4132POPC   C2B55112  18.325  11.011   6.595
 4132POPC   C3B55113  18.248  10.891   7.031
 4132POPC   C4B55114  18.023  10.796   7.462
 4133POPC   NC355115  23.000  22.611   5.122
 4133POPC   PO455116  22.699  23.103   5.474
 4133POPC   GL155117  22.954  22.940   5.825
 4133POPC   GL255118  22.943  23.242   5.989
 4133POPC   C1A55119  23.115  22.766   6.219
 4133POPC   D2A55120  23.056  22.538   6.624
 4133POPC   C3A55121  23.087  22.701   7.046
 4133POPC   C4A55122  22.658  22.721   7.273
 4133POPC   C1B55123  22.685  23.065   6.322
 4133POPC   C2B55124  22.764  22.963   6.751
 4133POPC   C3B55125  22.853  23.178   7.161
 4133POPC   C4B55126  23.103  23.373   7.463
 4134POPC   NC355127   6.397  37.833   5.317
 4134POPC   PO455128   6.990  37.374   5.404
 4134POPC   GL155129   6.892  37.515   5.840
 4134POPC   GL255130   6.759  37.873   5.855
 4134POPC   C1A55131   6.849  37.453   6.284
 4134POPC   D2A55132   6.958  37.331   6.710
 4134POPC   C3A55133   6.781  37.413   7.122
 4134POPC   C4A55134   6.800  37.762   7.433
 4134POPC   C1B55135   6.610  37.906   6.299
 4134POPC   C2B55136   6.637  37.752   6.736
 4134POPC   C3B55137   6.377  37.711   7.085
 4134POPC   C4B55138   6.077  38.031   7.075
 4135POPC   NC355139   6.848  35.539   5.470
 4135POPC   PO455140   6.207  35.194   5.381
 4135POPC   GL155141   6.438  35.072   5.775
 4135POPC   GL255142   6.804  35.154   5.800
 4135POPC   C1A55143   6.510  35.230   6.210
 4135POPC   D2A55144   6.808  35.247   6.562
 4135POPC   C3A55145   6.570  35.198   6.941
 4135POPC   C4A55146   6.587  35.513   7.232
 4135POPC   C1B55147   6.948  35.504   6.110
 4135POPC   C2B55148   7.073  35.690   6.520
 4135POPC   C3B55149   7.012  35.611   6.937
 4135POPC   C4B55150   7.041  35.226   7.156
 4136POPC   NC355151  18.170  34.330   5.306
 4136POPC   PO455152  18.690  34.159   5.689
 4136POPC   GL155153  18.399  34.427   5.906
 4136POPC   GL255154  18.193  34.704   5.859
 4136POPC   C1A55155  18.321  34.541   6.339
 4136POPC   D2A55156  18.128  34.292   6.664
 4136POPC   C3A55157  18.340  34.389   7.037
 4136POPC   C4A55158  18.541  34.793   7.152
 4136POPC   C1B55159  17.976  34.893   6.192
 4136POPC   C2B55160  18.150  34.965   6.623
 4136POPC   C3B55161  18.047  34.829   7.040
 4136POPC   C4B55162  18.091  34.612   7.425
 4137POPC   NC355163  27.788  43.887   5.462
 4137POPC   PO455164  27.108  43.909   5.327
 4137POPC   GL155165  27.379  43.973   5.755
 4137POPC   GL255166  27.587  43.653   5.856
 4137POPC   C1A55167  27.603  44.033   6.199
 4137POPC   D2A55168  27.950  43.951   6.529
 4137POPC   C3A55169  27.814  43.929   6.962
 4137POPC   C4A55170  27.371  44.010   7.113
 4137POPC   C1B55171  27.768  43.540   6.259
 4137POPC   C2B55172  27.602  43.566   6.685
 4137POPC   C3B55173  27.518  43.499   7.133
 4137POPC   C4B55174  27.666  43.388   7.575
 4138POPC   NC355175   4.340  42.409   5.277
 4138POPC   PO455176   4.646  41.848   5.411
 4138POPC   GL155177   4.604  42.215   5.706
 4138POPC   GL255178   4.297  42.420   5.795
 4138POPC   C1A55179   4.637  42.258   6.168
 4138POPC   D2A55180   4.382  42.175   6.555
 4138POPC   C3A55181   4.558  42.217   7.004
 4138POPC   C4A55182   4.566  42.619   7.279
 4138POPC   C1B55183   4.016  42.192   6.092
 4138POPC   C2B55184   3.878  41.959   6.479
 4138POPC   C3B55185   4.050  41.994   6.902
 4138POPC   C4B55186   4.081  42.340   7.200
 4139POPC   NC355187   4.193   0.752   5.319
 4139POPC   PO455188   4.355   0.134   5.244
 4139POPC   GL155189   4.256   0.473   5.718
 4139POPC   GL255190   4.006   0.726   5.792
 4139POPC   C1A55191   4.085   0.413   6.170
 4139POPC   D2A55192   4.186   0.566   6.558
 4139POPC   C3A55193   4.299   0.260   6.866
 4139POPC   C4A55194   4.683   0.245   7.070
 4139POPC   C1B55195   4.031   0.956   6.200
 4139POPC   C2B55196   3.873   0.958   6.637
 4139POPC   C3B55197   3.955   0.662   6.989
 4139POPC   C4B55198   4.323   0.605   7.252
 4140POPC   NC355199  39.844   0.703   5.400
 4140POPC   PO455200  40.143   1.225   5.367
 4140POPC   GL155201  39.916   1.272   5.775
 4140POPC   GL255202  39.614   1.501   5.739
 4140POPC   C1A55203  39.805   1.108   6.200
 4140POPC   D2A55204  39.949   1.066   6.623
 4140POPC   C3A55205  39.819   1.002   7.034
 4140POPC   C4A55206  40.075   1.246   7.332
 4140POPC   C1B55207  39.788   1.629   6.134
 4140POPC   C2B55208  39.744   1.514   6.537
 4140POPC   C3B55209  39.946   1.527   6.912
 4140POPC   C4B55210  39.717   1.636   7.275
 4141POPC   NC355211  42.943  41.532   5.422
 4141POPC   PO455212  43.569  41.733   5.444
 4141POPC   GL155213  43.319  41.723   5.810
 4141POPC   GL255214  43.013  41.548   5.929
 4141POPC   C1A55215  43.426  41.613   6.237
 4141POPC   D2A55216  43.489  41.664   6.678
 4141POPC   C3A55217  43.093  41.567   6.894
 4141POPC   C4A55218  42.992  41.571   7.329
 4141POPC   C1B55219  42.811  41.210   6.217
 4141POPC   C2B55220  42.792  41.061   6.654
 4141POPC   C3B55221  42.744  41.210   7.082
 4141POPC   C4B55222  42.691  41.231   7.578
 4142POPC   NC355223  21.770  36.524   5.244
 4142POPC   PO455224  21.372  37.113   5.309
 4142POPC   GL155225  21.430  36.812   5.583
 4142POPC   GL255226  21.781  36.886   5.596
 4142POPC   C1A55227  21.247  36.878   5.992
 4142POPC   D2A55228  21.428  37.118   6.355
 4142POPC   C3A55229  21.191  37.048   6.730
 4142POPC   C4A55230  21.233  36.776   7.068
 4142POPC   C1B55231  21.739  36.767   6.006
 4142POPC   C2B55232  21.760  36.718   6.467
 4142POPC   C3B55233  21.703  36.904   6.844
 4142POPC   C4B55234  21.767  36.835   7.274
 4143POPC   NC355235  34.284  44.116   5.533
 4143POPC   PO455236  34.780  43.619   5.469
 4143POPC   GL155237  34.503  43.717   5.770
 4143POPC   GL255238  34.647  44.024   5.898
 4143POPC   C1A55239  34.413  43.661   6.194
 4143POPC   D2A55240  34.279  43.532   6.586
 4143POPC   C3A55241  34.396  43.786   6.940
 4143POPC   C4A55242  34.677  43.982   7.247
 4143POPC   C1B55243  34.395  44.210   6.246
 4143POPC   C2B55244  34.194  44.262   6.684
 4143POPC   C3B55245  34.282  44.263   7.133
 4143POPC   C4B55246  34.337  44.249   7.614
 4144POPC   NC355247  36.770  31.036   5.254
 4144POPC   PO455248  37.219  31.470   5.510
 4144POPC   GL155249  36.984  31.508   5.884
 4144POPC   GL255250  36.715  31.310   5.776
 4144POPC   C1A55251  36.983  31.568   6.332
 4144POPC   D2A55252  37.231  31.424   6.666
 4144POPC   C3A55253  37.046  31.588   7.016
 4144POPC   C4A55254  37.022  31.687   7.447
 4144POPC   C1B55255  36.556  31.299   6.206
 4144POPC   C2B55256  36.466  31.438   6.619
 4144POPC   C3B55257  36.599  31.331   7.020
 4144POPC   C4B55258  36.390  31.107   7.312
 4145POPC   NC355259  30.269   3.784   5.435
 4145POPC   PO455260  30.822   4.228   5.350
 4145POPC   GL155261  30.821   4.408   5.771
 4145POPC   GL255262  31.142   4.413   5.945
 4145POPC   C1A55263  30.698   4.423   6.208
 4145POPC   D2A55264  30.917   4.462   6.593
 4145POPC   C3A55265  30.668   4.504   6.956
 4145POPC   C4A55266  30.868   4.537   7.307
 4145POPC   C1B55267  31.076   4.077   6.263
 4145POPC   C2B55268  31.112   3.890   6.655
 4145POPC   C3B55269  30.976   4.125   7.012
 4145POPC   C4B55270  31.087   4.088   7.457
 4146POPC   NC355271  30.931  36.360   5.778
 4146POPC   PO455272  30.912  35.755   5.383
 4146POPC   GL155273  30.762  35.874   5.798
 4146POPC   GL255274  31.129  35.853   5.887
 4146POPC   C1A55275  30.435  35.965   6.161
 4146POPC   D2A55276  30.219  36.101   6.580
 4146POPC   C3A55277  30.487  36.337   6.917
 4146POPC   C4A55278  30.961  36.358   7.020
 4146POPC   C1B55279  31.166  35.682   6.315
 4146POPC   C2B55280  30.884  35.752   6.665
 4146POPC   C3B55281  30.891  35.769   7.106
 4146POPC   C4B55282  31.263  35.752   7.356
 4147POPC   NC355283  11.746  32.399   5.528
 4147POPC   PO455284  12.356  32.053   5.570
 4147POPC   GL155285  12.034  32.168   5.895
 4147POPC   GL255286  12.090  32.493   5.875
 4147POPC   C1A55287  12.005  32.315   6.360
 4147POPC   D2A55288  12.318  32.512   6.635
 4147POPC   C3A55289  12.223  32.375   6.979
 4147POPC   C4A55290  12.008  32.093   7.264
 4147POPC   C1B55291  11.739  32.668   6.131
 4147POPC   C2B55292  11.525  32.499   6.500
 4147POPC   C3B55293  11.724  32.349   6.878
 4147POPC   C4B55294  11.872  32.590   7.257
 4148POPC   NC355295  43.019   5.727   5.121
 4148POPC   PO455296  43.349   6.168   5.488
 4148POPC   GL155297  43.162   5.982   5.874
 4148POPC   GL255298  43.038   5.637   5.831
 4148POPC   C1A55299  42.952   6.050   6.273
 4148POPC   D2A55300  42.798   5.945   6.702
 4148POPC   C3A55301  43.138   6.013   6.995
 4148POPC   C4A55302  43.252   6.226   7.388
 4148POPC   C1B55303  42.812   5.551   6.230
 4148POPC   C2B55304  42.804   5.407   6.674
 4148POPC   C3B55305  42.822   5.591   7.090
 4148POPC   C4B55306  43.118   5.717   7.470
 4149POPC   NC355307  13.663   0.761   5.632
 4149POPC   PO455308  13.783   0.091   5.507
 4149POPC   GL155309  13.707   0.329   5.869
 4149POPC   GL255310  13.993   0.507   5.925
 4149POPC   C1A55311  13.508   0.418   6.262
 4149POPC   D2A55312  13.428   0.083   6.558
 4149POPC   C3A55313  13.371   0.303   6.948
 4149POPC   C4A55314  13.517   0.653   7.189
 4149POPC   C1B55315  13.984   0.223   6.289
 4149POPC   C2B55316  13.894   0.200   6.737
 4149POPC   C3B55317  14.002   0.342   7.125
 4149POPC   C4B55318  14.187   0.153   7.484
 4150POPC   NC355319  28.362  12.176   5.125
 4150POPC   PO455320  28.693  11.812   5.649
 4150POPC   GL155321  28.614  12.032   5.984
 4150POPC   GL255322  28.275  12.055   5.948
 4150POPC   C1A55323  28.627  12.002   6.410
 4150POPC   D2A55324  28.319  11.991   6.721
 4150POPC   C3A55325  28.416  11.927   7.145
 4150POPC   C4A55326  28.749  11.992   7.447
 4150POPC   C1B55327  28.007  12.109   6.307
 4150POPC   C2B55328  27.964  12.357   6.685
 4150POPC   C3B55329  28.138  12.403   7.097
 4150POPC   C4B55330  28.343  12.327   7.520
 4151POPC   NC355331  13.620  37.103   5.454
 4151POPC   PO455332  13.157  36.599   5.487
 4151POPC   GL155333  13.494  36.733   5.801
 4151POPC   GL255334  13.619  36.409   5.941
 4151POPC   C1A55335  13.554  36.939   6.233
 4151POPC   D2A55336  13.527  36.710   6.648
 4151POPC   C3A55337  13.462  36.833   7.080
 4151POPC   C4A55338  13.613  36.680   7.478
 4151POPC   C1B55339  13.868  36.537   6.293
 4151POPC   C2B55340  14.000  36.934   6.500
 4151POPC   C3B55341  13.790  37.155   6.827
 4151POPC   C4B55342  13.836  37.101   7.289
 4152POPC   NC355343  43.749   3.064   5.475
 4152POPC   PO455344  44.092   2.445   5.369
 4152POPC   GL155345  43.895   2.666   5.783
 4152POPC   GL255346  43.981   3.043   5.918
 4152POPC   C1A55347  43.978   2.654   6.244
 4152POPC   D2A55348  44.257   2.561   6.582
 4152POPC   C3A55349  44.109   2.561   7.006
 4152POPC   C4A55350  44.025   2.615   7.458
 4152POPC   C1B55351  44.040   3.133   6.385
 4152POPC   C2B55352  43.845   2.943   6.726
 4152POPC   C3B55353  43.876   3.006   7.153
 4152POPC   C4B55354  43.898   3.113   7.567
 4153POPC   NC355355  20.403   3.005   5.718
 4153POPC   PO455356  20.618   2.437   5.402
 4153POPC   GL155357  20.563   2.514   5.806
 4153POPC   GL255358  20.265   2.374   5.809
 4153POPC   C1A55359  20.654   2.688   6.226
 4153POPC   D2A55360  20.714   3.036   6.513
 4153POPC   C3A55361  20.857   2.903   6.887
 4153POPC   C4A55362  20.674   2.770   7.239
 4153POPC   C1B55363  20.153   2.540   6.152
 4153POPC   C2B55364  20.235   2.854   6.441
 4153POPC   C3B55365  20.294   2.890   6.866
 4153POPC   C4B55366  20.144   2.789   7.253
 4154POPC   NC355367  41.449   7.447   5.250
 4154POPC   PO455368  42.107   7.471   5.504
 4154POPC   GL155369  41.677   7.364   5.729
 4154POPC   GL255370  41.317   7.419   5.802
 4154POPC   C1A55371  41.631   7.202   6.174
 4154POPC   D2A55372  41.690   7.418   6.572
 4154POPC   C3A55373  41.928   7.185   6.863
 4154POPC   C4A55374  41.835   7.176   7.277
 4154POPC   C1B55375  41.125   7.148   6.164
 4154POPC   C2B55376  41.274   7.010   6.598
 4154POPC   C3B55377  41.392   7.143   7.022
 4154POPC   C4B55378  41.440   6.896   7.421
 4155POPC   NC355379  35.541  19.329   5.071
 4155POPC   PO455380  35.278  18.797   5.384
 4155POPC   GL155381  35.456  19.038   5.713
 4155POPC   GL255382  35.304  19.374   5.688
 4155POPC   C1A55383  35.635  18.932   6.117
 4155POPC   D2A55384  35.498  18.707   6.495
 4155POPC   C3A55385  35.503  18.871   6.900
 4155POPC   C4A55386  35.328  18.743   7.295
 4155POPC   C1B55387  35.235  19.283   6.138
 4155POPC   C2B55388  35.139  19.095   6.535
 4155POPC   C3B55389  35.242  19.323   6.905
 4155POPC   C4B55390  35.469  19.261   7.260
 4156POPC   NC355391   8.779  10.849   5.327
 4156POPC   PO455392   8.887  11.499   5.254
 4156POPC   GL155393   8.943  11.375   5.659
 4156POPC   GL255394   9.201  11.112   5.669
 4156POPC   C1A55395   8.795  11.456   6.072
 4156POPC   D2A55396   8.742  11.213   6.435
 4156POPC   C3A55397   8.932  11.375   6.786
 4156POPC   C4A55398   8.862  11.365   7.235
 4156POPC   C1B55399   9.105  11.038   6.118
 4156POPC   C2B55400   9.216  10.976   6.599
 4156POPC   C3B55401   9.194  10.982   7.091
 4156POPC   C4B55402   9.185  11.102   7.569
 4157POPC   NC355403  22.267  42.932   5.311
 4157POPC   PO455404  22.126  43.512   5.482
 4157POPC   GL155405  22.162  43.182   5.763
 4157POPC   GL255406  21.866  43.002   5.650
 4157POPC   C1A55407  22.362  43.049   6.144
 4157POPC   D2A55408  22.609  42.983   6.542
 4157POPC   C3A55409  22.480  43.079   6.987
 4157POPC   C4A55410  22.233  43.280   7.310
 4157POPC   C1B55411  21.825  42.893   6.074
 4157POPC   C2B55412  21.779  42.932   6.513
 4157POPC   C3B55413  21.952  43.150   6.862
 4157POPC   C4B55414  21.937  42.897   7.219
 4158POPC   NC355415  43.878  29.956   5.279
 4158POPC   PO455416  43.454  30.526   5.391
 4158POPC   GL155417  43.718  30.213   5.712
 4158POPC   GL255418  44.078  30.067   5.738
 4158POPC   C1A55419  43.800  30.005   6.165
 4158POPC   D2A55420  43.623  30.048   6.578
 4158POPC   C3A55421  43.818  29.922   6.988
 4158POPC   C4A55422  43.898  30.102   7.429
 4158POPC   C1B55423  44.223  29.764   6.024
 4158POPC   C2B55424  44.183  29.782   6.480
 4158POPC   C3B55425  44.445  29.766   6.859
 4158POPC   C4B55426  44.229  29.731   7.270
 4159POPC   NC355427  33.280   3.857   5.266
 4159POPC   PO455428  33.969   3.653   5.281
 4159POPC   GL155429  33.768   3.436   5.669
 4159POPC   GL255430  34.080   3.420   5.832
 4159POPC   C1A55431  33.477   3.400   6.050
 4159POPC   D2A55432  33.482   3.638   6.445
 4159POPC   C3A55433  33.473   3.513   6.885
 4159POPC   C4A55434  33.607   3.746   7.239
 4159POPC   C1B55435  33.944   3.534   6.232
 4159POPC   C2B55436  33.867   3.300   6.608
 4159POPC   C3B55437  33.977   3.437   7.027
 4159POPC   C4B55438  34.261   3.669   7.293
 4160POPC   NC355439  32.552  39.188   5.284
 4160POPC   PO455440  31.899  39.248   5.257
 4160POPC   GL155441  31.946  39.445   5.680
 4160POPC   GL255442  32.250  39.267   5.746
 4160POPC   C1A55443  31.856  39.444   6.145
 4160POPC   D2A55444  31.975  39.648   6.556
 4160POPC   C3A55445  32.056  39.394   6.893
 4160POPC   C4A55446  32.295  39.394   7.214
 4160POPC   C1B55447  32.213  39.052   6.137
 4160POPC   C2B55448  32.329  39.089   6.566
 4160POPC   C3B55449  32.344  38.933   6.979
 4160POPC   C4B55450  32.503  38.973   7.390
 4161POPC   NC355451   1.801  15.970   5.471
 4161POPC   PO455452   2.287  15.552   5.364
 4161POPC   GL155453   2.260  15.856   5.686
 4161POPC   GL255454   1.958  15.778   5.913
 4161POPC   C1A55455   2.241  16.202   5.997
 4161POPC   D2A55456   2.126  16.256   6.436
 4161POPC   C3A55457   2.150  16.035   6.861
 4161POPC   C4A55458   2.131  16.128   7.315
 4161POPC   C1B55459   2.305  15.736   6.181
 4161POPC   C2B55460   2.359  15.643   6.589
 4161POPC   C3B55461   2.132  15.460   6.907
 4161POPC   C4B55462   2.060  15.635   7.301
 4162POPC   NC355463  23.405  21.119   5.223
 4162POPC   PO455464  23.591  21.648   5.551
 4162POPC   GL155465  23.315  21.704   5.912
 4162POPC   GL255466  23.186  21.351   5.900
 4162POPC   C1A55467  23.031  21.710   6.289
 4162POPC   D2A55468  22.916  21.509   6.729
 4162POPC   C3A55469  22.840  21.772   7.130
 4162POPC   C4A55470  22.560  21.669   7.506
 4162POPC   C1B55471  23.021  21.199   6.298
 4162POPC   C2B55472  23.208  21.066   6.680
 4162POPC   C3B55473  23.041  21.110   7.076
 4162POPC   C4B55474  22.634  21.295   7.163
 4163POPC   NC355475  44.244  40.798   5.482
 4163POPC   PO455476  43.595  40.992   5.411
 4163POPC   GL155477  43.561  40.804   5.820
 4163POPC   GL255478  43.886  40.831   5.860
 4163POPC   C1A55479  43.597  40.608   6.236
 4163POPC   D2A55480  43.801  40.761   6.588
 4163POPC   C3A55481  43.842  40.598   6.981
 4163POPC   C4A55482  43.677  40.940   7.219
 4163POPC   C1B55483  44.122  40.616   6.172
 4163POPC   C2B55484  44.330  40.707   6.551
 4163POPC   C3B55485  44.176  40.975   6.883
 4163POPC   C4B55486  44.182  40.832   7.284
 4164POPC   NC355487   2.379  43.330   5.046
 4164POPC   PO455488   1.741  43.320   5.336
 4164POPC   GL155489   1.873  43.263   5.758
 4164POPC   GL255490   2.240  43.211   5.675
 4164POPC   C1A55491   2.014  43.002   6.115
 4164POPC   D2A55492   2.172  42.921   6.531
 4164POPC   C3A55493   1.855  43.040   6.815
 4164POPC   C4A55494   1.696  42.881   7.194
 4164POPC   C1B55495   2.261  43.485   6.062
 4164POPC   C2B55496   2.088  43.425   6.469
 4164POPC   C3B55497   2.000  43.521   6.880
 4164POPC   C4B55498   2.131  43.205   7.225
 4165POPC   NC355499   9.458  14.978   5.336
 4165POPC   PO455500  10.089  15.312   5.446
 4165POPC   GL155501   9.776  15.211   5.696
 4165POPC   GL255502   9.541  15.464   5.659
 4165POPC   C1A55503   9.755  14.974   6.075
 4165POPC   D2A55504   9.872  15.059   6.497
 4165POPC   C3A55505   9.560  15.082   6.817
 4165POPC   C4A55506   9.739  15.041   7.206
 4165POPC   C1B55507   9.611  15.477   6.125
 4165POPC   C2B55508   9.620  15.568   6.571
 4165POPC   C3B55509   9.787  15.521   6.984
 4165POPC   C4B55510   9.569  15.486   7.362
 4166POPC   NC355511   5.287  22.352   5.267
 4166POPC   PO455512   4.936  21.857   5.507
 4166POPC   GL155513   5.104  22.194   5.806
 4166POPC   GL255514   5.369  22.488   5.768
 4166POPC   C1A55515   4.956  22.230   6.240
 4166POPC   D2A55516   4.875  21.999   6.610
 4166POPC   C3A55517   4.750  22.199   6.976
 4166POPC   C4A55518   4.844  22.172   7.399
 4166POPC   C1B55519   5.447  22.319   6.189
 4166POPC   C2B55520   5.334  22.249   6.628
 4166POPC   C3B55521   5.333  22.414   7.064
 4166POPC   C4B55522   5.240  22.451   7.520
 4167POPC   NC355523  21.204   7.500   5.358
 4167POPC   PO455524  21.915   7.498   5.469
 4167POPC   GL155525  21.776   7.429   5.877
 4167POPC   GL255526  21.455   7.304   5.787
 4167POPC   C1A55527  21.737   7.279   6.319
 4167POPC   D2A55528  21.638   7.183   6.749
 4167POPC   C3A55529  21.404   7.458   7.016
 4167POPC   C4A55530  21.334   7.412   7.490
 4167POPC   C1B55531  21.234   7.236   6.201
 4167POPC   C2B55532  21.126   7.191   6.675
 4167POPC   C3B55533  21.012   7.144   7.145
 4167POPC   C4B55534  20.913   7.152   7.623
 4168POPC   NC355535  29.406  14.697   5.363
 4168POPC   PO455536  29.209  14.057   5.510
 4168POPC   GL155537  29.373  14.356   5.751
 4168POPC   GL255538  29.134  14.575   5.788
 4168POPC   C1A55539  29.371  14.341   6.191
 4168POPC   D2A55540  29.142  14.323   6.579
 4168POPC   C3A55541  29.392  14.168   6.894
 4168POPC   C4A55542  29.388  14.325   7.283
 4168POPC   C1B55543  28.873  14.547   6.198
 4168POPC   C2B55544  28.759  14.666   6.642
 4168POPC   C3B55545  28.919  14.483   7.049
 4168POPC   C4B55546  28.876  14.219   7.424
 4169POPC   NC355547  37.867  41.082   5.232
 4169POPC   PO455548  37.475  40.631   5.386
 4169POPC   GL155549  37.643  40.640   5.800
 4169POPC   GL255550  37.743  40.993   5.747
 4169POPC   C1A55551  37.772  40.778   6.236
 4169POPC   D2A55552  38.039  40.687   6.611
 4169POPC   C3A55553  37.797  40.811   6.989
 4169POPC   C4A55554  37.783  40.737   7.468
 4169POPC   C1B55555  37.371  41.051   6.016
 4169POPC   C2B55556  37.299  40.994   6.446
 4169POPC   C3B55557  37.414  41.144   6.849
 4169POPC   C4B55558  37.445  41.059   7.264
 4170POPC   NC355559   4.775   1.504   5.335
 4170POPC   PO455560   5.355   1.210   5.515
 4170POPC   GL155561   5.114   1.139   5.874
 4170POPC   GL255562   4.846   1.356   5.834
 4170POPC   C1A55563   4.948   1.030   6.281
 4170POPC   D2A55564   4.845   1.190   6.707
 4170POPC   C3A55565   5.102   1.053   7.075
 4170POPC   C4A55566   5.263   1.262   7.427
 4170POPC   C1B55567   4.855   1.589   6.230
 4170POPC   C2B55568   4.978   1.704   6.672
 4170POPC   C3B55569   4.974   1.556   7.095
 4170POPC   C4B55570   4.820   1.470   7.513
 4171POPC   NC355571  35.961  42.725   5.614
 4171POPC   PO455572  36.548  42.973   5.386
 4171POPC   GL155573  36.296  43.145   5.782
 4171POPC   GL255574  35.944  43.257   5.792
 4171POPC   C1A55575  36.151  43.095   6.259
 4171POPC   D2A55576  35.981  42.910   6.674
 4171POPC   C3A55577  36.190  42.988   7.080
 4171POPC   C4A55578  36.591  43.194   7.045
 4171POPC   C1B55579  35.926  43.538   6.148
 4171POPC   C2B55580  35.791  43.403   6.568
 4171POPC   C3B55581  35.940  43.425   7.011
 4171POPC   C4B55582  35.918  43.284   7.457
 4172POPC   NC355583  30.236  17.851   5.414
 4172POPC   PO455584  29.790  17.362   5.361
 4172POPC   GL155585  29.976  17.389   5.767
 4172POPC   GL255586  29.939  17.765   5.835
 4172POPC   C1A55587  29.868  17.403   6.225
 4172POPC   D2A55588  29.525  17.391   6.563
 4172POPC   C3A55589  29.714  17.385   6.984
 4172POPC   C4A55590  30.117  17.215   7.127
 4172POPC   C1B55591  30.181  17.873   6.207
 4172POPC   C2B55592  30.297  17.745   6.642
 4172POPC   C3B55593  30.074  17.767   7.063
 4172POPC   C4B55594  30.110  18.034   7.457
 4173POPC   NC355595  19.549   1.891   5.338
 4173POPC   PO455596  20.009   2.444   5.377
 4173POPC   GL155597  19.877   2.070   5.671
 4173POPC   GL255598  20.125   1.881   5.813
 4173POPC   C1A55599  19.669   1.854   6.039
 4173POPC   D2A55600  19.572   1.946   6.460
 4173POPC   C3A55601  19.663   1.730   6.832
 4173POPC   C4A55602  19.765   1.984   7.159
 4173POPC   C1B55603  20.102   2.029   6.241
 4173POPC   C2B55604  20.048   2.019   6.673
 4173POPC   C3B55605  20.250   1.899   7.041
 4173POPC   C4B55606  20.194   1.816   7.490
 4174POPC   NC355607  42.652   2.156   5.057
 4174POPC   PO455608  43.253   1.987   5.363
 4174POPC   GL155609  43.147   1.837   5.766
 4174POPC   GL255610  42.850   2.013   5.843
 4174POPC   C1A55611  43.210   1.970   6.209
 4174POPC   D2A55612  43.229   2.324   6.496
 4174POPC   C3A55613  43.123   2.257   6.921
 4174POPC   C4A55614  43.224   1.972   7.234
 4174POPC   C1B55615  42.786   2.275   6.172
 4174POPC   C2B55616  42.729   2.197   6.570
 4174POPC   C3B55617  42.588   2.284   6.928
 4174POPC   C4B55618  42.722   2.195   7.343
 4175POPC   NC355619  19.378  22.659   5.162
 4175POPC   PO455620  19.023  23.246   5.370
 4175POPC   GL155621  18.911  23.198   5.840
 4175POPC   GL255622  18.807  23.548   5.904
 4175POPC   C1A55623  18.894  22.903   6.247
 4175POPC   D2A55624  19.074  22.821   6.694
 4175POPC   C3A55625  18.849  22.891   7.084
 4175POPC   C4A55626  18.839  22.724   7.497
 4175POPC   C1B55627  18.601  23.340   6.260
 4175POPC   C2B55628  18.647  23.175   6.688
 4175POPC   C3B55629  18.719  23.360   7.130
 4175POPC   C4B55630  18.586  23.195   7.532
 4176POPC   NC355631  31.982  29.961   5.362
 4176POPC   PO455632  31.282  30.015   5.388
 4176POPC   GL155633  31.503  29.870   5.754
 4176POPC   GL255634  31.776  30.102   5.837
 4176POPC   C1A55635  31.352  29.685   6.157
 4176POPC   D2A55636  31.084  29.560   6.524
 4176POPC   C3A55637  31.122  29.812   6.908
 4176POPC   C4A55638  31.525  29.820   7.113
 4176POPC   C1B55639  31.465  30.201   6.178
 4176POPC   C2B55640  31.427  30.073   6.588
 4176POPC   C3B55641  31.382  30.278   6.977
 4176POPC   C4B55642  31.126  30.181   7.309
 4177POPC   NC355643  26.529   7.109   5.379
 4177POPC   PO455644  26.455   6.458   5.372
 4177POPC   GL155645  26.289   6.632   5.782
 4177POPC   GL255646  26.032   6.860   5.788
 4177POPC   C1A55647  26.299   6.506   6.253
 4177POPC   D2A55648  26.214   6.715   6.667
 4177POPC   C3A55649  26.134   6.422   7.019
 4177POPC   C4A55650  26.171   6.079   7.333
 4177POPC   C1B55651  26.204   6.995   6.176
 4177POPC   C2B55652  26.481   7.145   6.510
 4177POPC   C3B55653  26.350   7.151   6.946
 4177POPC   C4B55654  26.051   6.907   7.172
 4178POPC   NC355655  26.036  37.044   5.449
 4178POPC   PO455656  26.011  36.369   5.617
 4178POPC   GL155657  26.038  36.745   5.878
 4178POPC   GL255658  26.324  37.024   5.861
 4178POPC   C1A55659  25.853  36.956   6.252
 4178POPC   D2A55660  25.638  37.088   6.659
 4178POPC   C3A55661  25.777  37.019   7.110
 4178POPC   C4A55662  26.005  37.209   7.485
 4178POPC   C1B55663  26.358  36.841   6.255
 4178POPC   C2B55664  26.142  36.755   6.648
 4178POPC   C3B55665  26.260  36.941   7.041
 4178POPC   C4B55666  26.372  36.838   7.478
 4179POPC   NC355667   7.446  23.885   5.412
 4179POPC   PO455668   7.726  23.331   5.255
 4179POPC   GL155669   7.631  23.437   5.681
 4179POPC   GL255670   7.839  23.753   5.711
 4179POPC   C1A55671   7.249  23.456   5.999
 4179POPC   D2A55672   7.128  23.620   6.431
 4179POPC   C3A55673   7.155  23.419   6.856
 4179POPC   C4A55674   7.400  23.492   7.229
 4179POPC   C1B55675   7.709  23.648   6.148
 4179POPC   C2B55676   7.758  23.517   6.576
 4179POPC   C3B55677   7.919  23.687   6.941
 4179POPC   C4B55678   7.722  23.875   7.286
 4180POPC   NC355679   0.643   9.265   5.239
 4180POPC   PO455680   0.227   8.696   5.429
 4180POPC   GL155681   0.431   8.854   5.834
 4180POPC   GL255682   0.482   9.234   5.851
 4180POPC   C1A55683   0.401   8.973   6.280
 4180POPC   D2A55684   0.618   9.085   6.660
 4180POPC   C3A55685   0.410   8.978   7.077
 4180POPC   C4A55686   0.077   8.805   7.391
 4180POPC   C1B55687   0.635   9.426   6.254
 4180POPC   C2B55688   0.714   9.594   6.654
 4180POPC   C3B55689   0.679   9.417   7.066
 4180POPC   C4B55690   0.638   9.271   7.451
 4181POPC   NC355691  10.355  19.632   5.462
 4181POPC   PO455692  10.805  19.030   5.438
 4181POPC   GL155693  10.525  19.207   5.731
 4181POPC   GL255694  10.388  18.905   5.916
 4181POPC   C1A55695  10.549  19.315   6.164
 4181POPC   D2A55696  10.581  19.004   6.483
 4181POPC   C3A55697  10.405  19.106   6.884
 4181POPC   C4A55698  10.465  19.203   7.315
 4181POPC   C1B55699  10.344  18.606   6.239
 4181POPC   C2B55700  10.271  18.617   6.666
 4181POPC   C3B55701  10.062  18.697   7.049
 4181POPC   C4B55702  10.200  18.804   7.468
 4182POPC   NC355703  25.572  26.237   5.451
 4182POPC   PO455704  25.110  25.821   5.338
 4182POPC   GL155705  24.991  25.849   5.738
 4182POPC   GL255706  25.155  26.173   5.765
 4182POPC   C1A55707  25.144  25.812   6.177
 4182POPC   D2A55708  25.406  26.026   6.498
 4182POPC   C3A55709  25.434  25.914   6.955
 4182POPC   C4A55710  25.801  25.921   7.201
 4182POPC   C1B55711  25.014  26.314   6.163
 4182POPC   C2B55712  24.914  26.203   6.582
 4182POPC   C3B55713  25.048  26.286   7.015
 4182POPC   C4B55714  24.964  26.147   7.413
 4183POPC   NC355715  19.415  14.258   5.096
 4183POPC   PO455716  20.040  14.056   5.173
 4183POPC   GL155717  19.900  14.227   5.627
 4183POPC   GL255718  19.822  13.932   5.810
 4183POPC   C1A55719  19.716  14.435   6.071
 4183POPC   D2A55720  19.674  14.346   6.553
 4183POPC   C3A55721  19.637  14.615   6.950
 4183POPC   C4A55722  19.821  14.568   7.375
 4183POPC   C1B55723  19.642  13.963   6.202
 4183POPC   C2B55724  19.534  13.798   6.580
 4183POPC   C3B55725  19.672  13.994   6.944
 4183POPC   C4B55726  19.481  14.208   7.202
 4184POPC   NC355727  36.058  37.221   5.393
 4184POPC   PO455728  36.707  37.499   5.546
 4184POPC   GL155729  36.388  37.209   5.857
 4184POPC   GL255730  36.184  36.828   5.784
 4184POPC   C1A55731  36.360  36.876   6.237
 4184POPC   D2A55732  36.233  36.643   6.609
 4184POPC   C3A55733  36.232  36.836   7.021
 4184POPC   C4A55734  36.424  36.662   7.389
 4184POPC   C1B55735  35.940  36.608   6.147
 4184POPC   C2B55736  35.720  36.576   6.574
 4184POPC   C3B55737  35.768  36.465   7.035
 4184POPC   C4B55738  35.943  36.506   7.454
 4185POPC   NC355739  43.523  38.367   5.336
 4185POPC   PO455740  42.926  38.566   5.103
 4185POPC   GL155741  43.006  38.585   5.610
 4185POPC   GL255742  43.347  38.627   5.791
 4185POPC   C1A55743  42.967  38.713   6.105
 4185POPC   D2A55744  43.106  38.870   6.556
 4185POPC   C3A55745  43.070  38.599   6.948
 4185POPC   C4A55746  42.887  38.598   7.396
 4185POPC   C1B55747  43.480  38.647   6.271
 4185POPC   C2B55748  43.565  38.742   6.757
 4185POPC   C3B55749  43.531  38.514   7.177
 4185POPC   C4B55750  43.220  38.198   7.317
 4186POPC   NC355751   5.852  44.386   5.449
 4186POPC   PO455752   6.387  44.577   5.051
 4186POPC   GL155753   6.214  44.702   5.574
 4186POPC   GL255754   5.881  44.852   5.723
 4186POPC   C1A55755   6.094  44.534   6.058
 4186POPC   D2A55756   5.827  44.523   6.464
 4186POPC   C3A55757   5.909  44.567   6.918
 4186POPC   C4A55758   6.155  44.491   7.286
 4186POPC   C1B55759   6.007   0.046   6.154
 4186POPC   C2B55760   6.153   0.025   6.621
 4186POPC   C3B55761   5.982   0.067   7.056
 4186POPC   C4B55762   5.860  44.963   7.478
 4187POPC   NC355763  37.450  40.179   5.336
 4187POPC   PO455764  38.000  39.800   5.484
 4187POPC   GL155765  37.869  40.098   5.806
 4187POPC   GL255766  37.525  40.006   5.824
 4187POPC   C1A55767  37.826  40.268   6.253
 4187POPC   D2A55768  37.610  40.429   6.638
 4187POPC   C3A55769  37.722  40.257   7.063
 4187POPC   C4A55770  37.856  39.816   7.168
 4187POPC   C1B55771  37.644  39.781   6.209
 4187POPC   C2B55772  37.688  39.909   6.653
 4187POPC   C3B55773  37.378  39.875   6.986
 4187POPC   C4B55774  37.368  39.554   7.292
 4188POPC   NC355775   5.131  41.809   5.397
 4188POPC   PO455776   5.634  41.971   5.784
 4188POPC   GL155777   5.320  41.604   5.830
 4188POPC   GL255778   4.965  41.458   5.728
 4188POPC   C1A55779   5.194  41.371   6.176
 4188POPC   D2A55780   4.976  41.378   6.558
 4188POPC   C3A55781   5.214  41.247   6.942
 4188POPC   C4A55782   5.230  41.504   7.321
 4188POPC   C1B55783   4.860  41.773   6.054
 4188POPC   C2B55784   4.791  41.853   6.508
 4188POPC   C3B55785   4.978  41.758   6.918
 4188POPC   C4B55786   4.829  41.807   7.340
 4189POPC   NC355787   2.733  15.682   5.453
 4189POPC   PO455788   2.702  15.027   5.286
 4189POPC   GL155789   2.724  15.109   5.775
 4189POPC   GL255790   2.488  15.399   5.808
 4189POPC   C1A55791   2.953  15.151   6.239
 4189POPC   D2A55792   3.150  15.259   6.680
 4189POPC   C3A55793   3.010  15.119   7.073
 4189POPC   C4A55794   2.881  15.035   7.472
 4189POPC   C1B55795   2.475  15.260   6.206
 4189POPC   C2B55796   2.609  15.204   6.606
 4189POPC   C3B55797   2.507  15.106   6.976
 4189POPC   C4B55798   2.441  15.286   7.317
 4190POPC   NC355799  14.975  44.576   5.417
 4190POPC   PO455800  15.492  44.906   5.473
 4190POPC   GL155801  15.307  44.658   5.823
 4190POPC   GL255802  14.955  44.764   5.899
 4190POPC   C1A55803  15.249  44.535   6.269
 4190POPC   D2A55804  14.987  44.630   6.649
 4190POPC   C3A55805  15.225  44.614   7.047
 4190POPC   C4A55806  15.281  44.642   7.520
 4190POPC   C1B55807  14.805  44.348   6.080
 4190POPC   C2B55808  14.724  44.163   6.496
 4190POPC   C3B55809  14.881  44.193   6.934
 4190POPC   C4B55810  14.875  44.378   7.347
 4191POPC   NC355811  27.545  34.081   5.349
 4191POPC   PO455812  27.292  33.583   5.349
 4191POPC   GL155813  27.356  33.672   5.797
 4191POPC   GL255814  27.465  34.021   5.858
 4191POPC   C1A55815  27.333  33.582   6.264
 4191POPC   D2A55816  27.628  33.638   6.611
 4191POPC   C3A55817  27.537  33.630   7.051
 4191POPC   C4A55818  27.755  33.804   7.429
 4191POPC   C1B55819  27.544  34.086   6.308
 4191POPC   C2B55820  27.702  34.140   6.732
 4191POPC   C3B55821  27.455  34.124   7.127
 4191POPC   C4B55822  27.200  33.834   7.377
 4192POPC   NC355823   1.449  34.482   5.083
 4192POPC   PO455824   2.058  34.521   5.376
 4192POPC   GL155825   2.162  34.536   5.792
 4192POPC   GL255826   1.808  34.548   5.878
 4192POPC   C1A55827   2.163  34.479   6.255
 4192POPC   D2A55828   2.295  34.680   6.649
 4192POPC   C3A55829   2.164  34.436   7.008
 4192POPC   C4A55830   2.195  34.603   7.400
 4192POPC   C1B55831   1.675  34.660   6.278
 4192POPC   C2B55832   1.784  34.628   6.712
 4192POPC   C3B55833   1.632  34.556   7.125
 4192POPC   C4B55834   1.490  34.836   7.460
 4193POPC   NC355835  44.347  31.592   5.411
 4193POPC   PO455836  43.704  31.352   5.508
 4193POPC   GL155837  44.060  31.399   5.803
 4193POPC   GL255838  44.348  31.619   5.896
 4193POPC   C1A55839  43.998  31.422   6.228
 4193POPC   D2A55840  43.721  31.309   6.534
 4193POPC   C3A55841  43.793  31.508   6.903
 4193POPC   C4A55842  43.540  31.473   7.237
 4193POPC   C1B55843  44.438  31.670   6.271
 4193POPC   C2B55844  44.173  31.713   6.597
 4193POPC   C3B55845  44.211  31.892   6.946
 4193POPC   C4B55846  44.090  31.695   7.300
 4194POPC   NC355847  27.871  38.564   5.400
 4194POPC   PO455848  27.264  38.174   5.350
 4194POPC   GL155849  27.303  38.451   5.759
 4194POPC   GL255850  27.574  38.740   5.799
 4194POPC   C1A55851  27.463  38.454   6.217
 4194POPC   D2A55852  27.547  38.156   6.543
 4194POPC   C3A55853  27.699  38.267   6.949
 4194POPC   C4A55854  27.375  38.463   7.155
 4194POPC   C1B55855  27.847  38.821   6.191
 4194POPC   C2B55856  27.855  38.634   6.635
 4194POPC   C3B55857  27.770  38.772   7.113
 4194POPC   C4B55858  27.486  38.754   7.542
 4195POPC   NC355859  30.005  21.134   5.445
 4195POPC   PO455860  30.374  21.768   5.474
 4195POPC   GL155861  30.183  21.470   5.818
 4195POPC   GL255862  30.337  21.138   5.865
 4195POPC   C1A55863  29.848  21.349   6.130
 4195POPC   D2A55864  29.736  21.175   6.558
 4195POPC   C3A55865  29.714  21.460   6.935
 4195POPC   C4A55866  30.055  21.594   7.190
 4195POPC   C1B55867  30.303  21.171   6.340
 4195POPC   C2B55868  30.247  21.247   6.796
 4195POPC   C3B55869  30.382  21.181   7.230
 4195POPC   C4B55870  30.468  20.966   7.638
 4196POPC   NC355871  10.199  16.772   5.353
 4196POPC   PO455872  10.805  16.576   5.342
 4196POPC   GL155873  10.485  16.464   5.661
 4196POPC   GL255874  10.469  16.792   5.772
 4196POPC   C1A55875  10.374  16.361   6.124
 4196POPC   D2A55876  10.099  16.436   6.522
 4196POPC   C3A55877  10.219  16.475   6.985
 4196POPC   C4A55878  10.300  16.836   7.289
 4196POPC   C1B55879  10.698  16.755   6.126
 4196POPC   C2B55880  10.513  16.737   6.524
 4196POPC   C3B55881  10.662  16.746   6.933
 4196POPC   C4B55882  10.676  16.508   7.314
 4197POPC   NC355883  38.761  29.206   5.292
 4197POPC   PO455884  38.165  28.922   5.436
 4197POPC   GL155885  38.357  29.135   5.793
 4197POPC   GL255886  38.208  28.939   6.038
 4197POPC   C1A55887  38.323  29.437   6.162
 4197POPC   D2A55888  38.249  29.255   6.589
 4197POPC   C3A55889  38.327  29.354   7.037
 4197POPC   C4A55890  38.245  29.192   7.474
 4197POPC   C1B55891  38.594  29.022   6.286
 4197POPC   C2B55892  38.618  28.898   6.725
 4197POPC   C3B55893  38.455  28.872   7.131
 4197POPC   C4B55894  38.690  28.933   7.517
 4198POPC   NC355895  19.274  27.569   5.192
 4198POPC   PO455896  18.717  27.567   5.366
 4198POPC   GL155897  18.970  27.626   5.757
 4198POPC   GL255898  19.344  27.683   5.711
 4198POPC   C1A55899  18.987  27.748   6.229
 4198POPC   D2A55900  19.218  27.828   6.649
 4198POPC   C3A55901  18.965  27.734   7.031
 4198POPC   C4A55902  19.011  27.417   7.374
 4198POPC   C1B55903  19.488  27.684   6.182
 4198POPC   C2B55904  19.683  27.565   6.621
 4198POPC   C3B55905  19.504  27.541   7.077
 4198POPC   C4B55906  19.298  27.842   7.388
 4199POPC   NC355907   0.021  23.228   5.457
 4199POPC   PO455908  44.437  22.822   5.460
 4199POPC   GL155909  44.769  22.844   5.759
 4199POPC   GL255910  44.980  22.569   5.840
 4199POPC   C1A55911  44.796  22.946   6.206
 4199POPC   D2A55912  44.536  22.953   6.570
 4199POPC   C3A55913  44.656  23.051   6.984
 4199POPC   C4A55914  44.331  22.990   7.309
 4199POPC   C1B55915  44.915  22.463   6.283
 4199POPC   C2B55916  44.966  22.684   6.692
 4199POPC   C3B55917   0.054  22.767   7.141
 4199POPC   C4B55918  44.793  22.644   7.466
 4200POPC   NC355919  28.913   6.954   5.388
 4200POPC   PO455920  29.380   6.520   5.430
 4200POPC   GL155921  29.263   6.823   5.752
 4200POPC   GL255922  28.887   6.794   5.857
 4200POPC   C1A55923  29.264   6.837   6.198
 4200POPC   D2A55924  29.360   6.920   6.620
 4200POPC   C3A55925  29.305   6.598   6.938
 4200POPC   C4A55926  29.099   6.843   7.214
 4200POPC   C1B55927  28.774   6.926   6.283
 4200POPC   C2B55928  28.848   6.780   6.712
 4200POPC   C3B55929  28.624   6.804   7.095
 4200POPC   C4B55930  28.533   6.760   7.545
 4201POPC   NC355931  42.676  12.409   5.473
 4201POPC   PO455932  42.027  12.157   5.321
 4201POPC   GL155933  42.056  12.072   5.792
 4201POPC   GL255934  42.415  12.024   5.812
 4201POPC   C1A55935  42.194  12.228   6.236
 4201POPC   D2A55936  42.053  11.993   6.579
 4201POPC   C3A55937  42.137  12.076   7.009
 4201POPC   C4A55938  42.228  11.959   7.403
 4201POPC   C1B55939  42.630  11.966   6.204
 4201POPC   C2B55940  42.577  12.129   6.648
 4201POPC   C3B55941  42.625  12.110   7.102
 4201POPC   C4B55942  42.703  12.002   7.552
 4202POPC   NC355943  28.092  35.619   5.622
 4202POPC   PO455944  27.561  35.468   5.250
 4202POPC   GL155945  27.646  35.371   5.711
 4202POPC   GL255946  27.508  35.675   5.824
 4202POPC   C1A55947  27.827  35.492   6.180
 4202POPC   D2A55948  27.907  35.617   6.599
 4202POPC   C3A55949  27.714  35.408   6.975
 4202POPC   C4A55950  27.770  35.009   7.211
 4202POPC   C1B55951  27.334  35.374   6.148
 4202POPC   C2B55952  27.258  35.405   6.596
 4202POPC   C3B55953  27.191  35.399   7.060
 4202POPC   C4B55954  27.180  35.063   7.397
 4203POPC   NC355955   0.726   3.977   5.305
 4203POPC   PO455956   0.251   4.483   5.545
 4203POPC   GL155957   0.559   4.381   5.871
 4203POPC   GL255958   0.767   4.087   5.807
 4203POPC   C1A55959   0.462   4.228   6.298
 4203POPC   D2A55960   0.510   4.396   6.707
 4203POPC   C3A55961   0.219   4.305   7.036
 4203POPC   C4A55962   0.255   3.921   7.269
 4203POPC   C1B55963   0.957   4.135   6.208
 4203POPC   C2B55964   0.861   3.989   6.612
 4203POPC   C3B55965   0.816   4.128   7.044
 4203POPC   C4B55966   0.675   4.550   7.176
 4204POPC   NC355967  22.354  24.161   5.467
 4204POPC   PO455968  22.082  24.759   5.332
 4204POPC   GL155969  22.050  24.606   5.753
 4204POPC   GL255970  21.839  24.332   5.666
 4204POPC   C1A55971  22.255  24.519   6.192
 4204POPC   D2A55972  22.156  24.708   6.624
 4204POPC   C3A55973  22.305  24.673   7.071
 4204POPC   C4A55974  22.615  24.949   7.267
 4204POPC   C1B55975  21.780  24.349   6.125
 4204POPC   C2B55976  21.956  24.247   6.534
 4204POPC   C3B55977  21.915  24.363   6.952
 4204POPC   C4B55978  22.138  24.243   7.316
 4205POPC   NC355979  13.143  21.476   5.221
 4205POPC   PO455980  12.428  21.462   5.190
 4205POPC   GL155981  12.602  21.275   5.581
 4205POPC   GL255982  12.935  21.355   5.703
 4205POPC   C1A55983  12.580  21.299   6.068
 4205POPC   D2A55984  12.864  21.355   6.449
 4205POPC   C3A55985  12.741  21.236   6.873
 4205POPC   C4A55986  13.018  21.190   7.223
 4205POPC   C1B55987  12.958  21.686   6.048
 4205POPC   C2B55988  12.893  21.871   6.464
 4205POPC   C3B55989  12.898  21.733   6.874
 4205POPC   C4B55990  13.201  21.699   7.205
 4206POPC   NC355991  39.697   8.405   5.434
 4206POPC   PO455992  39.215   7.988   5.200
 4206POPC   GL155993  39.317   8.013   5.676
 4206POPC   GL255994  39.256   8.346   5.705
 4206POPC   C1A55995  39.399   8.058   6.167
 4206POPC   D2A55996  39.623   8.162   6.621
 4206POPC   C3A55997  39.543   8.407   7.035
 4206POPC   C4A55998  39.373   8.086   7.338
 4206POPC   C1B55999  39.180   8.539   6.094
 4206POPC   C2B56000  39.149   8.357   6.493
 4206POPC   C3B56001  39.146   8.163   6.874
 4206POPC   C4B56002  39.027   8.444   7.208
 4207POPC   NC356003   4.176  41.676   5.441
 4207POPC   PO456004   4.564  41.136   5.488
 4207POPC   GL156005   4.347  41.312   5.813
 4207POPC   GL256006   3.968  41.292   5.752
 4207POPC   C1A56007   4.491  41.435   6.230
 4207POPC   D2A56008   4.299  41.666   6.574
 4207POPC   C3A56009   4.463  41.640   7.001
 4207POPC   C4A56010   4.759  41.316   7.153
 4207POPC   C1B56011   3.970  41.538   6.131
 4207POPC   C2B56012   3.831  41.434   6.540
 4207POPC   C3B56013   3.986  41.447   6.925
 4207POPC   C4B56014   3.974  41.675   7.283
 4208POPC   NC356015  15.471  38.677   5.442
 4208POPC   PO456016  16.081  38.284   5.437
 4208POPC   GL156017  15.834  38.473   5.755
 4208POPC   GL256018  15.623  38.228   5.872
 4208POPC   C1A56019  15.793  38.568   6.219
 4208POPC   D2A56020  15.633  38.456   6.633
 4208POPC   C3A56021  15.973  38.505   6.931
 4208POPC   C4A56022  15.921  38.544   7.376
 4208POPC   C1B56023  15.677  38.064   6.279
 4208POPC   C2B56024  15.577  37.934   6.671
 4208POPC   C3B56025  15.702  38.100   7.036
 4208POPC   C4B56026  16.020  38.042   7.277
 4209POPC   NC356027  12.278  23.421   5.457
 4209POPC   PO456028  11.775  23.900   5.484
 4209POPC   GL156029  11.854  23.550   5.753
 4209POPC   GL256030  12.145  23.750   5.836
 4209POPC   C1A56031  11.946  23.441   6.181
 4209POPC   D2A56032  11.961  23.680   6.556
 4209POPC   C3A56033  11.939  23.535   6.975
 4209POPC   C4A56034  12.025  23.619   7.414
 4209POPC   C1B56035  12.230  23.977   6.216
 4209POPC   C2B56036  12.024  24.177   6.582
 4209POPC   C3B56037  12.110  24.017   6.990
 4209POPC   C4B56038  11.963  24.134   7.377
 4210POPC   NC356039  38.225  10.750   5.538
 4210POPC   PO456040  38.603  10.250   5.528
 4210POPC   GL156041  38.545  10.471   5.903
 4210POPC   GL256042  38.216  10.512   5.977
 4210POPC   C1A56043  38.540  10.653   6.325
 4210POPC   D2A56044  38.567  10.407   6.708
 4210POPC   C3A56045  38.451  10.674   7.030
 4210POPC   C4A56046  38.669  10.675   7.370
 4210POPC   C1B56047  38.273  10.221   6.313
 4210POPC   C2B56048  38.207  10.007   6.726
 4210POPC   C3B56049  38.182  10.173   7.172
 4210POPC   C4B56050  38.553  10.200   7.444
 4211POPC   NC356051   8.609  41.368   5.461
 4211POPC   PO456052   9.295  41.499   5.251
 4211POPC   GL156053   9.068  41.618   5.622
 4211POPC   GL256054   9.139  41.317   5.815
 4211POPC   C1A56055   8.985  41.730   6.084
 4211POPC   D2A56056   8.821  41.675   6.509
 4211POPC   C3A56057   9.034  41.744   6.909
 4211POPC   C4A56058   8.807  41.561   7.246
 4211POPC   C1B56059   8.976  41.211   6.239
 4211POPC   C2B56060   9.115  41.272   6.671
 4211POPC   C3B56061   9.218  41.246   7.111
 4211POPC   C4B56062   9.223  41.389   7.543
 4212POPC   NC356063  36.541  36.541   5.476
 4212POPC   PO456064  37.202  36.353   5.441
 4212POPC   GL156065  36.872  36.185   5.764
 4212POPC   GL256066  36.642  35.928   5.663
 4212POPC   C1A56067  36.759  36.085   6.220
 4212POPC   D2A56068  36.603  36.226   6.643
 4212POPC   C3A56069  36.836  36.166   7.002
 4212POPC   C4A56070  36.787  36.304   7.411
 4212POPC   C1B56071  36.409  35.777   6.019
 4212POPC   C2B56072  36.421  35.737   6.468
 4212POPC   C3B56073  36.482  35.786   6.896
 4212POPC   C4B56074  36.598  35.829   7.315
 4213POPC   NC356075  28.362  37.921   5.419
 4213POPC   PO456076  28.429  37.295   5.608
 4213POPC   GL156077  28.346  37.613   5.842
 4213POPC   GL256078  28.631  37.742   5.874
 4213POPC   C1A56079  28.147  37.530   6.209
 4213POPC   D2A56080  28.028  37.269   6.511
 4213POPC   C3A56081  28.114  37.435   6.906
 4213POPC   C4A56082  27.835  37.488   7.170
 4213POPC   C1B56083  28.659  37.440   6.211
 4213POPC   C2B56084  28.526  37.365   6.601
 4213POPC   C3B56085  28.589  37.630   6.959
 4213POPC   C4B56086  28.841  37.688   7.295
 4214POPC   NC356087  30.832  15.448   5.347
 4214POPC   PO456088  30.840  14.881   5.121
 4214POPC   GL156089  30.853  15.117   5.703
 4214POPC   GL256090  30.516  15.356   5.730
 4214POPC   C1A56091  30.830  14.964   6.168
 4214POPC   D2A56092  30.790  14.735   6.580
 4214POPC   C3A56093  30.591  14.958   6.932
 4214POPC   C4A56094  30.817  15.101   7.310
 4214POPC   C1B56095  30.750  15.456   6.104
 4214POPC   C2B56096  30.677  15.314   6.534
 4214POPC   C3B56097  30.772  15.459   6.937
 4214POPC   C4B56098  30.545  15.512   7.318
 4215POPC   NC356099  27.247  23.885   5.268
 4215POPC   PO456100  27.680  23.353   5.369
 4215POPC   GL156101  27.572  23.437   5.765
 4215POPC   GL256102  27.229  23.572   5.685
 4215POPC   C1A56103  27.770  23.632   6.170
 4215POPC   D2A56104  27.547  23.980   6.439
 4215POPC   C3A56105  27.444  23.898   6.873
 4215POPC   C4A56106  27.813  23.827   7.128
 4215POPC   C1B56107  27.273  23.666   6.115
 4215POPC   C2B56108  27.400  23.458   6.505
 4215POPC   C3B56109  27.213  23.439   6.912
 4215POPC   C4B56110  27.420  23.545   7.298
 4216POPC   NC356111  24.848  13.516   5.470
 4216POPC   PO456112  24.268  13.833   5.405
 4216POPC   GL156113  24.403  13.799   5.793
 4216POPC   GL256114  24.418  13.429   5.812
 4216POPC   C1A56115  24.252  13.733   6.211
 4216POPC   D2A56116  24.401  13.419   6.504
 4216POPC   C3A56117  24.464  13.561   6.905
 4216POPC   C4A56118  24.160  13.713   7.189
 4216POPC   C1B56119  24.744  13.556   6.131
 4216POPC   C2B56120  24.901  13.724   6.538
 4216POPC   C3B56121  24.873  13.856   6.976
 4216POPC   C4B56122  24.642  13.776   7.375
 4217POPC   NC356123  35.893  44.441   5.541
 4217POPC   PO456124  36.517  44.772   5.543
 4217POPC   GL156125  36.174  44.744   5.894
 4217POPC   GL256126  35.868  44.974   5.942
 4217POPC   C1A56127  36.212  44.578   6.339
 4217POPC   D2A56128  36.168  44.238   6.648
 4217POPC   C3A56129  36.102  44.375   7.057
 4217POPC   C4A56130  36.285  44.790   7.121
 4217POPC   C1B56131  35.718  44.690   6.275
 4217POPC   C2B56132  35.833  44.672   6.719
 4217POPC   C3B56133  35.771  44.817   7.164
 4217POPC   C4B56134  35.782  44.958   7.609
 4218POPC   NC356135   6.157  11.087   5.383
 4218POPC   PO456136   5.770  11.638   5.388
 4218POPC   GL156137   6.089  11.493   5.765
 4218POPC   GL256138   6.087  11.139   5.901
 4218POPC   C1A56139   6.244  11.684   6.201
 4218POPC   D2A56140   6.353  11.782   6.648
 4218POPC   C3A56141   6.012  11.731   6.950
 4218POPC   C4A56142   5.699  11.413   7.110
 4218POPC   C1B56143   5.840  11.375   6.221
 4218POPC   C2B56144   5.884  11.279   6.651
 4218POPC   C3B56145   6.133  11.151   6.999
 4218POPC   C4B56146   6.003  11.023   7.388
 4219POPC   NC356147   3.959  15.969   5.263
 4219POPC   PO456148   4.678  15.813   5.440
 4219POPC   GL156149   4.508  15.948   5.853
 4219POPC   GL256150   4.149  16.070   5.854
 4219POPC   C1A56151   4.584  16.079   6.293
 4219POPC   D2A56152   4.477  16.298   6.708
 4219POPC   C3A56153   4.570  16.039   7.088
 4219POPC   C4A56154   4.386  15.890   7.491
 4219POPC   C1B56155   4.117  16.312   6.261
 4219POPC   C2B56156   3.941  16.379   6.686
 4219POPC   C3B56157   4.076  16.261   7.115
 4219POPC   C4B56158   3.833  16.056   7.451
 4220POPC   NC356159  31.894  20.414   5.439
 4220POPC   PO456160  31.413  20.774   5.708
 4220POPC   GL156161  31.503  20.808   6.071
 4220POPC   GL256162  31.775  20.572   6.035
 4220POPC   C1A56163  31.297  21.059   6.351
 4220POPC   D2A56164  31.278  21.071   6.785
 4220POPC   C3A56165  31.463  20.710   6.988
 4220POPC   C4A56166  31.263  20.316   7.131
 4220POPC   C1B56167  31.517  20.361   6.309
 4220POPC   C2B56168  31.609  20.314   6.687
 4220POPC   C3B56169  31.955  20.395   6.900
 4220POPC   C4B56170  31.768  20.344   7.268
 4221POPC   NC356171  24.734  23.317   5.506
 4221POPC   PO456172  24.213  23.866   5.473
 4221POPC   GL156173  24.419  23.632   5.785
 4221POPC   GL256174  24.307  23.305   5.817
 4221POPC   C1A56175  24.584  23.790   6.172
 4221POPC   D2A56176  24.731  24.006   6.519
 4221POPC   C3A56177  24.506  23.979   6.889
 4221POPC   C4A56178  24.579  23.877   7.301
 4221POPC   C1B56179  24.345  23.352   6.256
 4221POPC   C2B56180  24.518  23.526   6.614
 4221POPC   C3B56181  24.462  23.430   7.037
 4221POPC   C4B56182  24.793  23.421   7.298
 4222POPC   NC356183   5.960  38.676   5.414
 4222POPC   PO456184   5.614  38.093   5.368
 4222POPC   GL156185   5.667  38.374   5.756
 4222POPC   GL256186   6.040  38.414   5.845
 4222POPC   C1A56187   5.412  38.466   6.159
 4222POPC   D2A56188   5.276  38.488   6.628
 4222POPC   C3A56189   5.626  38.457   6.961
 4222POPC   C4A56190   5.584  38.531   7.423
 4222POPC   C1B56191   5.906  38.596   6.239
 4222POPC   C2B56192   6.133  38.678   6.618
 4222POPC   C3B56193   6.151  38.523   7.017
 4222POPC   C4B56194   6.332  38.685   7.340
 4223POPC   NC356195   2.553  22.499   5.427
 4223POPC   PO456196   2.547  21.803   5.439
 4223POPC   GL156197   2.415  21.878   5.869
 4223POPC   GL256198   2.604  22.191   5.858
 4223POPC   C1A56199   2.649  21.926   6.299
 4223POPC   D2A56200   3.082  22.008   6.550
 4223POPC   C3A56201   3.022  22.003   7.013
 4223POPC   C4A56202   2.581  21.957   7.134
 4223POPC   C1B56203   2.735  22.499   6.169
 4223POPC   C2B56204   3.016  22.565   6.544
 4223POPC   C3B56205   2.980  22.654   6.996
 4223POPC   C4B56206   2.831  22.375   7.340
 4224POPC   NC356207  18.838  44.107   5.474
 4224POPC   PO456208  19.509  43.958   5.556
 4224POPC   GL156209  19.338  43.698   5.869
 4224POPC   GL256210  18.986  43.732   5.909
 4224POPC   C1A56211  19.316  43.631   6.302
 4224POPC   D2A56212  19.453  43.812   6.694
 4224POPC   C3A56213  19.347  43.570   7.044
 4224POPC   C4A56214  19.014  43.538   7.314
 4224POPC   C1B56215  18.810  43.719   6.345
 4224POPC   C2B56216  18.929  43.916   6.762
 4224POPC   C3B56217  18.908  44.027   7.215
 4224POPC   C4B56218  18.702  44.211   7.611
 4225POPC   NC356219  38.048  18.248   5.498
 4225POPC   PO456220  37.445  18.538   5.417
 4225POPC   GL156221  37.412  18.296   5.789
 4225POPC   GL256222  37.569  18.007   5.649
 4225POPC   C1A56223  37.416  18.341   6.256
 4225POPC   D2A56224  37.521  18.562   6.662
 4225POPC   C3A56225  37.802  18.352   6.979
 4225POPC   C4A56226  38.171  18.332   7.253
 4225POPC   C1B56227  37.750  17.987   6.082
 4225POPC   C2B56228  37.866  18.136   6.510
 4225POPC   C3B56229  38.061  17.924   6.886
 4225POPC   C4B56230  37.833  17.893   7.283
 4226POPC   NC356231  17.380  15.556   5.639
 4226POPC   PO456232  17.125  14.988   5.510
 4226POPC   GL156233  17.446  14.994   5.829
 4226POPC   GL256234  17.722  15.235   5.841
 4226POPC   C1A56235  17.438  15.050   6.273
 4226POPC   D2A56236  17.235  14.881   6.634
 4226POPC   C3A56237  17.184  15.197   6.923
 4226POPC   C4A56238  17.532  15.158   7.138
 4226POPC   C1B56239  17.797  15.428   6.244
 4226POPC   C2B56240  17.649  15.511   6.686
 4226POPC   C3B56241  17.869  15.520   7.103
 4226POPC   C4B56242  17.762  15.705   7.527
 4227POPC   NC356243  43.532   7.500   5.333
 4227POPC   PO456244  44.172   7.336   5.408
 4227POPC   GL156245  43.877   7.308   5.768
 4227POPC   GL256246  43.724   7.648   5.783
 4227POPC   C1A56247  43.824   7.352   6.243
 4227POPC   D2A56248  43.655   7.174   6.620
 4227POPC   C3A56249  43.843   7.283   7.030
 4227POPC   C4A56250  43.593   7.072   7.309
 4227POPC   C1B56251  44.097   7.717   6.010
 4227POPC   C2B56252  44.068   7.796   6.443
 4227POPC   C3B56253  43.714   7.671   6.713
 4227POPC   C4B56254  43.605   7.715   7.164
 4228POPC   NC356255  13.888  11.516   5.472
 4228POPC   PO456256  13.388  11.142   5.390
 4228POPC   GL156257  13.540  11.293   5.766
 4228POPC   GL256258  13.848  11.105   5.805
 4228POPC   C1A56259  13.567  11.455   6.181
 4228POPC   D2A56260  13.706  11.280   6.570
 4228POPC   C3A56261  13.694  11.467   6.977
 4228POPC   C4A56262  13.387  11.512   7.249
 4228POPC   C1B56263  14.039  11.209   6.183
 4228POPC   C2B56264  14.161  11.020   6.553
 4228POPC   C3B56265  13.918  11.010   6.945
 4228POPC   C4B56266  13.897  11.028   7.414
 4229POPC   NC356267  25.608  13.607   5.227
 4229POPC   PO456268  25.080  13.925   5.439
 4229POPC   GL156269  25.374  13.783   5.722
 4229POPC   GL256270  25.331  13.428   5.683
 4229POPC   C1A56271  25.385  13.640   6.172
 4229POPC   D2A56272  25.389  13.481   6.623
 4229POPC   C3A56273  25.402  13.714   7.031
 4229POPC   C4A56274  25.160  13.864   7.400
 4229POPC   C1B56275  25.112  13.193   6.072
 4229POPC   C2B56276  24.875  13.194   6.490
 4229POPC   C3B56277  24.964  13.353   6.906
 4229POPC   C4B56278  25.277  13.261   7.228
 4230POPC   NC356279  13.895  21.464   5.255
 4230POPC   PO456280  13.318  21.085   5.449
 4230POPC   GL156281  13.447  21.473   5.664
 4230POPC   GL256282  13.792  21.580   5.733
 4230POPC   C1A56283  13.396  21.451   6.116
 4230POPC   D2A56284  13.348  21.672   6.500
 4230POPC   C3A56285  13.278  21.358   6.820
 4230POPC   C4A56286  13.524  21.253   7.211
 4230POPC   C1B56287  13.757  21.794   6.104
 4230POPC   C2B56288  13.872  21.655   6.511
 4230POPC   C3B56289  13.676  21.682   6.906
 4230POPC   C4B56290  13.877  21.615   7.273
 4231POPC   NC356291   1.474   1.738   5.551
 4231POPC   PO456292   0.891   1.611   5.229
 4231POPC   GL156293   1.009   1.826   5.732
 4231POPC   GL256294   1.204   2.104   5.812
 4231POPC   C1A56295   1.227   1.746   6.172
 4231POPC   D2A56296   1.223   1.759   6.619
 4231POPC   C3A56297   1.434   1.941   6.974
 4231POPC   C4A56298   1.291   1.929   7.420
 4231POPC   C1B56299   0.958   2.193   6.213
 4231POPC   C2B56300   1.089   2.239   6.631
 4231POPC   C3B56301   1.056   2.243   7.079
 4231POPC   C4B56302   1.413   2.417   7.283
 4232POPC   NC356303  37.398  26.903   5.580
 4232POPC   PO456304  36.759  26.844   5.391
 4232POPC   GL156305  36.599  26.905   5.802
 4232POPC   GL256306  36.622  27.302   5.760
 4232POPC   C1A56307  36.643  26.696   6.242
 4232POPC   D2A56308  36.673  26.411   6.628
 4232POPC   C3A56309  36.843  26.532   7.030
 4232POPC   C4A56310  37.246  26.757   7.157
 4232POPC   C1B56311  36.512  27.227   6.189
 4232POPC   C2B56312  36.441  27.035   6.583
 4232POPC   C3B56313  36.709  27.017   6.972
 4232POPC   C4B56314  36.871  26.970   7.426
 4233POPC   NC356315   0.595   4.796   5.514
 4233POPC   PO456316   0.648   5.420   5.377
 4233POPC   GL156317   0.436   5.269   5.772
 4233POPC   GL256318   0.226   4.946   5.845
 4233POPC   C1A56319   0.519   5.195   6.215
 4233POPC   D2A56320   0.685   5.444   6.551
 4233POPC   C3A56321   0.580   5.323   6.929
 4233POPC   C4A56322   0.688   5.064   7.263
 4233POPC   C1B56323   0.341   4.730   6.242
 4233POPC   C2B56324   0.487   4.894   6.656
 4233POPC   C3B56325   0.264   4.848   7.041
 4233POPC   C4B56326   0.289   4.852   7.496
 4234POPC   NC356327  30.894  25.640   5.431
 4234POPC   PO456328  30.637  25.047   5.338
 4234POPC   GL156329  30.703  25.222   5.735
 4234POPC   GL256330  31.057  25.209   5.677
 4234POPC   C1A56331  30.561  25.300   6.183
 4234POPC   D2A56332  30.355  25.102   6.551
 4234POPC   C3A56333  30.601  25.227   6.902
 4234POPC   C4A56334  30.494  25.404   7.299
 4234POPC   C1B56335  31.048  25.084   6.112
 4234POPC   C2B56336  31.030  25.281   6.511
 4234POPC   C3B56337  31.115  25.106   6.903
 4234POPC   C4B56338  30.997  25.245   7.266
 4235POPC   NC356339   3.686  40.211   5.349
 4235POPC   PO456340   3.443  39.683   5.478
 4235POPC   GL156341   3.726  39.912   5.774
 4235POPC   GL256342   3.651  40.297   5.850
 4235POPC   C1A56343   3.723  39.961   6.210
 4235POPC   D2A56344   3.450  39.887   6.533
 4235POPC   C3A56345   3.621  40.065   6.873
 4235POPC   C4A56346   3.502  40.153   7.246
 4235POPC   C1B56347   3.316  40.283   6.198
 4235POPC   C2B56348   3.370  40.461   6.634
 4235POPC   C3B56349   3.634  40.589   6.991
 4235POPC   C4B56350   4.027  40.463   7.149
 4236POPC   NC356351  19.504  11.924   5.329
 4236POPC   PO456352  19.965  12.383   5.164
 4236POPC   GL156353  19.932  12.235   5.636
 4236POPC   GL256354  19.812  11.896   5.758
 4236POPC   C1A56355  20.026  12.140   6.129
 4236POPC   D2A56356  19.759  12.032   6.530
 4236POPC   C3A56357  19.932  12.159   6.938
 4236POPC   C4A56358  19.777  12.526   7.181
 4236POPC   C1B56359  19.689  11.678   6.153
 4236POPC   C2B56360  19.665  11.453   6.574
 4236POPC   C3B56361  19.577  11.699   6.939
 4236POPC   C4B56362  19.456  12.083   7.192
 4237POPC   NC356363  33.837  28.140   5.359
 4237POPC   PO456364  34.200  28.749   5.476
 4237POPC   GL156365  34.034  28.430   5.736
 4237POPC   GL256366  33.696  28.489   5.753
 4237POPC   C1A56367  33.990  28.148   6.091
 4237POPC   D2A56368  33.975  28.333   6.517
 4237POPC   C3A56369  34.131  28.129   6.900
 4237POPC   C4A56370  33.807  27.950   7.158
 4237POPC   C1B56371  33.562  28.385   6.164
 4237POPC   C2B56372  33.523  28.574   6.542
 4237POPC   C3B56373  33.663  28.412   6.947
 4237POPC   C4B56374  33.399  28.201   7.269
 4238POPC   NC356375  32.221  27.401   5.458
 4238POPC   PO456376  32.515  27.969   5.479
 4238POPC   GL156377  32.413  27.696   5.831
 4238POPC   GL256378  32.060  27.674   5.888
 4238POPC   C1A56379  32.390  27.474   6.254
 4238POPC   D2A56380  32.181  27.367   6.672
 4238POPC   C3A56381  32.404  27.533   7.052
 4238POPC   C4A56382  32.501  27.729   7.486
 4238POPC   C1B56383  31.874  27.541   6.254
 4238POPC   C2B56384  31.752  27.682   6.647
 4238POPC   C3B56385  31.860  27.553   7.051
 4238POPC   C4B56386  32.055  27.508   7.413
 4239POPC   NC356387  17.684  41.588   5.386
 4239POPC   PO456388  17.016  41.881   5.425
 4239POPC   GL156389  17.134  41.682   5.856
 4239POPC   GL256390  17.420  41.466   5.811
 4239POPC   C1A56391  17.300  41.556   6.293
 4239POPC   D2A56392  17.658  41.747   6.519
 4239POPC   C3A56393  17.732  41.667   6.947
 4239POPC   C4A56394  17.358  41.593   7.212
 4239POPC   C1B56395  17.772  41.440   6.109
 4239POPC   C2B56396  17.799  41.262   6.544
 4239POPC   C3B56397  17.659  41.177   6.987
 4239POPC   C4B56398  17.804  41.369   7.376
 4240POPC   NC356399  24.660  14.144   5.424
 4240POPC   PO456400  24.167  14.572   5.484
 4240POPC   GL156401  24.301  14.317   5.793
 4240POPC   GL256402  24.615  14.487   5.822
 4240POPC   C1A56403  24.345  14.268   6.251
 4240POPC   D2A56404  24.366  14.514   6.655
 4240POPC   C3A56405  24.260  14.254   7.052
 4240POPC   C4A56406  24.261  14.098   7.507
 4240POPC   C1B56407  24.830  14.415   6.236
 4240POPC   C2B56408  24.843  14.333   6.684
 4240POPC   C3B56409  24.760  14.332   7.139
 4240POPC   C4B56410  24.825  14.224   7.594
 4241POPC   NC356411  36.997  35.970   5.297
 4241POPC   PO456412  36.701  35.457   5.309
 4241POPC   GL156413  36.738  35.438   5.764
 4241POPC   GL256414  37.082  35.504   5.796
 4241POPC   C1A56415  36.835  35.576   6.224
 4241POPC   D2A56416  36.922  35.777   6.639
 4241POPC   C3A56417  36.864  35.448   6.983
 4241POPC   C4A56418  36.736  35.000   7.016
 4241POPC   C1B56419  36.974  35.099   6.102
 4241POPC   C2B56420  37.014  34.927   6.567
 4241POPC   C3B56421  37.248  35.074   6.959
 4241POPC   C4B56422  37.337  35.139   7.422
 4242POPC   NC356423  15.426   1.268   5.556
 4242POPC   PO456424  16.029   1.215   5.271
 4242POPC   GL156425  15.916   1.090   5.696
 4242POPC   GL256426  15.661   0.831   5.696
 4242POPC   C1A56427  16.042   1.130   6.154
 4242POPC   D2A56428  16.120   1.327   6.570
 4242POPC   C3A56429  15.977   1.260   6.987
 4242POPC   C4A56430  16.191   1.092   7.346
 4242POPC   C1B56431  15.611   0.838   6.150
 4242POPC   C2B56432  15.633   1.104   6.549
 4242POPC   C3B56433  15.653   0.866   6.947
 4242POPC   C4B56434  15.707   1.023   7.388
 4243POPC   NC356435   9.326   0.444   5.393
 4243POPC   PO456436   9.725  44.950   5.380
 4243POPC   GL156437   9.607   0.227   5.813
 4243POPC   GL256438   9.287   0.405   5.907
 4243POPC   C1A56439   9.621   0.293   6.303
 4243POPC   D2A56440   9.651   0.482   6.701
 4243POPC   C3A56441   9.805   0.223   7.010
 4243POPC   C4A56442   9.721   0.195   7.442
 4243POPC   C1B56443   9.510   0.751   6.141
 4243POPC   C2B56444   9.603   0.964   6.545
 4243POPC   C3B56445   9.526   0.942   6.968
 4243POPC   C4B56446   9.695   0.674   7.251
 4244POPC   NC356447  41.760  40.111   5.337
 4244POPC   PO456448  41.149  40.271   5.371
 4244POPC   GL156449  41.411  40.274   5.738
 4244POPC   GL256450  41.119  40.130   5.909
 4244POPC   C1A56451  41.761  40.196   6.067
 4244POPC   D2A56452  41.881  39.918   6.449
 4244POPC   C3A56453  41.842  40.054   6.916
 4244POPC   C4A56454  41.705  39.820   7.311
 4244POPC   C1B56455  41.309  40.359   6.263
 4244POPC   C2B56456  41.372  40.197   6.667
 4244POPC   C3B56457  41.301  39.970   7.043
 4244POPC   C4B56458  41.389  40.246   7.390
 4245POPC   NC356459  33.193  11.868   5.331
 4245POPC   PO456460  32.999  12.391   5.221
 4245POPC   GL156461  33.092  12.358   5.667
 4245POPC   GL256462  32.917  12.044   5.769
 4245POPC   C1A56463  33.085  12.343   6.150
 4245POPC   D2A56464  32.773  12.226   6.493
 4245POPC   C3A56465  32.861  12.177   6.959
 4245POPC   C4A56466  32.991  12.132   7.393
 4245POPC   C1B56467  33.050  11.840   6.205
 4245POPC   C2B56468  33.180  11.913   6.659
 4245POPC   C3B56469  33.295  11.782   7.113
 4245POPC   C4B56470  33.172  11.614   7.542
 4246POPC   NC356471  17.301  21.205   5.608
 4246POPC   PO456472  17.016  21.793   5.490
 4246POPC   GL156473  17.237  21.644   5.895
 4246POPC   GL256474  17.596  21.490   5.928
 4246POPC   C1A56475  17.205  21.380   6.280
 4246POPC   D2A56476  17.361  21.197   6.675
 4246POPC   C3A56477  17.267  21.347   7.068
 4246POPC   C4A56478  17.243  21.138   7.465
 4246POPC   C1B56479  17.704  21.195   6.283
 4246POPC   C2B56480  17.853  21.095   6.728
 4246POPC   C3B56481  17.668  21.037   7.158
 4246POPC   C4B56482  17.489  20.706   7.458
 4247POPC   NC356483  21.943  11.518   5.390
 4247POPC   PO456484  22.465  11.074   5.413
 4247POPC   GL156485  22.335  11.407   5.729
 4247POPC   GL256486  22.015  11.248   5.824
 4247POPC   C1A56487  22.237  11.570   6.157
 4247POPC   D2A56488  22.459  11.669   6.526
 4247POPC   C3A56489  22.352  11.444   6.894
 4247POPC   C4A56490  22.109  11.497   7.234
 4247POPC   C1B56491  21.828  11.268   6.250
 4247POPC   C2B56492  21.867  11.475   6.646
 4247POPC   C3B56493  21.730  11.270   7.004
 4247POPC   C4B56494  21.786  11.073   7.411
 4248POPC   NC356495  26.743  41.848   5.442
 4248POPC   PO456496  27.437  41.758   5.582
 4248POPC   GL156497  27.093  41.777   5.872
 4248POPC   GL256498  26.863  41.511   5.889
 4248POPC   C1A56499  27.014  41.792   6.336
 4248POPC   D2A56500  26.839  41.595   6.698
 4248POPC   C3A56501  26.932  41.690   7.114
 4248POPC   C4A56502  26.515  41.787   7.252
 4248POPC   C1B56503  26.555  41.556   6.245
 4248POPC   C2B56504  26.445  41.293   6.604
 4248POPC   C3B56505  26.531  41.338   7.021
 4248POPC   C4B56506  26.784  41.275   7.379
 4249POPC   NC356507  11.416   0.692   5.341
 4249POPC   PO456508  10.891   0.697   5.739
 4249POPC   GL156509  11.071   0.336   5.882
 4249POPC   GL256510  11.336   0.115   5.700
 4249POPC   C1A56511  11.081   0.346   6.303
 4249POPC   D2A56512  11.091   0.611   6.635
 4249POPC   C3A56513  11.283   0.446   6.989
 4249POPC   C4A56514  11.135   0.141   7.288
 4249POPC   C1B56515  11.543   0.338   6.058
 4249POPC   C2B56516  11.574   0.354   6.536
 4249POPC   C3B56517  11.787   0.354   6.954
 4249POPC   C4B56518  11.713   0.123   7.354
 4250POPC   NC356519   0.478  14.934   5.629
 4250POPC   PO456520   0.265  14.252   5.430
 4250POPC   GL156521   0.221  14.519   5.786
 4250POPC   GL256522   0.578  14.469   5.812
 4250POPC   C1A56523   0.274  14.547   6.243
 4250POPC   D2A56524   0.361  14.242   6.581
 4250POPC   C3A56525   0.270  14.366   6.972
 4250POPC   C4A56526   0.493  14.222   7.332
 4250POPC   C1B56527   0.661  14.206   6.152
 4250POPC   C2B56528   0.827  14.442   6.497
 4250POPC   C3B56529   0.776  14.506   6.934
 4250POPC   C4B56530   0.542  14.756   7.194
 4251POPC   NC356531  10.241  14.805   5.464
 4251POPC   PO456532   9.593  14.537   5.387
 4251POPC   GL156533   9.638  14.355   5.788
 4251POPC   GL256534   9.955  14.221   5.741
 4251POPC   C1A56535   9.687  14.480   6.222
 4251POPC   D2A56536   9.567  14.322   6.609
 4251POPC   C3A56537   9.659  14.576   6.972
 4251POPC   C4A56538   9.374  14.706   7.292
 4251POPC   C1B56539  10.179  14.336   6.124
 4251POPC   C2B56540  10.131  14.582   6.494
 4251POPC   C3B56541  10.199  14.532   6.928
 4251POPC   C4B56542  10.048  14.433   7.310
 4252POPC   NC356543  25.433  16.072   5.395
 4252POPC   PO456544  24.749  16.106   5.426
 4252POPC   GL156545  24.906  15.846   5.757
 4252POPC   GL256546  25.243  15.704   5.717
 4252POPC   C1A56547  25.089  15.966   6.168
 4252POPC   D2A56548  25.437  16.083   6.431
 4252POPC   C3A56549  25.308  15.979   6.843
 4252POPC   C4A56550  25.357  16.044   7.257
 4252POPC   C1B56551  25.479  15.620   6.062
 4252POPC   C2B56552  25.390  15.585   6.482
 4252POPC   C3B56553  25.020  15.568   6.703
 4252POPC   C4B56554  25.030  15.644   7.147
 4253POPC   NC356555   0.814  38.853   5.522
 4253POPC   PO456556   0.278  39.349   5.436
 4253POPC   GL156557   0.491  39.305   5.795
 4253POPC   GL256558   0.341  39.042   5.865
 4253POPC   C1A56559   0.589  39.345   6.240
 4253POPC   D2A56560   0.732  39.173   6.631
 4253POPC   C3A56561   0.519  39.270   7.016
 4253POPC   C4A56562   0.287  39.545   7.297
 4253POPC   C1B56563   0.111  38.810   6.166
 4253POPC   C2B56564   0.230  38.677   6.568
 4253POPC   C3B56565   0.068  38.828   6.953
 4253POPC   C4B56566   0.215  38.987   7.281
 4254POPC   NC356567  13.050  16.768   5.324
 4254POPC   PO456568  12.364  16.743   5.401
 4254POPC   GL156569  12.690  16.772   5.723
 4254POPC   GL256570  12.693  16.450   5.782
 4254POPC   C1A56571  12.917  16.764   6.153
 4254POPC   D2A56572  12.936  17.056   6.522
 4254POPC   C3A56573  12.897  16.917   6.961
 4254POPC   C4A56574  13.146  16.701   7.279
 4254POPC   C1B56575  12.616  16.303   6.211
 4254POPC   C2B56576  12.824  16.442   6.618
 4254POPC   C3B56577  12.739  16.432   7.079
 4254POPC   C4B56578  12.586  16.195   7.455
 4255POPC   NC356579   9.398  32.150   5.580
 4255POPC   PO456580   9.737  32.714   5.320
 4255POPC   GL156581   9.792  32.487   5.734
 4255POPC   GL256582   9.495  32.486   5.952
 4255POPC   C1A56583   9.946  32.451   6.172
 4255POPC   D2A56584  10.004  32.349   6.626
 4255POPC   C3A56585   9.766  32.416   6.993
 4255POPC   C4A56586   9.758  32.229   7.447
 4255POPC   C1B56587   9.473  32.216   6.312
 4255POPC   C2B56588   9.288  32.347   6.700
 4255POPC   C3B56589   9.331  32.181   7.089
 4255POPC   C4B56590   9.579  31.822   7.173
 4256POPC   NC356591  26.855   9.214   5.625
 4256POPC   PO456592  26.554   8.658   5.609
 4256POPC   GL156593  26.664   8.857   5.962
 4256POPC   GL256594  26.976   8.856   5.955
 4256POPC   C1A56595  26.707   9.151   6.300
 4256POPC   D2A56596  26.915   8.935   6.629
 4256POPC   C3A56597  26.872   8.953   7.081
 4256POPC   C4A56598  26.792   9.351   7.268
 4256POPC   C1B56599  27.209   9.130   6.228
 4256POPC   C2B56600  27.122   9.432   6.512
 4256POPC   C3B56601  27.218   9.263   6.893
 4256POPC   C4B56602  27.331   9.260   7.301
 4257POPC   NC356603  20.244  29.044   5.333
 4257POPC   PO456604  20.844  28.765   5.261
 4257POPC   GL156605  20.766  28.997   5.736
 4257POPC   GL256606  20.548  29.308   5.848
 4257POPC   C1A56607  20.970  29.268   6.139
 4257POPC   D2A56608  20.918  29.457   6.614
 4257POPC   C3A56609  20.733  29.183   6.991
 4257POPC   C4A56610  20.573  29.265   7.422
 4257POPC   C1B56611  20.497  29.518   6.280
 4257POPC   C2B56612  20.406  29.622   6.744
 4257POPC   C3B56613  20.238  29.590   7.164
 4257POPC   C4B56614  20.074  29.323   7.521
 4258POPC   NC356615  43.984  11.527   5.401
 4258POPC   PO456616  44.115  10.872   5.342
 4258POPC   GL156617  43.940  11.061   5.754
 4258POPC   GL256618  43.657  11.325   5.758
 4258POPC   C1A56619  43.793  10.987   6.203
 4258POPC   D2A56620  43.557  10.923   6.596
 4258POPC   C3A56621  43.789  10.999   6.986
 4258POPC   C4A56622  44.095  11.169   7.279
 4258POPC   C1B56623  43.872  11.481   6.132
 4258POPC   C2B56624  43.942  11.352   6.571
 4258POPC   C3B56625  43.946  11.549   6.971
 4258POPC   C4B56626  43.659  11.422   7.287
 4259POPC   NC356627  43.755  22.505   5.365
 4259POPC   PO456628  44.172  22.017   5.320
 4259POPC   GL156629  44.093  22.009   5.760
 4259POPC   GL256630  43.747  22.056   5.858
 4259POPC   C1A56631  44.126  22.220   6.169
 4259POPC   D2A56632  43.913  22.180   6.580
 4259POPC   C3A56633  44.062  22.334   6.958
 4259POPC   C4A56634  43.843  22.530   7.319
 4259POPC   C1B56635  43.870  21.808   6.244
 4259POPC   C2B56636  44.173  21.719   6.567
 4259POPC   C3B56637  43.999  21.822   6.957
 4259POPC   C4B56638  43.660  22.061   7.166
 4260POPC   NC356639   2.689   4.829   5.053
 4260POPC   PO456640   2.382   5.315   5.317
 4260POPC   GL156641   2.592   5.107   5.648
 4260POPC   GL256642   2.503   5.409   5.849
 4260POPC   C1A56643   2.725   4.883   6.040
 4260POPC   D2A56644   2.877   5.031   6.456
 4260POPC   C3A56645   2.781   4.839   6.846
 4260POPC   C4A56646   2.861   4.905   7.272
 4260POPC   C1B56647   2.561   5.617   6.267
 4260POPC   C2B56648   2.755   5.524   6.662
 4260POPC   C3B56649   2.887   5.387   7.070
 4260POPC   C4B56650   2.770   5.376   7.489
 4261POPC   NC356651  31.659  15.808   5.439
 4261POPC   PO456652  31.327  16.445   5.388
 4261POPC   GL156653  31.198  16.163   5.769
 4261POPC   GL256654  31.280  15.816   5.806
 4261POPC   C1A56655  31.307  16.081   6.235
 4261POPC   D2A56656  31.197  16.195   6.624
 4261POPC   C3A56657  31.337  15.885   6.934
 4261POPC   C4A56658  31.136  15.637   7.270
 4261POPC   C1B56659  31.665  15.745   6.090
 4261POPC   C2B56660  31.752  15.891   6.513
 4261POPC   C3B56661  31.829  15.676   6.909
 4261POPC   C4B56662  31.652  15.699   7.304
 4262POPC   NC356663  23.654  41.237   5.437
 4262POPC   PO456664  23.417  40.560   5.325
 4262POPC   GL156665  23.611  40.626   5.721
 4262POPC   GL256666  23.369  40.429   5.867
 4262POPC   C1A56667  23.855  40.837   6.068
 4262POPC   D2A56668  23.924  40.992   6.492
 4262POPC   C3A56669  23.932  40.729   6.871
 4262POPC   C4A56670  23.734  40.929   7.200
 4262POPC   C1B56671  23.380  40.702   6.230
 4262POPC   C2B56672  23.460  40.762   6.654
 4262POPC   C3B56673  23.341  40.631   7.045
 4262POPC   C4B56674  23.591  40.435   7.334
 4263POPC   NC356675   3.189  10.082   5.372
 4263POPC   PO456676   3.622   9.539   5.246
 4263POPC   GL156677   3.502   9.634   5.739
 4263POPC   GL256678   3.353   9.924   5.848
 4263POPC   C1A56679   3.755   9.890   6.142
 4263POPC   D2A56680   4.075   9.949   6.533
 4263POPC   C3A56681   3.968   9.833   6.964
 4263POPC   C4A56682   3.670   9.540   7.205
 4263POPC   C1B56683   3.384   9.533   6.202
 4263POPC   C2B56684   3.412   9.571   6.653
 4263POPC   C3B56685   3.479   9.947   6.882
 4263POPC   C4B56686   3.599  10.045   7.297
 4264POPC   NC356687   1.686  40.196   5.363
 4264POPC   PO456688   2.261  40.425   5.427
 4264POPC   GL156689   2.026  40.166   5.748
 4264POPC   GL256690   2.182  39.865   5.875
 4264POPC   C1A56691   1.805  40.063   6.161
 4264POPC   D2A56692   1.929  39.784   6.500
 4264POPC   C3A56693   1.767  39.856   6.905
 4264POPC   C4A56694   1.861  40.099   7.259
 4264POPC   C1B56695   2.283  40.232   6.169
 4264POPC   C2B56696   2.485  40.229   6.552
 4264POPC   C3B56697   2.229  40.091   6.873
 4264POPC   C4B56698   2.297  40.355   7.234
 4265POPC   NC356699   7.219  19.879   5.550
 4265POPC   PO456700   7.758  19.602   5.311
 4265POPC   GL156701   7.566  19.560   5.765
 4265POPC   GL256702   7.495  19.867   5.982
 4265POPC   C1A56703   7.347  19.416   6.166
 4265POPC   D2A56704   7.086  19.605   6.490
 4265POPC   C3A56705   7.263  19.713   6.866
 4265POPC   C4A56706   7.439  19.584   7.210
 4265POPC   C1B56707   7.402  20.215   6.267
 4265POPC   C2B56708   7.263  20.187   6.688
 4265POPC   C3B56709   7.246  20.181   7.115
 4265POPC   C4B56710   7.394  20.016   7.477
 4266POPC   NC356711  12.256  21.852   5.386
 4266POPC   PO456712  12.909  22.155   5.383
 4266POPC   GL156713  12.744  22.092   5.781
 4266POPC   GL256714  12.559  21.761   5.770
 4266POPC   C1A56715  12.827  22.313   6.176
 4266POPC   D2A56716  12.772  22.540   6.569
 4266POPC   C3A56717  12.851  22.267   6.916
 4266POPC   C4A56718  12.785  22.355   7.375
 4266POPC   C1B56719  12.484  21.905   6.178
 4266POPC   C2B56720  12.475  22.125   6.565
 4266POPC   C3B56721  12.447  21.986   6.953
 4266POPC   C4B56722  12.671  21.853   7.336
 4267POPC   NC356723  26.435  21.570   4.941
 4267POPC   PO456724  26.050  21.074   5.297
 4267POPC   GL156725  25.964  21.231   5.683
 4267POPC   GL256726  26.223  21.062   5.840
 4267POPC   C1A56727  26.062  21.497   6.034
 4267POPC   D2A56728  26.216  21.545   6.424
 4267POPC   C3A56729  25.959  21.576   6.756
 4267POPC   C4A56730  26.059  21.515   7.153
 4267POPC   C1B56731  25.963  21.013   6.202
 4267POPC   C2B56732  26.037  21.067   6.650
 4267POPC   C3B56733  26.172  21.028   7.084
 4267POPC   C4B56734  26.157  21.161   7.508
 4268POPC   NC356735  32.046  20.944   4.898
 4268POPC   PO456736  31.905  21.544   5.301
 4268POPC   GL156737  32.085  21.403   5.731
 4268POPC   GL256738  32.465  21.286   5.764
 4268POPC   C1A56739  32.159  21.265   6.187
 4268POPC   D2A56740  32.223  21.540   6.549
 4268POPC   C3A56741  32.161  21.356   6.939
 4268POPC   C4A56742  31.940  21.329   7.329
 4268POPC   C1B56743  32.587  21.539   6.145
 4268POPC   C2B56744  32.665  21.781   6.553
 4268POPC   C3B56745  32.612  21.615   7.006
 4268POPC   C4B56746  32.466  21.390   7.392
 4269POPC   NC356747  10.764  44.037   5.381
 4269POPC   PO456748  10.258  43.543   5.266
 4269POPC   GL156749  10.429  43.739   5.686
 4269POPC   GL256750  10.776  43.668   5.750
 4269POPC   C1A56751  10.378  43.963   6.108
 4269POPC   D2A56752  10.238  44.142   6.525
 4269POPC   C3A56753  10.334  43.929   6.908
 4269POPC   C4A56754  10.460  44.021   7.347
 4269POPC   C1B56755  10.889  43.794   6.155
 4269POPC   C2B56756  10.725  43.746   6.564
 4269POPC   C3B56757  10.878  43.870   6.957
 4269POPC   C4B56758  10.835  43.703   7.344
 4270POPC   NC356759  37.603  25.924   5.448
 4270POPC   PO456760  37.242  26.463   5.575
 4270POPC   GL156761  37.407  26.140   5.899
 4270POPC   GL256762  37.354  25.764   5.881
 4270POPC   C1A56763  37.718  26.059   6.278
 4270POPC   D2A56764  37.942  26.000   6.712
 4270POPC   C3A56765  37.850  26.242   7.114
 4270POPC   C4A56766  37.812  26.050   7.574
 4270POPC   C1B56767  37.249  25.856   6.296
 4270POPC   C2B56768  37.407  25.849   6.692
 4270POPC   C3B56769  37.578  25.823   7.065
 4270POPC   C4B56770  37.366  25.837   7.432
 4271POPC   NC356771   5.539  13.536   5.444
 4271POPC   PO456772   6.002  13.989   5.408
 4271POPC   GL156773   5.910  13.914   5.820
 4271POPC   GL256774   5.932  13.550   5.799
 4271POPC   C1A56775   5.696  13.765   6.203
 4271POPC   D2A56776   5.883  13.612   6.580
 4271POPC   C3A56777   5.732  13.788   6.936
 4271POPC   C4A56778   5.873  14.062   7.275
 4271POPC   C1B56779   6.181  13.460   6.187
 4271POPC   C2B56780   6.293  13.299   6.605
 4271POPC   C3B56781   6.032  13.280   6.975
 4271POPC   C4B56782   5.988  13.565   7.317
 4272POPC   NC356783  37.918  20.739   5.538
 4272POPC   PO456784  37.469  21.094   5.075
 4272POPC   GL156785  37.631  21.232   5.571
 4272POPC   GL256786  37.388  21.452   5.788
 4272POPC   C1A56787  37.746  21.274   6.082
 4272POPC   D2A56788  37.869  21.543   6.475
 4272POPC   C3A56789  37.801  21.397   6.929
 4272POPC   C4A56790  37.568  21.254   7.308
 4272POPC   C1B56791  37.433  21.690   6.213
 4272POPC   C2B56792  37.404  21.764   6.688
 4272POPC   C3B56793  37.213  21.550   7.066
 4272POPC   C4B56794  37.232  21.597   7.521
 4273POPC   NC356795  29.579  10.678   5.600
 4273POPC   PO456796  30.242  10.593   5.400
 4273POPC   GL156797  30.076  10.338   5.782
 4273POPC   GL256798  29.722  10.263   5.889
 4273POPC   C1A56799  30.093  10.420   6.235
 4273POPC   D2A56800  30.040  10.787   6.520
 4273POPC   C3A56801  29.997  10.632   6.924
 4273POPC   C4A56802  30.034  10.657   7.396
 4273POPC   C1B56803  29.600  10.566   6.264
 4273POPC   C2B56804  29.508  10.592   6.741
 4273POPC   C3B56805  29.619  10.425   7.175
 4273POPC   C4B56806  29.747  10.291   7.591
 4274POPC   NC356807  35.051  23.026   5.365
 4274POPC   PO456808  35.576  22.629   5.236
 4274POPC   GL156809  35.491  22.817   5.657
 4274POPC   GL256810  35.704  23.119   5.799
 4274POPC   C1A56811  35.382  22.858   6.117
 4274POPC   D2A56812  35.615  22.895   6.500
 4274POPC   C3A56813  35.518  22.972   6.924
 4274POPC   C4A56814  35.599  22.791   7.329
 4274POPC   C1B56815  35.547  23.336   6.216
 4274POPC   C2B56816  35.219  23.231   6.562
 4274POPC   C3B56817  35.093  23.253   7.014
 4274POPC   C4B56818  35.369  23.236   7.380
 4275POPC   NC356819  38.041  22.078   5.472
 4275POPC   PO456820  38.694  21.955   5.530
 4275POPC   GL156821  38.434  22.119   5.869
 4275POPC   GL256822  38.167  22.404   5.838
 4275POPC   C1A56823  38.603  22.128   6.282
 4275POPC   D2A56824  38.795  21.983   6.635
 4275POPC   C3A56825  38.686  22.172   6.995
 4275POPC   C4A56826  38.692  22.097   7.417
 4275POPC   C1B56827  38.242  22.474   6.290
 4275POPC   C2B56828  38.273  22.257   6.712
 4275POPC   C3B56829  38.230  22.308   7.194
 4275POPC   C4B56830  38.434  22.500   7.603
 4276POPC   NC356831   2.027  36.781   5.244
 4276POPC   PO456832   1.349  36.878   5.136
 4276POPC   GL156833   1.207  36.954   5.663
 4276POPC   GL256834   1.467  37.138   5.881
 4276POPC   C1A56835   1.265  36.697   6.090
 4276POPC   D2A56836   0.998  36.420   6.389
 4276POPC   C3A56837   1.129  36.507   6.837
 4276POPC   C4A56838   0.992  36.624   7.286
 4276POPC   C1B56839   1.657  37.130   6.287
 4276POPC   C2B56840   1.538  37.317   6.696
 4276POPC   C3B56841   1.237  37.151   7.017
 4276POPC   C4B56842   1.299  37.022   7.436
 4277POPC   NC356843  35.969  28.858   5.256
 4277POPC   PO456844  36.565  29.038   5.284
 4277POPC   GL156845  36.289  28.978   5.652
 4277POPC   GL256846  36.216  29.340   5.752
 4277POPC   C1A56847  35.989  28.888   5.992
 4277POPC   D2A56848  36.050  28.967   6.437
 4277POPC   C3A56849  35.894  28.880   6.860
 4277POPC   C4A56850  35.990  29.096   7.249
 4277POPC   C1B56851  35.813  29.365   5.995
 4277POPC   C2B56852  35.689  29.344   6.433
 4277POPC   C3B56853  35.729  29.390   6.888
 4277POPC   C4B56854  35.681  29.543   7.303
 4278POPC   NC356855   2.603  41.817   5.655
 4278POPC   PO456856   2.761  41.205   5.387
 4278POPC   GL156857   2.790  41.303   5.799
 4278POPC   GL256858   3.102  41.150   5.886
 4278POPC   C1A56859   2.551  41.405   6.190
 4278POPC   D2A56860   2.397  41.634   6.575
 4278POPC   C3A56861   2.518  41.531   7.008
 4278POPC   C4A56862   2.664  41.603   7.441
 4278POPC   C1B56863   3.093  41.304   6.240
 4278POPC   C2B56864   2.843  41.318   6.587
 4278POPC   C3B56865   2.760  41.091   6.907
 4278POPC   C4B56866   2.897  41.138   7.300
 4279POPC   NC356867  15.046  38.879   5.181
 4279POPC   PO456868  15.347  38.228   5.410
 4279POPC   GL156869  15.186  38.453   5.807
 4279POPC   GL256870  15.401  38.718   5.931
 4279POPC   C1A56871  15.262  38.376   6.260
 4279POPC   D2A56872  15.042  38.433   6.626
 4279POPC   C3A56873  15.234  38.362   7.021
 4279POPC   C4A56874  15.066  38.305   7.444
 4279POPC   C1B56875  15.406  38.886   6.336
 4279POPC   C2B56876  15.318  38.862   6.759
 4279POPC   C3B56877  15.559  38.749   7.086
 4279POPC   C4B56878  15.417  38.681   7.508
 4280POPC   NC356879   6.975  22.250   5.410
 4280POPC   PO456880   7.403  21.718   5.508
 4280POPC   GL156881   7.225  21.968   5.816
 4280POPC   GL256882   7.362  22.303   5.896
 4280POPC   C1A56883   7.231  21.976   6.244
 4280POPC   D2A56884   7.396  22.203   6.563
 4280POPC   C3A56885   7.341  22.025   6.953
 4280POPC   C4A56886   7.029  21.980   7.250
 4280POPC   C1B56887   7.753  22.284   6.127
 4280POPC   C2B56888   7.864  22.392   6.559
 4280POPC   C3B56889   7.770  22.313   6.998
 4280POPC   C4B56890   7.711  22.283   7.442
 4281POPC   NC356891  26.312  15.856   5.325
 4281POPC   PO456892  25.639  15.640   5.379
 4281POPC   GL156893  25.817  15.876   5.717
 4281POPC   GL256894  26.161  15.764   5.787
 4281POPC   C1A56895  25.875  15.924   6.170
 4281POPC   D2A56896  25.935  16.208   6.498
 4281POPC   C3A56897  25.812  15.987   6.850
 4281POPC   C4A56898  25.850  16.170   7.249
 4281POPC   C1B56899  26.287  15.566   6.169
 4281POPC   C2B56900  26.185  15.738   6.547
 4281POPC   C3B56901  26.339  16.014   6.836
 4281POPC   C4B56902  26.174  15.787   7.139
 4282POPC   NC356903  30.879  26.921   5.494
 4282POPC   PO456904  30.323  26.634   5.660
 4282POPC   GL156905  30.605  26.759   5.947
 4282POPC   GL256906  30.902  26.557   5.860
 4282POPC   C1A56907  30.486  26.836   6.382
 4282POPC   D2A56908  30.389  26.712   6.790
 4282POPC   C3A56909  30.633  26.939   7.106
 4282POPC   C4A56910  30.638  26.780   7.505
 4282POPC   C1B56911  30.974  26.709   6.286
 4282POPC   C2B56912  30.919  26.783   6.714
 4282POPC   C3B56913  31.009  26.604   7.135
 4282POPC   C4B56914  31.081  26.579   7.614
 4283POPC   NC356915  22.407   4.551   5.503
 4283POPC   PO456916  22.060   4.067   5.180
 4283POPC   GL156917  22.093   4.137   5.697
 4283POPC   GL256918  22.397   4.058   5.960
 4283POPC   C1A56919  22.002   4.238   6.183
 4283POPC   D2A56920  22.273   4.129   6.571
 4283POPC   C3A56921  22.121   4.267   6.992
 4283POPC   C4A56922  22.274   4.227   7.407
 4283POPC   C1B56923  22.459   4.465   6.222
 4283POPC   C2B56924  22.322   4.631   6.640
 4283POPC   C3B56925  22.503   4.579   7.092
 4283POPC   C4B56926  22.534   4.641   7.563
 4284POPC   NC356927  29.374  39.697   5.420
 4284POPC   PO456928  29.041  40.295   5.446
 4284POPC   GL156929  29.207  40.080   5.794
 4284POPC   GL256930  29.112  39.726   5.874
 4284POPC   C1A56931  29.387  40.009   6.192
 4284POPC   D2A56932  29.611  40.195   6.528
 4284POPC   C3A56933  29.350  40.279   6.890
 4284POPC   C4A56934  29.251  40.032   7.252
 4284POPC   C1B56935  28.854  39.924   6.188
 4284POPC   C2B56936  28.913  40.038   6.628
 4284POPC   C3B56937  28.766  39.868   7.013
 4284POPC   C4B56938  28.836  39.829   7.451
 4285POPC   NC356939  44.881  28.412   5.216
 4285POPC   PO456940  44.525  28.789   5.692
 4285POPC   GL156941  44.762  28.553   5.937
 4285POPC   GL256942  44.882  28.225   5.754
 4285POPC   C1A56943  44.510  28.479   6.334
 4285POPC   D2A56944  44.201  28.420   6.687
 4285POPC   C3A56945  44.352  28.550   7.090
 4285POPC   C4A56946  44.320  28.911   7.345
 4285POPC   C1B56947  44.916  28.177   6.232
 4285POPC   C2B56948  44.940  28.476   6.615
 4285POPC   C3B56949   0.103  28.423   7.039
 4285POPC   C4B56950   0.018  28.189   7.418
 4286POPC   NC356951  22.808  37.041   5.088
 4286POPC   PO456952  22.866  36.513   5.478
 4286POPC   GL156953  22.816  36.645   5.882
 4286POPC   GL256954  22.824  36.972   5.818
 4286POPC   C1A56955  23.021  36.799   6.267
 4286POPC   D2A56956  22.884  36.696   6.668
 4286POPC   C3A56957  23.075  36.866   7.011
 4286POPC   C4A56958  23.040  36.891   7.450
 4286POPC   C1B56959  22.562  37.007   6.204
 4286POPC   C2B56960  22.702  37.170   6.594
 4286POPC   C3B56961  22.578  37.122   7.009
 4286POPC   C4B56962  22.610  37.135   7.447
 4287POPC   NC356963   2.611   6.471   5.388
 4287POPC   PO456964   3.056   7.050   5.419
 4287POPC   GL156965   2.814   6.803   5.760
 4287POPC   GL256966   2.923   6.463   5.786
 4287POPC   C1A56967   2.624   6.605   6.168
 4287POPC   D2A56968   2.548   6.685   6.622
 4287POPC   C3A56969   2.576   6.386   6.951
 4287POPC   C4A56970   2.609   6.490   7.359
 4287POPC   C1B56971   3.124   6.457   6.177
 4287POPC   C2B56972   3.052   6.643   6.514
 4287POPC   C3B56973   3.084   6.556   6.956
 4287POPC   C4B56974   3.064   6.250   7.285
 4288POPC   NC356975  35.478  28.026   5.514
 4288POPC   PO456976  35.306  27.389   5.291
 4288POPC   GL156977  35.464  27.477   5.685
 4288POPC   GL256978  35.659  27.192   5.706
 4288POPC   C1A56979  35.263  27.572   6.090
 4288POPC   D2A56980  35.095  27.417   6.484
 4288POPC   C3A56981  35.152  27.667   6.838
 4288POPC   C4A56982  35.393  27.625   7.200
 4288POPC   C1B56983  35.393  27.058   6.057
 4288POPC   C2B56984  35.340  26.979   6.487
 4288POPC   C3B56985  35.426  27.226   6.852
 4288POPC   C4B56986  35.654  27.185   7.244
 4289POPC   NC356987  30.020   9.275   5.367
 4289POPC   PO456988  29.565   8.831   5.371
 4289POPC   GL156989  29.700   8.950   5.785
 4289POPC   GL256990  30.033   8.990   5.820
 4289POPC   C1A56991  29.632   8.969   6.252
 4289POPC   D2A56992  29.499   9.038   6.696
 4289POPC   C3A56993  29.797   9.026   7.068
 4289POPC   C4A56994  29.936   8.665   7.300
 4289POPC   C1B56995  30.106   9.197   6.207
 4289POPC   C2B56996  30.016   9.127   6.604
 4289POPC   C3B56997  30.263   9.156   6.934
 4289POPC   C4B56998  30.311   9.003   7.318
 4290POPC   NC356999  32.010  34.854   5.516
 4290POPC   PO457000  32.620  34.722   5.678
 4290POPC   GL157001  32.322  34.561   5.955
 4290POPC   GL257002  32.197  34.235   5.794
 4290POPC   C1A57003  32.514  34.527   6.372
 4290POPC   D2A57004  32.590  34.765   6.754
 4290POPC   C3A57005  32.340  34.593   7.100
 4290POPC   C4A57006  31.873  34.579   7.077
 4290POPC   C1B57007  32.240  34.117   6.246
 4290POPC   C2B57008  32.199  34.267   6.707
 4290POPC   C3B57009  32.070  34.104   7.130
 4290POPC   C4B57010  31.958  34.057   7.600
 4291POPC   NC357011   8.562  42.361   5.358
 4291POPC   PO457012   7.879  42.416   5.339
 4291POPC   GL157013   8.055  42.160   5.733
 4291POPC   GL257014   8.410  42.150   5.816
 4291POPC   C1A57015   8.100  42.208   6.221
 4291POPC   D2A57016   7.851  42.526   6.453
 4291POPC   C3A57017   7.992  42.477   6.875
 4291POPC   C4A57018   8.249  42.145   7.086
 4291POPC   C1B57019   8.467  42.515   6.066
 4291POPC   C2B57020   8.548  42.558   6.514
 4291POPC   C3B57021   8.477  42.629   6.947
 4291POPC   C4B57022   8.255  42.578   7.329
 4292POPC   NC357023  30.240  18.577   5.439
 4292POPC   PO457024  29.821  18.119   5.449
 4292POPC   GL157025  29.862  18.345   5.796
 4292POPC   GL257026  30.168  18.249   5.832
 4292POPC   C1A57027  29.845  18.290   6.252
 4292POPC   D2A57028  29.874  18.032   6.622
 4292POPC   C3A57029  29.910  18.271   7.009
 4292POPC   C4A57030  29.809  18.569   7.357
 4292POPC   C1B57031  30.129  18.675   6.082
 4292POPC   C2B57032  30.020  18.738   6.531
 4292POPC   C3B57033  30.212  18.717   6.955
 4292POPC   C4B57034  30.326  18.441   7.252
 4293POPC   NC357035   9.578  28.691   5.451
 4293POPC   PO457036   9.602  29.382   5.473
 4293POPC   GL157037   9.542  29.084   5.812
 4293POPC   GL257038   9.884  29.146   5.935
 4293POPC   C1A57039   9.403  28.939   6.258
 4293POPC   D2A57040   9.560  28.874   6.692
 4293POPC   C3A57041   9.737  29.158   7.006
 4293POPC   C4A57042   9.842  29.367   7.362
 4293POPC   C1B57043  10.046  29.489   6.271
 4293POPC   C2B57044   9.889  29.599   6.704
 4293POPC   C3B57045  10.143  29.683   7.075
 4293POPC   C4B57046  10.094  29.757   7.546
 4294POPC   NC357047  31.816   5.835   5.480
 4294POPC   PO457048  31.242   5.689   5.581
 4294POPC   GL157049  31.465   5.688   5.937
 4294POPC   GL257050  31.660   5.413   5.803
 4294POPC   C1A57051  31.282   5.844   6.338
 4294POPC   D2A57052  31.257   6.174   6.653
 4294POPC   C3A57053  31.399   6.144   7.061
 4294POPC   C4A57054  31.607   6.428   7.345
 4294POPC   C1B57055  31.830   5.436   6.238
 4294POPC   C2B57056  31.672   5.639   6.597
 4294POPC   C3B57057  31.574   5.657   7.008
 4294POPC   C4B57058  31.156   5.726   7.190
 4295POPC   NC357059  20.979  38.445   5.514
 4295POPC   PO457060  21.535  38.825   5.646
 4295POPC   GL157061  21.291  38.589   5.908
 4295POPC   GL257062  21.405  38.263   5.960
 4295POPC   C1A57063  21.114  38.554   6.311
 4295POPC   D2A57064  21.120  38.442   6.745
 4295POPC   C3A57065  21.244  38.698   7.125
 4295POPC   C4A57066  21.225  38.504   7.579
 4295POPC   C1B57067  21.642  38.525   6.296
 4295POPC   C2B57068  21.613  38.557   6.763
 4295POPC   C3B57069  21.485  38.237   7.077
 4295POPC   C4B57070  21.720  38.087   7.424
 4296POPC   NC357071  38.852   5.737   5.583
 4296POPC   PO457072  38.187   5.616   5.476
 4296POPC   GL157073  38.395   5.775   5.828
 4296POPC   GL257074  38.319   6.137   5.784
 4296POPC   C1A57075  38.519   5.571   6.210
 4296POPC   D2A57076  38.510   5.330   6.601
 4296POPC   C3A57077  38.437   5.616   6.963
 4296POPC   C4A57078  38.544   5.789   7.376
 4296POPC   C1B57079  38.241   6.074   6.239
 4296POPC   C2B57080  38.370   6.044   6.684
 4296POPC   C3B57081  38.260   6.189   7.110
 4296POPC   C4B57082  38.241   6.158   7.564
 4297POPC   NC357083   1.859  25.804   5.326
 4297POPC   PO457084   2.046  26.525   5.393
 4297POPC   GL157085   1.996  26.257   5.767
 4297POPC   GL257086   2.072  25.912   5.764
 4297POPC   C1A57087   1.983  26.119   6.207
 4297POPC   D2A57088   1.827  26.295   6.565
 4297POPC   C3A57089   1.989  26.267   6.936
 4297POPC   C4A57090   1.766  26.144   7.259
 4297POPC   C1B57091   2.257  25.673   6.105
 4297POPC   C2B57092   2.381  25.762   6.514
 4297POPC   C3B57093   2.335  25.899   6.920
 4297POPC   C4B57094   2.332  25.704   7.285
 4298POPC   NC357095  22.199   8.570   5.402
 4298POPC   PO457096  22.332   9.221   5.304
 4298POPC   GL157097  22.403   9.021   5.716
 4298POPC   GL257098  22.088   9.075   5.825
 4298POPC   C1A57099  22.487   8.987   6.190
 4298POPC   D2A57100  22.288   8.976   6.656
 4298POPC   C3A57101  22.481   9.155   7.055
 4298POPC   C4A57102  22.264   8.979   7.462
 4298POPC   C1B57103  22.001   9.141   6.266
 4298POPC   C2B57104  21.794   9.175   6.671
 4298POPC   C3B57105  21.969   9.110   7.066
 4298POPC   C4B57106  21.934   9.366   7.426
 4299POPC   NC357107  31.745  16.621   5.272
 4299POPC   PO457108  31.295  16.922   5.725
 4299POPC   GL157109  31.359  16.552   6.050
 4299POPC   GL257110  31.690  16.283   5.976
 4299POPC   C1A57111  31.562  16.502   6.450
 4299POPC   D2A57112  31.660  16.285   6.821
 4299POPC   C3A57113  31.311  16.458   7.044
 4299POPC   C4A57114  31.178  16.891   7.148
 4299POPC   C1B57115  32.024  16.496   6.272
 4299POPC   C2B57116  32.028  16.779   6.611
 4299POPC   C3B57117  31.724  16.780   6.935
 4299POPC   C4B57118  31.744  16.494   7.282
 4300POPC   NC357119  25.078  25.368   5.408
 4300POPC   PO457120  25.507  24.908   5.434
 4300POPC   GL157121  25.323  24.933   5.832
 4300POPC   GL257122  25.140  25.259   5.903
 4300POPC   C1A57123  25.509  25.042   6.224
 4300POPC   D2A57124  25.713  25.261   6.554
 4300POPC   C3A57125  25.507  25.230   6.949
 4300POPC   C4A57126  25.583  25.479   7.300
 4300POPC   C1B57127  24.861  24.966   6.107
 4300POPC   C2B57128  24.817  24.885   6.575
 4300POPC   C3B57129  24.950  25.075   7.010
 4300POPC   C4B57130  25.025  25.493   7.254
 4301POPC   NC357131  42.616   8.744   5.449
 4301POPC   PO457132  42.261   8.210   5.192
 4301POPC   GL157133  42.570   8.213   5.573
 4301POPC   GL257134  42.275   8.110   5.801
 4301POPC   C1A57135  42.681   8.290   6.028
 4301POPC   D2A57136  42.426   8.161   6.374
 4301POPC   C3A57137  42.435   8.407   6.726
 4301POPC   C4A57138  42.582   8.218   7.091
 4301POPC   C1B57139  41.951   8.176   6.155
 4301POPC   C2B57140  41.935   8.315   6.617
 4301POPC   C3B57141  42.055   8.361   7.068
 4301POPC   C4B57142  41.982   8.025   7.324
 4302POPC   NC357143  28.205  39.217   5.448
 4302POPC   PO457144  28.885  39.493   5.488
 4302POPC   GL157145  28.573  39.389   5.827
 4302POPC   GL257146  28.567  39.061   5.809
 4302POPC   C1A57147  28.315  39.221   6.232
 4302POPC   D2A57148  28.158  39.450   6.625
 4302POPC   C3A57149  28.451  39.411   6.970
 4302POPC   C4A57150  28.776  39.110   7.069
 4302POPC   C1B57151  28.766  38.873   6.173
 4302POPC   C2B57152  28.651  38.792   6.605
 4302POPC   C3B57153  28.269  38.917   6.818
 4302POPC   C4B57154  28.291  39.001   7.247
 4303POPC   NC357155  20.882   9.767   5.676
 4303POPC   PO457156  21.441   9.672   5.346
 4303POPC   GL157157  21.377   9.684   5.807
 4303POPC   GL257158  21.279  10.027   5.904
 4303POPC   C1A57159  21.174   9.500   6.202
 4303POPC   D2A57160  20.948   9.475   6.614
 4303POPC   C3A57161  21.215   9.592   6.930
 4303POPC   C4A57162  21.207   9.831   7.292
 4303POPC   C1B57163  21.263   9.984   6.386
 4303POPC   C2B57164  21.559   9.946   6.768
 4303POPC   C3B57165  21.685   9.753   7.177
 4303POPC   C4B57166  21.611   9.971   7.592
 4304POPC   NC357167   7.386  11.638   4.919
 4304POPC   PO457168   7.569  11.447   5.518
 4304POPC   GL157169   7.366  11.251   5.835
 4304POPC   GL257170   7.661  11.277   6.015
 4304POPC   C1A57171   7.181  11.352   6.233
 4304POPC   D2A57172   7.340  11.403   6.629
 4304POPC   C3A57173   7.253  11.128   6.969
 4304POPC   C4A57174   6.987  11.352   7.239
 4304POPC   C1B57175   7.906  11.318   6.366
 4304POPC   C2B57176   7.816  11.484   6.747
 4304POPC   C3B57177   7.575  11.517   7.104
 4304POPC   C4B57178   7.857  11.377   7.399
 4305POPC   NC357179  13.646  19.060   5.419
 4305POPC   PO457180  13.890  18.451   5.545
 4305POPC   GL157181  13.625  18.701   5.816
 4305POPC   GL257182  13.663  19.087   5.923
 4305POPC   C1A57183  13.473  18.731   6.231
 4305POPC   D2A57184  13.664  18.970   6.560
 4305POPC   C3A57185  13.604  18.859   6.976
 4305POPC   C4A57186  13.536  19.025   7.418
 4305POPC   C1B57187  13.919  19.272   6.243
 4305POPC   C2B57188  14.043  19.283   6.679
 4305POPC   C3B57189  13.870  19.267   7.100
 4305POPC   C4B57190  13.980  19.208   7.533
 4306POPC   NC357191  28.808  35.347   5.348
 4306POPC   PO457192  28.199  35.147   5.630
 4306POPC   GL157193  28.465  35.338   5.872
 4306POPC   GL257194  28.806  35.273   5.853
 4306POPC   C1A57195  28.358  35.530   6.242
 4306POPC   D2A57196  28.413  35.676   6.624
 4306POPC   C3A57197  28.212  35.573   7.020
 4306POPC   C4A57198  28.007  35.509   7.421
 4306POPC   C1B57199  28.714  35.130   6.271
 4306POPC   C2B57200  28.450  35.157   6.601
 4306POPC   C3B57201  28.114  35.099   6.837
 4306POPC   C4B57202  28.293  35.071   7.230
 4307POPC   NC357203  44.862  42.576   5.343
 4307POPC   PO457204  44.983  41.947   5.298
 4307POPC   GL157205  44.778  42.152   5.697
 4307POPC   GL257206  44.608  42.462   5.776
 4307POPC   C1A57207  44.687  42.147   6.168
 4307POPC   D2A57208  44.799  42.388   6.538
 4307POPC   C3A57209  44.904  42.163   6.861
 4307POPC   C4A57210  44.793  42.247   7.254
 4307POPC   C1B57211  44.461  42.636   6.191
 4307POPC   C2B57212  44.322  42.521   6.623
 4307POPC   C3B57213  44.503  42.580   7.006
 4307POPC   C4B57214  44.285  42.743   7.331
 4308POPC   NC357215  18.572   9.465   5.608
 4308POPC   PO457216  17.965   9.693   5.374
 4308POPC   GL157217  18.187   9.799   5.741
 4308POPC   GL257218  18.464  10.024   5.781
 4308POPC   C1A57219  18.141   9.857   6.178
 4308POPC   D2A57220  18.284   9.990   6.597
 4308POPC   C3A57221  18.286   9.612   6.858
 4308POPC   C4A57222  17.965   9.418   7.132
 4308POPC   C1B57223  18.661   9.986   6.209
 4308POPC   C2B57224  18.788   9.922   6.654
 4308POPC   C3B57225  18.574   9.997   7.064
 4308POPC   C4B57226  18.118  10.039   7.125
 4309POPC   NC357227  35.621  32.241   5.294
 4309POPC   PO457228  36.299  32.175   5.451
 4309POPC   GL157229  36.154  32.256   5.826
 4309POPC   GL257230  35.819  32.316   5.754
 4309POPC   C1A57231  36.068  32.073   6.215
 4309POPC   D2A57232  36.179  31.971   6.634
 4309POPC   C3A57233  36.310  32.152   7.009
 4309POPC   C4A57234  36.155  32.179   7.413
 4309POPC   C1B57235  35.688  32.416   6.156
 4309POPC   C2B57236  35.912  32.437   6.540
 4309POPC   C3B57237  35.814  32.276   6.926
 4309POPC   C4B57238  35.783  32.510   7.302
 4310POPC   NC357239  20.544  40.292   5.357
 4310POPC   PO457240  20.545  39.602   5.354
 4310POPC   GL157241  20.525  39.902   5.706
 4310POPC   GL257242  20.193  39.953   5.783
 4310POPC   C1A57243  20.766  39.966   6.091
 4310POPC   D2A57244  21.006  39.859   6.469
 4310POPC   C3A57245  20.788  39.825   6.869
 4310POPC   C4A57246  20.859  40.107   7.198
 4310POPC   C1B57247  20.308  40.199   6.166
 4310POPC   C2B57248  20.524  40.215   6.583
 4310POPC   C3B57249  20.374  40.157   7.025
 4310POPC   C4B57250  20.421  39.977   7.446
 4311POPC   NC357251  34.274   1.307   5.431
 4311POPC   PO457252  34.894   1.281   5.425
 4311POPC   GL157253  34.659   1.290   5.802
 4311POPC   GL257254  34.445   0.994   5.798
 4311POPC   C1A57255  34.606   1.182   6.247
 4311POPC   D2A57256  34.665   1.412   6.618
 4311POPC   C3A57257  34.452   1.490   7.016
 4311POPC   C4A57258  34.732   1.521   7.359
 4311POPC   C1B57259  34.155   0.957   6.172
 4311POPC   C2B57260  34.323   0.901   6.595
 4311POPC   C3B57261  34.603   0.982   6.946
 4311POPC   C4B57262  34.482   1.058   7.362
 4312POPC   NC357263   4.438   8.395   5.354
 4312POPC   PO457264   3.943   7.917   5.461
 4312POPC   GL157265   4.091   8.136   5.848
 4312POPC   GL257266   4.264   8.465   5.858
 4312POPC   C1A57267   4.065   8.005   6.282
 4312POPC   D2A57268   4.316   7.893   6.611
 4312POPC   C3A57269   4.231   7.987   7.008
 4312POPC   C4A57270   4.568   8.129   7.216
 4312POPC   C1B57271   4.229   8.487   6.313
 4312POPC   C2B57272   4.270   8.427   6.770
 4312POPC   C3B57273   4.172   8.473   7.198
 4312POPC   C4B57274   4.488   8.561   7.499
 4313POPC   NC357275   6.954  41.661   5.052
 4313POPC   PO457276   6.501  41.808   5.517
 4313POPC   GL157277   6.452  41.627   5.927
 4313POPC   GL257278   6.671  41.333   5.986
 4313POPC   C1A57279   6.649  41.698   6.342
 4313POPC   D2A57280   6.783  41.540   6.738
 4313POPC   C3A57281   6.559  41.702   7.091
 4313POPC   C4A57282   6.379  41.746   7.502
 4313POPC   C1B57283   6.736  41.142   6.414
 4313POPC   C2B57284   6.695  41.062   6.860
 4313POPC   C3B57285   6.830  41.270   7.222
 4313POPC   C4B57286   6.987  41.136   7.624
 4314POPC   NC357287   6.579   1.521   5.412
 4314POPC   PO457288   6.866   0.981   5.123
 4314POPC   GL157289   6.746   1.013   5.593
 4314POPC   GL257290   6.392   1.050   5.722
 4314POPC   C1A57291   6.747   0.987   6.087
 4314POPC   D2A57292   6.484   0.907   6.496
 4314POPC   C3A57293   6.647   1.114   6.871
 4314POPC   C4A57294   6.704   1.098   7.306
 4314POPC   C1B57295   6.271   1.247   6.151
 4314POPC   C2B57296   6.289   1.390   6.615
 4314POPC   C3B57297   6.173   1.207   7.049
 4314POPC   C4B57298   6.267   1.225   7.524
 4315POPC   NC357299  29.635   7.644   5.429
 4315POPC   PO457300  30.136   7.173   5.381
 4315POPC   GL157301  29.800   7.226   5.737
 4315POPC   GL257302  29.707   7.564   5.912
 4315POPC   C1A57303  29.894   7.214   6.196
 4315POPC   D2A57304  30.259   7.181   6.444
 4315POPC   C3A57305  30.214   7.181   6.877
 4315POPC   C4A57306  29.809   7.179   7.083
 4315POPC   C1B57307  29.753   7.739   6.296
 4315POPC   C2B57308  29.895   7.510   6.641
 4315POPC   C3B57309  30.030   7.637   7.032
 4315POPC   C4B57310  29.652   7.740   7.161
 4316POPC   NC357311   9.331  22.573   5.514
 4316POPC   PO457312   9.856  22.963   5.361
 4316POPC   GL157313   9.633  22.954   5.713
 4316POPC   GL257314   9.748  22.605   5.807
 4316POPC   C1A57315   9.489  22.920   6.131
 4316POPC   D2A57316   9.703  22.712   6.495
 4316POPC   C3A57317   9.572  22.875   6.889
 4316POPC   C4A57318   9.708  22.816   7.272
 4316POPC   C1B57319  10.014  22.848   6.085
 4316POPC   C2B57320  10.197  22.904   6.517
 4316POPC   C3B57321  10.077  22.672   6.908
 4316POPC   C4B57322  10.223  22.763   7.336
 4317POPC   NC357323  18.934  31.349   5.496
 4317POPC   PO457324  19.416  31.769   5.237
 4317POPC   GL157325  19.321  31.671   5.703
 4317POPC   GL257326  18.989  31.748   5.780
 4317POPC   C1A57327  19.245  31.402   6.090
 4317POPC   D2A57328  19.273  31.308   6.528
 4317POPC   C3A57329  19.139  31.464   6.947
 4317POPC   C4A57330  19.022  31.255   7.344
 4317POPC   C1B57331  18.769  31.605   6.122
 4317POPC   C2B57332  18.836  31.616   6.547
 4317POPC   C3B57333  18.706  31.766   6.954
 4317POPC   C4B57334  18.944  31.774   7.300
 4318POPC   NC357335  32.206  41.125   5.611
 4318POPC   PO457336  32.633  41.608   5.394
 4318POPC   GL157337  32.450  41.540   5.800
 4318POPC   GL257338  32.088  41.561   5.872
 4318POPC   C1A57339  32.387  41.398   6.228
 4318POPC   D2A57340  32.256  41.082   6.469
 4318POPC   C3A57341  32.263  41.334   6.816
 4318POPC   C4A57342  32.356  41.253   7.228
 4318POPC   C1B57343  32.178  41.949   6.096
 4318POPC   C2B57344  32.279  42.044   6.538
 4318POPC   C3B57345  31.996  41.890   6.878
 4318POPC   C4B57346  32.040  41.644   7.262
 4319POPC   NC357347   8.982  35.113   5.540
 4319POPC   PO457348   8.739  35.766   5.641
 4319POPC   GL157349   8.779  35.408   5.883
 4319POPC   GL257350   9.090  35.539   6.007
 4319POPC   C1A57351   8.987  35.082   6.186
 4319POPC   D2A57352   8.932  34.891   6.567
 4319POPC   C3A57353   8.965  35.181   6.904
 4319POPC   C4A57354   8.911  35.142   7.367
 4319POPC   C1B57355   8.709  35.531   6.348
 4319POPC   C2B57356   8.523  35.371   6.739
 4319POPC   C3B57357   8.675  35.527   7.142
 4319POPC   C4B57358   8.626  35.501   7.613
 4320POPC   NC357359  27.753   7.952   5.419
 4320POPC   PO457360  27.695   7.294   5.407
 4320POPC   GL157361  27.694   7.492   5.805
 4320POPC   GL257362  27.996   7.724   5.826
 4320POPC   C1A57363  27.445   7.433   6.197
 4320POPC   D2A57364  27.470   7.605   6.621
 4320POPC   C3A57365  27.447   7.335   6.903
 4320POPC   C4A57366  27.538   7.180   7.263
 4320POPC   C1B57367  27.869   7.724   6.259
 4320POPC   C2B57368  28.034   7.711   6.681
 4320POPC   C3B57369  27.826   7.774   7.070
 4320POPC   C4B57370  27.386   7.764   7.173
 4321POPC   NC357371  17.814   6.329   5.546
 4321POPC   PO457372  18.276   6.031   5.413
 4321POPC   GL157373  18.353   6.013   5.835
 4321POPC   GL257374  18.229   6.320   5.871
 4321POPC   C1A57375  18.258   5.878   6.266
 4321POPC   D2A57376  18.455   5.696   6.652
 4321POPC   C3A57377  18.238   5.554   7.038
 4321POPC   C4A57378  18.376   5.613   7.479
 4321POPC   C1B57379  18.403   6.371   6.284
 4321POPC   C2B57380  18.268   6.193   6.690
 4321POPC   C3B57381  18.358   6.031   7.111
 4321POPC   C4B57382  18.291   6.229   7.502
 4322POPC   NC357383  40.269   4.199   5.426
 4322POPC   PO457384  39.686   4.630   5.405
 4322POPC   GL157385  39.858   4.415   5.807
 4322POPC   GL257386  39.888   4.052   5.794
 4322POPC   C1A57387  40.033   4.365   6.266
 4322POPC   D2A57388  39.858   4.326   6.715
 4322POPC   C3A57389  39.902   4.452   7.157
 4322POPC   C4A57390  40.232   4.395   7.478
 4322POPC   C1B57391  39.903   3.844   6.220
 4322POPC   C2B57392  40.146   3.933   6.578
 4322POPC   C3B57393  40.230   4.071   7.020
 4322POPC   C4B57394  39.948   3.970   7.375
 4323POPC   NC357395  25.061  11.122   5.118
 4323POPC   PO457396  25.465  11.692   5.332
 4323POPC   GL157397  25.409  11.502   5.765
 4323POPC   GL257398  25.460  11.125   5.742
 4323POPC   C1A57399  25.220  11.293   6.170
 4323POPC   D2A57400  25.099  11.469   6.569
 4323POPC   C3A57401  25.222  11.471   6.990
 4323POPC   C4A57402  24.943  11.556   7.342
 4323POPC   C1B57403  25.499  10.874   6.161
 4323POPC   C2B57404  25.338  10.945   6.608
 4323POPC   C3B57405  25.513  11.004   7.065
 4323POPC   C4B57406  25.427  10.957   7.540
 4324POPC   NC357407  16.386  13.172   5.253
 4324POPC   PO457408  17.020  12.941   5.366
 4324POPC   GL157409  16.813  12.994   5.770
 4324POPC   GL257410  16.835  12.637   5.943
 4324POPC   C1A57411  16.587  13.019   6.181
 4324POPC   D2A57412  16.525  12.806   6.580
 4324POPC   C3A57413  16.537  13.050   6.950
 4324POPC   C4A57414  16.292  13.212   7.296
 4324POPC   C1B57415  16.573  12.388   6.263
 4324POPC   C2B57416  16.641  12.305   6.727
 4324POPC   C3B57417  16.749  12.523   7.167
 4324POPC   C4B57418  16.800  12.597   7.663
 4325POPC   NC357419   6.340  23.200   5.608
 4325POPC   PO457420   5.796  23.044   5.218
 4325POPC   GL157421   5.771  22.876   5.680
 4325POPC   GL257422   5.861  23.180   5.850
 4325POPC   C1A57423   5.666  22.807   6.177
 4325POPC   D2A57424   5.800  22.486   6.531
 4325POPC   C3A57425   5.825  22.586   6.981
 4325POPC   C4A57426   5.602  22.735   7.348
 4325POPC   C1B57427   6.092  23.120   6.243
 4325POPC   C2B57428   5.973  22.994   6.662
 4325POPC   C3B57429   5.657  23.073   6.953
 4325POPC   C4B57430   5.512  23.339   7.260
 4326POPC   NC357431  10.013  29.619   5.304
 4326POPC   PO457432   9.476  30.031   5.231
 4326POPC   GL157433   9.665  29.937   5.696
 4326POPC   GL257434   9.764  29.640   5.865
 4326POPC   C1A57435   9.881  30.035   6.141
 4326POPC   D2A57436   9.979  30.267   6.534
 4326POPC   C3A57437   9.893  30.110   6.936
 4326POPC   C4A57438   9.688  29.842   7.227
 4326POPC   C1B57439   9.545  29.411   6.200
 4326POPC   C2B57440   9.300  29.412   6.573
 4326POPC   C3B57441   9.383  29.527   6.987
 4326POPC   C4B57442   9.340  29.442   7.417
 4327POPC   NC357443  10.158   3.491   5.527
 4327POPC   PO457444  10.347   4.056   5.372
 4327POPC   GL157445  10.114   3.909   5.831
 4327POPC   GL257446   9.828   3.626   5.895
 4327POPC   C1A57447  10.075   3.769   6.310
 4327POPC   D2A57448   9.901   3.526   6.713
 4327POPC   C3A57449  10.010   3.580   7.174
 4327POPC   C4A57450  10.042   3.508   7.637
 4327POPC   C1B57451   9.590   3.452   6.281
 4327POPC   C2B57452   9.386   3.502   6.703
 4327POPC   C3B57453   9.501   3.657   7.128
 4327POPC   C4B57454   9.565   3.688   7.579
 4328POPC   NC357455   1.693  22.686   5.163
 4328POPC   PO457456   2.346  22.914   5.499
 4328POPC   GL157457   2.264  22.809   5.910
 4328POPC   GL257458   2.117  23.156   5.917
 4328POPC   C1A57459   2.070  22.866   6.343
 4328POPC   D2A57460   1.642  22.815   6.538
 4328POPC   C3A57461   1.639  22.600   6.951
 4328POPC   C4A57462   2.027  22.680   7.191
 4328POPC   C1B57463   1.719  23.218   6.149
 4328POPC   C2B57464   1.777  23.321   6.577
 4328POPC   C3B57465   1.851  23.092   6.951
 4328POPC   C4B57466   1.907  23.197   7.386
 4329POPC   NC357467  42.138  44.934   5.378
 4329POPC   PO457468  42.590  44.403   5.510
 4329POPC   GL157469  42.416  44.626   5.836
 4329POPC   GL257470  42.540  44.981   5.822
 4329POPC   C1A57471  42.244  44.531   6.246
 4329POPC   D2A57472  42.029  44.385   6.639
 4329POPC   C3A57473  42.241  44.611   6.966
 4329POPC   C4A57474  42.672  44.487   7.098
 4329POPC   C1B57475  42.631  44.885   6.261
 4329POPC   C2B57476  42.602  44.797   6.677
 4329POPC   C3B57477  42.589  44.997   7.104
 4329POPC   C4B57478  42.297  44.984   7.453
 4330POPC   NC357479  12.333  20.319   5.457
 4330POPC   PO457480  11.906  19.768   5.330
 4330POPC   GL157481  12.012  19.981   5.695
 4330POPC   GL257482  11.717  20.066   5.871
 4330POPC   C1A57483  12.166  20.087   6.092
 4330POPC   D2A57484  12.097  20.033   6.534
 4330POPC   C3A57485  12.229  19.642   6.754
 4330POPC   C4A57486  12.186  19.619   7.173
 4330POPC   C1B57487  11.835  19.686   6.124
 4330POPC   C2B57488  11.776  19.529   6.547
 4330POPC   C3B57489  11.772  19.390   6.990
 4330POPC   C4B57490  11.728  19.594   7.386
 4331POPC   NC357491  29.427  27.514   5.306
 4331POPC   PO457492  28.781  27.781   5.224
 4331POPC   GL157493  29.033  27.553   5.670
 4331POPC   GL257494  29.397  27.428   5.824
 4331POPC   C1A57495  29.048  27.414   6.180
 4331POPC   D2A57496  29.123  27.542   6.625
 4331POPC   C3A57497  28.867  27.451   7.004
 4331POPC   C4A57498  29.008  27.582   7.414
 4331POPC   C1B57499  29.498  27.138   6.213
 4331POPC   C2B57500  29.398  27.055   6.677
 4331POPC   C3B57501  29.358  27.350   7.055
 4331POPC   C4B57502  29.434  27.347   7.499
 4332POPC   NC357503  25.013  27.059   5.398
 4332POPC   PO457504  25.548  26.705   5.432
 4332POPC   GL157505  25.290  26.670   5.808
 4332POPC   GL257506  24.913  26.699   5.809
 4332POPC   C1A57507  25.350  26.697   6.264
 4332POPC   D2A57508  25.346  26.498   6.670
 4332POPC   C3A57509  25.469  26.745   7.033
 4332POPC   C4A57510  25.442  26.802   7.463
 4332POPC   C1B57511  24.797  26.778   6.256
 4332POPC   C2B57512  24.878  26.709   6.717
 4332POPC   C3B57513  24.974  26.807   7.158
 4332POPC   C4B57514  25.030  27.091   7.536
 4333POPC   NC357515   3.497   6.934   5.421
 4333POPC   PO457516   3.773   6.410   5.510
 4333POPC   GL157517   3.669   6.709   5.857
 4333POPC   GL257518   3.317   6.830   5.893
 4333POPC   C1A57519   3.634   6.638   6.290
 4333POPC   D2A57520   3.465   6.364   6.567
 4333POPC   C3A57521   3.618   6.411   6.946
 4333POPC   C4A57522   3.480   6.569   7.330
 4333POPC   C1B57523   3.370   7.051   6.319
 4333POPC   C2B57524   3.444   6.874   6.744
 4333POPC   C3B57525   3.311   7.044   7.147
 4333POPC   C4B57526   3.439   7.069   7.591
 4334POPC   NC357527  20.987  15.953   5.354
 4334POPC   PO457528  21.638  15.800   5.403
 4334POPC   GL157529  21.319  15.812   5.735
 4334POPC   GL257530  21.063  15.543   5.773
 4334POPC   C1A57531  21.368  16.065   6.131
 4334POPC   D2A57532  21.688  15.966   6.487
 4334POPC   C3A57533  21.564  15.904   6.949
 4334POPC   C4A57534  21.335  16.036   7.333
 4334POPC   C1B57535  21.256  15.582   6.189
 4334POPC   C2B57536  21.191  15.815   6.550
 4334POPC   C3B57537  21.084  15.713   6.949
 4334POPC   C4B57538  21.324  15.511   7.220
 4335POPC   NC357539  25.430   9.035   5.400
 4335POPC   PO457540  24.848   9.358   5.359
 4335POPC   GL157541  25.090   9.134   5.811
 4335POPC   GL257542  25.397   8.852   5.868
 4335POPC   C1A57543  25.314   9.166   6.242
 4335POPC   D2A57544  25.494   8.916   6.583
 4335POPC   C3A57545  25.470   9.079   7.001
 4335POPC   C4A57546  25.317   9.053   7.430
 4335POPC   C1B57547  25.182   8.652   6.213
 4335POPC   C2B57548  25.076   8.637   6.676
 4335POPC   C3B57549  25.236   8.626   7.112
 4335POPC   C4B57550  25.002   8.627   7.493
 4336POPC   NC357551  31.197  27.703   5.465
 4336POPC   PO457552  31.855  27.702   5.417
 4336POPC   GL157553  31.542  27.562   5.826
 4336POPC   GL257554  31.243  27.305   5.754
 4336POPC   C1A57555  31.357  27.640   6.286
 4336POPC   D2A57556  31.216  27.739   6.735
 4336POPC   C3A57557  31.302  27.550   7.119
 4336POPC   C4A57558  31.557  27.255   7.327
 4336POPC   C1B57559  31.037  27.239   6.151
 4336POPC   C2B57560  31.116  27.250   6.600
 4336POPC   C3B57561  31.174  27.083   7.014
 4336POPC   C4B57562  31.038  27.069   7.411
 4337POPC   NC357563   9.244  12.569   5.315
 4337POPC   PO457564   8.850  13.127   5.575
 4337POPC   GL157565   9.102  12.834   5.804
 4337POPC   GL257566   8.851  12.840   6.031
 4337POPC   C1A57567   9.326  12.742   6.199
 4337POPC   D2A57568   9.240  12.580   6.627
 4337POPC   C3A57569   9.109  12.870   6.973
 4337POPC   C4A57570   9.314  13.213   7.171
 4337POPC   C1B57571   8.791  12.517   6.293
 4337POPC   C2B57572   8.741  12.720   6.648
 4337POPC   C3B57573   8.638  12.618   7.026
 4337POPC   C4B57574   8.711  12.788   7.418
 4338POPC   NC357575   5.524  33.335   5.477
 4338POPC   PO457576   4.937  32.894   5.546
 4338POPC   GL157577   5.062  33.100   5.889
 4338POPC   GL257578   5.392  32.979   5.839
 4338POPC   C1A57579   4.921  33.236   6.314
 4338POPC   D2A57580   5.152  33.266   6.701
 4338POPC   C3A57581   4.900  33.229   7.069
 4338POPC   C4A57582   4.698  32.897   7.274
 4338POPC   C1B57583   5.427  33.054   6.282
 4338POPC   C2B57584   5.478  32.827   6.670
 4338POPC   C3B57585   5.384  32.780   7.106
 4338POPC   C4B57586   5.582  32.754   7.516
 4339POPC   NC357587  22.139   0.473   5.241
 4339POPC   PO457588  21.558   0.310   5.528
 4339POPC   GL157589  21.873   0.196   5.865
 4339POPC   GL257590  22.256   0.263   5.841
 4339POPC   C1A57591  21.925   0.182   6.322
 4339POPC   D2A57592  22.194   0.241   6.652
 4339POPC   C3A57593  22.034   0.512   6.977
 4339POPC   C4A57594  22.222   0.862   7.220
 4339POPC   C1B57595  22.454   0.035   6.223
 4339POPC   C2B57596  22.621  44.960   6.648
 4339POPC   C3B57597  22.532   0.137   7.042
 4339POPC   C4B57598  22.336   0.369   7.356
 4340POPC   NC357599   1.471  28.768   5.369
 4340POPC   PO457600   1.011  29.331   5.410
 4340POPC   GL157601   1.013  29.199   5.826
 4340POPC   GL257602   0.855  28.904   5.905
 4340POPC   C1A57603   1.019  29.314   6.252
 4340POPC   D2A57604   1.268  29.413   6.590
 4340POPC   C3A57605   1.099  29.292   6.985
 4340POPC   C4A57606   1.033  29.359   7.389
 4340POPC   C1B57607   1.183  28.812   6.192
 4340POPC   C2B57608   1.127  28.924   6.623
 4340POPC   C3B57609   0.939  28.780   6.980
 4340POPC   C4B57610   0.830  28.868   7.384
 4341POPC   NC357611  33.243  24.321   5.293
 4341POPC   PO457612  32.713  24.589   5.429
 4341POPC   GL157613  33.035  24.470   5.748
 4341POPC   GL257614  33.291  24.195   5.806
 4341POPC   C1A57615  33.090  24.636   6.149
 4341POPC   D2A57616  32.988  24.543   6.558
 4341POPC   C3A57617  33.025  24.788   6.909
 4341POPC   C4A57618  32.945  24.719   7.337
 4341POPC   C1B57619  33.358  24.206   6.252
 4341POPC   C2B57620  33.228  24.090   6.651
 4341POPC   C3B57621  33.168  24.319   7.009
 4341POPC   C4B57622  33.384  24.490   7.330
 4342POPC   NC357623  42.182  11.722   5.459
 4342POPC   PO457624  42.631  11.212   5.538
 4342POPC   GL157625  42.370  11.422   5.853
 4342POPC   GL257626  42.019  11.311   5.772
 4342POPC   C1A57627  42.246  11.292   6.283
 4342POPC   D2A57628  42.156  11.120   6.703
 4342POPC   C3A57629  42.439  11.162   7.063
 4342POPC   C4A57630  42.528  11.162   7.511
 4342POPC   C1B57631  41.873  11.605   6.103
 4342POPC   C2B57632  41.845  11.513   6.555
 4342POPC   C3B57633  42.032  11.577   6.953
 4342POPC   C4B57634  42.129  11.471   7.357
 4343POPC   NC357635  30.649  10.946   5.601
 4343POPC   PO457636  30.346  11.585   5.473
 4343POPC   GL157637  30.308  11.300   5.800
 4343POPC   GL257638  30.560  11.431   5.932
 4343POPC   C1A57639  30.346  11.139   6.263
 4343POPC   D2A57640  30.532  11.039   6.664
 4343POPC   C3A57641  30.685  11.386   6.962
 4343POPC   C4A57642  30.525  11.563   7.356
 4343POPC   C1B57643  30.878  11.247   6.204
 4343POPC   C2B57644  31.025  11.153   6.626
 4343POPC   C3B57645  31.042  11.032   7.044
 4343POPC   C4B57646  30.969  11.251   7.455
 4344POPC   NC357647   3.469  16.989   5.576
 4344POPC   PO457648   3.889  16.422   5.361
 4344POPC   GL157649   3.635  16.390   5.762
 4344POPC   GL257650   3.384  16.623   5.918
 4344POPC   C1A57651   3.600  16.313   6.222
 4344POPC   D2A57652   3.325  16.539   6.467
 4344POPC   C3A57653   3.420  16.445   6.906
 4344POPC   C4A57654   3.638  16.518   7.305
 4344POPC   C1B57655   3.351  17.011   6.203
 4344POPC   C2B57656   3.371  17.272   6.557
 4344POPC   C3B57657   3.413  17.132   6.966
 4344POPC   C4B57658   3.222  16.830   7.232
 4345POPC   NC357659   1.115  25.727   5.364
 4345POPC   PO457660   1.640  25.395   5.239
 4345POPC   GL157661   1.484  25.146   5.640
 4345POPC   GL257662   1.180  25.274   5.773
 4345POPC   C1A57663   1.513  25.184   6.140
 4345POPC   D2A57664   1.379  25.531   6.450
 4345POPC   C3A57665   1.429  25.430   6.879
 4345POPC   C4A57666   1.584  25.213   7.240
 4345POPC   C1B57667   0.977  25.335   6.186
 4345POPC   C2B57668   0.767  25.407   6.553
 4345POPC   C3B57669   0.745  25.272   6.938
 4345POPC   C4B57670   1.081  25.184   7.180
 4346POPC   NC357671  10.757  43.178   5.042
 4346POPC   PO457672  10.326  42.899   5.549
 4346POPC   GL157673  10.596  43.164   5.814
 4346POPC   GL257674  10.789  42.902   5.965
 4346POPC   C1A57675  10.496  43.448   6.182
 4346POPC   D2A57676  10.286  43.501   6.586
 4346POPC   C3A57677  10.493  43.445   7.002
 4346POPC   C4A57678  10.604  43.268   7.432
 4346POPC   C1B57679  10.522  42.937   6.344
 4346POPC   C2B57680  10.472  42.915   6.830
 4346POPC   C3B57681  10.537  42.799   7.287
 4346POPC   C4B57682  10.843  42.854   7.654
 4347POPC   NC357683  30.854  16.402   5.423
 4347POPC   PO457684  30.552  15.814   5.334
 4347POPC   GL157685  30.734  15.890   5.717
 4347POPC   GL257686  30.507  16.164   5.798
 4347POPC   C1A57687  30.830  15.953   6.157
 4347POPC   D2A57688  30.994  15.738   6.542
 4347POPC   C3A57689  30.834  15.973   6.883
 4347POPC   C4A57690  30.755  15.967   7.270
 4347POPC   C1B57691  30.378  16.243   6.250
 4347POPC   C2B57692  30.434  16.255   6.724
 4347POPC   C3B57693  30.430  16.348   7.190
 4347POPC   C4B57694  30.592  16.246   7.639
 4348POPC   NC357695  39.103   7.601   5.424
 4348POPC   PO457696  39.475   7.058   5.461
 4348POPC   GL157697  39.346   7.331   5.781
 4348POPC   GL257698  39.041   7.166   5.790
 4348POPC   C1A57699  39.151   7.539   6.162
 4348POPC   D2A57700  39.232   7.775   6.552
 4348POPC   C3A57701  39.034   7.658   6.934
 4348POPC   C4A57702  39.207   7.555   7.328
 4348POPC   C1B57703  39.263   7.006   6.165
 4348POPC   C2B57704  39.103   7.038   6.560
 4348POPC   C3B57705  39.211   7.169   6.951
 4348POPC   C4B57706  39.191   7.054   7.344
 4349POPC   NC357707  39.809   5.069   5.251
 4349POPC   PO457708  40.474   5.274   5.218
 4349POPC   GL157709  40.163   5.210   5.586
 4349POPC   GL257710  40.015   4.899   5.719
 4349POPC   C1A57711  40.066   5.306   6.025
 4349POPC   D2A57712  39.983   5.412   6.451
 4349POPC   C3A57713  40.255   5.254   6.764
 4349POPC   C4A57714  40.237   5.341   7.196
 4349POPC   C1B57715  39.867   4.848   6.166
 4349POPC   C2B57716  40.030   4.802   6.608
 4349POPC   C3B57717  39.928   4.956   7.048
 4349POPC   C4B57718  39.886   4.838   7.522
 4350POPC   NC357719  39.612  21.329   5.170
 4350POPC   PO457720  39.080  21.345   5.569
 4350POPC   GL157721  39.114  21.516   5.930
 4350POPC   GL257722  38.896  21.807   5.979
 4350POPC   C1A57723  39.231  21.275   6.285
 4350POPC   D2A57724  39.365  21.138   6.672
 4350POPC   C3A57725  39.376  21.409   7.040
 4350POPC   C4A57726  39.107  21.240   7.254
 4350POPC   C1B57727  38.785  21.551   6.331
 4350POPC   C2B57728  39.053  21.551   6.674
 4350POPC   C3B57729  38.925  21.703   7.058
 4350POPC   C4B57730  39.033  21.738   7.451
 4351POPC   NC357731  23.051  14.601   5.267
 4351POPC   PO457732  22.590  14.251   5.555
 4351POPC   GL157733  22.744  14.205   5.930
 4351POPC   GL257734  23.017  14.426   5.814
 4351POPC   C1A57735  22.995  14.260   6.296
 4351POPC   D2A57736  23.062  14.406   6.677
 4351POPC   C3A57737  22.845  14.252   7.016
 4351POPC   C4A57738  22.986  14.359   7.415
 4351POPC   C1B57739  22.770  14.680   6.119
 4351POPC   C2B57740  22.856  14.858   6.520
 4351POPC   C3B57741  22.789  14.753   6.935
 4351POPC   C4B57742  22.581  14.739   7.299
 4352POPC   NC357743   7.935  22.933   5.405
 4352POPC   PO457744   7.344  22.523   5.452
 4352POPC   GL157745   7.495  22.911   5.684
 4352POPC   GL257746   7.716  22.708   5.855
 4352POPC   C1A57747   7.633  23.127   6.109
 4352POPC   D2A57748   7.427  23.147   6.516
 4352POPC   C3A57749   7.608  23.133   6.931
 4352POPC   C4A57750   7.368  23.007   7.305
 4352POPC   C1B57751   7.489  22.669   6.305
 4352POPC   C2B57752   7.467  22.671   6.785
 4352POPC   C3B57753   7.309  22.518   7.217
 4352POPC   C4B57754   7.484  22.675   7.677
 4353POPC   NC357755  41.342  29.792   5.434
 4353POPC   PO457756  41.907  29.701   5.488
 4353POPC   GL157757  41.675  29.986   5.830
 4353POPC   GL257758  41.318  30.135   5.825
 4353POPC   C1A57759  41.702  29.998   6.312
 4353POPC   D2A57760  41.767  29.991   6.771
 4353POPC   C3A57761  41.397  29.858   7.005
 4353POPC   C4A57762  41.343  29.800   7.455
 4353POPC   C1B57763  41.343  30.337   6.226
 4353POPC   C2B57764  41.404  30.340   6.672
 4353POPC   C3B57765  41.576  30.324   7.126
 4353POPC   C4B57766  41.802  30.065   7.406
 4354POPC   NC357767  25.895  11.557   5.455
 4354POPC   PO457768  26.202  11.017   5.357
 4354POPC   GL157769  26.147  11.200   5.743
 4354POPC   GL257770  26.455  11.066   5.859
 4354POPC   C1A57771  25.821  11.343   6.060
 4354POPC   D2A57772  25.657  11.291   6.451
 4354POPC   C3A57773  25.719  11.555   6.798
 4354POPC   C4A57774  25.950  11.422   7.144
 4354POPC   C1B57775  26.307  11.278   6.241
 4354POPC   C2B57776  26.131  11.272   6.649
 4354POPC   C3B57777  26.202  11.021   6.981
 4354POPC   C4B57778  26.385  11.181   7.314
 4355POPC   NC357779  11.884  36.379   5.272
 4355POPC   PO457780  12.349  35.870   5.270
 4355POPC   GL157781  12.061  35.980   5.630
 4355POPC   GL257782  11.993  36.325   5.757
 4355POPC   C1A57783  12.022  35.934   6.104
 4355POPC   D2A57784  11.910  36.097   6.520
 4355POPC   C3A57785  12.027  35.896   6.896
 4355POPC   C4A57786  12.370  35.979   7.171
 4355POPC   C1B57787  11.770  36.436   6.135
 4355POPC   C2B57788  11.845  36.631   6.552
 4355POPC   C3B57789  11.979  36.407   6.939
 4355POPC   C4B57790  11.891  36.149   7.325
 4356POPC   NC357791   2.610  14.589   5.312
 4356POPC   PO457792   2.897  14.020   5.421
 4356POPC   GL157793   2.525  14.236   5.688
 4356POPC   GL257794   2.541  14.606   5.823
 4356POPC   C1A57795   2.497  14.218   6.147
 4356POPC   D2A57796   2.786  14.334   6.474
 4356POPC   C3A57797   2.583  14.260   6.846
 4356POPC   C4A57798   2.530  14.190   7.272
 4356POPC   C1B57799   2.610  14.763   6.258
 4356POPC   C2B57800   2.892  14.790   6.658
 4356POPC   C3B57801   2.744  14.683   7.082
 4356POPC   C4B57802   2.331  14.690   7.284
 4357POPC   NC357803  37.680  28.833   5.392
 4357POPC   PO457804  37.693  28.174   5.143
 4357POPC   GL157805  37.660  28.382   5.614
 4357POPC   GL257806  37.910  28.583   5.792
 4357POPC   C1A57807  37.483  28.415   6.072
 4357POPC   D2A57808  37.582  28.215   6.489
 4357POPC   C3A57809  37.914  28.329   6.821
 4357POPC   C4A57810  38.100  28.506   7.241
 4357POPC   C1B57811  37.921  28.591   6.286
 4357POPC   C2B57812  38.085  28.794   6.689
 4357POPC   C3B57813  37.949  28.991   7.100
 4357POPC   C4B57814  37.826  28.924   7.560
 4358POPC   NC357815  20.647  35.498   5.405
 4358POPC   PO457816  20.219  34.981   5.420
 4358POPC   GL157817  20.425  35.133   5.807
 4358POPC   GL257818  20.795  35.259   5.840
 4358POPC   C1A57819  20.576  35.054   6.237
 4358POPC   D2A57820  20.497  35.206   6.623
 4358POPC   C3A57821  20.682  35.240   7.009
 4358POPC   C4A57822  20.592  35.397   7.432
 4358POPC   C1B57823  20.780  35.526   6.254
 4358POPC   C2B57824  20.756  35.642   6.702
 4358POPC   C3B57825  20.980  35.751   7.098
 4358POPC   C4B57826  20.904  35.785   7.568
 4359POPC   NC357827  25.860  38.574   5.543
 4359POPC   PO457828  26.436  38.341   5.188
 4359POPC   GL157829  26.138  38.103   5.556
 4359POPC   GL257830  26.395  38.038   5.812
 4359POPC   C1A57831  25.920  38.155   6.014
 4359POPC   D2A57832  25.854  38.237   6.476
 4359POPC   C3A57833  25.842  38.627   6.763
 4359POPC   C4A57834  25.955  38.709   7.212
 4359POPC   C1B57835  26.445  38.198   6.222
 4359POPC   C2B57836  26.335  38.160   6.642
 4359POPC   C3B57837  26.310  38.435   6.945
 4359POPC   C4B57838  26.457  38.329   7.314
 4360POPC   NC357839  28.221  26.052   5.457
 4360POPC   PO457840  28.685  26.502   5.363
 4360POPC   GL157841  28.500  26.291   5.803
 4360POPC   GL257842  28.505  25.925   5.874
 4360POPC   C1A57843  28.389  26.186   6.282
 4360POPC   D2A57844  28.630  25.939   6.579
 4360POPC   C3A57845  28.583  26.101   6.996
 4360POPC   C4A57846  28.342  25.981   7.359
 4360POPC   C1B57847  28.371  25.676   6.201
 4360POPC   C2B57848  28.242  25.592   6.587
 4360POPC   C3B57849  28.124  25.803   6.915
 4360POPC   C4B57850  28.154  25.524   7.253
 4361POPC   NC357851   4.823  42.690   5.623
 4361POPC   PO457852   5.263  42.327   5.338
 4361POPC   GL157853   5.112  42.197   5.792
 4361POPC   GL257854   5.118  42.518   5.993
 4361POPC   C1A57855   5.183  42.114   6.281
 4361POPC   D2A57856   5.350  42.128   6.736
 4361POPC   C3A57857   5.100  42.229   7.131
 4361POPC   C4A57858   5.210  42.099   7.551
 4361POPC   C1B57859   5.370  42.759   6.300
 4361POPC   C2B57860   5.383  42.698   6.742
 4361POPC   C3B57861   5.265  42.733   7.159
 4361POPC   C4B57862   5.021  42.603   7.552
 4362POPC   NC357863  25.557   7.082   5.584
 4362POPC   PO457864  25.273   7.695   5.627
 4362POPC   GL157865  25.123   7.444   5.937
 4362POPC   GL257866  25.411   7.310   6.039
 4362POPC   C1A57867  25.020   7.167   6.325
 4362POPC   D2A57868  24.978   7.185   6.769
 4362POPC   C3A57869  25.276   6.984   7.052
 4362POPC   C4A57870  25.612   6.971   7.422
 4362POPC   C1B57871  25.238   7.720   6.307
 4362POPC   C2B57872  25.051   7.715   6.669
 4362POPC   C3B57873  25.179   7.583   7.055
 4362POPC   C4B57874  24.935   7.721   7.374
 4363POPC   NC357875  14.641   1.873   5.423
 4363POPC   PO457876  14.012   1.782   5.373
 4363POPC   GL157877  14.224   2.010   5.713
 4363POPC   GL257878  13.930   2.175   5.774
 4363POPC   C1A57879  14.516   2.164   6.034
 4363POPC   D2A57880  14.439   2.115   6.471
 4363POPC   C3A57881  14.400   2.004   6.900
 4363POPC   C4A57882  14.771   2.076   7.178
 4363POPC   C1B57883  14.005   2.072   6.200
 4363POPC   C2B57884  13.973   2.230   6.625
 4363POPC   C3B57885  14.166   2.442   6.974
 4363POPC   C4B57886  14.334   2.217   7.363
 4364POPC   NC357887  42.427   1.971   5.595
 4364POPC   PO457888  41.931   1.878   5.245
 4364POPC   GL157889  41.983   2.199   5.702
 4364POPC   GL257890  42.320   2.346   5.915
 4364POPC   C1A57891  41.894   2.372   6.176
 4364POPC   D2A57892  41.729   2.379   6.614
 4364POPC   C3A57893  42.057   2.294   6.916
 4364POPC   C4A57894  42.251   2.030   7.216
 4364POPC   C1B57895  42.316   2.045   6.303
 4364POPC   C2B57896  42.406   1.811   6.720
 4364POPC   C3B57897  42.773   1.799   7.024
 4364POPC   C4B57898  42.860   1.723   7.483
 4365POPC   NC357899  30.555  10.767   5.111
 4365POPC   PO457900  30.814  10.234   5.492
 4365POPC   GL157901  30.590  10.471   5.812
 4365POPC   GL257902  30.887  10.610   5.903
 4365POPC   C1A57903  30.545  10.659   6.273
 4365POPC   D2A57904  30.423  10.472   6.679
 4365POPC   C3A57905  30.468  10.725   7.059
 4365POPC   C4A57906  30.540  10.612   7.499
 4365POPC   C1B57907  31.027  10.475   6.317
 4365POPC   C2B57908  30.899  10.657   6.708
 4365POPC   C3B57909  30.898  10.495   7.118
 4365POPC   C4B57910  31.032  10.734   7.459
 4366POPC   NC357911  10.695  10.336   5.381
 4366POPC   PO457912  10.244  10.767   5.431
 4366POPC   GL157913  10.350  10.412   5.778
 4366POPC   GL257914  10.679  10.203   5.844
 4366POPC   C1A57915  10.422  10.427   6.238
 4366POPC   D2A57916  10.558  10.752   6.500
 4366POPC   C3A57917  10.639  10.593   6.889
 4366POPC   C4A57918  10.542  10.696   7.280
 4366POPC   C1B57919  10.822  10.048   6.189
 4366POPC   C2B57920  10.808  10.258   6.551
 4366POPC   C3B57921  10.726  10.076   6.949
 4366POPC   C4B57922  10.446  10.212   7.270
 4367POPC   NC357923  12.460   2.231   5.567
 4367POPC   PO457924  13.170   2.282   5.578
 4367POPC   GL157925  12.932   1.978   5.789
 4367POPC   GL257926  13.143   1.711   5.932
 4367POPC   C1A57927  12.664   1.823   6.121
 4367POPC   D2A57928  12.534   2.009   6.495
 4367POPC   C3A57929  12.757   2.032   6.862
 4367POPC   C4A57930  12.947   1.789   7.143
 4367POPC   C1B57931  13.126   1.897   6.373
 4367POPC   C2B57932  13.266   2.010   6.805
 4367POPC   C3B57933  13.293   2.154   7.241
 4367POPC   C4B57934  13.108   2.212   7.624
 4368POPC   NC357935   6.029  17.496   5.259
 4368POPC   PO457936   5.406  17.449   5.182
 4368POPC   GL157937   5.617  17.493   5.621
 4368POPC   GL257938   5.854  17.719   5.732
 4368POPC   C1A57939   5.695  17.412   6.109
 4368POPC   D2A57940   6.069  17.303   6.415
 4368POPC   C3A57941   6.086  17.221   6.871
 4368POPC   C4A57942   5.759  17.320   7.178
 4368POPC   C1B57943   6.161  17.676   6.071
 4368POPC   C2B57944   6.144  17.827   6.514
 4368POPC   C3B57945   6.056  17.742   6.956
 4368POPC   C4B57946   6.032  17.700   7.393
 4369POPC   NC357947  20.563  38.877   5.123
 4369POPC   PO457948  20.528  38.212   5.435
 4369POPC   GL157949  20.572  38.487   5.793
 4369POPC   GL257950  20.310  38.321   5.905
 4369POPC   C1A57951  20.634  38.673   6.163
 4369POPC   D2A57952  20.594  38.851   6.580
 4369POPC   C3A57953  20.729  38.705   6.949
 4369POPC   C4A57954  20.509  38.500   7.264
 4369POPC   C1B57955  20.236  38.097   6.210
 4369POPC   C2B57956  20.091  38.332   6.514
 4369POPC   C3B57957  20.247  38.286   6.868
 4369POPC   C4B57958  20.122  38.182   7.230
 4370POPC   NC357959   8.580  34.632   5.400
 4370POPC   PO457960   9.236  34.744   5.400
 4370POPC   GL157961   9.139  34.660   5.830
 4370POPC   GL257962   8.793  34.745   5.857
 4370POPC   C1A57963   9.024  34.471   6.225
 4370POPC   D2A57964   8.942  34.260   6.595
 4370POPC   C3A57965   8.938  34.519   6.904
 4370POPC   C4A57966   9.214  34.800   7.106
 4370POPC   C1B57967   8.553  34.785   6.208
 4370POPC   C2B57968   8.471  34.614   6.596
 4370POPC   C3B57969   8.534  34.862   6.950
 4370POPC   C4B57970   8.677  34.684   7.299
 4371POPC   NC357971   8.192  19.516   5.428
 4371POPC   PO457972   8.572  20.136   5.539
 4371POPC   GL157973   8.349  19.841   5.796
 4371POPC   GL257974   7.981  19.872   5.745
 4371POPC   C1A57975   8.345  19.693   6.212
 4371POPC   D2A57976   8.152  19.734   6.621
 4371POPC   C3A57977   8.327  20.007   6.930
 4371POPC   C4A57978   8.348  19.824   7.308
 4371POPC   C1B57979   7.940  20.042   6.167
 4371POPC   C2B57980   7.702  19.944   6.550
 4371POPC   C3B57981   7.713  20.045   6.962
 4371POPC   C4B57982   7.855  19.846   7.309
 4372POPC   NC357983  26.911   8.371   5.562
 4372POPC   PO457984  26.318   8.129   5.437
 4372POPC   GL157985  26.566   8.109   5.830
 4372POPC   GL257986  26.919   7.928   5.814
 4372POPC   C1A57987  26.492   8.348   6.232
 4372POPC   D2A57988  26.555   8.558   6.647
 4372POPC   C3A57989  26.952   8.476   6.897
 4372POPC   C4A57990  27.016   8.518   7.374
 4372POPC   C1B57991  26.937   8.074   6.265
 4372POPC   C2B57992  27.073   7.972   6.722
 4372POPC   C3B57993  26.965   8.042   7.183
 4372POPC   C4B57994  26.720   7.848   7.509
 4373POPC   NC357995  17.986  31.030   5.525
 4373POPC   PO457996  17.651  31.585   5.299
 4373POPC   GL157997  17.674  31.464   5.729
 4373POPC   GL257998  17.392  31.659   5.844
 4373POPC   C1A57999  17.767  31.485   6.190
 4373POPC   D2A58000  17.534  31.617   6.555
 4373POPC   C3A58001  17.494  31.516   6.980
 4373POPC   C4A58002  17.337  31.767   7.321
 4373POPC   C1B58003  17.258  31.397   6.190
 4373POPC   C2B58004  17.417  31.138   6.539
 4373POPC   C3B58005  17.240  31.077   6.914
 4373POPC   C4B58006  17.308  31.124   7.322
 4374POPC   NC358007  21.225  41.826   4.897
 4374POPC   PO458008  21.399  41.401   5.418
 4374POPC   GL158009  21.340  41.601   5.839
 4374POPC   GL258010  21.174  41.292   5.920
 4374POPC   C1A58011  21.502  41.808   6.231
 4374POPC   D2A58012  21.411  41.817   6.681
 4374POPC   C3A58013  21.441  41.483   7.016
 4374POPC   C4A58014  21.389  41.547   7.440
 4374POPC   C1B58015  21.105  41.481   6.335
 4374POPC   C2B58016  21.004  41.498   6.782
 4374POPC   C3B58017  20.900  41.433   7.229
 4374POPC   C4B58018  20.965  41.300   7.659
 4375POPC   NC358019  28.202  41.857   5.175
 4375POPC   PO458020  28.098  41.523   5.650
 4375POPC   GL158021  28.277  41.273   5.930
 4375POPC   GL258022  28.650  41.253   5.936
 4375POPC   C1A58023  28.156  41.311   6.356
 4375POPC   D2A58024  28.322  41.308   6.770
 4375POPC   C3A58025  28.067  41.413   7.157
 4375POPC   C4A58026  28.090  41.235   7.587
 4375POPC   C1B58027  28.557  41.596   6.237
 4375POPC   C2B58028  28.511  41.780   6.640
 4375POPC   C3B58029  28.672  41.582   7.033
 4375POPC   C4B58030  28.693  41.538   7.450
 4376POPC   NC358031  23.801   8.791   5.545
 4376POPC   PO458032  23.688   8.048   5.447
 4376POPC   GL158033  23.858   8.185   5.807
 4376POPC   GL258034  23.531   8.077   5.951
 4376POPC   C1A58035  23.974   7.944   6.179
 4376POPC   D2A58036  23.762   7.774   6.550
 4376POPC   C3A58037  23.874   7.987   6.933
 4376POPC   C4A58038  23.799   8.251   7.286
 4376POPC   C1B58039  23.676   8.385   6.268
 4376POPC   C2B58040  23.707   8.441   6.715
 4376POPC   C3B58041  23.387   8.413   7.018
 4376POPC   C4B58042  23.299   8.227   7.428
 4377POPC   NC358043  32.575   3.180   5.055
 4377POPC   PO458044  32.260   3.703   5.426
 4377POPC   GL158045  32.252   3.408   5.745
 4377POPC   GL258046  32.504   3.565   5.946
 4377POPC   C1A58047  32.104   3.298   6.144
 4377POPC   D2A58048  32.282   3.485   6.484
 4377POPC   C3A58049  32.031   3.453   6.839
 4377POPC   C4A58050  32.060   3.456   7.255
 4377POPC   C1B58051  32.552   3.888   6.237
 4377POPC   C2B58052  32.574   3.861   6.664
 4377POPC   C3B58053  32.443   3.714   7.027
 4377POPC   C4B58054  32.703   3.928   7.285
 4378POPC   NC358055  25.450   4.883   5.485
 4378POPC   PO458056  25.154   5.364   5.523
 4378POPC   GL158057  25.391   5.223   5.898
 4378POPC   GL258058  25.402   4.861   5.990
 4378POPC   C1A58059  25.322   5.279   6.344
 4378POPC   D2A58060  25.456   5.052   6.697
 4378POPC   C3A58061  25.295   5.197   7.127
 4378POPC   C4A58062  25.225   5.320   7.573
 4378POPC   C1B58063  25.097   4.826   6.342
 4378POPC   C2B58064  24.944   5.105   6.687
 4378POPC   C3B58065  24.771   5.073   7.103
 4378POPC   C4B58066  24.813   5.022   7.548
 4379POPC   NC358067  17.093  41.409   5.422
 4379POPC   PO458068  16.424  41.445   5.379
 4379POPC   GL158069  16.648  41.495   5.785
 4379POPC   GL258070  16.696  41.121   5.716
 4379POPC   C1A58071  16.790  41.668   6.243
 4379POPC   D2A58072  17.052  41.864   6.631
 4379POPC   C3A58073  16.886  41.790   7.051
 4379POPC   C4A58074  16.455  41.791   7.091
 4379POPC   C1B58075  16.589  40.954   6.111
 4379POPC   C2B58076  16.769  41.152   6.455
 4379POPC   C3B58077  16.646  41.424   6.767
 4379POPC   C4B58078  16.518  41.304   7.179
 4380POPC   NC358079  13.114  31.983   5.587
 4380POPC   PO458080  13.808  32.188   5.536
 4380POPC   GL158081  13.742  32.276   5.937
 4380POPC   GL258082  13.414  32.339   5.973
 4380POPC   C1A58083  13.783  32.170   6.310
 4380POPC   D2A58084  13.582  32.185   6.697
 4380POPC   C3A58085  13.855  32.149   7.068
 4380POPC   C4A58086  13.760  32.354   7.474
 4380POPC   C1B58087  13.350  32.555   6.362
 4380POPC   C2B58088  13.324  32.705   6.779
 4380POPC   C3B58089  13.381  32.434   7.120
 4380POPC   C4B58090  13.390  31.984   7.129
 4381POPC   NC358091   5.391  10.449   5.451
 4381POPC   PO458092   4.647  10.543   5.359
 4381POPC   GL158093   4.907  10.432   5.739
 4381POPC   GL258094   5.130  10.687   5.839
 4381POPC   C1A58095   4.805  10.526   6.178
 4381POPC   D2A58096   4.900  10.622   6.601
 4381POPC   C3A58097   4.815  10.317   6.913
 4381POPC   C4A58098   4.855  10.348   7.365
 4381POPC   C1B58099   5.294  10.469   6.261
 4381POPC   C2B58100   5.417  10.654   6.649
 4381POPC   C3B58101   5.199  10.630   7.065
 4381POPC   C4B58102   5.350  10.583   7.500
 4382POPC   NC358103   8.923  39.605   5.543
 4382POPC   PO458104   9.156  40.250   5.323
 4382POPC   GL158105   9.127  40.030   5.734
 4382POPC   GL258106   8.741  40.026   5.777
 4382POPC   C1A58107   9.070  39.890   6.175
 4382POPC   D2A58108   9.240  40.004   6.578
 4382POPC   C3A58109   9.172  39.750   6.942
 4382POPC   C4A58110   9.047  39.809   7.360
 4382POPC   C1B58111   8.632  40.180   6.193
 4382POPC   C2B58112   8.763  40.236   6.620
 4382POPC   C3B58113   8.924  40.225   7.031
 4382POPC   C4B58114   8.701  40.155   7.421
 4383POPC   NC358115  44.953  16.414   5.538
 4383POPC   PO458116  44.467  16.690   5.376
 4383POPC   GL158117  44.611  16.698   5.839
 4383POPC   GL258118  44.955  16.778   5.938
 4383POPC   C1A58119  44.578  16.646   6.316
 4383POPC   D2A58120  44.575  16.408   6.735
 4383POPC   C3A58121  44.556  16.648   7.142
 4383POPC   C4A58122  44.416  16.692   7.594
 4383POPC   C1B58123   0.085  16.569   6.354
 4383POPC   C2B58124   0.005  16.672   6.817
 4383POPC   C3B58125   0.028  16.858   7.250
 4383POPC   C4B58126   0.136  17.081   7.652
 4384POPC   NC358127  19.913  28.103   5.407
 4384POPC   PO458128  19.843  28.791   5.385
 4384POPC   GL158129  19.781  28.481   5.781
 4384POPC   GL258130  19.650  28.105   5.829
 4384POPC   C1A58131  19.915  28.488   6.257
 4384POPC   D2A58132  20.149  28.318   6.660
 4384POPC   C3A58133  19.975  28.440   7.081
 4384POPC   C4A58134  19.732  28.808   7.169
 4384POPC   C1B58135  19.883  27.990   6.221
 4384POPC   C2B58136  19.704  28.078   6.637
 4384POPC   C3B58137  19.714  27.997   7.077
 4384POPC   C4B58138  19.622  28.223   7.448
 4385POPC   NC358139  28.745  10.097   5.545
 4385POPC   PO458140  29.320  10.310   5.492
 4385POPC   GL158141  29.219  10.248   5.933
 4385POPC   GL258142  28.890  10.349   5.977
 4385POPC   C1A58143  29.197  10.280   6.402
 4385POPC   D2A58144  28.939  10.630   6.559
 4385POPC   C3A58145  28.997  10.797   6.959
 4385POPC   C4A58146  29.351  10.866   7.227
 4385POPC   C1B58147  28.678  10.233   6.357
 4385POPC   C2B58148  28.749  10.241   6.852
 4385POPC   C3B58149  28.775  10.457   7.276
 4385POPC   C4B58150  28.797  10.340   7.754
 4386POPC   NC358151  10.725  31.628   5.497
 4386POPC   PO458152  10.330  31.092   5.376
 4386POPC   GL158153  10.468  31.292   5.770
 4386POPC   GL258154  10.286  31.616   5.801
 4386POPC   C1A58155  10.652  31.464   6.166
 4386POPC   D2A58156  10.463  31.466   6.602
 4386POPC   C3A58157  10.633  31.515   7.021
 4386POPC   C4A58158  10.796  31.630   7.437
 4386POPC   C1B58159  10.130  31.488   6.209
 4386POPC   C2B58160   9.962  31.342   6.646
 4386POPC   C3B58161  10.008  31.482   7.082
 4386POPC   C4B58162  10.321  31.432   7.422
 4387POPC   NC358163   3.876  34.950   5.572
 4387POPC   PO458164   3.184  34.987   5.338
 4387POPC   GL158165   3.411  35.176   5.720
 4387POPC   GL258166   3.191  35.346   5.945
 4387POPC   C1A58167   3.696  35.236   6.104
 4387POPC   D2A58168   3.840  35.082   6.498
 4387POPC   C3A58169   3.756  35.430   6.757
 4387POPC   C4A58170   3.897  35.523   7.156
 4387POPC   C1B58171   3.314  35.419   6.394
 4387POPC   C2B58172   3.275  35.657   6.777
 4387POPC   C3B58173   3.373  35.450   7.160
 4387POPC   C4B58174   3.615  35.064   7.094
 4388POPC   NC358175   5.284  29.570   5.455
 4388POPC   PO458176   5.229  30.235   5.700
 4388POPC   GL158177   5.008  29.856   5.842
 4388POPC   GL258178   4.632  29.953   5.889
 4388POPC   C1A58179   5.121  29.635   6.229
 4388POPC   D2A58180   4.950  29.532   6.648
 4388POPC   C3A58181   5.185  29.724   6.992
 4388POPC   C4A58182   5.259  30.034   7.336
 4388POPC   C1B58183   4.830  30.136   6.288
 4388POPC   C2B58184   4.990  30.149   6.734
 4388POPC   C3B58185   4.788  30.043   7.139
 4388POPC   C4B58186   4.567  30.008   7.546
 4389POPC   NC358187  24.024  33.045   5.565
 4389POPC   PO458188  23.479  32.924   5.555
 4389POPC   GL158189  23.638  33.076   5.955
 4389POPC   GL258190  23.875  33.359   5.951
 4389POPC   C1A58191  23.603  33.243   6.395
 4389POPC   D2A58192  23.668  33.333   6.843
 4389POPC   C3A58193  23.466  33.047   7.120
 4389POPC   C4A58194  23.614  32.624   7.266
 4389POPC   C1B58195  24.049  33.046   6.264
 4389POPC   C2B58196  23.887  32.883   6.677
 4389POPC   C3B58197  23.966  32.989   7.117
 4389POPC   C4B58198  23.823  33.357   7.352
 4390POPC   NC358199  12.815  38.545   5.241
 4390POPC   PO458200  12.506  39.070   5.158
 4390POPC   GL158201  12.587  38.788   5.619
 4390POPC   GL258202  12.927  38.686   5.744
 4390POPC   C1A58203  12.569  38.731   6.112
 4390POPC   D2A58204  12.752  38.387   6.402
 4390POPC   C3A58205  12.637  38.345   6.852
 4390POPC   C4A58206  12.728  38.223   7.271
 4390POPC   C1B58207  13.174  38.646   6.155
 4390POPC   C2B58208  13.274  38.382   6.553
 4390POPC   C3B58209  13.147  38.341   7.001
 4390POPC   C4B58210  12.956  38.671   7.282
 4391POPC   NC358211  39.047  29.699   5.542
 4391POPC   PO458212  38.793  30.265   5.452
 4391POPC   GL158213  38.971  30.154   5.845
 4391POPC   GL258214  39.322  30.016   5.857
 4391POPC   C1A58215  38.936  29.992   6.254
 4391POPC   D2A58216  38.978  29.859   6.670
 4391POPC   C3A58217  39.118  30.141   6.962
 4391POPC   C4A58218  39.186  30.194   7.399
 4391POPC   C1B58219  39.428  29.819   6.268
 4391POPC   C2B58220  39.691  29.711   6.632
 4391POPC   C3B58221  39.585  29.581   7.009
 4391POPC   C4B58222  39.177  29.653   7.151
 4392POPC   NC358223   6.451  15.565   5.396
 4392POPC   PO458224   6.861  16.119   5.306
 4392POPC   GL158225   6.762  16.019   5.750
 4392POPC   GL258226   6.833  15.684   5.782
 4392POPC   C1A58227   6.575  16.231   6.142
 4392POPC   D2A58228   6.365  16.352   6.536
 4392POPC   C3A58229   6.600  16.309   6.939
 4392POPC   C4A58230   6.341  16.076   7.213
 4392POPC   C1B58231   6.723  15.737   6.255
 4392POPC   C2B58232   6.566  15.867   6.701
 4392POPC   C3B58233   6.710  15.742   7.171
 4392POPC   C4B58234   6.997  15.756   7.581
 4393POPC   NC358235  27.146  44.363   5.302
 4393POPC   PO458236  27.729  44.341   5.463
 4393POPC   GL158237  27.624  44.460   5.884
 4393POPC   GL258238  27.487  44.796   5.871
 4393POPC   C1A58239  27.676  44.531   6.344
 4393POPC   D2A58240  27.581  44.331   6.747
 4393POPC   C3A58241  27.722  44.388   7.194
 4393POPC   C4A58242  27.925  44.569   7.562
 4393POPC   C1B58243  27.358  44.938   6.287
 4393POPC   C2B58244  27.478  44.850   6.720
 4393POPC   C3B58245  27.729  44.907   7.101
 4393POPC   C4B58246  27.801   0.111   7.520
 4394POPC   NC358247   2.743   7.415   5.472
 4394POPC   PO458248   3.020   7.971   5.262
 4394POPC   GL158249   3.101   7.685   5.734
 4394POPC   GL258250   3.074   7.303   5.859
 4394POPC   C1A58251   2.902   7.613   6.225
 4394POPC   D2A58252   2.672   7.526   6.676
 4394POPC   C3A58253   2.924   7.437   7.071
 4394POPC   C4A58254   3.336   7.566   7.288
 4394POPC   C1B58255   2.873   7.076   6.233
 4394POPC   C2B58256   2.960   7.082   6.705
 4394POPC   C3B58257   2.745   6.938   7.073
 4394POPC   C4B58258   2.364   7.155   7.163
 4395POPC   NC358259  27.077  15.811   5.161
 4395POPC   PO458260  26.614  15.543   5.591
 4395POPC   GL158261  26.625  15.885   5.955
 4395POPC   GL258262  26.901  16.141   6.004
 4395POPC   C1A58263  26.616  15.989   6.399
 4395POPC   D2A58264  26.899  15.955   6.783
 4395POPC   C3A58265  26.710  15.860   7.164
 4395POPC   C4A58266  26.447  16.172   7.332
 4395POPC   C1B58267  27.103  15.835   6.313
 4395POPC   C2B58268  27.399  15.900   6.646
 4395POPC   C3B58269  27.336  16.214   6.946
 4395POPC   C4B58270  27.100  16.169   7.290
 4396POPC   NC358271   5.141  38.103   5.431
 4396POPC   PO458272   5.000  38.799   5.387
 4396POPC   GL158273   5.034  38.554   5.775
 4396POPC   GL258274   4.819  38.290   5.842
 4396POPC   C1A58275   4.938  38.653   6.213
 4396POPC   D2A58276   4.753  38.516   6.599
 4396POPC   C3A58277   4.916  38.629   7.014
 4396POPC   C4A58278   5.179  38.310   7.179
 4396POPC   C1B58279   4.956  38.148   6.247
 4396POPC   C2B58280   4.898  37.972   6.658
 4396POPC   C3B58281   4.689  38.006   7.069
 4396POPC   C4B58282   4.721  38.316   7.423
 4397POPC   NC358283   4.115  17.535   5.245
 4397POPC   PO458284   4.595  17.068   5.184
 4397POPC   GL158285   4.579  17.268   5.630
 4397POPC   GL258286   4.315  17.505   5.698
 4397POPC   C1A58287   4.554  17.366   6.114
 4397POPC   D2A58288   4.483  17.605   6.499
 4397POPC   C3A58289   4.332  17.451   6.902
 4397POPC   C4A58290   4.445  17.651   7.285
 4397POPC   C1B58291   4.126  17.675   6.065
 4397POPC   C2B58292   3.976  17.742   6.481
 4397POPC   C3B58293   3.999  17.876   6.923
 4397POPC   C4B58294   3.992  17.830   7.367
 4398POPC   NC358295  12.822  41.818   5.219
 4398POPC   PO458296  12.331  41.361   5.134
 4398POPC   GL158297  12.540  41.510   5.558
 4398POPC   GL258298  12.710  41.848   5.720
 4398POPC   C1A58299  12.619  41.445   6.015
 4398POPC   D2A58300  12.778  41.384   6.449
 4398POPC   C3A58301  12.702  41.486   6.894
 4398POPC   C4A58302  12.646  41.287   7.278
 4398POPC   C1B58303  12.891  41.866   6.139
 4398POPC   C2B58304  12.784  41.888   6.579
 4398POPC   C3B58305  12.897  41.963   7.014
 4398POPC   C4B58306  12.709  41.789   7.363
 4399POPC   NC358307  44.543  11.030   5.248
 4399POPC   PO458308  44.441  11.617   5.341
 4399POPC   GL158309  44.391  11.347   5.698
 4399POPC   GL258310  44.730  11.277   5.705
 4399POPC   C1A58311  44.370  11.307   6.166
 4399POPC   D2A58312  44.577  11.340   6.589
 4399POPC   C3A58313  44.480  11.365   7.049
 4399POPC   C4A58314  44.448  11.476   7.542
 4399POPC   C1B58315  44.799  11.585   6.021
 4399POPC   C2B58316   0.006  11.551   6.387
 4399POPC   C3B58317   0.009  11.476   6.825
 4399POPC   C4B58318  44.895  11.614   7.215
 4400POPC   NC358319  15.986  35.594   5.123
 4400POPC   PO458320  16.051  34.957   5.366
 4400POPC   GL158321  16.148  35.257   5.740
 4400POPC   GL258322  16.341  35.588   5.682
 4400POPC   C1A58323  15.905  35.282   6.159
 4400POPC   D2A58324  15.974  35.512   6.552
 4400POPC   C3A58325  16.025  35.348   6.961
 4400POPC   C4A58326  15.743  35.418   7.314
 4400POPC   C1B58327  16.348  35.547   6.145
 4400POPC   C2B58328  16.436  35.740   6.553
 4400POPC   C3B58329  16.231  35.835   6.914
 4400POPC   C4B58330  16.152  35.724   7.331
 4401POPC   NC358331   2.123  42.694   5.464
 4401POPC   PO458332   2.418  42.144   5.387
 4401POPC   GL158333   2.132  42.203   5.766
 4401POPC   GL258334   1.933  42.514   5.892
 4401POPC   C1A58335   1.938  42.100   6.173
 4401POPC   D2A58336   1.849  42.365   6.524
 4401POPC   C3A58337   1.906  42.202   6.925
 4401POPC   C4A58338   1.818  42.359   7.313
 4401POPC   C1B58339   2.283  42.522   6.213
 4401POPC   C2B58340   2.345  42.448   6.685
 4401POPC   C3B58341   2.135  42.682   7.029
 4401POPC   C4B58342   2.136  42.735   7.507
 4402POPC   NC358343   0.306  31.376   5.592
 4402POPC   PO458344   0.739  31.846   5.577
 4402POPC   GL158345   0.678  31.571   5.935
 4402POPC   GL258346   0.719  31.248   5.963
 4402POPC   C1A58347   0.517  31.568   6.370
 4402POPC   D2A58348   0.531  31.610   6.833
 4402POPC   C3A58349   0.696  31.283   7.114
 4402POPC   C4A58350   0.493  31.113   7.525
 4402POPC   C1B58351   0.345  31.140   6.188
 4402POPC   C2B58352   0.169  31.185   6.581
 4402POPC   C3B58353  44.965  31.396   6.901
 4402POPC   C4B58354  44.828  31.256   7.300
 4403POPC   NC358355   4.400   5.647   4.969
 4403POPC   PO458356   3.852   5.717   5.172
 4403POPC   GL158357   4.041   5.852   5.634
 4403POPC   GL258358   4.404   5.727   5.756
 4403POPC   C1A58359   4.094   5.882   6.123
 4403POPC   D2A58360   4.254   5.844   6.570
 4403POPC   C3A58361   4.102   6.207   6.805
 4403POPC   C4A58362   4.014   6.239   7.241
 4403POPC   C1B58363   4.363   5.450   6.164
 4403POPC   C2B58364   4.423   5.347   6.624
 4403POPC   C3B58365   4.612   5.588   6.945
 4403POPC   C4B58366   4.472   5.989   7.095
 4404POPC   NC358367  38.081  29.443   5.493
 4404POPC   PO458368  37.439  29.235   5.353
 4404POPC   GL158369  37.700  29.208   5.752
 4404POPC   GL258370  37.565  28.927   5.910
 4404POPC   C1A58371  37.838  29.255   6.225
 4404POPC   D2A58372  37.744  29.231   6.692
 4404POPC   C3A58373  37.841  29.518   7.076
 4404POPC   C4A58374  37.795  29.443   7.553
 4404POPC   C1B58375  37.481  28.886   6.344
 4404POPC   C2B58376  37.583  28.704   6.741
 4404POPC   C3B58377  37.542  28.693   7.187
 4404POPC   C4B58378  37.416  29.129   7.358
 4405POPC   NC358379  34.933   4.149   5.374
 4405POPC   PO458380  34.307   4.204   5.480
 4405POPC   GL158381  34.438   4.013   5.855
 4405POPC   GL258382  34.752   4.206   5.870
 4405POPC   C1A58383  34.455   4.134   6.309
 4405POPC   D2A58384  34.477   4.538   6.541
 4405POPC   C3A58385  34.524   4.500   6.988
 4405POPC   C4A58386  34.454   4.138   7.215
 4405POPC   C1B58387  34.921   4.385   6.265
 4405POPC   C2B58388  34.976   4.485   6.708
 4405POPC   C3B58389  34.982   4.195   7.046
 4405POPC   C4B58390  34.887   4.216   7.483
 4406POPC   NC358391  40.887   0.252   5.338
 4406POPC   PO458392  40.255   0.500   5.521
 4406POPC   GL158393  40.548   0.312   5.835
 4406POPC   GL258394  40.926   0.379   5.821
 4406POPC   C1A58395  40.677   0.508   6.243
 4406POPC   D2A58396  40.840   0.700   6.625
 4406POPC   C3A58397  40.570   0.451   6.869
 4406POPC   C4A58398  40.558   0.282   7.249
 4406POPC   C1B58399  41.188   0.507   6.159
 4406POPC   C2B58400  41.317   0.535   6.591
 4406POPC   C3B58401  41.114   0.477   7.021
 4406POPC   C4B58402  40.790   0.741   7.210
 4407POPC   NC358403  43.102  30.225   5.253
 4407POPC   PO458404  43.483  29.688   5.203
 4407POPC   GL158405  43.412  29.813   5.611
 4407POPC   GL258406  43.707  29.693   5.748
 4407POPC   C1A58407  43.329  29.862   6.077
 4407POPC   D2A58408  43.132  29.924   6.501
 4407POPC   C3A58409  43.297  29.897   6.941
 4407POPC   C4A58410  43.117  30.013   7.340
 4407POPC   C1B58411  43.714  29.499   6.167
 4407POPC   C2B58412  43.588  29.544   6.602
 4407POPC   C3B58413  43.517  29.437   7.019
 4407POPC   C4B58414  43.538  29.709   7.380
 4408POPC   NC358415  30.148  17.065   5.368
 4408POPC   PO458416  29.470  16.894   5.520
 4408POPC   GL158417  29.899  16.811   5.732
 4408POPC   GL258418  30.022  16.459   5.728
 4408POPC   C1A58419  30.058  16.856   6.151
 4408POPC   D2A58420  29.733  16.930   6.475
 4408POPC   C3A58421  29.829  16.862   6.901
 4408POPC   C4A58422  29.986  16.724   7.293
 4408POPC   C1B58423  29.874  16.361   6.146
 4408POPC   C2B58424  30.013  16.490   6.558
 4408POPC   C3B58425  29.978  16.323   6.965
 4408POPC   C4B58426  29.726  16.284   7.312
 4409POPC   NC358427  12.298  28.470   5.142
 4409POPC   PO458428  11.739  28.308   5.155
 4409POPC   GL158429  11.864  28.242   5.639
 4409POPC   GL258430  12.219  28.279   5.761
 4409POPC   C1A58431  11.775  28.124   6.094
 4409POPC   D2A58432  11.736  28.290   6.538
 4409POPC   C3A58433  12.021  28.219   6.894
 4409POPC   C4A58434  12.031  28.262   7.320
 4409POPC   C1B58435  12.165  28.430   6.233
 4409POPC   C2B58436  12.070  28.665   6.641
 4409POPC   C3B58437  11.819  28.676   7.048
 4409POPC   C4B58438  11.896  28.812   7.497
 4410POPC   NC358439   8.326  29.385   5.297
 4410POPC   PO458440   8.128  28.711   5.248
 4410POPC   GL158441   8.101  28.992   5.633
 4410POPC   GL258442   7.885  29.297   5.609
 4410POPC   C1A58443   8.327  28.998   6.023
 4410POPC   D2A58444   8.257  28.930   6.457
 4410POPC   C3A58445   8.425  29.118   6.822
 4410POPC   C4A58446   8.294  29.044   7.234
 4410POPC   C1B58447   8.090  29.464   5.975
 4410POPC   C2B58448   7.956  29.586   6.396
 4410POPC   C3B58449   7.836  29.656   6.821
 4410POPC   C4B58450   8.122  29.540   7.177
 4411POPC   NC358451  36.087  31.790   5.574
 4411POPC   PO458452  36.347  31.177   5.408
 4411POPC   GL158453  36.201  31.331   5.835
 4411POPC   GL258454  35.872  31.409   5.844
 4411POPC   C1A58455  36.125  31.563   6.247
 4411POPC   D2A58456  35.914  31.551   6.633
 4411POPC   C3A58457  36.153  31.599   7.019
 4411POPC   C4A58458  35.997  31.386   7.399
 4411POPC   C1B58459  35.651  31.730   6.150
 4411POPC   C2B58460  35.619  31.989   6.508
 4411POPC   C3B58461  35.522  31.816   6.890
 4411POPC   C4B58462  35.771  31.825   7.257
 4412POPC   NC358463   5.125  18.859   5.475
 4412POPC   PO458464   5.388  19.453   5.755
 4412POPC   GL158465   5.194  19.142   6.002
 4412POPC   GL258466   4.880  18.917   5.934
 4412POPC   C1A58467   5.178  19.201   6.453
 4412POPC   D2A58468   4.919  19.008   6.763
 4412POPC   C3A58469   5.027  19.182   7.131
 4412POPC   C4A58470   5.226  19.417   7.470
 4412POPC   C1B58471   5.089  18.721   6.299
 4412POPC   C2B58472   5.334  18.736   6.675
 4412POPC   C3B58473   5.149  18.647   7.067
 4412POPC   C4B58474   5.063  18.763   7.499
 4413POPC   NC358475   2.559  27.687   5.499
 4413POPC   PO458476   3.209  27.675   5.285
 4413POPC   GL158477   3.029  27.734   5.734
 4413POPC   GL258478   2.700  27.828   5.966
 4413POPC   C1A58479   3.059  27.502   6.132
 4413POPC   D2A58480   2.970  27.597   6.568
 4413POPC   C3A58481   2.911  27.469   6.988
 4413POPC   C4A58482   2.918  27.884   7.213
 4413POPC   C1B58483   2.566  27.465   6.278
 4413POPC   C2B58484   2.503  27.381   6.679
 4413POPC   C3B58485   2.519  27.774   6.894
 4413POPC   C4B58486   2.447  27.727   7.315
 4414POPC   NC358487  14.972  43.179   5.405
 4414POPC   PO458488  15.530  43.581   5.226
 4414POPC   GL158489  15.430  43.296   5.639
 4414POPC   GL258490  15.326  42.915   5.786
 4414POPC   C1A58491  15.262  43.315   6.091
 4414POPC   D2A58492  15.267  43.378   6.548
 4414POPC   C3A58493  14.964  43.279   6.856
 4414POPC   C4A58494  15.035  43.388   7.259
 4414POPC   C1B58495  15.577  42.912   6.212
 4414POPC   C2B58496  15.699  43.062   6.640
 4414POPC   C3B58497  15.640  42.930   7.041
 4414POPC   C4B58498  15.300  42.969   7.231
 4415POPC   NC358499  35.292  18.353   5.282
 4415POPC   PO458500  35.715  17.907   5.513
 4415POPC   GL158501  35.384  18.161   5.757
 4415POPC   GL258502  35.378  18.515   5.788
 4415POPC   C1A58503  35.173  18.174   6.166
 4415POPC   D2A58504  35.377  18.166   6.568
 4415POPC   C3A58505  35.237  17.987   6.965
 4415POPC   C4A58506  35.406  18.142   7.359
 4415POPC   C1B58507  35.147  18.718   6.117
 4415POPC   C2B58508  35.010  18.539   6.489
 4415POPC   C3B58509  35.139  18.500   6.884
 4415POPC   C4B58510  34.967  18.353   7.240
 4416POPC   NC358511   1.786   6.276   5.076
 4416POPC   PO458512   1.972   5.817   5.535
 4416POPC   GL158513   1.949   5.579   5.901
 4416POPC   GL258514   1.820   5.929   6.032
 4416POPC   C1A58515   2.054   5.612   6.348
 4416POPC   D2A58516   1.911   5.919   6.629
 4416POPC   C3A58517   1.856   5.719   6.953
 4416POPC   C4A58518   1.821   5.740   7.361
 4416POPC   C1B58519   1.651   6.236   6.324
 4416POPC   C2B58520   1.416   6.194   6.759
 4416POPC   C3B58521   1.677   6.157   7.123
 4416POPC   C4B58522   2.159   6.107   7.163
 4417POPC   NC358523   4.370   7.695   5.426
 4417POPC   PO458524   4.505   7.089   5.454
 4417POPC   GL158525   4.283   7.321   5.820
 4417POPC   GL258526   3.959   7.203   6.001
 4417POPC   C1A58527   4.329   7.500   6.258
 4417POPC   D2A58528   4.193   7.413   6.701
 4417POPC   C3A58529   4.409   7.522   7.074
 4417POPC   C4A58530   4.293   7.596   7.496
 4417POPC   C1B58531   3.824   7.528   6.339
 4417POPC   C2B58532   3.827   7.794   6.731
 4417POPC   C3B58533   3.853   7.682   7.194
 4417POPC   C4B58534   3.805   7.446   7.601
 4418POPC   NC358535   6.993  22.927   5.358
 4418POPC   PO458536   6.346  22.735   5.646
 4418POPC   GL158537   6.735  22.950   5.797
 4418POPC   GL258538   7.035  22.716   5.820
 4418POPC   C1A58539   6.616  23.084   6.208
 4418POPC   D2A58540   6.436  22.824   6.506
 4418POPC   C3A58541   6.405  22.894   6.947
 4418POPC   C4A58542   6.472  22.699   7.346
 4418POPC   C1B58543   7.103  22.976   6.170
 4418POPC   C2B58544   6.928  23.018   6.609
 4418POPC   C3B58545   6.915  22.920   7.051
 4418POPC   C4B58546   6.911  22.899   7.494
 4419POPC   NC358547  24.296  34.628   5.391
 4419POPC   PO458548  24.760  34.211   5.402
 4419POPC   GL158549  24.493  34.396   5.820
 4419POPC   GL258550  24.381  34.767   5.877
 4419POPC   C1A58551  24.399  34.496   6.304
 4419POPC   D2A58552  24.289  34.770   6.685
 4419POPC   C3A58553  24.427  34.626   7.127
 4419POPC   C4A58554  24.285  34.747   7.568
 4419POPC   C1B58555  24.370  35.034   6.250
 4419POPC   C2B58556  24.677  35.149   6.577
 4419POPC   C3B58557  24.705  35.066   7.018
 4419POPC   C4B58558  24.810  34.886   7.402
 4420POPC   NC358559  35.711  41.780   5.407
 4420POPC   PO458560  35.155  41.458   5.512
 4420POPC   GL158561  35.321  41.576   5.884
 4420POPC   GL258562  35.678  41.570   5.875
 4420POPC   C1A58563  35.145  41.693   6.278
 4420POPC   D2A58564  34.968  41.798   6.672
 4420POPC   C3A58565  34.950  41.473   6.975
 4420POPC   C4A58566  35.299  41.425   7.235
 4420POPC   C1B58567  35.617  41.541   6.321
 4420POPC   C2B58568  35.452  41.560   6.740
 4420POPC   C3B58569  35.744  41.571   7.086
 4420POPC   C4B58570  35.778  41.409   7.527
 4421POPC   NC358571   0.656  17.057   5.348
 4421POPC   PO458572   0.417  16.427   5.543
 4421POPC   GL158573   0.446  16.664   5.903
 4421POPC   GL258574   0.758  16.701   5.895
 4421POPC   C1A58575   0.426  16.940   6.286
 4421POPC   D2A58576   0.364  17.032   6.735
 4421POPC   C3A58577   0.490  16.716   7.017
 4421POPC   C4A58578   0.320  16.460   7.338
 4421POPC   C1B58579   0.699  16.506   6.328
 4421POPC   C2B58580   0.873  16.468   6.752
 4421POPC   C3B58581   0.727  16.221   7.108
 4421POPC   C4B58582   0.375  15.957   7.301
 4422POPC   NC358583   9.673  25.655   5.567
 4422POPC   PO458584   9.791  25.157   5.016
 4422POPC   GL158585   9.811  25.148   5.541
 4422POPC   GL258586  10.047  25.285   5.760
 4422POPC   C1A58587   9.673  25.150   6.039
 4422POPC   D2A58588   9.529  25.094   6.505
 4422POPC   C3A58589   9.560  25.251   6.908
 4422POPC   C4A58590   9.705  24.986   7.223
 4422POPC   C1B58591  10.069  25.409   6.219
 4422POPC   C2B58592   9.953  25.410   6.640
 4422POPC   C3B58593  10.021  25.384   7.098
 4422POPC   C4B58594   9.643  25.460   7.391
 4423POPC   NC358595   9.443  26.600   5.332
 4423POPC   PO458596  10.097  26.714   5.322
 4423POPC   GL158597   9.820  26.777   5.702
 4423POPC   GL258598   9.513  26.596   5.835
 4423POPC   C1A58599   9.907  26.786   6.146
 4423POPC   D2A58600  10.054  26.672   6.574
 4423POPC   C3A58601  10.198  26.979   6.847
 4423POPC   C4A58602   9.945  26.832   7.145
 4423POPC   C1B58603   9.315  26.378   6.184
 4423POPC   C2B58604   9.318  26.181   6.604
 4423POPC   C3B58605   9.375  26.303   7.045
 4423POPC   C4B58606   9.619  26.523   7.367
 4424POPC   NC358607  30.813  21.717   5.356
 4424POPC   PO458608  31.045  21.184   5.109
 4424POPC   GL158609  30.907  21.242   5.611
 4424POPC   GL258610  30.706  21.529   5.815
 4424POPC   C1A58611  30.838  21.122   6.094
 4424POPC   D2A58612  30.790  21.357   6.511
 4424POPC   C3A58613  30.797  21.180   6.949
 4424POPC   C4A58614  30.825  21.336   7.409
 4424POPC   C1B58615  30.465  21.645   6.210
 4424POPC   C2B58616  30.443  21.734   6.660
 4424POPC   C3B58617  30.634  21.668   7.035
 4424POPC   C4B58618  30.481  21.706   7.431
 4425POPC   NC358619  15.348  37.119   5.381
 4425POPC   PO458620  14.740  36.983   5.714
 4425POPC   GL158621  15.186  36.945   5.843
 4425POPC   GL258622  15.277  36.601   5.760
 4425POPC   C1A58623  15.369  37.098   6.229
 4425POPC   D2A58624  15.321  36.927   6.651
 4425POPC   C3A58625  15.255  37.146   7.036
 4425POPC   C4A58626  15.018  37.022   7.415
 4425POPC   C1B58627  15.387  36.590   6.229
 4425POPC   C2B58628  15.327  36.417   6.673
 4425POPC   C3B58629  15.175  36.607   7.086
 4425POPC   C4B58630  15.183  36.537   7.548
 4426POPC   NC358631  37.977  34.003   5.423
 4426POPC   PO458632  37.308  33.858   5.393
 4426POPC   GL158633  37.520  33.612   5.738
 4426POPC   GL258634  37.807  33.764   5.861
 4426POPC   C1A58635  37.453  33.632   6.236
 4426POPC   D2A58636  37.682  33.655   6.650
 4426POPC   C3A58637  37.559  33.810   7.089
 4426POPC   C4A58638  37.384  33.930   7.532
 4426POPC   C1B58639  37.793  34.021   6.255
 4426POPC   C2B58640  37.687  34.182   6.678
 4426POPC   C3B58641  37.892  34.296   7.042
 4426POPC   C4B58642  37.832  34.162   7.448
 4427POPC   NC358643   8.393  38.855   5.426
 4427POPC   PO458644   8.071  39.365   5.122
 4427POPC   GL158645   8.075  39.260   5.595
 4427POPC   GL258646   7.905  38.944   5.678
 4427POPC   C1A58647   8.196  39.262   6.076
 4427POPC   D2A58648   8.254  39.455   6.497
 4427POPC   C3A58649   8.501  39.279   6.836
 4427POPC   C4A58650   8.337  39.407   7.200
 4427POPC   C1B58651   7.929  38.815   6.116
 4427POPC   C2B58652   8.146  38.913   6.512
 4427POPC   C3B58653   7.992  39.166   6.860
 4427POPC   C4B58654   7.882  39.205   7.291
 4428POPC   NC358655  40.081  39.083   5.433
 4428POPC   PO458656  40.111  38.356   5.301
 4428POPC   GL158657  40.231  38.300   5.815
 4428POPC   GL258658  40.093  38.596   6.038
 4428POPC   C1A58659  40.112  38.177   6.291
 4428POPC   D2A58660  39.736  38.329   6.493
 4428POPC   C3A58661  39.733  38.330   6.953
 4428POPC   C4A58662  40.010  38.091   7.187
 4428POPC   C1B58663  39.915  38.826   6.343
 4428POPC   C2B58664  39.966  38.725   6.741
 4428POPC   C3B58665  40.213  38.536   7.020
 4428POPC   C4B58666  40.147  38.510   7.452
 4429POPC   NC358667  36.800  26.348   5.479
 4429POPC   PO458668  37.159  25.746   5.416
 4429POPC   GL158669  36.845  25.693   5.763
 4429POPC   GL258670  36.885  26.024   5.872
 4429POPC   C1A58671  36.767  25.700   6.250
 4429POPC   D2A58672  36.893  25.941   6.655
 4429POPC   C3A58673  36.877  25.844   7.097
 4429POPC   C4A58674  36.522  25.755   7.355
 4429POPC   C1B58675  36.976  26.279   6.233
 4429POPC   C2B58676  37.206  26.342   6.640
 4429POPC   C3B58677  37.248  26.217   7.075
 4429POPC   C4B58678  37.460  26.379   7.422
 4430POPC   NC358679  27.781   8.708   5.200
 4430POPC   PO458680  27.321   9.170   5.498
 4430POPC   GL158681  27.468   8.928   5.850
 4430POPC   GL258682  27.358   8.539   5.867
 4430POPC   C1A58683  27.705   8.997   6.250
 4430POPC   D2A58684  27.616   9.266   6.573
 4430POPC   C3A58685  27.735   9.066   6.951
 4430POPC   C4A58686  28.096   8.844   7.127
 4430POPC   C1B58687  27.209   8.576   6.302
 4430POPC   C2B58688  27.395   8.784   6.651
 4430POPC   C3B58689  27.357   8.764   7.085
 4430POPC   C4B58690  27.658   8.712   7.385
 4431POPC   NC358691  38.100   8.085   5.415
 4431POPC   PO458692  37.500   8.380   5.405
 4431POPC   GL158693  37.670   8.279   5.793
 4431POPC   GL258694  37.988   8.425   5.788
 4431POPC   C1A58695  37.539   8.297   6.247
 4431POPC   D2A58696  37.375   8.209   6.687
 4431POPC   C3A58697  37.432   8.327   7.137
 4431POPC   C4A58698  37.505   8.049   7.532
 4431POPC   C1B58699  38.018   8.476   6.205
 4431POPC   C2B58700  37.867   8.395   6.646
 4431POPC   C3B58701  37.913   8.556   7.067
 4431POPC   C4B58702  37.844   8.426   7.481
 4432POPC   NC358703   7.176  30.662   5.459
 4432POPC   PO458704   7.942  30.784   5.394
 4432POPC   GL158705   7.615  30.754   5.760
 4432POPC   GL258706   7.269  30.903   5.913
 4432POPC   C1A58707   7.563  30.529   6.162
 4432POPC   D2A58708   7.763  30.569   6.568
 4432POPC   C3A58709   7.682  30.714   7.005
 4432POPC   C4A58710   7.362  30.510   7.260
 4432POPC   C1B58711   7.394  30.968   6.381
 4432POPC   C2B58712   7.220  30.878   6.813
 4432POPC   C3B58713   6.982  30.871   7.213
 4432POPC   C4B58714   7.205  30.990   7.596
 4433POPC   NC358715   3.216   9.123   5.655
 4433POPC   PO458716   2.643   8.805   5.401
 4433POPC   GL158717   2.687   8.924   5.857
 4433POPC   GL258718   2.941   8.690   5.939
 4433POPC   C1A58719   2.709   9.264   6.231
 4433POPC   D2A58720   2.929   9.396   6.641
 4433POPC   C3A58721   2.849   9.241   7.071
 4433POPC   C4A58722   2.836   9.159   7.537
 4433POPC   C1B58723   2.770   8.779   6.362
 4433POPC   C2B58724   2.543   8.901   6.735
 4433POPC   C3B58725   2.594   8.827   7.169
 4433POPC   C4B58726   3.046   8.797   7.260
 4434POPC   NC358727  14.054  17.737   5.040
 4434POPC   PO458728  14.517  17.826   5.538
 4434POPC   GL158729  14.325  17.610   5.879
 4434POPC   GL258730  13.974  17.672   5.940
 4434POPC   C1A58731  14.265  17.394   6.277
 4434POPC   D2A58732  14.406  17.150   6.624
 4434POPC   C3A58733  14.312  17.443   6.969
 4434POPC   C4A58734  14.298  17.514   7.429
 4434POPC   C1B58735  14.171  17.927   6.247
 4434POPC   C2B58736  14.360  17.806   6.582
 4434POPC   C3B58737  14.542  17.950   6.908
 4434POPC   C4B58738  14.436  17.966   7.287
 4435POPC   NC358739  14.242  39.493   5.480
 4435POPC   PO458740  14.780  39.131   5.466
 4435POPC   GL158741  14.579  39.266   5.842
 4435POPC   GL258742  14.253  39.105   5.817
 4435POPC   C1A58743  14.498  39.080   6.275
 4435POPC   D2A58744  14.550  38.815   6.645
 4435POPC   C3A58745  14.438  39.100   7.011
 4435POPC   C4A58746  14.586  39.533   7.040
 4435POPC   C1B58747  14.191  39.462   6.139
 4435POPC   C2B58748  14.322  39.547   6.555
 4435POPC   C3B58749  14.074  39.481   6.910
 4435POPC   C4B58750  13.999  39.327   7.295
 4436POPC   NC358751  18.750  30.807   5.318
 4436POPC   PO458752  19.273  31.038   5.475
 4436POPC   GL158753  19.103  30.989   5.841
 4436POPC   GL258754  18.748  30.963   5.829
 4436POPC   C1A58755  19.257  30.874   6.223
 4436POPC   D2A58756  19.036  30.747   6.556
 4436POPC   C3A58757  19.133  30.949   6.894
 4436POPC   C4A58758  19.339  30.826   7.203
 4436POPC   C1B58759  18.806  31.127   6.269
 4436POPC   C2B58760  18.711  31.152   6.722
 4436POPC   C3B58761  18.669  30.955   7.147
 4436POPC   C4B58762  18.547  30.966   7.598
 4437POPC   NC358763  44.594   9.822   5.386
 4437POPC   PO458764   0.234   9.533   5.353
 4437POPC   GL158765  44.854   9.547   5.729
 4437POPC   GL258766  44.741   9.894   5.876
 4437POPC   C1A58767  44.621   9.466   6.145
 4437POPC   D2A58768  44.353   9.531   6.525
 4437POPC   C3A58769  44.378   9.700   6.939
 4437POPC   C4A58770  44.785   9.583   7.040
 4437POPC   C1B58771  44.411   9.941   6.220
 4437POPC   C2B58772  44.191  10.081   6.627
 4437POPC   C3B58773  44.269  10.185   7.075
 4437POPC   C4B58774  44.694  10.082   7.141
 4438POPC   NC358775   1.549   4.165   5.359
 4438POPC   PO458776   0.918   4.461   5.467
 4438POPC   GL158777   1.226   4.363   5.812
 4438POPC   GL258778   1.289   4.029   5.800
 4438POPC   C1A58779   1.371   4.450   6.244
 4438POPC   D2A58780   1.066   4.472   6.606
 4438POPC   C3A58781   1.243   4.456   7.014
 4438POPC   C4A58782   1.113   4.785   7.307
 4438POPC   C1B58783   1.458   3.951   6.220
 4438POPC   C2B58784   1.371   4.062   6.622
 4438POPC   C3B58785   1.590   4.044   6.973
 4438POPC   C4B58786   1.489   4.094   7.341
 4439POPC   NC358787   8.407   2.357   5.415
 4439POPC   PO458788   8.484   3.011   5.496
 4439POPC   GL158789   8.282   2.767   5.868
 4439POPC   GL258790   8.197   2.405   5.871
 4439POPC   C1A58791   8.213   2.650   6.337
 4439POPC   D2A58792   8.026   2.437   6.727
 4439POPC   C3A58793   8.083   2.735   7.071
 4439POPC   C4A58794   8.509   2.865   7.072
 4439POPC   C1B58795   8.508   2.272   6.172
 4439POPC   C2B58796   8.550   2.368   6.646
 4439POPC   C3B58797   8.402   2.340   7.071
 4439POPC   C4B58798   7.968   2.262   7.233
 4440POPC   NC358799  17.198   1.060   5.584
 4440POPC   PO458800  17.519   0.469   5.269
 4440POPC   GL158801  17.801   0.370   5.596
 4440POPC   GL258802  17.559   0.544   5.784
 4440POPC   C1A58803  17.926   0.264   6.033
 4440POPC   D2A58804  17.672   0.264   6.382
 4440POPC   C3A58805  17.791   0.331   6.787
 4440POPC   C4A58806  17.650   0.327   7.171
 4440POPC   C1B58807  17.357   0.601   6.149
 4440POPC   C2B58808  17.478   0.710   6.533
 4440POPC   C3B58809  17.307   0.575   6.885
 4440POPC   C4B58810  17.342   0.720   7.286
 4441POPC   NC358811  41.871  12.671   5.406
 4441POPC   PO458812  41.483  13.222   5.424
 4441POPC   GL158813  41.542  12.913   5.755
 4441POPC   GL258814  41.298  12.688   5.836
 4441POPC   C1A58815  41.567  12.950   6.207
 4441POPC   D2A58816  41.872  12.998   6.528
 4441POPC   C3A58817  41.685  12.877   6.881
 4441POPC   C4A58818  41.605  12.992   7.285
 4441POPC   C1B58819  41.359  12.460   6.187
 4441POPC   C2B58820  41.302  12.583   6.596
 4441POPC   C3B58821  41.415  12.439   6.976
 4441POPC   C4B58822  41.819  12.455   7.126
 4442POPC   NC358823  40.374   5.618   4.920
 4442POPC   PO458824  39.876   5.607   5.318
 4442POPC   GL158825  39.782   5.806   5.751
 4442POPC   GL258826  39.705   6.188   5.707
 4442POPC   C1A58827  40.054   5.812   6.119
 4442POPC   D2A58828  40.149   5.919   6.532
 4442POPC   C3A58829  39.983   5.706   6.878
 4442POPC   C4A58830  39.947   5.929   7.226
 4442POPC   C1B58831  39.626   6.108   6.156
 4442POPC   C2B58832  39.616   5.813   6.508
 4442POPC   C3B58833  39.512   5.959   6.926
 4442POPC   C4B58834  39.556   6.323   7.190
 4443POPC   NC358835  14.331  16.239   5.349
 4443POPC   PO458836  13.995  15.686   5.439
 4443POPC   GL158837  14.230  15.981   5.765
 4443POPC   GL258838  14.425  15.790   5.973
 4443POPC   C1A58839  14.408  16.243   6.160
 4443POPC   D2A58840  14.593  16.121   6.568
 4443POPC   C3A58841  14.424  16.177   6.968
 4443POPC   C4A58842  14.632  16.040   7.318
 4443POPC   C1B58843  14.063  15.869   6.219
 4443POPC   C2B58844  14.113  15.987   6.612
 4443POPC   C3B58845  14.360  15.693   6.860
 4443POPC   C4B58846  14.304  15.507   7.255
 4444POPC   NC358847  40.816  30.584   5.480
 4444POPC   PO458848  40.754  31.241   5.540
 4444POPC   GL158849  40.582  30.847   5.864
 4444POPC   GL258850  40.714  30.462   5.946
 4444POPC   C1A58851  40.487  30.700   6.320
 4444POPC   D2A58852  40.455  30.418   6.671
 4444POPC   C3A58853  40.661  30.463   7.062
 4444POPC   C4A58854  40.818  30.829   7.245
 4444POPC   C1B58855  40.861  30.240   6.345
 4444POPC   C2B58856  40.971  30.120   6.804
 4444POPC   C3B58857  41.082  30.197   7.216
 4444POPC   C4B58858  40.918  30.410   7.535
 4445POPC   NC358859  31.407  41.268   5.297
 4445POPC   PO458860  32.037  41.546   5.369
 4445POPC   GL158861  31.636  41.591   5.634
 4445POPC   GL258862  31.349  41.850   5.653
 4445POPC   C1A58863  31.624  41.473   6.071
 4445POPC   D2A58864  31.924  41.519   6.429
 4445POPC   C3A58865  31.771  41.410   6.835
 4445POPC   C4A58866  31.642  41.314   7.245
 4445POPC   C1B58867  31.323  41.878   6.122
 4445POPC   C2B58868  31.411  41.649   6.517
 4445POPC   C3B58869  31.346  41.631   6.978
 4445POPC   C4B58870  31.579  41.890   7.274
 4446POPC   NC358871  42.684  33.117   5.591
 4446POPC   PO458872  42.085  32.893   5.334
 4446POPC   GL158873  42.284  32.794   5.756
 4446POPC   GL258874  42.324  33.094   5.967
 4446POPC   C1A58875  42.157  32.653   6.189
 4446POPC   D2A58876  42.265  32.926   6.554
 4446POPC   C3A58877  42.183  32.764   6.966
 4446POPC   C4A58878  42.312  32.892   7.377
 4446POPC   C1B58879  42.624  32.822   6.200
 4446POPC   C2B58880  42.778  32.884   6.646
 4446POPC   C3B58881  42.627  33.096   7.032
 4446POPC   C4B58882  42.561  33.338   7.449
 4447POPC   NC358883  40.580  12.356   5.497
 4447POPC   PO458884  40.807  11.747   5.390
 4447POPC   GL158885  40.825  11.963   5.764
 4447POPC   GL258886  41.057  12.253   5.709
 4447POPC   C1A58887  40.692  11.916   6.187
 4447POPC   D2A58888  40.731  11.740   6.591
 4447POPC   C3A58889  40.617  12.029   6.901
 4447POPC   C4A58890  40.612  12.061   7.343
 4447POPC   C1B58891  40.858  12.391   6.105
 4447POPC   C2B58892  40.680  12.422   6.538
 4447POPC   C3B58893  40.907  12.443   6.906
 4447POPC   C4B58894  40.891  12.505   7.337
 4448POPC   NC358895  16.606  39.655   5.391
 4448POPC   PO458896  16.987  40.277   5.472
 4448POPC   GL158897  16.798  40.010   5.800
 4448POPC   GL258898  16.438  39.923   5.792
 4448POPC   C1A58899  16.729  39.808   6.212
 4448POPC   D2A58900  16.481  39.794   6.593
 4448POPC   C3A58901  16.655  39.818   7.009
 4448POPC   C4A58902  16.569  39.607   7.442
 4448POPC   C1B58903  16.209  40.028   6.168
 4448POPC   C2B58904  16.245  40.235   6.543
 4448POPC   C3B58905  16.204  40.108   6.920
 4448POPC   C4B58906  16.223  39.905   7.260
 4449POPC   NC358907  11.910  14.995   5.557
 4449POPC   PO458908  12.256  14.448   5.165
 4449POPC   GL158909  12.197  14.497   5.619
 4449POPC   GL258910  11.886  14.395   5.834
 4449POPC   C1A58911  12.343  14.426   6.058
 4449POPC   D2A58912  12.026  14.560   6.332
 4449POPC   C3A58913  12.002  14.506   6.736
 4449POPC   C4A58914  12.149  14.393   7.098
 4449POPC   C1B58915  11.839  14.100   6.247
 4449POPC   C2B58916  11.862  13.996   6.735
 4449POPC   C3B58917  11.840  13.989   7.222
 4449POPC   C4B58918  11.785  13.915   7.645
 4450POPC   NC358919   4.608  28.834   5.433
 4450POPC   PO458920   4.022  29.196   5.427
 4450POPC   GL158921   4.199  29.021   5.792
 4450POPC   GL258922   4.528  29.133   5.845
 4450POPC   C1A58923   4.048  28.950   6.221
 4450POPC   D2A58924   3.898  29.089   6.591
 4450POPC   C3A58925   4.123  29.095   6.974
 4450POPC   C4A58926   4.083  29.421   7.273
 4450POPC   C1B58927   4.544  28.924   6.207
 4450POPC   C2B58928   4.451  29.124   6.577
 4450POPC   C3B58929   4.623  29.263   6.967
 4450POPC   C4B58930   4.799  29.027   7.292
 4451POPC   NC358931  29.624  23.546   5.342
 4451POPC   PO458932  30.206  23.850   5.187
 4451POPC   GL158933  29.953  23.773   5.682
 4451POPC   GL258934  30.071  23.555   5.907
 4451POPC   C1A58935  29.822  23.961   6.135
 4451POPC   D2A58936  29.635  23.794   6.566
 4451POPC   C3A58937  29.682  24.023   6.988
 4451POPC   C4A58938  30.041  24.002   7.287
 4451POPC   C1B58939  29.722  23.456   6.155
 4451POPC   C2B58940  29.590  23.269   6.519
 4451POPC   C3B58941  29.542  23.404   6.904
 4451POPC   C4B58942  29.790  23.567   7.190
 4452POPC   NC358943  21.548  42.572   5.480
 4452POPC   PO458944  21.120  42.173   5.206
 4452POPC   GL158945  21.125  42.238   5.672
 4452POPC   GL258946  21.439  42.166   5.839
 4452POPC   C1A58947  21.071  42.467   6.072
 4452POPC   D2A58948  20.988  42.453   6.525
 4452POPC   C3A58949  21.353  42.322   6.764
 4452POPC   C4A58950  21.569  42.512   7.117
 4452POPC   C1B58951  21.596  42.436   6.195
 4452POPC   C2B58952  21.822  42.403   6.588
 4452POPC   C3B58953  21.900  42.037   6.826
 4452POPC   C4B58954  21.624  41.957   7.138
 4453POPC   NC358955  35.030  44.039   5.515
 4453POPC   PO458956  35.706  43.997   5.451
 4453POPC   GL158957  35.571  43.709   5.800
 4453POPC   GL258958  35.197  43.653   5.817
 4453POPC   C1A58959  35.473  43.750   6.252
 4453POPC   D2A58960  35.331  43.607   6.664
 4453POPC   C3A58961  35.247  43.976   6.936
 4453POPC   C4A58962  35.142  44.226   7.293
 4453POPC   C1B58963  34.974  43.506   6.193
 4453POPC   C2B58964  34.792  43.599   6.608
 4453POPC   C3B58965  34.950  43.585   7.023
 4453POPC   C4B58966  34.985  43.687   7.503
 4454POPC   NC358967   4.553  15.349   5.455
 4454POPC   PO458968   3.920  15.160   5.459
 4454POPC   GL158969   4.176  15.143   5.793
 4454POPC   GL258970   4.175  15.508   5.824
 4454POPC   C1A58971   4.442  15.170   6.175
 4454POPC   D2A58972   4.352  15.347   6.602
 4454POPC   C3A58973   4.503  15.172   6.978
 4454POPC   C4A58974   4.376  14.911   7.312
 4454POPC   C1B58975   4.277  15.670   6.223
 4454POPC   C2B58976   4.190  15.872   6.635
 4454POPC   C3B58977   4.155  15.714   7.062
 4454POPC   C4B58978   4.278  15.410   7.389
 4455POPC   NC358979   2.086  21.831   5.370
 4455POPC   PO458980   2.071  22.499   5.328
 4455POPC   GL158981   2.133  22.318   5.724
 4455POPC   GL258982   1.902  22.068   5.777
 4455POPC   C1A58983   2.219  22.351   6.180
 4455POPC   D2A58984   1.980  22.413   6.596
 4455POPC   C3A58985   2.171  22.239   6.979
 4455POPC   C4A58986   2.087  21.890   7.278
 4455POPC   C1B58987   1.732  22.206   6.155
 4455POPC   C2B58988   1.711  21.975   6.514
 4455POPC   C3B58989   1.728  22.011   6.918
 4455POPC   C4B58990   1.538  21.822   7.257
 4456POPC   NC358991  27.755  19.606   5.368
 4456POPC   PO458992  27.442  20.241   5.468
 4456POPC   GL158993  27.540  19.932   5.778
 4456POPC   GL258994  27.882  19.825   5.837
 4456POPC   C1A58995  27.576  20.059   6.216
 4456POPC   D2A58996  27.393  20.109   6.608
 4456POPC   C3A58997  27.576  19.976   6.973
 4456POPC   C4A58998  27.453  19.790   7.337
 4456POPC   C1B58999  27.797  19.608   6.212
 4456POPC   C2B59000  27.622  19.600   6.619
 4456POPC   C3B59001  27.817  19.526   7.032
 4456POPC   C4B59002  27.968  19.818   7.329
 4457POPC   NC359003   4.647  32.534   5.630
 4457POPC   PO459004   4.003  32.541   5.371
 4457POPC   GL159005   4.123  32.412   5.835
 4457POPC   GL259006   4.446  32.203   5.962
 4457POPC   C1A59007   4.045  32.224   6.258
 4457POPC   D2A59008   4.241  32.099   6.643
 4457POPC   C3A59009   4.139  32.285   7.046
 4457POPC   C4A59010   4.081  32.070   7.410
 4457POPC   C1B59011   4.576  32.367   6.331
 4457POPC   C2B59012   4.750  32.212   6.685
 4457POPC   C3B59013   4.616  32.121   7.081
 4457POPC   C4B59014   4.569  32.438   7.433
 4458POPC   NC359015   3.837  37.324   5.082
 4458POPC   PO459016   3.278  37.015   5.341
 4458POPC   GL159017   3.261  36.834   5.764
 4458POPC   GL259018   3.543  37.027   5.855
 4458POPC   C1A59019   3.375  36.702   6.222
 4458POPC   D2A59020   3.481  36.878   6.606
 4458POPC   C3A59021   3.371  36.738   6.975
 4458POPC   C4A59022   3.376  36.944   7.345
 4458POPC   C1B59023   3.781  37.063   6.242
 4458POPC   C2B59024   3.786  37.282   6.644
 4458POPC   C3B59025   3.791  37.114   7.076
 4458POPC   C4B59026   3.889  36.974   7.557
 4459POPC   NC359027  12.622  35.727   5.605
 4459POPC   PO459028  12.664  35.121   5.424
 4459POPC   GL159029  12.942  35.356   5.792
 4459POPC   GL259030  12.986  35.732   5.944
 4459POPC   C1A59031  12.990  35.383   6.276
 4459POPC   D2A59032  12.622  35.362   6.535
 4459POPC   C3A59033  12.677  35.142   6.925
 4459POPC   C4A59034  12.949  35.187   7.278
 4459POPC   C1B59035  12.584  35.802   6.234
 4459POPC   C2B59036  12.505  35.872   6.660
 4459POPC   C3B59037  12.735  35.647   6.968
 4459POPC   C4B59038  12.613  35.556   7.366
 4460POPC   NC359039  13.321  43.178   5.755
 4460POPC   PO459040  13.783  43.054   5.322
 4460POPC   GL159041  13.812  43.117   5.815
 4460POPC   GL259042  13.692  42.840   6.018
 4460POPC   C1A59043  13.869  43.243   6.302
 4460POPC   D2A59044  13.903  42.941   6.691
 4460POPC   C3A59045  14.006  43.046   7.129
 4460POPC   C4A59046  13.864  43.136   7.539
 4460POPC   C1B59047  13.448  42.952   6.412
 4460POPC   C2B59048  13.320  43.012   6.861
 4460POPC   C3B59049  13.443  43.029   7.290
 4460POPC   C4B59050  13.301  42.983   7.741
 4461POPC   NC359051   2.017  25.167   5.148
 4461POPC   PO459052   2.363  25.717   5.225
 4461POPC   GL159053   2.218  25.417   5.596
 4461POPC   GL259054   1.875  25.452   5.706
 4461POPC   C1A59055   2.122  25.179   6.048
 4461POPC   D2A59056   2.041  25.331   6.460
 4461POPC   C3A59057   2.278  25.377   6.856
 4461POPC   C4A59058   2.090  25.255   7.268
 4461POPC   C1B59059   1.753  25.646   6.114
 4461POPC   C2B59060   1.865  25.778   6.571
 4461POPC   C3B59061   1.858  25.685   7.029
 4461POPC   C4B59062   1.496  25.716   7.322
 4462POPC   NC359063  22.107  33.248   5.409
 4462POPC   PO459064  21.563  32.908   5.519
 4462POPC   GL159065  21.976  32.885   5.759
 4462POPC   GL259066  21.935  33.209   5.884
 4462POPC   C1A59067  22.378  33.034   6.052
 4462POPC   D2A59068  22.395  33.235   6.499
 4462POPC   C3A59069  22.385  33.120   6.957
 4462POPC   C4A59070  22.534  33.328   7.334
 4462POPC   C1B59071  21.946  33.053   6.320
 4462POPC   C2B59072  21.927  33.320   6.689
 4462POPC   C3B59073  21.829  33.160   7.081
 4462POPC   C4B59074  21.942  32.749   7.164
 4463POPC   NC359075  37.594  15.096   5.091
 4463POPC   PO459076  37.247  15.554   5.571
 4463POPC   GL159077  37.451  15.389   5.974
 4463POPC   GL259078  37.716  15.120   5.918
 4463POPC   C1A59079  37.677  15.287   6.396
 4463POPC   D2A59080  37.964  15.170   6.715
 4463POPC   C3A59081  37.879  15.325   7.141
 4463POPC   C4A59082  37.784  15.126   7.546
 4463POPC   C1B59083  37.361  14.933   6.189
 4463POPC   C2B59084  37.411  14.873   6.613
 4463POPC   C3B59085  37.477  15.071   6.986
 4463POPC   C4B59086  37.365  14.892   7.369
 4464POPC   NC359087  10.019  24.759   5.052
 4464POPC   PO459088  10.499  24.516   5.407
 4464POPC   GL159089  10.412  24.622   5.856
 4464POPC   GL259090  10.087  24.800   5.932
 4464POPC   C1A59091  10.343  24.489   6.278
 4464POPC   D2A59092  10.440  24.286   6.669
 4464POPC   C3A59093  10.577  24.479   7.039
 4464POPC   C4A59094  10.872  24.334   7.317
 4464POPC   C1B59095   9.949  24.829   6.376
 4464POPC   C2B59096  10.022  24.913   6.833
 4464POPC   C3B59097  10.181  24.784   7.283
 4464POPC   C4B59098  10.284  24.769   7.801
 4465POPC   NC359099  36.077  30.875   5.176
 4465POPC   PO459100  35.408  30.843   5.326
 4465POPC   GL159101  35.376  30.591   5.734
 4465POPC   GL259102  35.626  30.311   5.815
 4465POPC   C1A59103  35.328  30.774   6.167
 4465POPC   D2A59104  35.540  30.804   6.576
 4465POPC   C3A59105  35.268  30.945   6.911
 4465POPC   C4A59106  35.175  30.783   7.283
 4465POPC   C1B59107  35.388  30.281   6.172
 4465POPC   C2B59108  35.453  30.251   6.600
 4465POPC   C3B59109  35.476  30.445   7.017
 4465POPC   C4B59110  35.617  30.575   7.443
 4466POPC   NC359111  30.757  39.478   5.448
 4466POPC   PO459112  30.488  38.904   5.656
 4466POPC   GL159113  30.572  39.272   5.880
 4466POPC   GL259114  30.361  39.546   5.761
 4466POPC   C1A59115  30.787  39.312   6.278
 4466POPC   D2A59116  30.746  39.144   6.687
 4466POPC   C3A59117  30.924  39.330   7.057
 4466POPC   C4A59118  30.947  38.987   7.347
 4466POPC   C1B59119  30.251  39.518   6.180
 4466POPC   C2B59120  30.424  39.536   6.591
 4466POPC   C3B59121  30.385  39.345   7.009
 4466POPC   C4B59122  30.394  39.577   7.414
 4467POPC   NC359123   0.589  39.712   5.504
 4467POPC   PO459124   0.097  40.210   5.396
 4467POPC   GL159125   0.272  40.043   5.810
 4467POPC   GL259126   0.631  40.036   5.883
 4467POPC   C1A59127   0.294  39.849   6.245
 4467POPC   D2A59128   0.406  39.638   6.654
 4467POPC   C3A59129   0.443  39.940   6.990
 4467POPC   C4A59130   0.241  40.114   7.349
 4467POPC   C1B59131   0.910  40.284   6.120
 4467POPC   C2B59132   1.045  40.286   6.570
 4467POPC   C3B59133   0.890  40.213   7.001
 4467POPC   C4B59134   0.821  39.946   7.369
 4468POPC   NC359135   2.229   7.959   5.468
 4468POPC   PO459136   1.757   8.342   5.381
 4468POPC   GL159137   1.810   8.033   5.768
 4468POPC   GL259138   2.029   8.243   5.891
 4468POPC   C1A59139   1.905   7.903   6.234
 4468POPC   D2A59140   2.162   8.065   6.581
 4468POPC   C3A59141   1.960   8.033   6.992
 4468POPC   C4A59142   1.865   8.238   7.394
 4468POPC   C1B59143   1.912   8.494   6.265
 4468POPC   C2B59144   2.078   8.604   6.674
 4468POPC   C3B59145   2.297   8.414   7.040
 4468POPC   C4B59146   2.318   8.504   7.475
 4469POPC   NC359147  26.870  38.413   5.321
 4469POPC   PO459148  26.336  38.554   5.663
 4469POPC   GL159149  26.756  38.430   5.820
 4469POPC   GL259150  26.896  38.093   5.699
 4469POPC   C1A59151  26.952  38.549   6.212
 4469POPC   D2A59152  26.727  38.499   6.596
 4469POPC   C3A59153  26.789  38.667   6.976
 4469POPC   C4A59154  26.448  38.846   7.246
 4469POPC   C1B59155  26.918  38.009   6.109
 4469POPC   C2B59156  26.825  38.015   6.524
 4469POPC   C3B59157  27.085  38.149   6.842
 4469POPC   C4B59158  26.943  38.246   7.231
 4470POPC   NC359159  25.021  16.962   5.447
 4470POPC   PO459160  25.491  16.539   5.381
 4470POPC   GL159161  25.458  16.777   5.741
 4470POPC   GL259162  25.204  16.519   5.823
 4470POPC   C1A59163  25.276  16.926   6.121
 4470POPC   D2A59164  25.048  16.901   6.525
 4470POPC   C3A59165  25.364  16.897   6.846
 4470POPC   C4A59166  25.347  16.979   7.268
 4470POPC   C1B59167  24.993  16.488   6.221
 4470POPC   C2B59168  25.071  16.388   6.643
 4470POPC   C3B59169  25.115  16.450   7.053
 4470POPC   C4B59170  24.939  16.591   7.416
 4471POPC   NC359171  41.251   4.121   5.598
 4471POPC   PO459172  41.629   4.597   5.214
 4471POPC   GL159173  41.595   4.484   5.714
 4471POPC   GL259174  41.794   4.758   5.862
 4471POPC   C1A59175  41.361   4.340   6.189
 4471POPC   D2A59176  41.243   4.099   6.616
 4471POPC   C3A59177  41.495   4.174   7.029
 4471POPC   C4A59178  41.386   4.513   7.308
 4471POPC   C1B59179  41.843   4.454   6.217
 4471POPC   C2B59180  41.745   4.335   6.634
 4471POPC   C3B59181  41.877   4.509   7.070
 4471POPC   C4B59182  41.833   4.562   7.536
 4472POPC   NC359183  36.941   6.207   5.037
 4472POPC   PO459184  37.166   6.730   5.219
 4472POPC   GL159185  37.244   6.593   5.687
 4472POPC   GL259186  36.978   6.696   5.918
 4472POPC   C1A59187  37.338   6.392   6.123
 4472POPC   D2A59188  37.095   6.298   6.526
 4472POPC   C3A59189  37.197   6.313   7.007
 4472POPC   C4A59190  36.871   6.416   7.328
 4472POPC   C1B59191  36.746   6.615   6.325
 4472POPC   C2B59192  36.757   6.589   6.805
 4472POPC   C3B59193  36.808   6.924   7.125
 4472POPC   C4B59194  37.033   7.285   7.356
 4473POPC   NC359195  38.367  43.483   5.286
 4473POPC   PO459196  38.728  44.039   5.338
 4473POPC   GL159197  38.469  43.955   5.723
 4473POPC   GL259198  38.610  44.251   5.877
 4473POPC   C1A59199  38.521  43.699   6.145
 4473POPC   D2A59200  38.535  43.441   6.560
 4473POPC   C3A59201  38.411  43.677   6.926
 4473POPC   C4A59202  38.409  43.879   7.341
 4473POPC   C1B59203  38.737  44.176   6.303
 4473POPC   C2B59204  38.831  43.872   6.654
 4473POPC   C3B59205  38.806  44.034   7.058
 4473POPC   C4B59206  38.570  44.392   7.225
 4474POPC   NC359207   0.158  19.113   5.398
 4474POPC   PO459208   0.722  18.894   5.488
 4474POPC   GL159209   0.643  19.161   5.897
 4474POPC   GL259210   0.352  19.319   5.851
 4474POPC   C1A59211   0.578  19.127   6.390
 4474POPC   D2A59212   0.738  18.916   6.792
 4474POPC   C3A59213   0.468  18.688   7.130
 4474POPC   C4A59214   0.627  18.716   7.607
 4474POPC   C1B59215   0.321  19.540   6.237
 4474POPC   C2B59216   0.198  19.473   6.670
 4474POPC   C3B59217   0.322  19.162   6.968
 4474POPC   C4B59218   0.630  19.136   7.303
 4475POPC   NC359219  34.901   1.747   5.460
 4475POPC   PO459220  34.468   2.234   5.383
 4475POPC   GL159221  34.589   2.086   5.768
 4475POPC   GL259222  34.450   1.772   5.727
 4475POPC   C1A59223  34.454   2.186   6.208
 4475POPC   D2A59224  34.162   2.311   6.552
 4475POPC   C3A59225  34.361   2.278   6.943
 4475POPC   C4A59226  34.557   2.041   7.249
 4475POPC   C1B59227  34.536   1.682   6.163
 4475POPC   C2B59228  34.366   1.828   6.583
 4475POPC   C3B59229  34.031   1.823   6.843
 4475POPC   C4B59230  34.079   1.837   7.260
 4476POPC   NC359231  21.878  31.684   5.238
 4476POPC   PO459232  22.472  31.461   5.271
 4476POPC   GL159233  22.327  31.358   5.690
 4476POPC   GL259234  22.007  31.561   5.745
 4476POPC   C1A59235  22.270  31.337   6.166
 4476POPC   D2A59236  22.310  31.678   6.469
 4476POPC   C3A59237  22.347  31.573   6.909
 4476POPC   C4A59238  22.229  31.284   7.213
 4476POPC   C1B59239  21.854  31.645   6.182
 4476POPC   C2B59240  21.872  31.446   6.608
 4476POPC   C3B59241  21.732  31.481   7.029
 4476POPC   C4B59242  21.641  31.785   7.368
 4477POPC   NC359243   7.836  28.496   4.968
 4477POPC   PO459244   8.232  28.192   5.473
 4477POPC   GL159245   8.176  28.482   5.767
 4477POPC   GL259246   8.123  28.192   5.977
 4477POPC   C1A59247   7.972  28.635   6.146
 4477POPC   D2A59248   8.104  28.428   6.528
 4477POPC   C3A59249   8.127  28.665   6.895
 4477POPC   C4A59250   8.057  28.584   7.314
 4477POPC   C1B59251   8.401  28.003   6.297
 4477POPC   C2B59252   8.435  28.080   6.724
 4477POPC   C3B59253   8.408  28.286   7.120
 4477POPC   C4B59254   8.334  28.199   7.597
 4478POPC   NC359255  43.346  10.052   5.415
 4478POPC   PO459256  43.458   9.451   5.531
 4478POPC   GL159257  43.349   9.771   5.845
 4478POPC   GL259258  43.005   9.922   5.776
 4478POPC   C1A59259  43.508   9.715   6.255
 4478POPC   D2A59260  43.416   9.455   6.611
 4478POPC   C3A59261  43.414   9.652   7.007
 4478POPC   C4A59262  43.140   9.748   7.334
 4478POPC   C1B59263  42.829   9.775   6.144
 4478POPC   C2B59264  42.784   9.645   6.552
 4478POPC   C3B59265  42.789   9.835   6.928
 4478POPC   C4B59266  42.736  10.046   7.291
 4479POPC   NC359267   7.108  37.811   5.482
 4479POPC   PO459268   7.768  37.575   5.508
 4479POPC   GL159269   7.479  37.427   5.859
 4479POPC   GL259270   7.371  37.735   5.910
 4479POPC   C1A59271   7.382  37.438   6.337
 4479POPC   D2A59272   7.465  37.485   6.801
 4479POPC   C3A59273   7.618  37.847   7.007
 4479POPC   C4A59274   7.744  37.858   7.456
 4479POPC   C1B59275   7.132  37.919   6.199
 4479POPC   C2B59276   7.115  37.795   6.582
 4479POPC   C3B59277   7.086  37.796   6.984
 4479POPC   C4B59278   7.222  38.070   7.252
 4480POPC   NC359279  39.695  29.189   5.648
 4480POPC   PO459280  39.185  29.357   5.230
 4480POPC   GL159281  39.179  29.241   5.704
 4480POPC   GL259282  38.850  29.309   5.852
 4480POPC   C1A59283  39.309  29.320   6.176
 4480POPC   D2A59284  39.242  29.440   6.636
 4480POPC   C3A59285  39.315  29.152   7.002
 4480POPC   C4A59286  39.117  28.825   7.247
 4480POPC   C1B59287  38.830  29.495   6.273
 4480POPC   C2B59288  38.731  29.401   6.703
 4480POPC   C3B59289  38.823  29.254   7.130
 4480POPC   C4B59290  38.680  29.450   7.526
 4481POPC   NC359291   1.328  12.343   5.233
 4481POPC   PO459292   1.342  13.033   5.485
 4481POPC   GL159293   1.281  12.972   5.902
 4481POPC   GL259294   1.340  12.605   5.917
 4481POPC   C1A59295   1.024  13.068   6.263
 4481POPC   D2A59296   0.829  12.761   6.601
 4481POPC   C3A59297   0.995  12.609   7.021
 4481POPC   C4A59298   0.961  12.840   7.446
 4481POPC   C1B59299   1.270  12.635   6.374
 4481POPC   C2B59300   1.285  12.988   6.689
 4481POPC   C3B59301   1.362  12.944   7.097
 4481POPC   C4B59302   1.542  12.524   7.134
 4482POPC   NC359303  10.457  37.256   5.390
 4482POPC   PO459304  10.923  36.709   5.435
 4482POPC   GL159305  10.542  36.705   5.714
 4482POPC   GL259306  10.706  36.537   5.986
 4482POPC   C1A59307  10.306  36.819   6.130
 4482POPC   D2A59308  10.445  37.003   6.523
 4482POPC   C3A59309  10.407  36.776   6.903
 4482POPC   C4A59310  10.605  36.789   7.271
 4482POPC   C1B59311  10.777  37.029   6.086
 4482POPC   C2B59312  10.895  37.251   6.497
 4482POPC   C3B59313  10.839  37.110   6.914
 4482POPC   C4B59314  10.886  37.203   7.370
 4483POPC   NC359315  31.210  22.886   5.411
 4483POPC   PO459316  31.857  23.041   5.363
 4483POPC   GL159317  31.641  22.832   5.720
 4483POPC   GL259318  31.638  23.166   5.883
 4483POPC   C1A59319  31.412  22.782   6.142
 4483POPC   D2A59320  31.461  23.114   6.494
 4483POPC   C3A59321  31.401  22.968   6.943
 4483POPC   C4A59322  31.477  23.096   7.367
 4483POPC   C1B59323  31.850  23.426   6.219
 4483POPC   C2B59324  31.788  23.526   6.658
 4483POPC   C3B59325  31.794  23.324   7.045
 4483POPC   C4B59326  32.002  23.273   7.440
 4484POPC   NC359327   0.441  43.980   5.298
 4484POPC   PO459328  44.886  44.260   5.434
 4484POPC   GL159329   0.256  44.167   5.746
 4484POPC   GL259330   0.366  43.814   5.774
 4484POPC   C1A59331   0.547  44.143   6.139
 4484POPC   D2A59332   0.501  43.876   6.538
 4484POPC   C3A59333   0.563  44.017   6.946
 4484POPC   C4A59334   0.339  44.024   7.309
 4484POPC   C1B59335   0.477  43.590   6.124
 4484POPC   C2B59336   0.798  43.436   6.419
 4484POPC   C3B59337   0.848  43.549   6.854
 4484POPC   C4B59338   0.506  43.539   7.168
 4485POPC   NC359339   3.489  41.999   5.605
 4485POPC   PO459340   3.906  42.462   5.425
 4485POPC   GL159341   3.672  42.513   5.822
 4485POPC   GL259342   3.313  42.514   5.848
 4485POPC   C1A59343   3.690  42.594   6.296
 4485POPC   D2A59344   3.611  42.796   6.747
 4485POPC   C3A59345   3.497  42.484   7.084
 4485POPC   C4A59346   3.651  42.073   7.228
 4485POPC   C1B59347   3.255  42.246   6.231
 4485POPC   C2B59348   3.356  42.031   6.630
 4485POPC   C3B59349   3.171  42.069   7.039
 4485POPC   C4B59350   2.976  42.435   7.198
 4486POPC   NC359351  10.227  13.909   5.394
 4486POPC   PO459352  10.503  13.274   5.494
 4486POPC   GL159353  10.601  13.631   5.818
 4486POPC   GL259354  10.370  13.932   5.856
 4486POPC   C1A59355  10.795  13.537   6.243
 4486POPC   D2A59356  10.715  13.248   6.627
 4486POPC   C3A59357  10.621  13.439   7.051
 4486POPC   C4A59358  10.621  13.344   7.542
 4486POPC   C1B59359  10.239  13.687   6.175
 4486POPC   C2B59360  10.417  13.669   6.571
 4486POPC   C3B59361  10.258  13.772   6.928
 4486POPC   C4B59362  10.210  13.598   7.314
 4487POPC   NC359363  30.303  26.161   5.546
 4487POPC   PO459364  30.999  26.097   5.434
 4487POPC   GL159365  30.736  26.055   5.808
 4487POPC   GL259366  30.736  25.717   5.905
 4487POPC   C1A59367  30.574  26.280   6.186
 4487POPC   D2A59368  30.734  26.345   6.582
 4487POPC   C3A59369  30.586  26.273   6.982
 4487POPC   C4A59370  30.775  26.202   7.356
 4487POPC   C1B59371  30.406  25.793   6.188
 4487POPC   C2B59372  30.582  25.693   6.578
 4487POPC   C3B59373  30.399  25.770   6.938
 4487POPC   C4B59374  30.342  25.900   7.319
 4488POPC   NC359375  11.714  10.495   5.144
 4488POPC   PO459376  11.157  10.347   5.489
 4488POPC   GL159377  11.141  10.728   5.717
 4488POPC   GL259378  10.766  10.764   5.753
 4488POPC   C1A59379  11.362  10.768   6.115
 4488POPC   D2A59380  11.579  10.528   6.473
 4488POPC   C3A59381  11.603  10.564   6.924
 4488POPC   C4A59382  11.498  10.287   7.260
 4488POPC   C1B59383  10.902  10.573   6.148
 4488POPC   C2B59384  11.083  10.685   6.560
 4488POPC   C3B59385  11.137  10.409   6.898
 4488POPC   C4B59386  10.970  10.412   7.276
 4489POPC   NC359387  22.091  15.875   5.403
 4489POPC   PO459388  22.426  16.388   5.584
 4489POPC   GL159389  22.406  15.951   5.812
 4489POPC   GL259390  22.075  15.913   5.949
 4489POPC   C1A59391  22.408  15.655   6.220
 4489POPC   D2A59392  22.251  15.620   6.675
 4489POPC   C3A59393  22.081  15.876   7.011
 4489POPC   C4A59394  22.228  15.910   7.437
 4489POPC   C1B59395  22.392  16.157   6.272
 4489POPC   C2B59396  22.435  16.394   6.668
 4489POPC   C3B59397  22.151  16.405   7.034
 4489POPC   C4B59398  21.835  16.221   7.334
 4490POPC   NC359399  13.497  41.080   5.278
 4490POPC   PO459400  13.833  40.597   5.558
 4490POPC   GL159401  13.650  40.815   5.868
 4490POPC   GL259402  13.337  40.950   5.800
 4490POPC   C1A59403  13.678  40.933   6.289
 4490POPC   D2A59404  13.865  40.953   6.708
 4490POPC   C3A59405  13.526  40.892   7.042
 4490POPC   C4A59406  13.590  40.919   7.512
 4490POPC   C1B59407  13.244  40.659   6.196
 4490POPC   C2B59408  13.082  40.482   6.631
 4490POPC   C3B59409  13.082  40.603   7.102
 4490POPC   C4B59410  13.128  40.666   7.585
 4491POPC   NC359411  33.617  20.986   5.469
 4491POPC   PO459412  33.764  21.634   5.401
 4491POPC   GL159413  33.821  21.382   5.762
 4491POPC   GL259414  33.483  21.392   5.820
 4491POPC   C1A59415  33.982  21.246   6.160
 4491POPC   D2A59416  33.950  21.078   6.539
 4491POPC   C3A59417  33.986  21.310   6.888
 4491POPC   C4A59418  33.918  21.438   7.278
 4491POPC   C1B59419  33.456  21.327   6.250
 4491POPC   C2B59420  33.475  21.197   6.702
 4491POPC   C3B59421  33.461  21.288   7.173
 4491POPC   C4B59422  33.641  21.085   7.581
 4492POPC   NC359423  42.896   7.160   5.538
 4492POPC   PO459424  43.107   7.674   5.189
 4492POPC   GL159425  43.231   7.482   5.726
 4492POPC   GL259426  42.962   7.490   5.942
 4492POPC   C1A59427  43.302   7.335   6.247
 4492POPC   D2A59428  42.970   7.362   6.619
 4492POPC   C3A59429  43.048   7.345   7.076
 4492POPC   C4A59430  43.156   7.211   7.497
 4492POPC   C1B59431  42.809   7.816   6.240
 4492POPC   C2B59432  42.669   7.780   6.682
 4492POPC   C3B59433  42.654   7.715   7.141
 4492POPC   C4B59434  42.733   7.471   7.526
 4493POPC   NC359435  20.498  13.049   5.483
 4493POPC   PO459436  20.924  12.496   5.401
 4493POPC   GL159437  20.756  12.706   5.767
 4493POPC   GL259438  20.925  13.015   5.768
 4493POPC   C1A59439  20.552  12.849   6.171
 4493POPC   D2A59440  20.299  12.888   6.560
 4493POPC   C3A59441  20.536  12.802   6.891
 4493POPC   C4A59442  20.615  12.961   7.241
 4493POPC   C1B59443  21.053  13.057   6.155
 4493POPC   C2B59444  20.898  12.899   6.552
 4493POPC   C3B59445  21.037  13.061   6.938
 4493POPC   C4B59446  21.090  13.040   7.391
 4494POPC   NC359447  19.519  41.610   5.492
 4494POPC   PO459448  19.928  41.207   5.148
 4494POPC   GL159449  19.950  41.380   5.643
 4494POPC   GL259450  19.998  41.748   5.771
 4494POPC   C1A59451  19.852  41.396   6.139
 4494POPC   D2A59452  20.035  41.678   6.523
 4494POPC   C3A59453  20.023  41.743   6.991
 4494POPC   C4A59454  19.813  41.416   7.208
 4494POPC   C1B59455  19.701  41.873   6.147
 4494POPC   C2B59456  19.508  41.611   6.456
 4494POPC   C3B59457  19.541  41.644   6.857
 4494POPC   C4B59458  19.332  41.736   7.248
 4495POPC   NC359459  13.229  12.885   5.535
 4495POPC   PO459460  12.537  12.816   5.502
 4495POPC   GL159461  12.754  12.681   5.860
 4495POPC   GL259462  12.961  12.974   5.975
 4495POPC   C1A59463  12.801  12.577   6.295
 4495POPC   D2A59464  12.554  12.665   6.666
 4495POPC   C3A59465  12.748  12.472   7.013
 4495POPC   C4A59466  12.951  12.636   7.383
 4495POPC   C1B59467  12.570  13.042   6.244
 4495POPC   C2B59468  12.535  13.186   6.694
 4495POPC   C3B59469  12.777  13.038   7.068
 4495POPC   C4B59470  12.684  13.037   7.553
 4496POPC   NC359471  15.137  33.543   5.377
 4496POPC   PO459472  15.365  32.869   5.257
 4496POPC   GL159473  15.170  32.938   5.639
 4496POPC   GL259474  15.331  33.259   5.775
 4496POPC   C1A59475  15.229  32.814   6.074
 4496POPC   D2A59476  15.196  33.087   6.424
 4496POPC   C3A59477  15.227  32.937   6.849
 4496POPC   C4A59478  15.339  33.212   7.170
 4496POPC   C1B59479  15.024  33.470   6.068
 4496POPC   C2B59480  14.770  33.400   6.460
 4496POPC   C3B59481  14.911  33.405   6.890
 4496POPC   C4B59482  15.024  33.592   7.274
 4497POPC   NC359483   3.222  10.807   5.322
 4497POPC   PO459484   2.732  10.309   5.479
 4497POPC   GL159485   2.621  10.417   5.912
 4497POPC   GL259486   2.838  10.696   5.949
 4497POPC   C1A59487   2.589  10.578   6.360
 4497POPC   D2A59488   2.774  10.733   6.733
 4497POPC   C3A59489   2.685  10.408   7.013
 4497POPC   C4A59490   2.329  10.368   7.279
 4497POPC   C1B59491   3.088  10.849   6.335
 4497POPC   C2B59492   3.325  10.867   6.720
 4497POPC   C3B59493   3.119  10.788   7.114
 4497POPC   C4B59494   2.649  10.861   7.235
 4498POPC   NC359495  34.655   2.668   5.335
 4498POPC   PO459496  34.315   3.221   5.439
 4498POPC   GL159497  34.399   2.974   5.819
 4498POPC   GL259498  34.465   2.592   5.793
 4498POPC   C1A59499  34.613   2.888   6.194
 4498POPC   D2A59500  34.605   2.575   6.499
 4498POPC   C3A59501  34.576   2.754   6.889
 4498POPC   C4A59502  34.394   2.714   7.283
 4498POPC   C1B59503  34.843   2.462   6.032
 4498POPC   C2B59504  35.080   2.394   6.427
 4498POPC   C3B59505  34.901   2.335   6.843
 4498POPC   C4B59506  34.860   2.467   7.240
 4499POPC   NC359507   1.094  42.167   5.415
 4499POPC   PO459508   1.720  42.438   5.368
 4499POPC   GL159509   1.439  42.437   5.718
 4499POPC   GL259510   1.089  42.455   5.838
 4499POPC   C1A59511   1.486  42.354   6.146
 4499POPC   D2A59512   1.453  42.021   6.426
 4499POPC   C3A59513   1.379  42.176   6.819
 4499POPC   C4A59514   1.412  42.033   7.219
 4499POPC   C1B59515   0.973  42.340   6.233
 4499POPC   C2B59516   0.928  42.430   6.654
 4499POPC   C3B59517   0.908  42.242   7.047
 4499POPC   C4B59518   0.982  42.235   7.458
 4500POPC   NC359519  25.105  24.673   5.375
 4500POPC   PO459520  25.472  24.182   5.313
 4500POPC   GL159521  25.359  24.196   5.777
 4500POPC   GL259522  25.102  24.463   5.853
 4500POPC   C1A59523  25.173  24.127   6.232
 4500POPC   D2A59524  25.070  24.350   6.662
 4500POPC   C3A59525  25.351  24.233   6.990
 4500POPC   C4A59526  25.370  24.261   7.437
 4500POPC   C1B59527  25.200  24.641   6.271
 4500POPC   C2B59528  25.364  24.791   6.666
 4500POPC   C3B59529  25.350  24.740   7.111
 4500POPC   C4B59530  25.299  25.069   7.396
 4501POPC   NC359531   7.603   0.082   5.476
 4501POPC   PO459532   7.298   0.653   5.455
 4501POPC   GL159533   7.493   0.592   5.827
 4501POPC   GL259534   7.689   0.875   5.865
 4501POPC   C1A59535   7.397   0.540   6.243
 4501POPC   D2A59536   7.073   0.496   6.521
 4501POPC   C3A59537   7.281   0.507   6.903
 4501POPC   C4A59538   7.258   0.444   7.337
 4501POPC   C1B59539   7.837   0.898   6.268
 4501POPC   C2B59540   7.621   0.823   6.648
 4501POPC   C3B59541   7.673   0.832   7.074
 4501POPC   C4B59542   7.580   0.781   7.496
 4502POPC   NC359543  10.089  41.785   5.431
 4502POPC   PO459544   9.827  41.136   5.554
 4502POPC   GL159545   9.854  41.431   5.792
 4502POPC   GL259546   9.611  41.658   5.629
 4502POPC   C1A59547   9.948  41.465   6.247
 4502POPC   D2A59548   9.949  41.624   6.693
 4502POPC   C3A59549   9.726  41.425   7.070
 4502POPC   C4A59550   9.747  41.426   7.573
 4502POPC   C1B59551   9.491  41.679   6.064
 4502POPC   C2B59552   9.371  41.775   6.501
 4502POPC   C3B59553   9.566  41.896   6.903
 4502POPC   C4B59554   9.429  41.813   7.328
 4503POPC   NC359555  40.422  31.553   5.456
 4503POPC   PO459556  39.826  31.383   5.339
 4503POPC   GL159557  39.961  31.200   5.798
 4503POPC   GL259558  39.636  31.173   5.957
 4503POPC   C1A59559  40.168  31.159   6.260
 4503POPC   D2A59560  40.107  31.445   6.674
 4503POPC   C3A59561  40.143  31.317   7.143
 4503POPC   C4A59562  40.379  31.188   7.553
 4503POPC   C1B59563  39.793  31.514   6.242
 4503POPC   C2B59564  39.675  31.760   6.626
 4503POPC   C3B59565  39.801  31.703   7.064
 4503POPC   C4B59566  39.822  31.986   7.405
 4504POPC   NC359567  16.608  25.401   5.216
 4504POPC   PO459568  17.050  25.115   5.402
 4504POPC   GL159569  16.834  25.075   5.807
 4504POPC   GL259570  17.015  25.325   5.983
 4504POPC   C1A59571  16.596  25.167   6.236
 4504POPC   D2A59572  16.723  25.366   6.660
 4504POPC   C3A59573  16.756  25.102   7.054
 4504POPC   C4A59574  16.653  24.780   7.384
 4504POPC   C1B59575  17.065  25.092   6.394
 4504POPC   C2B59576  17.209  25.230   6.796
 4504POPC   C3B59577  17.119  25.432   7.197
 4504POPC   C4B59578  16.805  25.640   7.467
 4505POPC   NC359579  30.903  17.119   5.555
 4505POPC   PO459580  30.412  16.580   5.404
 4505POPC   GL159581  30.502  16.679   5.811
 4505POPC   GL259582  30.425  17.051   5.811
 4505POPC   C1A59583  30.826  16.487   6.111
 4505POPC   D2A59584  31.027  16.659   6.490
 4505POPC   C3A59585  30.829  16.540   6.888
 4505POPC   C4A59586  30.892  16.495   7.334
 4505POPC   C1B59587  30.670  16.974   6.185
 4505POPC   C2B59588  30.490  16.708   6.482
 4505POPC   C3B59589  30.338  16.754   6.890
 4505POPC   C4B59590  30.620  16.964   7.141
 4506POPC   NC359591   5.210  31.062   5.301
 4506POPC   PO459592   4.907  30.563   5.138
 4506POPC   GL159593   4.958  30.762   5.618
 4506POPC   GL259594   4.636  30.908   5.776
 4506POPC   C1A59595   5.241  30.841   5.997
 4506POPC   D2A59596   5.267  30.628   6.414
 4506POPC   C3A59597   5.330  30.752   6.856
 4506POPC   C4A59598   5.138  30.486   7.131
 4506POPC   C1B59599   4.816  31.011   6.193
 4506POPC   C2B59600   4.959  30.998   6.614
 4506POPC   C3B59601   4.893  30.998   7.063
 4506POPC   C4B59602   5.018  30.873   7.486
 4507POPC   NC359603  30.583   7.323   5.424
 4507POPC   PO459604  30.856   7.870   5.351
 4507POPC   GL159605  30.604   7.680   5.777
 4507POPC   GL259606  30.238   7.522   5.779
 4507POPC   C1A59607  30.614   7.309   6.103
 4507POPC   D2A59608  30.745   7.236   6.569
 4507POPC   C3A59609  30.712   7.025   6.975
 4507POPC   C4A59610  30.692   7.124   7.421
 4507POPC   C1B59611  30.243   7.648   6.227
 4507POPC   C2B59612  30.399   7.631   6.665
 4507POPC   C3B59613  30.564   7.506   7.077
 4507POPC   C4B59614  30.569   7.675   7.511
 4508POPC   NC359615  32.643  13.526   5.444
 4508POPC   PO459616  31.970  13.689   5.267
 4508POPC   GL159617  32.155  13.608   5.671
 4508POPC   GL259618  31.818  13.507   5.770
 4508POPC   C1A59619  32.432  13.654   6.071
 4508POPC   D2A59620  32.345  13.587   6.539
 4508POPC   C3A59621  32.517  13.867   6.853
 4508POPC   C4A59622  32.599  13.835   7.278
 4508POPC   C1B59623  32.000  13.416   6.168
 4508POPC   C2B59624  32.012  13.187   6.568
 4508POPC   C3B59625  32.025  13.370   6.966
 4508POPC   C4B59626  32.076  13.718   7.252
 4509POPC   NC359627  33.778  29.692   5.319
 4509POPC   PO459628  33.569  30.308   5.173
 4509POPC   GL159629  33.578  30.145   5.653
 4509POPC   GL259630  33.550  29.776   5.785
 4509POPC   C1A59631  33.493  30.171   6.136
 4509POPC   D2A59632  33.562  29.985   6.558
 4509POPC   C3A59633  33.681  30.230   6.936
 4509POPC   C4A59634  33.528  30.177   7.374
 4509POPC   C1B59635  33.936  29.874   6.067
 4509POPC   C2B59636  34.072  29.889   6.530
 4509POPC   C3B59637  33.924  29.789   6.985
 4509POPC   C4B59638  33.931  29.884   7.443
 4510POPC   NC359639   6.117  43.772   5.415
 4510POPC   PO459640   5.534  44.037   5.515
 4510POPC   GL159641   5.758  43.770   5.795
 4510POPC   GL259642   6.031  43.984   5.869
 4510POPC   C1A59643   5.899  43.674   6.240
 4510POPC   D2A59644   5.773  43.593   6.668
 4510POPC   C3A59645   6.085  43.671   6.986
 4510POPC   C4A59646   6.062  43.985   7.324
 4510POPC   C1B59647   5.728  44.150   6.134
 4510POPC   C2B59648   5.579  44.060   6.533
 4510POPC   C3B59649   5.756  44.074   6.913
 4510POPC   C4B59650   5.569  44.159   7.284
 4511POPC   NC359651   1.362  32.665   5.416
 4511POPC   PO459652   1.450  33.349   5.405
 4511POPC   GL159653   1.354  33.090   5.759
 4511POPC   GL259654   1.062  32.833   5.817
 4511POPC   C1A59655   1.296  33.152   6.203
 4511POPC   D2A59656   1.475  33.202   6.595
 4511POPC   C3A59657   1.232  33.152   6.926
 4511POPC   C4A59658   1.431  33.142   7.264
 4511POPC   C1B59659   1.405  32.677   6.055
 4511POPC   C2B59660   1.557  32.717   6.417
 4511POPC   C3B59661   1.423  32.692   6.817
 4511POPC   C4B59662   1.616  32.659   7.208
 4512POPC   NC359663  15.807  33.956   5.445
 4512POPC   PO459664  16.396  34.017   5.185
 4512POPC   GL159665  16.234  33.892   5.678
 4512POPC   GL259666  16.372  34.066   5.902
 4512POPC   C1A59667  15.903  34.045   6.090
 4512POPC   D2A59668  15.720  33.875   6.496
 4512POPC   C3A59669  15.861  33.976   6.936
 4512POPC   C4A59670  15.884  33.599   7.209
 4512POPC   C1B59671  16.276  33.739   6.196
 4512POPC   C2B59672  16.270  33.903   6.591
 4512POPC   C3B59673  16.326  33.749   6.997
 4512POPC   C4B59674  16.222  33.950   7.386
 4513POPC   NC359675  18.885  40.570   5.586
 4513POPC   PO459676  19.400  41.104   5.415
 4513POPC   GL159677  19.221  40.913   5.766
 4513POPC   GL259678  19.415  40.621   5.898
 4513POPC   C1A59679  19.019  40.915   6.186
 4513POPC   D2A59680  19.200  41.101   6.573
 4513POPC   C3A59681  19.173  40.956   7.020
 4513POPC   C4A59682  19.427  41.124   7.383
 4513POPC   C1B59683  19.127  40.414   6.211
 4513POPC   C2B59684  19.089  40.530   6.641
 4513POPC   C3B59685  19.117  40.413   7.074
 4513POPC   C4B59686  18.823  40.479   7.386
 4514POPC   NC359687   2.561  36.141   5.425
 4514POPC   PO459688   3.201  35.936   5.386
 4514POPC   GL159689   2.939  36.022   5.763
 4514POPC   GL259690   2.932  36.384   5.719
 4514POPC   C1A59691   2.819  36.019   6.227
 4514POPC   D2A59692   2.544  36.233   6.542
 4514POPC   C3A59693   2.764  36.125   6.903
 4514POPC   C4A59694   2.735  36.076   7.327
 4514POPC   C1B59695   2.865  36.527   6.142
 4514POPC   C2B59696   2.991  36.463   6.538
 4514POPC   C3B59697   2.874  36.604   6.984
 4514POPC   C4B59698   3.109  36.487   7.351
 4515POPC   NC359699  17.599  33.549   5.223
 4515POPC   PO459700  17.221  33.774   5.695
 4515POPC   GL159701  17.641  33.836   5.832
 4515POPC   GL259702  17.829  33.544   5.733
 4515POPC   C1A59703  17.657  33.932   6.256
 4515POPC   D2A59704  17.612  34.145   6.621
 4515POPC   C3A59705  17.465  33.955   6.945
 4515POPC   C4A59706  17.541  33.979   7.351
 4515POPC   C1B59707  17.834  33.465   6.204
 4515POPC   C2B59708  17.611  33.525   6.622
 4515POPC   C3B59709  17.665  33.500   7.078
 4515POPC   C4B59710  17.983  33.607   7.395
 4516POPC   NC359711  18.371  37.943   5.337
 4516POPC   PO459712  18.155  37.302   5.418
 4516POPC   GL159713  18.291  37.593   5.729
 4516POPC   GL259714  18.546  37.880   5.842
 4516POPC   C1A59715  18.287  37.605   6.170
 4516POPC   D2A59716  18.376  37.950   6.431
 4516POPC   C3A59717  18.265  37.771   6.807
 4516POPC   C4A59718  17.989  37.707   7.116
 4516POPC   C1B59719  18.790  37.718   6.226
 4516POPC   C2B59720  18.654  37.505   6.610
 4516POPC   C3B59721  18.716  37.634   7.009
 4516POPC   C4B59722  18.454  37.920   7.255
 4517POPC   NC359723  29.283   9.885   5.287
 4517POPC   PO459724  28.869   9.439   5.687
 4517POPC   GL159725  29.062   9.780   5.780
 4517POPC   GL259726  29.408   9.789   5.762
 4517POPC   C1A59727  28.973   9.865   6.190
 4517POPC   D2A59728  28.803   9.806   6.586
 4517POPC   C3A59729  28.983   9.764   6.987
 4517POPC   C4A59730  28.971   9.989   7.374
 4517POPC   C1B59731  29.463   9.850   6.168
 4517POPC   C2B59732  29.316   9.803   6.589
 4517POPC   C3B59733  29.467   9.997   6.950
 4517POPC   C4B59734  29.805   9.917   7.271
 4518POPC   NC359735  14.628   2.638   5.426
 4518POPC   PO459736  14.037   2.775   5.494
 4518POPC   GL159737  14.263   2.553   5.818
 4518POPC   GL259738  14.598   2.672   5.940
 4518POPC   C1A59739  14.235   2.536   6.277
 4518POPC   D2A59740  14.363   2.814   6.621
 4518POPC   C3A59741  14.340   2.905   7.072
 4518POPC   C4A59742  14.217   2.692   7.443
 4518POPC   C1B59743  14.747   2.511   6.359
 4518POPC   C2B59744  14.674   2.434   6.807
 4518POPC   C3B59745  14.707   2.589   7.226
 4518POPC   C4B59746  14.641   2.955   7.523
 4519POPC   NC359747  44.916  11.677   5.335
 4519POPC   PO459748  44.883  12.369   5.378
 4519POPC   GL159749  44.648  12.307   5.743
 4519POPC   GL259750  44.613  11.945   5.715
 4519POPC   C1A59751  44.652  12.224   6.184
 4519POPC   D2A59752  44.732  11.950   6.501
 4519POPC   C3A59753  44.840  12.078   6.912
 4519POPC   C4A59754  44.776  12.271   7.314
 4519POPC   C1B59755  44.321  11.805   6.038
 4519POPC   C2B59756  44.247  11.731   6.440
 4519POPC   C3B59757  44.391  11.790   6.834
 4519POPC   C4B59758  44.476  11.875   7.239
 4520POPC   NC359759   9.888  18.216   5.377
 4520POPC   PO459760   9.290  18.428   5.543
 4520POPC   GL159761   9.702  18.428   5.800
 4520POPC   GL259762  10.120  18.467   5.755
 4520POPC   C1A59763   9.833  18.594   6.174
 4520POPC   D2A59764   9.791  18.700   6.573
 4520POPC   C3A59765   9.516  18.467   6.773
 4520POPC   C4A59766   9.449  18.383   7.172
 4520POPC   C1B59767  10.116  18.178   6.112
 4520POPC   C2B59768   9.896  18.179   6.498
 4520POPC   C3B59769   9.934  18.211   6.931
 4520POPC   C4B59770  10.000  17.913   7.238
 4521POPC   NC359771  30.557  32.846   5.298
 4521POPC   PO459772  30.975  33.404   5.137
 4521POPC   GL159773  30.795  33.350   5.566
 4521POPC   GL259774  30.852  32.998   5.723
 4521POPC   C1A59775  30.730  33.391   6.036
 4521POPC   D2A59776  30.876  33.130   6.366
 4521POPC   C3A59777  30.790  33.151   6.820
 4521POPC   C4A59778  30.734  33.534   7.063
 4521POPC   C1B59779  30.554  32.861   6.083
 4521POPC   C2B59780  30.552  32.781   6.563
 4521POPC   C3B59781  30.412  32.833   7.010
 4521POPC   C4B59782  30.402  32.685   7.455
 4522POPC   NC359783  42.075   7.061   5.705
 4522POPC   PO459784  42.105   6.483   5.345
 4522POPC   GL159785  42.351   6.642   5.767
 4522POPC   GL259786  42.722   6.723   5.801
 4522POPC   C1A59787  42.450   6.875   6.200
 4522POPC   D2A59788  42.651   6.919   6.608
 4522POPC   C3A59789  42.344   6.792   6.896
 4522POPC   C4A59790  42.138   6.773   7.260
 4522POPC   C1B59791  42.589   6.398   6.141
 4522POPC   C2B59792  42.390   6.427   6.509
 4522POPC   C3B59793  42.462   6.282   6.909
 4522POPC   C4B59794  42.360   6.337   7.318
 4523POPC   NC359795   3.287  26.561   5.293
 4523POPC   PO459796   3.899  26.941   5.320
 4523POPC   GL159797   3.620  26.727   5.681
 4523POPC   GL259798   3.279  26.841   5.735
 4523POPC   C1A59799   3.479  26.568   6.123
 4523POPC   D2A59800   3.333  26.707   6.560
 4523POPC   C3A59801   3.529  26.482   6.916
 4523POPC   C4A59802   3.708  26.739   7.262
 4523POPC   C1B59803   3.223  27.025   6.153
 4523POPC   C2B59804   3.305  27.218   6.584
 4523POPC   C3B59805   3.266  27.068   6.999
 4523POPC   C4B59806   3.190  26.705   7.224
 4524POPC   NC359807  15.742  37.962   5.459
 4524POPC   PO459808  15.761  37.321   5.487
 4524POPC   GL159809  16.062  37.543   5.708
 4524POPC   GL259810  15.875  37.778   5.914
 4524POPC   C1A59811  16.244  37.525   6.121
 4524POPC   D2A59812  15.985  37.669   6.455
 4524POPC   C3A59813  16.072  37.747   6.861
 4524POPC   C4A59814  16.112  37.534   7.219
 4524POPC   C1B59815  15.560  37.567   6.193
 4524POPC   C2B59816  15.543  37.405   6.628
 4524POPC   C3B59817  15.624  37.564   7.045
 4524POPC   C4B59818  15.691  37.714   7.498
 4525POPC   NC359819  37.315  30.077   5.394
 4525POPC   PO459820  37.953  30.034   5.372
 4525POPC   GL159821  37.711  29.777   5.687
 4525POPC   GL259822  37.354  29.637   5.637
 4525POPC   C1A59823  37.819  29.771   6.131
 4525POPC   D2A59824  37.595  29.827   6.531
 4525POPC   C3A59825  37.823  30.034   6.854
 4525POPC   C4A59826  37.734  30.007   7.268
 4525POPC   C1B59827  37.409  29.495   6.057
 4525POPC   C2B59828  37.303  29.406   6.499
 4525POPC   C3B59829  37.335  29.453   6.954
 4525POPC   C4B59830  37.383  29.651   7.363
 4526POPC   NC359831  15.936  44.904   5.378
 4526POPC   PO459832  16.248  44.272   5.307
 4526POPC   GL159833  15.919  44.413   5.635
 4526POPC   GL259834  16.034  44.742   5.859
 4526POPC   C1A59835  15.797  44.352   6.097
 4526POPC   D2A59836  16.108  44.479   6.439
 4526POPC   C3A59837  16.072  44.472   6.905
 4526POPC   C4A59838  15.729  44.491   7.162
 4526POPC   C1B59839  16.218  44.956   6.263
 4526POPC   C2B59840  16.227  44.929   6.741
 4526POPC   C3B59841  16.120  44.894   7.215
 4526POPC   C4B59842  16.330  44.965   7.628
 4527POPC   NC359843  33.492  25.476   5.475
 4527POPC   PO459844  33.789  24.974   5.387
 4527POPC   GL159845  33.639  25.113   5.798
 4527POPC   GL259846  33.930  25.307   5.827
 4527POPC   C1A59847  33.636  25.276   6.235
 4527POPC   D2A59848  33.732  25.068   6.584
 4527POPC   C3A59849  33.750  25.344   6.912
 4527POPC   C4A59850  33.552  25.379   7.303
 4527POPC   C1B59851  34.054  24.991   6.173
 4527POPC   C2B59852  34.249  25.123   6.542
 4527POPC   C3B59853  34.118  25.011   6.939
 4527POPC   C4B59854  34.049  25.235   7.319
 4528POPC   NC359855  11.664   6.992   5.471
 4528POPC   PO459856  11.206   7.386   5.234
 4528POPC   GL159857  11.263   7.528   5.657
 4528POPC   GL259858  11.256   7.236   5.858
 4528POPC   C1A59859  11.516   7.641   6.021
 4528POPC   D2A59860  11.451   7.631   6.469
 4528POPC   C3A59861  11.410   7.730   6.896
 4528POPC   C4A59862  11.372   7.583   7.322
 4528POPC   C1B59863  11.047   7.513   6.194
 4528POPC   C2B59864  10.852   7.533   6.634
 4528POPC   C3B59865  10.931   7.477   7.094
 4528POPC   C4B59866  10.946   7.438   7.569
 4529POPC   NC359867  29.035  21.110   5.224
 4529POPC   PO459868  29.590  21.507   5.482
 4529POPC   GL159869  29.373  21.344   5.866
 4529POPC   GL259870  29.020  21.249   5.891
 4529POPC   C1A59871  29.188  21.620   6.195
 4529POPC   D2A59872  29.468  21.664   6.516
 4529POPC   C3A59873  29.340  21.806   6.897
 4529POPC   C4A59874  29.251  21.678   7.308
 4529POPC   C1B59875  29.242  21.144   6.337
 4529POPC   C2B59876  29.254  21.257   6.780
 4529POPC   C3B59877  28.945  21.311   7.094
 4529POPC   C4B59878  28.987  21.315   7.567
 4530POPC   NC359879  43.165  42.557   5.432
 4530POPC   PO459880  42.903  41.994   5.471
 4530POPC   GL159881  43.004  42.120   5.902
 4530POPC   GL259882  43.308  42.335   5.880
 4530POPC   C1A59883  42.956  42.059   6.362
 4530POPC   D2A59884  43.225  42.085   6.740
 4530POPC   C3A59885  43.138  42.031   7.185
 4530POPC   C4A59886  42.976  42.420   7.275
 4530POPC   C1B59887  43.449  42.440   6.298
 4530POPC   C2B59888  43.301  42.601   6.697
 4530POPC   C3B59889  43.462  42.408   7.085
 4530POPC   C4B59890  43.431  42.317   7.526
 4531POPC   NC359891  34.819  41.844   5.483
 4531POPC   PO459892  34.463  41.406   5.141
 4531POPC   GL159893  34.455  41.461   5.668
 4531POPC   GL259894  34.783  41.521   5.880
 4531POPC   C1A59895  34.369  41.389   6.135
 4531POPC   D2A59896  34.584  41.359   6.587
 4531POPC   C3A59897  34.423  41.489   7.002
 4531POPC   C4A59898  34.669  41.545   7.414
 4531POPC   C1B59899  34.651  41.770   6.269
 4531POPC   C2B59900  34.453  41.876   6.682
 4531POPC   C3B59901  34.685  41.930   7.070
 4531POPC   C4B59902  35.061  41.895   7.282
 4532POPC   NC359903  37.782   2.315   5.403
 4532POPC   PO459904  37.341   1.851   5.152
 4532POPC   GL159905  37.558   1.806   5.598
 4532POPC   GL259906  37.888   1.947   5.728
 4532POPC   C1A59907  37.518   1.754   6.070
 4532POPC   D2A59908  37.448   1.955   6.496
 4532POPC   C3A59909  37.622   1.832   6.910
 4532POPC   C4A59910  37.452   1.841   7.333
 4532POPC   C1B59911  37.840   2.154   6.154
 4532POPC   C2B59912  37.972   1.997   6.559
 4532POPC   C3B59913  38.038   2.170   6.981
 4532POPC   C4B59914  37.821   2.213   7.388
 4533POPC   NC359915  30.606   6.394   5.427
 4533POPC   PO459916  30.866   6.957   5.476
 4533POPC   GL159917  30.585   6.809   5.808
 4533POPC   GL259918  30.736   6.490   5.902
 4533POPC   C1A59919  30.585   6.803   6.278
 4533POPC   D2A59920  30.391   6.742   6.672
 4533POPC   C3A59921  30.608   6.540   6.988
 4533POPC   C4A59922  30.720   6.608   7.412
 4533POPC   C1B59923  31.005   6.441   6.269
 4533POPC   C2B59924  30.989   6.634   6.672
 4533POPC   C3B59925  31.117   6.554   7.109
 4533POPC   C4B59926  31.146   6.294   7.519
 4534POPC   NC359927  14.423  17.397   5.424
 4534POPC   PO459928  14.393  16.707   5.415
 4534POPC   GL159929  14.490  16.746   5.830
 4534POPC   GL259930  14.519  17.117   5.879
 4534POPC   C1A59931  14.527  16.737   6.263
 4534POPC   D2A59932  14.298  16.556   6.575
 4534POPC   C3A59933  14.458  16.684   6.906
 4534POPC   C4A59934  14.503  16.555   7.291
 4534POPC   C1B59935  14.097  16.981   6.050
 4534POPC   C2B59936  13.909  16.927   6.483
 4534POPC   C3B59937  14.031  16.968   6.908
 4534POPC   C4B59938  14.301  17.036   7.274
 4535POPC   NC359939   2.777  17.665   5.306
 4535POPC   PO459940   2.684  17.077   5.470
 4535POPC   GL159941   2.690  17.350   5.834
 4535POPC   GL259942   2.691  17.719   5.806
 4535POPC   C1A59943   2.974  17.455   6.180
 4535POPC   D2A59944   2.878  17.405   6.595
 4535POPC   C3A59945   3.057  17.528   6.971
 4535POPC   C4A59946   2.847  17.226   7.222
 4535POPC   C1B59947   2.732  17.966   6.198
 4535POPC   C2B59948   2.843  17.906   6.626
 4535POPC   C3B59949   2.659  17.889   7.038
 4535POPC   C4B59950   2.894  17.823   7.382
 4536POPC   NC359951   8.116  34.496   5.340
 4536POPC   PO459952   8.511  35.068   5.584
 4536POPC   GL159953   8.256  34.718   5.799
 4536POPC   GL259954   8.326  34.381   5.798
 4536POPC   C1A59955   8.077  34.564   6.205
 4536POPC   D2A59956   7.886  34.724   6.581
 4536POPC   C3A59957   8.090  34.576   6.952
 4536POPC   C4A59958   8.179  34.769   7.346
 4536POPC   C1B59959   8.529  34.267   6.200
 4536POPC   C2B59960   8.462  34.062   6.573
 4536POPC   C3B59961   8.591  34.126   6.984
 4536POPC   C4B59962   8.345  34.273   7.302
 4537POPC   NC359963   3.749  23.670   5.336
 4537POPC   PO459964   3.206  23.551   5.656
 4537POPC   GL159965   3.464  23.874   5.822
 4537POPC   GL259966   3.723  23.651   5.872
 4537POPC   C1A59967   3.380  24.172   6.163
 4537POPC   D2A59968   3.619  24.249   6.529
 4537POPC   C3A59969   3.450  24.016   6.843
 4537POPC   C4A59970   3.303  23.942   7.241
 4537POPC   C1B59971   3.656  23.752   6.310
 4537POPC   C2B59972   3.895  23.798   6.686
 4537POPC   C3B59973   3.879  23.770   7.138
 4537POPC   C4B59974   3.755  23.358   7.283
 4538POPC   NC359975  15.866  18.258   5.342
 4538POPC   PO459976  16.316  18.645   5.488
 4538POPC   GL159977  15.978  18.420   5.819
 4538POPC   GL259978  15.748  18.092   5.820
 4538POPC   C1A59979  15.838  18.321   6.266
 4538POPC   D2A59980  15.903  17.992   6.579
 4538POPC   C3A59981  15.895  18.167   6.988
 4538POPC   C4A59982  15.695  18.538   7.188
 4538POPC   C1B59983  16.130  17.945   6.057
 4538POPC   C2B59984  16.348  17.801   6.454
 4538POPC   C3B59985  16.280  17.826   6.921
 4538POPC   C4B59986  16.272  18.085   7.317
 4539POPC   NC359987  21.898  26.437   5.563
 4539POPC   PO459988  22.295  27.038   5.483
 4539POPC   GL159989  22.423  26.861   5.850
 4539POPC   GL259990  22.209  26.611   5.983
 4539POPC   C1A59991  22.610  26.905   6.259
 4539POPC   D2A59992  22.292  26.852   6.594
 4539POPC   C3A59993  22.335  26.675   6.990
 4539POPC   C4A59994  22.086  26.772   7.387
 4539POPC   C1B59995  21.885  26.695   6.314
 4539POPC   C2B59996  21.821  26.668   6.795
 4539POPC   C3B59997  21.774  26.385   7.167
 4539POPC   C4B59998  21.741  26.438   7.652
 4540POPC   NC359999  14.514  24.743   5.304
 4540POPC   PO460000  14.107  24.307   5.271
 4540POPC   GL160001  14.206  24.346   5.736
 4540POPC   GL260002  14.383  24.688   5.822
 4540POPC   C1A60003  14.341  24.297   6.190
 4540POPC   D2A60004  14.510  24.090   6.560
 4540POPC   C3A60005  14.337  24.250   6.956
 4540POPC   C4A60006  14.107  24.618   7.156
 4540POPC   C1B60007  14.449  24.818   6.276
 4540POPC   C2B60008  14.347  24.713   6.716
 4540POPC   C3B60009  14.627  24.645   7.097
 4540POPC   C4B60010  14.869  24.453   7.450
 4541POPC   NC360011  39.759  40.434   5.430
 4541POPC   PO460012  40.193  40.903   5.254
 4541POPC   GL160013  40.096  40.805   5.711
 4541POPC   GL260014  39.749  40.850   5.768
 4541POPC   C1A60015  40.063  40.712   6.190
 4541POPC   D2A60016  40.268  40.747   6.574
 4541POPC   C3A60017  40.070  40.723   6.990
 4541POPC   C4A60018  40.084  41.029   7.347
 4541POPC   C1B60019  39.571  40.690   6.155
 4541POPC   C2B60020  39.641  40.818   6.572
 4541POPC   C3B60021  39.536  40.623   6.963
 4541POPC   C4B60022  39.675  40.705   7.364
 4542POPC   NC360023   0.256   5.670   5.301
 4542POPC   PO460024   0.642   6.222   5.423
 4542POPC   GL160025   0.539   5.849   5.697
 4542POPC   GL260026   0.168   5.854   5.765
 4542POPC   C1A60027   0.479   5.684   6.135
 4542POPC   D2A60028   0.216   5.637   6.514
 4542POPC   C3A60029   0.393   5.792   6.876
 4542POPC   C4A60030   0.544   5.750   7.281
 4542POPC   C1B60031   0.332   6.158   6.068
 4542POPC   C2B60032   0.448   6.130   6.476
 4542POPC   C3B60033   0.413   6.304   6.882
 4542POPC   C4B60034   0.257   6.187   7.258
 4543POPC   NC360035   3.087  24.008   5.510
 4543POPC   PO460036   3.002  23.453   5.151
 4543POPC   GL160037   2.718  23.624   5.603
 4543POPC   GL260038   2.563  23.930   5.727
 4543POPC   C1A60039   2.511  23.513   6.031
 4543POPC   D2A60040   2.475  23.743   6.457
 4543POPC   C3A60041   2.530  23.548   6.889
 4543POPC   C4A60042   2.800  23.681   7.237
 4543POPC   C1B60043   2.871  23.867   6.119
 4543POPC   C2B60044   2.984  23.936   6.587
 4543POPC   C3B60045   2.907  24.161   7.010
 4543POPC   C4B60046   2.912  24.140   7.510
 4544POPC   NC360047  38.624  21.514   5.650
 4544POPC   PO460048  38.334  20.985   5.520
 4544POPC   GL160049  38.169  21.288   5.804
 4544POPC   GL260050  38.137  21.669   5.796
 4544POPC   C1A60051  38.253  21.227   6.233
 4544POPC   D2A60052  38.242  21.219   6.664
 4544POPC   C3A60053  38.610  21.352   6.829
 4544POPC   C4A60054  38.615  21.284   7.237
 4544POPC   C1B60055  38.305  21.728   6.203
 4544POPC   C2B60056  38.342  21.744   6.638
 4544POPC   C3B60057  38.391  21.757   7.096
 4544POPC   C4B60058  38.081  21.870   7.427
 4545POPC   NC360059  12.375  31.633   5.395
 4545POPC   PO460060  11.896  31.137   5.264
 4545POPC   GL160061  12.020  31.299   5.670
 4545POPC   GL260062  12.044  31.659   5.806
 4545POPC   C1A60063  11.880  31.235   6.068
 4545POPC   D2A60064  11.904  31.502   6.423
 4545POPC   C3A60065  12.019  31.270   6.756
 4545POPC   C4A60066  12.018  31.171   7.178
 4545POPC   C1B60067  12.236  31.839   6.225
 4545POPC   C2B60068  12.105  31.930   6.671
 4545POPC   C3B60069  12.097  31.681   7.003
 4545POPC   C4B60070  12.395  31.515   7.273
 4546POPC   NC360071   3.640  15.397   5.736
 4546POPC   PO460072   3.568  15.732   5.227
 4546POPC   GL160073   3.665  15.881   5.771
 4546POPC   GL260074   3.419  15.655   6.099
 4546POPC   C1A60075   3.831  15.873   6.220
 4546POPC   D2A60076   3.548  15.913   6.560
 4546POPC   C3A60077   3.703  15.952   6.942
 4546POPC   C4A60078   3.623  15.631   7.239
 4546POPC   C1B60079   3.186  16.007   6.200
 4546POPC   C2B60080   3.074  16.135   6.606
 4546POPC   C3B60081   3.163  15.905   6.950
 4546POPC   C4B60082   3.336  16.068   7.295
 4547POPC   NC360083  40.850   2.147   5.140
 4547POPC   PO460084  40.633   1.601   5.293
 4547POPC   GL160085  40.870   1.875   5.619
 4547POPC   GL260086  40.613   2.038   5.857
 4547POPC   C1A60087  41.035   1.822   6.061
 4547POPC   D2A60088  40.807   1.935   6.434
 4547POPC   C3A60089  40.925   1.771   6.829
 4547POPC   C4A60090  41.037   1.614   7.201
 4547POPC   C1B60091  40.410   2.316   6.193
 4547POPC   C2B60092  40.337   2.346   6.653
 4547POPC   C3B60093  40.656   2.207   6.953
 4547POPC   C4B60094  40.710   1.970   7.326
 4548POPC   NC360095   5.175   0.773   5.507
 4548POPC   PO460096   4.736   0.279   5.675
 4548POPC   GL160097   4.902   0.632   5.900
 4548POPC   GL260098   4.649   0.882   5.748
 4548POPC   C1A60099   5.112   0.511   6.291
 4548POPC   D2A60100   4.962   0.168   6.604
 4548POPC   C3A60101   5.165   0.097   7.003
 4548POPC   C4A60102   5.385   0.282   7.306
 4548POPC   C1B60103   4.491   0.713   6.152
 4548POPC   C2B60104   4.689   0.652   6.539
 4548POPC   C3B60105   4.707   0.738   6.939
 4548POPC   C4B60106   4.932   0.623   7.321
 4549POPC   NC360107  33.468  13.353   5.489
 4549POPC   PO460108  33.808  13.883   5.349
 4549POPC   GL160109  33.845  13.680   5.718
 4549POPC   GL260110  33.538  13.788   5.780
 4549POPC   C1A60111  33.851  13.704   6.180
 4549POPC   D2A60112  33.809  13.936   6.557
 4549POPC   C3A60113  34.140  13.859   6.868
 4549POPC   C4A60114  34.002  13.766   7.295
 4549POPC   C1B60115  33.373  13.512   6.119
 4549POPC   C2B60116  33.530  13.390   6.506
 4549POPC   C3B60117  33.717  13.545   6.874
 4549POPC   C4B60118  33.517  13.839   7.130
 4550POPC   NC360119  39.205  10.706   5.394
 4550POPC   PO460120  39.711  10.351   5.556
 4550POPC   GL160121  39.415  10.388   5.844
 4550POPC   GL260122  39.057  10.354   5.790
 4550POPC   C1A60123  39.382  10.537   6.236
 4550POPC   D2A60124  39.419  10.790   6.594
 4550POPC   C3A60125  39.412  10.589   6.979
 4550POPC   C4A60126  39.450  10.557   7.394
 4550POPC   C1B60127  38.915  10.302   6.235
 4550POPC   C2B60128  39.074  10.383   6.653
 4550POPC   C3B60129  38.948  10.315   7.098
 4550POPC   C4B60130  39.042  10.346   7.560
 4551POPC   NC360131  14.570  37.388   5.589
 4551POPC   PO460132  14.284  38.034   5.506
 4551POPC   GL160133  14.438  37.833   5.837
 4551POPC   GL260134  14.176  37.613   5.865
 4551POPC   C1A60135  14.512  37.731   6.270
 4551POPC   D2A60136  14.662  37.773   6.685
 4551POPC   C3A60137  14.368  37.779   7.027
 4551POPC   C4A60138  14.375  37.579   7.437
 4551POPC   C1B60139  14.085  37.409   6.259
 4551POPC   C2B60140  14.263  37.440   6.644
 4551POPC   C3B60141  14.230  37.295   7.034
 4551POPC   C4B60142  13.878  37.587   7.126
 4552POPC   NC360143  24.510  15.688   5.420
 4552POPC   PO460144  23.965  16.112   5.446
 4552POPC   GL160145  24.300  16.010   5.767
 4552POPC   GL260146  24.164  15.729   5.824
 4552POPC   C1A60147  24.561  15.850   6.136
 4552POPC   D2A60148  24.536  15.753   6.591
 4552POPC   C3A60149  24.779  16.006   6.905
 4552POPC   C4A60150  24.862  16.087   7.365
 4552POPC   C1B60151  24.160  15.505   6.198
 4552POPC   C2B60152  24.066  15.560   6.636
 4552POPC   C3B60153  24.170  15.722   7.013
 4552POPC   C4B60154  24.483  15.778   7.268
 4553POPC   NC360155  18.638  23.541   5.412
 4553POPC   PO460156  18.260  22.990   5.411
 4553POPC   GL160157  18.390  23.149   5.809
 4553POPC   GL260158  18.110  23.362   5.732
 4553POPC   C1A60159  18.373  22.900   6.236
 4553POPC   D2A60160  18.262  22.774   6.676
 4553POPC   C3A60161  18.327  22.968   7.082
 4553POPC   C4A60162  18.315  22.782   7.503
 4553POPC   C1B60163  17.977  23.188   6.113
 4553POPC   C2B60164  18.077  23.238   6.537
 4553POPC   C3B60165  17.864  23.293   6.942
 4553POPC   C4B60166  17.882  23.068   7.359
 4554POPC   NC360167  11.676  21.062   5.585
 4554POPC   PO460168  11.979  20.580   5.252
 4554POPC   GL160169  11.990  20.512   5.768
 4554POPC   GL260170  11.826  20.730   5.959
 4554POPC   C1A60171  12.286  20.572   6.200
 4554POPC   D2A60172  12.467  20.413   6.610
 4554POPC   C3A60173  12.254  20.579   6.979
 4554POPC   C4A60174  12.303  20.800   7.467
 4554POPC   C1B60175  11.810  20.412   6.248
 4554POPC   C2B60176  11.845  20.507   6.638
 4554POPC   C3B60177  11.831  20.884   6.838
 4554POPC   C4B60178  11.846  20.754   7.243
 4555POPC   NC360179   4.331  31.455   5.370
 4555POPC   PO460180   4.332  32.099   5.495
 4555POPC   GL160181   4.205  31.763   5.783
 4555POPC   GL260182   4.480  31.492   5.849
 4555POPC   C1A60183   4.212  31.729   6.244
 4555POPC   D2A60184   4.119  31.554   6.644
 4555POPC   C3A60185   4.254  31.747   7.016
 4555POPC   C4A60186   4.288  31.559   7.399
 4555POPC   C1B60187   4.362  31.232   6.200
 4555POPC   C2B60188   4.479  31.164   6.617
 4555POPC   C3B60189   4.308  31.200   7.015
 4555POPC   C4B60190   4.525  31.108   7.390
 4556POPC   NC360191  10.254  11.238   5.505
 4556POPC   PO460192  10.876  11.398   5.592
 4556POPC   GL160193  10.591  11.526   5.895
 4556POPC   GL260194  10.225  11.533   5.928
 4556POPC   C1A60195  10.590  11.544   6.324
 4556POPC   D2A60196  10.660  11.775   6.681
 4556POPC   C3A60197  10.851  11.535   7.014
 4556POPC   C4A60198  10.602  11.207   7.221
 4556POPC   C1B60199  10.251  11.175   6.195
 4556POPC   C2B60200  10.301  11.222   6.625
 4556POPC   C3B60201  10.275  10.953   6.932
 4556POPC   C4B60202  10.039  10.823   7.264
 4557POPC   NC360203  23.862  14.927   5.466
 4557POPC   PO460204  23.395  15.304   5.597
 4557POPC   GL160205  23.743  15.342   5.916
 4557POPC   GL260206  23.991  15.071   5.939
 4557POPC   C1A60207  23.773  15.232   6.377
 4557POPC   D2A60208  23.836  14.968   6.715
 4557POPC   C3A60209  24.007  15.232   7.037
 4557POPC   C4A60210  23.965  15.453   7.409
 4557POPC   C1B60211  23.570  14.876   6.085
 4557POPC   C2B60212  23.452  14.647   6.462
 4557POPC   C3B60213  23.361  14.787   6.896
 4557POPC   C4B60214  23.642  14.929   7.238
 4558POPC   NC360215   7.994  20.387   5.552
 4558POPC   PO460216   8.133  21.032   5.463
 4558POPC   GL160217   8.193  20.897   5.888
 4558POPC   GL260218   8.398  20.594   5.883
 4558POPC   C1A60219   8.008  20.582   6.209
 4558POPC   D2A60220   8.136  20.306   6.557
 4558POPC   C3A60221   8.035  20.452   6.969
 4558POPC   C4A60222   8.150  20.287   7.363
 4558POPC   C1B60223   8.508  20.776   6.299
 4558POPC   C2B60224   8.464  20.691   6.749
 4558POPC   C3B60225   8.522  20.560   7.159
 4558POPC   C4B60226   8.458  20.681   7.581
 4559POPC   NC360227  25.367  40.073   5.372
 4559POPC   PO460228  25.131  40.672   5.356
 4559POPC   GL160229  25.001  40.343   5.707
 4559POPC   GL260230  25.011  39.934   5.715
 4559POPC   C1A60231  25.159  40.175   6.131
 4559POPC   D2A60232  25.393  39.965   6.500
 4559POPC   C3A60233  25.338  40.070   6.940
 4559POPC   C4A60234  25.085  40.300   7.202
 4559POPC   C1B60235  25.252  39.675   6.073
 4559POPC   C2B60236  25.327  39.446   6.496
 4559POPC   C3B60237  25.322  39.570   6.951
 4559POPC   C4B60238  24.989  39.770   7.228
 4560POPC   NC360239  42.679  10.762   5.428
 4560POPC   PO460240  42.034  10.652   5.440
 4560POPC   GL160241  42.237  10.499   5.837
 4560POPC   GL260242  42.560  10.692   5.925
 4560POPC   C1A60243  42.279  10.412   6.297
 4560POPC   D2A60244  42.463  10.697   6.606
 4560POPC   C3A60245  42.260  10.681   7.001
 4560POPC   C4A60246  42.305  10.329   7.270
 4560POPC   C1B60247  42.709  10.271   6.066
 4560POPC   C2B60248  42.771  10.182   6.503
 4560POPC   C3B60249  42.771  10.388   6.913
 4560POPC   C4B60250  42.726  10.739   7.228
 4561POPC   NC360251   2.570  23.276   5.287
 4561POPC   PO460252   2.970  22.708   5.403
 4561POPC   GL160253   2.770  22.884   5.781
 4561POPC   GL260254   2.889  23.211   5.861
 4561POPC   C1A60255   2.603  23.009   6.213
 4561POPC   D2A60256   2.728  23.018   6.635
 4561POPC   C3A60257   2.395  23.023   6.929
 4561POPC   C4A60258   2.522  22.768   7.254
 4561POPC   C1B60259   2.976  23.388   6.305
 4561POPC   C2B60260   3.009  23.411   6.776
 4561POPC   C3B60261   2.865  23.158   7.142
 4561POPC   C4B60262   2.890  23.238   7.599
 4562POPC   NC360263  38.514  12.878   5.460
 4562POPC   PO460264  37.902  13.013   5.214
 4562POPC   GL160265  38.082  13.077   5.723
 4562POPC   GL260266  38.276  13.290   5.924
 4562POPC   C1A60267  38.390  12.835   6.121
 4562POPC   D2A60268  38.311  12.537   6.511
 4562POPC   C3A60269  38.494  12.579   6.941
 4562POPC   C4A60270  38.514  12.602   7.415
 4562POPC   C1B60271  38.080  13.164   6.336
 4562POPC   C2B60272  38.214  13.034   6.753
 4562POPC   C3B60273  38.337  13.026   7.185
 4562POPC   C4B60274  38.324  13.017   7.643
 4563POPC   NC360275  22.320  35.757   5.357
 4563POPC   PO460276  21.877  35.243   5.378
 4563POPC   GL160277  22.174  35.387   5.722
 4563POPC   GL260278  22.058  35.116   5.893
 4563POPC   C1A60279  22.375  35.368   6.191
 4563POPC   D2A60280  22.417  35.509   6.639
 4563POPC   C3A60281  22.198  35.261   6.978
 4563POPC   C4A60282  22.244  35.042   7.383
 4563POPC   C1B60283  21.864  35.354   6.273
 4563POPC   C2B60284  21.943  35.664   6.619
 4563POPC   C3B60285  22.164  35.780   7.018
 4563POPC   C4B60286  22.004  35.563   7.382
 4564POPC   NC360287  15.782   9.043   5.142
 4564POPC   PO460288  15.808   8.541   5.615
 4564POPC   GL160289  15.801   8.869   5.903
 4564POPC   GL260290  16.163   8.812   5.926
 4564POPC   C1A60291  15.573   8.897   6.311
 4564POPC   D2A60292  15.724   8.642   6.680
 4564POPC   C3A60293  15.679   8.786   7.093
 4564POPC   C4A60294  15.689   9.024   7.498
 4564POPC   C1B60295  16.065   8.888   6.374
 4564POPC   C2B60296  15.816   9.132   6.724
 4564POPC   C3B60297  16.006   9.196   7.137
 4564POPC   C4B60298  16.447   9.059   7.261
 4565POPC   NC360299   8.650  12.716   5.591
 4565POPC   PO460300   8.230  13.128   5.275
 4565POPC   GL160301   8.255  13.027   5.717
 4565POPC   GL260302   8.178  12.643   5.802
 4565POPC   C1A60303   8.348  12.970   6.161
 4565POPC   D2A60304   8.235  12.790   6.541
 4565POPC   C3A60305   8.340  13.013   6.875
 4565POPC   C4A60306   8.230  12.963   7.262
 4565POPC   C1B60307   7.903  12.596   6.191
 4565POPC   C2B60308   7.909  12.380   6.605
 4565POPC   C3B60309   7.999  12.547   7.012
 4565POPC   C4B60310   8.291  12.481   7.351
 4566POPC   NC360311  38.628  42.601   5.532
 4566POPC   PO460312  38.155  43.066   5.343
 4566POPC   GL160313  38.143  43.001   5.749
 4566POPC   GL260314  38.169  42.632   5.760
 4566POPC   C1A60315  38.356  43.171   6.118
 4566POPC   D2A60316  38.549  42.917   6.428
 4566POPC   C3A60317  38.404  42.988   6.836
 4566POPC   C4A60318  38.652  42.981   7.190
 4566POPC   C1B60319  38.081  42.739   6.192
 4566POPC   C2B60320  37.975  43.087   6.477
 4566POPC   C3B60321  38.010  43.329   6.868
 4566POPC   C4B60322  38.268  43.319   7.238
 4567POPC   NC360323  38.013  16.622   5.420
 4567POPC   PO460324  37.459  16.393   5.177
 4567POPC   GL160325  37.527  16.590   5.619
 4567POPC   GL260326  37.250  16.638   5.835
 4567POPC   C1A60327  37.722  16.846   5.980
 4567POPC   D2A60328  37.793  17.008   6.432
 4567POPC   C3A60329  37.659  16.994   6.877
 4567POPC   C4A60330  37.811  17.001   7.291
 4567POPC   C1B60331  37.391  16.668   6.313
 4567POPC   C2B60332  37.714  16.546   6.658
 4567POPC   C3B60333  37.693  16.528   7.129
 4567POPC   C4B60334  37.492  16.647   7.504
 4568POPC   NC360335  39.651  44.739   5.200
 4568POPC   PO460336  40.355  44.868   5.167
 4568POPC   GL160337  40.356  44.767   5.677
 4568POPC   GL260338  39.969  44.784   5.841
 4568POPC   C1A60339  40.354  44.889   6.138
 4568POPC   D2A60340  40.037  44.677   6.423
 4568POPC   C3A60341  40.190  44.404   6.759
 4568POPC   C4A60342  40.331  44.681   7.091
 4568POPC   C1B60343  39.677  44.961   6.184
 4568POPC   C2B60344  39.706   0.063   6.651
 4568POPC   C3B60345  39.829  44.993   7.119
 4568POPC   C4B60346  39.700  44.972   7.582
 4569POPC   NC360347   8.539  17.020   5.438
 4569POPC   PO460348   7.932  16.571   5.511
 4569POPC   GL160349   8.190  16.826   5.801
 4569POPC   GL260350   8.322  16.542   5.977
 4569POPC   C1A60351   8.451  16.960   6.182
 4569POPC   D2A60352   8.596  16.588   6.439
 4569POPC   C3A60353   8.599  16.762   6.857
 4569POPC   C4A60354   8.447  16.826   7.290
 4569POPC   C1B60355   7.986  16.723   6.277
 4569POPC   C2B60356   7.677  16.889   6.612
 4569POPC   C3B60357   7.779  16.926   7.046
 4569POPC   C4B60358   8.006  16.585   7.213
 4570POPC   NC360359  20.015  24.109   5.419
 4570POPC   PO460360  20.309  24.632   5.076
 4570POPC   GL160361  19.879  24.510   5.636
 4570POPC   GL260362  19.569  24.661   5.687
 4570POPC   C1A60363  19.842  24.432   6.141
 4570POPC   D2A60364  19.997  24.351   6.620
 4570POPC   C3A60365  19.932  24.552   7.068
 4570POPC   C4A60366  20.004  24.760   7.512
 4570POPC   C1B60367  19.426  24.726   6.117
 4570POPC   C2B60368  19.535  24.625   6.552
 4570POPC   C3B60369  19.423  24.624   6.984
 4570POPC   C4B60370  19.521  24.349   7.322
 4571POPC   NC360371  31.176  28.713   5.491
 4571POPC   PO460372  30.930  28.066   5.534
 4571POPC   GL160373  30.843  28.397   5.820
 4571POPC   GL260374  31.166  28.490   5.936
 4571POPC   C1A60375  30.673  28.504   6.230
 4571POPC   D2A60376  30.772  28.582   6.638
 4571POPC   C3A60377  30.503  28.441   6.935
 4571POPC   C4A60378  30.642  28.524   7.296
 4571POPC   C1B60379  31.190  28.150   6.185
 4571POPC   C2B60380  30.996  28.140   6.548
 4571POPC   C3B60381  31.106  28.220   6.984
 4571POPC   C4B60382  31.209  28.005   7.381
 4572POPC   NC360383  33.344  31.129   5.471
 4572POPC   PO460384  33.966  31.368   5.366
 4572POPC   GL160385  33.691  31.371   5.773
 4572POPC   GL260386  33.451  31.096   5.957
 4572POPC   C1A60387  33.768  31.380   6.228
 4572POPC   D2A60388  33.861  31.633   6.559
 4572POPC   C3A60389  33.925  31.418   6.912
 4572POPC   C4A60390  34.250  31.476   7.208
 4572POPC   C1B60391  33.296  31.495   6.103
 4572POPC   C2B60392  33.317  31.616   6.505
 4572POPC   C3B60393  33.341  31.396   6.884
 4572POPC   C4B60394  33.556  31.442   7.257
 4573POPC   NC360395   3.129   4.080   5.550
 4573POPC   PO460396   2.690   4.403   5.198
 4573POPC   GL160397   2.598   4.502   5.679
 4573POPC   GL260398   2.867   4.375   5.888
 4573POPC   C1A60399   2.449   4.442   6.158
 4573POPC   D2A60400   2.351   4.128   6.516
 4573POPC   C3A60401   2.515   4.156   6.943
 4573POPC   C4A60402   2.806   4.043   7.238
 4573POPC   C1B60403   2.874   4.196   6.319
 4573POPC   C2B60404   3.006   4.168   6.761
 4573POPC   C3B60405   3.071   4.451   7.124
 4573POPC   C4B60406   3.239   4.621   7.513
 4574POPC   NC360407  25.506  22.682   5.528
 4574POPC   PO460408  25.163  23.231   5.277
 4574POPC   GL160409  25.344  23.165   5.672
 4574POPC   GL260410  25.087  22.935   5.735
 4574POPC   C1A60411  25.404  23.042   6.111
 4574POPC   D2A60412  25.312  23.190   6.495
 4574POPC   C3A60413  25.396  22.987   6.864
 4574POPC   C4A60414  25.209  23.057   7.245
 4574POPC   C1B60415  24.977  22.716   6.137
 4574POPC   C2B60416  25.138  22.676   6.540
 4574POPC   C3B60417  25.123  22.546   6.963
 4574POPC   C4B60418  25.275  22.570   7.387
 4575POPC   NC360419  13.809  23.354   5.445
 4575POPC   PO460420  13.400  22.861   5.327
 4575POPC   GL160421  13.446  22.898   5.757
 4575POPC   GL260422  13.418  23.217   5.783
 4575POPC   C1A60423  13.703  22.949   6.149
 4575POPC   D2A60424  13.730  22.681   6.504
 4575POPC   C3A60425  13.824  22.829   6.933
 4575POPC   C4A60426  13.558  22.673   7.223
 4575POPC   C1B60427  13.261  23.279   6.157
 4575POPC   C2B60428  13.473  23.251   6.520
 4575POPC   C3B60429  13.408  23.131   6.911
 4575POPC   C4B60430  13.141  23.147   7.238
 4576POPC   NC360431  43.731  21.808   5.404
 4576POPC   PO460432  44.110  21.323   5.438
 4576POPC   GL160433  44.184  21.497   5.785
 4576POPC   GL260434  43.864  21.545   5.839
 4576POPC   C1A60435  44.229  21.374   6.182
 4576POPC   D2A60436  44.045  21.185   6.517
 4576POPC   C3A60437  44.166  21.321   6.918
 4576POPC   C4A60438  44.196  21.535   7.318
 4576POPC   C1B60439  43.629  21.381   6.216
 4576POPC   C2B60440  43.686  21.518   6.665
 4576POPC   C3B60441  43.561  21.560   7.117
 4576POPC   C4B60442  43.218  21.459   7.435
 4577POPC   NC360443  17.437  30.308   5.458
 4577POPC   PO460444  17.144  29.857   5.544
 4577POPC   GL160445  17.335  30.133   5.924
 4577POPC   GL260446  17.704  30.225   5.918
 4577POPC   C1A60447  17.434  30.235   6.367
 4577POPC   D2A60448  17.690  29.969   6.637
 4577POPC   C3A60449  17.416  29.704   6.866
 4577POPC   C4A60450  17.055  29.792   7.126
 4577POPC   C1B60451  17.925  30.344   6.330
 4577POPC   C2B60452  17.760  30.469   6.734
 4577POPC   C3B60453  17.426  30.235   6.998
 4577POPC   C4B60454  17.523  29.925   7.330
 4578POPC   NC360455  27.712  18.782   5.602
 4578POPC   PO460456  28.047  19.254   5.267
 4578POPC   GL160457  27.916  19.294   5.750
 4578POPC   GL260458  27.562  19.376   5.808
 4578POPC   C1A60459  27.773  19.106   6.184
 4578POPC   D2A60460  27.457  19.128   6.523
 4578POPC   C3A60461  27.651  18.995   6.899
 4578POPC   C4A60462  27.526  18.696   7.205
 4578POPC   C1B60463  27.271  19.485   6.153
 4578POPC   C2B60464  27.075  19.481   6.574
 4578POPC   C3B60465  27.234  19.524   6.959
 4578POPC   C4B60466  27.436  19.282   7.256
 4579POPC   NC360467  21.762   3.794   5.406
 4579POPC   PO460468  21.399   4.353   5.517
 4579POPC   GL160469  21.581   4.260   5.885
 4579POPC   GL260470  21.388   4.017   5.961
 4579POPC   C1A60471  21.529   4.337   6.336
 4579POPC   D2A60472  21.805   4.445   6.637
 4579POPC   C3A60473  21.610   4.255   6.974
 4579POPC   C4A60474  21.479   4.357   7.351
 4579POPC   C1B60475  21.123   3.981   6.314
 4579POPC   C2B60476  21.140   4.160   6.746
 4579POPC   C3B60477  21.204   3.969   7.180
 4579POPC   C4B60478  21.030   4.138   7.584
 4580POPC   NC360479  30.500  27.908   5.422
 4580POPC   PO460480  30.918  27.364   5.325
 4580POPC   GL160481  30.755  27.552   5.716
 4580POPC   GL260482  30.994  27.735   5.937
 4580POPC   C1A60483  30.567  27.477   6.124
 4580POPC   D2A60484  30.761  27.634   6.495
 4580POPC   C3A60485  30.724  27.414   6.894
 4580POPC   C4A60486  30.799  27.518   7.309
 4580POPC   C1B60487  30.675  28.001   6.137
 4580POPC   C2B60488  30.486  28.096   6.541
 4580POPC   C3B60489  30.684  27.943   6.903
 4580POPC   C4B60490  30.731  28.028   7.302
 4581POPC   NC360491  21.175  40.989   5.302
 4581POPC   PO460492  21.743  40.629   5.193
 4581POPC   GL160493  21.441  40.663   5.598
 4581POPC   GL260494  21.642  40.481   5.836
 4581POPC   C1A60495  21.124  40.771   5.956
 4581POPC   D2A60496  21.149  40.964   6.381
 4581POPC   C3A60497  21.107  40.841   6.823
 4581POPC   C4A60498  21.120  40.961   7.266
 4581POPC   C1B60499  21.542  40.616   6.251
 4581POPC   C2B60500  21.591  40.723   6.674
 4581POPC   C3B60501  21.640  40.916   7.056
 4581POPC   C4B60502  21.526  40.660   7.377
 4582POPC   NC360503  15.573  21.656   5.505
 4582POPC   PO460504  15.215  21.176   5.373
 4582POPC   GL160505  15.112  21.206   5.793
 4582POPC   GL260506  15.107  21.565   5.806
 4582POPC   C1A60507  15.282  21.119   6.207
 4582POPC   D2A60508  15.621  21.252   6.502
 4582POPC   C3A60509  15.464  21.285   6.934
 4582POPC   C4A60510  15.187  21.204   7.282
 4582POPC   C1B60511  15.381  21.607   6.159
 4582POPC   C2B60512  15.346  21.713   6.588
 4582POPC   C3B60513  15.491  21.798   6.989
 4582POPC   C4B60514  15.490  21.598   7.402
 4583POPC   NC360515   8.378  13.519   5.061
 4583POPC   PO460516   8.952  13.774   5.437
 4583POPC   GL160517   9.034  13.649   5.866
 4583POPC   GL260518   9.136  13.317   5.979
 4583POPC   C1A60519   8.894  13.830   6.253
 4583POPC   D2A60520   8.660  13.745   6.643
 4583POPC   C3A60521   8.933  13.755   7.029
 4583POPC   C4A60522   9.187  13.644   7.410
 4583POPC   C1B60523   8.772  13.316   6.252
 4583POPC   C2B60524   8.764  13.237   6.703
 4583POPC   C3B60525   8.732  13.242   7.150
 4583POPC   C4B60526   8.903  13.250   7.548
 4584POPC   NC360527  24.909  17.597   5.258
 4584POPC   PO460528  25.503  17.237   5.412
 4584POPC   GL160529  25.177  17.413   5.687
 4584POPC   GL260530  25.344  17.705   5.810
 4584POPC   C1A60531  25.110  17.390   6.146
 4584POPC   D2A60532  25.341  17.316   6.503
 4584POPC   C3A60533  25.115  17.340   6.838
 4584POPC   C4A60534  25.376  17.476   7.130
 4584POPC   C1B60535  25.417  17.869   6.252
 4584POPC   C2B60536  25.430  17.827   6.725
 4584POPC   C3B60537  25.441  17.979   7.169
 4584POPC   C4B60538  25.207  17.778   7.501
 4585POPC   NC360539  22.623  27.407   5.538
 4585POPC   PO460540  23.139  27.852   5.456
 4585POPC   GL160541  23.090  27.591   5.811
 4585POPC   GL260542  23.062  27.901   5.984
 4585POPC   C1A60543  22.901  27.403   6.183
 4585POPC   D2A60544  22.976  27.292   6.614
 4585POPC   C3A60545  22.902  27.544   6.976
 4585POPC   C4A60546  22.927  27.381   7.360
 4585POPC   C1B60547  23.251  27.754   6.358
 4585POPC   C2B60548  23.316  27.782   6.813
 4585POPC   C3B60549  23.346  27.689   7.265
 4585POPC   C4B60550  23.333  27.885   7.681
 4586POPC   NC360551  43.292  39.893   5.545
 4586POPC   PO460552  42.840  40.338   5.370
 4586POPC   GL160553  42.973  40.250   5.783
 4586POPC   GL260554  42.883  39.902   5.863
 4586POPC   C1A60555  42.773  40.247   6.209
 4586POPC   D2A60556  42.815  39.943   6.546
 4586POPC   C3A60557  42.985  40.111   6.915
 4586POPC   C4A60558  43.309  40.152   7.224
 4586POPC   C1B60559  43.230  39.991   6.206
 4586POPC   C2B60560  43.317  39.788   6.630
 4586POPC   C3B60561  43.319  39.681   7.070
 4586POPC   C4B60562  43.394  39.727   7.515
 4587POPC   NC360563  12.289   6.764   5.215
 4587POPC   PO460564  11.688   6.523   5.385
 4587POPC   GL160565  12.082   6.490   5.609
 4587POPC   GL260566  12.042   6.768   5.769
 4587POPC   C1A60567  12.280   6.412   6.043
 4587POPC   D2A60568  12.272   6.507   6.482
 4587POPC   C3A60569  12.306   6.600   6.940
 4587POPC   C4A60570  11.951   6.626   7.229
 4587POPC   C1B60571  11.967   6.809   6.208
 4587POPC   C2B60572  12.130   7.004   6.607
 4587POPC   C3B60573  12.058   7.102   7.047
 4587POPC   C4B60574  12.275   7.338   7.328
 4588POPC   NC360575  34.319  44.789   5.235
 4588POPC   PO460576  34.753  44.406   5.548
 4588POPC   GL160577  34.474  44.530   5.835
 4588POPC   GL260578  34.418  44.859   5.746
 4588POPC   C1A60579  34.655  44.706   6.215
 4588POPC   D2A60580  34.895  44.677   6.615
 4588POPC   C3A60581  34.769  44.400   6.932
 4588POPC   C4A60582  34.702  44.504   7.345
 4588POPC   C1B60583  34.271   0.065   6.147
 4588POPC   C2B60584  34.472   0.026   6.568
 4588POPC   C3B60585  34.556  44.888   6.995
 4588POPC   C4B60586  34.236  44.736   7.284
 4589POPC   NC360587  12.248   1.372   5.265
 4589POPC   PO460588  11.829   0.923   5.496
 4589POPC   GL160589  11.945   1.089   5.901
 4589POPC   GL260590  12.076   1.396   5.786
 4589POPC   C1A60591  11.756   1.187   6.332
 4589POPC   D2A60592  11.828   1.292   6.789
 4589POPC   C3A60593  12.250   1.142   6.910
 4589POPC   C4A60594  12.382   0.754   7.127
 4589POPC   C1B60595  12.220   1.536   6.200
 4589POPC   C2B60596  12.515   1.482   6.563
 4589POPC   C3B60597  12.496   1.589   7.009
 4589POPC   C4B60598  12.166   1.479   7.293
 4590POPC   NC360599  19.004  13.408   5.313
 4590POPC   PO460600  19.060  13.969   4.994
 4590POPC   GL160601  19.035  13.823   5.565
 4590POPC   GL260602  18.799  13.602   5.742
 4590POPC   C1A60603  19.220  13.746   6.012
 4590POPC   D2A60604  19.184  13.445   6.387
 4590POPC   C3A60605  19.215  13.399   6.839
 4590POPC   C4A60606  19.230  13.755   7.115
 4590POPC   C1B60607  18.741  13.755   6.182
 4590POPC   C2B60608  18.716  13.575   6.604
 4590POPC   C3B60609  18.733  13.802   6.971
 4590POPC   C4B60610  18.677  13.792   7.401
 4591POPC   NC360611  31.697  27.009   4.983
 4591POPC   PO460612  31.318  26.789   5.553
 4591POPC   GL160613  31.341  26.854   5.961
 4591POPC   GL260614  31.663  27.064   5.935
 4591POPC   C1A60615  31.467  26.623   6.314
 4591POPC   D2A60616  31.300  26.431   6.648
 4591POPC   C3A60617  31.508  26.684   6.940
 4591POPC   C4A60618  31.470  26.765   7.350
 4591POPC   C1B60619  31.539  27.150   6.342
 4591POPC   C2B60620  31.626  27.184   6.775
 4591POPC   C3B60621  31.937  27.042   7.066
 4591POPC   C4B60622  32.011  27.027   7.485
 4592POPC   NC360623  12.323   7.738   5.441
 4592POPC   PO460624  12.106   7.126   5.415
 4592POPC   GL160625  11.935   7.430   5.713
 4592POPC   GL260626  12.135   7.240   5.956
 4592POPC   C1A60627  12.025   7.710   6.102
 4592POPC   D2A60628  12.287   7.517   6.461
 4592POPC   C3A60629  12.310   7.660   6.918
 4592POPC   C4A60630  12.225   7.848   7.365
 4592POPC   C1B60631  11.823   7.295   6.298
 4592POPC   C2B60632  11.854   7.461   6.725
 4592POPC   C3B60633  11.848   7.591   7.143
 4592POPC   C4B60634  11.778   7.318   7.501
 4593POPC   NC360635  35.534  33.148   5.435
 4593POPC   PO460636  34.916  32.978   5.512
 4593POPC   GL160637  35.230  33.004   5.825
 4593POPC   GL260638  35.524  32.768   5.800
 4593POPC   C1A60639  35.173  33.151   6.221
 4593POPC   D2A60640  35.158  32.958   6.617
 4593POPC   C3A60641  35.344  33.202   6.900
 4593POPC   C4A60642  35.229  33.372   7.255
 4593POPC   C1B60643  35.640  32.920   6.232
 4593POPC   C2B60644  35.694  32.871   6.702
 4593POPC   C3B60645  35.743  33.001   7.147
 4593POPC   C4B60646  35.733  32.936   7.603
 4594POPC   NC360647  25.650  37.811   5.483
 4594POPC   PO460648  24.998  37.633   5.424
 4594POPC   GL160649  25.243  37.680   5.814
 4594POPC   GL260650  25.557  37.453   5.834
 4594POPC   C1A60651  25.325  37.866   6.242
 4594POPC   D2A60652  25.051  37.962   6.622
 4594POPC   C3A60653  25.207  37.784   6.999
 4594POPC   C4A60654  25.610  38.020   7.065
 4594POPC   C1B60655  25.696  37.468   6.261
 4594POPC   C2B60656  25.510  37.582   6.644
 4594POPC   C3B60657  25.671  37.511   7.054
 4594POPC   C4B60658  25.543  37.438   7.465
 4595POPC   NC360659   7.070  15.711   5.305
 4595POPC   PO460660   7.611  15.475   5.457
 4595POPC   GL160661   7.373  15.785   5.701
 4595POPC   GL260662   7.563  16.110   5.687
 4595POPC   C1A60663   7.213  15.882   6.112
 4595POPC   D2A60664   7.225  15.630   6.507
 4595POPC   C3A60665   7.075  15.820   6.847
 4595POPC   C4A60666   7.092  16.188   7.112
 4595POPC   C1B60667   7.727  15.845   6.053
 4595POPC   C2B60668   7.713  15.868   6.491
 4595POPC   C3B60669   7.548  15.996   6.891
 4595POPC   C4B60670   7.605  16.256   7.236
 4596POPC   NC360671   5.238  28.855   5.256
 4596POPC   PO460672   4.798  29.334   5.466
 4596POPC   GL160673   5.052  29.283   5.831
 4596POPC   GL260674   5.207  28.960   5.807
 4596POPC   C1A60675   5.009  29.126   6.263
 4596POPC   D2A60676   4.956  28.968   6.686
 4596POPC   C3A60677   5.164  29.198   7.000
 4596POPC   C4A60678   5.148  29.417   7.391
 4596POPC   C1B60679   5.408  28.799   6.204
 4596POPC   C2B60680   5.599  28.800   6.598
 4596POPC   C3B60681   5.418  28.748   6.985
 4596POPC   C4B60682   5.554  28.587   7.367
 4597POPC   NC360683  36.618  19.654   5.427
 4597POPC   PO460684  36.944  19.038   5.468
 4597POPC   GL160685  36.861  19.340   5.795
 4597POPC   GL260686  37.152  19.285   6.018
 4597POPC   C1A60687  36.674  19.341   6.209
 4597POPC   D2A60688  36.780  19.061   6.536
 4597POPC   C3A60689  36.950  19.202   6.914
 4597POPC   C4A60690  36.717  19.173   7.263
 4597POPC   C1B60691  36.962  18.853   6.096
 4597POPC   C2B60692  37.002  18.577   6.451
 4597POPC   C3B60693  37.008  18.707   6.850
 4597POPC   C4B60694  37.137  18.870   7.249
 4598POPC   NC360695  34.612  33.344   5.511
 4598POPC   PO460696  34.280  32.800   5.302
 4598POPC   GL160697  34.401  32.903   5.742
 4598POPC   GL260698  34.711  32.877   5.947
 4598POPC   C1A60699  34.257  32.849   6.186
 4598POPC   D2A60700  34.246  33.083   6.582
 4598POPC   C3A60701  34.513  32.954   6.895
 4598POPC   C4A60702  34.871  33.067   7.078
 4598POPC   C1B60703  34.649  33.216   6.209
 4598POPC   C2B60704  34.755  33.329   6.609
 4598POPC   C3B60705  34.515  33.474   6.945
 4598POPC   C4B60706  34.723  33.514   7.311
 4599POPC   NC360707  27.845  41.943   5.704
 4599POPC   PO460708  27.784  41.549   5.180
 4599POPC   GL160709  27.638  41.352   5.749
 4599POPC   GL260710  27.297  41.203   5.792
 4599POPC   C1A60711  27.674  41.513   6.231
 4599POPC   D2A60712  27.843  41.564   6.695
 4599POPC   C3A60713  27.580  41.670   7.065
 4599POPC   C4A60714  27.339  41.901   7.391
 4599POPC   C1B60715  27.198  41.320   6.217
 4599POPC   C2B60716  27.316  41.485   6.624
 4599POPC   C3B60717  27.241  41.292   7.004
 4599POPC   C4B60718  27.636  41.154   7.174
 4600POPC   NC360719  26.843  43.572   5.190
 4600POPC   PO460720  26.649  42.991   5.211
 4600POPC   GL160721  26.630  42.961   5.663
 4600POPC   GL260722  26.483  42.670   5.748
 4600POPC   C1A60723  26.794  43.036   6.119
 4600POPC   D2A60724  26.954  42.889   6.564
 4600POPC   C3A60725  26.975  43.076   7.017
 4600POPC   C4A60726  27.213  43.154   7.422
 4600POPC   C1B60727  26.314  42.845   6.152
 4600POPC   C2B60728  26.251  42.783   6.614
 4600POPC   C3B60729  26.224  42.938   7.055
 4600POPC   C4B60730  26.479  43.037   7.429
 4601POPC   NC360731  28.748  13.055   5.354
 4601POPC   PO460732  28.354  13.657   5.361
 4601POPC   GL160733  28.259  13.632   5.746
 4601POPC   GL260734  28.176  13.291   5.756
 4601POPC   C1A60735  28.449  13.561   6.127
 4601POPC   D2A60736  28.641  13.693   6.471
 4601POPC   C3A60737  28.498  13.644   6.880
 4601POPC   C4A60738  28.699  13.528   7.235
 4601POPC   C1B60739  27.995  13.333   6.183
 4601POPC   C2B60740  27.870  13.366   6.628
 4601POPC   C3B60741  28.056  13.414   7.039
 4601POPC   C4B60742  27.902  13.333   7.473
 4602POPC   NC360743   8.435  21.270   5.218
 4602POPC   PO460744   8.000  21.701   5.432
 4602POPC   GL160745   8.151  21.460   5.774
 4602POPC   GL260746   8.489  21.348   5.746
 4602POPC   C1A60747   8.168  21.552   6.210
 4602POPC   D2A60748   8.507  21.682   6.492
 4602POPC   C3A60749   8.346  21.657   6.890
 4602POPC   C4A60750   8.019  21.395   7.003
 4602POPC   C1B60751   8.596  21.280   6.187
 4602POPC   C2B60752   8.464  21.192   6.645
 4602POPC   C3B60753   8.446  21.100   7.108
 4602POPC   C4B60754   8.721  21.178   7.490
 4603POPC   NC360755   5.923   0.143   5.301
 4603POPC   PO460756   5.547   0.680   5.248
 4603POPC   GL160757   5.720   0.642   5.681
 4603POPC   GL260758   6.040   0.442   5.700
 4603POPC   C1A60759   5.634   0.486   6.117
 4603POPC   D2A60760   5.532   0.721   6.510
 4603POPC   C3A60761   5.617   0.488   6.878
 4603POPC   C4A60762   5.833   0.536   7.245
 4603POPC   C1B60763   6.167   0.546   6.098
 4603POPC   C2B60764   6.013   0.514   6.495
 4603POPC   C3B60765   6.161   0.626   6.876
 4603POPC   C4B60766   6.421   0.317   7.131
 4604POPC   NC360767  26.561  37.889   5.344
 4604POPC   PO460768  25.987  37.502   5.492
 4604POPC   GL160769  26.027  37.671   5.879
 4604POPC   GL260770  26.325  37.541   5.911
 4604POPC   C1A60771  26.118  37.807   6.315
 4604POPC   D2A60772  25.957  37.804   6.732
 4604POPC   C3A60773  26.123  37.971   7.116
 4604POPC   C4A60774  25.928  37.763   7.473
 4604POPC   C1B60775  26.212  37.320   6.277
 4604POPC   C2B60776  26.085  37.296   6.693
 4604POPC   C3B60777  26.185  37.465   7.085
 4604POPC   C4B60778  26.414  37.648   7.421
 4605POPC   NC360779  12.342  44.030   5.322
 4605POPC   PO460780  11.795  43.710   5.525
 4605POPC   GL160781  12.073  43.948   5.750
 4605POPC   GL260782  12.250  43.664   5.785
 4605POPC   C1A60783  12.037  43.996   6.176
 4605POPC   D2A60784  11.690  43.921   6.429
 4605POPC   C3A60785  11.849  43.883   6.797
 4605POPC   C4A60786  11.945  43.920   7.180
 4605POPC   C1B60787  12.381  43.604   6.166
 4605POPC   C2B60788  12.174  43.588   6.544
 4605POPC   C3B60789  12.315  43.503   6.951
 4605POPC   C4B60790  12.219  43.564   7.364
 4606POPC   NC360791  25.240  12.749   5.462
 4606POPC   PO460792  25.902  12.487   5.429
 4606POPC   GL160793  25.615  12.608   5.767
 4606POPC   GL260794  25.553  12.988   5.784
 4606POPC   C1A60795  25.351  12.698   6.140
 4606POPC   D2A60796  24.920  12.690   6.303
 4606POPC   C3A60797  24.871  12.642   6.748
 4606POPC   C4A60798  24.996  12.876   7.082
 4606POPC   C1B60799  25.595  13.152   6.220
 4606POPC   C2B60800  25.328  12.981   6.569
 4606POPC   C3B60801  25.481  12.862   6.950
 4606POPC   C4B60802  25.440  12.761   7.360
 4607POPC   NC360803  37.151  21.279   5.359
 4607POPC   PO460804  36.592  21.638   5.435
 4607POPC   GL160805  36.858  21.483   5.779
 4607POPC   GL260806  36.967  21.139   5.845
 4607POPC   C1A60807  36.898  21.577   6.217
 4607POPC   D2A60808  36.977  21.463   6.623
 4607POPC   C3A60809  36.653  21.480   6.921
 4607POPC   C4A60810  36.611  21.722   7.294
 4607POPC   C1B60811  37.236  21.205   6.221
 4607POPC   C2B60812  37.421  21.204   6.629
 4607POPC   C3B60813  37.210  21.043   6.997
 4607POPC   C4B60814  37.030  21.157   7.398
 4608POPC   NC360815  18.885  33.071   5.265
 4608POPC   PO460816  19.416  32.701   5.143
 4608POPC   GL160817  19.259  32.860   5.619
 4608POPC   GL260818  18.920  32.898   5.752
 4608POPC   C1A60819  19.247  32.860   6.148
 4608POPC   D2A60820  19.053  32.857   6.612
 4608POPC   C3A60821  19.219  33.045   6.995
 4608POPC   C4A60822  19.254  33.043   7.455
 4608POPC   C1B60823  18.814  33.170   6.100
 4608POPC   C2B60824  18.669  33.198   6.532
 4608POPC   C3B60825  18.721  33.166   6.969
 4608POPC   C4B60826  18.805  32.796   7.188
 4609POPC   NC360827  27.143  40.532   5.433
 4609POPC   PO460828  26.896  41.130   5.371
 4609POPC   GL160829  26.828  40.915   5.798
 4609POPC   GL260830  26.541  40.641   5.815
 4609POPC   C1A60831  26.698  41.063   6.214
 4609POPC   D2A60832  26.939  41.101   6.610
 4609POPC   C3A60833  26.837  40.928   6.999
 4609POPC   C4A60834  26.691  40.761   7.395
 4609POPC   C1B60835  26.746  40.563   6.223
 4609POPC   C2B60836  26.927  40.563   6.649
 4609POPC   C3B60837  26.651  40.444   6.986
 4609POPC   C4B60838  26.604  40.249   7.373
 4610POPC   NC360839  20.274  40.967   5.369
 4610POPC   PO460840  20.929  40.561   5.347
 4610POPC   GL160841  20.668  40.762   5.656
 4610POPC   GL260842  20.763  41.114   5.631
 4610POPC   C1A60843  20.539  40.681   6.087
 4610POPC   D2A60844  20.701  40.699   6.477
 4610POPC   C3A60845  20.426  40.681   6.810
 4610POPC   C4A60846  20.748  40.586   7.091
 4610POPC   C1B60847  20.705  41.174   6.077
 4610POPC   C2B60848  20.711  41.200   6.510
 4610POPC   C3B60849  20.670  41.108   6.920
 4610POPC   C4B60850  20.612  41.004   7.337
 4611POPC   NC360851   5.557  42.423   5.702
 4611POPC   PO460852   6.084  42.685   5.315
 4611POPC   GL160853   6.102  42.562   5.737
 4611POPC   GL260854   6.201  42.882   5.804
 4611POPC   C1A60855   6.036  42.341   6.157
 4611POPC   D2A60856   5.766  42.421   6.505
 4611POPC   C3A60857   5.862  42.205   6.884
 4611POPC   C4A60858   5.609  42.127   7.228
 4611POPC   C1B60859   5.870  42.827   6.122
 4611POPC   C2B60860   5.809  42.926   6.548
 4611POPC   C3B60861   5.855  42.726   6.939
 4611POPC   C4B60862   5.975  42.506   7.305
 4612POPC   NC360863  15.106   0.187   5.483
 4612POPC   PO460864  15.201   0.885   5.369
 4612POPC   GL160865  15.126   0.677   5.745
 4612POPC   GL260866  15.392   0.425   5.835
 4612POPC   C1A60867  15.100   0.665   6.184
 4612POPC   D2A60868  15.298   0.491   6.543
 4612POPC   C3A60869  15.098   0.581   6.953
 4612POPC   C4A60870  15.445   0.459   7.196
 4612POPC   C1B60871  15.256   0.118   6.141
 4612POPC   C2B60872  15.420  44.971   6.527
 4612POPC   C3B60873  15.206   0.093   6.871
 4612POPC   C4B60874  15.066   0.048   7.268
 4613POPC   NC360875  16.025  39.412   5.167
 4613POPC   PO460876  15.757  38.988   5.624
 4613POPC   GL160877  15.964  39.253   5.901
 4613POPC   GL260878  16.207  39.451   5.709
 4613POPC   C1A60879  15.860  39.260   6.341
 4613POPC   D2A60880  15.841  38.936   6.663
 4613POPC   C3A60881  16.022  39.000   7.099
 4613POPC   C4A60882  15.753  39.048   7.463
 4613POPC   C1B60883  16.292  39.528   6.161
 4613POPC   C2B60884  16.331  39.317   6.570
 4613POPC   C3B60885  16.261  39.471   6.986
 4613POPC   C4B60886  16.050  39.441   7.392
 4614POPC   NC360887  35.534  41.149   5.561
 4614POPC   PO460888  34.970  40.717   5.500
 4614POPC   GL160889  35.256  40.773   5.825
 4614POPC   GL260890  35.088  41.082   5.861
 4614POPC   C1A60891  35.573  40.741   6.178
 4614POPC   D2A60892  35.707  40.781   6.624
 4614POPC   C3A60893  35.593  40.489   6.970
 4614POPC   C4A60894  35.373  40.625   7.343
 4614POPC   C1B60895  35.241  41.172   6.239
 4614POPC   C2B60896  35.069  41.105   6.633
 4614POPC   C3B60897  35.269  40.981   6.991
 4614POPC   C4B60898  35.687  41.025   7.131
 4615POPC   NC360899  22.486  37.169   5.509
 4615POPC   PO460900  22.232  36.603   5.297
 4615POPC   GL160901  22.309  36.692   5.752
 4615POPC   GL260902  22.189  36.997   5.864
 4615POPC   C1A60903  22.186  36.633   6.208
 4615POPC   D2A60904  22.380  36.621   6.604
 4615POPC   C3A60905  22.185  36.749   6.994
 4615POPC   C4A60906  22.259  36.790   7.418
 4615POPC   C1B60907  22.021  37.126   6.237
 4615POPC   C2B60908  22.167  37.095   6.635
 4615POPC   C3B60909  22.050  37.248   7.040
 4615POPC   C4B60910  22.296  37.508   7.287
 4616POPC   NC360911   4.596  34.659   5.358
 4616POPC   PO460912   5.348  34.450   5.422
 4616POPC   GL160913   5.088  34.564   5.769
 4616POPC   GL260914   4.830  34.351   5.872
 4616POPC   C1A60915   5.096  34.753   6.161
 4616POPC   D2A60916   5.203  34.636   6.574
 4616POPC   C3A60917   5.223  34.850   6.950
 4616POPC   C4A60918   5.302  34.570   7.276
 4616POPC   C1B60919   4.593  34.652   6.145
 4616POPC   C2B60920   4.676  34.706   6.597
 4616POPC   C3B60921   4.767  34.661   7.061
 4616POPC   C4B60922   4.485  34.641   7.424
 4617POPC   NC360923  20.202  31.540   5.352
 4617POPC   PO460924  20.808  31.279   5.405
 4617POPC   GL160925  20.685  31.581   5.722
 4617POPC   GL260926  20.343  31.721   5.793
 4617POPC   C1A60927  20.749  31.569   6.160
 4617POPC   D2A60928  20.982  31.670   6.530
 4617POPC   C3A60929  20.750  31.692   6.872
 4617POPC   C4A60930  20.847  31.477   7.233
 4617POPC   C1B60931  20.213  31.647   6.220
 4617POPC   C2B60932  20.404  31.416   6.559
 4617POPC   C3B60933  20.446  31.319   7.000
 4617POPC   C4B60934  20.427  31.161   7.413
 4618POPC   NC360935  20.184  34.528   5.589
 4618POPC   PO460936  19.748  34.799   5.163
 4618POPC   GL160937  19.688  34.704   5.680
 4618POPC   GL260938  19.890  34.938   5.824
 4618POPC   C1A60939  19.562  34.419   6.117
 4618POPC   D2A60940  19.438  34.368   6.615
 4618POPC   C3A60941  19.708  34.429   7.025
 4618POPC   C4A60942  19.686  34.249   7.483
 4618POPC   C1B60943  19.928  34.758   6.231
 4618POPC   C2B60944  20.117  34.856   6.624
 4618POPC   C3B60945  19.994  34.864   7.057
 4618POPC   C4B60946  20.100  34.541   7.353
 4619POPC   NC360947  18.935  35.577   5.446
 4619POPC   PO460948  19.227  35.058   5.516
 4619POPC   GL160949  18.976  35.120   5.850
 4619POPC   GL260950  19.130  35.426   5.886
 4619POPC   C1A60951  18.967  35.150   6.281
 4619POPC   D2A60952  19.159  35.372   6.561
 4619POPC   C3A60953  19.021  35.153   6.923
 4619POPC   C4A60954  19.227  35.307   7.256
 4619POPC   C1B60955  18.785  35.586   6.129
 4619POPC   C2B60956  18.755  35.732   6.571
 4619POPC   C3B60957  18.951  35.645   6.957
 4619POPC   C4B60958  19.148  35.784   7.349
 4620POPC   NC360959  16.209  37.078   5.474
 4620POPC   PO460960  15.627  36.671   5.376
 4620POPC   GL160961  15.749  36.815   5.789
 4620POPC   GL260962  15.759  36.459   5.885
 4620POPC   C1A60963  15.897  37.115   6.137
 4620POPC   D2A60964  16.203  37.181   6.504
 4620POPC   C3A60965  16.010  37.141   6.912
 4620POPC   C4A60966  16.116  36.838   7.238
 4620POPC   C1B60967  15.907  36.501   6.280
 4620POPC   C2B60968  15.818  36.799   6.561
 4620POPC   C3B60969  15.684  36.710   6.947
 4620POPC   C4B60970  15.623  36.711   7.336
 4621POPC   NC360971  36.263  24.631   5.227
 4621POPC   PO460972  35.862  24.166   5.572
 4621POPC   GL160973  36.015  24.387   5.954
 4621POPC   GL260974  36.243  24.617   5.789
 4621POPC   C1A60975  35.958  24.445   6.366
 4621POPC   D2A60976  36.014  24.611   6.763
 4621POPC   C3A60977  36.185  24.372   7.069
 4621POPC   C4A60978  36.024  24.329   7.430
 4621POPC   C1B60979  36.481  24.517   6.183
 4621POPC   C2B60980  36.515  24.656   6.625
 4621POPC   C3B60981  36.468  24.802   7.073
 4621POPC   C4B60982  36.369  24.696   7.535
 4622POPC   NC360983  11.577  39.667   5.571
 4622POPC   PO460984  11.216  39.044   5.415
 4622POPC   GL160985  11.373  39.054   5.812
 4622POPC   GL260986  11.305  39.371   5.860
 4622POPC   C1A60987  11.168  39.049   6.234
 4622POPC   D2A60988  11.298  38.920   6.664
 4622POPC   C3A60989  11.068  39.104   7.005
 4622POPC   C4A60990  11.098  39.533   7.150
 4622POPC   C1B60991  11.274  39.625   6.205
 4622POPC   C2B60992  11.214  39.499   6.612
 4622POPC   C3B60993  11.506  39.363   6.867
 4622POPC   C4B60994  11.651  39.686   7.070
 4623POPC   NC360995  11.634  44.155   5.517
 4623POPC   PO460996  11.136  43.654   5.348
 4623POPC   GL160997  11.286  43.805   5.729
 4623POPC   GL260998  11.122  44.138   5.754
 4623POPC   C1A60999  11.397  43.610   6.118
 4623POPC   D2A61000  11.207  43.593   6.532
 4623POPC   C3A61001  11.402  43.645   6.907
 4623POPC   C4A61002  11.326  43.700   7.337
 4623POPC   C1B61003  11.290  44.118   6.174
 4623POPC   C2B61004  11.247  44.081   6.644
 4623POPC   C3B61005  11.478  44.141   7.040
 4623POPC   C4B61006  11.412  44.195   7.474
 4624POPC   NC361007   5.964  14.439   5.382
 4624POPC   PO461008   5.537  14.882   5.330
 4624POPC   GL161009   5.591  14.649   5.714
 4624POPC   GL261010   5.404  14.884   5.864
 4624POPC   C1A61011   5.784  14.438   6.114
 4624POPC   D2A61012   5.841  14.168   6.525
 4624POPC   C3A61013   5.601  14.314   6.915
 4624POPC   C4A61014   5.587  14.495   7.358
 4624POPC   C1B61015   5.555  14.918   6.264
 4624POPC   C2B61016   5.743  14.692   6.590
 4624POPC   C3B61017   5.692  14.819   6.988
 4624POPC   C4B61018   5.567  15.028   7.360
 4625POPC   NC361019  12.395   8.780   4.879
 4625POPC   PO461020  11.991   9.086   5.288
 4625POPC   GL161021  11.953   8.981   5.736
 4625POPC   GL261022  11.731   9.208   5.886
 4625POPC   C1A61023  12.056   8.998   6.212
 4625POPC   D2A61024  12.186   9.270   6.578
 4625POPC   C3A61025  12.359   9.119   6.987
 4625POPC   C4A61026  12.310   9.251   7.425
 4625POPC   C1B61027  11.745   9.464   6.305
 4625POPC   C2B61028  11.772   9.515   6.774
 4625POPC   C3B61029  11.880   9.220   7.119
 4625POPC   C4B61030  11.819   9.211   7.567
 4626POPC   NC361031   6.783  38.701   5.416
 4626POPC   PO461032   6.262  38.281   5.381
 4626POPC   GL161033   6.573  38.353   5.740
 4626POPC   GL261034   6.526  38.676   5.891
 4626POPC   C1A61035   6.875  38.363   6.120
 4626POPC   D2A61036   6.898  38.251   6.558
 4626POPC   C3A61037   7.040  38.510   6.897
 4626POPC   C4A61038   6.842  38.575   7.314
 4626POPC   C1B61039   6.378  38.377   6.248
 4626POPC   C2B61040   6.413  38.217   6.710
 4626POPC   C3B61041   6.541  38.198   7.193
 4626POPC   C4B61042   6.520  38.370   7.667
 4627POPC   NC361043  13.966  33.442   5.443
 4627POPC   PO461044  14.675  33.485   5.402
 4627POPC   GL161045  14.606  33.753   5.762
 4627POPC   GL261046  14.226  33.797   5.770
 4627POPC   C1A61047  14.702  33.862   6.209
 4627POPC   D2A61048  14.487  33.878   6.614
 4627POPC   C3A61049  14.617  33.811   7.055
 4627POPC   C4A61050  14.621  33.776   7.545
 4627POPC   C1B61051  13.941  33.997   6.095
 4627POPC   C2B61052  14.002  34.160   6.527
 4627POPC   C3B61053  14.046  33.891   6.892
 4627POPC   C4B61054  14.172  33.817   7.316
 4628POPC   NC361055  34.165  27.484   5.537
 4628POPC   PO461056  33.643  27.724   5.288
 4628POPC   GL161057  33.684  27.685   5.696
 4628POPC   GL261058  33.600  27.987   5.794
 4628POPC   C1A61059  33.701  27.512   6.099
 4628POPC   D2A61060  33.512  27.511   6.503
 4628POPC   C3A61061  33.794  27.559   6.843
 4628POPC   C4A61062  33.846  27.367   7.241
 4628POPC   C1B61063  33.372  27.911   6.157
 4628POPC   C2B61064  33.473  28.039   6.578
 4628POPC   C3B61065  33.332  27.818   6.930
 4628POPC   C4B61066  33.416  27.673   7.336
 4629POPC   NC361067  36.071  16.948   5.311
 4629POPC   PO461068  36.219  17.571   5.255
 4629POPC   GL161069  36.356  17.686   5.724
 4629POPC   GL261070  36.047  17.813   5.891
 4629POPC   C1A61071  36.439  17.684   6.201
 4629POPC   D2A61072  36.255  17.462   6.588
 4629POPC   C3A61073  36.361  17.596   6.973
 4629POPC   C4A61074  36.167  17.729   7.306
 4629POPC   C1B61075  35.926  17.478   6.198
 4629POPC   C2B61076  35.761  17.306   6.583
 4629POPC   C3B61077  35.903  17.317   6.970
 4629POPC   C4B61078  35.753  17.399   7.344
 4630POPC   NC361079  25.198  20.406   5.603
 4630POPC   PO461080  25.165  21.068   5.567
 4630POPC   GL161081  25.156  20.833   5.912
 4630POPC   GL261082  24.898  20.603   5.966
 4630POPC   C1A61083  25.267  21.002   6.272
 4630POPC   D2A61084  25.131  21.112   6.658
 4630POPC   C3A61085  25.158  20.743   6.882
 4630POPC   C4A61086  25.336  20.659   7.252
 4630POPC   C1B61087  25.031  20.267   6.248
 4630POPC   C2B61088  25.008  20.084   6.662
 4630POPC   C3B61089  25.121  20.216   7.077
 4630POPC   C4B61090  24.898  20.380   7.416
 4631POPC   NC361091  10.765  45.000   5.652
 4631POPC   PO461092  10.497  44.397   5.241
 4631POPC   GL161093  10.336  44.367   5.695
 4631POPC   GL261094  10.672  44.482   5.739
 4631POPC   C1A61095  10.323  44.528   6.162
 4631POPC   D2A61096  10.533  44.691   6.562
 4631POPC   C3A61097  10.311  44.893   6.914
 4631POPC   C4A61098  10.188  44.935   7.337
 4631POPC   C1B61099  10.781  44.288   6.121
 4631POPC   C2B61100  10.758  44.235   6.570
 4631POPC   C3B61101  10.622  44.357   6.968
 4631POPC   C4B61102  10.215  44.427   7.126
 4632POPC   NC361103  43.644   3.969   5.359
 4632POPC   PO461104  44.231   4.294   5.433
 4632POPC   GL161105  44.188   4.354   5.859
 4632POPC   GL261106  43.816   4.397   5.925
 4632POPC   C1A61107  44.210   4.484   6.263
 4632POPC   D2A61108  44.478   4.540   6.618
 4632POPC   C3A61109  44.300   4.342   7.002
 4632POPC   C4A61110  43.859   4.404   7.137
 4632POPC   C1B61111  43.601   4.271   6.311
 4632POPC   C2B61112  43.514   4.197   6.766
 4632POPC   C3B61113  43.362   4.261   7.195
 4632POPC   C4B61114  43.509   4.473   7.529
 4633POPC   NC361115  42.914  44.075   5.332
 4633POPC   PO461116  43.386  43.691   5.592
 4633POPC   GL161117  43.068  43.762   5.770
 4633POPC   GL261118  42.886  43.481   5.586
 4633POPC   C1A61119  42.952  43.911   6.183
 4633POPC   D2A61120  43.205  43.988   6.516
 4633POPC   C3A61121  43.072  43.839   6.900
 4633POPC   C4A61122  42.828  43.999   7.228
 4633POPC   C1B61123  42.792  43.441   6.038
 4633POPC   C2B61124  42.965  43.476   6.475
 4633POPC   C3B61125  42.910  43.356   6.908
 4633POPC   C4B61126  42.762  43.377   7.335
 4634POPC   NC361127   0.351  42.091   5.540
 4634POPC   PO461128   0.816  42.556   5.422
 4634POPC   GL161129   0.548  42.546   5.789
 4634POPC   GL261130   0.169  42.485   5.786
 4634POPC   C1A61131   0.473  42.524   6.228
 4634POPC   D2A61132   0.352  42.331   6.595
 4634POPC   C3A61133   0.497  42.562   6.912
 4634POPC   C4A61134   0.398  42.323   7.220
 4634POPC   C1B61135  44.993  42.636   6.150
 4634POPC   C2B61136   0.128  42.787   6.597
 4634POPC   C3B61137   0.013  42.650   7.028
 4634POPC   C4B61138   0.167  42.690   7.485
 4635POPC   NC361139  33.902   3.211   5.239
 4635POPC   PO461140  33.751   2.660   5.325
 4635POPC   GL161141  33.914   2.893   5.682
 4635POPC   GL261142  33.755   2.595   5.850
 4635POPC   C1A61143  33.829   3.038   6.117
 4635POPC   D2A61144  33.700   2.764   6.465
 4635POPC   C3A61145  33.594   2.939   6.874
 4635POPC   C4A61146  33.363   2.702   7.189
 4635POPC   C1B61147  34.119   2.625   6.139
 4635POPC   C2B61148  34.195   2.880   6.497
 4635POPC   C3B61149  34.066   2.718   6.878
 4635POPC   C4B61150  33.882   2.764   7.262
 4636POPC   NC361151  21.095  26.537   5.441
 4636POPC   PO461152  21.639  26.806   5.434
 4636POPC   GL161153  21.459  26.670   5.810
 4636POPC   GL261154  21.164  26.922   5.797
 4636POPC   C1A61155  21.391  26.538   6.259
 4636POPC   D2A61156  21.435  26.904   6.501
 4636POPC   C3A61157  21.361  26.980   6.927
 4636POPC   C4A61158  21.555  26.803   7.292
 4636POPC   C1B61159  21.135  27.212   6.188
 4636POPC   C2B61160  20.979  27.143   6.605
 4636POPC   C3B61161  20.829  27.033   7.008
 4636POPC   C4B61162  21.041  26.794   7.313
 4637POPC   NC361163   9.959  33.849   5.328
 4637POPC   PO461164   9.283  33.617   5.426
 4637POPC   GL161165   9.604  33.654   5.749
 4637POPC   GL261166   9.751  33.968   5.770
 4637POPC   C1A61167   9.590  33.668   6.202
 4637POPC   D2A61168   9.854  33.769   6.566
 4637POPC   C3A61169   9.697  33.634   6.978
 4637POPC   C4A61170   9.302  33.611   7.162
 4637POPC   C1B61171   9.894  34.103   6.161
 4637POPC   C2B61172   9.870  34.323   6.544
 4637POPC   C3B61173   9.860  34.118   6.932
 4637POPC   C4B61174   9.606  34.039   7.282
 4638POPC   NC361175  36.582  35.088   5.074
 4638POPC   PO461176  36.781  34.562   5.312
 4638POPC   GL161177  36.781  34.636   5.807
 4638POPC   GL261178  36.871  34.323   6.007
 4638POPC   C1A61179  36.619  34.729   6.255
 4638POPC   D2A61180  36.465  34.685   6.699
 4638POPC   C3A61181  36.780  34.489   6.985
 4638POPC   C4A61182  37.100  34.691   7.248
 4638POPC   C1B61183  36.981  34.402   6.456
 4638POPC   C2B61184  37.272  34.488   6.795
 4638POPC   C3B61185  37.407  34.295   7.170
 4638POPC   C4B61186  37.427  34.439   7.595
 4639POPC   NC361187  43.139  38.946   5.265
 4639POPC   PO461188  42.982  39.572   5.415
 4639POPC   GL161189  43.067  39.424   5.808
 4639POPC   GL261190  43.081  39.084   5.755
 4639POPC   C1A61191  43.022  39.528   6.248
 4639POPC   D2A61192  43.008  39.369   6.654
 4639POPC   C3A61193  42.833  39.554   7.011
 4639POPC   C4A61194  43.002  39.402   7.435
 4639POPC   C1B61195  43.311  39.105   6.144
 4639POPC   C2B61196  43.499  39.261   6.526
 4639POPC   C3B61197  43.404  39.199   6.957
 4639POPC   C4B61198  43.258  38.931   7.285
 4640POPC   NC361199  27.459  11.227   5.213
 4640POPC   PO461200  27.820  11.775   5.320
 4640POPC   GL161201  27.529  11.535   5.647
 4640POPC   GL261202  27.569  11.165   5.733
 4640POPC   C1A61203  27.265  11.447   6.038
 4640POPC   D2A61204  27.283  11.583   6.483
 4640POPC   C3A61205  27.540  11.293   6.753
 4640POPC   C4A61206  27.572  11.366   7.196
 4640POPC   C1B61207  27.682  11.207   6.193
 4640POPC   C2B61208  27.968  11.084   6.503
 4640POPC   C3B61209  27.976  10.933   6.907
 4640POPC   C4B61210  28.037  11.107   7.330
 4641POPC   NC361211  14.572  28.498   5.522
 4641POPC   PO461212  14.026  28.599   5.522
 4641POPC   GL161213  14.256  28.678   5.900
 4641POPC   GL261214  14.309  28.333   5.943
 4641POPC   C1A61215  14.364  28.616   6.356
 4641POPC   D2A61216  14.448  28.334   6.695
 4641POPC   C3A61217  14.305  28.439   7.100
 4641POPC   C4A61218  14.233  28.852   7.285
 4641POPC   C1B61219  14.110  28.151   6.304
 4641POPC   C2B61220  14.061  27.969   6.718
 4641POPC   C3B61221  13.926  28.104   7.114
 4641POPC   C4B61222  14.196  28.038   7.461
 4642POPC   NC361223  11.658  20.239   5.388
 4642POPC   PO461224  11.025  19.812   5.281
 4642POPC   GL161225  11.316  19.846   5.616
 4642POPC   GL261226  11.242  20.193   5.715
 4642POPC   C1A61227  11.316  19.761   6.070
 4642POPC   D2A61228  11.085  19.742   6.466
 4642POPC   C3A61229  11.309  19.563   6.818
 4642POPC   C4A61230  11.215  19.663   7.241
 4642POPC   C1B61231  11.347  20.262   6.153
 4642POPC   C2B61232  11.502  20.072   6.524
 4642POPC   C3B61233  11.253  20.079   6.903
 4642POPC   C4B61234  11.049  20.131   7.282
 4643POPC   NC361235  42.100  31.522   5.179
 4643POPC   PO461236  41.559  31.446   5.487
 4643POPC   GL161237  41.735  31.349   5.884
 4643POPC   GL261238  41.507  31.157   5.951
 4643POPC   C1A61239  41.719  31.403   6.347
 4643POPC   D2A61240  41.463  31.449   6.717
 4643POPC   C3A61241  41.710  31.386   7.063
 4643POPC   C4A61242  42.001  31.724   7.186
 4643POPC   C1B61243  41.246  31.203   6.291
 4643POPC   C2B61244  41.221  31.015   6.660
 4643POPC   C3B61245  41.159  31.157   7.041
 4643POPC   C4B61246  41.359  31.208   7.407
 4644POPC   NC361247   2.668  30.845   5.343
 4644POPC   PO461248   2.674  30.237   5.468
 4644POPC   GL161249   2.927  30.552   5.706
 4644POPC   GL261250   2.703  30.835   5.846
 4644POPC   C1A61251   3.070  30.621   6.125
 4644POPC   D2A61252   2.817  30.563   6.481
 4644POPC   C3A61253   2.972  30.660   6.878
 4644POPC   C4A61254   2.933  30.524   7.296
 4644POPC   C1B61255   2.416  30.619   6.158
 4644POPC   C2B61256   2.305  30.569   6.629
 4644POPC   C3B61257   2.491  30.701   7.053
 4644POPC   C4B61258   2.640  30.944   7.428
 4645POPC   NC361259  13.860  32.647   5.634
 4645POPC   PO461260  13.778  33.115   5.161
 4645POPC   GL161261  13.501  33.178   5.622
 4645POPC   GL261262  13.502  32.854   5.899
 4645POPC   C1A61263  13.357  33.293   6.063
 4645POPC   D2A61264  13.521  33.038   6.397
 4645POPC   C3A61265  13.645  33.114   6.803
 4645POPC   C4A61266  13.434  33.089   7.190
 4645POPC   C1B61267  13.834  32.678   6.261
 4645POPC   C2B61268  13.997  32.480   6.655
 4645POPC   C3B61269  13.819  32.654   6.998
 4645POPC   C4B61270  13.881  32.864   7.353
 4646POPC   NC361271  39.173  44.070   5.211
 4646POPC   PO461272  39.605  43.561   5.386
 4646POPC   GL161273  39.656  43.758   5.827
 4646POPC   GL261274  39.531  44.089   5.731
 4646POPC   C1A61275  39.611  43.789   6.319
 4646POPC   D2A61276  39.551  43.858   6.778
 4646POPC   C3A61277  39.233  43.713   7.056
 4646POPC   C4A61278  39.317  43.341   7.292
 4646POPC   C1B61279  39.223  44.066   6.093
 4646POPC   C2B61280  39.211  44.194   6.544
 4646POPC   C3B61281  39.287  44.245   7.006
 4646POPC   C4B61282  39.050  44.381   7.395
 4647POPC   NC361283  35.402  22.207   4.872
 4647POPC   PO461284  35.157  22.152   5.508
 4647POPC   GL161285  35.354  22.032   5.895
 4647POPC   GL261286  35.383  22.377   5.927
 4647POPC   C1A61287  35.433  22.058   6.359
 4647POPC   D2A61288  35.168  22.157   6.724
 4647POPC   C3A61289  35.312  22.013   7.140
 4647POPC   C4A61290  35.629  21.678   7.239
 4647POPC   C1B61291  35.115  22.458   6.283
 4647POPC   C2B61292  35.139  22.696   6.661
 4647POPC   C3B61293  35.250  22.541   7.070
 4647POPC   C4B61294  35.269  22.434   7.496
 4648POPC   NC361295  22.496  36.249   5.540
 4648POPC   PO461296  21.888  36.065   5.349
 4648POPC   GL161297  21.911  36.350   5.720
 4648POPC   GL261298  22.188  36.200   5.930
 4648POPC   C1A61299  21.756  36.290   6.165
 4648POPC   D2A61300  22.064  36.150   6.451
 4648POPC   C3A61301  22.063  36.267   6.862
 4648POPC   C4A61302  22.475  36.343   7.043
 4648POPC   C1B61303  22.567  36.320   6.192
 4648POPC   C2B61304  22.699  36.208   6.587
 4648POPC   C3B61305  22.672  35.890   6.875
 4648POPC   C4B61306  22.617  35.915   7.284
 4649POPC   NC361307  28.267   4.579   5.292
 4649POPC   PO461308  28.193   4.030   5.471
 4649POPC   GL161309  28.322   4.409   5.780
 4649POPC   GL261310  28.091   4.683   5.775
 4649POPC   C1A61311  28.459   4.688   6.158
 4649POPC   D2A61312  28.716   4.637   6.542
 4649POPC   C3A61313  28.548   4.484   6.964
 4649POPC   C4A61314  28.230   4.163   7.124
 4649POPC   C1B61315  27.976   4.565   6.210
 4649POPC   C2B61316  28.189   4.503   6.605
 4649POPC   C3B61317  28.063   4.642   7.038
 4649POPC   C4B61318  27.856   4.427   7.406
 4650POPC   NC361319  15.424  17.774   5.542
 4650POPC   PO461320  14.901  17.394   5.384
 4650POPC   GL161321  15.099  17.450   5.807
 4650POPC   GL261322  14.933  17.739   5.820
 4650POPC   C1A61323  15.277  17.701   6.203
 4650POPC   D2A61324  15.428  17.854   6.625
 4650POPC   C3A61325  15.254  17.642   6.956
 4650POPC   C4A61326  15.117  17.243   6.882
 4650POPC   C1B61327  14.745  17.583   6.220
 4650POPC   C2B61328  14.760  17.523   6.688
 4650POPC   C3B61329  14.774  17.536   7.158
 4650POPC   C4B61330  14.756  17.669   7.586
 4651POPC   NC361331  29.057  39.052   5.420
 4651POPC   PO461332  29.631  39.311   5.360
 4651POPC   GL161333  29.456  39.091   5.745
 4651POPC   GL261334  29.084  39.200   5.887
 4651POPC   C1A61335  29.402  38.965   6.187
 4651POPC   D2A61336  29.100  39.063   6.540
 4651POPC   C3A61337  29.281  39.090   6.954
 4651POPC   C4A61338  29.568  38.910   7.239
 4651POPC   C1B61339  28.887  39.401   6.220
 4651POPC   C2B61340  29.174  39.619   6.458
 4651POPC   C3B61341  29.313  39.756   6.823
 4651POPC   C4B61342  29.152  39.531   7.173
 4652POPC   NC361343  24.598  24.112   5.608
 4652POPC   PO461344  24.651  24.741   5.434
 4652POPC   GL161345  24.587  24.589   5.820
 4652POPC   GL261346  24.245  24.520   5.708
 4652POPC   C1A61347  24.713  24.464   6.245
 4652POPC   D2A61348  24.509  24.474   6.650
 4652POPC   C3A61349  24.741  24.591   7.003
 4652POPC   C4A61350  24.896  24.249   7.176
 4652POPC   C1B61351  24.207  24.382   6.131
 4652POPC   C2B61352  24.018  24.463   6.523
 4652POPC   C3B61353  24.082  24.281   6.892
 4652POPC   C4B61354  24.346  24.328   7.242
 4653POPC   NC361355  11.614  38.648   5.549
 4653POPC   PO461356  11.003  38.360   5.391
 4653POPC   GL161357  11.158  38.258   5.830
 4653POPC   GL261358  11.295  38.565   5.920
 4653POPC   C1A61359  11.297  38.200   6.279
 4653POPC   D2A61360  11.203  38.415   6.682
 4653POPC   C3A61361  11.346  38.525   7.101
 4653POPC   C4A61362  11.315  38.841   7.417
 4653POPC   C1B61363  11.552  38.691   6.255
 4653POPC   C2B61364  11.711  38.406   6.569
 4653POPC   C3B61365  11.743  38.240   6.961
 4653POPC   C4B61366  11.843  38.514   7.274
 4654POPC   NC361367  38.742   9.820   5.436
 4654POPC   PO461368  39.385   9.708   5.219
 4654POPC   GL161369  39.247   9.755   5.677
 4654POPC   GL261370  39.248   9.439   5.904
 4654POPC   C1A61371  39.286   9.957   6.097
 4654POPC   D2A61372  39.446   9.796   6.498
 4654POPC   C3A61373  39.341   9.986   6.919
 4654POPC   C4A61374  39.462   9.716   7.258
 4654POPC   C1B61375  38.965   9.588   6.236
 4654POPC   C2B61376  38.958   9.866   6.596
 4654POPC   C3B61377  39.003   9.624   7.007
 4654POPC   C4B61378  38.961   9.843   7.403
 4655POPC   NC361379  13.388  38.020   5.596
 4655POPC   PO461380  13.624  38.508   5.186
 4655POPC   GL161381  13.741  38.406   5.658
 4655POPC   GL261382  13.876  38.091   5.785
 4655POPC   C1A61383  13.757  38.496   6.153
 4655POPC   D2A61384  13.650  38.748   6.561
 4655POPC   C3A61385  13.631  38.497   6.955
 4655POPC   C4A61386  13.438  38.509   7.386
 4655POPC   C1B61387  14.149  38.111   6.167
 4655POPC   C2B61388  14.151  37.967   6.595
 4655POPC   C3B61389  13.992  38.130   6.988
 4655POPC   C4B61390  13.938  38.417   7.364
 4656POPC   NC361391  43.680  12.393   5.735
 4656POPC   PO461392  43.555  11.741   5.423
 4656POPC   GL161393  43.818  11.875   5.788
 4656POPC   GL261394  44.110  12.119   5.724
 4656POPC   C1A61395  43.813  11.976   6.240
 4656POPC   D2A61396  43.843  11.958   6.670
 4656POPC   C3A61397  43.619  12.238   6.951
 4656POPC   C4A61398  43.573  12.082   7.354
 4656POPC   C1B61399  44.165  12.323   6.163
 4656POPC   C2B61400  44.283  12.216   6.601
 4656POPC   C3B61401  44.109  12.155   7.050
 4656POPC   C4B61402  44.297  12.412   7.328
 4657POPC   NC361403  17.993  13.996   5.505
 4657POPC   PO461404  17.803  14.641   5.460
 4657POPC   GL161405  18.180  14.597   5.744
 4657POPC   GL261406  18.268  14.252   5.893
 4657POPC   C1A61407  18.400  14.686   6.143
 4657POPC   D2A61408  18.192  14.562   6.535
 4657POPC   C3A61409  18.424  14.699   6.924
 4657POPC   C4A61410  18.279  14.595   7.344
 4657POPC   C1B61411  18.283  14.009   6.286
 4657POPC   C2B61412  18.032  14.021   6.647
 4657POPC   C3B61413  18.062  14.288   6.977
 4657POPC   C4B61414  18.187  13.995   7.282
 4658POPC   NC361415  30.403  30.275   5.247
 4658POPC   PO461416  29.993  30.725   5.291
 4658POPC   GL161417  29.930  30.658   5.741
 4658POPC   GL261418  29.582  30.648   5.813
 4658POPC   C1A61419  29.970  30.661   6.221
 4658POPC   D2A61420  29.857  30.820   6.661
 4658POPC   C3A61421  29.928  30.549   7.023
 4658POPC   C4A61422  29.665  30.249   7.287
 4658POPC   C1B61423  29.497  30.865   6.242
 4658POPC   C2B61424  29.390  31.035   6.668
 4658POPC   C3B61425  29.590  31.098   7.079
 4658POPC   C4B61426  29.837  31.243   7.471
 4659POPC   NC361427  31.707  26.607   5.722
 4659POPC   PO461428  32.187  26.970   5.286
 4659POPC   GL161429  32.431  26.891   5.667
 4659POPC   GL261430  32.266  26.624   5.829
 4659POPC   C1A61431  32.528  26.967   6.130
 4659POPC   D2A61432  32.581  26.808   6.554
 4659POPC   C3A61433  32.455  27.006   6.944
 4659POPC   C4A61434  32.539  26.740   7.280
 4659POPC   C1B61435  32.151  26.593   6.254
 4659POPC   C2B61436  32.064  26.819   6.624
 4659POPC   C3B61437  32.139  26.571   6.996
 4659POPC   C4B61438  31.921  26.548   7.388
 4660POPC   NC361439  22.487  16.850   5.562
 4660POPC   PO461440  23.150  16.715   5.424
 4660POPC   GL161441  22.965  16.839   5.795
 4660POPC   GL261442  23.089  16.585   5.953
 4660POPC   C1A61443  23.013  16.936   6.292
 4660POPC   D2A61444  22.673  16.866   6.623
 4660POPC   C3A61445  22.656  16.682   7.068
 4660POPC   C4A61446  22.676  16.863   7.507
 4660POPC   C1B61447  22.802  16.480   6.274
 4660POPC   C2B61448  22.956  16.446   6.683
 4660POPC   C3B61449  22.989  16.296   7.051
 4660POPC   C4B61450  23.043  16.524   7.393
 4661POPC   NC361451  37.123  16.671   5.312
 4661POPC   PO461452  36.515  16.875   5.236
 4661POPC   GL161453  36.766  16.850   5.656
 4661POPC   GL261454  36.723  16.536   5.856
 4661POPC   C1A61455  36.945  16.924   6.112
 4661POPC   D2A61456  36.771  16.794   6.530
 4661POPC   C3A61457  36.816  16.872   6.993
 4661POPC   C4A61458  36.665  16.939   7.437
 4661POPC   C1B61459  36.979  16.377   6.193
 4661POPC   C2B61460  37.064  16.398   6.610
 4661POPC   C3B61461  37.261  16.665   6.868
 4661POPC   C4B61462  37.088  16.512   7.213
 4662POPC   NC361463  30.705   4.676   5.314
 4662POPC   PO461464  30.378   5.273   5.374
 4662POPC   GL161465  30.681   5.067   5.640
 4662POPC   GL261466  30.661   5.363   5.846
 4662POPC   C1A61467  30.762   4.880   6.005
 4662POPC   D2A61468  30.641   4.885   6.448
 4662POPC   C3A61469  30.832   4.952   6.848
 4662POPC   C4A61470  30.616   4.978   7.240
 4662POPC   C1B61471  30.846   5.321   6.253
 4662POPC   C2B61472  30.686   5.414   6.636
 4662POPC   C3B61473  30.788   5.405   7.041
 4662POPC   C4B61474  30.972   5.331   7.457
 4663POPC   NC361475  33.288  14.078   5.345
 4663POPC   PO461476  33.056  13.386   5.306
 4663POPC   GL161477  33.044  13.635   5.742
 4663POPC   GL261478  33.086  13.996   5.813
 4663POPC   C1A61479  32.922  13.742   6.213
 4663POPC   D2A61480  32.877  13.553   6.622
 4663POPC   C3A61481  33.202  13.460   6.915
 4663POPC   C4A61482  32.988  13.479   7.246
 4663POPC   C1B61483  33.357  14.015   6.188
 4663POPC   C2B61484  33.309  13.861   6.616
 4663POPC   C3B61485  33.028  13.936   6.983
 4663POPC   C4B61486  33.114  13.942   7.440
 4664POPC   NC361487   7.812  10.753   5.101
 4664POPC   PO461488   8.379  10.661   5.455
 4664POPC   GL161489   8.196  10.776   5.817
 4664POPC   GL261490   7.943  10.557   5.763
 4664POPC   C1A61491   7.964  10.807   6.213
 4664POPC   D2A61492   8.115  10.515   6.529
 4664POPC   C3A61493   8.012  10.612   6.929
 4664POPC   C4A61494   8.101  10.560   7.364
 4664POPC   C1B61495   7.819  10.319   6.159
 4664POPC   C2B61496   7.698  10.228   6.642
 4664POPC   C3B61497   7.909  10.136   7.083
 4664POPC   C4B61498   8.197  10.063   7.461
 4665POPC   NC361499   1.649  12.685   5.488
 4665POPC   PO461500   2.314  12.583   5.602
 4665POPC   GL161501   2.024  12.730   5.890
 4665POPC   GL261502   1.814  13.031   5.817
 4665POPC   C1A61503   2.215  13.047   6.168
 4665POPC   D2A61504   2.236  13.128   6.598
 4665POPC   C3A61505   2.315  12.753   6.773
 4665POPC   C4A61506   2.356  12.679   7.189
 4665POPC   C1B61507   1.673  12.911   6.229
 4665POPC   C2B61508   1.752  12.700   6.626
 4665POPC   C3B61509   1.884  12.869   7.004
 4665POPC   C4B61510   1.767  13.071   7.358
 4666POPC   NC361511  44.412   8.791   5.385
 4666POPC   PO461512  43.714   8.910   5.392
 4666POPC   GL161513  43.788   9.023   5.806
 4666POPC   GL261514  44.129   9.007   5.779
 4666POPC   C1A61515  43.629   9.168   6.215
 4666POPC   D2A61516  43.486   8.941   6.606
 4666POPC   C3A61517  43.471   9.135   7.016
 4666POPC   C4A61518  43.695   9.017   7.356
 4666POPC   C1B61519  44.274   9.086   6.193
 4666POPC   C2B61520  44.020   9.148   6.545
 4666POPC   C3B61521  43.953   9.008   6.910
 4666POPC   C4B61522  44.184   8.938   7.256
 4667POPC   NC361523  32.024  33.096   5.133
 4667POPC   PO461524  32.572  32.971   5.542
 4667POPC   GL161525  32.262  33.105   5.842
 4667POPC   GL261526  32.530  33.250   5.992
 4667POPC   C1A61527  32.140  33.220   6.305
 4667POPC   D2A61528  32.200  32.990   6.665
 4667POPC   C3A61529  32.192  33.090   7.095
 4667POPC   C4A61530  32.042  32.982   7.499
 4667POPC   C1B61531  32.508  32.843   6.228
 4667POPC   C2B61532  32.416  32.541   6.552
 4667POPC   C3B61533  32.484  32.675   6.980
 4667POPC   C4B61534  32.678  32.960   7.280
 4668POPC   NC361535   1.126  17.664   5.377
 4668POPC   PO461536   1.730  17.309   5.380
 4668POPC   GL161537   1.473  17.414   5.740
 4668POPC   GL261538   1.506  17.774   5.785
 4668POPC   C1A61539   1.263  17.516   6.138
 4668POPC   D2A61540   1.105  17.396   6.517
 4668POPC   C3A61541   1.266  17.361   6.916
 4668POPC   C4A61542   1.071  17.558   7.213
 4668POPC   C1B61543   1.596  17.915   6.189
 4668POPC   C2B61544   1.509  17.703   6.576
 4668POPC   C3B61545   1.537  17.913   6.964
 4668POPC   C4B61546   1.418  17.917   7.367
 4669POPC   NC361547  27.898  13.514   5.354
 4669POPC   PO461548  27.451  14.008   5.379
 4669POPC   GL161549  27.417  13.649   5.751
 4669POPC   GL261550  27.750  13.599   5.816
 4669POPC   C1A61551  27.531  13.532   6.248
 4669POPC   D2A61552  27.647  13.840   6.595
 4669POPC   C3A61553  27.604  13.657   7.035
 4669POPC   C4A61554  27.420  13.591   7.470
 4669POPC   C1B61555  27.983  13.823   6.126
 4669POPC   C2B61556  28.151  13.797   6.540
 4669POPC   C3B61557  28.040  13.961   6.962
 4669POPC   C4B61558  27.936  13.865   7.410
 4670POPC   NC361559  10.044  36.354   5.380
 4670POPC   PO461560  10.076  37.018   5.277
 4670POPC   GL161561   9.925  37.077   5.708
 4670POPC   GL261562  10.217  37.246   5.834
 4670POPC   C1A61563   9.791  36.801   6.079
 4670POPC   D2A61564   9.657  36.612   6.485
 4670POPC   C3A61565   9.910  36.652   6.855
 4670POPC   C4A61566   9.678  36.785   7.202
 4670POPC   C1B61567  10.005  37.270   6.197
 4670POPC   C2B61568   9.934  37.062   6.556
 4670POPC   C3B61569  10.036  37.164   6.966
 4670POPC   C4B61570  10.132  36.958   7.323
 4671POPC   NC361571  14.233  41.743   5.413
 4671POPC   PO461572  14.746  41.945   5.724
 4671POPC   GL161573  14.549  41.536   5.805
 4671POPC   GL261574  14.189  41.404   5.864
 4671POPC   C1A61575  14.628  41.260   6.124
 4671POPC   D2A61576  14.631  41.287   6.573
 4671POPC   C3A61577  14.654  41.512   6.985
 4671POPC   C4A61578  14.449  41.289   7.331
 4671POPC   C1B61579  14.138  41.229   6.314
 4671POPC   C2B61580  14.155  41.413   6.742
 4671POPC   C3B61581  14.145  41.658   7.128
 4671POPC   C4B61582  14.083  41.766   7.583
 4672POPC   NC361583   9.120   1.291   5.357
 4672POPC   PO461584   8.473   0.913   5.477
 4672POPC   GL161585   8.786   1.151   5.749
 4672POPC   GL261586   9.171   1.069   5.827
 4672POPC   C1A61587   8.709   1.274   6.163
 4672POPC   D2A61588   8.725   1.486   6.558
 4672POPC   C3A61589   8.626   1.341   6.977
 4672POPC   C4A61590   8.551   1.011   7.282
 4672POPC   C1B61591   9.165   1.105   6.298
 4672POPC   C2B61592   9.131   1.224   6.739
 4672POPC   C3B61593   9.041   1.092   7.168
 4672POPC   C4B61594   9.287   0.891   7.454
 4673POPC   NC361595  17.489  16.269   5.455
 4673POPC   PO461596  17.820  15.600   5.485
 4673POPC   GL161597  17.694  15.795   5.913
 4673POPC   GL261598  17.601  16.114   5.987
 4673POPC   C1A61599  17.377  15.724   6.281
 4673POPC   D2A61600  17.261  15.916   6.683
 4673POPC   C3A61601  17.447  15.815   7.081
 4673POPC   C4A61602  17.370  16.005   7.489
 4673POPC   C1B61603  17.846  15.941   6.366
 4673POPC   C2B61604  17.877  15.955   6.788
 4673POPC   C3B61605  17.791  16.186   7.112
 4673POPC   C4B61606  17.822  16.207   7.507
 4674POPC   NC361607   6.818  29.840   5.557
 4674POPC   PO461608   6.300  29.894   5.122
 4674POPC   GL161609   6.335  29.928   5.640
 4674POPC   GL261610   6.504  30.254   5.742
 4674POPC   C1A61611   6.505  29.834   6.122
 4674POPC   D2A61612   6.467  29.551   6.505
 4674POPC   C3A61613   6.415  29.748   6.913
 4674POPC   C4A61614   6.764  29.715   7.189
 4674POPC   C1B61615   6.569  30.377   6.188
 4674POPC   C2B61616   6.539  30.184   6.610
 4674POPC   C3B61617   6.676  30.179   7.045
 4674POPC   C4B61618   6.485  30.113   7.456
 4675POPC   NC361619  35.298  31.298   5.206
 4675POPC   PO461620  35.591  31.824   5.514
 4675POPC   GL161621  35.379  31.452   5.797
 4675POPC   GL261622  35.456  31.104   5.777
 4675POPC   C1A61623  35.148  31.480   6.200
 4675POPC   D2A61624  35.008  31.697   6.580
 4675POPC   C3A61625  35.079  31.498   6.980
 4675POPC   C4A61626  35.228  31.733   7.325
 4675POPC   C1B61627  35.592  31.217   6.226
 4675POPC   C2B61628  35.461  31.344   6.653
 4675POPC   C3B61629  35.538  31.344   7.131
 4675POPC   C4B61630  35.194  31.254   7.456
 4676POPC   NC361631  24.211  17.181   5.607
 4676POPC   PO461632  24.743  17.177   5.147
 4676POPC   GL161633  24.556  17.533   5.589
 4676POPC   GL261634  24.710  17.816   5.710
 4676POPC   C1A61635  24.510  17.543   6.108
 4676POPC   D2A61636  24.705  17.332   6.509
 4676POPC   C3A61637  24.589  17.392   6.977
 4676POPC   C4A61638  24.463  17.258   7.431
 4676POPC   C1B61639  24.916  17.832   6.095
 4676POPC   C2B61640  24.951  17.810   6.566
 4676POPC   C3B61641  24.953  17.766   7.044
 4676POPC   C4B61642  24.711  17.738   7.449
 4677POPC   NC361643   3.037  21.560   5.475
 4677POPC   PO461644   2.825  20.852   5.427
 4677POPC   GL161645   2.853  21.114   5.780
 4677POPC   GL261646   2.589  21.363   5.717
 4677POPC   C1A61647   2.901  21.199   6.244
 4677POPC   D2A61648   2.764  21.194   6.715
 4677POPC   C3A61649   2.913  21.506   7.054
 4677POPC   C4A61650   3.033  21.444   7.501
 4677POPC   C1B61651   2.398  21.380   6.131
 4677POPC   C2B61652   2.332  21.557   6.558
 4677POPC   C3B61653   2.407  21.453   7.004
 4677POPC   C4B61654   2.536  21.528   7.408
 4678POPC   NC361655   9.899  42.763   5.346
 4678POPC   PO461656   9.712  42.120   5.423
 4678POPC   GL161657   9.796  42.177   5.851
 4678POPC   GL261658   9.974  41.892   5.939
 4678POPC   C1A61659   9.816  42.489   6.205
 4678POPC   D2A61660  10.046  42.768   6.508
 4678POPC   C3A61661  10.012  42.657   6.924
 4678POPC   C4A61662   9.699  42.389   7.141
 4678POPC   C1B61663   9.821  41.983   6.336
 4678POPC   C2B61664   9.961  42.227   6.649
 4678POPC   C3B61665  10.072  42.053   7.003
 4678POPC   C4B61666   9.951  41.804   7.314
 4679POPC   NC361667  23.852  10.865   5.529
 4679POPC   PO461668  23.387  10.357   5.569
 4679POPC   GL161669  23.730  10.384   5.788
 4679POPC   GL261670  24.058  10.341   5.599
 4679POPC   C1A61671  23.691  10.586   6.181
 4679POPC   D2A61672  23.508  10.538   6.590
 4679POPC   C3A61673  23.805  10.624   6.883
 4679POPC   C4A61674  23.739  10.680   7.298
 4679POPC   C1B61675  24.147  10.327   6.053
 4679POPC   C2B61676  24.024  10.303   6.453
 4679POPC   C3B61677  24.196  10.289   6.829
 4679POPC   C4B61678  24.208  10.551   7.195
 4680POPC   NC361679  20.858  36.347   5.531
 4680POPC   PO461680  20.988  35.743   5.643
 4680POPC   GL161681  20.626  35.927   5.781
 4680POPC   GL261682  20.450  35.648   5.875
 4680POPC   C1A61683  20.621  36.134   6.198
 4680POPC   D2A61684  20.666  36.146   6.656
 4680POPC   C3A61685  20.490  36.327   7.007
 4680POPC   C4A61686  20.783  36.188   7.266
 4680POPC   C1B61687  20.308  35.719   6.315
 4680POPC   C2B61688  20.256  35.846   6.752
 4680POPC   C3B61689  20.472  35.790   7.134
 4680POPC   C4B61690  20.415  35.941   7.556
 4681POPC   NC361691   2.264  17.266   5.532
 4681POPC   PO461692   2.017  16.783   5.182
 4681POPC   GL161693   2.038  16.783   5.730
 4681POPC   GL261694   1.884  17.087   5.837
 4681POPC   C1A61695   1.898  16.716   6.258
 4681POPC   D2A61696   1.747  16.454   6.681
 4681POPC   C3A61697   1.880  16.499   7.081
 4681POPC   C4A61698   1.758  16.402   7.541
 4681POPC   C1B61699   2.225  17.111   6.157
 4681POPC   C2B61700   2.470  17.069   6.540
 4681POPC   C3B61701   2.280  16.938   6.939
 4681POPC   C4B61702   2.004  17.091   7.256
 4682POPC   NC361703   0.721  13.056   5.529
 4682POPC   PO461704   0.873  12.334   5.420
 4682POPC   GL161705   0.613  12.446   5.830
 4682POPC   GL261706   0.818  12.692   5.975
 4682POPC   C1A61707   0.211  12.549   6.089
 4682POPC   D2A61708  44.995  12.445   6.514
 4682POPC   C3A61709   0.142  12.506   6.981
 4682POPC   C4A61710   0.521  12.640   7.224
 4682POPC   C1B61711   0.526  12.965   6.216
 4682POPC   C2B61712   0.471  13.110   6.667
 4682POPC   C3B61713   0.726  13.078   7.029
 4682POPC   C4B61714   0.679  13.268   7.418
 4683POPC   NC361715  40.033  10.701   5.555
 4683POPC   PO461716  40.058  11.330   5.214
 4683POPC   GL161717  40.138  11.207   5.618
 4683POPC   GL261718  39.853  11.165   5.698
 4683POPC   C1A61719  40.165  11.175   6.095
 4683POPC   D2A61720  40.154  11.482   6.457
 4683POPC   C3A61721  40.169  11.278   6.862
 4683POPC   C4A61722  40.083  11.155   7.268
 4683POPC   C1B61723  39.693  10.954   6.078
 4683POPC   C2B61724  39.753  11.163   6.480
 4683POPC   C3B61725  39.649  11.146   6.919
 4683POPC   C4B61726  39.548  11.045   7.338
 4684POPC   NC361727  11.071  40.471   5.471
 4684POPC   PO461728  11.683  40.117   5.542
 4684POPC   GL161729  11.390  40.136   5.808
 4684POPC   GL261730  11.523  40.450   5.892
 4684POPC   C1A61731  11.146  40.115   6.153
 4684POPC   D2A61732  10.996  40.021   6.526
 4684POPC   C3A61733  11.235  39.975   6.904
 4684POPC   C4A61734  11.014  40.010   7.291
 4684POPC   C1B61735  11.630  40.230   6.263
 4684POPC   C2B61736  11.514  40.345   6.666
 4684POPC   C3B61737  11.722  40.183   7.011
 4684POPC   C4B61738  11.544  40.093   7.372
 4685POPC   NC361739  13.039   8.434   5.391
 4685POPC   PO461740  12.751   7.890   5.435
 4685POPC   GL161741  12.802   8.212   5.790
 4685POPC   GL261742  12.511   8.364   5.736
 4685POPC   C1A61743  12.862   8.340   6.254
 4685POPC   D2A61744  12.739   8.150   6.672
 4685POPC   C3A61745  12.864   8.370   7.055
 4685POPC   C4A61746  12.920   8.198   7.468
 4685POPC   C1B61747  12.391   8.592   6.129
 4685POPC   C2B61748  12.383   8.489   6.556
 4685POPC   C3B61749  12.384   8.611   6.962
 4685POPC   C4B61750  12.594   8.796   7.333
 4686POPC   NC361751  25.404  22.017   5.101
 4686POPC   PO461752  24.998  22.528   5.430
 4686POPC   GL161753  25.146  22.348   5.836
 4686POPC   GL261754  25.323  22.025   5.908
 4686POPC   C1A61755  25.032  22.228   6.287
 4686POPC   D2A61756  24.749  22.057   6.580
 4686POPC   C3A61757  24.957  21.980   6.985
 4686POPC   C4A61758  25.341  22.115   7.167
 4686POPC   C1B61759  25.520  22.365   6.222
 4686POPC   C2B61760  25.647  22.393   6.697
 4686POPC   C3B61761  25.851  22.116   7.043
 4686POPC   C4B61762  25.724  22.026   7.487
 4687POPC   NC361763   9.853   8.742   5.318
 4687POPC   PO461764   9.155   8.843   5.349
 4687POPC   GL161765   9.459   8.966   5.703
 4687POPC   GL261766   9.821   9.111   5.701
 4687POPC   C1A61767   9.599   8.874   6.152
 4687POPC   D2A61768   9.857   8.580   6.422
 4687POPC   C3A61769   9.861   8.646   6.868
 4687POPC   C4A61770   9.619   8.791   7.202
 4687POPC   C1B61771  10.084   8.948   6.070
 4687POPC   C2B61772  10.092   9.005   6.546
 4687POPC   C3B61773   9.970   9.142   6.984
 4687POPC   C4B61774   9.564   9.331   7.139
 4688POPC   NC361775  20.285  27.467   5.330
 4688POPC   PO461776  19.696  27.716   5.282
 4688POPC   GL161777  19.872  27.636   5.690
 4688POPC   GL261778  20.132  27.783   5.812
 4688POPC   C1A61779  19.893  27.395   6.083
 4688POPC   D2A61780  20.136  27.212   6.432
 4688POPC   C3A61781  20.052  27.263   6.880
 4688POPC   C4A61782  19.774  27.044   7.177
 4688POPC   C1B61783  20.283  27.676   6.221
 4688POPC   C2B61784  20.160  27.798   6.650
 4688POPC   C3B61785  20.225  27.969   7.064
 4688POPC   C4B61786  20.040  27.622   7.246
 4689POPC   NC361787  22.086   9.650   5.259
 4689POPC   PO461788  22.773   9.509   5.115
 4689POPC   GL161789  22.461   9.571   5.618
 4689POPC   GL261790  22.050   9.655   5.742
 4689POPC   C1A61791  22.368   9.452   6.046
 4689POPC   D2A61792  22.406   9.424   6.471
 4689POPC   C3A61793  22.167   9.533   6.822
 4689POPC   C4A61794  22.335   9.616   7.226
 4689POPC   C1B61795  21.963   9.965   6.071
 4689POPC   C2B61796  22.033  10.041   6.527
 4689POPC   C3B61797  22.075  10.020   6.981
 4689POPC   C4B61798  22.074   9.951   7.462
 4690POPC   NC361799  36.712  24.422   5.504
 4690POPC   PO461800  37.028  24.945   5.190
 4690POPC   GL161801  37.087  24.744   5.644
 4690POPC   GL261802  37.131  24.377   5.804
 4690POPC   C1A61803  36.963  24.740   6.119
 4690POPC   D2A61804  36.989  24.910   6.568
 4690POPC   C3A61805  36.934  24.645   6.941
 4690POPC   C4A61806  36.845  24.575   7.376
 4690POPC   C1B61807  36.930  24.214   6.259
 4690POPC   C2B61808  36.796  24.205   6.710
 4690POPC   C3B61809  36.930  24.134   7.146
 4690POPC   C4B61810  36.934  24.010   7.652
 4691POPC   NC361811   5.158  24.869   5.448
 4691POPC   PO461812   4.674  24.333   5.461
 4691POPC   GL161813   4.811  24.626   5.795
 4691POPC   GL261814   5.167  24.509   5.813
 4691POPC   C1A61815   4.978  24.711   6.244
 4691POPC   D2A61816   5.158  24.592   6.645
 4691POPC   C3A61817   4.919  24.457   6.997
 4691POPC   C4A61818   4.693  24.321   7.342
 4691POPC   C1B61819   5.338  24.321   6.199
 4691POPC   C2B61820   5.382  24.095   6.583
 4691POPC   C3B61821   5.409  24.260   6.988
 4691POPC   C4B61822   5.419  24.721   7.104
 4692POPC   NC361823  19.703  40.809   5.186
 4692POPC   PO461824  20.194  40.515   5.563
 4692POPC   GL161825  19.972  40.637   5.896
 4692POPC   GL261826  19.820  40.894   5.707
 4692POPC   C1A61827  20.009  40.752   6.344
 4692POPC   D2A61828  19.737  41.066   6.598
 4692POPC   C3A61829  19.676  40.841   6.983
 4692POPC   C4A61830  19.992  40.504   7.024
 4692POPC   C1B61831  20.203  41.076   5.990
 4692POPC   C2B61832  20.227  41.198   6.432
 4692POPC   C3B61833  20.164  41.244   6.852
 4692POPC   C4B61834  20.124  40.980   7.192
 4693POPC   NC361835  31.696  31.137   5.418
 4693POPC   PO461836  31.566  31.797   5.201
 4693POPC   GL161837  31.691  31.623   5.649
 4693POPC   GL261838  31.383  31.417   5.748
 4693POPC   C1A61839  31.845  31.562   6.123
 4693POPC   D2A61840  31.772  31.639   6.616
 4693POPC   C3A61841  31.775  31.527   7.089
 4693POPC   C4A61842  31.772  31.644   7.572
 4693POPC   C1B61843  31.392  31.283   6.190
 4693POPC   C2B61844  31.291  31.460   6.611
 4693POPC   C3B61845  31.297  31.280   7.050
 4693POPC   C4B61846  31.529  31.202   7.431
 4694POPC   NC361847  25.230  34.327   5.402
 4694POPC   PO461848  25.457  34.886   5.503
 4694POPC   GL161849  25.212  34.679   5.834
 4694POPC   GL261850  24.881  34.712   5.703
 4694POPC   C1A61851  25.217  34.566   6.296
 4694POPC   D2A61852  25.246  34.822   6.708
 4694POPC   C3A61853  25.430  34.630   7.068
 4694POPC   C4A61854  25.624  34.799   7.389
 4694POPC   C1B61855  24.804  34.801   6.167
 4694POPC   C2B61856  24.785  34.641   6.618
 4694POPC   C3B61857  24.935  34.525   7.042
 4694POPC   C4B61858  24.764  34.370   7.443
 4695POPC   NC361859  44.354   3.754   5.412
 4695POPC   PO461860  43.718   3.513   5.430
 4695POPC   GL161861  43.763   3.624   5.787
 4695POPC   GL261862  43.981   3.900   5.744
 4695POPC   C1A61863  43.770   3.492   6.169
 4695POPC   D2A61864  43.878   3.615   6.560
 4695POPC   C3A61865  43.696   3.433   6.906
 4695POPC   C4A61866  43.840   3.535   7.301
 4695POPC   C1B61867  44.004   3.982   6.172
 4695POPC   C2B61868  44.018   4.134   6.596
 4695POPC   C3B61869  43.928   3.928   6.974
 4695POPC   C4B61870  44.226   3.881   7.285
 4696POPC   NC361871  27.246  23.151   5.377
 4696POPC   PO461872  26.554  23.012   5.318
 4696POPC   GL161873  26.652  22.853   5.732
 4696POPC   GL261874  27.021  22.886   5.746
 4696POPC   C1A61875  26.690  22.983   6.161
 4696POPC   D2A61876  26.501  23.057   6.563
 4696POPC   C3A61877  26.755  23.198   6.884
 4696POPC   C4A61878  26.739  23.174   7.312
 4696POPC   C1B61879  27.166  23.166   6.073
 4696POPC   C2B61880  27.086  23.050   6.504
 4696POPC   C3B61881  27.210  22.925   6.910
 4696POPC   C4B61882  27.257  23.070   7.331
 4697POPC   NC361883  33.236  15.655   5.461
 4697POPC   PO461884  32.806  16.173   5.429
 4697POPC   GL161885  32.975  15.966   5.777
 4697POPC   GL261886  33.329  16.055   5.767
 4697POPC   C1A61887  33.127  15.717   6.138
 4697POPC   D2A61888  33.349  15.707   6.522
 4697POPC   C3A61889  33.104  15.774   6.897
 4697POPC   C4A61890  32.962  15.792   7.329
 4697POPC   C1B61891  33.457  16.118   6.179
 4697POPC   C2B61892  33.296  16.208   6.576
 4697POPC   C3B61893  33.529  16.055   6.886
 4697POPC   C4B61894  33.437  15.941   7.277
 4698POPC   NC361895  29.357  18.934   5.291
 4698POPC   PO461896  28.937  19.480   5.446
 4698POPC   GL161897  29.216  19.228   5.718
 4698POPC   GL261898  29.196  18.839   5.801
 4698POPC   C1A61899  29.255  19.169   6.161
 4698POPC   D2A61900  29.048  19.057   6.519
 4698POPC   C3A61901  29.213  19.084   6.904
 4698POPC   C4A61902  28.982  19.218   7.215
 4698POPC   C1B61903  29.126  18.618   6.243
 4698POPC   C2B61904  29.042  18.599   6.726
 4698POPC   C3B61905  29.113  18.568   7.193
 4698POPC   C4B61906  29.342  18.514   7.628
 4699POPC   NC361907  36.584  22.084   5.535
 4699POPC   PO461908  37.047  22.527   5.389
 4699POPC   GL161909  36.935  22.362   5.773
 4699POPC   GL261910  36.615  22.518   5.850
 4699POPC   C1A61911  36.976  22.061   6.092
 4699POPC   D2A61912  36.988  22.139   6.536
 4699POPC   C3A61913  36.908  21.930   6.898
 4699POPC   C4A61914  37.154  22.035   7.241
 4699POPC   C1B61915  36.702  22.461   6.247
 4699POPC   C2B61916  36.513  22.343   6.596
 4699POPC   C3B61917  36.683  22.384   6.939
 4699POPC   C4B61918  36.670  22.248   7.352
 4700POPC   NC361919   8.818   8.542   5.418
 4700POPC   PO461920   8.655   9.127   5.646
 4700POPC   GL161921   8.975   8.958   5.904
 4700POPC   GL261922   8.763   8.669   5.911
 4700POPC   C1A61923   9.167   9.033   6.356
 4700POPC   D2A61924   9.470   9.001   6.736
 4700POPC   C3A61925   9.166   8.991   7.104
 4700POPC   C4A61926   8.863   9.077   7.462
 4700POPC   C1B61927   8.736   8.737   6.343
 4700POPC   C2B61928   8.854   8.852   6.749
 4700POPC   C3B61929   8.751   8.645   7.162
 4700POPC   C4B61930   8.611   8.671   7.626
 4701POPC   NC361931  26.055   9.618   5.316
 4701POPC   PO461932  25.534   9.395   5.674
 4701POPC   GL161933  25.985   9.445   5.837
 4701POPC   GL261934  26.200   9.749   5.807
 4701POPC   C1A61935  26.212   9.410   6.241
 4701POPC   D2A61936  26.176   9.674   6.643
 4701POPC   C3A61937  26.191   9.466   7.027
 4701POPC   C4A61938  25.926   9.217   7.284
 4701POPC   C1B61939  26.047   9.914   6.209
 4701POPC   C2B61940  25.704   9.945   6.555
 4701POPC   C3B61941  25.802  10.038   6.967
 4701POPC   C4B61942  26.179  10.141   7.189
 4702POPC   NC361943  31.835   3.632   5.552
 4702POPC   PO461944  31.353   3.314   5.265
 4702POPC   GL161945  31.395   3.432   5.720
 4702POPC   GL261946  31.709   3.234   5.834
 4702POPC   C1A61947  31.476   3.738   6.102
 4702POPC   D2A61948  31.701   3.601   6.480
 4702POPC   C3A61949  31.552   3.649   6.902
 4702POPC   C4A61950  31.542   3.709   7.365
 4702POPC   C1B61951  31.448   3.245   6.207
 4702POPC   C2B61952  31.225   3.353   6.601
 4702POPC   C3B61953  31.296   3.224   6.995
 4702POPC   C4B61954  31.625   3.234   7.215
 4703POPC   NC361955   2.204  20.217   5.563
 4703POPC   PO461956   1.832  20.741   5.439
 4703POPC   GL161957   1.993  20.649   5.814
 4703POPC   GL261958   1.835  20.380   5.900
 4703POPC   C1A61959   2.145  20.641   6.247
 4703POPC   D2A61960   2.362  20.635   6.669
 4703POPC   C3A61961   2.071  20.550   7.030
 4703POPC   C4A61962   1.785  20.785   7.244
 4703POPC   C1B61963   1.636  20.555   6.302
 4703POPC   C2B61964   1.569  20.536   6.767
 4703POPC   C3B61965   1.648  20.249   7.117
 4703POPC   C4B61966   1.854  20.227   7.497
 4704POPC   NC361967   9.610  28.086   5.612
 4704POPC   PO461968  10.078  28.513   5.338
 4704POPC   GL161969   9.864  28.466   5.829
 4704POPC   GL261970   9.826  28.131   6.070
 4704POPC   C1A61971   9.701  28.534   6.313
 4704POPC   D2A61972   9.701  28.363   6.760
 4704POPC   C3A61973   9.797  28.653   7.121
 4704POPC   C4A61974  10.051  28.882   7.427
 4704POPC   C1B61975   9.390  28.003   6.255
 4704POPC   C2B61976   9.175  27.952   6.642
 4704POPC   C3B61977   9.318  28.060   7.047
 4704POPC   C4B61978   9.738  28.140   7.220
 4705POPC   NC361979  29.804  38.795   5.369
 4705POPC   PO461980  29.891  38.013   5.456
 4705POPC   GL161981  29.932  38.400   5.721
 4705POPC   GL261982  29.613  38.584   5.835
 4705POPC   C1A61983  30.012  38.585   6.138
 4705POPC   D2A61984  29.770  38.755   6.486
 4705POPC   C3A61985  29.823  38.523   6.872
 4705POPC   C4A61986  30.040  38.186   7.109
 4705POPC   C1B61987  29.579  38.263   6.193
 4705POPC   C2B61988  29.455  38.143   6.656
 4705POPC   C3B61989  29.413  38.337   7.105
 4705POPC   C4B61990  29.616  38.486   7.495
 4706POPC   NC361991  19.573   1.106   5.454
 4706POPC   PO461992  19.977   1.674   5.315
 4706POPC   GL161993  19.795   1.497   5.695
 4706POPC   GL261994  19.948   1.164   5.806
 4706POPC   C1A61995  19.562   1.359   6.082
 4706POPC   D2A61996  19.451   1.346   6.532
 4706POPC   C3A61997  19.782   1.215   6.801
 4706POPC   C4A61998  19.760   1.102   7.215
 4706POPC   C1B61999  19.939   1.079   6.287
 4706POPC   C2B62000  20.063   0.802   6.632
 4706POPC   C3B62001  20.210   0.941   7.046
 4706POPC   C4B62002  20.214   1.330   7.318
 4707POPC   NC362003  11.021  16.971   5.415
 4707POPC   PO462004  11.454  16.338   5.493
 4707POPC   GL162005  11.477  16.665   5.796
 4707POPC   GL262006  11.134  16.756   5.864
 4707POPC   C1A62007  11.505  16.767   6.240
 4707POPC   D2A62008  11.755  16.712   6.633
 4707POPC   C3A62009  11.498  16.811   7.013
 4707POPC   C4A62010  11.174  16.541   7.177
 4707POPC   C1B62011  11.132  17.115   6.162
 4707POPC   C2B62012  10.984  17.302   6.504
 4707POPC   C3B62013  11.063  17.097   6.872
 4707POPC   C4B62014  10.946  16.984   7.278
 4708POPC   NC362015  39.110   1.522   5.530
 4708POPC   PO462016  39.008   0.916   5.503
 4708POPC   GL162017  39.207   1.097   5.823
 4708POPC   GL262018  39.502   0.969   5.740
 4708POPC   C1A62019  39.356   1.339   6.173
 4708POPC   D2A62020  39.222   1.507   6.560
 4708POPC   C3A62021  39.340   1.377   6.981
 4708POPC   C4A62022  39.002   1.238   7.252
 4708POPC   C1B62023  39.418   0.793   6.170
 4708POPC   C2B62024  39.424   1.014   6.581
 4708POPC   C3B62025  39.292   0.875   6.994
 4708POPC   C4B62026  39.447   1.019   7.394
 4709POPC   NC362027   3.549  38.621   5.365
 4709POPC   PO462028   3.746  37.978   5.213
 4709POPC   GL162029   3.754  38.140   5.654
 4709POPC   GL262030   3.826  38.485   5.768
 4709POPC   C1A62031   3.682  38.141   6.119
 4709POPC   D2A62032   3.889  38.161   6.543
 4709POPC   C3A62033   3.620  38.206   6.935
 4709POPC   C4A62034   3.233  38.417   7.083
 4709POPC   C1B62035   3.948  38.595   6.190
 4709POPC   C2B62036   3.744  38.658   6.589
 4709POPC   C3B62037   3.868  38.662   7.026
 4709POPC   C4B62038   3.568  38.695   7.375
 4710POPC   NC362039  20.663  10.649   5.303
 4710POPC   PO462040  20.333  10.173   5.026
 4710POPC   GL162041  20.344  10.363   5.553
 4710POPC   GL262042  20.723  10.318   5.679
 4710POPC   C1A62043  20.381  10.414   6.046
 4710POPC   D2A62044  20.342  10.354   6.518
 4710POPC   C3A62045  20.585  10.442   6.907
 4710POPC   C4A62046  20.481  10.525   7.353
 4710POPC   C1B62047  20.902  10.325   6.081
 4710POPC   C2B62048  20.895  10.339   6.510
 4710POPC   C3B62049  21.070  10.145   6.869
 4710POPC   C4B62050  20.883  10.223   7.258
 4711POPC   NC362051  10.162  20.505   5.106
 4711POPC   PO462052  10.621  20.963   5.262
 4711POPC   GL162053  10.462  20.780   5.701
 4711POPC   GL262054  10.379  20.432   5.767
 4711POPC   C1A62055  10.557  20.702   6.179
 4711POPC   D2A62056  10.319  20.753   6.582
 4711POPC   C3A62057  10.419  20.558   6.971
 4711POPC   C4A62058  10.216  20.595   7.354
 4711POPC   C1B62059  10.205  20.199   6.139
 4711POPC   C2B62060  10.292  20.224   6.572
 4711POPC   C3B62061  10.093  20.160   6.964
 4711POPC   C4B62062  10.103  20.083   7.378
 4712POPC   NC362063  22.255  13.967   5.414
 4712POPC   PO462064  21.969  13.407   5.170
 4712POPC   GL162065  22.033  13.568   5.679
 4712POPC   GL262066  22.322  13.826   5.902
 4712POPC   C1A62067  21.891  13.674   6.128
 4712POPC   D2A62068  21.730  13.860   6.544
 4712POPC   C3A62069  21.872  13.681   6.966
 4712POPC   C4A62070  22.173  13.874   7.242
 4712POPC   C1B62071  22.554  13.933   6.314
 4712POPC   C2B62072  22.467  13.946   6.778
 4712POPC   C3B62073  22.586  13.622   7.088
 4712POPC   C4B62074  22.502  13.539   7.535
 4713POPC   NC362075  25.752  17.644   5.445
 4713POPC   PO462076  26.260  17.129   5.483
 4713POPC   GL162077  25.917  17.260   5.746
 4713POPC   GL262078  26.082  17.577   5.821
 4713POPC   C1A62079  25.651  17.378   6.107
 4713POPC   D2A62080  25.835  17.449   6.555
 4713POPC   C3A62081  25.802  17.252   6.980
 4713POPC   C4A62082  26.072  17.168   7.338
 4713POPC   C1B62083  25.932  17.793   6.175
 4713POPC   C2B62084  25.905  17.965   6.581
 4713POPC   C3B62085  25.893  17.786   6.975
 4713POPC   C4B62086  26.233  17.808   7.230
 4714POPC   NC362087  38.198   0.097   5.528
 4714POPC   PO462088  38.651   0.471   5.249
 4714POPC   GL162089  38.599   0.501   5.744
 4714POPC   GL262090  38.294   0.695   5.894
 4714POPC   C1A62091  38.497   0.344   6.190
 4714POPC   D2A62092  38.553   0.115   6.582
 4714POPC   C3A62093  38.496   0.388   6.947
 4714POPC   C4A62094  38.547   0.513   7.377
 4714POPC   C1B62095  38.396   0.906   6.286
 4714POPC   C2B62096  38.343   0.842   6.732
 4714POPC   C3B62097  38.193   0.787   7.178
 4714POPC   C4B62098  38.177   0.801   7.668
 4715POPC   NC362099  31.258  19.869   5.550
 4715POPC   PO462100  31.934  19.940   5.521
 4715POPC   GL162101  31.638  20.062   5.859
 4715POPC   GL262102  31.350  20.287   5.831
 4715POPC   C1A62103  31.624  19.855   6.254
 4715POPC   D2A62104  31.818  19.849   6.651
 4715POPC   C3A62105  31.561  19.918   7.030
 4715POPC   C4A62106  31.673  19.754   7.442
 4715POPC   C1B62107  31.127  20.065   6.183
 4715POPC   C2B62108  31.244  19.951   6.603
 4715POPC   C3B62109  31.060  19.851   6.986
 4715POPC   C4B62110  31.265  19.505   7.212
 4716POPC   NC362111  15.070  36.234   5.054
 4716POPC   PO462112  15.571  35.831   5.282
 4716POPC   GL162113  15.277  36.090   5.583
 4716POPC   GL262114  15.195  35.815   5.787
 4716POPC   C1A62115  15.058  36.217   6.031
 4716POPC   D2A62116  14.996  36.014   6.459
 4716POPC   C3A62117  14.866  36.247   6.849
 4716POPC   C4A62118  14.987  36.134   7.253
 4716POPC   C1B62119  15.396  35.616   6.136
 4716POPC   C2B62120  15.485  35.717   6.555
 4716POPC   C3B62121  15.294  35.912   6.891
 4716POPC   C4B62122  15.375  35.763   7.293
 4717POPC   NC362123  38.404   0.824   5.410
 4717POPC   PO462124  38.199   1.476   5.379
 4717POPC   GL162125  38.354   1.233   5.770
 4717POPC   GL262126  38.671   1.037   5.855
 4717POPC   C1A62127  38.508   1.405   6.179
 4717POPC   D2A62128  38.309   1.370   6.585
 4717POPC   C3A62129  38.495   1.291   6.956
 4717POPC   C4A62130  38.565   1.514   7.285
 4717POPC   C1B62131  38.918   1.070   6.262
 4717POPC   C2B62132  38.914   1.095   6.713
 4717POPC   C3B62133  38.738   0.859   7.053
 4717POPC   C4B62134  38.580   1.027   7.457
 4718POPC   NC362135   9.864  35.653   5.540
 4718POPC   PO462136   9.518  36.225   5.477
 4718POPC   GL162137   9.630  36.023   5.831
 4718POPC   GL262138   9.997  36.059   5.832
 4718POPC   C1A62139   9.578  36.173   6.233
 4718POPC   D2A62140   9.501  36.044   6.643
 4718POPC   C3A62141   9.520  36.346   6.943
 4718POPC   C4A62142   9.403  36.094   7.246
 4718POPC   C1B62143  10.063  36.345   6.188
 4718POPC   C2B62144  10.005  36.190   6.612
 4718POPC   C3B62145   9.959  36.104   7.050
 4718POPC   C4B62146  10.113  36.446   7.294
 4719POPC   NC362147  34.245  19.529   5.516
 4719POPC   PO462148  34.465  20.202   5.399
 4719POPC   GL162149  34.529  19.948   5.753
 4719POPC   GL262150  34.886  19.960   5.758
 4719POPC   C1A62151  34.419  19.741   6.149
 4719POPC   D2A62152  34.186  19.789   6.534
 4719POPC   C3A62153  34.432  19.769   6.900
 4719POPC   C4A62154  34.557  19.552   7.275
 4719POPC   C1B62155  34.934  19.796   6.141
 4719POPC   C2B62156  34.783  19.780   6.549
 4719POPC   C3B62157  34.962  19.762   6.960
 4719POPC   C4B62158  34.989  19.907   7.394
 4720POPC   NC362159  42.670   5.118   5.452
 4720POPC   PO462160  42.048   5.112   5.475
 4720POPC   GL162161  42.273   5.036   5.815
 4720POPC   GL262162  42.488   5.373   5.856
 4720POPC   C1A62163  42.191   4.814   6.211
 4720POPC   D2A62164  42.153   4.630   6.636
 4720POPC   C3A62165  42.060   4.970   6.911
 4720POPC   C4A62166  42.296   5.312   7.091
 4720POPC   C1B62167  42.639   5.069   6.160
 4720POPC   C2B62168  42.505   5.001   6.570
 4720POPC   C3B62169  42.573   4.867   6.941
 4720POPC   C4B62170  42.741   5.104   7.248
 4721POPC   NC362171  11.056   2.269   5.262
 4721POPC   PO462172  11.321   1.702   5.576
 4721POPC   GL162173  11.144   1.828   5.929
 4721POPC   GL262174  11.202   2.179   5.879
 4721POPC   C1A62175  11.375   1.710   6.303
 4721POPC   D2A62176  11.520   1.881   6.670
 4721POPC   C3A62177  11.166   1.915   6.920
 4721POPC   C4A62178  11.116   1.731   7.284
 4721POPC   C1B62179  11.136   2.165   6.363
 4721POPC   C2B62180  11.349   2.357   6.709
 4721POPC   C3B62181  11.281   2.327   7.181
 4721POPC   C4B62182  11.355   2.458   7.605
 4722POPC   NC362183  39.724  16.929   5.298
 4722POPC   PO462184  39.875  16.487   5.426
 4722POPC   GL162185  39.943  16.637   5.853
 4722POPC   GL262186  39.883  16.978   5.803
 4722POPC   C1A62187  40.069  16.759   6.305
 4722POPC   D2A62188  40.054  16.540   6.727
 4722POPC   C3A62189  40.293  16.641   7.108
 4722POPC   C4A62190  40.276  16.322   7.436
 4722POPC   C1B62191  39.588  16.877   6.141
 4722POPC   C2B62192  39.629  16.829   6.605
 4722POPC   C3B62193  39.805  16.867   7.039
 4722POPC   C4B62194  39.941  16.727   7.451
 4723POPC   NC362195  35.750  16.027   5.507
 4723POPC   PO462196  36.384  15.837   5.514
 4723POPC   GL162197  36.233  15.805   5.880
 4723POPC   GL262198  35.907  15.644   5.908
 4723POPC   C1A62199  36.316  15.562   6.227
 4723POPC   D2A62200  36.055  15.506   6.595
 4723POPC   C3A62201  36.200  15.739   6.967
 4723POPC   C4A62202  36.036  15.770   7.412
 4723POPC   C1B62203  35.934  15.921   6.276
 4723POPC   C2B62204  35.899  16.084   6.697
 4723POPC   C3B62205  36.126  16.232   7.081
 4723POPC   C4B62206  36.158  16.249   7.528
 4724POPC   NC362207  10.636   9.343   5.482
 4724POPC   PO462208  10.317   8.774   5.448
 4724POPC   GL162209  10.539   8.820   5.847
 4724POPC   GL262210  10.546   9.173   5.954
 4724POPC   C1A62211  10.501   8.769   6.308
 4724POPC   D2A62212  10.565   8.962   6.727
 4724POPC   C3A62213  10.486   8.754   7.126
 4724POPC   C4A62214  10.111   8.638   7.369
 4724POPC   C1B62215  10.891   9.105   6.229
 4724POPC   C2B62216  11.050   9.005   6.620
 4724POPC   C3B62217  10.978   8.912   7.048
 4724POPC   C4B62218  10.913   8.941   7.482
 4725POPC   NC362219   2.072  43.648   5.452
 4725POPC   PO462220   1.632  44.117   5.454
 4725POPC   GL162221   1.682  43.772   5.772
 4725POPC   GL262222   1.994  43.895   5.879
 4725POPC   C1A62223   1.700  43.605   6.187
 4725POPC   D2A62224   1.861  43.892   6.510
 4725POPC   C3A62225   1.660  44.014   6.902
 4725POPC   C4A62226   1.865  43.829   7.266
 4725POPC   C1B62227   1.949  44.260   6.126
 4725POPC   C2B62228   2.166  44.299   6.523
 4725POPC   C3B62229   2.172  44.086   6.905
 4725POPC   C4B62230   2.054  44.295   7.251
 4726POPC   NC362231   6.999  20.618   5.489
 4726POPC   PO462232   7.578  20.213   5.614
 4726POPC   GL162233   7.352  20.503   5.843
 4726POPC   GL262234   7.095  20.265   5.879
 4726POPC   C1A62235   7.480  20.728   6.211
 4726POPC   D2A62236   7.659  20.523   6.595
 4726POPC   C3A62237   7.517  20.634   7.000
 4726POPC   C4A62238   7.659  20.418   7.346
 4726POPC   C1B62239   6.985  20.548   6.219
 4726POPC   C2B62240   7.154  20.661   6.597
 4726POPC   C3B62241   6.994  20.644   6.989
 4726POPC   C4B62242   7.139  20.612   7.366
 4727POPC   NC362243  27.462  27.522   5.317
 4727POPC   PO462244  28.108  27.317   5.397
 4727POPC   GL162245  27.854  27.546   5.669
 4727POPC   GL262246  27.787  27.285   5.858
 4727POPC   C1A62247  27.765  27.724   6.116
 4727POPC   D2A62248  27.730  27.636   6.583
 4727POPC   C3A62249  27.469  27.667   6.981
 4727POPC   C4A62250  27.162  27.578   7.333
 4727POPC   C1B62251  27.546  27.277   6.233
 4727POPC   C2B62252  27.471  27.159   6.666
 4727POPC   C3B62253  27.479  27.170   7.101
 4727POPC   C4B62254  27.569  27.326   7.493
 4728POPC   NC362255  25.827  15.221   5.305
 4728POPC   PO462256  26.409  15.435   5.134
 4728POPC   GL162257  26.210  15.264   5.620
 4728POPC   GL262258  25.870  15.356   5.815
 4728POPC   C1A62259  26.196  15.055   6.061
 4728POPC   D2A62260  26.342  14.949   6.491
 4728POPC   C3A62261  26.142  15.101   6.875
 4728POPC   C4A62262  26.103  15.317   7.287
 4728POPC   C1B62263  25.844  15.362   6.313
 4728POPC   C2B62264  25.799  15.467   6.757
 4728POPC   C3B62265  25.565  15.578   7.104
 4728POPC   C4B62266  25.613  15.281   7.406
 4729POPC   NC362267  39.064   0.075   5.466
 4729POPC   PO462268  39.273  44.491   5.070
 4729POPC   GL162269  39.204  44.554   5.536
 4729POPC   GL262270  39.500  44.601   5.746
 4729POPC   C1A62271  39.022  44.546   5.985
 4729POPC   D2A62272  38.818  44.686   6.385
 4729POPC   C3A62273  38.890  44.518   6.812
 4729POPC   C4A62274  38.891  44.808   7.147
 4729POPC   C1B62275  39.485  44.497   6.201
 4729POPC   C2B62276  39.324  44.708   6.584
 4729POPC   C3B62277  39.383  44.756   7.036
 4729POPC   C4B62278  39.590  44.517   7.353
 4730POPC   NC362279  10.225  40.996   5.383
 4730POPC   PO462280  10.592  40.459   5.490
 4730POPC   GL162281  10.511  40.829   5.764
 4730POPC   GL262282  10.734  41.122   5.721
 4730POPC   C1A62283  10.318  40.984   6.183
 4730POPC   D2A62284  10.519  40.811   6.580
 4730POPC   C3A62285  10.356  40.788   7.008
 4730POPC   C4A62286  10.427  40.771   7.460
 4730POPC   C1B62287  10.821  40.913   6.143
 4730POPC   C2B62288  10.974  41.041   6.512
 4730POPC   C3B62289  10.812  41.154   6.930
 4730POPC   C4B62290  10.899  41.000   7.356
 4731POPC   NC362291  11.664  17.665   5.434
 4731POPC   PO462292  11.031  17.436   5.416
 4731POPC   GL162293  11.233  17.476   5.802
 4731POPC   GL262294  11.424  17.182   5.707
 4731POPC   C1A62295  11.311  17.645   6.261
 4731POPC   D2A62296  11.325  17.624   6.731
 4731POPC   C3A62297  11.297  17.894   7.121
 4731POPC   C4A62298  11.231  17.791   7.591
 4731POPC   C1B62299  11.612  17.261   6.103
 4731POPC   C2B62300  11.548  17.179   6.552
 4731POPC   C3B62301  11.620  17.308   6.983
 4731POPC   C4B62302  11.254  17.404   7.224
 4732POPC   NC362303   6.075  18.642   5.415
 4732POPC   PO462304   5.908  17.942   5.276
 4732POPC   GL162305   5.775  18.214   5.672
 4732POPC   GL262306   5.841  18.535   5.837
 4732POPC   C1A62307   5.981  18.150   6.108
 4732POPC   D2A62308   5.855  18.249   6.519
 4732POPC   C3A62309   6.070  18.252   6.895
 4732POPC   C4A62310   5.864  18.152   7.296
 4732POPC   C1B62311   5.990  18.657   6.249
 4732POPC   C2B62312   5.834  18.727   6.676
 4732POPC   C3B62313   5.797  18.629   7.101
 4732POPC   C4B62314   6.125  18.559   7.414
 4733POPC   NC362315  20.374  16.155   5.571
 4733POPC   PO462316  20.651  15.642   5.447
 4733POPC   GL162317  20.658  15.834   5.837
 4733POPC   GL262318  20.883  16.080   5.840
 4733POPC   C1A62319  20.755  15.699   6.241
 4733POPC   D2A62320  20.695  15.865   6.651
 4733POPC   C3A62321  20.553  15.742   7.053
 4733POPC   C4A62322  20.174  15.941   7.242
 4733POPC   C1B62323  20.884  16.199   6.273
 4733POPC   C2B62324  20.971  16.286   6.703
 4733POPC   C3B62325  20.881  16.149   7.117
 4733POPC   C4B62326  20.913  16.277   7.540
 4734POPC   NC362327  44.972   0.647   5.410
 4734POPC   PO462328  44.510   0.119   5.447
 4734POPC   GL162329  44.671   0.358   5.810
 4734POPC   GL262330  44.462   0.645   5.881
 4734POPC   C1A62331  44.811   0.285   6.268
 4734POPC   D2A62332  44.635   0.136   6.673
 4734POPC   C3A62333  44.776   0.241   7.100
 4734POPC   C4A62334  44.535   0.291   7.480
 4734POPC   C1B62335  44.619   0.755   6.273
 4734POPC   C2B62336  44.540   0.645   6.699
 4734POPC   C3B62337  44.634   0.741   7.119
 4734POPC   C4B62338  44.367   0.811   7.484
 4735POPC   NC362339   9.890  44.523   5.420
 4735POPC   PO462340  10.338  44.883   5.565
 4735POPC   GL162341   9.966  44.835   5.851
 4735POPC   GL262342   9.605  44.712   5.821
 4735POPC   C1A62343   9.831  44.762   6.287
 4735POPC   D2A62344   9.993  44.586   6.664
 4735POPC   C3A62345   9.793  44.717   7.063
 4735POPC   C4A62346   9.780  44.707   7.528
 4735POPC   C1B62347   9.340  44.910   6.204
 4735POPC   C2B62348   9.482  44.938   6.670
 4735POPC   C3B62349   9.345  44.980   7.119
 4735POPC   C4B62350   9.310  44.890   7.559
 4736POPC   NC362351  37.905   5.977   5.404
 4736POPC   PO462352  37.520   5.510   5.504
 4736POPC   GL162353  37.566   5.833   5.799
 4736POPC   GL262354  37.891   5.818   5.867
 4736POPC   C1A62355  37.580   5.943   6.242
 4736POPC   D2A62356  37.469   5.997   6.654
 4736POPC   C3A62357  37.344   5.774   6.985
 4736POPC   C4A62358  37.580   5.968   7.275
 4736POPC   C1B62359  38.007   5.626   6.179
 4736POPC   C2B62360  37.951   5.744   6.562
 4736POPC   C3B62361  37.831   5.674   6.933
 4736POPC   C4B62362  38.046   5.771   7.267
 4737POPC   NC362363   7.309   1.078   5.289
 4737POPC   PO462364   7.090   1.675   5.467
 4737POPC   GL162365   7.344   1.353   5.747
 4737POPC   GL262366   7.211   1.038   5.812
 4737POPC   C1A62367   7.655   1.359   6.099
 4737POPC   D2A62368   7.760   1.321   6.543
 4737POPC   C3A62369   7.511   1.291   6.911
 4737POPC   C4A62370   7.594   1.259   7.350
 4737POPC   C1B62371   7.292   1.034   6.271
 4737POPC   C2B62372   7.127   0.974   6.705
 4737POPC   C3B62373   7.174   0.939   7.156
 4737POPC   C4B62374   7.147   1.068   7.574
 4738POPC   NC362375   5.469  27.511   5.357
 4738POPC   PO462376   4.870  27.720   5.562
 4738POPC   GL162377   5.060  27.607   5.907
 4738POPC   GL262378   5.423  27.690   5.838
 4738POPC   C1A62379   4.905  27.742   6.308
 4738POPC   D2A62380   4.782  28.056   6.610
 4738POPC   C3A62381   4.869  27.933   7.058
 4738POPC   C4A62382   4.916  27.716   7.479
 4738POPC   C1B62383   5.403  27.756   6.268
 4738POPC   C2B62384   5.273  27.827   6.701
 4738POPC   C3B62385   5.360  27.716   7.136
 4738POPC   C4B62386   5.408  27.677   7.621
 4739POPC   NC362387   6.889  28.168   5.417
 4739POPC   PO462388   6.402  28.686   5.437
 4739POPC   GL162389   6.470  28.408   5.771
 4739POPC   GL262390   6.822  28.468   5.819
 4739POPC   C1A62391   6.388  28.395   6.226
 4739POPC   D2A62392   6.521  28.112   6.580
 4739POPC   C3A62393   6.371  28.250   6.983
 4739POPC   C4A62394   6.576  28.437   7.326
 4739POPC   C1B62395   6.874  28.221   6.192
 4739POPC   C2B62396   7.045  28.094   6.588
 4739POPC   C3B62397   6.898  28.117   6.989
 4739POPC   C4B62398   7.078  28.418   7.189
 4740POPC   NC362399  36.644  17.380   5.375
 4740POPC   PO462400  37.287  17.094   5.459
 4740POPC   GL162401  37.024  17.340   5.767
 4740POPC   GL262402  36.684  17.310   5.875
 4740POPC   C1A62403  36.980  17.500   6.214
 4740POPC   D2A62404  37.149  17.611   6.597
 4740POPC   C3A62405  36.840  17.772   6.872
 4740POPC   C4A62406  36.735  17.831   7.302
 4740POPC   C1B62407  36.552  17.187   6.290
 4740POPC   C2B62408  36.743  17.295   6.700
 4740POPC   C3B62409  36.759  17.349   7.174
 4740POPC   C4B62410  36.581  17.439   7.610
 4741POPC   NC362411  25.452  23.710   5.279
 4741POPC   PO462412  24.858  23.751   5.550
 4741POPC   GL162413  25.070  23.565   5.881
 4741POPC   GL262414  25.419  23.672   5.810
 4741POPC   C1A62415  25.037  23.600   6.337
 4741POPC   D2A62416  25.228  23.845   6.672
 4741POPC   C3A62417  25.108  23.784   7.119
 4741POPC   C4A62418  25.026  23.909   7.562
 4741POPC   C1B62419  25.558  23.569   6.238
 4741POPC   C2B62420  25.632  23.525   6.703
 4741POPC   C3B62421  25.547  23.493   7.169
 4741POPC   C4B62422  25.702  23.297   7.565
 4742POPC   NC362423  10.027   0.271   5.513
 4742POPC   PO462424  10.663   0.305   5.286
 4742POPC   GL162425  10.469   0.422   5.745
 4742POPC   GL262426  10.185   0.670   5.780
 4742POPC   C1A62427  10.553   0.480   6.238
 4742POPC   D2A62428  10.661   0.206   6.593
 4742POPC   C3A62429  10.784   0.366   6.976
 4742POPC   C4A62430  10.614   0.223   7.353
 4742POPC   C1B62431  10.069   0.399   6.131
 4742POPC   C2B62432  10.105   0.204   6.543
 4742POPC   C3B62433  10.278   0.395   6.919
 4742POPC   C4B62434  10.145   0.456   7.339
 4743POPC   NC362435  32.925   0.739   5.396
 4743POPC   PO462436  33.352   0.219   5.733
 4743POPC   GL162437  33.058   0.311   6.024
 4743POPC   GL262438  32.836   0.565   5.879
 4743POPC   C1A62439  33.073   0.268   6.473
 4743POPC   D2A62440  32.927   0.574   6.777
 4743POPC   C3A62441  33.176   0.404   7.075
 4743POPC   C4A62442  33.304   0.205   7.380
 4743POPC   C1B62443  32.681   0.560   6.298
 4743POPC   C2B62444  32.576   0.234   6.610
 4743POPC   C3B62445  32.648   0.274   7.085
 4743POPC   C4B62446  32.825   0.586   7.400
 4744POPC   NC362447  13.718  24.199   5.567
 4744POPC   PO462448  13.338  23.634   5.531
 4744POPC   GL162449  13.431  23.788   5.869
 4744POPC   GL262450  13.730  23.643   5.866
 4744POPC   C1A62451  13.492  23.761   6.312
 4744POPC   D2A62452  13.285  23.721   6.679
 4744POPC   C3A62453  13.448  23.977   7.019
 4744POPC   C4A62454  13.600  23.592   7.090
 4744POPC   C1B62455  13.893  23.446   6.237
 4744POPC   C2B62456  13.905  23.469   6.689
 4744POPC   C3B62457  14.100  23.679   7.050
 4744POPC   C4B62458  13.920  23.657   7.467
 4745POPC   NC362459   5.477  40.205   5.385
 4745POPC   PO462460   6.027  39.872   5.185
 4745POPC   GL162461   5.932  40.042   5.619
 4745POPC   GL262462   6.261  40.003   5.743
 4745POPC   C1A62463   5.779  39.994   6.087
 4745POPC   D2A62464   5.665  40.159   6.515
 4745POPC   C3A62465   5.577  40.029   6.956
 4745POPC   C4A62466   5.682  40.221   7.387
 4745POPC   C1B62467   6.403  39.958   6.171
 4745POPC   C2B62468   6.296  39.680   6.494
 4745POPC   C3B62469   6.017  39.798   6.820
 4745POPC   C4B62470   5.944  39.833   7.258
 4746POPC   NC362471   2.315  20.892   5.292
 4746POPC   PO462472   1.831  21.449   5.361
 4746POPC   GL162473   2.053  21.489   5.742
 4746POPC   GL262474   2.111  21.138   5.700
 4746POPC   C1A62475   1.985  21.691   6.142
 4746POPC   D2A62476   1.801  21.482   6.485
 4746POPC   C3A62477   1.926  21.547   6.903
 4746POPC   C4A62478   1.763  21.314   7.240
 4746POPC   C1B62479   1.925  21.127   6.106
 4746POPC   C2B62480   2.129  21.088   6.502
 4746POPC   C3B62481   2.089  21.054   6.927
 4746POPC   C4B62482   2.257  21.062   7.352
 4747POPC   NC362483   4.174  10.506   5.268
 4747POPC   PO462484   3.714  10.424   5.702
 4747POPC   GL162485   4.185  10.553   5.787
 4747POPC   GL262486   4.545  10.779   5.811
 4747POPC   C1A62487   4.303  10.512   6.202
 4747POPC   D2A62488   4.508  10.263   6.507
 4747POPC   C3A62489   4.288  10.318   6.875
 4747POPC   C4A62490   4.401  10.175   7.248
 4747POPC   C1B62491   4.570  10.958   6.242
 4747POPC   C2B62492   4.412  10.783   6.643
 4747POPC   C3B62493   4.603  10.742   7.080
 4747POPC   C4B62494   4.867  10.846   7.475
 4748POPC   NC362495   2.358  37.777   5.385
 4748POPC   PO462496   2.266  37.133   5.444
 4748POPC   GL162497   2.002  37.511   5.681
 4748POPC   GL262498   2.068  37.894   5.783
 4748POPC   C1A62499   1.813  37.585   6.107
 4748POPC   D2A62500   1.865  37.805   6.487
 4748POPC   C3A62501   1.816  37.714   6.936
 4748POPC   C4A62502   2.031  37.635   7.347
 4748POPC   C1B62503   2.290  37.786   6.157
 4748POPC   C2B62504   2.363  37.708   6.603
 4748POPC   C3B62505   2.305  37.888   7.008
 4748POPC   C4B62506   2.407  37.972   7.459
 4749POPC   NC362507  40.646  27.994   5.489
 4749POPC   PO462508  40.748  28.571   5.554
 4749POPC   GL162509  40.710  28.325   5.938
 4749POPC   GL262510  40.691  27.948   6.001
 4749POPC   C1A62511  40.896  28.450   6.319
 4749POPC   D2A62512  41.007  28.582   6.733
 4749POPC   C3A62513  40.800  28.461   7.092
 4749POPC   C4A62514  40.987  28.235   7.413
 4749POPC   C1B62515  40.843  27.971   6.429
 4749POPC   C2B62516  40.923  28.023   6.876
 4749POPC   C3B62517  40.599  27.997   7.193
 4749POPC   C4B62518  40.662  27.882   7.610
 4750POPC   NC362519  33.298  38.739   5.299
 4750POPC   PO462520  33.202  38.135   5.536
 4750POPC   GL162521  33.140  38.431   5.873
 4750POPC   GL262522  32.851  38.623   5.870
 4750POPC   C1A62523  33.107  38.566   6.325
 4750POPC   D2A62524  33.362  38.621   6.687
 4750POPC   C3A62525  33.316  38.313   7.018
 4750POPC   C4A62526  33.026  38.259   7.362
 4750POPC   C1B62527  32.660  38.810   6.259
 4750POPC   C2B62528  32.753  38.731   6.714
 4750POPC   C3B62529  32.902  38.760   7.153
 4750POPC   C4B62530  32.960  38.955   7.597
 4751POPC   NC362531  10.670  29.821   5.497
 4751POPC   PO462532  10.198  30.044   5.181
 4751POPC   GL162533  10.197  29.874   5.691
 4751POPC   GL262534  10.271  29.556   5.802
 4751POPC   C1A62535  10.396  29.924   6.145
 4751POPC   D2A62536  10.314  29.862   6.588
 4751POPC   C3A62537  10.395  30.173   6.906
 4751POPC   C4A62538  10.480  29.991   7.290
 4751POPC   C1B62539  10.568  29.437   6.143
 4751POPC   C2B62540  10.566  29.389   6.591
 4751POPC   C3B62541  10.658  29.588   6.983
 4751POPC   C4B62542  10.903  29.730   7.363
 4752POPC   NC362543  16.504   0.493   5.190
 4752POPC   PO462544  15.975   0.693   5.318
 4752POPC   GL162545  16.135   0.530   5.687
 4752POPC   GL262546  15.881   0.294   5.707
 4752POPC   C1A62547  16.137   0.571   6.142
 4752POPC   D2A62548  15.979   0.757   6.524
 4752POPC   C3A62549  16.170   0.746   6.909
 4752POPC   C4A62550  15.987   0.620   7.258
 4752POPC   C1B62551  15.767   0.153   6.098
 4752POPC   C2B62552  15.867   0.265   6.506
 4752POPC   C3B62553  15.851   0.255   6.933
 4752POPC   C4B62554  15.599  44.975   7.180
 4753POPC   NC362555  43.930   9.444   5.488
 4753POPC   PO462556  44.191   9.979   5.226
 4753POPC   GL162557  44.192  10.013   5.730
 4753POPC   GL262558  44.274   9.666   5.812
 4753POPC   C1A62559  43.919  10.064   6.170
 4753POPC   D2A62560  43.661  10.136   6.575
 4753POPC   C3A62561  43.782  10.008   7.009
 4753POPC   C4A62562  43.551  10.025   7.438
 4753POPC   C1B62563  43.999   9.548   6.165
 4753POPC   C2B62564  43.878   9.662   6.612
 4753POPC   C3B62565  43.900   9.495   7.033
 4753POPC   C4B62566  44.094   9.405   7.420
 4754POPC   NC362567   8.038  23.228   4.941
 4754POPC   PO462568   8.195  22.631   5.176
 4754POPC   GL162569   8.263  22.773   5.728
 4754POPC   GL262570   8.100  23.095   5.849
 4754POPC   C1A62571   8.103  22.698   6.185
 4754POPC   D2A62572   7.908  22.914   6.530
 4754POPC   C3A62573   8.052  22.733   6.913
 4754POPC   C4A62574   7.821  22.763   7.285
 4754POPC   C1B62575   8.108  23.320   6.230
 4754POPC   C2B62576   8.229  23.297   6.651
 4754POPC   C3B62577   8.090  23.221   7.048
 4754POPC   C4B62578   8.284  23.309   7.399
 4755POPC   NC362579   9.336  25.003   5.428
 4755POPC   PO462580   9.899  24.652   5.476
 4755POPC   GL162581   9.602  24.422   5.733
 4755POPC   GL262582   9.279  24.601   5.751
 4755POPC   C1A62583   9.709  24.285   6.165
 4755POPC   D2A62584   9.927  24.342   6.569
 4755POPC   C3A62585   9.735  24.460   6.991
 4755POPC   C4A62586   9.907  24.257   7.361
 4755POPC   C1B62587   9.455  24.710   6.143
 4755POPC   C2B62588   9.458  24.579   6.560
 4755POPC   C3B62589   9.317  24.794   6.924
 4755POPC   C4B62590   9.334  24.662   7.373
 4756POPC   NC362591   5.359  11.741   5.605
 4756POPC   PO462592   5.018  12.285   5.261
 4756POPC   GL162593   4.948  12.021   5.651
 4756POPC   GL262594   5.261  12.191   5.808
 4756POPC   C1A62595   4.956  11.911   6.135
 4756POPC   D2A62596   5.097  11.755   6.576
 4756POPC   C3A62597   5.019  11.999   6.979
 4756POPC   C4A62598   5.137  12.060   7.457
 4756POPC   C1B62599   5.516  12.281   6.164
 4756POPC   C2B62600   5.389  12.173   6.580
 4756POPC   C3B62601   5.346  12.400   6.947
 4756POPC   C4B62602   5.562  12.360   7.317
 4757POPC   NC362603  22.187  13.015   5.115
 4757POPC   PO462604  22.490  12.629   5.597
 4757POPC   GL162605  22.276  12.813   5.931
 4757POPC   GL262606  22.039  12.641   6.030
 4757POPC   C1A62607  22.097  13.094   6.241
 4757POPC   D2A62608  21.912  12.879   6.587
 4757POPC   C3A62609  21.933  13.081   6.998
 4757POPC   C4A62610  22.284  13.189   7.241
 4757POPC   C1B62611  21.914  12.358   6.272
 4757POPC   C2B62612  21.747  12.405   6.674
 4757POPC   C3B62613  21.902  12.529   7.087
 4757POPC   C4B62614  21.820  12.451   7.535
 4758POPC   NC362615  33.492  37.090   5.553
 4758POPC   PO462616  33.037  36.548   5.521
 4758POPC   GL162617  32.944  36.869   5.800
 4758POPC   GL262618  33.260  36.867   5.979
 4758POPC   C1A62619  32.726  36.871   6.178
 4758POPC   D2A62620  32.968  36.962   6.510
 4758POPC   C3A62621  32.833  36.953   6.913
 4758POPC   C4A62622  33.134  36.868   7.211
 4758POPC   C1B62623  33.251  37.276   6.192
 4758POPC   C2B62624  33.373  37.352   6.621
 4758POPC   C3B62625  33.177  37.349   7.026
 4758POPC   C4B62626  33.256  37.367   7.465
 4759POPC   NC362627  15.607  42.353   5.583
 4759POPC   PO462628  16.021  41.875   5.320
 4759POPC   GL162629  16.165  42.145   5.735
 4759POPC   GL262630  15.940  42.338   5.979
 4759POPC   C1A62631  16.381  42.100   6.169
 4759POPC   D2A62632  16.488  41.929   6.597
 4759POPC   C3A62633  16.169  42.157   6.904
 4759POPC   C4A62634  16.280  42.434   7.243
 4759POPC   C1B62635  15.590  42.399   6.294
 4759POPC   C2B62636  15.536  42.461   6.754
 4759POPC   C3B62637  15.763  42.437   7.145
 4759POPC   C4B62638  15.791  42.314   7.560
 4760POPC   NC362639  30.803  13.494   5.260
 4760POPC   PO462640  30.699  14.086   5.321
 4760POPC   GL162641  30.708  13.768   5.711
 4760POPC   GL262642  30.805  13.405   5.789
 4760POPC   C1A62643  30.516  13.753   6.149
 4760POPC   D2A62644  30.386  13.480   6.472
 4760POPC   C3A62645  30.711  13.356   6.745
 4760POPC   C4A62646  30.715  13.461   7.194
 4760POPC   C1B62647  30.974  13.513   6.220
 4760POPC   C2B62648  31.134  13.678   6.618
 4760POPC   C3B62649  31.116  13.869   7.046
 4760POPC   C4B62650  30.998  13.804   7.506
 4761POPC   NC362651  38.288  31.243   5.322
 4761POPC   PO462652  38.370  30.596   5.187
 4761POPC   GL162653  38.344  30.792   5.616
 4761POPC   GL262654  38.643  30.848   5.773
 4761POPC   C1A62655  38.194  30.677   6.056
 4761POPC   D2A62656  38.135  30.425   6.473
 4761POPC   C3A62657  38.325  30.622   6.879
 4761POPC   C4A62658  38.312  30.674   7.351
 4761POPC   C1B62659  38.778  30.826   6.167
 4761POPC   C2B62660  38.785  30.668   6.568
 4761POPC   C3B62661  38.912  30.615   6.948
 4761POPC   C4B62662  38.722  30.882   7.161
 4762POPC   NC362663  24.295  36.939   5.496
 4762POPC   PO462664  24.908  36.639   5.362
 4762POPC   GL162665  24.703  36.803   5.798
 4762POPC   GL262666  24.717  37.132   5.912
 4762POPC   C1A62667  24.327  36.893   6.167
 4762POPC   D2A62668  24.066  36.623   6.482
 4762POPC   C3A62669  24.028  36.712   6.952
 4762POPC   C4A62670  24.217  36.751   7.392
 4762POPC   C1B62671  24.816  36.966   6.308
 4762POPC   C2B62672  24.690  37.030   6.733
 4762POPC   C3B62673  24.780  36.919   7.128
 4762POPC   C4B62674  24.742  37.316   7.275
 4763POPC   NC362675  32.761  29.578   5.505
 4763POPC   PO462676  32.693  30.321   5.331
 4763POPC   GL162677  32.547  30.028   5.711
 4763POPC   GL262678  32.233  29.824   5.795
 4763POPC   C1A62679  32.370  30.151   6.149
 4763POPC   D2A62680  32.324  30.372   6.563
 4763POPC   C3A62681  32.353  30.155   6.983
 4763POPC   C4A62682  32.261  30.045   7.439
 4763POPC   C1B62683  32.210  29.682   6.256
 4763POPC   C2B62684  32.283  29.718   6.735
 4763POPC   C3B62685  32.130  29.609   7.191
 4763POPC   C4B62686  32.162  29.604   7.674
 4764POPC   NC362687  13.820  16.820   5.363
 4764POPC   PO462688  13.247  17.113   5.558
 4764POPC   GL162689  13.475  16.808   5.796
 4764POPC   GL262690  13.803  16.631   5.818
 4764POPC   C1A62691  13.469  16.651   6.236
 4764POPC   D2A62692  13.297  16.710   6.660
 4764POPC   C3A62693  13.536  16.889   6.996
 4764POPC   C4A62694  13.412  17.170   7.330
 4764POPC   C1B62695  13.969  16.499   6.190
 4764POPC   C2B62696  13.794  16.420   6.595
 4764POPC   C3B62697  13.994  16.462   6.998
 4764POPC   C4B62698  13.946  16.704   7.344
 4765POPC   NC362699  32.528   1.294   5.619
 4765POPC   PO462700  33.117   1.383   5.373
 4765POPC   GL162701  33.063   1.398   5.788
 4765POPC   GL262702  32.941   1.066   5.792
 4765POPC   C1A62703  33.231   1.471   6.206
 4765POPC   D2A62704  32.957   1.474   6.582
 4765POPC   C3A62705  33.105   1.564   6.990
 4765POPC   C4A62706  33.011   1.459   7.421
 4765POPC   C1B62707  33.010   0.987   6.196
 4765POPC   C2B62708  33.292   1.082   6.532
 4765POPC   C3B62709  33.120   1.057   6.908
 4765POPC   C4B62710  33.236   0.856   7.263
 4766POPC   NC362711  33.479  43.364   5.384
 4766POPC   PO462712  33.109  42.786   5.371
 4766POPC   GL162713  32.980  43.012   5.754
 4766POPC   GL262714  33.196  43.329   5.831
 4766POPC   C1A62715  32.863  43.178   6.172
 4766POPC   D2A62716  33.012  43.051   6.568
 4766POPC   C3A62717  32.876  43.174   6.976
 4766POPC   C4A62718  32.950  43.014   7.417
 4766POPC   C1B62719  33.363  43.390   6.289
 4766POPC   C2B62720  33.334  43.449   6.756
 4766POPC   C3B62721  33.345  43.255   7.176
 4766POPC   C4B62722  33.300  43.357   7.641
 4767POPC   NC362723   8.623   0.430   5.253
 4767POPC   PO462724   9.156   0.846   5.239
 4767POPC   GL162725   8.913   0.673   5.612
 4767POPC   GL262726   8.791   0.360   5.737
 4767POPC   C1A62727   8.854   0.731   6.073
 4767POPC   D2A62728   9.111   0.590   6.413
 4767POPC   C3A62729   8.984   0.709   6.804
 4767POPC   C4A62730   9.257   0.503   7.053
 4767POPC   C1B62731   8.889   0.199   6.168
 4767POPC   C2B62732   8.985   0.097   6.624
 4767POPC   C3B62733   8.863   0.160   7.073
 4767POPC   C4B62734   8.815   0.089   7.534
 4768POPC   NC362735  32.782  35.087   5.441
 4768POPC   PO462736  33.133  35.678   5.418
 4768POPC   GL162737  32.967  35.425   5.755
 4768POPC   GL262738  33.234  35.225   5.734
 4768POPC   C1A62739  32.821  35.365   6.170
 4768POPC   D2A62740  32.822  35.549   6.595
 4768POPC   C3A62741  32.621  35.290   6.893
 4768POPC   C4A62742  32.757  35.318   7.282
 4768POPC   C1B62743  33.291  35.076   6.145
 4768POPC   C2B62744  33.387  35.120   6.577
 4768POPC   C3B62745  33.164  35.179   6.960
 4768POPC   C4B62746  33.270  35.026   7.342
 4769POPC   NC362747  36.518  41.723   5.476
 4769POPC   PO462748  35.958  41.384   5.450
 4769POPC   GL162749  36.146  41.325   5.834
 4769POPC   GL262750  36.495  41.268   5.872
 4769POPC   C1A62751  35.965  41.177   6.219
 4769POPC   D2A62752  35.889  41.269   6.675
 4769POPC   C3A62753  36.228  41.475   6.888
 4769POPC   C4A62754  36.179  41.628   7.312
 4769POPC   C1B62755  36.407  41.500   6.262
 4769POPC   C2B62756  36.625  41.734   6.598
 4769POPC   C3B62757  36.563  41.832   7.046
 4769POPC   C4B62758  36.641  41.646   7.478
 4770POPC   NC362759  14.666  42.415   5.668
 4770POPC   PO462760  14.032  42.172   5.452
 4770POPC   GL162761  14.172  42.260   5.850
 4770POPC   GL262762  14.211  41.923   5.900
 4770POPC   C1A62763  14.297  42.243   6.301
 4770POPC   D2A62764  14.007  42.404   6.580
 4770POPC   C3A62765  14.135  42.553   6.985
 4770POPC   C4A62766  14.118  42.587   7.422
 4770POPC   C1B62767  14.353  41.702   6.253
 4770POPC   C2B62768  14.502  41.831   6.612
 4770POPC   C3B62769  14.319  42.087   6.869
 4770POPC   C4B62770  14.278  42.130   7.260
 4771POPC   NC362771   6.384  27.556   5.048
 4771POPC   PO462772   5.806  27.887   5.349
 4771POPC   GL162773   5.916  27.565   5.663
 4771POPC   GL262774   6.281  27.626   5.656
 4771POPC   C1A62775   5.938  27.497   6.125
 4771POPC   D2A62776   5.779  27.612   6.559
 4771POPC   C3A62777   5.872  27.384   6.906
 4771POPC   C4A62778   5.787  27.503   7.337
 4771POPC   C1B62779   6.466  27.416   6.024
 4771POPC   C2B62780   6.295  27.171   6.391
 4771POPC   C3B62781   6.400  27.243   6.820
 4771POPC   C4B62782   6.261  27.390   7.230
 4772POPC   NC362783  22.765  44.707   5.381
 4772POPC   PO462784  23.262  44.315   5.165
 4772POPC   GL162785  23.077  44.421   5.655
 4772POPC   GL262786  22.719  44.368   5.764
 4772POPC   C1A62787  23.058  44.470   6.151
 4772POPC   D2A62788  23.032  44.611   6.623
 4772POPC   C3A62789  23.219  44.471   7.017
 4772POPC   C4A62790  23.519  44.817   7.136
 4772POPC   C1B62791  22.530  44.512   6.164
 4772POPC   C2B62792  22.569  44.422   6.614
 4772POPC   C3B62793  22.573  44.622   7.035
 4772POPC   C4B62794  22.741  44.702   7.469
 4773POPC   NC362795  35.025  21.710   5.642
 4773POPC   PO462796  35.636  21.732   5.329
 4773POPC   GL162797  35.546  21.554   5.761
 4773POPC   GL262798  35.307  21.279   5.804
 4773POPC   C1A62799  35.393  21.575   6.209
 4773POPC   D2A62800  35.062  21.642   6.528
 4773POPC   C3A62801  35.207  21.530   6.943
 4773POPC   C4A62802  35.345  21.200   7.208
 4773POPC   C1B62803  35.617  21.136   6.114
 4773POPC   C2B62804  35.836  21.300   6.455
 4773POPC   C3B62805  35.701  21.227   6.847
 4773POPC   C4B62806  35.854  21.136   7.230
 4774POPC   NC362807   2.915   8.398   5.410
 4774POPC   PO462808   2.630   7.832   5.630
 4774POPC   GL162809   2.515   8.094   5.886
 4774POPC   GL262810   2.514   8.422   5.742
 4774POPC   C1A62811   2.613   8.032   6.277
 4774POPC   D2A62812   2.857   8.002   6.613
 4774POPC   C3A62813   2.592   8.011   6.921
 4774POPC   C4A62814   2.774   7.879   7.256
 4774POPC   C1B62815   2.407   8.485   6.176
 4774POPC   C2B62816   2.540   8.410   6.591
 4774POPC   C3B62817   2.858   8.486   6.859
 4774POPC   C4B62818   2.780   8.372   7.254
 4775POPC   NC362819  35.630  22.220   5.486
 4775POPC   PO462820  36.264  22.495   5.482
 4775POPC   GL162821  36.181  22.207   5.820
 4775POPC   GL262822  35.857  22.160   5.958
 4775POPC   C1A62823  36.295  22.064   6.222
 4775POPC   D2A62824  36.054  22.116   6.613
 4775POPC   C3A62825  36.308  22.025   6.995
 4775POPC   C4A62826  36.205  22.033   7.443
 4775POPC   C1B62827  35.735  22.458   6.280
 4775POPC   C2B62828  35.620  22.422   6.719
 4775POPC   C3B62829  35.791  22.205   7.087
 4775POPC   C4B62830  35.790  22.351   7.508
 4776POPC   NC362831   8.714  33.694   5.347
 4776POPC   PO462832   8.800  34.296   5.625
 4776POPC   GL162833   8.928  34.028   5.939
 4776POPC   GL262834   9.291  34.076   5.983
 4776POPC   C1A62835   8.969  33.821   6.345
 4776POPC   D2A62836   8.701  33.597   6.654
 4776POPC   C3A62837   8.773  33.619   7.102
 4776POPC   C4A62838   8.773  33.932   7.447
 4776POPC   C1B62839   9.416  34.119   6.395
 4776POPC   C2B62840   9.349  33.929   6.751
 4776POPC   C3B62841   9.100  34.060   7.077
 4776POPC   C4B62842   9.069  34.366   7.376
 4777POPC   NC362843   2.989   1.737   5.451
 4777POPC   PO462844   2.909   2.378   5.443
 4777POPC   GL162845   2.761   2.098   5.742
 4777POPC   GL262846   2.496   1.886   5.597
 4777POPC   C1A62847   2.719   1.858   6.134
 4777POPC   D2A62848   2.852   1.924   6.561
 4777POPC   C3A62849   2.893   1.762   6.991
 4777POPC   C4A62850   2.976   1.890   7.437
 4777POPC   C1B62851   2.301   2.124   5.957
 4777POPC   C2B62852   2.304   2.052   6.415
 4777POPC   C3B62853   2.403   1.906   6.838
 4777POPC   C4B62854   2.499   1.989   7.264
 4778POPC   NC362855   9.993  39.326   5.453
 4778POPC   PO462856   9.348  39.454   5.656
 4778POPC   GL162857   9.744  39.490   5.923
 4778POPC   GL262858  10.132  39.589   5.878
 4778POPC   C1A62859   9.787  39.238   6.279
 4778POPC   D2A62860   9.604  39.021   6.623
 4778POPC   C3A62861   9.833  38.950   6.998
 4778POPC   C4A62862   9.468  38.906   7.248
 4778POPC   C1B62863  10.270  39.401   6.275
 4778POPC   C2B62864  10.056  39.357   6.703
 4778POPC   C3B62865  10.145  39.386   7.126
 4778POPC   C4B62866  10.241  39.469   7.550
 4779POPC   NC362867   2.662  11.520   5.522
 4779POPC   PO462868   3.005  11.182   5.115
 4779POPC   GL162869   2.775  11.035   5.576
 4779POPC   GL262870   2.421  11.116   5.711
 4779POPC   C1A62871   2.767  11.176   6.093
 4779POPC   D2A62872   2.651  11.414   6.489
 4779POPC   C3A62873   2.770  11.256   6.921
 4779POPC   C4A62874   2.621  11.408   7.339
 4779POPC   C1B62875   2.262  11.154   6.154
 4779POPC   C2B62876   2.362  11.007   6.570
 4779POPC   C3B62877   2.252  11.233   6.950
 4779POPC   C4B62878   2.202  11.093   7.365
 4780POPC   NC362879  12.352   4.432   5.520
 4780POPC   PO462880  11.771   4.155   5.354
 4780POPC   GL162881  11.932   4.110   5.779
 4780POPC   GL262882  11.910   4.466   5.854
 4780POPC   C1A62883  11.822   4.126   6.237
 4780POPC   D2A62884  11.864   4.363   6.623
 4780POPC   C3A62885  11.964   4.202   7.005
 4780POPC   C4A62886  12.306   4.161   7.261
 4780POPC   C1B62887  12.182   4.546   6.226
 4780POPC   C2B62888  12.248   4.733   6.653
 4780POPC   C3B62889  12.269   4.634   7.099
 4780POPC   C4B62890  12.120   4.510   7.562
 4781POPC   NC362891   5.556   9.532   5.424
 4781POPC   PO462892   6.226   9.652   5.578
 4781POPC   GL162893   5.829   9.707   5.833
 4781POPC   GL262894   5.711  10.055   5.876
 4781POPC   C1A62895   5.595   9.686   6.252
 4781POPC   D2A62896   5.655   9.379   6.604
 4781POPC   C3A62897   5.888   9.499   6.946
 4781POPC   C4A62898   5.623   9.823   7.070
 4781POPC   C1B62899   6.039   9.964   6.228
 4781POPC   C2B62900   6.076   9.989   6.701
 4781POPC   C3B62901   6.061  10.067   7.155
 4781POPC   C4B62902   5.773  10.082   7.524
 4782POPC   NC362903  23.697  15.678   5.523
 4782POPC   PO462904  23.310  16.164   5.788
 4782POPC   GL162905  23.392  15.767   5.913
 4782POPC   GL262906  23.727  15.861   6.027
 4782POPC   C1A62907  23.412  15.555   6.262
 4782POPC   D2A62908  23.601  15.744   6.611
 4782POPC   C3A62909  23.374  16.062   6.834
 4782POPC   C4A62910  23.414  16.165   7.293
 4782POPC   C1B62911  24.090  16.002   6.295
 4782POPC   C2B62912  24.170  16.153   6.714
 4782POPC   C3B62913  23.856  16.129   7.017
 4782POPC   C4B62914  23.641  15.737   7.138
 4783POPC   NC362915  13.072  24.028   5.495
 4783POPC   PO462916  12.711  23.586   5.324
 4783POPC   GL162917  12.866  23.608   5.744
 4783POPC   GL262918  12.642  23.886   5.829
 4783POPC   C1A62919  12.994  23.733   6.158
 4783POPC   D2A62920  12.711  23.844   6.483
 4783POPC   C3A62921  12.818  23.585   6.805
 4783POPC   C4A62922  13.072  23.649   7.144
 4783POPC   C1B62923  12.504  23.522   6.129
 4783POPC   C2B62924  12.391  23.371   6.560
 4783POPC   C3B62925  12.409  23.385   7.007
 4783POPC   C4B62926  12.570  23.704   7.238
 4784POPC   NC362927  21.622   4.752   5.356
 4784POPC   PO462928  21.160   5.184   5.551
 4784POPC   GL162929  21.464   5.054   5.813
 4784POPC   GL262930  21.374   4.732   5.839
 4784POPC   C1A62931  21.634   5.153   6.213
 4784POPC   D2A62932  21.447   5.248   6.609
 4784POPC   C3A62933  21.643   5.199   6.996
 4784POPC   C4A62934  21.580   4.864   7.279
 4784POPC   C1B62935  21.122   4.588   6.170
 4784POPC   C2B62936  21.222   4.738   6.566
 4784POPC   C3B62937  21.230   4.638   6.978
 4784POPC   C4B62938  21.038   4.584   7.358
 4785POPC   NC362939   8.146  25.549   5.099
 4785POPC   PO462940   8.014  24.986   5.551
 4785POPC   GL162941   8.015  25.224   5.872
 4785POPC   GL262942   8.342  25.414   5.882
 4785POPC   C1A62943   8.147  25.142   6.280
 4785POPC   D2A62944   8.189  25.369   6.636
 4785POPC   C3A62945   8.033  25.124   6.939
 4785POPC   C4A62946   8.201  24.952   7.313
 4785POPC   C1B62947   8.034  25.646   6.157
 4785POPC   C2B62948   7.779  25.703   6.531
 4785POPC   C3B62949   7.875  25.615   6.965
 4785POPC   C4B62950   8.201  25.469   7.270
 4786POPC   NC362951  20.123   1.254   5.186
 4786POPC   PO462952  20.751   1.067   5.214
 4786POPC   GL162953  20.575   1.159   5.638
 4786POPC   GL262954  20.351   1.453   5.649
 4786POPC   C1A62955  20.386   0.997   6.030
 4786POPC   D2A62956  20.439   1.116   6.476
 4786POPC   C3A62957  20.679   0.994   6.858
 4786POPC   C4A62958  20.683   1.156   7.262
 4786POPC   C1B62959  20.222   1.492   6.113
 4786POPC   C2B62960  20.160   1.531   6.571
 4786POPC   C3B62961  20.484   1.467   6.894
 4786POPC   C4B62962  20.632   1.653   7.293
 4787POPC   NC362963  33.232  27.846   5.461
 4787POPC   PO462964  33.154  27.202   5.391
 4787POPC   GL162965  33.169  27.506   5.831
 4787POPC   GL262966  32.921  27.852   5.857
 4787POPC   C1A62967  33.013  27.540   6.294
 4787POPC   D2A62968  32.718  27.368   6.638
 4787POPC   C3A62969  32.892  27.304   7.050
 4787POPC   C4A62970  32.962  27.465   7.462
 4787POPC   C1B62971  32.909  28.156   6.197
 4787POPC   C2B62972  32.904  28.001   6.604
 4787POPC   C3B62973  32.819  27.830   7.002
 4787POPC   C4B62974  32.939  27.982   7.392
 4788POPC   NC362975  13.171  10.738   5.354
 4788POPC   PO462976  13.727  10.261   5.454
 4788POPC   GL162977  13.664  10.498   5.820
 4788POPC   GL262978  13.442  10.769   5.790
 4788POPC   C1A62979  13.531  10.407   6.244
 4788POPC   D2A62980  13.565  10.127   6.603
 4788POPC   C3A62981  13.447  10.351   6.968
 4788POPC   C4A62982  13.742  10.603   7.165
 4788POPC   C1B62983  13.575  10.935   6.192
 4788POPC   C2B62984  13.463  10.821   6.603
 4788POPC   C3B62985  13.307  11.111   6.877
 4788POPC   C4B62986  13.413  11.002   7.275
 4789POPC   NC362987  19.520   5.308   5.397
 4789POPC   PO462988  19.854   5.790   5.128
 4789POPC   GL162989  19.892   5.779   5.618
 4789POPC   GL262990  20.211   5.925   5.786
 4789POPC   C1A62991  19.832   5.884   6.102
 4789POPC   D2A62992  20.151   6.077   6.414
 4789POPC   C3A62993  20.040   6.077   6.874
 4789POPC   C4A62994  20.161   6.199   7.292
 4789POPC   C1B62995  20.279   5.625   6.185
 4789POPC   C2B62996  20.133   5.612   6.647
 4789POPC   C3B62997  20.261   5.586   7.101
 4789POPC   C4B62998  20.143   5.536   7.551
 4790POPC   NC362999  36.763   4.644   5.457
 4790POPC   PO463000  37.145   4.052   5.228
 4790POPC   GL163001  37.093   4.297   5.652
 4790POPC   GL263002  36.738   4.283   5.842
 4790POPC   C1A63003  37.180   4.321   6.108
 4790POPC   D2A63004  36.948   4.532   6.445
 4790POPC   C3A63005  36.992   4.326   6.846
 4790POPC   C4A63006  37.151   4.356   7.238
 4790POPC   C1B63007  36.785   4.050   6.291
 4790POPC   C2B63008  36.826   3.838   6.710
 4790POPC   C3B63009  36.824   3.933   7.149
 4790POPC   C4B63010  36.760   4.169   7.531
 4791POPC   NC363011  23.119  28.321   5.493
 4791POPC   PO463012  22.490  28.608   5.369
 4791POPC   GL163013  22.714  28.525   5.737
 4791POPC   GL263014  22.627  28.171   5.750
 4791POPC   C1A63015  22.924  28.372   6.148
 4791POPC   D2A63016  23.039  28.180   6.568
 4791POPC   C3A63017  22.948  28.415   6.960
 4791POPC   C4A63018  22.730  28.395   7.346
 4791POPC   C1B63019  22.570  27.898   6.122
 4791POPC   C2B63020  22.718  27.779   6.532
 4791POPC   C3B63021  22.655  27.988   6.920
 4791POPC   C4B63022  22.382  28.042   7.253
 4792POPC   NC363023   8.840  11.897   5.488
 4792POPC   PO463024   8.746  12.487   5.211
 4792POPC   GL163025   8.956  12.349   5.687
 4792POPC   GL263026   8.646  12.287   5.848
 4792POPC   C1A63027   9.172  12.218   6.107
 4792POPC   D2A63028   9.092  11.944   6.486
 4792POPC   C3A63029   8.907  12.219   6.797
 4792POPC   C4A63030   9.070  12.390   7.188
 4792POPC   C1B63031   8.707  11.982   6.147
 4792POPC   C2B63032   8.593  11.874   6.553
 4792POPC   C3B63033   8.661  11.768   6.963
 4792POPC   C4B63034   9.006  11.859   7.146
 4793POPC   NC363035  23.956  11.833   5.385
 4793POPC   PO463036  23.379  12.147   5.587
 4793POPC   GL163037  23.688  11.986   5.887
 4793POPC   GL263038  23.879  11.676   5.865
 4793POPC   C1A63039  23.673  12.097   6.317
 4793POPC   D2A63040  23.848  11.953   6.714
 4793POPC   C3A63041  23.912  12.285   6.942
 4793POPC   C4A63042  23.773  12.396   7.313
 4793POPC   C1B63043  23.958  11.653   6.317
 4793POPC   C2B63044  24.180  11.519   6.723
 4793POPC   C3B63045  23.951  11.522   7.117
 4793POPC   C4B63046  23.811  11.892   7.237
 4794POPC   NC363047  22.552   5.452   5.110
 4794POPC   PO463048  22.147   5.016   5.479
 4794POPC   GL163049  22.070   5.114   5.867
 4794POPC   GL263050  22.368   4.895   5.950
 4794POPC   C1A63051  22.145   5.288   6.253
 4794POPC   D2A63052  21.940   5.476   6.592
 4794POPC   C3A63053  22.165   5.298   6.929
 4794POPC   C4A63054  22.017   5.210   7.342
 4794POPC   C1B63055  22.011   4.764   6.227
 4794POPC   C2B63056  21.894   4.950   6.613
 4794POPC   C3B63057  22.018   4.808   7.004
 4794POPC   C4B63058  22.070   4.691   7.394
 4795POPC   NC363059  35.725  27.256   5.149
 4795POPC   PO463060  36.289  27.539   5.394
 4795POPC   GL163061  35.985  27.627   5.728
 4795POPC   GL263062  36.249  27.643   5.960
 4795POPC   C1A63063  35.777  27.754   6.132
 4795POPC   D2A63064  35.623  27.514   6.491
 4795POPC   C3A63065  35.814  27.591   6.918
 4795POPC   C4A63066  36.115  27.619   7.261
 4795POPC   C1B63067  36.162  27.528   6.405
 4795POPC   C2B63068  36.331  27.482   6.805
 4795POPC   C3B63069  36.611  27.473   7.145
 4795POPC   C4B63070  36.474  27.263   7.499
 4796POPC   NC363071  18.049  19.351   5.482
 4796POPC   PO463072  17.569  19.641   5.563
 4796POPC   GL163073  17.308  19.754   5.967
 4796POPC   GL263074  17.265  20.106   5.904
 4796POPC   C1A63075  17.286  19.758   6.462
 4796POPC   D2A63076  17.294  19.781   6.941
 4796POPC   C3A63077  17.697  19.969   7.059
 4796POPC   C4A63078  17.977  19.797   7.403
 4796POPC   C1B63079  17.123  20.224   6.329
 4796POPC   C2B63080  17.320  20.256   6.758
 4796POPC   C3B63081  17.284  20.284   7.219
 4796POPC   C4B63082  17.290  20.274   7.693
 4797POPC   NC363083   6.938  39.328   5.552
 4797POPC   PO463084   6.360  38.971   5.464
 4797POPC   GL163085   6.492  39.207   5.810
 4797POPC   GL263086   6.307  39.497   5.931
 4797POPC   C1A63087   6.537  39.064   6.227
 4797POPC   D2A63088   6.660  38.718   6.492
 4797POPC   C3A63089   6.612  38.799   6.904
 4797POPC   C4A63090   6.625  39.103   7.214
 4797POPC   C1B63091   6.707  39.542   6.166
 4797POPC   C2B63092   6.813  39.370   6.563
 4797POPC   C3B63093   6.681  39.545   6.954
 4797POPC   C4B63094   6.285  39.488   7.132
 4798POPC   NC363095   9.402  21.017   5.234
 4798POPC   PO463096   8.828  21.480   5.368
 4798POPC   GL163097   9.022  21.416   5.774
 4798POPC   GL263098   9.304  21.165   5.775
 4798POPC   C1A63099   9.053  21.541   6.214
 4798POPC   D2A63100   8.945  21.360   6.613
 4798POPC   C3A63101   8.807  21.476   7.000
 4798POPC   C4A63102   9.033  21.626   7.315
 4798POPC   C1B63103   9.486  21.233   6.189
 4798POPC   C2B63104   9.400  21.123   6.612
 4798POPC   C3B63105   9.326  21.320   6.994
 4798POPC   C4B63106   9.251  21.178   7.393
 4799POPC   NC363107  10.612  44.840   5.175
 4799POPC   PO463108  11.280  44.565   5.459
 4799POPC   GL163109  11.270  44.631   5.913
 4799POPC   GL263110  10.964  44.769   6.052
 4799POPC   C1A63111  11.380  44.925   6.270
 4799POPC   D2A63112  11.163   0.015   6.674
 4799POPC   C3A63113  11.462  44.958   6.947
 4799POPC   C4A63114  11.595  44.631   7.196
 4799POPC   C1B63115  11.127  44.535   6.407
 4799POPC   C2B63116  11.468  44.532   6.678
 4799POPC   C3B63117  11.138  44.531   6.988
 4799POPC   C4B63118  10.806  44.841   7.026
 4800POPC   NC363119  33.490  44.914   5.419
 4800POPC   PO463120  34.003  44.453   5.352
 4800POPC   GL163121  33.963  44.625   5.758
 4800POPC   GL263122  33.900  44.999   5.750
 4800POPC   C1A63123  33.944  44.469   6.199
 4800POPC   D2A63124  33.895  44.706   6.599
 4800POPC   C3A63125  33.856  44.526   7.006
 4800POPC   C4A63126  33.888  44.391   7.445
 4800POPC   C1B63127  33.766  44.983   6.182
 4800POPC   C2B63128  33.640   0.171   6.566
 4800POPC   C3B63129  33.560   0.016   6.985
 4800POPC   C4B63130  33.582  44.785   7.386
 4801POPC   NC363131  31.369  33.300   5.379
 4801POPC   PO463132  31.749  32.741   5.212
 4801POPC   GL163133  31.753  33.029   5.598
 4801POPC   GL263134  31.399  32.941   5.739
 4801POPC   C1A63135  31.720  33.186   6.037
 4801POPC   D2A63136  31.578  33.011   6.425
 4801POPC   C3A63137  31.725  33.163   6.828
 4801POPC   C4A63138  31.648  32.942   7.187
 4801POPC   C1B63139  31.168  32.785   6.108
 4801POPC   C2B63140  31.089  32.721   6.554
 4801POPC   C3B63141  31.166  32.783   6.970
 4801POPC   C4B63142  31.380  32.482   7.219
 4802POPC   NC363143  18.590   2.519   5.366
 4802POPC   PO463144  17.885   2.656   5.235
 4802POPC   GL163145  18.168   2.696   5.610
 4802POPC   GL263146  18.295   2.394   5.796
 4802POPC   C1A63147  18.388   2.856   5.990
 4802POPC   D2A63148  18.382   2.668   6.379
 4802POPC   C3A63149  18.411   2.775   6.812
 4802POPC   C4A63150  18.412   2.667   7.228
 4802POPC   C1B63151  18.003   2.436   6.131
 4802POPC   C2B63152  18.046   2.367   6.585
 4802POPC   C3B63153  17.972   2.524   6.988
 4802POPC   C4B63154  17.733   2.240   7.160
 4803POPC   NC363155  31.928  19.424   5.573
 4803POPC   PO463156  32.088  18.682   5.464
 4803POPC   GL163157  32.222  18.915   5.874
 4803POPC   GL263158  32.193  19.277   5.974
 4803POPC   C1A63159  32.401  19.022   6.320
 4803POPC   D2A63160  32.622  19.156   6.693
 4803POPC   C3A63161  32.414  19.014   7.049
 4803POPC   C4A63162  31.986  19.020   7.108
 4803POPC   C1B63163  31.850  19.203   6.226
 4803POPC   C2B63164  31.687  19.293   6.636
 4803POPC   C3B63165  31.810  19.481   7.018
 4803POPC   C4B63166  32.095  19.475   7.367
 4804POPC   NC363167   1.631  26.554   5.141
 4804POPC   PO463168   1.112  26.861   5.516
 4804POPC   GL163169   1.456  26.869   5.758
 4804POPC   GL263170   1.580  26.545   5.659
 4804POPC   C1A63171   1.315  26.989   6.148
 4804POPC   D2A63172   1.069  27.141   6.483
 4804POPC   C3A63173   1.254  27.250   6.868
 4804POPC   C4A63174   1.180  26.943   7.178
 4804POPC   C1B63175   1.644  26.523   6.114
 4804POPC   C2B63176   1.472  26.654   6.527
 4804POPC   C3B63177   1.596  26.600   6.961
 4804POPC   C4B63178   1.490  26.594   7.386
 4805POPC   NC363179  20.179  34.627   5.089
 4805POPC   PO463180  20.599  34.335   5.534
 4805POPC   GL163181  20.845  34.375   5.892
 4805POPC   GL263182  20.730  34.715   5.879
 4805POPC   C1A63183  20.866  34.359   6.337
 4805POPC   D2A63184  20.734  34.719   6.589
 4805POPC   C3A63185  20.897  34.746   6.991
 4805POPC   C4A63186  20.758  34.899   7.373
 4805POPC   C1B63187  20.413  34.575   6.190
 4805POPC   C2B63188  20.363  34.374   6.565
 4805POPC   C3B63189  20.420  34.539   6.960
 4805POPC   C4B63190  20.590  34.421   7.341
 4806POPC   NC363191  38.401  17.596   5.464
 4806POPC   PO463192  38.480  18.168   5.648
 4806POPC   GL163193  38.207  17.866   5.895
 4806POPC   GL263194  38.267  17.493   5.958
 4806POPC   C1A63195  38.204  17.782   6.372
 4806POPC   D2A63196  38.466  17.603   6.720
 4806POPC   C3A63197  38.373  17.580   7.164
 4806POPC   C4A63198  38.344  17.882   7.471
 4806POPC   C1B63199  38.243  17.261   6.390
 4806POPC   C2B63200  38.327  17.130   6.844
 4806POPC   C3B63201  38.713  17.191   7.109
 4806POPC   C4B63202  38.841  17.554   7.371
 4807POPC   NC363203  15.142  32.462   5.293
 4807POPC   PO463204  15.501  31.870   5.368
 4807POPC   GL163205  15.200  32.060   5.734
 4807POPC   GL263206  15.009  32.412   5.780
 4807POPC   C1A63207  15.207  32.218   6.195
 4807POPC   D2A63208  15.253  32.514   6.523
 4807POPC   C3A63209  15.328  32.300   6.902
 4807POPC   C4A63210  15.291  32.325   7.333
 4807POPC   C1B63211  14.769  32.580   6.143
 4807POPC   C2B63212  14.812  32.774   6.563
 4807POPC   C3B63213  14.877  32.538   6.927
 4807POPC   C4B63214  14.696  32.530   7.334
 4808POPC   NC363215   8.597  10.254   5.470
 4808POPC   PO463216   9.186  10.645   5.379
 4808POPC   GL163217   8.928  10.662   5.777
 4808POPC   GL263218   8.692  10.954   5.810
 4808POPC   C1A63219   9.076  10.540   6.198
 4808POPC   D2A63220   9.150  10.231   6.486
 4808POPC   C3A63221   9.224  10.317   6.914
 4808POPC   C4A63222   8.964  10.532   7.155
 4808POPC   C1B63223   8.606  10.745   6.190
 4808POPC   C2B63224   8.750  10.696   6.618
 4808POPC   C3B63225   8.521  10.755   7.009
 4808POPC   C4B63226   8.716  10.909   7.376
 4809POPC   NC363227  20.205  37.034   5.416
 4809POPC   PO463228  19.694  36.556   5.283
 4809POPC   GL163229  19.625  36.912   5.601
 4809POPC   GL263230  19.389  36.802   5.884
 4809POPC   C1A63231  19.805  37.093   6.008
 4809POPC   D2A63232  20.074  37.058   6.407
 4809POPC   C3A63233  20.080  37.341   6.789
 4809POPC   C4A63234  20.017  37.201   7.229
 4809POPC   C1B63235  19.552  36.810   6.353
 4809POPC   C2B63236  19.682  36.791   6.841
 4809POPC   C3B63237  19.790  36.550   7.249
 4809POPC   C4B63238  19.671  36.530   7.718
 4810POPC   NC363239  24.883  37.175   5.404
 4810POPC   PO463240  25.441  36.681   5.322
 4810POPC   GL163241  25.533  36.918   5.767
 4810POPC   GL263242  25.207  37.088   5.799
 4810POPC   C1A63243  25.350  36.872   6.241
 4810POPC   D2A63244  25.126  36.658   6.589
 4810POPC   C3A63245  25.339  36.796   6.967
 4810POPC   C4A63246  25.516  36.661   7.370
 4810POPC   C1B63247  25.159  37.346   6.202
 4810POPC   C2B63248  25.156  37.201   6.644
 4810POPC   C3B63249  25.216  37.267   7.095
 4810POPC   C4B63250  25.123  37.101   7.527
 4811POPC   NC363251   2.298   0.176   5.509
 4811POPC   PO463252   2.935   0.476   5.322
 4811POPC   GL163253   2.738   0.473   5.714
 4811POPC   GL263254   2.663   0.152   5.870
 4811POPC   C1A63255   2.812   0.560   6.159
 4811POPC   D2A63256   2.717   0.525   6.581
 4811POPC   C3A63257   2.961   0.676   6.915
 4811POPC   C4A63258   3.068   0.380   7.194
 4811POPC   C1B63259   2.403   0.066   6.237
 4811POPC   C2B63260   2.338   0.201   6.661
 4811POPC   C3B63261   2.597   0.239   7.031
 4811POPC   C4B63262   2.733   0.063   7.419
 4812POPC   NC363263  34.442   3.645   5.337
 4812POPC   PO463264  35.154   3.747   5.297
 4812POPC   GL163265  34.853   3.737   5.674
 4812POPC   GL263266  34.634   3.448   5.781
 4812POPC   C1A63267  34.795   3.782   6.142
 4812POPC   D2A63268  34.878   3.955   6.553
 4812POPC   C3A63269  34.626   3.774   6.868
 4812POPC   C4A63270  34.786   3.763   7.264
 4812POPC   C1B63271  34.441   3.373   6.214
 4812POPC   C2B63272  34.551   3.229   6.656
 4812POPC   C3B63273  34.436   3.210   7.120
 4812POPC   C4B63274  34.125   3.183   7.485
 4813POPC   NC363275   2.914  43.357   5.521
 4813POPC   PO463276   2.511  42.919   5.255
 4813POPC   GL163277   2.658  42.903   5.678
 4813POPC   GL263278   3.016  42.922   5.754
 4813POPC   C1A63279   2.523  43.027   6.093
 4813POPC   D2A63280   2.603  43.328   6.422
 4813POPC   C3A63281   2.459  43.263   6.829
 4813POPC   C4A63282   2.656  43.238   7.233
 4813POPC   C1B63283   3.032  43.131   6.174
 4813POPC   C2B63284   3.150  43.003   6.595
 4813POPC   C3B63285   3.149  42.894   7.016
 4813POPC   C4B63286   3.141  43.148   7.354
 4814POPC   NC363287  32.821  44.173   5.466
 4814POPC   PO463288  33.276  43.769   5.294
 4814POPC   GL163289  33.294  43.854   5.738
 4814POPC   GL263290  33.264  44.187   5.779
 4814POPC   C1A63291  33.069  43.783   6.154
 4814POPC   D2A63292  32.830  43.549   6.517
 4814POPC   C3A63293  32.906  43.692   6.928
 4814POPC   C4A63294  32.901  43.537   7.349
 4814POPC   C1B63295  33.027  44.309   6.120
 4814POPC   C2B63296  33.073  44.331   6.557
 4814POPC   C3B63297  32.890  44.362   6.970
 4814POPC   C4B63298  32.922  44.062   7.274
 4815POPC   NC363299   4.545  43.375   5.482
 4815POPC   PO463300   4.401  42.815   5.474
 4815POPC   GL163301   4.289  43.042   5.822
 4815POPC   GL263302   4.042  42.826   5.972
 4815POPC   C1A63303   4.532  43.120   6.180
 4815POPC   D2A63304   4.533  43.278   6.597
 4815POPC   C3A63305   4.480  43.129   7.013
 4815POPC   C4A63306   4.365  43.215   7.462
 4815POPC   C1B63307   4.251  42.644   6.321
 4815POPC   C2B63308   4.292  42.641   6.793
 4815POPC   C3B63309   4.091  42.829   7.158
 4815POPC   C4B63310   4.005  42.883   7.592
 4816POPC   NC363311   2.549   5.741   5.438
 4816POPC   PO463312   2.182   6.287   5.311
 4816POPC   GL163313   2.447   6.161   5.740
 4816POPC   GL263314   2.335   5.900   5.890
 4816POPC   C1A63315   2.747   6.097   6.135
 4816POPC   D2A63316   2.872   6.181   6.593
 4816POPC   C3A63317   2.803   5.916   7.004
 4816POPC   C4A63318   2.632   5.969   7.437
 4816POPC   C1B63319   2.255   6.101   6.274
 4816POPC   C2B63320   2.411   5.967   6.667
 4816POPC   C3B63321   2.359   5.648   6.972
 4816POPC   C4B63322   2.309   5.572   7.386
 4817POPC   NC363323  25.837  16.880   5.406
 4817POPC   PO463324  26.295  16.387   5.277
 4817POPC   GL163325  25.965  16.430   5.647
 4817POPC   GL263326  26.077  16.741   5.830
 4817POPC   C1A63327  25.680  16.399   6.043
 4817POPC   D2A63328  25.488  16.586   6.432
 4817POPC   C3A63329  25.600  16.450   6.856
 4817POPC   C4A63330  25.801  16.749   7.148
 4817POPC   C1B63331  25.808  16.895   6.164
 4817POPC   C2B63332  25.872  16.892   6.627
 4817POPC   C3B63333  26.249  16.906   6.931
 4817POPC   C4B63334  26.334  16.709   7.360
 4818POPC   NC363335  37.518  12.818   5.369
 4818POPC   PO463336  37.985  12.592   5.693
 4818POPC   GL163337  37.637  12.807   5.901
 4818POPC   GL263338  37.516  13.134   5.787
 4818POPC   C1A63339  37.554  12.674   6.328
 4818POPC   D2A63340  37.722  12.565   6.767
 4818POPC   C3A63341  37.528  12.756   7.128
 4818POPC   C4A63342  37.493  12.650   7.579
 4818POPC   C1B63343  37.588  13.231   6.227
 4818POPC   C2B63344  37.665  13.066   6.649
 4818POPC   C3B63345  37.800  13.189   7.043
 4818POPC   C4B63346  37.699  13.107   7.464
 4819POPC   NC363347  38.750  31.648   5.612
 4819POPC   PO463348  38.139  31.730   5.339
 4819POPC   GL163349  38.126  31.543   5.742
 4819POPC   GL263350  38.405  31.307   5.822
 4819POPC   C1A63351  38.244  31.656   6.179
 4819POPC   D2A63352  38.165  31.489   6.608
 4819POPC   C3A63353  38.386  31.755   6.862
 4819POPC   C4A63354  38.503  31.755   7.269
 4819POPC   C1B63355  38.467  31.201   6.284
 4819POPC   C2B63356  38.512  31.116   6.746
 4819POPC   C3B63357  38.407  31.259   7.179
 4819POPC   C4B63358  38.571  31.084   7.603
 4820POPC   NC363359  43.258  40.632   5.456
 4820POPC   PO463360  42.657  41.149   5.567
 4820POPC   GL163361  42.969  40.925   5.759
 4820POPC   GL263362  43.202  41.156   5.664
 4820POPC   C1A63363  43.102  40.642   6.093
 4820POPC   D2A63364  43.137  40.705   6.526
 4820POPC   C3A63365  43.350  40.520   6.870
 4820POPC   C4A63366  43.292  40.630   7.324
 4820POPC   C1B63367  43.288  41.121   6.104
 4820POPC   C2B63368  43.290  41.202   6.540
 4820POPC   C3B63369  43.248  41.030   6.936
 4820POPC   C4B63370  43.143  41.095   7.354
 4821POPC   NC363371  15.905  15.433   5.608
 4821POPC   PO463372  15.546  14.982   5.148
 4821POPC   GL163373  15.531  15.065   5.647
 4821POPC   GL263374  15.862  14.946   5.823
 4821POPC   C1A63375  15.542  15.196   6.137
 4821POPC   D2A63376  15.730  15.336   6.578
 4821POPC   C3A63377  15.679  15.149   6.986
 4821POPC   C4A63378  15.707  15.343   7.418
 4821POPC   C1B63379  16.064  15.174   6.213
 4821POPC   C2B63380  16.241  15.185   6.652
 4821POPC   C3B63381  16.153  15.261   7.115
 4821POPC   C4B63382  16.031  14.964   7.472
 4822POPC   NC363383  11.355  37.696   5.386
 4822POPC   PO463384  11.654  38.196   5.713
 4822POPC   GL163385  11.454  37.824   5.898
 4822POPC   GL263386  11.114  37.737   5.844
 4822POPC   C1A63387  11.488  37.500   6.213
 4822POPC   D2A63388  11.517  37.569   6.666
 4822POPC   C3A63389  11.168  37.516   6.974
 4822POPC   C4A63390  11.392  37.325   7.285
 4822POPC   C1B63391  11.004  37.711   6.269
 4822POPC   C2B63392  11.121  37.898   6.649
 4822POPC   C3B63393  11.009  38.092   7.032
 4822POPC   C4B63394  10.937  37.928   7.416
 4823POPC   NC363395   3.451  24.780   5.390
 4823POPC   PO463396   3.698  24.127   5.400
 4823POPC   GL163397   3.681  24.402   5.783
 4823POPC   GL263398   3.333  24.520   5.806
 4823POPC   C1A63399   3.675  24.651   6.200
 4823POPC   D2A63400   3.812  24.941   6.559
 4823POPC   C3A63401   3.820  24.709   6.978
 4823POPC   C4A63402   3.676  24.296   7.227
 4823POPC   C1B63403   3.086  24.648   6.165
 4823POPC   C2B63404   3.129  24.463   6.552
 4823POPC   C3B63405   3.349  24.505   6.901
 4823POPC   C4B63406   3.219  24.494   7.289
 4824POPC   NC363407  25.361  43.724   5.181
 4824POPC   PO463408  24.879  44.001   5.396
 4824POPC   GL163409  24.962  43.651   5.690
 4824POPC   GL263410  25.322  43.626   5.803
 4824POPC   C1A63411  24.919  43.590   6.155
 4824POPC   D2A63412  24.774  43.784   6.579
 4824POPC   C3A63413  25.027  43.692   6.962
 4824POPC   C4A63414  25.184  43.945   7.315
 4824POPC   C1B63415  25.395  43.770   6.265
 4824POPC   C2B63416  25.419  43.909   6.713
 4824POPC   C3B63417  25.592  43.735   7.106
 4824POPC   C4B63418  25.665  43.858   7.570
 4825POPC   NC363419   0.402   7.402   5.285
 4825POPC   PO463420   0.055   7.684   5.715
 4825POPC   GL163421   0.232   7.288   5.841
 4825POPC   GL263422   0.568   7.209   5.745
 4825POPC   C1A63423   0.308   7.393   6.258
 4825POPC   D2A63424   0.303   7.674   6.571
 4825POPC   C3A63425   0.360   7.448   6.922
 4825POPC   C4A63426   0.196   7.457   7.304
 4825POPC   C1B63427   0.635   7.030   6.152
 4825POPC   C2B63428   0.660   7.190   6.577
 4825POPC   C3B63429   0.842   7.208   6.983
 4825POPC   C4B63430   0.584   7.127   7.340
 4826POPC   NC363431   5.438  17.921   5.325
 4826POPC   PO463432   5.145  17.307   5.599
 4826POPC   GL163433   5.208  17.604   5.920
 4826POPC   GL263434   5.342  17.931   5.822
 4826POPC   C1A63435   5.036  17.562   6.313
 4826POPC   D2A63436   5.173  17.634   6.732
 4826POPC   C3A63437   4.834  17.595   6.968
 4826POPC   C4A63438   4.733  17.226   7.211
 4826POPC   C1B63439   5.539  17.901   6.226
 4826POPC   C2B63440   5.641  17.822   6.672
 4826POPC   C3B63441   5.509  17.768   7.114
 4826POPC   C4B63442   5.247  17.384   7.216
 4827POPC   NC363443  15.258  20.226   5.308
 4827POPC   PO463444  14.901  20.660   5.524
 4827POPC   GL163445  15.115  20.685   5.891
 4827POPC   GL263446  15.440  20.805   5.837
 4827POPC   C1A63447  15.005  20.676   6.303
 4827POPC   D2A63448  15.218  20.839   6.647
 4827POPC   C3A63449  15.006  20.757   6.969
 4827POPC   C4A63450  15.007  20.714   7.369
 4827POPC   C1B63451  15.536  20.683   6.279
 4827POPC   C2B63452  15.571  20.487   6.718
 4827POPC   C3B63453  15.453  20.516   7.182
 4827POPC   C4B63454  15.716  20.551   7.558
 4828POPC   NC363455  37.184  39.341   5.330
 4828POPC   PO463456  37.793  39.096   5.318
 4828POPC   GL163457  37.774  39.332   5.760
 4828POPC   GL263458  37.436  39.460   5.783
 4828POPC   C1A63459  37.854  39.300   6.239
 4828POPC   D2A63460  37.710  39.004   6.592
 4828POPC   C3A63461  37.944  38.994   7.018
 4828POPC   C4A63462  37.787  38.897   7.444
 4828POPC   C1B63463  37.346  39.316   6.209
 4828POPC   C2B63464  37.346  39.518   6.587
 4828POPC   C3B63465  37.626  39.408   6.897
 4828POPC   C4B63466  37.447  39.049   7.112
 4829POPC   NC363467   8.926   2.972   5.473
 4829POPC   PO463468   8.896   2.370   5.440
 4829POPC   GL163469   8.750   2.578   5.804
 4829POPC   GL263470   9.088   2.653   5.882
 4829POPC   C1A63471   8.773   2.690   6.278
 4829POPC   D2A63472   9.023   2.532   6.650
 4829POPC   C3A63473   9.004   2.736   7.064
 4829POPC   C4A63474   8.824   2.970   7.455
 4829POPC   C1B63475   9.290   2.757   6.282
 4829POPC   C2B63476   9.181   3.025   6.653
 4829POPC   C3B63477   9.305   3.155   7.099
 4829POPC   C4B63478   9.682   3.215   7.373
 4830POPC   NC363479  39.389   4.168   5.150
 4830POPC   PO463480  38.909   4.490   5.567
 4830POPC   GL163481  39.091   4.303   5.931
 4830POPC   GL263482  39.372   4.167   5.732
 4830POPC   C1A63483  39.111   4.361   6.384
 4830POPC   D2A63484  39.408   4.558   6.640
 4830POPC   C3A63485  39.340   4.538   7.084
 4830POPC   C4A63486  39.030   4.418   7.442
 4830POPC   C1B63487  39.543   4.198   6.172
 4830POPC   C2B63488  39.531   3.960   6.578
 4830POPC   C3B63489  39.559   4.011   7.032
 4830POPC   C4B63490  39.500   4.222   7.423
 4831POPC   NC363491   0.468  32.231   5.528
 4831POPC   PO463492   0.240  31.747   5.295
 4831POPC   GL163493   0.249  31.879   5.826
 4831POPC   GL263494   0.578  32.060   5.994
 4831POPC   C1A63495   0.179  32.204   6.231
 4831POPC   D2A63496  44.987  32.385   6.647
 4831POPC   C3A63497   0.164  32.357   7.088
 4831POPC   C4A63498   0.116  32.528   7.546
 4831POPC   C1B63499   0.639  32.065   6.422
 4831POPC   C2B63500   0.523  32.444   6.596
 4831POPC   C3B63501   0.629  32.558   6.990
 4831POPC   C4B63502   0.672  32.172   7.158
 4832POPC   NC363503   8.389  37.065   5.154
 4832POPC   PO463504   8.524  37.681   5.442
 4832POPC   GL163505   8.304  37.619   5.847
 4832POPC   GL263506   8.220  37.254   5.918
 4832POPC   C1A63507   8.262  37.820   6.256
 4832POPC   D2A63508   8.484  37.701   6.635
 4832POPC   C3A63509   8.280  37.882   6.973
 4832POPC   C4A63510   8.001  38.175   7.134
 4832POPC   C1B63511   7.901  37.441   6.226
 4832POPC   C2B63512   7.955  37.598   6.668
 4832POPC   C3B63513   8.177  37.350   7.006
 4832POPC   C4B63514   8.572  37.088   7.065
 4833POPC   NC363515  22.917  16.302   5.579
 4833POPC   PO463516  23.055  15.745   5.254
 4833POPC   GL163517  22.915  15.788   5.758
 4833POPC   GL263518  22.869  16.054   6.005
 4833POPC   C1A63519  22.914  15.595   6.206
 4833POPC   D2A63520  23.105  15.608   6.655
 4833POPC   C3A63521  22.996  15.763   7.062
 4833POPC   C4A63522  23.109  15.760   7.474
 4833POPC   C1B63523  23.056  16.041   6.396
 4833POPC   C2B63524  22.714  15.954   6.674
 4833POPC   C3B63525  22.545  16.083   7.064
 4833POPC   C4B63526  22.739  16.093   7.453
 4834POPC   NC363527  37.504  23.828   5.494
 4834POPC   PO463528  37.663  23.261   5.503
 4834POPC   GL163529  37.660  23.507   5.887
 4834POPC   GL263530  37.904  23.760   5.842
 4834POPC   C1A63531  37.723  23.435   6.332
 4834POPC   D2A63532  37.485  23.433   6.705
 4834POPC   C3A63533  37.676  23.473   7.138
 4834POPC   C4A63534  37.583  23.448   7.613
 4834POPC   C1B63535  37.844  23.956   6.258
 4834POPC   C2B63536  37.717  23.906   6.705
 4834POPC   C3B63537  37.930  23.904   7.133
 4834POPC   C4B63538  37.816  23.896   7.592
 4835POPC   NC363539  18.081  38.706   5.524
 4835POPC   PO463540  17.898  38.075   5.356
 4835POPC   GL163541  18.057  38.099   5.773
 4835POPC   GL263542  17.888  38.402   5.904
 4835POPC   C1A63543  18.367  38.330   6.055
 4835POPC   D2A63544  18.433  38.509   6.471
 4835POPC   C3A63545  18.304  38.292   6.827
 4835POPC   C4A63546  18.377  38.429   7.205
 4835POPC   C1B63547  18.018  38.746   6.181
 4835POPC   C2B63548  18.137  38.930   6.569
 4835POPC   C3B63549  18.063  38.780   6.979
 4835POPC   C4B63550  17.990  38.676   7.438
 4836POPC   NC363551  24.545  27.831   5.413
 4836POPC   PO463552  24.704  28.414   5.649
 4836POPC   GL163553  24.490  28.059   5.906
 4836POPC   GL263554  24.129  28.005   5.831
 4836POPC   C1A63555  24.383  28.006   6.368
 4836POPC   D2A63556  24.233  28.047   6.798
 4836POPC   C3A63557  24.574  28.242   7.003
 4836POPC   C4A63558  24.866  28.196   7.352
 4836POPC   C1B63559  24.122  28.364   6.128
 4836POPC   C2B63560  24.267  28.497   6.551
 4836POPC   C3B63561  24.138  28.529   6.992
 4836POPC   C4B63562  23.959  28.620   7.407
 4837POPC   NC363563  42.646   0.620   5.432
 4837POPC   PO463564  41.981   0.397   5.313
 4837POPC   GL163565  42.166   0.346   5.749
 4837POPC   GL263566  42.441   0.562   5.894
 4837POPC   C1A63567  42.201   0.171   6.184
 4837POPC   D2A63568  42.090  44.910   6.562
 4837POPC   C3A63569  42.096   0.127   6.986
 4837POPC   C4A63570  41.992   0.422   7.333
 4837POPC   C1B63571  42.710   0.371   6.199
 4837POPC   C2B63572  42.772   0.272   6.625
 4837POPC   C3B63573  42.712   0.492   6.993
 4837POPC   C4B63574  42.489   0.457   7.362
 4838POPC   NC363575  34.610  28.520   5.569
 4838POPC   PO463576  34.294  27.927   5.473
 4838POPC   GL163577  34.442  28.140   5.862
 4838POPC   GL263578  34.772  28.083   5.925
 4838POPC   C1A63579  34.439  28.172   6.328
 4838POPC   D2A63580  34.447  28.509   6.646
 4838POPC   C3A63581  34.600  28.392   7.021
 4838POPC   C4A63582  34.498  28.136   7.332
 4838POPC   C1B63583  34.838  28.463   6.200
 4838POPC   C2B63584  34.977  28.468   6.632
 4838POPC   C3B63585  35.100  28.508   7.024
 4838POPC   C4B63586  34.861  28.868   7.078
 4839POPC   NC363587  30.863  24.653   5.274
 4839POPC   PO463588  30.435  24.249   5.581
 4839POPC   GL163589  30.720  24.351   5.870
 4839POPC   GL263590  30.880  24.699   5.779
 4839POPC   C1A63591  30.555  24.326   6.299
 4839POPC   D2A63592  30.408  24.478   6.676
 4839POPC   C3A63593  30.511  24.218   7.052
 4839POPC   C4A63594  30.756  24.292   7.423
 4839POPC   C1B63595  30.621  24.799   6.121
 4839POPC   C2B63596  30.782  24.824   6.530
 4839POPC   C3B63597  30.775  24.715   6.949
 4839POPC   C4B63598  30.834  24.788   7.358
 4840POPC   NC363599  37.149   3.593   5.127
 4840POPC   PO463600  36.887   3.813   5.653
 4840POPC   GL163601  36.870   3.405   5.833
 4840POPC   GL263602  37.219   3.406   5.872
 4840POPC   C1A63603  36.744   3.209   6.256
 4840POPC   D2A63604  36.563   3.364   6.651
 4840POPC   C3A63605  36.787   3.419   7.075
 4840POPC   C4A63606  36.659   3.413   7.525
 4840POPC   C1B63607  37.091   3.609   6.265
 4840POPC   C2B63608  37.073   3.380   6.626
 4840POPC   C3B63609  37.264   3.287   6.978
 4840POPC   C4B63610  37.446   3.508   7.298
 4841POPC   NC363611  12.991   9.111   5.611
 4841POPC   PO463612  12.605   8.620   5.263
 4841POPC   GL163613  12.533   8.870   5.691
 4841POPC   GL263614  12.810   8.738   5.918
 4841POPC   C1A63615  12.546   9.107   6.133
 4841POPC   D2A63616  12.603   8.948   6.562
 4841POPC   C3A63617  12.857   9.183   6.858
 4841POPC   C4A63618  12.765   9.373   7.240
 4841POPC   C1B63619  13.040   8.849   6.310
 4841POPC   C2B63620  13.133   8.725   6.739
 4841POPC   C3B63621  13.062   8.835   7.183
 4841POPC   C4B63622  13.038   8.686   7.613
 4842POPC   NC363623  17.733  36.699   5.588
 4842POPC   PO463624  17.471  37.315   5.490
 4842POPC   GL163625  17.298  37.117   5.848
 4842POPC   GL263626  17.653  37.068   5.947
 4842POPC   C1A63627  17.319  36.946   6.289
 4842POPC   D2A63628  17.632  36.982   6.623
 4842POPC   C3A63629  17.365  36.910   6.940
 4842POPC   C4A63630  16.985  36.921   7.166
 4842POPC   C1B63631  17.819  36.705   6.240
 4842POPC   C2B63632  17.960  36.595   6.674
 4842POPC   C3B63633  17.831  36.752   7.094
 4842POPC   C4B63634  17.921  37.009   7.476
 4843POPC   NC363635   1.086   2.437   5.441
 4843POPC   PO463636   1.398   3.057   5.387
 4843POPC   GL163637   1.301   2.805   5.750
 4843POPC   GL263638   1.499   2.512   5.756
 4843POPC   C1A63639   0.997   2.737   6.099
 4843POPC   D2A63640   0.791   2.637   6.483
 4843POPC   C3A63641   0.991   2.683   6.850
 4843POPC   C4A63642   1.076   2.800   7.233
 4843POPC   C1B63643   1.400   2.434   6.166
 4843POPC   C2B63644   1.367   2.687   6.511
 4843POPC   C3B63645   1.509   2.777   6.922
 4843POPC   C4B63646   1.538   3.043   7.309
 4844POPC   NC363647  41.388  40.685   5.405
 4844POPC   PO463648  41.665  41.262   5.628
 4844POPC   GL163649  41.648  40.823   5.846
 4844POPC   GL263650  41.320  40.748   5.903
 4844POPC   C1A63651  41.734  40.695   6.289
 4844POPC   D2A63652  41.623  40.985   6.666
 4844POPC   C3A63653  41.859  40.964   7.056
 4844POPC   C4A63654  41.824  41.043   7.524
 4844POPC   C1B63655  41.242  40.882   6.291
 4844POPC   C2B63656  41.181  40.708   6.688
 4844POPC   C3B63657  41.375  40.690   7.098
 4844POPC   C4B63658  41.407  40.757   7.558
 4845POPC   NC363659  26.927  19.052   5.450
 4845POPC   PO463660  27.348  18.660   5.867
 4845POPC   GL163661  27.110  19.022   5.922
 4845POPC   GL263662  26.748  18.866   5.897
 4845POPC   C1A63663  26.983  19.057   6.314
 4845POPC   D2A63664  26.888  18.764   6.609
 4845POPC   C3A63665  27.111  18.913   6.947
 4845POPC   C4A63666  26.936  19.173   7.200
 4845POPC   C1B63667  26.487  19.068   6.214
 4845POPC   C2B63668  26.622  19.196   6.663
 4845POPC   C3B63669  26.436  19.258   7.077
 4845POPC   C4B63670  26.607  19.464   7.413
 4846POPC   NC363671  39.817  14.520   5.504
 4846POPC   PO463672  40.394  14.273   5.437
 4846POPC   GL163673  40.078  14.204   5.834
 4846POPC   GL263674  39.727  14.372   5.976
 4846POPC   C1A63675  40.046  14.190   6.300
 4846POPC   D2A63676  39.804  14.336   6.651
 4846POPC   C3A63677  40.068  14.313   6.988
 4846POPC   C4A63678  40.181  13.971   7.238
 4846POPC   C1B63679  39.878  14.682   6.276
 4846POPC   C2B63680  39.854  14.841   6.709
 4846POPC   C3B63681  39.848  14.733   7.158
 4846POPC   C4B63682  39.948  14.776   7.621
 4847POPC   NC363683   6.422  40.071   5.089
 4847POPC   PO463684   6.599  39.623   5.503
 4847POPC   GL163685   6.777  39.959   5.737
 4847POPC   GL263686   6.683  40.266   5.552
 4847POPC   C1A63687   6.922  40.046   6.168
 4847POPC   D2A63688   6.781  39.888   6.564
 4847POPC   C3A63689   6.464  40.052   6.832
 4847POPC   C4A63690   6.428  39.957   7.250
 4847POPC   C1B63691   6.598  40.394   5.968
 4847POPC   C2B63692   6.626  40.392   6.448
 4847POPC   C3B63693   6.889  40.332   6.840
 4847POPC   C4B63694   6.775  40.327   7.289
 4848POPC   NC363695  33.412  28.827   5.394
 4848POPC   PO463696  32.740  29.078   5.387
 4848POPC   GL163697  32.901  29.191   5.819
 4848POPC   GL263698  33.289  29.239   5.892
 4848POPC   C1A63699  32.889  29.080   6.247
 4848POPC   D2A63700  32.613  28.923   6.571
 4848POPC   C3A63701  32.891  28.898   6.907
 4848POPC   C4A63702  32.894  29.014   7.324
 4848POPC   C1B63703  33.415  29.056   6.332
 4848POPC   C2B63704  33.407  29.001   6.808
 4848POPC   C3B63705  33.380  29.163   7.250
 4848POPC   C4B63706  33.482  29.213   7.700
 4849POPC   NC363707  17.308  14.572   5.476
 4849POPC   PO463708  17.139  13.907   5.598
 4849POPC   GL163709  17.437  14.103   5.918
 4849POPC   GL263710  17.730  14.302   5.819
 4849POPC   C1A63711  17.401  14.515   6.165
 4849POPC   D2A63712  17.667  14.623   6.495
 4849POPC   C3A63713  17.541  14.517   6.885
 4849POPC   C4A63714  17.476  14.671   7.281
 4849POPC   C1B63715  17.826  14.227   6.228
 4849POPC   C2B63716  17.490  14.139   6.519
 4849POPC   C3B63717  17.416  14.034   6.952
 4849POPC   C4B63718  17.677  14.175   7.295
 4850POPC   NC363719  18.572  41.793   5.483
 4850POPC   PO463720  18.102  41.395   5.503
 4850POPC   GL163721  18.252  41.506   5.901
 4850POPC   GL263722  18.202  41.869   5.829
 4850POPC   C1A63723  18.372  41.427   6.365
 4850POPC   D2A63724  18.183  41.450   6.808
 4850POPC   C3A63725  18.298  41.377   7.239
 4850POPC   C4A63726  18.591  41.275   7.594
 4850POPC   C1B63727  18.094  41.842   6.261
 4850POPC   C2B63728  18.116  41.934   6.673
 4850POPC   C3B63729  18.160  41.964   7.084
 4850POPC   C4B63730  17.994  41.825   7.412
 4851POPC   NC363731  35.968  22.854   5.366
 4851POPC   PO463732  36.416  23.253   5.416
 4851POPC   GL163733  36.256  22.946   5.797
 4851POPC   GL263734  35.961  22.675   5.848
 4851POPC   C1A63735  36.024  23.044   6.212
 4851POPC   D2A63736  35.971  23.225   6.641
 4851POPC   C3A63737  36.231  23.045   6.962
 4851POPC   C4A63738  36.074  22.909   7.347
 4851POPC   C1B63739  36.218  22.579   6.204
 4851POPC   C2B63740  36.080  22.648   6.633
 4851POPC   C3B63741  36.202  22.524   7.045
 4851POPC   C4B63742  36.542  22.736   7.265
 4852POPC   NC363743  12.673  14.379   5.363
 4852POPC   PO463744  13.194  14.720   5.380
 4852POPC   GL163745  12.965  14.534   5.770
 4852POPC   GL263746  12.655  14.688   5.757
 4852POPC   C1A63747  12.911  14.400   6.229
 4852POPC   D2A63748  13.121  14.190   6.599
 4852POPC   C3A63749  13.046  14.352   7.018
 4852POPC   C4A63750  12.645  14.251   7.254
 4852POPC   C1B63751  12.668  14.848   6.144
 4852POPC   C2B63752  12.501  14.700   6.493
 4852POPC   C3B63753  12.601  14.535   6.840
 4852POPC   C4B63754  12.706  14.739   7.204
 4853POPC   NC363755  11.151  19.378   5.403
 4853POPC   PO463756  11.577  18.836   5.446
 4853POPC   GL163757  11.369  18.936   5.861
 4853POPC   GL263758  11.409  19.301   5.859
 4853POPC   C1A63759  11.237  18.821   6.319
 4853POPC   D2A63760  11.200  18.644   6.762
 4853POPC   C3A63761  11.138  18.877   7.131
 4853POPC   C4A63762  11.372  19.195   7.239
 4853POPC   C1B63763  11.085  19.291   6.204
 4853POPC   C2B63764  11.027  19.160   6.658
 4853POPC   C3B63765  10.882  19.317   7.043
 4853POPC   C4B63766  10.924  19.327   7.489
 4854POPC   NC363767  42.419  40.862   5.305
 4854POPC   PO463768  41.866  40.565   5.387
 4854POPC   GL163769  42.139  40.817   5.724
 4854POPC   GL263770  42.496  40.733   5.813
 4854POPC   C1A63771  42.193  41.002   6.148
 4854POPC   D2A63772  42.175  40.807   6.559
 4854POPC   C3A63773  42.384  40.895   6.926
 4854POPC   C4A63774  42.283  41.127   7.284
 4854POPC   C1B63775  42.620  40.732   6.264
 4854POPC   C2B63776  42.670  40.512   6.660
 4854POPC   C3B63777  42.871  40.679   7.014
 4854POPC   C4B63778  42.664  40.777   7.380
 4855POPC   NC363779  18.713  22.890   5.457
 4855POPC   PO463780  19.047  22.387   5.275
 4855POPC   GL163781  19.065  22.424   5.748
 4855POPC   GL263782  18.840  22.173   5.909
 4855POPC   C1A63783  19.151  22.445   6.237
 4855POPC   D2A63784  19.199  22.243   6.667
 4855POPC   C3A63785  19.002  22.419   7.038
 4855POPC   C4A63786  18.554  22.466   7.153
 4855POPC   C1B63787  18.851  22.008   6.344
 4855POPC   C2B63788  18.749  22.024   6.802
 4855POPC   C3B63789  18.961  21.950   7.209
 4855POPC   C4B63790  19.178  21.799   7.576
 4856POPC   NC363791  12.139  29.860   5.259
 4856POPC   PO463792  11.557  29.661   5.313
 4856POPC   GL163793  11.844  29.845   5.688
 4856POPC   GL263794  12.193  29.993   5.772
 4856POPC   C1A63795  11.926  29.899   6.170
 4856POPC   D2A63796  12.003  30.090   6.583
 4856POPC   C3A63797  11.840  29.893   6.963
 4856POPC   C4A63798  11.776  29.692   7.366
 4856POPC   C1B63799  12.316  30.253   6.180
 4856POPC   C2B63800  12.370  30.432   6.615
 4856POPC   C3B63801  12.297  30.221   7.033
 4856POPC   C4B63802  12.588  30.171   7.405
 4857POPC   NC363803  38.505   1.819   5.418
 4857POPC   PO463804  38.228   2.430   5.441
 4857POPC   GL163805  38.349   2.173   5.768
 4857POPC   GL263806  38.708   2.139   5.807
 4857POPC   C1A63807  38.341   1.981   6.165
 4857POPC   D2A63808  38.458   2.131   6.565
 4857POPC   C3A63809  38.393   1.820   6.856
 4857POPC   C4A63810  38.599   2.038   7.142
 4857POPC   C1B63811  38.843   2.208   6.220
 4857POPC   C2B63812  38.957   2.010   6.607
 4857POPC   C3B63813  38.878   1.662   6.897
 4857POPC   C4B63814  39.004   1.744   7.298
 4858POPC   NC363815   7.841  11.858   5.485
 4858POPC   PO463816   7.317  12.135   5.181
 4858POPC   GL163817   7.376  12.085   5.693
 4858POPC   GL263818   7.436  11.773   5.896
 4858POPC   C1A63819   7.468  12.220   6.157
 4858POPC   D2A63820   7.524  12.006   6.555
 4858POPC   C3A63821   7.481  12.271   6.908
 4858POPC   C4A63822   7.400  12.049   7.256
 4858POPC   C1B63823   7.113  11.862   6.237
 4858POPC   C2B63824   6.878  11.667   6.566
 4858POPC   C3B63825   7.068  11.762   6.960
 4858POPC   C4B63826   6.979  11.819   7.411
 4859POPC   NC363827   8.717  25.367   5.505
 4859POPC   PO463828   8.954  24.740   5.373
 4859POPC   GL163829   8.964  25.031   5.793
 4859POPC   GL263830   8.866  25.446   5.965
 4859POPC   C1A63831   9.178  25.125   6.153
 4859POPC   D2A63832   9.066  25.363   6.488
 4859POPC   C3A63833   9.035  25.306   6.919
 4859POPC   C4A63834   9.223  25.175   7.278
 4859POPC   C1B63835   8.660  25.130   6.201
 4859POPC   C2B63836   8.630  25.107   6.621
 4859POPC   C3B63837   8.540  25.185   7.021
 4859POPC   C4B63838   8.596  25.200   7.488
 4860POPC   NC363839  28.207  10.872   5.235
 4860POPC   PO463840  28.327  10.229   5.402
 4860POPC   GL163841  28.296  10.480   5.754
 4860POPC   GL263842  28.408  10.191   5.916
 4860POPC   C1A63843  28.386  10.656   6.178
 4860POPC   D2A63844  28.424  10.565   6.612
 4860POPC   C3A63845  28.442  10.714   6.982
 4860POPC   C4A63846  28.124  10.607   7.269
 4860POPC   C1B63847  28.150  10.189   6.238
 4860POPC   C2B63848  28.272  10.039   6.609
 4860POPC   C3B63849  28.251  10.209   6.996
 4860POPC   C4B63850  28.431  10.121   7.382
 4861POPC   NC363851  40.971  21.224   5.404
 4861POPC   PO463852  40.595  21.693   5.429
 4861POPC   GL163853  40.634  21.434   5.806
 4861POPC   GL263854  40.616  21.057   5.763
 4861POPC   C1A63855  40.703  21.592   6.246
 4861POPC   D2A63856  40.897  21.481   6.638
 4861POPC   C3A63857  40.705  21.647   7.018
 4861POPC   C4A63858  40.802  21.533   7.444
 4861POPC   C1B63859  40.690  21.087   6.213
 4861POPC   C2B63860  40.526  21.139   6.636
 4861POPC   C3B63861  40.736  21.135   7.042
 4861POPC   C4B63862  40.545  21.077   7.422
 4862POPC   NC363863   2.045  38.861   5.398
 4862POPC   PO463864   2.198  38.229   5.401
 4862POPC   GL163865   2.181  38.418   5.797
 4862POPC   GL263866   1.871  38.515   5.834
 4862POPC   C1A63867   2.232  38.302   6.218
 4862POPC   D2A63868   1.998  38.280   6.581
 4862POPC   C3A63869   2.102  38.394   6.973
 4862POPC   C4A63870   1.927  38.137   7.296
 4862POPC   C1B63871   1.874  38.697   6.273
 4862POPC   C2B63872   1.661  38.654   6.686
 4862POPC   C3B63873   1.795  38.851   7.057
 4862POPC   C4B63874   1.785  38.768   7.528
 4863POPC   NC363875  23.900  17.920   5.215
 4863POPC   PO463876  23.660  17.358   5.415
 4863POPC   GL163877  23.752  17.423   5.827
 4863POPC   GL263878  24.071  17.649   5.789
 4863POPC   C1A63879  23.612  17.243   6.235
 4863POPC   D2A63880  23.738  17.122   6.669
 4863POPC   C3A63881  23.454  17.131   7.015
 4863POPC   C4A63882  23.645  17.199   7.384
 4863POPC   C1B63883  24.022  17.558   6.247
 4863POPC   C2B63884  24.184  17.371   6.624
 4863POPC   C3B63885  24.084  17.314   7.077
 4863POPC   C4B63886  24.218  17.698   7.330
 4864POPC   NC363887  27.520  37.926   5.064
 4864POPC   PO463888  26.972  37.646   5.407
 4864POPC   GL163889  26.816  37.598   5.815
 4864POPC   GL263890  26.825  37.262   5.905
 4864POPC   C1A63891  26.659  37.589   6.284
 4864POPC   D2A63892  26.445  37.663   6.675
 4864POPC   C3A63893  26.640  37.889   7.012
 4864POPC   C4A63894  27.049  37.753   7.186
 4864POPC   C1B63895  27.153  37.516   6.192
 4864POPC   C2B63896  27.091  37.612   6.637
 4864POPC   C3B63897  26.818  37.411   6.912
 4864POPC   C4B63898  26.612  37.220   7.247
 4865POPC   NC363899  37.152   2.111   5.487
 4865POPC   PO463900  36.485   2.227   5.507
 4865POPC   GL163901  36.766   2.095   5.833
 4865POPC   GL263902  36.909   2.425   5.819
 4865POPC   C1A63903  36.998   1.953   6.217
 4865POPC   D2A63904  36.937   1.948   6.666
 4865POPC   C3A63905  37.131   1.626   6.931
 4865POPC   C4A63906  36.927   1.565   7.365
 4865POPC   C1B63907  37.196   2.428   6.152
 4865POPC   C2B63908  37.210   2.400   6.571
 4865POPC   C3B63909  37.283   2.221   6.957
 4865POPC   C4B63910  36.996   2.028   7.193
 4866POPC   NC363911  27.833  17.807   5.418
 4866POPC   PO463912  27.468  18.444   5.358
 4866POPC   GL163913  27.804  18.266   5.698
 4866POPC   GL263914  27.952  17.949   5.881
 4866POPC   C1A63915  27.844  18.364   6.158
 4866POPC   D2A63916  27.508  18.639   6.358
 4866POPC   C3A63917  27.333  18.506   6.740
 4866POPC   C4A63918  27.272  18.270   7.103
 4866POPC   C1B63919  27.654  17.871   6.251
 4866POPC   C2B63920  27.480  17.997   6.640
 4866POPC   C3B63921  27.659  17.928   7.033
 4866POPC   C4B63922  27.589  18.066   7.431
 4867POPC   NC363923  29.591  20.401   5.283
 4867POPC   PO463924  30.224  20.710   5.425
 4867POPC   GL163925  29.872  20.680   5.704
 4867POPC   GL263926  29.807  20.306   5.729
 4867POPC   C1A63927  29.966  20.828   6.132
 4867POPC   D2A63928  30.151  20.651   6.514
 4867POPC   C3A63929  29.916  20.789   6.875
 4867POPC   C4A63930  29.892  21.091   7.223
 4867POPC   C1B63931  29.669  20.414   6.130
 4867POPC   C2B63932  29.704  20.364   6.586
 4867POPC   C3B63933  29.662  20.360   7.033
 4867POPC   C4B63934  29.574  20.710   7.319
 4868POPC   NC363935  21.364  25.595   5.645
 4868POPC   PO463936  21.122  24.957   5.441
 4868POPC   GL163937  21.384  25.107   5.791
 4868POPC   GL263938  21.717  24.989   5.915
 4868POPC   C1A63939  21.312  25.175   6.215
 4868POPC   D2A63940  21.110  25.000   6.556
 4868POPC   C3A63941  21.114  25.315   6.838
 4868POPC   C4A63942  21.164  25.261   7.240
 4868POPC   C1B63943  21.781  25.369   6.193
 4868POPC   C2B63944  21.580  25.525   6.592
 4868POPC   C3B63945  21.611  25.438   7.052
 4868POPC   C4B63946  21.624  25.110   7.387
 4869POPC   NC363947   2.366  19.912   5.101
 4869POPC   PO463948   1.815  19.978   5.559
 4869POPC   GL163949   2.053  19.790   5.819
 4869POPC   GL263950   1.775  19.670   5.999
 4869POPC   C1A63951   2.247  19.813   6.198
 4869POPC   D2A63952   2.002  19.708   6.528
 4869POPC   C3A63953   2.166  19.649   6.940
 4869POPC   C4A63954   2.168  20.048   7.121
 4869POPC   C1B63955   1.734  20.038   6.231
 4869POPC   C2B63956   1.612  20.045   6.632
 4869POPC   C3B63957   1.693  19.770   6.925
 4869POPC   C4B63958   1.797  19.752   7.354
 4870POPC   NC363959  10.780  41.919   5.040
 4870POPC   PO463960  10.443  41.441   5.369
 4870POPC   GL163961  10.385  41.568   5.801
 4870POPC   GL263962  10.718  41.663   5.794
 4870POPC   C1A63963  10.417  41.699   6.257
 4870POPC   D2A63964  10.434  41.389   6.625
 4870POPC   C3A63965  10.317  41.561   7.056
 4870POPC   C4A63966  10.498  41.951   7.260
 4870POPC   C1B63967  10.836  41.422   6.155
 4870POPC   C2B63968  10.938  41.550   6.575
 4870POPC   C3B63969  10.785  41.677   6.937
 4870POPC   C4B63970  10.765  41.495   7.362
 4871POPC   NC363971  40.342  23.217   5.014
 4871POPC   PO463972  40.120  22.739   5.245
 4871POPC   GL163973  40.032  22.695   5.741
 4871POPC   GL263974  39.927  23.022   5.898
 4871POPC   C1A63975  40.097  22.687   6.242
 4871POPC   D2A63976  40.175  22.992   6.604
 4871POPC   C3A63977  40.154  22.841   7.037
 4871POPC   C4A63978  39.782  22.773   7.253
 4871POPC   C1B63979  39.719  23.029   6.324
 4871POPC   C2B63980  39.347  22.960   6.610
 4871POPC   C3B63981  39.314  22.942   7.070
 4871POPC   C4B63982  39.516  23.182   7.429
 4872POPC   NC363983  18.617  37.183   5.456
 4872POPC   PO463984  18.670  36.464   5.597
 4872POPC   GL163985  18.318  36.657   5.841
 4872POPC   GL263986  18.297  37.034   5.834
 4872POPC   C1A63987  18.344  36.685   6.290
 4872POPC   D2A63988  18.449  36.461   6.671
 4872POPC   C3A63989  18.343  36.728   6.997
 4872POPC   C4A63990  18.399  36.911   7.382
 4872POPC   C1B63991  18.079  37.138   6.206
 4872POPC   C2B63992  18.162  37.054   6.614
 4872POPC   C3B63993  18.178  37.203   7.004
 4872POPC   C4B63994  18.362  37.416   7.285
 4873POPC   NC363995  25.118  42.585   5.148
 4873POPC   PO463996  25.766  42.579   5.411
 4873POPC   GL163997  25.502  42.371   5.768
 4873POPC   GL263998  25.729  42.132   5.945
 4873POPC   C1A63999  25.065  42.346   5.992
 4873POPC   D2A64000  24.950  42.443   6.438
 4873POPC   C3A64001  24.870  42.171   6.786
 4873POPC   C4A64002  24.794  42.287   7.208
 4873POPC   C1B64003  25.448  42.202   6.284
 4873POPC   C2B64004  25.440  42.382   6.666
 4873POPC   C3B64005  25.685  42.281   7.014
 4873POPC   C4B64006  25.479  42.194   7.390
 4874POPC   NC364007  36.966  29.330   5.318
 4874POPC   PO464008  37.241  28.674   5.498
 4874POPC   GL164009  37.118  29.072   5.725
 4874POPC   GL264010  36.746  29.189   5.757
 4874POPC   C1A64011  37.072  29.137   6.128
 4874POPC   D2A64012  36.990  28.998   6.489
 4874POPC   C3A64013  36.848  29.272   6.788
 4874POPC   C4A64014  36.950  29.153   7.177
 4874POPC   C1B64015  36.585  28.934   6.126
 4874POPC   C2B64016  36.518  28.839   6.586
 4874POPC   C3B64017  36.461  28.971   7.019
 4874POPC   C4B64018  36.567  28.771   7.413
 4875POPC   NC364019   9.257  21.795   5.430
 4875POPC   PO464020   9.853  22.175   5.480
 4875POPC   GL164021   9.795  22.078   5.865
 4875POPC   GL264022   9.440  22.157   5.821
 4875POPC   C1A64023   9.916  22.259   6.247
 4875POPC   D2A64024   9.784  22.065   6.617
 4875POPC   C3A64025  10.045  22.038   6.959
 4875POPC   C4A64026   9.965  21.846   7.317
 4875POPC   C1B64027   9.421  22.408   6.180
 4875POPC   C2B64028   9.338  22.369   6.618
 4875POPC   C3B64029   9.588  22.355   6.992
 4875POPC   C4B64030   9.421  22.191   7.365
 4876POPC   NC364031  21.026  41.719   5.451
 4876POPC   PO464032  20.399  41.406   5.404
 4876POPC   GL164033  20.503  41.559   5.773
 4876POPC   GL264034  20.828  41.679   5.937
 4876POPC   C1A64035  20.358  41.589   6.140
 4876POPC   D2A64036  20.610  41.692   6.455
 4876POPC   C3A64037  20.519  41.614   6.863
 4876POPC   C4A64038  20.608  41.858   7.210
 4876POPC   C1B64039  21.006  41.976   6.277
 4876POPC   C2B64040  20.910  41.998   6.737
 4876POPC   C3B64041  21.111  41.883   7.128
 4876POPC   C4B64042  20.968  41.808   7.577
 4877POPC   NC364043  16.594  22.561   5.460
 4877POPC   PO464044  16.524  23.248   5.342
 4877POPC   GL164045  16.668  23.253   5.759
 4877POPC   GL264046  16.801  22.921   5.826
 4877POPC   C1A64047  16.802  23.266   6.206
 4877POPC   D2A64048  16.607  23.117   6.588
 4877POPC   C3A64049  16.766  23.102   7.009
 4877POPC   C4A64050  16.690  23.339   7.360
 4877POPC   C1B64051  16.882  22.757   6.275
 4877POPC   C2B64052  16.867  22.595   6.726
 4877POPC   C3B64053  16.954  22.669   7.182
 4877POPC   C4B64054  16.971  22.946   7.549
 4878POPC   NC364055  35.161  35.626   5.405
 4878POPC   PO464056  35.748  35.371   5.599
 4878POPC   GL164057  35.387  35.410   5.813
 4878POPC   GL264058  35.223  35.089   5.697
 4878POPC   C1A64059  35.235  35.620   6.210
 4878POPC   D2A64060  35.059  35.531   6.636
 4878POPC   C3A64061  35.254  35.628   7.038
 4878POPC   C4A64062  35.082  35.552   7.444
 4878POPC   C1B64063  35.142  35.118   6.142
 4878POPC   C2B64064  35.295  35.047   6.544
 4878POPC   C3B64065  35.217  35.120   6.971
 4878POPC   C4B64066  35.406  35.131   7.374
 4879POPC   NC364067  36.362  34.678   5.492
 4879POPC   PO464068  35.708  34.380   5.470
 4879POPC   GL164069  35.881  34.388   5.917
 4879POPC   GL264070  36.206  34.578   5.972
 4879POPC   C1A64071  36.048  34.250   6.362
 4879POPC   D2A64072  36.386  34.152   6.709
 4879POPC   C3A64073  36.301  34.349   7.112
 4879POPC   C4A64074  35.890  34.440   7.242
 4879POPC   C1B64075  36.012  34.934   6.182
 4879POPC   C2B64076  35.805  35.002   6.597
 4879POPC   C3B64077  35.909  34.896   7.000
 4879POPC   C4B64078  36.272  34.845   7.193
 4880POPC   NC364079  11.433   4.058   5.641
 4880POPC   PO464080  11.410   3.437   5.394
 4880POPC   GL164081  11.383   3.429   5.820
 4880POPC   GL264082  11.625   3.665   5.884
 4880POPC   C1A64083  11.308   3.210   6.206
 4880POPC   D2A64084  11.359   3.265   6.653
 4880POPC   C3A64085  11.281   3.494   7.019
 4880POPC   C4A64086  11.209   3.312   7.401
 4880POPC   C1B64087  11.549   3.660   6.320
 4880POPC   C2B64088  11.670   3.864   6.695
 4880POPC   C3B64089  11.657   3.811   7.121
 4880POPC   C4B64090  11.388   3.785   7.479
 4881POPC   NC364091  42.074   9.272   5.432
 4881POPC   PO464092  42.216   8.568   5.602
 4881POPC   GL164093  42.412   8.736   5.919
 4881POPC   GL264094  42.373   9.058   5.827
 4881POPC   C1A64095  42.427   8.845   6.331
 4881POPC   D2A64096  42.585   8.900   6.710
 4881POPC   C3A64097  42.348   8.840   7.056
 4881POPC   C4A64098  42.677   9.006   7.302
 4881POPC   C1B64099  42.082   9.218   6.152
 4881POPC   C2B64100  41.866   9.333   6.577
 4881POPC   C3B64101  41.965   9.221   6.989
 4881POPC   C4B64102  42.219   9.258   7.366
 4882POPC   NC364103  17.013  11.664   5.443
 4882POPC   PO464104  16.843  10.940   5.382
 4882POPC   GL164105  16.775  11.303   5.687
 4882POPC   GL264106  17.062  11.374   5.872
 4882POPC   C1A64107  16.608  11.384   6.114
 4882POPC   D2A64108  16.540  11.154   6.502
 4882POPC   C3A64109  16.596  11.401   6.837
 4882POPC   C4A64110  16.632  11.376   7.229
 4882POPC   C1B64111  17.065  11.528   6.290
 4882POPC   C2B64112  17.081  11.341   6.676
 4882POPC   C3B64113  17.097  11.469   7.092
 4882POPC   C4B64114  17.197  11.702   7.426
 4883POPC   NC364115  35.740  20.570   5.407
 4883POPC   PO464116  36.255  20.954   5.223
 4883POPC   GL164117  36.127  20.797   5.686
 4883POPC   GL264118  35.870  20.597   5.882
 4883POPC   C1A64119  36.095  20.947   6.143
 4883POPC   D2A64120  35.865  20.792   6.533
 4883POPC   C3A64121  36.194  20.676   6.841
 4883POPC   C4A64122  36.255  20.757   7.271
 4883POPC   C1B64123  35.818  20.265   6.215
 4883POPC   C2B64124  35.577  20.177   6.609
 4883POPC   C3B64125  35.729  20.138   7.044
 4883POPC   C4B64126  36.135  20.241   7.174
 4884POPC   NC364127  40.426  44.417   5.287
 4884POPC   PO464128  40.948  44.782   5.353
 4884POPC   GL164129  40.875  44.691   5.767
 4884POPC   GL264130  41.110  44.912   5.826
 4884POPC   C1A64131  40.706  44.517   6.158
 4884POPC   D2A64132  40.598  44.650   6.600
 4884POPC   C3A64133  40.710  44.348   6.975
 4884POPC   C4A64134  40.696  44.325   7.471
 4884POPC   C1B64135  40.884   0.022   6.198
 4884POPC   C2B64136  40.932   0.177   6.610
 4884POPC   C3B64137  40.836  44.947   6.988
 4884POPC   C4B64138  41.021  44.657   7.264
 4885POPC   NC364139  33.403  22.765   5.607
 4885POPC   PO464140  32.835  22.927   5.191
 4885POPC   GL164141  32.953  22.946   5.655
 4885POPC   GL264142  33.165  23.222   5.793
 4885POPC   C1A64143  32.909  22.924   6.119
 4885POPC   D2A64144  32.890  22.771   6.543
 4885POPC   C3A64145  32.763  22.956   6.945
 4885POPC   C4A64146  32.890  22.803   7.367
 4885POPC   C1B64147  33.442  23.140   6.187
 4885POPC   C2B64148  33.433  22.926   6.619
 4885POPC   C3B64149  33.276  23.011   7.062
 4885POPC   C4B64150  33.309  23.041   7.545
 4886POPC   NC364151  23.339  12.610   5.443
 4886POPC   PO464152  23.893  12.977   5.371
 4886POPC   GL164153  23.691  12.893   5.763
 4886POPC   GL264154  23.342  13.025   5.782
 4886POPC   C1A64155  23.906  12.765   6.147
 4886POPC   D2A64156  23.948  12.516   6.498
 4886POPC   C3A64157  23.871  12.783   6.848
 4886POPC   C4A64158  24.082  12.804   7.237
 4886POPC   C1B64159  23.509  13.106   6.192
 4886POPC   C2B64160  23.420  13.005   6.591
 4886POPC   C3B64161  23.510  13.140   6.986
 4886POPC   C4B64162  23.582  12.853   7.284
 4887POPC   NC364163   9.432  33.000   5.055
 4887POPC   PO464164   9.921  33.364   5.358
 4887POPC   GL164165   9.964  33.193   5.760
 4887POPC   GL264166  10.232  33.400   5.818
 4887POPC   C1A64167   9.719  32.966   6.126
 4887POPC   D2A64168   9.592  32.698   6.486
 4887POPC   C3A64169   9.579  32.893   6.911
 4887POPC   C4A64170   9.858  32.871   7.277
 4887POPC   C1B64171  10.028  33.385   6.236
 4887POPC   C2B64172   9.908  33.261   6.667
 4887POPC   C3B64173  10.050  33.306   7.093
 4887POPC   C4B64174  10.071  33.292   7.541
 4888POPC   NC364175  37.798  27.817   5.421
 4888POPC   PO464176  37.716  27.197   5.760
 4888POPC   GL164177  37.454  27.575   5.976
 4888POPC   GL264178  37.449  27.926   5.824
 4888POPC   C1A64179  37.450  27.680   6.430
 4888POPC   D2A64180  37.498  27.373   6.776
 4888POPC   C3A64181  37.670  27.228   7.195
 4888POPC   C4A64182  37.873  27.516   7.494
 4888POPC   C1B64183  37.140  27.984   6.122
 4888POPC   C2B64184  37.078  28.010   6.544
 4888POPC   C3B64185  37.352  28.004   6.902
 4888POPC   C4B64186  37.503  27.697   7.175
 4889POPC   NC364187  24.501  39.760   4.984
 4889POPC   PO464188  24.340  40.336   5.232
 4889POPC   GL164189  24.438  40.378   5.683
 4889POPC   GL264190  24.120  40.492   5.796
 4889POPC   C1A64191  24.636  40.124   6.044
 4889POPC   D2A64192  24.822  39.847   6.395
 4889POPC   C3A64193  24.801  40.071   6.812
 4889POPC   C4A64194  24.615  40.117   7.237
 4889POPC   C1B64195  24.391  40.601   6.169
 4889POPC   C2B64196  24.601  40.537   6.586
 4889POPC   C3B64197  24.396  40.515   6.980
 4889POPC   C4B64198  24.098  40.353   7.283
 4890POPC   NC364199  24.272  38.893   5.365
 4890POPC   PO464200  24.589  38.334   5.298
 4890POPC   GL164201  24.526  38.444   5.751
 4890POPC   GL264202  24.177  38.542   5.745
 4890POPC   C1A64203  24.510  38.215   6.161
 4890POPC   D2A64204  24.369  37.900   6.484
 4890POPC   C3A64205  24.340  38.156   6.856
 4890POPC   C4A64206  24.639  38.197   7.179
 4890POPC   C1B64207  24.171  38.642   6.188
 4890POPC   C2B64208  24.463  38.606   6.555
 4890POPC   C3B64209  24.514  38.673   7.005
 4890POPC   C4B64210  24.245  38.478   7.293
 4891POPC   NC364211   2.709  42.476   5.199
 4891POPC   PO464212   3.034  41.947   5.490
 4891POPC   GL164213   2.897  42.179   5.864
 4891POPC   GL264214   2.623  42.406   5.795
 4891POPC   C1A64215   2.682  42.191   6.288
 4891POPC   D2A64216   2.866  42.315   6.681
 4891POPC   C3A64217   2.634  42.097   7.017
 4891POPC   C4A64218   2.452  42.394   7.270
 4891POPC   C1B64219   2.850  42.638   6.147
 4891POPC   C2B64220   2.683  42.815   6.547
 4891POPC   C3B64221   2.641  42.786   7.005
 4891POPC   C4B64222   2.730  42.778   7.493
 4892POPC   NC364223  32.427   5.795   5.187
 4892POPC   PO464224  32.091   6.190   5.416
 4892POPC   GL164225  32.260   5.869   5.731
 4892POPC   GL264226  31.967   5.822   5.951
 4892POPC   C1A64227  32.401   5.765   6.178
 4892POPC   D2A64228  32.160   5.717   6.579
 4892POPC   C3A64229  32.306   5.758   7.010
 4892POPC   C4A64230  32.503   5.740   7.419
 4892POPC   C1B64231  32.004   6.106   6.277
 4892POPC   C2B64232  31.787   6.142   6.666
 4892POPC   C3B64233  31.894   6.060   7.079
 4892POPC   C4B64234  32.037   6.171   7.484
 4893POPC   NC364235  31.009  42.162   5.384
 4893POPC   PO464236  30.486  42.359   5.715
 4893POPC   GL164237  30.729  42.340   5.986
 4893POPC   GL264238  30.945  42.127   5.884
 4893POPC   C1A64239  30.649  42.358   6.372
 4893POPC   D2A64240  30.768  42.246   6.719
 4893POPC   C3A64241  30.531  42.406   6.979
 4893POPC   C4A64242  30.565  42.630   7.309
 4893POPC   C1B64243  30.836  41.905   6.285
 4893POPC   C2B64244  30.963  41.792   6.703
 4893POPC   C3B64245  31.048  42.040   7.107
 4893POPC   C4B64246  30.920  41.934   7.526
 4894POPC   NC364247  23.142  23.288   5.499
 4894POPC   PO464248  22.655  23.803   5.495
 4894POPC   GL164249  23.009  23.719   5.806
 4894POPC   GL264250  23.324  23.942   5.815
 4894POPC   C1A64251  23.055  23.686   6.239
 4894POPC   D2A64252  22.860  23.846   6.598
 4894POPC   C3A64253  22.978  23.667   6.999
 4894POPC   C4A64254  22.859  23.872   7.358
 4894POPC   C1B64255  23.211  24.164   6.159
 4894POPC   C2B64256  23.027  24.321   6.542
 4894POPC   C3B64257  23.059  24.167   6.942
 4894POPC   C4B64258  23.316  24.077   7.265
 4895POPC   NC364259  44.243   0.498   5.444
 4895POPC   PO464260  43.690   0.196   5.595
 4895POPC   GL164261  43.959   0.479   5.878
 4895POPC   GL264262  43.939   0.849   5.875
 4895POPC   C1A64263  44.143   0.555   6.309
 4895POPC   D2A64264  44.138   0.273   6.685
 4895POPC   C3A64265  44.204   0.462   7.078
 4895POPC   C4A64266  43.931   0.770   7.230
 4895POPC   C1B64267  43.646   0.678   6.240
 4895POPC   C2B64268  43.673   0.511   6.683
 4895POPC   C3B64269  43.700   0.289   7.087
 4895POPC   C4B64270  43.691   0.422   7.514
 4896POPC   NC364271   3.233   2.971   5.269
 4896POPC   PO464272   3.769   2.543   5.274
 4896POPC   GL164273   3.620   2.663   5.726
 4896POPC   GL264274   3.263   2.767   5.738
 4896POPC   C1A64275   3.597   2.951   6.128
 4896POPC   D2A64276   3.446   2.896   6.543
 4896POPC   C3A64277   3.693   2.947   6.907
 4896POPC   C4A64278   3.642   2.670   7.237
 4896POPC   C1B64279   3.160   2.666   6.160
 4896POPC   C2B64280   2.951   2.766   6.550
 4896POPC   C3B64281   3.149   2.682   6.947
 4896POPC   C4B64282   3.183   2.760   7.389
 4897POPC   NC364283   7.613  44.367   5.457
 4897POPC   PO464284   7.158  44.877   5.447
 4897POPC   GL164285   7.204  44.519   5.729
 4897POPC   GL264286   7.485  44.720   5.860
 4897POPC   C1A64287   7.378  44.303   6.101
 4897POPC   D2A64288   7.559  44.580   6.394
 4897POPC   C3A64289   7.558  44.605   6.806
 4897POPC   C4A64290   7.618  44.541   7.240
 4897POPC   C1B64291   7.478   0.041   6.173
 4897POPC   C2B64292   7.337   0.053   6.592
 4897POPC   C3B64293   7.460   0.053   7.028
 4897POPC   C4B64294   7.319  44.961   7.433
 4898POPC   NC364295   4.999  41.116   5.353
 4898POPC   PO464296   5.412  40.656   5.265
 4898POPC   GL164297   5.304  40.988   5.730
 4898POPC   GL264298   5.450  40.933   6.039
 4898POPC   C1A64299   4.912  40.955   6.115
 4898POPC   D2A64300   4.759  40.940   6.624
 4898POPC   C3A64301   4.997  40.777   7.015
 4898POPC   C4A64302   4.888  40.566   7.458
 4898POPC   C1B64303   5.263  40.762   6.427
 4898POPC   C2B64304   5.347  40.489   6.763
 4898POPC   C3B64305   5.545  40.638   7.117
 4898POPC   C4B64306   5.412  40.638   7.542
 4899POPC   NC364307  28.241  11.763   5.532
 4899POPC   PO464308  28.551  11.170   5.359
 4899POPC   GL164309  28.392  11.351   5.805
 4899POPC   GL264310  28.014  11.487   5.887
 4899POPC   C1A64311  28.424  11.171   6.241
 4899POPC   D2A64312  28.644  11.065   6.636
 4899POPC   C3A64313  28.474  11.231   7.016
 4899POPC   C4A64314  28.513  11.462   7.401
 4899POPC   C1B64315  28.267  11.654   6.235
 4899POPC   C2B64316  28.270  11.485   6.619
 4899POPC   C3B64317  28.015  11.433   6.925
 4899POPC   C4B64318  28.027  11.613   7.286
 4900POPC   NC364319  21.360  14.409   5.370
 4900POPC   PO464320  21.885  14.833   5.454
 4900POPC   GL164321  21.475  14.686   5.759
 4900POPC   GL264322  21.461  14.280   5.841
 4900POPC   C1A64323  21.439  14.618   6.220
 4900POPC   D2A64324  21.436  14.317   6.574
 4900POPC   C3A64325  21.407  14.548   6.925
 4900POPC   C4A64326  21.615  14.684   7.297
 4900POPC   C1B64327  21.152  14.136   6.162
 4900POPC   C2B64328  20.994  14.042   6.588
 4900POPC   C3B64329  20.998  14.164   7.027
 4900POPC   C4B64330  21.362  14.244   7.306
 4901POPC   NC364331  13.955   6.535   5.337
 4901POPC   PO464332  13.358   6.441   5.407
 4901POPC   GL164333  13.515   6.540   5.846
 4901POPC   GL264334  13.788   6.769   5.817
 4901POPC   C1A64335  13.325   6.661   6.275
 4901POPC   D2A64336  13.175   6.469   6.646
 4901POPC   C3A64337  13.340   6.543   7.069
 4901POPC   C4A64338  13.469   6.306   7.450
 4901POPC   C1B64339  13.832   6.651   6.282
 4901POPC   C2B64340  13.711   6.418   6.682
 4901POPC   C3B64341  13.842   6.498   7.132
 4901POPC   C4B64342  13.948   6.446   7.586
 4902POPC   NC364343  11.355  23.560   5.561
 4902POPC   PO464344  10.864  24.047   5.831
 4902POPC   GL164345  11.301  23.933   5.920
 4902POPC   GL264346  11.553  24.213   5.806
 4902POPC   C1A64347  11.468  23.603   6.238
 4902POPC   D2A64348  11.512  23.458   6.697
 4902POPC   C3A64349  11.167  23.617   6.922
 4902POPC   C4A64350  11.123  23.908   7.245
 4902POPC   C1B64351  11.703  24.051   6.209
 4902POPC   C2B64352  11.527  23.960   6.631
 4902POPC   C3B64353  11.607  23.906   7.073
 4902POPC   C4B64354  11.555  23.862   7.539
 4903POPC   NC364355  27.027  13.990   5.232
 4903POPC   PO464356  26.680  13.544   5.486
 4903POPC   GL164357  26.894  13.675   5.827
 4903POPC   GL264358  26.811  13.341   5.964
 4903POPC   C1A64359  26.785  13.894   6.211
 4903POPC   D2A64360  26.629  13.631   6.566
 4903POPC   C3A64361  26.498  13.838   6.894
 4903POPC   C4A64362  26.554  13.997   7.274
 4903POPC   C1B64363  27.038  13.481   6.301
 4903POPC   C2B64364  27.188  13.655   6.689
 4903POPC   C3B64365  27.021  13.720   7.071
 4903POPC   C4B64366  26.689  13.476   7.202
 4904POPC   NC364367  33.815  32.805   5.346
 4904POPC   PO464368  34.069  33.504   5.440
 4904POPC   GL164369  33.835  33.319   5.799
 4904POPC   GL264370  33.641  33.008   5.794
 4904POPC   C1A64371  33.877  33.244   6.247
 4904POPC   D2A64372  33.764  33.274   6.696
 4904POPC   C3A64373  34.026  33.236   7.036
 4904POPC   C4A64374  34.086  32.800   7.111
 4904POPC   C1B64375  33.417  33.010   6.192
 4904POPC   C2B64376  33.313  33.031   6.632
 4904POPC   C3B64377  33.568  32.852   6.958
 4904POPC   C4B64378  33.635  32.829   7.389
 4905POPC   NC364379  22.598  29.065   5.447
 4905POPC   PO464380  23.166  28.773   5.577
 4905POPC   GL164381  22.893  29.011   5.878
 4905POPC   GL264382  22.779  29.379   5.828
 4905POPC   C1A64383  22.662  28.956   6.261
 4905POPC   D2A64384  22.502  29.008   6.682
 4905POPC   C3A64385  22.689  28.871   7.079
 4905POPC   C4A64386  23.033  28.818   7.383
 4905POPC   C1B64387  22.886  29.418   6.286
 4905POPC   C2B64388  22.770  29.456   6.743
 4905POPC   C3B64389  22.902  29.340   7.174
 4905POPC   C4B64390  23.267  29.277   7.458
 4906POPC   NC364391  17.034  17.144   5.292
 4906POPC   PO464392  16.367  17.020   5.450
 4906POPC   GL164393  16.414  17.324   5.770
 4906POPC   GL264394  16.761  17.400   5.840
 4906POPC   C1A64395  16.375  17.354   6.217
 4906POPC   D2A64396  16.694  17.294   6.543
 4906POPC   C3A64397  16.524  17.381   6.927
 4906POPC   C4A64398  16.547  17.290   7.346
 4906POPC   C1B64399  16.796  17.674   6.227
 4906POPC   C2B64400  16.794  17.770   6.712
 4906POPC   C3B64401  16.716  17.802   7.187
 4906POPC   C4B64402  16.877  17.954   7.600
 4907POPC   NC364403  10.738  20.084   5.027
 4907POPC   PO464404  10.202  20.074   5.443
 4907POPC   GL164405  10.481  19.921   5.835
 4907POPC   GL264406  10.807  19.705   5.781
 4907POPC   C1A64407  10.518  19.812   6.297
 4907POPC   D2A64408  10.626  19.557   6.663
 4907POPC   C3A64409  10.307  19.617   6.994
 4907POPC   C4A64410  10.155  19.583   7.422
 4907POPC   C1B64411  10.891  20.073   6.078
 4907POPC   C2B64412  10.829  20.197   6.527
 4907POPC   C3B64413  10.641  20.079   6.944
 4907POPC   C4B64414  10.579  20.241   7.388
 4908POPC   NC364415  42.791  13.058   5.348
 4908POPC   PO464416  43.350  12.640   5.535
 4908POPC   GL164417  43.053  12.648   5.870
 4908POPC   GL264418  42.720  12.795   5.809
 4908POPC   C1A64419  43.000  12.944   6.259
 4908POPC   D2A64420  43.046  13.184   6.679
 4908POPC   C3A64421  43.204  12.987   7.060
 4908POPC   C4A64422  43.304  12.558   7.207
 4908POPC   C1B64423  42.670  12.483   6.150
 4908POPC   C2B64424  42.907  12.495   6.517
 4908POPC   C3B64425  42.855  12.574   6.948
 4908POPC   C4B64426  42.696  12.946   7.116
 4909POPC   NC364427  19.138  24.597   5.367
 4909POPC   PO464428  19.542  24.093   5.423
 4909POPC   GL164429  19.423  24.201   5.825
 4909POPC   GL264430  19.152  24.394   5.846
 4909POPC   C1A64431  19.378  24.212   6.286
 4909POPC   D2A64432  19.078  24.052   6.605
 4909POPC   C3A64433  19.114  24.158   7.048
 4909POPC   C4A64434  19.047  24.483   7.323
 4909POPC   C1B64435  18.927  24.432   6.267
 4909POPC   C2B64436  18.984  24.558   6.716
 4909POPC   C3B64437  18.734  24.751   7.059
 4909POPC   C4B64438  18.561  24.598   7.452
 4910POPC   NC364439  23.796  36.901   5.154
 4910POPC   PO464440  24.068  36.495   5.530
 4910POPC   GL164441  23.691  36.809   5.671
 4910POPC   GL264442  23.332  36.686   5.838
 4910POPC   C1A64443  23.563  37.075   6.047
 4910POPC   D2A64444  23.777  37.074   6.448
 4910POPC   C3A64445  23.649  37.193   6.853
 4910POPC   C4A64446  23.792  37.072   7.257
 4910POPC   C1B64447  23.501  36.626   6.300
 4910POPC   C2B64448  23.520  36.681   6.786
 4910POPC   C3B64449  23.447  36.613   7.271
 4910POPC   C4B64450  23.511  36.364   7.699
 4911POPC   NC364451  17.963   0.804   5.332
 4911POPC   PO464452  18.292   0.189   5.489
 4911POPC   GL164453  18.260   0.579   5.777
 4911POPC   GL264454  17.983   0.837   5.819
 4911POPC   C1A64455  18.506   0.523   6.165
 4911POPC   D2A64456  18.610   0.676   6.582
 4911POPC   C3A64457  18.719   0.380   6.921
 4911POPC   C4A64458  18.495   0.286   7.297
 4911POPC   C1B64459  17.861   0.744   6.194
 4911POPC   C2B64460  18.084   0.577   6.469
 4911POPC   C3B64461  18.226   0.575   6.903
 4911POPC   C4B64462  18.059   0.584   7.296
 4912POPC   NC364463  22.566  34.118   5.590
 4912POPC   PO464464  22.091  33.729   5.313
 4912POPC   GL164465  21.959  33.740   5.757
 4912POPC   GL264466  21.895  34.109   5.783
 4912POPC   C1A64467  22.082  33.609   6.211
 4912POPC   D2A64468  22.405  33.736   6.545
 4912POPC   C3A64469  22.259  33.625   6.951
 4912POPC   C4A64470  21.857  33.680   7.082
 4912POPC   C1B64471  21.992  34.161   6.203
 4912POPC   C2B64472  21.916  33.956   6.591
 4912POPC   C3B64473  22.016  34.157   6.975
 4912POPC   C4B64474  22.255  33.999   7.301
 4913POPC   NC364475  23.877  40.398   5.325
 4913POPC   PO464476  23.454  39.794   5.397
 4913POPC   GL164477  23.691  40.075   5.674
 4913POPC   GL264478  24.041  39.990   5.673
 4913POPC   C1A64479  23.783  40.234   6.104
 4913POPC   D2A64480  23.846  40.004   6.509
 4913POPC   C3A64481  23.779  40.209   6.903
 4913POPC   C4A64482  23.767  39.945   7.270
 4913POPC   C1B64483  24.174  39.869   6.107
 4913POPC   C2B64484  24.355  40.087   6.480
 4913POPC   C3B64485  24.260  40.018   6.902
 4913POPC   C4B64486  24.239  39.798   7.317
 4914POPC   NC364487  37.290  16.002   5.388
 4914POPC   PO464488  37.705  15.442   5.366
 4914POPC   GL164489  37.683  15.778   5.720
 4914POPC   GL264490  37.743  16.122   5.622
 4914POPC   C1A64491  37.708  15.784   6.198
 4914POPC   D2A64492  37.509  15.706   6.645
 4914POPC   C3A64493  37.686  15.790   7.074
 4914POPC   C4A64494  37.715  15.672   7.499
 4914POPC   C1B64495  37.690  16.318   6.047
 4914POPC   C2B64496  37.472  16.171   6.423
 4914POPC   C3B64497  37.426  16.168   6.877
 4914POPC   C4B64498  37.394  16.145   7.332
 4915POPC   NC364499  44.147  20.857   5.359
 4915POPC   PO464500  43.600  20.479   5.378
 4915POPC   GL164501  43.852  20.696   5.749
 4915POPC   GL264502  43.809  21.039   5.840
 4915POPC   C1A64503  44.186  20.839   6.100
 4915POPC   D2A64504  44.324  20.752   6.540
 4915POPC   C3A64505  44.067  20.817   6.901
 4915POPC   C4A64506  43.829  20.599   7.224
 4915POPC   C1B64507  43.697  20.885   6.301
 4915POPC   C2B64508  43.627  21.025   6.779
 4915POPC   C3B64509  43.806  21.126   7.236
 4915POPC   C4B64510  43.619  21.228   7.659
 4916POPC   NC364511   8.052  15.523   5.381
 4916POPC   PO464512   8.157  14.834   5.363
 4916POPC   GL164513   8.100  15.140   5.742
 4916POPC   GL264514   7.764  15.105   5.869
 4916POPC   C1A64515   8.116  15.210   6.245
 4916POPC   D2A64516   8.326  15.151   6.688
 4916POPC   C3A64517   8.203  15.348   7.108
 4916POPC   C4A64518   8.219  15.379   7.590
 4916POPC   C1B64519   7.613  14.917   6.256
 4916POPC   C2B64520   7.877  14.876   6.584
 4916POPC   C3B64521   7.857  14.980   6.979
 4916POPC   C4B64522   7.726  14.598   7.156
 4917POPC   NC364523  24.929  39.438   4.844
 4917POPC   PO464524  24.314  39.338   5.171
 4917POPC   GL164525  24.400  39.319   5.650
 4917POPC   GL264526  24.303  39.029   5.855
 4917POPC   C1A64527  24.517  39.445   6.100
 4917POPC   D2A64528  24.360  39.573   6.514
 4917POPC   C3A64529  24.655  39.567   6.848
 4917POPC   C4A64530  24.589  39.424   7.250
 4917POPC   C1B64531  24.617  38.914   6.158
 4917POPC   C2B64532  24.618  39.109   6.562
 4917POPC   C3B64533  24.322  39.141   6.924
 4917POPC   C4B64534  24.333  38.994   7.394
 4918POPC   NC364535  27.408  37.668   5.583
 4918POPC   PO464536  27.911  38.040   5.280
 4918POPC   GL164537  27.896  37.823   5.707
 4918POPC   GL264538  27.867  37.444   5.770
 4918POPC   C1A64539  27.744  37.832   6.164
 4918POPC   D2A64540  27.811  37.726   6.617
 4918POPC   C3A64541  27.495  37.810   6.928
 4918POPC   C4A64542  27.475  37.972   7.346
 4918POPC   C1B64543  27.651  37.300   6.145
 4918POPC   C2B64544  27.500  37.323   6.556
 4918POPC   C3B64545  27.376  37.333   6.967
 4918POPC   C4B64546  27.406  37.472   7.422
 4919POPC   NC364547  14.236  43.160   5.158
 4919POPC   PO464548  14.683  42.908   5.640
 4919POPC   GL164549  14.299  42.976   5.849
 4919POPC   GL264550  14.265  43.349   5.855
 4919POPC   C1A64551  14.169  42.819   6.254
 4919POPC   D2A64552  14.440  42.685   6.597
 4919POPC   C3A64553  14.499  42.930   6.977
 4919POPC   C4A64554  14.542  43.308   7.165
 4919POPC   C1B64555  14.386  43.343   6.295
 4919POPC   C2B64556  14.244  43.354   6.725
 4919POPC   C3B64557  14.118  43.564   7.108
 4919POPC   C4B64558  14.233  43.471   7.541
 4920POPC   NC364559  23.152  10.733   5.713
 4920POPC   PO464560  22.684  10.302   5.550
 4920POPC   GL164561  22.619  10.626   5.892
 4920POPC   GL264562  22.904  10.454   6.060
 4920POPC   C1A64563  22.649  10.749   6.375
 4920POPC   D2A64564  22.975  10.536   6.622
 4920POPC   C3A64565  23.049  10.574   7.063
 4920POPC   C4A64566  22.846  10.437   7.445
 4920POPC   C1B64567  23.239  10.224   6.282
 4920POPC   C2B64568  23.189  10.039   6.709
 4920POPC   C3B64569  23.329  10.101   7.136
 4920POPC   C4B64570  23.374  10.387   7.447
 4921POPC   NC364571  43.568  31.744   5.313
 4921POPC   PO464572  43.003  31.396   5.190
 4921POPC   GL164573  43.055  31.537   5.614
 4921POPC   GL264574  43.242  31.839   5.704
 4921POPC   C1A64575  43.186  31.371   6.014
 4921POPC   D2A64576  43.193  31.195   6.421
 4921POPC   C3A64577  43.260  31.372   6.818
 4921POPC   C4A64578  43.013  31.249   7.168
 4921POPC   C1B64579  43.543  31.730   6.054
 4921POPC   C2B64580  43.486  31.756   6.504
 4921POPC   C3B64581  43.266  31.866   6.891
 4921POPC   C4B64582  43.054  31.723   7.269
 4922POPC   NC364583   6.952  32.548   5.424
 4922POPC   PO464584   6.724  31.967   5.519
 4922POPC   GL164585   6.736  32.271   5.804
 4922POPC   GL264586   6.429  32.157   5.926
 4922POPC   C1A64587   6.906  32.485   6.150
 4922POPC   D2A64588   6.915  32.318   6.565
 4922POPC   C3A64589   6.667  32.393   6.905
 4922POPC   C4A64590   6.904  32.321   7.271
 4922POPC   C1B64591   6.455  32.230   6.337
 4922POPC   C2B64592   6.573  31.940   6.616
 4922POPC   C3B64593   6.358  31.851   6.943
 4922POPC   C4B64594   6.455  32.077   7.241
 4923POPC   NC364595   3.833  22.375   5.374
 4923POPC   PO464596   3.439  21.832   5.508
 4923POPC   GL164597   3.759  22.066   5.772
 4923POPC   GL264598   3.548  22.366   5.832
 4923POPC   C1A64599   3.874  22.237   6.199
 4923POPC   D2A64600   3.563  22.387   6.501
 4923POPC   C3A64601   3.678  22.465   6.942
 4923POPC   C4A64602   3.334  22.358   7.233
 4923POPC   C1B64603   3.417  22.007   6.139
 4923POPC   C2B64604   3.641  21.851   6.479
 4923POPC   C3B64605   3.514  21.984   6.848
 4923POPC   C4B64606   3.695  22.009   7.190
 4924POPC   NC364607  18.665  11.823   5.615
 4924POPC   PO464608  19.171  12.301   5.271
 4924POPC   GL164609  19.046  12.163   5.668
 4924POPC   GL264610  19.368  12.151   5.777
 4924POPC   C1A64611  18.897  12.241   6.118
 4924POPC   D2A64612  18.842  12.032   6.520
 4924POPC   C3A64613  18.977  12.170   6.916
 4924POPC   C4A64614  18.862  11.949   7.289
 4924POPC   C1B64615  19.213  11.843   6.071
 4924POPC   C2B64616  19.262  11.741   6.509
 4924POPC   C3B64617  19.061  11.680   6.906
 4924POPC   C4B64618  19.247  11.612   7.337
 4925POPC   NC364619   1.772  34.900   5.395
 4925POPC   PO464620   2.344  35.359   5.313
 4925POPC   GL164621   2.195  35.272   5.766
 4925POPC   GL264622   1.979  35.024   5.848
 4925POPC   C1A64623   2.101  35.430   6.172
 4925POPC   D2A64624   2.207  35.380   6.596
 4925POPC   C3A64625   1.927  35.476   6.931
 4925POPC   C4A64626   2.057  35.555   7.327
 4925POPC   C1B64627   1.653  35.164   6.136
 4925POPC   C2B64628   1.732  35.137   6.560
 4925POPC   C3B64629   1.595  35.063   6.966
 4925POPC   C4B64630   1.931  34.993   7.217
 4926POPC   NC364631   9.870  31.133   5.357
 4926POPC   PO464632   9.555  31.738   5.437
 4926POPC   GL164633   9.749  31.638   5.831
 4926POPC   GL264634   9.748  31.984   5.919
 4926POPC   C1A64635   9.635  31.561   6.267
 4926POPC   D2A64636   9.432  31.305   6.530
 4926POPC   C3A64637   9.487  31.384   6.931
 4926POPC   C4A64638   9.368  31.362   7.349
 4926POPC   C1B64639   9.947  31.956   6.295
 4926POPC   C2B64640   9.840  31.853   6.715
 4926POPC   C3B64641  10.055  31.991   7.092
 4926POPC   C4B64642  10.123  31.879   7.565
 4927POPC   NC364643   7.826  37.128   5.614
 4927POPC   PO464644   8.423  36.819   5.530
 4927POPC   GL164645   8.375  36.735   5.902
 4927POPC   GL264646   8.029  36.677   5.876
 4927POPC   C1A64647   8.351  36.502   6.235
 4927POPC   D2A64648   8.151  36.487   6.586
 4927POPC   C3A64649   8.166  36.784   6.880
 4927POPC   C4A64650   8.112  36.633   7.267
 4927POPC   C1B64651   8.017  36.913   6.279
 4927POPC   C2B64652   7.829  37.094   6.657
 4927POPC   C3B64653   7.699  36.909   7.077
 4927POPC   C4B64654   7.847  36.975   7.507
 4928POPC   NC364655   1.650  23.661   5.358
 4928POPC   PO464656   2.277  23.735   5.335
 4928POPC   GL164657   2.093  23.677   5.742
 4928POPC   GL264658   2.002  23.999   5.858
 4928POPC   C1A64659   2.032  23.626   6.211
 4928POPC   D2A64660   1.951  23.814   6.630
 4928POPC   C3A64661   2.026  23.566   7.006
 4928POPC   C4A64662   2.119  23.673   7.439
 4928POPC   C1B64663   2.185  24.153   6.244
 4928POPC   C2B64664   2.134  24.294   6.689
 4928POPC   C3B64665   2.046  24.067   7.104
 4928POPC   C4B64666   1.819  24.067   7.548
 4929POPC   NC364667  38.248  19.223   5.403
 4929POPC   PO464668  38.826  19.047   5.603
 4929POPC   GL164669  38.426  19.055   5.876
 4929POPC   GL264670  38.188  19.391   5.889
 4929POPC   C1A64671  38.294  18.849   6.292
 4929POPC   D2A64672  38.397  19.020   6.725
 4929POPC   C3A64673  38.187  18.862   7.128
 4929POPC   C4A64674  38.371  18.787   7.571
 4929POPC   C1B64675  38.321  19.362   6.340
 4929POPC   C2B64676  38.159  19.464   6.759
 4929POPC   C3B64677  38.227  19.427   7.238
 4929POPC   C4B64678  38.140  19.601   7.661
 4930POPC   NC364679  37.561  38.866   5.659
 4930POPC   PO464680  37.428  38.166   5.360
 4930POPC   GL164681  37.615  38.367   5.796
 4930POPC   GL264682  37.338  38.516   5.951
 4930POPC   C1A64683  37.733  38.521   6.287
 4930POPC   D2A64684  37.916  38.551   6.734
 4930POPC   C3A64685  37.614  38.541   7.081
 4930POPC   C4A64686  37.681  38.379   7.504
 4930POPC   C1B64687  37.353  38.201   6.309
 4930POPC   C2B64688  37.556  38.158   6.719
 4930POPC   C3B64689  37.485  38.008   7.172
 4930POPC   C4B64690  37.522  37.934   7.658
 4931POPC   NC364691   8.020  39.757   5.355
 4931POPC   PO464692   8.402  40.266   5.404
 4931POPC   GL164693   8.203  40.057   5.761
 4931POPC   GL264694   8.327  39.698   5.782
 4931POPC   C1A64695   8.109  39.944   6.185
 4931POPC   D2A64696   8.326  39.965   6.571
 4931POPC   C3A64697   8.126  39.800   6.923
 4931POPC   C4A64698   8.231  39.915   7.346
 4931POPC   C1B64699   8.587  39.666   6.165
 4931POPC   C2B64700   8.769  39.683   6.599
 4931POPC   C3B64701   8.636  39.793   7.043
 4931POPC   C4B64702   8.603  39.667   7.545
 4932POPC   NC364703  26.929  26.876   5.507
 4932POPC   PO464704  27.302  26.468   5.800
 4932POPC   GL164705  26.905  26.539   5.962
 4932POPC   GL264706  26.782  26.873   5.999
 4932POPC   C1A64707  26.853  26.507   6.415
 4932POPC   D2A64708  26.984  26.798   6.753
 4932POPC   C3A64709  26.888  26.620   7.149
 4932POPC   C4A64710  27.061  26.562   7.581
 4932POPC   C1B64711  26.472  26.832   6.343
 4932POPC   C2B64712  26.480  26.872   6.817
 4932POPC   C3B64713  26.728  27.114   7.139
 4932POPC   C4B64714  26.640  27.220   7.600
 4933POPC   NC364715  22.011  25.756   5.588
 4933POPC   PO464716  22.342  26.280   5.563
 4933POPC   GL164717  22.203  26.088   5.923
 4933POPC   GL264718  21.868  26.221   6.041
 4933POPC   C1A64719  22.407  26.050   6.300
 4933POPC   D2A64720  22.177  26.330   6.531
 4933POPC   C3A64721  22.156  26.196   6.912
 4933POPC   C4A64722  22.222  26.284   7.324
 4933POPC   C1B64723  21.930  25.856   6.310
 4933POPC   C2B64724  22.048  25.736   6.728
 4933POPC   C3B64725  21.979  25.783   7.174
 4933POPC   C4B64726  21.681  25.964   7.456
 4934POPC   NC364727  19.938  43.738   5.432
 4934POPC   PO464728  20.040  44.371   5.466
 4934POPC   GL164729  20.119  44.041   5.796
 4934POPC   GL264730  19.833  43.846   5.927
 4934POPC   C1A64731  20.232  43.869   6.213
 4934POPC   D2A64732  19.943  43.779   6.541
 4934POPC   C3A64733  20.067  43.881   6.975
 4934POPC   C4A64734  20.002  43.801   7.411
 4934POPC   C1B64735  19.586  44.073   6.227
 4934POPC   C2B64736  19.466  44.355   6.557
 4934POPC   C3B64737  19.316  44.259   6.954
 4934POPC   C4B64738  19.594  43.996   7.177
 4935POPC   NC364739  14.243  32.068   5.444
 4935POPC   PO464740  14.691  32.527   5.384
 4935POPC   GL164741  14.401  32.475   5.746
 4935POPC   GL264742  14.545  32.176   5.861
 4935POPC   C1A64743  14.263  32.418   6.197
 4935POPC   D2A64744  14.504  32.369   6.575
 4935POPC   C3A64745  14.416  32.230   6.976
 4935POPC   C4A64746  14.209  32.438   7.285
 4935POPC   C1B64747  14.731  32.051   6.249
 4935POPC   C2B64748  14.923  32.083   6.671
 4935POPC   C3B64749  14.892  32.081   7.143
 4935POPC   C4B64750  14.591  32.059   7.476
 4936POPC   NC364751  29.481  12.983   5.461
 4936POPC   PO464752  29.003  12.601   5.350
 4936POPC   GL164753  28.972  12.765   5.760
 4936POPC   GL264754  28.798  12.526   5.969
 4936POPC   C1A64755  29.212  12.933   6.104
 4936POPC   D2A64756  29.388  12.750   6.487
 4936POPC   C3A64757  29.421  13.031   6.799
 4936POPC   C4A64758  29.460  13.060   7.228
 4936POPC   C1B64759  28.776  12.808   6.320
 4936POPC   C2B64760  28.928  12.807   6.709
 4936POPC   C3B64761  29.046  12.801   7.086
 4936POPC   C4B64762  28.882  13.081   7.237
 4937POPC   NC364763  39.642   3.421   5.449
 4937POPC   PO464764  40.196   3.786   5.236
 4937POPC   GL164765  40.289   3.717   5.679
 4937POPC   GL264766  39.995   3.546   5.809
 4937POPC   C1A64767  40.367   3.656   6.131
 4937POPC   D2A64768  40.142   3.426   6.483
 4937POPC   C3A64769  40.247   3.563   6.917
 4937POPC   C4A64770  40.334   3.640   7.337
 4937POPC   C1B64771  39.749   3.313   6.126
 4937POPC   C2B64772  39.557   3.412   6.507
 4937POPC   C3B64773  39.748   3.548   6.866
 4937POPC   C4B64774  39.891   3.348   7.254
 4938POPC   NC364775   5.445  19.887   5.566
 4938POPC   PO464776   6.134  19.781   5.453
 4938POPC   GL164777   6.151  19.858   5.875
 4938POPC   GL264778   5.798  19.763   5.925
 4938POPC   C1A64779   6.053  19.945   6.320
 4938POPC   D2A64780   5.704  20.186   6.520
 4938POPC   C3A64781   5.533  20.108   6.914
 4938POPC   C4A64782   5.807  20.180   7.256
 4938POPC   C1B64783   5.635  19.654   6.352
 4938POPC   C2B64784   5.835  19.729   6.758
 4938POPC   C3B64785   5.956  19.592   7.146
 4938POPC   C4B64786   5.737  19.377   7.489
 4939POPC   NC364787  35.777  14.500   5.571
 4939POPC   PO464788  36.404  14.322   5.485
 4939POPC   GL164789  36.270  14.268   5.894
 4939POPC   GL264790  35.948  14.145   5.886
 4939POPC   C1A64791  36.234  14.217   6.343
 4939POPC   D2A64792  36.112  14.446   6.681
 4939POPC   C3A64793  36.215  14.220   6.979
 4939POPC   C4A64794  36.518  14.068   7.190
 4939POPC   C1B64795  35.792  13.986   6.263
 4939POPC   C2B64796  35.919  13.922   6.685
 4939POPC   C3B64797  35.705  14.095   7.038
 4939POPC   C4B64798  35.852  14.488   7.204
 4940POPC   NC364799  38.534  13.877   5.416
 4940POPC   PO464800  38.744  13.242   5.647
 4940POPC   GL164801  38.648  13.644   5.875
 4940POPC   GL264802  38.324  13.793   5.865
 4940POPC   C1A64803  38.697  13.598   6.319
 4940POPC   D2A64804  38.676  13.325   6.691
 4940POPC   C3A64805  38.504  13.498   7.066
 4940POPC   C4A64806  38.579  13.434   7.513
 4940POPC   C1B64807  38.432  14.020   6.195
 4940POPC   C2B64808  38.539  13.974   6.623
 4940POPC   C3B64809  38.593  14.011   7.049
 4940POPC   C4B64810  38.332  13.891   7.362
 4941POPC   NC364811  23.933   4.836   5.515
 4941POPC   PO464812  23.843   5.500   5.537
 4941POPC   GL164813  23.562   5.339   5.879
 4941POPC   GL264814  23.678   4.986   5.930
 4941POPC   C1A64815  23.432   5.189   6.313
 4941POPC   D2A64816  23.664   4.972   6.665
 4941POPC   C3A64817  23.745   5.186   7.073
 4941POPC   C4A64818  23.881   5.423   7.446
 4941POPC   C1B64819  23.946   5.192   6.276
 4941POPC   C2B64820  24.122   5.225   6.714
 4941POPC   C3B64821  24.261   5.216   7.153
 4941POPC   C4B64822  24.330   5.187   7.602
 4942POPC   NC364823  32.413  30.772   5.393
 4942POPC   PO464824  31.836  30.407   5.420
 4942POPC   GL164825  32.220  30.440   5.754
 4942POPC   GL264826  32.614  30.524   5.790
 4942POPC   C1A64827  32.329  30.703   6.148
 4942POPC   D2A64828  32.051  30.853   6.474
 4942POPC   C3A64829  32.166  30.749   6.889
 4942POPC   C4A64830  31.933  30.849   7.262
 4942POPC   C1B64831  32.783  30.425   6.217
 4942POPC   C2B64832  32.748  30.676   6.588
 4942POPC   C3B64833  32.712  30.617   7.035
 4942POPC   C4B64834  32.340  30.530   7.317
 4943POPC   NC364835  22.553  38.751   5.386
 4943POPC   PO464836  22.866  38.154   5.576
 4943POPC   GL164837  22.864  38.580   5.779
 4943POPC   GL264838  22.519  38.597   5.860
 4943POPC   C1A64839  22.998  38.619   6.212
 4943POPC   D2A64840  22.991  38.230   6.489
 4943POPC   C3A64841  22.965  38.333   6.921
 4943POPC   C4A64842  23.172  38.593   7.191
 4943POPC   C1B64843  22.521  38.475   6.264
 4943POPC   C2B64844  22.619  38.622   6.634
 4943POPC   C3B64845  22.509  38.507   7.038
 4943POPC   C4B64846  22.624  38.806   7.306
 4944POPC   NC364847  20.190  38.586   5.498
 4944POPC   PO464848  19.631  38.141   5.542
 4944POPC   GL164849  19.792  38.291   5.900
 4944POPC   GL264850  19.768  38.590   5.812
 4944POPC   C1A64851  19.637  38.468   6.290
 4944POPC   D2A64852  19.504  38.312   6.646
 4944POPC   C3A64853  19.776  38.494   6.952
 4944POPC   C4A64854  19.698  38.391   7.414
 4944POPC   C1B64855  20.069  38.723   6.135
 4944POPC   C2B64856  19.978  38.831   6.547
 4944POPC   C3B64857  20.206  38.783   6.897
 4944POPC   C4B64858  20.078  38.738   7.280
 4945POPC   NC364859   6.954  10.805   5.259
 4945POPC   PO464860   6.727  10.189   5.321
 4945POPC   GL164861   6.655  10.545   5.635
 4945POPC   GL264862   6.985  10.563   5.728
 4945POPC   C1A64863   6.451  10.688   6.064
 4945POPC   D2A64864   6.346  10.379   6.438
 4945POPC   C3A64865   6.443  10.404   6.906
 4945POPC   C4A64866   6.400  10.708   7.249
 4945POPC   C1B64867   6.849  10.386   6.127
 4945POPC   C2B64868   6.847  10.510   6.573
 4945POPC   C3B64869   6.940  10.482   7.036
 4945POPC   C4B64870   6.844  10.405   7.487
 4946POPC   NC364871  39.563  26.215   5.298
 4946POPC   PO464872  39.036  26.080   5.382
 4946POPC   GL164873  39.231  26.065   5.788
 4946POPC   GL264874  39.188  25.740   5.911
 4946POPC   C1A64875  39.134  26.151   6.239
 4946POPC   D2A64876  39.128  26.049   6.701
 4946POPC   C3A64877  38.869  26.274   7.019
 4946POPC   C4A64878  38.852  26.708   7.210
 4946POPC   C1B64879  39.262  25.648   6.351
 4946POPC   C2B64880  39.017  25.502   6.709
 4946POPC   C3B64881  38.823  25.758   7.004
 4946POPC   C4B64882  39.116  25.914   7.283
 4947POPC   NC364883   3.371   2.336   5.418
 4947POPC   PO464884   3.437   1.607   5.388
 4947POPC   GL164885   3.681   1.833   5.681
 4947POPC   GL264886   3.566   2.146   5.859
 4947POPC   C1A64887   3.759   1.705   6.091
 4947POPC   D2A64888   3.572   1.926   6.431
 4947POPC   C3A64889   3.729   1.839   6.832
 4947POPC   C4A64890   3.808   2.214   7.112
 4947POPC   C1B64891   3.178   2.151   6.100
 4947POPC   C2B64892   3.171   2.304   6.521
 4947POPC   C3B64893   3.290   2.097   6.876
 4947POPC   C4B64894   3.266   2.268   7.257
 4948POPC   NC364895  22.051  12.458   5.563
 4948POPC   PO464896  22.435  11.868   5.411
 4948POPC   GL164897  22.271  11.978   5.822
 4948POPC   GL264898  21.948  11.822   5.802
 4948POPC   C1A64899  22.395  12.164   6.240
 4948POPC   D2A64900  22.295  12.491   6.597
 4948POPC   C3A64901  22.395  12.345   7.024
 4948POPC   C4A64902  22.442  11.898   7.108
 4948POPC   C1B64903  21.809  11.841   6.222
 4948POPC   C2B64904  22.043  11.969   6.571
 4948POPC   C3B64905  21.949  12.014   6.958
 4948POPC   C4B64906  21.660  11.760   7.159
 4949POPC   NC364907  34.770  22.430   5.494
 4949POPC   PO464908  34.329  21.920   5.501
 4949POPC   GL164909  34.457  22.098   5.870
 4949POPC   GL264910  34.834  22.144   5.930
 4949POPC   C1A64911  34.241  22.114   6.261
 4949POPC   D2A64912  34.451  22.090   6.637
 4949POPC   C3A64913  34.279  22.284   6.979
 4949POPC   C4A64914  34.457  22.090   7.337
 4949POPC   C1B64915  34.609  22.478   6.187
 4949POPC   C2B64916  34.622  22.573   6.630
 4949POPC   C3B64917  34.781  22.338   7.011
 4949POPC   C4B64918  34.758  22.466   7.450
 4950POPC   NC364919  30.565  23.509   5.135
 4950POPC   PO464920  30.715  22.793   5.278
 4950POPC   GL164921  30.785  22.774   5.712
 4950POPC   GL264922  30.565  22.607   5.865
 4950POPC   C1A64923  30.891  22.895   6.150
 4950POPC   D2A64924  31.057  22.801   6.573
 4950POPC   C3A64925  30.892  23.075   6.904
 4950POPC   C4A64926  30.514  23.098   7.156
 4950POPC   C1B64927  30.433  22.674   6.274
 4950POPC   C2B64928  30.479  22.860   6.661
 4950POPC   C3B64929  30.202  22.738   6.961
 4950POPC   C4B64930  30.232  22.604   7.352
 4951POPC   NC364931   5.130  14.669   5.330
 4951POPC   PO464932   4.496  14.438   5.215
 4951POPC   GL164933   4.781  14.397   5.615
 4951POPC   GL264934   4.863  14.071   5.763
 4951POPC   C1A64935   5.089  14.503   5.995
 4951POPC   D2A64936   5.345  14.414   6.405
 4951POPC   C3A64937   5.101  14.420   6.808
 4951POPC   C4A64938   5.076  14.620   7.214
 4951POPC   C1B64939   5.170  14.006   6.107
 4951POPC   C2B64940   5.102  13.972   6.525
 4951POPC   C3B64941   5.253  13.947   6.916
 4951POPC   C4B64942   5.252  14.127   7.285
 4952POPC   NC364943  17.406  38.207   5.340
 4952POPC   PO464944  17.620  38.841   5.475
 4952POPC   GL164945  17.394  38.560   5.783
 4952POPC   GL264946  17.444  38.160   5.835
 4952POPC   C1A64947  17.519  38.551   6.239
 4952POPC   D2A64948  17.856  38.418   6.570
 4952POPC   C3A64949  17.751  38.383   7.047
 4952POPC   C4A64950  17.505  38.690   7.319
 4952POPC   C1B64951  17.446  38.013   6.256
 4952POPC   C2B64952  17.317  38.262   6.608
 4952POPC   C3B64953  17.246  38.441   6.978
 4952POPC   C4B64954  17.290  38.205   7.357
 4953POPC   NC364955  20.397  25.776   5.403
 4953POPC   PO464956  20.711  26.343   5.267
 4953POPC   GL164957  20.691  26.085   5.716
 4953POPC   GL264958  20.945  25.860   5.889
 4953POPC   C1A64959  20.493  26.247   6.117
 4953POPC   D2A64960  20.548  26.383   6.538
 4953POPC   C3A64961  20.529  26.117   6.904
 4953POPC   C4A64962  20.286  26.173   7.240
 4953POPC   C1B64963  20.635  25.773   6.185
 4953POPC   C2B64964  20.409  25.777   6.562
 4953POPC   C3B64965  20.285  25.688   7.034
 4953POPC   C4B64966  20.461  25.775   7.483
 4954POPC   NC364967  42.219   3.967   5.400
 4954POPC   PO464968  42.398   3.311   5.412
 4954POPC   GL164969  42.452   3.612   5.726
 4954POPC   GL264970  42.744   3.863   5.720
 4954POPC   C1A64971  42.244   3.483   6.121
 4954POPC   D2A64972  42.173   3.250   6.505
 4954POPC   C3A64973  42.085   3.539   6.808
 4954POPC   C4A64974  42.083   3.574   7.239
 4954POPC   C1B64975  42.719   3.665   6.153
 4954POPC   C2B64976  42.544   3.668   6.583
 4954POPC   C3B64977  42.596   3.608   7.052
 4954POPC   C4B64978  42.482   3.799   7.464
 4955POPC   NC364979  32.385  26.401   5.379
 4955POPC   PO464980  32.270  25.847   5.157
 4955POPC   GL164981  32.399  25.971   5.660
 4955POPC   GL264982  32.703  26.136   5.688
 4955POPC   C1A64983  32.207  25.975   6.108
 4955POPC   D2A64984  31.987  25.807   6.468
 4955POPC   C3A64985  32.142  26.025   6.798
 4955POPC   C4A64986  32.199  25.887   7.152
 4955POPC   C1B64987  32.705  26.140   6.135
 4955POPC   C2B64988  32.496  26.282   6.524
 4955POPC   C3B64989  32.605  26.288   6.968
 4955POPC   C4B64990  32.685  25.938   7.267
 4956POPC   NC364991   0.934   3.231   5.257
 4956POPC   PO464992   1.187   3.865   5.273
 4956POPC   GL164993   1.022   3.630   5.618
 4956POPC   GL264994   1.107   3.298   5.729
 4956POPC   C1A64995   1.045   3.651   6.089
 4956POPC   D2A64996   1.194   3.584   6.527
 4956POPC   C3A64997   1.176   3.729   6.979
 4956POPC   C4A64998   1.525   3.580   7.256
 4956POPC   C1B64999   1.267   3.171   6.129
 4956POPC   C2B65000   1.068   3.090   6.516
 4956POPC   C3B65001   1.226   3.203   6.901
 4956POPC   C4B65002   1.072   3.309   7.276
 4957POPC   NC365003   1.691  31.855   5.378
 4957POPC   PO465004   2.129  31.343   5.109
 4957POPC   GL165005   2.075  31.364   5.618
 4957POPC   GL265006   1.724  31.428   5.726
 4957POPC   C1A65007   2.093  31.429   6.090
 4957POPC   D2A65008   2.071  31.709   6.488
 4957POPC   C3A65009   2.114  31.563   6.938
 4957POPC   C4A65010   2.155  31.795   7.331
 4957POPC   C1B65011   1.594  31.234   6.148
 4957POPC   C2B65012   1.626  31.145   6.628
 4957POPC   C3B65013   1.688  31.278   7.087
 4957POPC   C4B65014   1.877  31.395   7.508
 4958POPC   NC365015  22.295  14.625   5.575
 4958POPC   PO465016  21.799  14.155   5.364
 4958POPC   GL165017  22.026  14.228   5.770
 4958POPC   GL265018  21.917  14.510   5.869
 4958POPC   C1A65019  22.302  14.361   6.170
 4958POPC   D2A65020  22.557  14.427   6.549
 4958POPC   C3A65021  22.365  14.424   6.958
 4958POPC   C4A65022  22.500  14.230   7.391
 4958POPC   C1B65023  21.806  14.251   6.217
 4958POPC   C2B65024  21.958  14.327   6.617
 4958POPC   C3B65025  21.799  14.205   6.998
 4958POPC   C4B65026  22.016  14.379   7.311
 4959POPC   NC365027   0.324   2.487   5.531
 4959POPC   PO465028   0.897   2.771   5.203
 4959POPC   GL165029   0.744   2.807   5.658
 4959POPC   GL265030   0.612   3.142   5.705
 4959POPC   C1A65031   0.477   2.762   6.100
 4959POPC   D2A65032   0.265   2.633   6.530
 4959POPC   C3A65033   0.435   2.684   6.943
 4959POPC   C4A65034   0.665   2.488   7.276
 4959POPC   C1B65035   0.728   3.226   6.130
 4959POPC   C2B65036   0.559   3.089   6.531
 4959POPC   C3B65037   0.728   3.087   6.936
 4959POPC   C4B65038   0.607   3.077   7.322
 4960POPC   NC365039  34.644  40.389   5.405
 4960POPC   PO465040  34.704  39.700   5.384
 4960POPC   GL165041  34.734  39.994   5.750
 4960POPC   GL265042  35.008  40.230   5.767
 4960POPC   C1A65043  34.482  40.219   6.105
 4960POPC   D2A65044  34.319  40.390   6.526
 4960POPC   C3A65045  34.326  40.048   6.851
 4960POPC   C4A65046  34.432  40.013   7.280
 4960POPC   C1B65047  35.003  40.150   6.194
 4960POPC   C2B65048  34.753  40.098   6.561
 4960POPC   C3B65049  34.834  40.127   6.989
 4960POPC   C4B65050  35.191  40.197   7.210
 4961POPC   NC365051   4.459  44.042   5.430
 4961POPC   PO465052   4.087  43.442   5.500
 4961POPC   GL165053   4.212  43.657   5.845
 4961POPC   GL265054   4.523  43.853   5.870
 4961POPC   C1A65055   4.332  43.605   6.259
 4961POPC   D2A65056   4.121  43.582   6.649
 4961POPC   C3A65057   4.366  43.649   6.981
 4961POPC   C4A65058   4.185  43.700   7.359
 4961POPC   C1B65059   4.276  44.092   6.134
 4961POPC   C2B65060   4.308  44.040   6.546
 4961POPC   C3B65061   4.630  44.085   6.885
 4961POPC   C4B65062   4.555  44.040   7.294
 4962POPC   NC365063  21.646  39.171   5.375
 4962POPC   PO465064  20.986  38.880   5.307
 4962POPC   GL165065  21.067  39.021   5.758
 4962POPC   GL265066  21.364  39.253   5.854
 4962POPC   C1A65067  20.989  39.062   6.200
 4962POPC   D2A65068  21.099  38.953   6.634
 4962POPC   C3A65069  21.273  39.230   6.917
 4962POPC   C4A65070  21.045  39.223   7.268
 4962POPC   C1B65071  21.500  39.021   6.268
 4962POPC   C2B65072  21.758  39.033   6.662
 4962POPC   C3B65073  21.700  38.991   7.114
 4962POPC   C4B65074  21.583  39.361   7.342
 4963POPC   NC365075  22.351   7.869   5.624
 4963POPC   PO465076  22.545   7.280   5.260
 4963POPC   GL165077  22.369   7.347   5.689
 4963POPC   GL265078  22.566   7.426   5.908
 4963POPC   C1A65079  22.167   7.129   6.057
 4963POPC   D2A65080  22.223   7.162   6.515
 4963POPC   C3A65081  22.078   7.419   6.857
 4963POPC   C4A65082  21.835   7.444   7.267
 4963POPC   C1B65083  22.338   7.597   6.237
 4963POPC   C2B65084  22.613   7.723   6.530
 4963POPC   C3B65085  22.600   7.719   6.944
 4963POPC   C4B65086  22.332   7.570   7.266
 4964POPC   NC365087  16.323  43.913   5.622
 4964POPC   PO465088  16.841  44.103   5.240
 4964POPC   GL165089  16.826  43.989   5.663
 4964POPC   GL265090  16.633  44.307   5.695
 4964POPC   C1A65091  16.814  43.816   6.091
 4964POPC   D2A65092  16.591  43.646   6.482
 4964POPC   C3A65093  16.714  43.778   6.871
 4964POPC   C4A65094  16.768  43.919   7.259
 4964POPC   C1B65095  16.917  44.332   6.039
 4964POPC   C2B65096  16.912  44.177   6.458
 4964POPC   C3B65097  16.855  44.368   6.829
 4964POPC   C4B65098  17.014  44.346   7.221
 4965POPC   NC365099  21.096   1.421   5.349
 4965POPC   PO465100  21.733   1.102   5.337
 4965POPC   GL165101  21.450   1.212   5.741
 4965POPC   GL265102  21.101   1.067   5.715
 4965POPC   C1A65103  21.300   1.399   6.146
 4965POPC   D2A65104  21.362   1.544   6.576
 4965POPC   C3A65105  21.490   1.215   6.847
 4965POPC   C4A65106  21.574   1.358   7.242
 4965POPC   C1B65107  20.875   1.110   6.100
 4965POPC   C2B65108  20.920   1.291   6.510
 4965POPC   C3B65109  21.013   1.377   6.928
 4965POPC   C4B65110  21.165   1.023   7.200
 4966POPC   NC365111   3.843  20.830   5.329
 4966POPC   PO465112   4.293  20.311   5.232
 4966POPC   GL165113   4.503  20.492   5.624
 4966POPC   GL265114   4.241  20.723   5.740
 4966POPC   C1A65115   4.562  20.512   6.111
 4966POPC   D2A65116   4.665  20.652   6.553
 4966POPC   C3A65117   4.540  20.443   6.938
 4966POPC   C4A65118   4.448  20.599   7.372
 4966POPC   C1B65119   4.064  20.631   6.161
 4966POPC   C2B65120   3.884  20.717   6.552
 4966POPC   C3B65121   4.098  20.727   6.951
 4966POPC   C4B65122   3.884  20.704   7.282
 4967POPC   NC365123   0.185  13.780   5.434
 4967POPC   PO465124  44.635  13.301   5.147
 4967POPC   GL165125  44.736  13.271   5.605
 4967POPC   GL265126  44.593  13.569   5.714
 4967POPC   C1A65127  44.641  13.230   6.094
 4967POPC   D2A65128  44.580  13.135   6.552
 4967POPC   C3A65129  44.701  13.408   6.889
 4967POPC   C4A65130  44.781  13.306   7.292
 4967POPC   C1B65131  44.537  13.744   6.117
 4967POPC   C2B65132  44.396  13.606   6.512
 4967POPC   C3B65133  44.351  13.809   6.877
 4967POPC   C4B65134  44.481  13.703   7.263
 4968POPC   NC365135  26.168   7.705   5.583
 4968POPC   PO465136  25.823   8.173   5.174
 4968POPC   GL165137  25.826   8.247   5.637
 4968POPC   GL265138  26.057   8.109   5.877
 4968POPC   C1A65139  25.835   8.555   6.003
 4968POPC   D2A65140  25.890   8.589   6.470
 4968POPC   C3A65141  25.660   8.445   6.853
 4968POPC   C4A65142  25.840   8.232   7.231
 4968POPC   C1B65143  26.126   7.992   6.304
 4968POPC   C2B65144  26.173   8.193   6.721
 4968POPC   C3B65145  26.338   8.086   7.132
 4968POPC   C4B65146  26.180   7.885   7.517
 4969POPC   NC365147  37.116   5.366   5.338
 4969POPC   PO465148  36.516   5.071   5.479
 4969POPC   GL165149  36.910   5.069   5.753
 4969POPC   GL265150  36.993   4.753   5.907
 4969POPC   C1A65151  37.099   5.222   6.173
 4969POPC   D2A65152  36.824   5.239   6.585
 4969POPC   C3A65153  36.996   5.346   6.988
 4969POPC   C4A65154  37.077   5.057   7.364
 4969POPC   C1B65155  36.696   4.925   6.209
 4969POPC   C2B65156  36.470   4.847   6.583
 4969POPC   C3B65157  36.680   4.866   6.955
 4969POPC   C4B65158  36.658   4.511   7.194
 4970POPC   NC365159   5.544  30.295   5.377
 4970POPC   PO465160   5.848  30.786   5.141
 4970POPC   GL165161   5.707  30.930   5.597
 4970POPC   GL265162   5.655  30.621   5.818
 4970POPC   C1A65163   5.736  31.047   6.075
 4970POPC   D2A65164   5.730  30.863   6.501
 4970POPC   C3A65165   5.752  31.039   6.922
 4970POPC   C4A65166   5.550  30.952   7.338
 4970POPC   C1B65167   5.694  30.399   6.244
 4970POPC   C2B65168   5.645  30.373   6.710
 4970POPC   C3B65169   5.718  30.468   7.150
 4970POPC   C4B65170   6.082  30.421   7.447
 4971POPC   NC365171   2.484  34.057   5.442
 4971POPC   PO465172   3.174  33.987   5.354
 4971POPC   GL165173   2.948  33.924   5.783
 4971POPC   GL265174   2.598  33.749   5.831
 4971POPC   C1A65175   2.919  33.721   6.216
 4971POPC   D2A65176   2.588  33.680   6.520
 4971POPC   C3A65177   2.763  33.592   6.908
 4971POPC   C4A65178   3.152  33.773   7.088
 4971POPC   C1B65179   2.513  34.075   6.163
 4971POPC   C2B65180   2.449  34.189   6.604
 4971POPC   C3B65181   2.555  34.065   7.037
 4971POPC   C4B65182   2.363  34.130   7.435
 4972POPC   NC365183  41.089   5.767   5.486
 4972POPC   PO465184  41.632   6.018   5.395
 4972POPC   GL165185  41.597   6.060   5.829
 4972POPC   GL265186  41.352   5.775   5.926
 4972POPC   C1A65187  41.515   6.146   6.268
 4972POPC   D2A65188  41.550   5.943   6.684
 4972POPC   C3A65189  41.406   6.161   7.058
 4972POPC   C4A65190  41.411   6.090   7.525
 4972POPC   C1B65191  41.730   5.687   6.179
 4972POPC   C2B65192  41.869   5.509   6.569
 4972POPC   C3B65193  41.890   5.670   6.968
 4972POPC   C4B65194  41.539   5.709   7.229
 4973POPC   NC365195  13.684  24.253   5.039
 4973POPC   PO465196  13.300  24.421   5.573
 4973POPC   GL165197  13.269  24.279   5.922
 4973POPC   GL265198  13.583  24.239   6.061
 4973POPC   C1A65199  13.244  24.581   6.211
 4973POPC   D2A65200  13.503  24.537   6.518
 4973POPC   C3A65201  13.322  24.489   6.874
 4973POPC   C4A65202  13.586  24.603   7.198
 4973POPC   C1B65203  13.927  23.993   6.161
 4973POPC   C2B65204  14.017  23.957   6.570
 4973POPC   C3B65205  13.839  24.254   6.847
 4973POPC   C4B65206  13.929  24.134   7.244
 4974POPC   NC365207  39.936   7.048   5.450
 4974POPC   PO465208  39.819   7.747   5.646
 4974POPC   GL165209  40.013   7.375   5.848
 4974POPC   GL265210  39.772   7.083   5.925
 4974POPC   C1A65211  40.144   7.361   6.274
 4974POPC   D2A65212  39.993   7.386   6.690
 4974POPC   C3A65213  40.205   7.342   7.056
 4974POPC   C4A65214  40.047   7.697   7.242
 4974POPC   C1B65215  39.637   7.374   6.205
 4974POPC   C2B65216  39.499   7.356   6.580
 4974POPC   C3B65217  39.578   7.550   6.968
 4974POPC   C4B65218  39.691   7.292   7.310
 4975POPC   NC365219  20.279  29.999   5.401
 4975POPC   PO465220  20.535  29.425   5.353
 4975POPC   GL165221  20.692  29.785   5.665
 4975POPC   GL265222  20.408  29.855   5.887
 4975POPC   C1A65223  20.805  30.106   6.052
 4975POPC   D2A65224  20.696  29.943   6.475
 4975POPC   C3A65225  20.749  29.999   6.919
 4975POPC   C4A65226  20.774  29.658   7.170
 4975POPC   C1B65227  20.299  30.139   6.245
 4975POPC   C2B65228  20.372  30.266   6.715
 4975POPC   C3B65229  20.320  30.163   7.189
 4975POPC   C4B65230  20.347  30.292   7.656
 4976POPC   NC365231  35.109  39.688   5.134
 4976POPC   PO465232  35.251  39.116   5.488
 4976POPC   GL165233  35.441  39.027   5.845
 4976POPC   GL265234  35.191  38.766   5.922
 4976POPC   C1A65235  35.634  39.295   6.162
 4976POPC   D2A65236  35.659  39.213   6.593
 4976POPC   C3A65237  35.591  39.505   6.886
 4976POPC   C4A65238  35.511  39.417   7.309
 4976POPC   C1B65239  35.188  39.071   6.280
 4976POPC   C2B65240  35.121  39.391   6.590
 4976POPC   C3B65241  35.083  39.234   6.992
 4976POPC   C4B65242  34.896  39.331   7.358
 4977POPC   NC365243  23.539   6.622   5.314
 4977POPC   PO465244  24.109   6.464   5.566
 4977POPC   GL165245  23.817   6.713   5.743
 4977POPC   GL265246  23.950   7.039   5.667
 4977POPC   C1A65247  23.552   6.636   6.094
 4977POPC   D2A65248  23.632   6.582   6.542
 4977POPC   C3A65249  23.467   6.866   6.862
 4977POPC   C4A65250  23.506   6.744   7.274
 4977POPC   C1B65251  24.005   6.978   6.129
 4977POPC   C2B65252  24.100   6.795   6.514
 4977POPC   C3B65253  23.981   6.807   6.917
 4977POPC   C4B65254  23.864   7.090   7.202
 4978POPC   NC365255  15.204  41.869   5.622
 4978POPC   PO465256  15.359  41.331   5.226
 4978POPC   GL165257  15.398  41.391   5.721
 4978POPC   GL265258  15.094  41.486   5.947
 4978POPC   C1A65259  15.584  41.394   6.163
 4978POPC   D2A65260  15.478  41.562   6.597
 4978POPC   C3A65261  15.560  41.357   7.018
 4978POPC   C4A65262  15.233  41.225   7.337
 4978POPC   C1B65263  14.884  41.673   6.299
 4978POPC   C2B65264  15.020  41.851   6.662
 4978POPC   C3B65265  15.202  41.722   7.012
 4978POPC   C4B65266  15.090  41.731   7.399
 4979POPC   NC365267  31.412  30.413   5.584
 4979POPC   PO465268  31.205  31.011   5.437
 4979POPC   GL165269  31.451  30.891   5.820
 4979POPC   GL265270  31.784  30.708   5.831
 4979POPC   C1A65271  31.526  30.774   6.260
 4979POPC   D2A65272  31.309  30.604   6.585
 4979POPC   C3A65273  31.478  30.792   6.955
 4979POPC   C4A65274  31.479  30.645   7.358
 4979POPC   C1B65275  31.909  30.432   6.215
 4979POPC   C2B65276  31.805  30.426   6.685
 4979POPC   C3B65277  31.872  30.329   7.150
 4979POPC   C4B65278  31.929  30.418   7.603
 4980POPC   NC365279   4.326  18.499   5.411
 4980POPC   PO465280   4.500  17.848   5.324
 4980POPC   GL165281   4.319  18.035   5.699
 4980POPC   GL265282   3.950  18.134   5.676
 4980POPC   C1A65283   4.513  18.010   6.130
 4980POPC   D2A65284   4.328  18.102   6.524
 4980POPC   C3A65285   4.494  17.995   6.900
 4980POPC   C4A65286   4.366  18.160   7.258
 4980POPC   C1B65287   4.033  18.210   6.109
 4980POPC   C2B65288   4.082  18.538   6.437
 4980POPC   C3B65289   4.134  18.432   6.883
 4980POPC   C4B65290   4.171  18.604   7.321
 4981POPC   NC365291  41.622  43.334   5.406
 4981POPC   PO465292  41.487  42.729   5.438
 4981POPC   GL165293  41.452  43.011   5.765
 4981POPC   GL265294  41.194  43.199   5.656
 4981POPC   C1A65295  41.611  43.159   6.149
 4981POPC   D2A65296  41.765  42.930   6.524
 4981POPC   C3A65297  41.697  43.161   6.902
 4981POPC   C4A65298  41.794  43.216   7.312
 4981POPC   C1B65299  41.102  43.267   6.088
 4981POPC   C2B65300  41.230  43.114   6.507
 4981POPC   C3B65301  41.217  42.960   6.927
 4981POPC   C4B65302  41.288  43.214   7.300
 4982POPC   NC365303  26.685  15.129   5.361
 4982POPC   PO465304  27.274  15.454   5.429
 4982POPC   GL165305  27.010  15.211   5.763
 4982POPC   GL265306  26.668  15.114   5.873
 4982POPC   C1A65307  27.051  14.964   6.171
 4982POPC   D2A65308  26.845  15.041   6.588
 4982POPC   C3A65309  26.855  14.948   7.048
 4982POPC   C4A65310  26.453  14.958   7.277
 4982POPC   C1B65311  26.789  15.412   6.214
 4982POPC   C2B65312  26.648  15.529   6.612
 4982POPC   C3B65313  26.530  15.407   7.004
 4982POPC   C4B65314  26.727  15.371   7.390
 4983POPC   NC365315  27.017  15.740   5.685
 4983POPC   PO465316  27.528  15.888   5.206
 4983POPC   GL165317  27.540  15.844   5.686
 4983POPC   GL265318  27.822  16.102   5.771
 4983POPC   C1A65319  27.596  15.859   6.159
 4983POPC   D2A65320  27.924  15.849   6.512
 4983POPC   C3A65321  27.785  15.726   6.927
 4983POPC   C4A65322  27.522  15.877   7.260
 4983POPC   C1B65323  27.832  16.322   6.193
 4983POPC   C2B65324  27.740  16.305   6.656
 4983POPC   C3B65325  27.896  16.186   7.089
 4983POPC   C4B65326  27.767  16.211   7.563
 4984POPC   NC365327  20.396  12.371   5.356
 4984POPC   PO465328  20.712  11.825   5.342
 4984POPC   GL165329  20.675  12.096   5.690
 4984POPC   GL265330  20.352  11.954   5.759
 4984POPC   C1A65331  20.589  12.334   6.065
 4984POPC   D2A65332  20.356  12.386   6.446
 4984POPC   C3A65333  20.475  12.299   6.858
 4984POPC   C4A65334  20.296  12.500   7.237
 4984POPC   C1B65335  20.556  11.838   6.175
 4984POPC   C2B65336  20.560  11.822   6.637
 4984POPC   C3B65337  20.614  11.779   7.045
 4984POPC   C4B65338  20.345  11.982   7.226
 4985POPC   NC365339  29.286   9.295   5.527
 4985POPC   PO465340  28.903   8.743   5.303
 4985POPC   GL165341  28.905   8.858   5.785
 4985POPC   GL265342  29.210   8.968   5.921
 4985POPC   C1A65343  28.786   8.941   6.228
 4985POPC   D2A65344  29.023   8.811   6.575
 4985POPC   C3A65345  28.966   8.835   7.000
 4985POPC   C4A65346  29.372   8.786   7.152
 4985POPC   C1B65347  29.214   9.304   6.240
 4985POPC   C2B65348  29.027   9.331   6.641
 4985POPC   C3B65349  29.221   9.297   7.030
 4985POPC   C4B65350  29.388   9.606   7.252
 4986POPC   NC365351  29.311  35.913   5.381
 4986POPC   PO465352  29.263  35.206   5.263
 4986POPC   GL165353  29.309  35.316   5.729
 4986POPC   GL265354  29.165  35.636   5.812
 4986POPC   C1A65355  29.201  35.277   6.215
 4986POPC   D2A65356  29.364  35.250   6.639
 4986POPC   C3A65357  29.239  35.334   7.095
 4986POPC   C4A65358  29.485  35.532   7.450
 4986POPC   C1B65359  28.873  35.639   6.190
 4986POPC   C2B65360  28.904  35.499   6.627
 4986POPC   C3B65361  28.942  35.737   7.024
 4986POPC   C4B65362  28.626  35.682   7.295
 4987POPC   NC365363  34.073  26.239   5.325
 4987POPC   PO465364  33.488  25.927   5.434
 4987POPC   GL165365  33.736  26.123   5.724
 4987POPC   GL265366  33.964  25.839   5.759
 4987POPC   C1A65367  33.933  26.212   6.123
 4987POPC   D2A65368  33.912  26.412   6.520
 4987POPC   C3A65369  33.971  26.180   6.906
 4987POPC   C4A65370  33.723  26.209   7.263
 4987POPC   C1B65371  33.608  25.773   6.091
 4987POPC   C2B65372  33.476  25.696   6.551
 4987POPC   C3B65373  33.567  25.803   6.989
 4987POPC   C4B65374  33.938  25.740   7.261
 4988POPC   NC365375  15.228  15.404   5.185
 4988POPC   PO465376  14.709  15.054   5.392
 4988POPC   GL165377  14.983  15.217   5.705
 4988POPC   GL265378  14.984  14.901   5.834
 4988POPC   C1A65379  15.000  15.293   6.163
 4988POPC   D2A65380  15.270  15.529   6.414
 4988POPC   C3A65381  15.279  15.499   6.849
 4988POPC   C4A65382  15.242  15.301   7.211
 4988POPC   C1B65383  15.205  14.809   6.209
 4988POPC   C2B65384  15.306  15.019   6.585
 4988POPC   C3B65385  15.254  14.859   6.980
 4988POPC   C4B65386  15.073  14.604   7.280
 4989POPC   NC365387  27.620  24.717   5.385
 4989POPC   PO465388  27.227  24.224   5.562
 4989POPC   GL165389  27.581  24.427   5.820
 4989POPC   GL265390  27.632  24.797   5.916
 4989POPC   C1A65391  27.724  24.431   6.245
 4989POPC   D2A65392  27.630  24.528   6.654
 4989POPC   C3A65393  27.713  24.310   7.035
 4989POPC   C4A65394  27.932  24.232   7.440
 4989POPC   C1B65395  27.349  24.805   6.312
 4989POPC   C2B65396  27.229  24.822   6.748
 4989POPC   C3B65397  27.511  24.769   7.080
 4989POPC   C4B65398  27.512  24.552   7.451
 4990POPC   NC365399  32.399  15.169   5.231
 4990POPC   PO465400  33.054  15.205   5.398
 4990POPC   GL165401  32.704  15.189   5.687
 4990POPC   GL265402  32.658  14.850   5.788
 4990POPC   C1A65403  32.676  15.343   6.127
 4990POPC   D2A65404  32.829  15.522   6.528
 4990POPC   C3A65405  32.731  15.419   6.965
 4990POPC   C4A65406  33.013  15.291   7.277
 4990POPC   C1B65407  32.983  14.906   6.084
 4990POPC   C2B65408  33.070  14.740   6.491
 4990POPC   C3B65409  33.067  14.937   6.880
 4990POPC   C4B65410  32.822  14.824   7.226
 4991POPC   NC365411  16.460  14.120   5.511
 4991POPC   PO465412  16.958  14.438   5.179
 4991POPC   GL165413  16.829  14.432   5.666
 4991POPC   GL265414  17.013  14.351   5.863
 4991POPC   C1A65415  16.561  14.380   6.139
 4991POPC   D2A65416  16.321  14.299   6.593
 4991POPC   C3A65417  16.532  14.408   6.993
 4991POPC   C4A65418  16.646  14.288   7.418
 4991POPC   C1B65419  17.027  14.147   6.254
 4991POPC   C2B65420  17.052  14.408   6.604
 4991POPC   C3B65421  17.058  14.390   7.022
 4991POPC   C4B65422  17.197  14.245   7.423
 4992POPC   NC365423   8.996  25.998   5.376
 4992POPC   PO465424   9.225  25.428   5.577
 4992POPC   GL165425   9.235  25.794   5.852
 4992POPC   GL265426   9.024  26.105   5.869
 4992POPC   C1A65427   9.104  25.829   6.284
 4992POPC   D2A65428   8.808  25.781   6.643
 4992POPC   C3A65429   8.951  26.010   7.012
 4992POPC   C4A65430   9.230  25.754   7.263
 4992POPC   C1B65431   8.825  26.259   6.278
 4992POPC   C2B65432   8.622  26.250   6.680
 4992POPC   C3B65433   8.523  26.371   7.104
 4992POPC   C4B65434   8.561  26.327   7.575
 4993POPC   NC365435  24.970  38.282   4.991
 4993POPC   PO465436  25.480  38.238   5.464
 4993POPC   GL165437  25.282  38.450   5.798
 4993POPC   GL265438  25.053  38.219   5.981
 4993POPC   C1A65439  25.433  38.554   6.208
 4993POPC   D2A65440  25.384  38.362   6.609
 4993POPC   C3A65441  25.327  38.679   6.885
 4993POPC   C4A65442  25.015  38.758   7.189
 4993POPC   C1B65443  24.927  38.471   6.338
 4993POPC   C2B65444  24.898  38.427   6.781
 4993POPC   C3B65445  25.141  38.263   7.136
 4993POPC   C4B65446  24.969  38.130   7.543
 4994POPC   NC365447  34.971  44.842   5.560
 4994POPC   PO465448  35.613  44.821   5.533
 4994POPC   GL165449  35.423  44.600   5.848
 4994POPC   GL265450  35.491  44.237   5.839
 4994POPC   C1A65451  35.211  44.737   6.214
 4994POPC   D2A65452  35.375  44.902   6.611
 4994POPC   C3A65453  35.222  44.729   7.027
 4994POPC   C4A65454  35.370  44.661   7.455
 4994POPC   C1B65455  35.316  44.239   6.241
 4994POPC   C2B65456  35.366  44.400   6.643
 4994POPC   C3B65457  35.574  44.365   7.033
 4994POPC   C4B65458  35.703  44.269   7.435
 4995POPC   NC365459  31.081  30.282   5.069
 4995POPC   PO465460  30.573  29.846   5.373
 4995POPC   GL165461  30.728  29.854   5.803
 4995POPC   GL265462  31.028  30.072   5.833
 4995POPC   C1A65463  30.669  29.653   6.218
 4995POPC   D2A65464  30.660  29.830   6.635
 4995POPC   C3A65465  30.645  29.681   7.053
 4995POPC   C4A65466  30.281  29.810   7.281
 4995POPC   C1B65467  30.990  30.051   6.282
 4995POPC   C2B65468  30.943  30.254   6.675
 4995POPC   C3B65469  30.687  30.188   7.035
 4995POPC   C4B65470  30.650  30.149   7.465
 4996POPC   NC365471  22.774  11.536   5.346
 4996POPC   PO465472  23.369  11.148   5.630
 4996POPC   GL165473  23.087  11.304   5.915
 4996POPC   GL265474  22.794  11.137   5.803
 4996POPC   C1A65475  23.122  11.119   6.338
 4996POPC   D2A65476  23.220  11.315   6.754
 4996POPC   C3A65477  23.095  11.134   7.144
 4996POPC   C4A65478  23.150  10.863   7.489
 4996POPC   C1B65479  22.638  11.257   6.196
 4996POPC   C2B65480  22.712  11.209   6.621
 4996POPC   C3B65481  22.658  10.947   6.942
 4996POPC   C4B65482  22.600  11.196   7.292
 4997POPC   NC365483  30.151  16.065   5.396
 4997POPC   PO465484  29.478  16.164   5.498
 4997POPC   GL165485  29.663  15.926   5.864
 4997POPC   GL265486  30.023  15.962   5.872
 4997POPC   C1A65487  29.798  15.755   6.272
 4997POPC   D2A65488  30.003  15.952   6.609
 4997POPC   C3A65489  29.840  15.802   7.032
 4997POPC   C4A65490  29.750  15.824   7.491
 4997POPC   C1B65491  30.325  15.747   6.100
 4997POPC   C2B65492  30.487  15.785   6.513
 4997POPC   C3B65493  30.358  15.797   6.946
 4997POPC   C4B65494  30.223  15.916   7.350
 4998POPC   NC365495  37.102   8.158   5.425
 4998POPC   PO465496  36.607   7.934   5.473
 4998POPC   GL165497  36.852   8.176   5.869
 4998POPC   GL265498  37.164   8.432   5.889
 4998POPC   C1A65499  36.996   8.152   6.323
 4998POPC   D2A65500  36.905   8.014   6.766
 4998POPC   C3A65501  36.922   8.189   7.206
 4998POPC   C4A65502  36.644   8.138   7.568
 4998POPC   C1B65503  37.162   8.624   6.361
 4998POPC   C2B65504  37.010   8.552   6.819
 4998POPC   C3B65505  37.067   8.672   7.271
 4998POPC   C4B65506  37.356   8.542   7.594
 4999POPC   NC365507  20.738  44.677   5.081
 4999POPC   PO465508  21.342  44.768   5.366
 4999POPC   GL165509  21.353  44.610   5.800
 4999POPC   GL265510  21.088  44.400   5.856
 4999POPC   C1A65511  21.571  44.696   6.208
 4999POPC   D2A65512  21.711  44.486   6.593
 4999POPC   C3A65513  21.513  44.637   6.970
 4999POPC   C4A65514  21.617  44.880   7.320
 4999POPC   C1B65515  21.064  44.664   6.251
 4999POPC   C2B65516  21.152  44.850   6.638
 4999POPC   C3B65517  21.020  44.722   7.043
 4999POPC   C4B65518  21.194  44.595   7.430
 5000POPC   NC365519  24.371  20.906   5.346
 5000POPC   PO465520  24.822  20.519   5.366
 5000POPC   GL165521  24.462  20.560   5.700
 5000POPC   GL265522  24.249  20.295   5.778
 5000POPC   C1A65523  24.441  20.782   6.129
 5000POPC   D2A65524  24.800  20.700   6.463
 5000POPC   C3A65525  24.719  20.480   6.861
 5000POPC   C4A65526  24.479  20.565   7.218
 5000POPC   C1B65527  24.517  20.287   6.164
 5000POPC   C2B65528  24.313  20.430   6.558
 5000POPC   C3B65529  24.144  20.275   6.979
 5000POPC   C4B65530  24.048  20.408   7.450
 5001POPC   NC365531  41.700  10.962   5.431
 5001POPC   PO465532  41.725  11.597   5.432
 5001POPC   GL165533  41.500  11.384   5.790
 5001POPC   GL265534  41.355  11.054   5.836
 5001POPC   C1A65535  41.392  11.423   6.242
 5001POPC   D2A65536  41.208  11.503   6.659
 5001POPC   C3A65537  41.519  11.513   6.995
 5001POPC   C4A65538  41.644  11.350   7.431
 5001POPC   C1B65539  41.450  10.864   6.253
 5001POPC   C2B65540  41.585  11.080   6.630
 5001POPC   C3B65541  41.771  11.059   7.024
 5001POPC   C4B65542  41.469  10.892   7.275
 5002POPC   NC365543  38.824   3.951   5.676
 5002POPC   PO465544  39.333   3.708   5.246
 5002POPC   GL165545  39.241   3.598   5.720
 5002POPC   GL265546  39.509   3.705   5.919
 5002POPC   C1A65547  39.214   3.304   6.133
 5002POPC   D2A65548  39.005   3.095   6.487
 5002POPC   C3A65549  39.157   3.318   6.846
 5002POPC   C4A65550  39.365   3.532   7.195
 5002POPC   C1B65551  39.187   3.818   6.215
 5002POPC   C2B65552  39.002   3.904   6.598
 5002POPC   C3B65553  39.063   4.126   6.939
 5002POPC   C4B65554  39.095   3.939   7.320
 5003POPC   NC365555   0.331  32.966   5.594
 5003POPC   PO465556   0.803  32.557   5.459
 5003POPC   GL165557   0.594  32.592   5.879
 5003POPC   GL265558   0.243  32.545   5.884
 5003POPC   C1A65559   0.620  32.848   6.261
 5003POPC   D2A65560   0.924  32.861   6.611
 5003POPC   C3A65561   0.734  33.053   6.988
 5003POPC   C4A65562   0.624  32.912   7.409
 5003POPC   C1B65563   0.115  32.745   6.276
 5003POPC   C2B65564   0.258  32.861   6.691
 5003POPC   C3B65565   0.214  32.854   7.119
 5003POPC   C4B65566   0.136  33.070   7.481
 5004POPC   NC365567   6.778  14.768   5.179
 5004POPC   PO465568   6.351  15.184   5.617
 5004POPC   GL165569   6.381  15.373   5.985
 5004POPC   GL265570   6.733  15.253   6.013
 5004POPC   C1A65571   6.356  15.430   6.442
 5004POPC   D2A65572   6.734  15.402   6.694
 5004POPC   C3A65573   6.651  15.242   7.081
 5004POPC   C4A65574   6.918  14.931   7.146
 5004POPC   C1B65575   6.574  14.983   6.312
 5004POPC   C2B65576   6.441  14.959   6.714
 5004POPC   C3B65577   6.439  14.761   7.095
 5004POPC   C4B65578   6.542  14.829   7.520
 5005POPC   NC365579  36.619  22.802   5.430
 5005POPC   PO465580  36.956  23.367   5.293
 5005POPC   GL165581  36.840  23.168   5.726
 5005POPC   GL265582  37.010  22.861   5.792
 5005POPC   C1A65583  36.659  22.974   6.140
 5005POPC   D2A65584  36.554  22.857   6.593
 5005POPC   C3A65585  36.841  23.006   6.958
 5005POPC   C4A65586  36.721  23.196   7.374
 5005POPC   C1B65587  37.174  22.636   6.156
 5005POPC   C2B65588  37.029  22.674   6.590
 5005POPC   C3B65589  37.148  22.536   6.999
 5005POPC   C4B65590  37.224  22.756   7.330
 5006POPC   NC365591   1.451   8.669   5.290
 5006POPC   PO465592   1.041   9.084   5.077
 5006POPC   GL165593   0.871   8.921   5.573
 5006POPC   GL265594   1.197   8.816   5.740
 5006POPC   C1A65595   0.890   9.018   6.085
 5006POPC   D2A65596   1.107   9.295   6.428
 5006POPC   C3A65597   1.073   9.196   6.856
 5006POPC   C4A65598   1.112   9.248   7.285
 5006POPC   C1B65599   1.243   8.657   6.169
 5006POPC   C2B65600   1.098   8.801   6.554
 5006POPC   C3B65601   1.324   8.774   6.970
 5006POPC   C4B65602   1.577   9.018   7.264
 5007POPC   NC365603  33.519  36.349   5.284
 5007POPC   PO465604  34.088  35.901   5.384
 5007POPC   GL165605  33.896  35.971   5.776
 5007POPC   GL265606  33.841  36.323   5.782
 5007POPC   C1A65607  33.656  35.962   6.156
 5007POPC   D2A65608  33.544  36.133   6.563
 5007POPC   C3A65609  33.628  35.945   6.947
 5007POPC   C4A65610  34.002  35.841   7.169
 5007POPC   C1B65611  33.696  36.469   6.187
 5007POPC   C2B65612  33.844  36.539   6.614
 5007POPC   C3B65613  33.629  36.493   7.024
 5007POPC   C4B65614  33.682  36.218   7.357
 5008POPC   NC365615  24.691  25.848   5.183
 5008POPC   PO465616  24.151  26.112   5.416
 5008POPC   GL165617  24.487  25.989   5.681
 5008POPC   GL265618  24.678  26.271   5.616
 5008POPC   C1A65619  24.643  25.911   6.114
 5008POPC   D2A65620  24.452  25.949   6.533
 5008POPC   C3A65621  24.600  25.790   6.939
 5008POPC   C4A65622  24.499  25.973   7.326
 5008POPC   C1B65623  24.517  26.401   6.032
 5008POPC   C2B65624  24.465  26.459   6.503
 5008POPC   C3B65625  24.543  26.331   6.947
 5008POPC   C4B65626  24.613  26.524   7.367
 5009POPC   NC365627   1.534  24.649   5.463
 5009POPC   PO465628   0.796  24.574   5.333
 5009POPC   GL165629   1.102  24.458   5.714
 5009POPC   GL265630   1.289  24.731   5.891
 5009POPC   C1A65631   1.101  24.325   6.176
 5009POPC   D2A65632   1.125  24.506   6.617
 5009POPC   C3A65633   1.199  24.304   7.014
 5009POPC   C4A65634   1.315  24.083   7.405
 5009POPC   C1B65635   1.117  24.855   6.238
 5009POPC   C2B65636   1.180  25.071   6.601
 5009POPC   C3B65637   1.396  24.885   6.889
 5009POPC   C4B65638   1.329  24.743   7.251
 5010POPC   NC365639   4.174  28.019   5.554
 5010POPC   PO465640   4.543  27.539   5.167
 5010POPC   GL165641   4.375  27.523   5.622
 5010POPC   GL265642   4.026  27.421   5.636
 5010POPC   C1A65643   4.528  27.459   6.077
 5010POPC   D2A65644   4.440  27.643   6.499
 5010POPC   C3A65645   4.445  27.388   6.868
 5010POPC   C4A65646   4.483  27.631   7.231
 5010POPC   C1B65647   4.025  27.414   6.106
 5010POPC   C2B65648   3.983  27.416   6.573
 5010POPC   C3B65649   4.038  27.686   6.941
 5010POPC   C4B65650   3.744  27.765   7.235
 5011POPC   NC365651   8.520  40.629   5.656
 5011POPC   PO465652   8.086  41.209   5.510
 5011POPC   GL165653   8.217  40.966   5.874
 5011POPC   GL265654   8.037  40.639   5.855
 5011POPC   C1A65655   8.451  41.041   6.286
 5011POPC   D2A65656   8.560  41.270   6.692
 5011POPC   C3A65657   8.336  41.090   7.060
 5011POPC   C4A65658   8.063  40.719   7.104
 5011POPC   C1B65659   8.207  40.464   6.237
 5011POPC   C2B65660   8.250  40.469   6.668
 5011POPC   C3B65661   8.392  40.284   7.025
 5011POPC   C4B65662   8.279  40.407   7.455
 5012POPC   NC365663  29.905  11.459   5.418
 5012POPC   PO465664  29.442  11.134   5.654
 5012POPC   GL165665  29.817  11.346   5.935
 5012POPC   GL265666  29.958  11.706   5.862
 5012POPC   C1A65667  29.927  11.395   6.389
 5012POPC   D2A65668  29.686  11.160   6.707
 5012POPC   C3A65669  29.815  11.049   7.110
 5012POPC   C4A65670  29.820  11.108   7.530
 5012POPC   C1B65671  30.251  11.772   6.183
 5012POPC   C2B65672  30.392  11.583   6.574
 5012POPC   C3B65673  30.177  11.349   6.888
 5012POPC   C4B65674  30.003  11.491   7.267
 5013POPC   NC365675  29.433  15.690   5.480
 5013POPC   PO465676  29.131  15.054   5.493
 5013POPC   GL165677  29.195  15.333   5.797
 5013POPC   GL265678  29.523  15.206   5.796
 5013POPC   C1A65679  29.288  15.530   6.186
 5013POPC   D2A65680  29.084  15.682   6.576
 5013POPC   C3A65681  29.317  15.523   6.909
 5013POPC   C4A65682  29.151  15.279   7.188
 5013POPC   C1B65683  29.464  14.843   6.063
 5013POPC   C2B65684  29.416  14.758   6.492
 5013POPC   C3B65685  29.178  14.902   6.826
 5013POPC   C4B65686  29.341  14.812   7.207
 5014POPC   NC365687  29.443  22.570   5.467
 5014POPC   PO465688  29.245  23.219   5.383
 5014POPC   GL165689  29.386  23.026   5.724
 5014POPC   GL265690  29.757  23.160   5.721
 5014POPC   C1A65691  29.145  22.854   6.095
 5014POPC   D2A65692  28.963  23.000   6.491
 5014POPC   C3A65693  29.157  22.811   6.863
 5014POPC   C4A65694  29.026  22.700   7.260
 5014POPC   C1B65695  29.662  22.945   6.123
 5014POPC   C2B65696  29.508  22.762   6.493
 5014POPC   C3B65697  29.658  22.888   6.909
 5014POPC   C4B65698  29.438  23.041   7.240
 5015POPC   NC365699  16.149   1.834   5.110
 5015POPC   PO465700  15.737   1.604   5.625
 5015POPC   GL165701  15.982   1.781   5.904
 5015POPC   GL265702  16.175   2.004   5.664
 5015POPC   C1A65703  15.948   1.782   6.354
 5015POPC   D2A65704  15.968   1.765   6.797
 5015POPC   C3A65705  15.780   2.071   7.048
 5015POPC   C4A65706  15.987   1.978   7.410
 5015POPC   C1B65707  16.294   2.119   6.104
 5015POPC   C2B65708  16.318   2.117   6.569
 5015POPC   C3B65709  16.316   2.116   7.042
 5015POPC   C4B65710  16.402   2.241   7.504
 5016POPC   NC365711  30.452  41.166   5.125
 5016POPC   PO465712  30.965  41.534   5.414
 5016POPC   GL165713  30.885  41.635   5.838
 5016POPC   GL265714  30.532  41.802   5.805
 5016POPC   C1A65715  31.036  41.428   6.218
 5016POPC   D2A65716  30.832  41.190   6.520
 5016POPC   C3A65717  30.927  41.289   6.913
 5016POPC   C4A65718  30.873  41.553   7.195
 5016POPC   C1B65719  30.501  41.536   6.202
 5016POPC   C2B65720  30.509  41.569   6.658
 5016POPC   C3B65721  30.548  41.878   7.013
 5016POPC   C4B65722  30.466  42.131   7.388
 5017POPC   NC365723  44.732  41.651   5.587
 5017POPC   PO465724  44.340  41.183   5.232
 5017POPC   GL165725  44.279  41.429   5.715
 5017POPC   GL265726  44.139  41.250   5.982
 5017POPC   C1A65727  44.423  41.618   6.191
 5017POPC   D2A65728  44.798  41.653   6.455
 5017POPC   C3A65729  44.802  41.645   6.899
 5017POPC   C4A65730  44.870  41.351   7.241
 5017POPC   C1B65731  44.235  41.197   6.417
 5017POPC   C2B65732  44.306  41.489   6.736
 5017POPC   C3B65733  44.395  41.497   7.157
 5017POPC   C4B65734  44.250  41.718   7.523
 5018POPC   NC365735  33.969   3.929   5.635
 5018POPC   PO465736  33.545   4.366   5.302
 5018POPC   GL165737  33.612   4.259   5.761
 5018POPC   GL265738  33.953   4.404   5.846
 5018POPC   C1A65739  33.484   4.086   6.196
 5018POPC   D2A65740  33.519   4.080   6.688
 5018POPC   C3A65741  33.567   4.366   7.024
 5018POPC   C4A65742  33.584   4.236   7.460
 5018POPC   C1B65743  33.955   4.250   6.282
 5018POPC   C2B65744  33.999   3.908   6.605
 5018POPC   C3B65745  33.976   4.031   7.041
 5018POPC   C4B65746  34.044   4.452   7.220
 5019POPC   NC365747  32.468  18.205   5.217
 5019POPC   PO465748  32.022  17.907   5.475
 5019POPC   GL165749  32.266  17.998   5.801
 5019POPC   GL265750  32.290  18.341   5.780
 5019POPC   C1A65751  32.245  17.993   6.231
 5019POPC   D2A65752  32.322  18.209   6.576
 5019POPC   C3A65753  32.458  18.132   6.978
 5019POPC   C4A65754  32.334  18.026   7.360
 5019POPC   C1B65755  32.379  18.524   6.181
 5019POPC   C2B65756  32.522  18.652   6.629
 5019POPC   C3B65757  32.180  18.595   6.877
 5019POPC   C4B65758  32.151  18.586   7.291
 5020POPC   NC365759   0.206  38.206   5.454
 5020POPC   PO465760  44.641  37.935   5.273
 5020POPC   GL165761  44.741  37.955   5.736
 5020POPC   GL265762   0.049  37.931   5.859
 5020POPC   C1A65763  44.680  37.885   6.215
 5020POPC   D2A65764  44.576  37.811   6.669
 5020POPC   C3A65765  44.729  37.448   6.939
 5020POPC   C4A65766  44.579  37.513   7.339
 5020POPC   C1B65767   0.183  37.849   6.271
 5020POPC   C2B65768   0.083  37.726   6.674
 5020POPC   C3B65769  44.911  37.902   7.054
 5020POPC   C4B65770  44.930  37.872   7.485
 5021POPC   NC365771  29.083  16.412   5.471
 5021POPC   PO465772  28.955  15.740   5.426
 5021POPC   GL165773  29.107  15.861   5.833
 5021POPC   GL265774  29.193  16.199   5.909
 5021POPC   C1A65775  28.865  15.941   6.198
 5021POPC   D2A65776  28.686  16.097   6.582
 5021POPC   C3A65777  28.873  15.976   6.962
 5021POPC   C4A65778  28.808  15.646   7.217
 5021POPC   C1B65779  29.361  16.039   6.277
 5021POPC   C2B65780  29.491  15.985   6.701
 5021POPC   C3B65781  29.364  15.983   7.124
 5021POPC   C4B65782  29.175  16.315   7.281
 5022POPC   NC365783  36.929  34.155   5.480
 5022POPC   PO465784  36.684  33.511   5.495
 5022POPC   GL165785  36.819  33.808   5.840
 5022POPC   GL265786  37.137  33.883   5.884
 5022POPC   C1A65787  36.891  33.852   6.311
 5022POPC   D2A65788  37.238  33.952   6.589
 5022POPC   C3A65789  37.036  34.038   6.952
 5022POPC   C4A65790  36.635  33.952   7.140
 5022POPC   C1B65791  37.037  33.419   6.053
 5022POPC   C2B65792  37.062  33.288   6.474
 5022POPC   C3B65793  37.216  33.487   6.838
 5022POPC   C4B65794  37.095  33.633   7.246
 5023POPC   NC365795  11.670  25.835   5.487
 5023POPC   PO465796  12.031  26.418   5.452
 5023POPC   GL165797  11.973  26.075   5.822
 5023POPC   GL265798  12.235  25.870   6.041
 5023POPC   C1A65799  11.738  25.877   6.176
 5023POPC   D2A65800  11.957  25.794   6.583
 5023POPC   C3A65801  11.690  25.751   6.959
 5023POPC   C4A65802  11.808  25.852   7.379
 5023POPC   C1B65803  12.097  26.224   6.323
 5023POPC   C2B65804  12.125  26.271   6.768
 5023POPC   C3B65805  12.183  25.909   7.037
 5023POPC   C4B65806  12.545  25.634   7.032
 5024POPC   NC365807  10.409  40.045   5.436
 5024POPC   PO465808  11.090  39.942   5.439
 5024POPC   GL165809  10.814  40.102   5.777
 5024POPC   GL265810  10.844  40.452   5.933
 5024POPC   C1A65811  10.622  39.992   6.158
 5024POPC   D2A65812  10.543  39.752   6.513
 5024POPC   C3A65813  10.732  39.817   6.903
 5024POPC   C4A65814  10.518  39.824   7.264
 5024POPC   C1B65815  10.439  40.475   6.162
 5024POPC   C2B65816  10.340  40.246   6.543
 5024POPC   C3B65817  10.519  40.279   6.947
 5024POPC   C4B65818  10.337  40.286   7.339
 5025POPC   NC365819   7.765  31.293   5.327
 5025POPC   PO465820   7.194  31.150   5.443
 5025POPC   GL165821   7.423  31.459   5.709
 5025POPC   GL265822   7.628  31.252   5.902
 5025POPC   C1A65823   7.703  31.716   6.041
 5025POPC   D2A65824   7.831  31.458   6.421
 5025POPC   C3A65825   7.531  31.533   6.759
 5025POPC   C4A65826   7.439  31.775   7.133
 5025POPC   C1B65827   7.304  31.444   6.215
 5025POPC   C2B65828   7.059  31.353   6.598
 5025POPC   C3B65829   7.132  31.344   7.047
 5025POPC   C4B65830   7.506  31.173   7.209
 5026POPC   NC365831   0.810  23.119   5.344
 5026POPC   PO465832   0.191  22.805   5.415
 5026POPC   GL165833   0.470  22.924   5.718
 5026POPC   GL265834   0.233  23.033   5.930
 5026POPC   C1A65835   0.709  22.961   6.122
 5026POPC   D2A65836   0.674  22.773   6.548
 5026POPC   C3A65837   0.687  23.013   6.965
 5026POPC   C4A65838   0.581  22.846   7.357
 5026POPC   C1B65839   0.252  22.995   6.378
 5026POPC   C2B65840  44.982  23.229   6.628
 5026POPC   C3B65841  44.998  23.438   7.018
 5026POPC   C4B65842   0.242  23.241   7.324
 5027POPC   NC365843  32.627  42.035   5.544
 5027POPC   PO465844  32.155  42.486   5.365
 5027POPC   GL165845  32.151  42.393   5.787
 5027POPC   GL265846  32.467  42.536   5.804
 5027POPC   C1A65847  32.068  42.515   6.226
 5027POPC   D2A65848  32.133  42.724   6.625
 5027POPC   C3A65849  32.078  42.441   6.992
 5027POPC   C4A65850  32.283  42.107   7.244
 5027POPC   C1B65851  32.541  42.363   6.192
 5027POPC   C2B65852  32.649  42.563   6.563
 5027POPC   C3B65853  32.586  42.348   6.887
 5027POPC   C4B65854  32.552  42.539   7.263
 5028POPC   NC365855  43.266  14.704   5.044
 5028POPC   PO465856  43.268  14.314   5.426
 5028POPC   GL165857  43.190  14.146   5.851
 5028POPC   GL265858  43.017  13.874   5.794
 5028POPC   C1A65859  43.277  14.067   6.318
 5028POPC   D2A65860  43.144  14.363   6.666
 5028POPC   C3A65861  43.242  14.357   7.133
 5028POPC   C4A65862  43.169  14.628   7.512
 5028POPC   C1B65863  42.811  13.899   6.200
 5028POPC   C2B65864  42.900  13.897   6.650
 5028POPC   C3B65865  42.799  14.113   7.044
 5028POPC   C4B65866  42.881  14.207   7.485
 5029POPC   NC365867  30.416  44.081   5.608
 5029POPC   PO465868  30.741  43.596   5.298
 5029POPC   GL165869  30.823  43.805   5.683
 5029POPC   GL265870  30.507  43.595   5.779
 5029POPC   C1A65871  30.922  44.125   6.073
 5029POPC   D2A65872  31.031  44.284   6.522
 5029POPC   C3A65873  30.764  44.200   6.921
 5029POPC   C4A65874  30.568  44.243   7.348
 5029POPC   C1B65875  30.758  43.650   6.151
 5029POPC   C2B65876  30.737  43.850   6.538
 5029POPC   C3B65877  30.630  43.715   6.966
 5029POPC   C4B65878  30.338  43.801   7.262
 5030POPC   NC365879   0.513  11.267   5.281
 5030POPC   PO465880   0.606  10.770   5.774
 5030POPC   GL165881   0.595  11.243   5.783
 5030POPC   GL265882   0.249  11.442   5.703
 5030POPC   C1A65883   0.568  11.517   6.127
 5030POPC   D2A65884   0.453  11.466   6.577
 5030POPC   C3A65885   0.612  11.376   6.984
 5030POPC   C4A65886   0.657  11.036   7.236
 5030POPC   C1B65887   0.154  11.192   6.055
 5030POPC   C2B65888   0.266  10.951   6.420
 5030POPC   C3B65889   0.312  10.959   6.865
 5030POPC   C4B65890   0.185  11.208   7.225
 5031POPC   NC365891  24.801  33.770   5.296
 5031POPC   PO465892  25.382  33.911   5.294
 5031POPC   GL165893  25.247  33.924   5.742
 5031POPC   GL265894  25.247  33.577   5.843
 5031POPC   C1A65895  25.353  34.050   6.200
 5031POPC   D2A65896  25.176  34.170   6.614
 5031POPC   C3A65897  25.414  34.131   6.980
 5031POPC   C4A65898  25.228  34.188   7.358
 5031POPC   C1B65899  25.175  33.567   6.295
 5031POPC   C2B65900  25.321  33.678   6.727
 5031POPC   C3B65901  25.259  33.684   7.192
 5031POPC   C4B65902  25.179  33.431   7.574
 5032POPC   NC365903  10.511  26.713   5.102
 5032POPC   PO465904  10.466  27.161   5.703
 5032POPC   GL165905  10.572  26.767   5.781
 5032POPC   GL265906  10.303  26.587   5.791
 5032POPC   C1A65907  10.739  26.647   6.171
 5032POPC   D2A65908  10.567  26.758   6.555
 5032POPC   C3A65909  10.711  26.860   6.965
 5032POPC   C4A65910  10.434  26.945   7.311
 5032POPC   C1B65911  10.301  26.421   6.211
 5032POPC   C2B65912  10.376  26.286   6.633
 5032POPC   C3B65913  10.363  26.507   7.020
 5032POPC   C4B65914  10.585  26.468   7.431
 5033POPC   NC365915  22.771  20.470   5.644
 5033POPC   PO465916  23.091  20.773   5.229
 5033POPC   GL165917  23.115  20.840   5.736
 5033POPC   GL265918  22.812  20.950   5.875
 5033POPC   C1A65919  23.125  20.705   6.237
 5033POPC   D2A65920  22.931  20.579   6.686
 5033POPC   C3A65921  23.092  20.565   7.134
 5033POPC   C4A65922  23.257  20.700   7.534
 5033POPC   C1B65923  22.637  20.867   6.294
 5033POPC   C2B65924  22.680  21.029   6.715
 5033POPC   C3B65925  22.636  20.780   7.099
 5033POPC   C4B65926  22.613  20.329   7.162
 5034POPC   NC365927  30.072  34.226   5.317
 5034POPC   PO465928  29.603  34.648   5.407
 5034POPC   GL165929  29.831  34.615   5.794
 5034POPC   GL265930  30.191  34.575   5.759
 5034POPC   C1A65931  29.966  34.747   6.220
 5034POPC   D2A65932  29.811  34.927   6.594
 5034POPC   C3A65933  29.957  34.705   6.925
 5034POPC   C4A65934  29.746  34.581   7.241
 5034POPC   C1B65935  30.354  34.358   6.156
 5034POPC   C2B65936  30.270  34.475   6.581
 5034POPC   C3B65937  30.395  34.322   6.988
 5034POPC   C4B65938  30.236  34.507   7.346
 5035POPC   NC365939   9.904   9.739   5.247
 5035POPC   PO465940  10.611   9.818   5.392
 5035POPC   GL165941  10.513   9.720   5.803
 5035POPC   GL265942  10.831   9.614   5.899
 5035POPC   C1A65943  10.299   9.948   6.109
 5035POPC   D2A65944  10.410   9.976   6.527
 5035POPC   C3A65945  10.222   9.932   6.912
 5035POPC   C4A65946  10.375   9.674   7.263
 5035POPC   C1B65947  10.658   9.570   6.298
 5035POPC   C2B65948  10.757   9.570   6.728
 5035POPC   C3B65949  10.676   9.314   7.094
 5035POPC   C4B65950  10.802   9.433   7.525
 5036POPC   NC365951  14.600  44.089   5.223
 5036POPC   PO465952  14.209  43.625   5.129
 5036POPC   GL165953  14.345  43.772   5.574
 5036POPC   GL265954  14.080  43.891   5.792
 5036POPC   C1A65955  14.558  43.802   6.040
 5036POPC   D2A65956  14.803  43.651   6.460
 5036POPC   C3A65957  14.639  43.729   6.898
 5036POPC   C4A65958  14.451  43.874   7.306
 5036POPC   C1B65959  14.052  43.736   6.195
 5036POPC   C2B65960  14.309  43.850   6.513
 5036POPC   C3B65961  14.231  44.046   6.879
 5036POPC   C4B65962  13.881  44.065   7.132
 5037POPC   NC365963   2.874  37.040   5.120
 5037POPC   PO465964   2.842  37.663   5.426
 5037POPC   GL165965   2.629  37.583   5.810
 5037POPC   GL265966   2.933  37.736   5.945
 5037POPC   C1A65967   2.674  37.442   6.258
 5037POPC   D2A65968   2.870  37.677   6.571
 5037POPC   C3A65969   2.769  37.620   6.984
 5037POPC   C4A65970   2.555  37.459   7.320
 5037POPC   C1B65971   3.239  37.875   6.262
 5037POPC   C2B65972   3.181  38.058   6.695
 5037POPC   C3B65973   3.180  37.903   7.127
 5037POPC   C4B65974   2.892  37.862   7.490
 5038POPC   NC365975  24.904  36.159   5.352
 5038POPC   PO465976  24.341  35.815   5.354
 5038POPC   GL165977  24.582  35.954   5.747
 5038POPC   GL265978  24.763  36.277   5.817
 5038POPC   C1A65979  24.563  35.947   6.200
 5038POPC   D2A65980  24.366  36.127   6.562
 5038POPC   C3A65981  24.495  35.951   6.967
 5038POPC   C4A65982  24.797  36.036   7.215
 5038POPC   C1B65983  24.599  36.462   6.189
 5038POPC   C2B65984  24.584  36.571   6.610
 5038POPC   C3B65985  24.491  36.467   7.035
 5038POPC   C4B65986  24.684  36.495   7.457
 5039POPC   NC365987  41.113  31.539   5.514
 5039POPC   PO465988  40.666  31.927   5.418
 5039POPC   GL165989  40.707  31.690   5.858
 5039POPC   GL265990  40.945  31.424   5.972
 5039POPC   C1A65991  40.641  31.632   6.332
 5039POPC   D2A65992  40.945  31.451   6.641
 5039POPC   C3A65993  40.953  31.637   7.050
 5039POPC   C4A65994  40.539  31.699   7.252
 5039POPC   C1B65995  40.727  31.145   6.251
 5039POPC   C2B65996  40.675  31.018   6.678
 5039POPC   C3B65997  40.629  31.240   7.035
 5039POPC   C4B65998  40.850  31.309   7.428
 5040POPC   NC365999  15.199  13.117   5.170
 5040POPC   PO466000  14.900  12.743   5.672
 5040POPC   GL166001  15.054  13.050   5.894
 5040POPC   GL266002  15.340  13.064   5.683
 5040POPC   C1A66003  15.049  13.051   6.333
 5040POPC   D2A66004  14.993  13.125   6.743
 5040POPC   C3A66005  14.849  12.751   6.955
 5040POPC   C4A66006  14.962  12.728   7.366
 5040POPC   C1B66007  15.491  12.866   6.103
 5040POPC   C2B66008  15.517  12.965   6.568
 5040POPC   C3B66009  15.397  12.846   6.996
 5040POPC   C4B66010  15.369  13.001   7.456
 5041POPC   NC366011  22.235   2.765   5.362
 5041POPC   PO466012  22.254   3.316   5.374
 5041POPC   GL166013  22.148   3.081   5.794
 5041POPC   GL266014  21.913   2.776   5.824
 5041POPC   C1A66015  22.287   2.852   6.201
 5041POPC   D2A66016  22.522   2.996   6.599
 5041POPC   C3A66017  22.447   2.796   7.002
 5041POPC   C4A66018  22.127   2.947   7.260
 5041POPC   C1B66019  21.660   2.539   6.181
 5041POPC   C2B66020  21.721   2.447   6.635
 5041POPC   C3B66021  22.123   2.414   6.872
 5041POPC   C4B66022  22.240   2.396   7.312
 5042POPC   NC366023  31.824  17.507   5.563
 5042POPC   PO466024  31.331  17.796   5.398
 5042POPC   GL166025  31.322  17.595   5.769
 5042POPC   GL266026  30.962  17.593   5.782
 5042POPC   C1A66027  31.372  17.762   6.168
 5042POPC   D2A66028  31.632  17.803   6.533
 5042POPC   C3A66029  31.568  17.627   6.921
 5042POPC   C4A66030  31.647  17.827   7.277
 5042POPC   C1B66031  30.974  17.420   6.206
 5042POPC   C2B66032  31.119  17.643   6.594
 5042POPC   C3B66033  31.056  17.724   7.022
 5042POPC   C4B66034  30.958  17.340   7.272
 5043POPC   NC366035   0.346  25.672   5.587
 5043POPC   PO466036   0.809  26.075   5.369
 5043POPC   GL166037   0.702  25.986   5.834
 5043POPC   GL266038   0.349  26.095   5.885
 5043POPC   C1A66039   0.521  25.721   6.218
 5043POPC   D2A66040   0.311  25.634   6.642
 5043POPC   C3A66041   0.534  25.752   7.041
 5043POPC   C4A66042   0.738  26.138   7.182
 5043POPC   C1B66043   0.269  26.144   6.348
 5043POPC   C2B66044   0.314  26.148   6.810
 5043POPC   C3B66045   0.199  26.104   7.258
 5043POPC   C4B66046   0.060  26.060   7.712
 5044POPC   NC366047  37.129  37.749   5.419
 5044POPC   PO466048  36.665  38.191   5.319
 5044POPC   GL166049  36.798  38.017   5.713
 5044POPC   GL266050  37.162  38.060   5.796
 5044POPC   C1A66051  36.606  37.867   6.115
 5044POPC   D2A66052  36.707  37.629   6.501
 5044POPC   C3A66053  36.725  37.853   6.908
 5044POPC   C4A66054  36.695  37.641   7.301
 5044POPC   C1B66055  37.110  37.783   6.170
 5044POPC   C2B66056  37.186  37.773   6.640
 5044POPC   C3B66057  37.131  37.576   7.038
 5044POPC   C4B66058  37.179  37.612   7.484
 5045POPC   NC366059  28.535  18.608   5.494
 5045POPC   PO466060  28.278  17.958   5.414
 5045POPC   GL166061  28.530  18.067   5.758
 5045POPC   GL266062  28.304  18.331   5.861
 5045POPC   C1A66063  28.502  17.927   6.181
 5045POPC   D2A66064  28.361  18.058   6.592
 5045POPC   C3A66065  28.038  18.233   6.841
 5045POPC   C4A66066  28.080  18.227   7.290
 5045POPC   C1B66067  28.615  18.446   6.151
 5045POPC   C2B66068  28.563  18.551   6.560
 5045POPC   C3B66069  28.565  18.378   6.953
 5045POPC   C4B66070  28.561  18.547   7.338
 5046POPC   NC366071  16.694  34.318   5.385
 5046POPC   PO466072  17.003  33.826   5.126
 5046POPC   GL166073  16.755  33.888   5.632
 5046POPC   GL266074  16.925  34.186   5.817
 5046POPC   C1A66075  16.751  33.915   6.181
 5046POPC   D2A66076  16.717  34.176   6.567
 5046POPC   C3A66077  16.933  34.026   6.957
 5046POPC   C4A66078  16.709  33.882   7.335
 5046POPC   C1B66079  17.184  34.174   6.209
 5046POPC   C2B66080  17.182  33.836   6.515
 5046POPC   C3B66081  17.156  33.566   6.878
 5046POPC   C4B66082  17.146  33.679   7.322
 5047POPC   NC366083  20.697  15.195   5.540
 5047POPC   PO466084  20.196  14.685   5.510
 5047POPC   GL166085  20.420  14.906   5.865
 5047POPC   GL266086  20.794  14.853   5.917
 5047POPC   C1A66087  20.421  15.158   6.252
 5047POPC   D2A66088  20.488  15.000   6.673
 5047POPC   C3A66089  20.454  15.203   7.070
 5047POPC   C4A66090  20.559  14.873   7.394
 5047POPC   C1B66091  20.924  15.200   6.186
 5047POPC   C2B66092  20.913  15.362   6.610
 5047POPC   C3B66093  20.946  15.209   7.043
 5047POPC   C4B66094  20.823  15.281   7.478
 5048POPC   NC366095  10.986  16.162   5.448
 5048POPC   PO466096  10.318  15.969   5.504
 5048POPC   GL166097  10.664  15.967   5.830
 5048POPC   GL266098  10.876  16.294   5.924
 5048POPC   C1A66099  10.521  15.881   6.260
 5048POPC   D2A66100  10.434  16.073   6.680
 5048POPC   C3A66101  10.570  15.842   7.090
 5048POPC   C4A66102  10.406  16.062   7.478
 5048POPC   C1B66103  11.010  16.039   6.244
 5048POPC   C2B66104  10.894  15.896   6.617
 5048POPC   C3B66105  10.924  16.172   6.951
 5048POPC   C4B66106  10.935  16.094   7.398
 5049POPC   NC366107   1.515  21.091   5.436
 5049POPC   PO466108   0.895  21.491   5.457
 5049POPC   GL166109   1.289  21.509   5.663
 5049POPC   GL266110   1.191  21.193   5.798
 5049POPC   C1A66111   1.473  21.538   6.083
 5049POPC   D2A66112   1.265  21.454   6.486
 5049POPC   C3A66113   1.438  21.447   6.865
 5049POPC   C4A66114   1.232  21.425   7.239
 5049POPC   C1B66115   0.959  21.274   6.120
 5049POPC   C2B66116   0.805  21.200   6.514
 5049POPC   C3B66117   0.921  21.211   6.908
 5049POPC   C4B66118   0.933  20.989   7.305
 5050POPC   NC366119  20.080  38.007   5.530
 5050POPC   PO466120  19.888  37.396   5.432
 5050POPC   GL166121  19.935  37.587   5.852
 5050POPC   GL266122  19.653  37.780   5.903
 5050POPC   C1A66123  19.831  37.495   6.315
 5050POPC   D2A66124  19.589  37.257   6.625
 5050POPC   C3A66125  19.630  37.492   7.014
 5050POPC   C4A66126  20.001  37.700   7.191
 5050POPC   C1B66127  19.754  37.981   6.297
 5050POPC   C2B66128  19.889  37.898   6.711
 5050POPC   C3B66129  19.651  38.023   7.048
 5050POPC   C4B66130  19.490  37.871   7.395
 5051POPC   NC366131  30.740  22.332   5.280
 5051POPC   PO466132  31.242  21.833   5.227
 5051POPC   GL166133  31.109  21.940   5.709
 5051POPC   GL266134  30.819  22.148   5.770
 5051POPC   C1A66135  30.929  21.865   6.159
 5051POPC   D2A66136  30.899  21.917   6.591
 5051POPC   C3A66137  30.942  22.094   7.015
 5051POPC   C4A66138  30.706  22.162   7.399
 5051POPC   C1B66139  30.917  22.378   6.196
 5051POPC   C2B66140  30.745  22.412   6.646
 5051POPC   C3B66141  30.694  22.605   7.092
 5051POPC   C4B66142  30.682  22.640   7.587
 5052POPC   NC366143  11.122  18.689   5.476
 5052POPC   PO466144  11.377  18.090   5.433
 5052POPC   GL166145  11.409  18.373   5.760
 5052POPC   GL266146  11.732  18.259   5.870
 5052POPC   C1A66147  11.238  18.330   6.188
 5052POPC   D2A66148  11.285  18.124   6.583
 5052POPC   C3A66149  10.950  18.193   6.884
 5052POPC   C4A66150  11.158  18.372   7.223
 5052POPC   C1B66151  11.679  18.613   6.123
 5052POPC   C2B66152  11.641  18.568   6.545
 5052POPC   C3B66153  11.585  18.359   6.935
 5052POPC   C4B66154  11.855  18.266   7.237
 5053POPC   NC366155  23.105   4.520   5.381
 5053POPC   PO466156  22.602   4.127   5.515
 5053POPC   GL166157  22.814   4.418   5.833
 5053POPC   GL266158  23.182   4.486   5.873
 5053POPC   C1A66159  22.950   4.313   6.286
 5053POPC   D2A66160  22.755   4.367   6.694
 5053POPC   C3A66161  22.596   4.061   7.012
 5053POPC   C4A66162  22.732   3.880   7.408
 5053POPC   C1B66163  23.389   4.662   6.240
 5053POPC   C2B66164  23.231   4.702   6.659
 5053POPC   C3B66165  23.184   4.401   6.985
 5053POPC   C4B66166  23.357   4.209   7.348
 5054POPC   NC366167  19.330  34.665   5.315
 5054POPC   PO466168  18.619  34.497   5.237
 5054POPC   GL166169  18.817  34.664   5.660
 5054POPC   GL266170  19.175  34.615   5.795
 5054POPC   C1A66171  18.814  34.678   6.151
 5054POPC   D2A66172  18.715  34.825   6.611
 5054POPC   C3A66173  18.981  34.631   6.964
 5054POPC   C4A66174  18.872  34.453   7.358
 5054POPC   C1B66175  19.354  34.867   6.139
 5054POPC   C2B66176  19.252  34.845   6.585
 5054POPC   C3B66177  19.443  34.869   7.015
 5054POPC   C4B66178  19.369  34.655   7.401
 5055POPC   NC366179   3.028  20.439   5.268
 5055POPC   PO466180   2.367  20.426   5.190
 5055POPC   GL166181   2.525  20.552   5.714
 5055POPC   GL266182   2.876  20.478   5.779
 5055POPC   C1A66183   2.555  20.323   6.203
 5055POPC   D2A66184   2.525  20.130   6.691
 5055POPC   C3A66185   2.553  20.412   7.108
 5055POPC   C4A66186   2.608  20.659   7.525
 5055POPC   C1B66187   2.965  20.654   6.195
 5055POPC   C2B66188   2.883  20.497   6.600
 5055POPC   C3B66189   2.916  20.720   6.970
 5055POPC   C4B66190   2.766  21.058   7.235
 5056POPC   NC366191  29.792  33.492   5.088
 5056POPC   PO466192  30.142  33.044   5.457
 5056POPC   GL166193  30.016  32.888   5.901
 5056POPC   GL266194  29.789  33.136   6.101
 5056POPC   C1A66195  30.085  32.834   6.375
 5056POPC   D2A66196  29.931  33.098   6.712
 5056POPC   C3A66197  29.904  32.989   7.163
 5056POPC   C4A66198  29.886  32.667   7.500
 5056POPC   C1B66199  30.225  33.285   6.152
 5056POPC   C2B66200  30.412  33.301   6.537
 5056POPC   C3B66201  30.273  33.347   6.986
 5056POPC   C4B66202  30.325  33.173   7.410
 5057POPC   NC366203  12.566  34.663   5.452
 5057POPC   PO466204  13.058  34.202   5.395
 5057POPC   GL166205  12.858  34.422   5.792
 5057POPC   GL266206  12.818  34.820   5.862
 5057POPC   C1A66207  12.639  34.436   6.203
 5057POPC   D2A66208  12.641  34.166   6.561
 5057POPC   C3A66209  12.617  34.318   6.987
 5057POPC   C4A66210  12.826  34.324   7.400
 5057POPC   C1B66211  12.844  34.904   6.309
 5057POPC   C2B66212  12.742  34.703   6.675
 5057POPC   C3B66213  12.902  34.718   7.119
 5057POPC   C4B66214  12.809  34.794   7.602
 5058POPC   NC366215  31.841  20.941   5.695
 5058POPC   PO466216  32.348  20.651   5.374
 5058POPC   GL166217  32.350  20.480   5.782
 5058POPC   GL266218  32.115  20.228   5.907
 5058POPC   C1A66219  32.317  20.688   6.175
 5058POPC   D2A66220  32.040  20.826   6.510
 5058POPC   C3A66221  32.200  20.843   6.941
 5058POPC   C4A66222  31.910  20.837   7.245
 5058POPC   C1B66223  32.064  20.289   6.374
 5058POPC   C2B66224  32.418  20.486   6.643
 5058POPC   C3B66225  32.580  20.417   7.053
 5058POPC   C4B66226  32.285  20.485   7.349
 5059POPC   NC366227  31.325   2.140   5.372
 5059POPC   PO466228  31.653   1.668   5.085
 5059POPC   GL166229  31.598   1.801   5.644
 5059POPC   GL266230  31.371   2.058   5.857
 5059POPC   C1A66231  31.722   1.893   6.171
 5059POPC   D2A66232  31.670   2.025   6.658
 5059POPC   C3A66233  31.702   2.000   7.155
 5059POPC   C4A66234  31.912   2.082   7.581
 5059POPC   C1B66235  31.511   2.361   6.208
 5059POPC   C2B66236  31.309   2.407   6.631
 5059POPC   C3B66237  31.246   2.258   7.054
 5059POPC   C4B66238  31.109   2.469   7.435
 5060POPC   NC366239  21.384  35.766   5.378
 5060POPC   PO466240  21.246  36.437   5.280
 5060POPC   GL166241  21.386  36.280   5.701
 5060POPC   GL266242  21.568  35.953   5.812
 5060POPC   C1A66243  21.214  36.198   6.133
 5060POPC   D2A66244  21.119  35.962   6.525
 5060POPC   C3A66245  21.171  36.231   6.910
 5060POPC   C4A66246  21.577  36.395   7.102
 5060POPC   C1B66247  21.564  35.818   6.270
 5060POPC   C2B66248  21.607  36.031   6.704
 5060POPC   C3B66249  21.682  35.889   7.153
 5060POPC   C4B66250  21.748  35.981   7.633
 5061POPC   NC366251   1.967  42.029   5.311
 5061POPC   PO466252   1.874  41.346   5.374
 5061POPC   GL166253   2.059  41.604   5.688
 5061POPC   GL266254   1.773  41.812   5.767
 5061POPC   C1A66255   2.076  41.610   6.148
 5061POPC   D2A66256   1.873  41.743   6.559
 5061POPC   C3A66257   2.040  41.710   7.003
 5061POPC   C4A66258   1.818  41.780   7.400
 5061POPC   C1B66259   1.544  41.592   6.126
 5061POPC   C2B66260   1.515  41.346   6.500
 5061POPC   C3B66261   1.720  41.344   6.871
 5061POPC   C4B66262   1.882  41.255   7.278
 5062POPC   NC366263  31.238   0.394   5.405
 5062POPC   PO466264  31.778   0.633   5.084
 5062POPC   GL166265  31.676   0.330   5.596
 5062POPC   GL266266  31.420   0.442   5.893
 5062POPC   C1A66267  31.814   0.162   6.014
 5062POPC   D2A66268  31.634   0.333   6.423
 5062POPC   C3A66269  31.694   0.200   6.849
 5062POPC   C4A66270  31.522   0.380   7.245
 5062POPC   C1B66271  31.148   0.289   6.264
 5062POPC   C2B66272  31.184   0.188   6.749
 5062POPC   C3B66273  31.010   0.442   7.111
 5062POPC   C4B66274  31.072   0.630   7.526
 5063POPC   NC366275  21.480   0.770   5.520
 5063POPC   PO466276  20.904   0.603   5.586
 5063POPC   GL166277  21.178   0.457   5.903
 5063POPC   GL266278  21.333   0.103   5.925
 5063POPC   C1A66279  21.193   0.688   6.294
 5063POPC   D2A66280  21.134   0.779   6.743
 5063POPC   C3A66281  21.486   0.649   7.030
 5063POPC   C4A66282  21.690   0.380   7.348
 5063POPC   C1B66283  21.407   0.195   6.343
 5063POPC   C2B66284  21.546   0.163   6.777
 5063POPC   C3B66285  21.231   0.190   7.084
 5063POPC   C4B66286  21.206   0.154   7.502
 5064POPC   NC366287  30.957  19.404   5.332
 5064POPC   PO466288  30.480  18.986   5.509
 5064POPC   GL166289  30.823  19.133   5.783
 5064POPC   GL266290  30.988  18.820   5.950
 5064POPC   C1A66291  30.910  19.319   6.141
 5064POPC   D2A66292  30.687  19.293   6.523
 5064POPC   C3A66293  30.791  19.423   6.929
 5064POPC   C4A66294  30.610  19.261   7.316
 5064POPC   C1B66295  30.613  18.835   6.157
 5064POPC   C2B66296  30.527  18.803   6.567
 5064POPC   C3B66297  30.712  18.924   6.941
 5064POPC   C4B66298  30.732  18.738   7.327
 5065POPC   NC366299  21.299  12.800   5.372
 5065POPC   PO466300  21.970  12.918   5.510
 5065POPC   GL166301  21.611  12.765   5.788
 5065POPC   GL266302  21.262  12.582   5.813
 5065POPC   C1A66303  21.547  12.717   6.225
 5065POPC   D2A66304  21.395  12.969   6.528
 5065POPC   C3A66305  21.508  12.822   6.893
 5065POPC   C4A66306  21.529  12.821   7.292
 5065POPC   C1B66307  21.059  12.547   6.198
 5065POPC   C2B66308  21.216  12.493   6.642
 5065POPC   C3B66309  21.106  12.583   7.088
 5065POPC   C4B66310  21.296  12.425   7.484
 5066POPC   NC366311   0.209   4.042   5.679
 5066POPC   PO466312   0.532   3.551   5.317
 5066POPC   GL166313   0.529   3.642   5.730
 5066POPC   GL266314   0.217   3.530   5.819
 5066POPC   C1A66315   0.550   3.731   6.163
 5066POPC   D2A66316   0.374   3.566   6.518
 5066POPC   C3A66317   0.703   3.555   6.805
 5066POPC   C4A66318   0.699   3.644   7.231
 5066POPC   C1B66319   0.205   3.204   6.130
 5066POPC   C2B66320   0.047   3.152   6.544
 5066POPC   C3B66321   0.230   3.224   6.942
 5066POPC   C4B66322   0.085   3.123   7.341
 5067POPC   NC366323  32.197  22.738   5.347
 5067POPC   PO466324  32.573  23.241   5.558
 5067POPC   GL166325  32.467  22.960   5.853
 5067POPC   GL266326  32.121  22.983   5.847
 5067POPC   C1A66327  32.408  22.945   6.297
 5067POPC   D2A66328  32.219  23.238   6.577
 5067POPC   C3A66329  32.265  23.102   7.021
 5067POPC   C4A66330  32.459  23.064   7.439
 5067POPC   C1B66331  31.900  22.906   6.253
 5067POPC   C2B66332  31.866  22.885   6.713
 5067POPC   C3B66333  31.859  22.814   7.162
 5067POPC   C4B66334  32.007  22.762   7.583
 5068POPC   NC366335   6.207  22.263   5.593
 5068POPC   PO466336   6.685  22.589   5.256
 5068POPC   GL166337   6.667  22.371   5.771
 5068POPC   GL266338   6.596  22.560   6.070
 5068POPC   C1A66339   6.691  22.062   6.137
 5068POPC   D2A66340   6.851  22.024   6.580
 5068POPC   C3A66341   6.568  21.925   6.903
 5068POPC   C4A66342   6.535  21.990   7.341
 5068POPC   C1B66343   6.989  22.467   6.279
 5068POPC   C2B66344   6.993  22.503   6.715
 5068POPC   C3B66345   6.781  22.392   7.070
 5068POPC   C4B66346   6.835  22.398   7.515
 5069POPC   NC366347  20.822  43.283   5.536
 5069POPC   PO466348  20.370  42.697   5.473
 5069POPC   GL166349  20.511  42.997   5.803
 5069POPC   GL266350  20.865  42.960   5.944
 5069POPC   C1A66351  20.454  43.328   6.135
 5069POPC   D2A66352  20.530  43.191   6.552
 5069POPC   C3A66353  20.334  43.216   6.967
 5069POPC   C4A66354  20.496  43.153   7.392
 5069POPC   C1B66355  20.951  43.307   6.249
 5069POPC   C2B66356  20.936  43.468   6.681
 5069POPC   C3B66357  20.844  43.236   7.002
 5069POPC   C4B66358  20.995  43.255   7.378
 5070POPC   NC366359  37.265  23.017   5.387
 5070POPC   PO466360  37.797  22.494   5.451
 5070POPC   GL166361  37.531  22.814   5.757
 5070POPC   GL266362  37.757  23.002   5.955
 5070POPC   C1A66363  37.318  23.121   6.107
 5070POPC   D2A66364  37.507  22.930   6.483
 5070POPC   C3A66365  37.428  22.969   6.922
 5070POPC   C4A66366  37.641  23.018   7.343
 5070POPC   C1B66367  37.756  22.594   6.170
 5070POPC   C2B66368  37.870  22.565   6.619
 5070POPC   C3B66369  37.858  22.665   7.033
 5070POPC   C4B66370  37.999  22.695   7.450
 5071POPC   NC366371  12.668  44.822   5.275
 5071POPC   PO466372  13.024  44.476   5.721
 5071POPC   GL166373  12.821  44.740   5.935
 5071POPC   GL266374  12.624  44.980   5.765
 5071POPC   C1A66375  12.502  44.605   6.197
 5071POPC   D2A66376  12.453  44.417   6.596
 5071POPC   C3A66377  12.825  44.476   6.822
 5071POPC   C4A66378  12.931  44.581   7.213
 5071POPC   C1B66379  12.616   0.125   6.188
 5071POPC   C2B66380  12.448  44.948   6.572
 5071POPC   C3B66381  12.478  44.816   7.002
 5071POPC   C4B66382  12.559  44.823   7.455
 5072POPC   NC366383  24.214   8.046   5.431
 5072POPC   PO466384  24.863   7.875   5.271
 5072POPC   GL166385  24.669   7.968   5.726
 5072POPC   GL266386  24.493   8.299   5.785
 5072POPC   C1A66387  24.496   8.017   6.201
 5072POPC   D2A66388  24.735   8.132   6.601
 5072POPC   C3A66389  24.507   8.005   6.960
 5072POPC   C4A66390  24.254   8.003   7.298
 5072POPC   C1B66391  24.185   8.419   6.151
 5072POPC   C2B66392  24.178   8.250   6.578
 5072POPC   C3B66393  24.202   8.434   6.999
 5072POPC   C4B66394  24.115   8.625   7.394
 5073POPC   NC366395   8.272  27.822   5.202
 5073POPC   PO466396   8.146  27.166   5.323
 5073POPC   GL166397   8.130  27.379   5.742
 5073POPC   GL266398   8.289  27.733   5.756
 5073POPC   C1A66399   8.075  27.244   6.192
 5073POPC   D2A66400   8.335  27.235   6.560
 5073POPC   C3A66401   8.058  27.247   6.922
 5073POPC   C4A66402   8.244  27.272   7.319
 5073POPC   C1B66403   7.981  27.741   6.135
 5073POPC   C2B66404   8.079  27.689   6.583
 5073POPC   C3B66405   8.356  27.641   6.953
 5073POPC   C4B66406   8.148  27.780   7.298
 5074POPC   NC366407  35.487   3.297   5.360
 5074POPC   PO466408  35.103   2.750   5.239
 5074POPC   GL166409  35.152   2.635   5.671
 5074POPC   GL266410  34.910   2.901   5.753
 5074POPC   C1A66411  35.429   2.423   6.046
 5074POPC   D2A66412  35.610   2.375   6.503
 5074POPC   C3A66413  35.394   2.491   6.918
 5074POPC   C4A66414  35.318   2.695   7.330
 5074POPC   C1B66415  35.150   2.847   6.140
 5074POPC   C2B66416  34.993   2.916   6.546
 5074POPC   C3B66417  35.056   2.880   6.951
 5074POPC   C4B66418  34.842   2.968   7.325
 5075POPC   NC366419  20.162   4.461   5.423
 5075POPC   PO466420  19.672   4.886   5.513
 5075POPC   GL166421  19.838   4.513   5.857
 5075POPC   GL266422  20.165   4.322   5.924
 5075POPC   C1A66423  19.836   4.227   6.290
 5075POPC   D2A66424  19.882   4.383   6.728
 5075POPC   C3A66425  19.874   4.163   7.149
 5075POPC   C4A66426  20.104   4.092   7.545
 5075POPC   C1B66427  20.144   4.638   6.290
 5075POPC   C2B66428  20.276   4.724   6.708
 5075POPC   C3B66429  20.076   4.662   7.108
 5075POPC   C4B66430  20.072   4.635   7.543
 5076POPC   NC366431  33.110  30.387   5.116
 5076POPC   PO466432  33.070  29.904   5.604
 5076POPC   GL166433  33.014  29.703   5.970
 5076POPC   GL266434  32.669  29.635   6.020
 5076POPC   C1A66435  32.996  29.929   6.354
 5076POPC   D2A66436  32.804  29.968   6.769
 5076POPC   C3A66437  33.111  29.976   7.119
 5076POPC   C4A66438  33.099  29.961   7.578
 5076POPC   C1B66439  32.689  29.525   6.454
 5076POPC   C2B66440  33.009  29.345   6.681
 5076POPC   C3B66441  32.952  29.461   7.077
 5076POPC   C4B66442  32.629  29.744   7.204
 5077POPC   NC366443  25.113   6.484   5.302
 5077POPC   PO466444  25.113   7.035   5.667
 5077POPC   GL166445  25.249   6.631   5.790
 5077POPC   GL266446  25.592   6.605   5.813
 5077POPC   C1A66447  25.263   6.509   6.217
 5077POPC   D2A66448  25.112   6.695   6.608
 5077POPC   C3A66449  25.140   6.483   7.006
 5077POPC   C4A66450  25.213   6.623   7.423
 5077POPC   C1B66451  25.753   6.744   6.225
 5077POPC   C2B66452  25.683   6.880   6.676
 5077POPC   C3B66453  25.629   6.605   7.035
 5077POPC   C4B66454  25.498   6.187   7.240
 5078POPC   NC366455  26.998  37.159   5.407
 5078POPC   PO466456  26.431  36.805   5.394
 5078POPC   GL166457  26.755  36.777   5.719
 5078POPC   GL266458  27.122  36.789   5.727
 5078POPC   C1A66459  26.826  36.666   6.146
 5078POPC   D2A66460  26.654  36.559   6.542
 5078POPC   C3A66461  26.510  36.523   6.947
 5078POPC   C4A66462  26.795  36.588   7.267
 5078POPC   C1B66463  27.194  37.012   6.154
 5078POPC   C2B66464  26.876  37.099   6.468
 5078POPC   C3B66465  26.840  36.917   6.884
 5078POPC   C4B66466  27.086  37.062   7.245
 5079POPC   NC366467  16.307  17.379   5.159
 5079POPC   PO466468  15.810  17.803   5.301
 5079POPC   GL166469  15.882  17.588   5.746
 5079POPC   GL266470  15.721  17.255   5.803
 5079POPC   C1A66471  15.879  17.538   6.234
 5079POPC   D2A66472  16.064  17.423   6.646
 5079POPC   C3A66473  15.812  17.621   6.984
 5079POPC   C4A66474  15.951  17.670   7.400
 5079POPC   C1B66475  15.468  17.213   6.200
 5079POPC   C2B66476  15.557  17.332   6.637
 5079POPC   C3B66477  15.564  17.167   7.094
 5079POPC   C4B66478  15.616  17.280   7.520
 5080POPC   NC366479  44.419   2.101   5.396
 5080POPC   PO466480   0.044   1.812   5.435
 5080POPC   GL166481  44.882   1.815   5.856
 5080POPC   GL266482  44.549   1.962   5.858
 5080POPC   C1A66483  44.690   1.715   6.269
 5080POPC   D2A66484  44.812   1.522   6.645
 5080POPC   C3A66485  44.851   1.850   6.966
 5080POPC   C4A66486  44.526   1.909   7.246
 5080POPC   C1B66487  44.772   2.234   6.162
 5080POPC   C2B66488  44.897   2.253   6.607
 5080POPC   C3B66489  44.590   2.324   6.941
 5080POPC   C4B66490  44.486   2.416   7.364
 5081POPC   NC366491   6.087  29.485   5.157
 5081POPC   PO466492   5.596  29.852   5.278
 5081POPC   GL166493   5.790  29.968   5.697
 5081POPC   GL266494   5.986  30.285   5.662
 5081POPC   C1A66495   5.680  29.875   6.159
 5081POPC   D2A66496   5.448  29.900   6.573
 5081POPC   C3A66497   5.656  29.931   7.001
 5081POPC   C4A66498   5.607  29.659   7.397
 5081POPC   C1B66499   6.115  30.159   6.084
 5081POPC   C2B66500   6.038  30.075   6.535
 5081POPC   C3B66501   6.138  30.182   6.983
 5081POPC   C4B66502   6.066  29.882   7.302
 5082POPC   NC366503  30.336  14.350   5.481
 5082POPC   PO466504  29.852  14.760   5.213
 5082POPC   GL166505  29.823  14.647   5.683
 5082POPC   GL266506  29.890  14.287   5.748
 5082POPC   C1A66507  29.910  14.602   6.153
 5082POPC   D2A66508  29.775  14.335   6.514
 5082POPC   C3A66509  29.778  14.531   6.911
 5082POPC   C4A66510  30.190  14.614   7.096
 5082POPC   C1B66511  30.118  14.130   6.137
 5082POPC   C2B66512  30.330  14.059   6.505
 5082POPC   C3B66513  30.155  14.159   6.863
 5082POPC   C4B66514  29.992  14.137   7.212
 5083POPC   NC366515   9.159  29.263   5.500
 5083POPC   PO466516   9.122  28.616   5.305
 5083POPC   GL166517   9.042  28.859   5.756
 5083POPC   GL266518   8.718  28.735   5.809
 5083POPC   C1A66519   9.005  29.237   6.128
 5083POPC   D2A66520   8.777  29.428   6.515
 5083POPC   C3A66521   8.909  29.303   6.946
 5083POPC   C4A66522   9.243  29.042   7.115
 5083POPC   C1B66523   8.921  28.743   6.236
 5083POPC   C2B66524   9.004  28.895   6.647
 5083POPC   C3B66525   8.793  28.799   7.043
 5083POPC   C4B66526   8.804  29.074   7.395
 5084POPC   NC366527   6.720  25.447   5.351
 5084POPC   PO466528   6.378  24.835   5.466
 5084POPC   GL166529   6.656  24.917   5.846
 5084POPC   GL266530   6.782  25.269   5.833
 5084POPC   C1A66531   6.699  25.099   6.304
 5084POPC   D2A66532   6.570  25.160   6.748
 5084POPC   C3A66533   6.826  25.154   7.133
 5084POPC   C4A66534   6.556  25.054   7.486
 5084POPC   C1B66535   7.038  25.499   6.178
 5084POPC   C2B66536   7.171  25.552   6.643
 5084POPC   C3B66537   6.946  25.658   7.051
 5084POPC   C4B66538   6.640  25.544   7.419
 5085POPC   NC366539  21.770  18.989   5.301
 5085POPC   PO466540  22.250  19.252   5.324
 5085POPC   GL166541  22.205  19.100   5.798
 5085POPC   GL266542  21.891  18.922   5.813
 5085POPC   C1A66543  22.307  19.123   6.304
 5085POPC   D2A66544  22.367  18.995   6.784
 5085POPC   C3A66545  22.465  19.315   7.135
 5085POPC   C4A66546  22.452  19.487   7.581
 5085POPC   C1B66547  21.878  18.840   6.257
 5085POPC   C2B66548  21.875  19.043   6.668
 5085POPC   C3B66549  21.966  19.129   7.105
 5085POPC   C4B66550  21.777  18.929   7.476
 5086POPC   NC366551  20.144  39.446   5.558
 5086POPC   PO466552  19.835  38.835   5.357
 5086POPC   GL166553  19.914  39.063   5.782
 5086POPC   GL266554  19.694  39.309   5.848
 5086POPC   C1A66555  20.003  39.248   6.235
 5086POPC   D2A66556  20.243  39.260   6.652
 5086POPC   C3A66557  20.015  39.228   7.025
 5086POPC   C4A66558  19.659  38.964   7.146
 5086POPC   C1B66559  19.548  39.477   6.226
 5086POPC   C2B66560  19.749  39.514   6.623
 5086POPC   C3B66561  19.548  39.442   6.987
 5086POPC   C4B66562  19.740  39.411   7.407
 5087POPC   NC366563  13.309  17.526   5.344
 5087POPC   PO466564  14.004  17.320   5.231
 5087POPC   GL166565  13.789  17.250   5.670
 5087POPC   GL266566  13.535  17.498   5.775
 5087POPC   C1A66567  13.623  17.167   6.126
 5087POPC   D2A66568  13.438  17.199   6.528
 5087POPC   C3A66569  13.705  17.388   6.829
 5087POPC   C4A66570  13.870  17.333   7.221
 5087POPC   C1B66571  13.497  17.725   6.168
 5087POPC   C2B66572  13.677  17.888   6.549
 5087POPC   C3B66573  13.435  17.820   6.904
 5087POPC   C4B66574  13.460  17.683   7.317
 5088POPC   NC366575  10.680  25.700   5.515
 5088POPC   PO466576  10.568  26.353   5.410
 5088POPC   GL166577  10.680  26.204   5.836
 5088POPC   GL266578  10.405  26.057   5.889
 5088POPC   C1A66579  10.733  26.099   6.282
 5088POPC   D2A66580  10.777  25.875   6.678
 5088POPC   C3A66581  10.634  26.085   7.061
 5088POPC   C4A66582  10.500  25.955   7.480
 5088POPC   C1B66583  10.182  25.925   6.256
 5088POPC   C2B66584  10.260  25.805   6.680
 5088POPC   C3B66585  10.161  25.880   7.088
 5088POPC   C4B66586  10.060  25.715   7.502
 5089POPC   NC366587  15.859  32.950   5.327
 5089POPC   PO466588  15.900  33.507   5.512
 5089POPC   GL166589  15.961  33.152   5.809
 5089POPC   GL266590  15.696  32.885   5.810
 5089POPC   C1A66591  16.162  33.230   6.210
 5089POPC   D2A66592  16.108  33.431   6.621
 5089POPC   C3A66593  16.214  33.230   7.011
 5089POPC   C4A66594  16.490  32.975   7.249
 5089POPC   C1B66595  15.687  33.010   6.252
 5089POPC   C2B66596  15.644  33.214   6.671
 5089POPC   C3B66597  15.761  32.973   7.031
 5089POPC   C4B66598  15.722  32.529   7.155
 5090POPC   NC366599  26.406  23.488   4.952
 5090POPC   PO466600  26.000  23.712   5.456
 5090POPC   GL166601  25.943  23.605   5.870
 5090POPC   GL266602  25.845  23.957   5.976
 5090POPC   C1A66603  26.084  23.564   6.287
 5090POPC   D2A66604  26.034  23.862   6.570
 5090POPC   C3A66605  26.000  23.731   6.997
 5090POPC   C4A66606  25.741  23.986   7.208
 5090POPC   C1B66607  26.322  23.949   6.051
 5090POPC   C2B66608  26.528  24.067   6.456
 5090POPC   C3B66609  26.389  24.053   6.879
 5090POPC   C4B66610  26.339  24.004   7.320
 5091POPC   NC366611   6.882  18.929   5.502
 5091POPC   PO466612   6.240  19.160   5.468
 5091POPC   GL166613   6.544  19.177   5.841
 5091POPC   GL266614   6.617  18.853   5.948
 5091POPC   C1A66615   6.834  19.253   6.202
 5091POPC   D2A66616   6.730  19.270   6.655
 5091POPC   C3A66617   6.983  19.271   7.055
 5091POPC   C4A66618   7.002  18.884   7.337
 5091POPC   C1B66619   6.387  18.992   6.325
 5091POPC   C2B66620   6.336  18.800   6.733
 5091POPC   C3B66621   6.529  18.724   7.133
 5091POPC   C4B66622   6.458  18.956   7.506
 5092POPC   NC366623   4.606  20.858   5.267
 5092POPC   PO466624   5.065  20.379   5.556
 5092POPC   GL166625   4.973  20.676   5.870
 5092POPC   GL266626   4.704  20.919   5.816
 5092POPC   C1A66627   5.109  20.777   6.286
 5092POPC   D2A66628   5.142  20.856   6.730
 5092POPC   C3A66629   5.411  20.586   6.971
 5092POPC   C4A66630   5.337  20.360   7.360
 5092POPC   C1B66631   4.670  21.057   6.233
 5092POPC   C2B66632   4.731  21.164   6.659
 5092POPC   C3B66633   4.660  20.934   7.034
 5092POPC   C4B66634   4.943  20.622   7.178
 5093POPC   NC366635  11.244  36.744   5.098
 5093POPC   PO466636  11.396  36.150   5.388
 5093POPC   GL166637  11.544  36.056   5.791
 5093POPC   GL266638  11.222  36.174   5.890
 5093POPC   C1A66639  11.489  36.012   6.254
 5093POPC   D2A66640  11.430  36.321   6.565
 5093POPC   C3A66641  11.535  36.113   6.935
 5093POPC   C4A66642  11.318  35.896   7.250
 5093POPC   C1B66643  11.003  36.232   6.267
 5093POPC   C2B66644  10.925  36.210   6.702
 5093POPC   C3B66645  11.022  36.306   7.137
 5093POPC   C4B66646  11.415  36.401   7.355
 5094POPC   NC366647   0.079  13.327   5.168
 5094POPC   PO466648   0.583  13.501   5.441
 5094POPC   GL166649   0.494  13.408   5.865
 5094POPC   GL266650   0.445  13.765   5.910
 5094POPC   C1A66651   0.398  13.470   6.323
 5094POPC   D2A66652   0.534  13.726   6.669
 5094POPC   C3A66653   0.404  13.516   7.061
 5094POPC   C4A66654   0.442  13.715   7.492
 5094POPC   C1B66655   0.020  13.557   6.006
 5094POPC   C2B66656  44.900  13.533   6.436
 5094POPC   C3B66657   0.045  13.782   6.791
 5094POPC   C4B66658  44.997  13.776   7.229
 5095POPC   NC366659  27.502   6.882   5.331
 5095POPC   PO466660  27.398   6.339   5.434
 5095POPC   GL166661  27.556   6.690   5.798
 5095POPC   GL266662  27.385   7.040   5.796
 5095POPC   C1A66663  27.687   6.847   6.249
 5095POPC   D2A66664  27.661   6.850   6.735
 5095POPC   C3A66665  27.705   6.441   6.891
 5095POPC   C4A66666  27.804   6.325   7.338
 5095POPC   C1B66667  27.193   6.899   6.161
 5095POPC   C2B66668  27.235   7.064   6.542
 5095POPC   C3B66669  27.181   6.904   6.978
 5095POPC   C4B66670  27.443   6.674   7.233
 5096POPC   NC366671   7.856  35.307   5.254
 5096POPC   PO466672   7.198  35.081   5.454
 5096POPC   GL166673   7.489  35.204   5.770
 5096POPC   GL266674   7.649  35.532   5.770
 5096POPC   C1A66675   7.422  35.313   6.209
 5096POPC   D2A66676   7.402  35.035   6.552
 5096POPC   C3A66677   7.489  35.258   6.906
 5096POPC   C4A66678   7.682  35.195   7.290
 5096POPC   C1B66679   7.632  35.783   6.146
 5096POPC   C2B66680   7.582  35.683   6.582
 5096POPC   C3B66681   7.673  35.726   7.019
 5096POPC   C4B66682   7.366  35.634   7.311
 5097POPC   NC366683  33.450  42.590   5.113
 5097POPC   PO466684  33.079  42.137   5.507
 5097POPC   GL166685  32.970  42.455   5.777
 5097POPC   GL266686  32.963  42.202   6.008
 5097POPC   C1A66687  32.992  42.674   6.184
 5097POPC   D2A66688  33.186  42.564   6.579
 5097POPC   C3A66689  33.001  42.668   6.971
 5097POPC   C4A66690  33.037  42.485   7.373
 5097POPC   C1B66691  32.921  42.142   6.470
 5097POPC   C2B66692  32.974  41.956   6.873
 5097POPC   C3B66693  32.804  42.072   7.252
 5097POPC   C4B66694  32.635  42.035   7.648
 5098POPC   NC366695   9.036  42.920   5.355
 5098POPC   PO466696   8.875  43.557   5.556
 5098POPC   GL166697   8.829  43.140   5.837
 5098POPC   GL266698   8.885  42.755   5.876
 5098POPC   C1A66699   8.847  43.120   6.308
 5098POPC   D2A66700   9.037  43.426   6.616
 5098POPC   C3A66701   9.011  43.253   7.009
 5098POPC   C4A66702   8.776  42.947   7.204
 5098POPC   C1B66703   9.025  42.625   6.323
 5098POPC   C2B66704   8.993  42.644   6.790
 5098POPC   C3B66705   9.242  42.753   7.166
 5098POPC   C4B66706   9.386  42.867   7.621
 5099POPC   NC366707   5.203   7.919   4.920
 5099POPC   PO466708   4.689   8.016   5.272
 5099POPC   GL166709   4.614   8.092   5.751
 5099POPC   GL266710   4.895   8.298   5.855
 5099POPC   C1A66711   4.595   8.124   6.245
 5099POPC   D2A66712   4.719   8.194   6.721
 5099POPC   C3A66713   5.062   8.056   7.045
 5099POPC   C4A66714   5.412   8.190   7.358
 5099POPC   C1B66715   4.690   8.623   6.112
 5099POPC   C2B66716   4.642   8.705   6.565
 5099POPC   C3B66717   4.693   8.611   7.028
 5099POPC   C4B66718   4.958   8.430   7.381
 5100POPC   NC366719  36.215   0.849   5.441
 5100POPC   PO466720  36.438   1.490   5.382
 5100POPC   GL166721  36.253   1.471   5.809
 5100POPC   GL266722  36.122   1.115   5.893
 5100POPC   C1A66723  36.011   1.530   6.211
 5100POPC   D2A66724  35.956   1.209   6.542
 5100POPC   C3A66725  35.994   1.094   6.988
 5100POPC   C4A66726  36.045   1.255   7.430
 5100POPC   C1B66727  36.420   1.234   6.241
 5100POPC   C2B66728  36.466   1.198   6.678
 5100POPC   C3B66729  36.641   1.474   6.952
 5100POPC   C4B66730  36.529   1.259   7.278
 5101POPC   NC366731   5.910  25.013   5.464
 5101POPC   PO466732   6.119  25.647   5.426
 5101POPC   GL166733   5.958  25.429   5.795
 5101POPC   GL266734   6.224  25.195   5.846
 5101POPC   C1A66735   5.678  25.403   6.180
 5101POPC   D2A66736   5.561  25.569   6.602
 5101POPC   C3A66737   5.748  25.522   7.009
 5101POPC   C4A66738   5.744  25.151   7.260
 5101POPC   C1B66739   6.176  25.245   6.298
 5101POPC   C2B66740   6.152  25.455   6.703
 5101POPC   C3B66741   6.239  25.367   7.151
 5101POPC   C4B66742   6.177  25.349   7.597
 5102POPC   NC366743  12.939   0.784   5.307
 5102POPC   PO466744  12.578   0.279   5.337
 5102POPC   GL166745  12.760   0.484   5.698
 5102POPC   GL266746  13.078   0.285   5.716
 5102POPC   C1A66747  12.919   0.564   6.128
 5102POPC   D2A66748  13.020   0.401   6.545
 5102POPC   C3A66749  12.821   0.526   6.967
 5102POPC   C4A66750  12.857   0.674   7.426
 5102POPC   C1B66751  13.151   0.078   6.111
 5102POPC   C2B66752  12.963  44.858   6.455
 5102POPC   C3B66753  12.910   0.013   6.861
 5102POPC   C4B66754  12.970   0.106   7.284
 5103POPC   NC366755  30.772  43.134   5.367
 5103POPC   PO466756  30.477  42.548   5.236
 5103POPC   GL166757  30.671  42.810   5.735
 5103POPC   GL266758  30.796  43.167   5.875
 5103POPC   C1A66759  30.892  42.785   6.195
 5103POPC   D2A66760  30.721  42.777   6.644
 5103POPC   C3A66761  30.726  43.034   7.033
 5103POPC   C4A66762  30.435  43.279   7.295
 5103POPC   C1B66763  30.659  43.202   6.342
 5103POPC   C2B66764  30.914  43.384   6.692
 5103POPC   C3B66765  31.021  43.436   7.155
 5103POPC   C4B66766  30.828  43.461   7.561
 5104POPC   NC366767  28.470  19.383   5.397
 5104POPC   PO466768  28.194  18.859   5.695
 5104POPC   GL166769  28.414  19.177   5.852
 5104POPC   GL266770  28.732  19.056   5.692
 5104POPC   C1A66771  28.284  19.429   6.189
 5104POPC   D2A66772  28.144  19.481   6.620
 5104POPC   C3A66773  28.181  19.156   6.964
 5104POPC   C4A66774  28.102  18.721   7.119
 5104POPC   C1B66775  28.754  18.949   6.124
 5104POPC   C2B66776  28.536  19.069   6.515
 5104POPC   C3B66777  28.657  18.924   6.937
 5104POPC   C4B66778  28.526  19.051   7.351
 5105POPC   NC366779  27.274   9.526   5.193
 5105POPC   PO466780  26.662   9.632   5.521
 5105POPC   GL166781  26.789   9.643   5.918
 5105POPC   GL266782  27.147   9.533   5.914
 5105POPC   C1A66783  26.651   9.658   6.345
 5105POPC   D2A66784  26.676   9.490   6.762
 5105POPC   C3A66785  26.570   9.809   7.050
 5105POPC   C4A66786  26.566   9.791   7.496
 5105POPC   C1B66787  27.104   9.886   6.227
 5105POPC   C2B66788  26.977   9.939   6.645
 5105POPC   C3B66789  27.083   9.732   7.020
 5105POPC   C4B66790  26.966  10.026   7.297
 5106POPC   NC366791  42.326  21.483   5.009
 5106POPC   PO466792  42.303  21.236   5.408
 5106POPC   GL166793  42.455  21.459   5.833
 5106POPC   GL266794  42.605  21.813   5.831
 5106POPC   C1A66795  42.574  21.390   6.313
 5106POPC   D2A66796  42.708  21.364   6.786
 5106POPC   C3A66797  42.451  21.446   7.184
 5106POPC   C4A66798  42.286  21.301   7.613
 5106POPC   C1B66799  42.605  21.898   6.316
 5106POPC   C2B66800  42.541  21.855   6.808
 5106POPC   C3B66801  42.347  22.012   7.227
 5106POPC   C4B66802  42.435  21.933   7.652
 5107POPC   NC366803  44.052  43.018   5.468
 5107POPC   PO466804  43.632  43.353   5.116
 5107POPC   GL166805  43.791  43.408   5.644
 5107POPC   GL266806  43.696  43.118   5.837
 5107POPC   C1A66807  43.938  43.409   6.150
 5107POPC   D2A66808  44.194  43.072   6.423
 5107POPC   C3A66809  44.128  42.963   6.873
 5107POPC   C4A66810  43.899  43.290   7.152
 5107POPC   C1B66811  43.555  42.983   6.259
 5107POPC   C2B66812  43.633  43.044   6.721
 5107POPC   C3B66813  43.706  42.835   7.144
 5107POPC   C4B66814  43.504  42.855   7.543
 5108POPC   NC366815   6.200  31.985   5.499
 5108POPC   PO466816   5.518  32.159   5.563
 5108POPC   GL166817   5.645  32.466   5.851
 5108POPC   GL266818   5.998  32.441   5.859
 5108POPC   C1A66819   5.511  32.538   6.228
 5108POPC   D2A66820   5.784  32.432   6.543
 5108POPC   C3A66821   5.649  32.236   6.906
 5108POPC   C4A66822   5.458  32.300   7.279
 5108POPC   C1B66823   5.951  32.089   6.151
 5108POPC   C2B66824   6.046  31.993   6.576
 5108POPC   C3B66825   6.151  32.313   6.902
 5108POPC   C4B66826   5.957  32.456   7.291
 5109POPC   NC366827  25.461  41.018   5.373
 5109POPC   PO466828  24.774  41.223   5.388
 5109POPC   GL166829  25.102  41.079   5.745
 5109POPC   GL266830  25.487  41.166   5.846
 5109POPC   C1A66831  25.242  40.725   6.056
 5109POPC   D2A66832  25.113  40.528   6.473
 5109POPC   C3A66833  25.346  40.571   6.833
 5109POPC   C4A66834  25.443  40.659   7.228
 5109POPC   C1B66835  25.273  41.213   6.218
 5109POPC   C2B66836  25.417  40.975   6.533
 5109POPC   C3B66837  25.518  41.068   6.925
 5109POPC   C4B66838  25.559  41.359   7.279
 5110POPC   NC366839  14.243  34.132   5.107
 5110POPC   PO466840  14.571  34.579   5.460
 5110POPC   GL166841  14.410  34.730   5.820
 5110POPC   GL266842  14.104  34.532   5.862
 5110POPC   C1A66843  14.339  34.772   6.247
 5110POPC   D2A66844  14.086  34.701   6.564
 5110POPC   C3A66845  14.317  34.750   6.902
 5110POPC   C4A66846  14.206  34.682   7.305
 5110POPC   C1B66847  14.382  34.281   6.159
 5110POPC   C2B66848  14.498  34.378   6.600
 5110POPC   C3B66849  14.372  34.256   7.043
 5110POPC   C4B66850  14.414  34.246   7.514
 5111POPC   NC366851  13.038  43.315   5.263
 5111POPC   PO466852  12.604  42.861   5.433
 5111POPC   GL166853  12.814  43.102   5.788
 5111POPC   GL266854  13.052  42.919   6.080
 5111POPC   C1A66855  12.785  43.313   6.192
 5111POPC   D2A66856  12.560  43.257   6.550
 5111POPC   C3A66857  12.810  43.306   6.897
 5111POPC   C4A66858  12.699  43.466   7.290
 5111POPC   C1B66859  12.708  42.801   6.349
 5111POPC   C2B66860  12.597  42.666   6.743
 5111POPC   C3B66861  12.608  42.895   7.132
 5111POPC   C4B66862  12.951  43.041   7.342
 5112POPC   NC366863   1.305   4.711   5.461
 5112POPC   PO466864   1.385   5.343   5.398
 5112POPC   GL166865   1.314   5.134   5.775
 5112POPC   GL266866   0.979   4.980   5.796
 5112POPC   C1A66867   1.347   4.965   6.197
 5112POPC   D2A66868   1.616   4.814   6.560
 5112POPC   C3A66869   1.513   4.919   7.011
 5112POPC   C4A66870   1.491   5.061   7.476
 5112POPC   C1B66871   0.984   5.363   6.084
 5112POPC   C2B66872   1.181   5.351   6.496
 5112POPC   C3B66873   1.081   5.215   6.914
 5112POPC   C4B66874   0.980   5.495   7.251
 5113POPC   NC366875  18.248  15.900   5.282
 5113POPC   PO466876  17.814  16.415   5.149
 5113POPC   GL166877  17.975  16.135   5.630
 5113POPC   GL266878  18.349  16.122   5.725
 5113POPC   C1A66879  18.176  15.741   5.999
 5113POPC   D2A66880  18.246  15.553   6.452
 5113POPC   C3A66881  18.309  15.722   6.881
 5113POPC   C4A66882  18.177  15.863   7.290
 5113POPC   C1B66883  18.210  16.220   6.134
 5113POPC   C2B66884  18.321  16.127   6.561
 5113POPC   C3B66885  18.318  16.242   7.002
 5113POPC   C4B66886  18.311  16.310   7.477
 5114POPC   NC366887  31.093   3.698   5.324
 5114POPC   PO466888  30.534   3.429   5.524
 5114POPC   GL166889  30.900   3.567   5.775
 5114POPC   GL266890  31.048   3.920   5.778
 5114POPC   C1A66891  30.997   3.574   6.206
 5114POPC   D2A66892  30.706   3.507   6.557
 5114POPC   C3A66893  30.816   3.394   6.969
 5114POPC   C4A66894  31.104   3.667   7.127
 5114POPC   C1B66895  30.647   3.935   6.049
 5114POPC   C2B66896  30.614   4.016   6.528
 5114POPC   C3B66897  30.546   3.880   6.979
 5114POPC   C4B66898  30.568   4.127   7.370
 5115POPC   NC366899  40.563  28.990   5.473
 5115POPC   PO466900  40.975  29.525   5.454
 5115POPC   GL166901  40.962  29.253   5.863
 5115POPC   GL266902  40.748  28.924   5.946
 5115POPC   C1A66903  41.082  29.438   6.285
 5115POPC   D2A66904  40.982  29.623   6.713
 5115POPC   C3A66905  40.879  29.482   7.146
 5115POPC   C4A66906  40.733  29.216   7.497
 5115POPC   C1B66907  41.017  28.937   6.286
 5115POPC   C2B66908  41.038  29.097   6.705
 5115POPC   C3B66909  40.792  28.977   7.042
 5115POPC   C4B66910  40.451  28.788   7.250
 5116POPC   NC366911  15.131  14.856   5.347
 5116POPC   PO466912  14.918  14.291   5.522
 5116POPC   GL166913  15.114  14.416   5.873
 5116POPC   GL266914  15.398  14.569   5.738
 5116POPC   C1A66915  15.035  14.322   6.293
 5116POPC   D2A66916  14.972  14.559   6.657
 5116POPC   C3A66917  14.735  14.376   6.958
 5116POPC   C4A66918  14.944  14.108   7.203
 5116POPC   C1B66919  15.581  14.423   6.126
 5116POPC   C2B66920  15.471  14.481   6.558
 5116POPC   C3B66921  15.418  14.367   6.986
 5116POPC   C4B66922  15.669  14.666   7.225
 5117POPC   NC366923  31.247  10.347   5.607
 5117POPC   PO466924  31.118  10.950   5.514
 5117POPC   GL166925  31.340  10.791   5.831
 5117POPC   GL266926  31.636  10.710   5.707
 5117POPC   C1A66927  31.267  10.911   6.251
 5117POPC   D2A66928  31.394  10.724   6.628
 5117POPC   C3A66929  31.372  10.622   7.062
 5117POPC   C4A66930  31.363  10.194   7.227
 5117POPC   C1B66931  31.649  10.580   6.162
 5117POPC   C2B66932  31.804  10.417   6.540
 5117POPC   C3B66933  31.849  10.510   6.960
 5117POPC   C4B66934  31.867  10.759   7.317
 5118POPC   NC366935  10.536   8.349   5.433
 5118POPC   PO466936   9.933   8.295   5.416
 5118POPC   GL166937  10.221   8.393   5.841
 5118POPC   GL266938  10.626   8.299   5.933
 5118POPC   C1A66939  10.282   8.290   6.303
 5118POPC   D2A66940  10.333   8.486   6.711
 5118POPC   C3A66941  10.414   8.236   7.101
 5118POPC   C4A66942  10.383   8.168   7.552
 5118POPC   C1B66943  10.804   8.366   6.373
 5118POPC   C2B66944  10.843   8.463   6.833
 5118POPC   C3B66945  10.838   8.413   7.314
 5118POPC   C4B66946  10.848   8.235   7.770
 5119POPC   NC366947   5.669  23.515   5.131
 5119POPC   PO466948   6.141  23.867   5.443
 5119POPC   GL166949   6.334  23.916   5.851
 5119POPC   GL266950   6.205  23.585   5.938
 5119POPC   C1A66951   6.278  23.967   6.320
 5119POPC   D2A66952   5.904  24.053   6.576
 5119POPC   C3A66953   5.900  23.975   6.978
 5119POPC   C4A66954   5.824  23.728   7.256
 5119POPC   C1B66955   5.908  23.605   6.284
 5119POPC   C2B66956   5.854  23.516   6.723
 5119POPC   C3B66957   6.109  23.367   7.054
 5119POPC   C4B66958   6.074  23.413   7.554
 5120POPC   NC366959  13.070  15.199   5.326
 5120POPC   PO466960  12.375  15.033   5.499
 5120POPC   GL166961  12.741  15.189   5.774
 5120POPC   GL266962  13.047  15.032   5.802
 5120POPC   C1A66963  12.907  15.324   6.209
 5120POPC   D2A66964  12.730  15.431   6.622
 5120POPC   C3A66965  12.711  15.094   6.837
 5120POPC   C4A66966  12.864  15.207   7.216
 5120POPC   C1B66967  13.174  14.869   6.218
 5120POPC   C2B66968  13.060  14.736   6.650
 5120POPC   C3B66969  13.205  14.838   7.088
 5120POPC   C4B66970  13.054  14.857   7.550
 5121POPC   NC366971   0.261  23.970   5.523
 5121POPC   PO466972   0.785  23.577   5.415
 5121POPC   GL166973   0.621  23.407   5.816
 5121POPC   GL266974   0.281  23.539   5.846
 5121POPC   C1A66975   0.536  23.405   6.285
 5121POPC   D2A66976   0.788  23.407   6.659
 5121POPC   C3A66977   0.640  23.617   7.030
 5121POPC   C4A66978   0.688  24.120   7.049
 5121POPC   C1B66979   0.395  23.869   6.176
 5121POPC   C2B66980   0.386  23.818   6.646
 5121POPC   C3B66981   0.225  23.898   7.103
 5121POPC   C4B66982   0.020  24.121   7.463
 5122POPC   NC366983  31.009   9.416   5.346
 5122POPC   PO466984  30.394   9.538   5.407
 5122POPC   GL166985  30.490   9.201   5.712
 5122POPC   GL266986  30.840   9.156   5.788
 5122POPC   C1A66987  30.495   8.901   6.087
 5122POPC   D2A66988  30.547   9.013   6.543
 5122POPC   C3A66989  30.709   8.917   7.001
 5122POPC   C4A66990  30.697   8.690   7.412
 5122POPC   C1B66991  30.984   8.963   6.221
 5122POPC   C2B66992  30.977   8.683   6.624
 5122POPC   C3B66993  31.099   8.601   7.091
 5122POPC   C4B66994  31.133   8.968   7.366
 5123POPC   NC366995  16.195  19.895   5.243
 5123POPC   PO466996  15.577  19.895   5.369
 5123POPC   GL166997  15.581  19.923   5.831
 5123POPC   GL266998  15.446  20.271   5.883
 5123POPC   C1A66999  15.856  19.745   6.213
 5123POPC   D2A67000  16.232  19.873   6.529
 5123POPC   C3A67001  16.142  19.900   7.013
 5123POPC   C4A67002  15.941  19.771   7.417
 5123POPC   C1B67003  15.732  20.225   6.249
 5123POPC   C2B67004  15.746  20.014   6.652
 5123POPC   C3B67005  15.596  20.020   7.071
 5123POPC   C4B67006  15.524  20.089   7.500
 5124POPC   NC367007  24.814  38.028   5.574
 5124POPC   PO467008  24.459  37.376   5.553
 5124POPC   GL167009  24.656  37.630   5.830
 5124POPC   GL267010  24.354  37.763   5.956
 5124POPC   C1A67011  24.815  37.754   6.221
 5124POPC   D2A67012  24.772  37.533   6.635
 5124POPC   C3A67013  24.554  37.704   6.997
 5124POPC   C4A67014  24.598  37.763   7.458
 5124POPC   C1B67015  24.440  37.408   6.259
 5124POPC   C2B67016  24.238  37.249   6.624
 5124POPC   C3B67017  24.273  37.184   7.064
 5124POPC   C4B67018  24.289  37.314   7.489
 5125POPC   NC367019   9.268  13.361   5.490
 5125POPC   PO467020   9.897  13.586   5.333
 5125POPC   GL167021   9.739  13.406   5.720
 5125POPC   GL267022   9.834  13.730   5.832
 5125POPC   C1A67023   9.768  13.364   6.180
 5125POPC   D2A67024   9.914  13.571   6.550
 5125POPC   C3A67025   9.782  13.504   6.952
 5125POPC   C4A67026   9.760  13.394   7.375
 5125POPC   C1B67027   9.797  13.975   6.187
 5125POPC   C2B67028  10.007  14.073   6.554
 5125POPC   C3B67029   9.879  14.094   6.980
 5125POPC   C4B67030   9.582  13.885   7.221
 5126POPC   NC367031  36.410  16.472   5.459
 5126POPC   PO467032  36.257  17.179   5.658
 5126POPC   GL167033  36.236  16.759   5.897
 5126POPC   GL267034  36.180  16.363   5.897
 5126POPC   C1A67035  36.171  16.630   6.355
 5126POPC   D2A67036  36.356  16.627   6.783
 5126POPC   C3A67037  36.352  17.062   6.939
 5126POPC   C4A67038  36.232  17.206   7.342
 5126POPC   C1B67039  35.766  16.401   6.109
 5126POPC   C2B67040  35.646  16.532   6.528
 5126POPC   C3B67041  35.865  16.812   6.807
 5126POPC   C4B67042  36.083  16.730   7.207
 5127POPC   NC367043  34.123  37.214   5.461
 5127POPC   PO467044  33.777  36.704   5.429
 5127POPC   GL167045  33.800  36.845   5.863
 5127POPC   GL267046  34.125  36.815   5.804
 5127POPC   C1A67047  33.664  36.967   6.308
 5127POPC   D2A67048  33.431  36.846   6.699
 5127POPC   C3A67049  33.602  37.012   7.084
 5127POPC   C4A67050  33.563  36.946   7.517
 5127POPC   C1B67051  34.143  36.719   6.224
 5127POPC   C2B67052  34.130  36.990   6.563
 5127POPC   C3B67053  34.068  36.837   6.958
 5127POPC   C4B67054  34.113  37.053   7.291
 5128POPC   NC367055   7.230  34.654   5.617
 5128POPC   PO467056   7.745  34.237   5.456
 5128POPC   GL167057   7.706  34.383   5.851
 5128POPC   GL267058   7.360  34.237   5.855
 5128POPC   C1A67059   7.555  34.460   6.283
 5128POPC   D2A67060   7.380  34.539   6.699
 5128POPC   C3A67061   7.602  34.748   7.028
 5128POPC   C4A67062   7.763  34.497   7.365
 5128POPC   C1B67063   6.987  34.281   6.133
 5128POPC   C2B67064   6.907  34.428   6.525
 5128POPC   C3B67065   7.008  34.268   6.932
 5128POPC   C4B67066   7.273  34.397   7.227
 5129POPC   NC367067  30.734  37.078   5.441
 5129POPC   PO467068  30.536  36.366   5.528
 5129POPC   GL167069  30.389  36.623   5.861
 5129POPC   GL267070  30.361  36.973   5.783
 5129POPC   C1A67071  30.627  36.802   6.220
 5129POPC   D2A67072  30.896  37.043   6.543
 5129POPC   C3A67073  30.861  36.864   6.959
 5129POPC   C4A67074  31.140  36.785   7.295
 5129POPC   C1B67075  30.450  37.276   6.108
 5129POPC   C2B67076  30.386  37.136   6.520
 5129POPC   C3B67077  30.513  37.255   6.907
 5129POPC   C4B67078  30.435  37.025   7.251
 5130POPC   NC367079  28.709  26.063   5.222
 5130POPC   PO467080  29.278  25.734   5.122
 5130POPC   GL167081  29.267  25.914   5.582
 5130POPC   GL267082  28.958  26.076   5.679
 5130POPC   C1A67083  29.327  25.903   6.062
 5130POPC   D2A67084  29.177  26.003   6.526
 5130POPC   C3A67085  29.376  25.917   6.953
 5130POPC   C4A67086  29.222  25.675   7.343
 5130POPC   C1B67087  28.885  26.204   6.119
 5130POPC   C2B67088  28.849  26.401   6.520
 5130POPC   C3B67089  29.062  26.392   6.920
 5130POPC   C4B67090  29.022  26.134   7.265
 5131POPC   NC367091   5.297  21.527   5.541
 5131POPC   PO467092   5.029  20.959   5.429
 5131POPC   GL167093   5.123  21.199   5.884
 5131POPC   GL267094   5.057  21.605   5.963
 5131POPC   C1A67095   5.128  21.286   6.345
 5131POPC   D2A67096   5.082  21.538   6.708
 5131POPC   C3A67097   5.054  21.246   7.047
 5131POPC   C4A67098   5.325  20.977   7.262
 5131POPC   C1B67099   5.295  21.807   6.296
 5131POPC   C2B67100   5.556  21.771   6.663
 5131POPC   C3B67101   5.329  21.918   7.027
 5131POPC   C4B67102   4.979  21.741   7.162
 5132POPC   NC367103   8.586  22.537   5.411
 5132POPC   PO467104   9.081  22.975   5.489
 5132POPC   GL167105   8.835  22.829   5.796
 5132POPC   GL267106   8.629  23.118   5.798
 5132POPC   C1A67107   8.975  22.704   6.210
 5132POPC   D2A67108   9.187  22.895   6.547
 5132POPC   C3A67109   9.030  22.899   6.954
 5132POPC   C4A67110   9.214  22.625   7.213
 5132POPC   C1B67111   8.523  22.990   6.193
 5132POPC   C2B67112   8.456  22.837   6.588
 5132POPC   C3B67113   8.526  22.972   7.000
 5132POPC   C4B67114   8.333  22.828   7.371
 5133POPC   NC367115  28.686  24.367   5.595
 5133POPC   PO467116  28.083  24.702   5.363
 5133POPC   GL167117  28.095  24.577   5.796
 5133POPC   GL267118  28.162  24.886   5.897
 5133POPC   C1A67119  28.223  24.347   6.199
 5133POPC   D2A67120  28.028  24.198   6.605
 5133POPC   C3A67121  28.224  24.290   6.995
 5133POPC   C4A67122  28.454  24.228   7.348
 5133POPC   C1B67123  28.519  24.760   6.193
 5133POPC   C2B67124  28.499  24.562   6.630
 5133POPC   C3B67125  28.571  24.685   7.104
 5133POPC   C4B67126  28.418  24.694   7.569
 5134POPC   NC367127  35.007  20.141   5.308
 5134POPC   PO467128  35.482  19.722   5.329
 5134POPC   GL167129  35.414  19.899   5.714
 5134POPC   GL267130  35.388  20.234   5.664
 5134POPC   C1A67131  35.430  19.920   6.157
 5134POPC   D2A67132  35.293  19.667   6.498
 5134POPC   C3A67133  35.574  19.695   6.817
 5134POPC   C4A67134  35.423  19.765   7.200
 5134POPC   C1B67135  35.117  20.317   6.048
 5134POPC   C2B67136  35.063  20.188   6.506
 5134POPC   C3B67137  35.196  20.248   6.971
 5134POPC   C4B67138  35.373  20.249   7.406
 5135POPC   NC367139  34.696  30.082   5.394
 5135POPC   PO467140  34.233  29.540   5.385
 5135POPC   GL167141  34.507  29.673   5.708
 5135POPC   GL267142  34.428  30.033   5.810
 5135POPC   C1A67143  34.520  29.681   6.158
 5135POPC   D2A67144  34.591  29.836   6.549
 5135POPC   C3A67145  34.404  29.647   6.866
 5135POPC   C4A67146  34.347  29.644   7.269
 5135POPC   C1B67147  34.452  30.216   6.202
 5135POPC   C2B67148  34.525  30.342   6.604
 5135POPC   C3B67149  34.271  30.198   6.919
 5135POPC   C4B67150  34.458  30.149   7.279
 5136POPC   NC367151  12.369  22.593   5.555
 5136POPC   PO467152  11.898  23.096   5.440
 5136POPC   GL167153  12.024  23.022   5.842
 5136POPC   GL267154  12.014  22.685   5.891
 5136POPC   C1A67155  12.185  23.006   6.259
 5136POPC   D2A67156  11.917  23.155   6.614
 5136POPC   C3A67157  11.786  23.055   7.031
 5136POPC   C4A67158  12.189  22.949   7.126
 5136POPC   C1B67159  11.833  22.637   6.305
 5136POPC   C2B67160  11.733  22.674   6.726
 5136POPC   C3B67161  11.858  22.542   7.176
 5136POPC   C4B67162  11.714  22.603   7.624
 5137POPC   NC367163   7.702  22.073   5.465
 5137POPC   PO467164   8.291  22.278   5.659
 5137POPC   GL167165   8.095  21.966   5.916
 5137POPC   GL267166   7.754  21.792   5.894
 5137POPC   C1A67167   8.186  22.052   6.346
 5137POPC   D2A67168   8.355  22.322   6.662
 5137POPC   C3A67169   8.362  22.145   7.027
 5137POPC   C4A67170   8.176  22.357   7.309
 5137POPC   C1B67171   7.721  21.841   6.348
 5137POPC   C2B67172   7.874  21.865   6.777
 5137POPC   C3B67173   7.975  21.874   7.240
 5137POPC   C4B67174   7.907  21.917   7.720
 5138POPC   NC367175  12.681  19.031   5.679
 5138POPC   PO467176  13.214  18.806   5.357
 5138POPC   GL167177  13.176  18.988   5.814
 5138POPC   GL267178  13.040  19.347   5.914
 5138POPC   C1A67179  12.980  18.884   6.248
 5138POPC   D2A67180  12.592  18.957   6.497
 5138POPC   C3A67181  12.674  19.290   6.823
 5138POPC   C4A67182  12.871  19.100   7.190
 5138POPC   C1B67183  13.315  19.269   6.280
 5138POPC   C2B67184  13.201  19.113   6.709
 5138POPC   C3B67185  13.310  19.329   7.086
 5138POPC   C4B67186  13.120  19.432   7.492
 5139POPC   NC367187  32.127  23.387   5.506
 5139POPC   PO467188  31.994  23.988   5.226
 5139POPC   GL167189  32.352  23.831   5.638
 5139POPC   GL267190  32.300  23.484   5.940
 5139POPC   C1A67191  32.443  23.908   6.102
 5139POPC   D2A67192  32.219  23.758   6.450
 5139POPC   C3A67193  32.282  24.025   6.793
 5139POPC   C4A67194  32.112  24.015   7.150
 5139POPC   C1B67195  32.622  23.400   6.205
 5139POPC   C2B67196  32.718  23.644   6.526
 5139POPC   C3B67197  32.490  23.550   6.881
 5139POPC   C4B67198  32.418  23.566   7.288
 5140POPC   NC367199   4.006   2.982   5.433
 5140POPC   PO467200   4.507   2.584   5.427
 5140POPC   GL167201   4.430   2.540   5.852
 5140POPC   GL267202   4.119   2.690   5.834
 5140POPC   C1A67203   4.362   2.495   6.307
 5140POPC   D2A67204   4.527   2.747   6.612
 5140POPC   C3A67205   4.709   2.599   6.993
 5140POPC   C4A67206   4.546   2.746   7.389
 5140POPC   C1B67207   3.865   2.528   6.157
 5140POPC   C2B67208   3.928   2.596   6.598
 5140POPC   C3B67209   4.148   2.664   6.980
 5140POPC   C4B67210   4.069   2.910   7.336
 5141POPC   NC367211   3.686  43.662   5.585
 5141POPC   PO467212   4.016  44.224   5.483
 5141POPC   GL167213   3.859  44.056   5.864
 5141POPC   GL267214   3.503  44.050   5.910
 5141POPC   C1A67215   3.857  43.799   6.247
 5141POPC   D2A67216   3.774  43.953   6.662
 5141POPC   C3A67217   3.756  43.766   7.076
 5141POPC   C4A67218   3.748  43.886   7.530
 5141POPC   C1B67219   3.358  43.905   6.337
 5141POPC   C2B67220   3.302  43.850   6.822
 5141POPC   C3B67221   3.316  43.982   7.267
 5141POPC   C4B67222   2.970  44.059   7.553
 5142POPC   NC367223   3.183   1.247   5.222
 5142POPC   PO467224   3.796   0.983   5.369
 5142POPC   GL167225   3.703   1.168   5.836
 5142POPC   GL267226   3.372   1.235   5.760
 5142POPC   C1A67227   3.545   1.283   6.315
 5142POPC   D2A67228   3.252   1.568   6.641
 5142POPC   C3A67229   3.367   1.633   7.113
 5142POPC   C4A67230   3.797   1.535   7.314
 5142POPC   C1B67231   3.164   0.959   6.083
 5142POPC   C2B67232   3.180   0.978   6.542
 5142POPC   C3B67233   3.465   1.157   6.865
 5142POPC   C4B67234   3.422   1.176   7.306
 5143POPC   NC367235   9.188  35.874   5.572
 5143POPC   PO467236   8.724  36.334   5.292
 5143POPC   GL167237   8.790  36.287   5.774
 5143POPC   GL267238   9.172  36.307   5.873
 5143POPC   C1A67239   8.850  36.459   6.214
 5143POPC   D2A67240   9.161  36.423   6.536
 5143POPC   C3A67241   9.025  36.293   6.923
 5143POPC   C4A67242   8.915  36.231   7.334
 5143POPC   C1B67243   9.092  36.012   6.203
 5143POPC   C2B67244   8.980  35.895   6.592
 5143POPC   C3B67245   9.098  35.770   6.984
 5143POPC   C4B67246   9.044  35.738   7.418
 5144POPC   NC367247  22.614   6.242   5.290
 5144POPC   PO467248  22.924   5.627   5.325
 5144POPC   GL167249  22.823   5.828   5.715
 5144POPC   GL267250  23.158   5.968   5.782
 5144POPC   C1A67251  22.799   5.885   6.170
 5144POPC   D2A67252  22.586   5.967   6.561
 5144POPC   C3A67253  22.825   6.071   6.918
 5144POPC   C4A67254  22.669   5.778   7.175
 5144POPC   C1B67255  23.281   5.710   6.154
 5144POPC   C2B67256  23.220   5.820   6.605
 5144POPC   C3B67257  23.141   5.664   7.015
 5144POPC   C4B67258  23.247   5.253   7.138
 5145POPC   NC367259  44.910   1.371   5.532
 5145POPC   PO467260  44.458   0.901   5.412
 5145POPC   GL167261  44.376   1.138   5.787
 5145POPC   GL267262  44.497   1.450   5.832
 5145POPC   C1A67263  44.264   1.135   6.198
 5145POPC   D2A67264  44.468   1.138   6.587
 5145POPC   C3A67265  44.283   1.065   6.963
 5145POPC   C4A67266  44.500   1.254   7.255
 5145POPC   C1B67267  44.784   1.229   6.163
 5145POPC   C2B67268  44.970   1.028   6.556
 5145POPC   C3B67269  44.931   1.150   6.988
 5145POPC   C4B67270  44.944   1.488   7.327
 5146POPC   NC367271  22.700   0.408   5.478
 5146POPC   PO467272  23.143  44.927   5.518
 5146POPC   GL167273  22.820  44.964   5.840
 5146POPC   GL267274  22.759   0.339   5.975
 5146POPC   C1A67275  22.961  44.986   6.271
 5146POPC   D2A67276  22.928   0.374   6.531
 5146POPC   C3A67277  23.002   0.341   6.964
 5146POPC   C4A67278  23.008  44.920   7.093
 5146POPC   C1B67279  22.489   0.534   6.329
 5146POPC   C2B67280  22.533   0.596   6.805
 5146POPC   C3B67281  22.706   0.702   7.207
 5146POPC   C4B67282  22.627   0.662   7.644
 5147POPC   NC367283   8.005   0.853   5.476
 5147POPC   PO467284   8.188   0.297   5.169
 5147POPC   GL167285   8.277   0.442   5.621
 5147POPC   GL267286   7.966   0.415   5.751
 5147POPC   C1A67287   8.408   0.435   6.078
 5147POPC   D2A67288   8.595   0.448   6.510
 5147POPC   C3A67289   8.380   0.214   6.846
 5147POPC   C4A67290   8.410   0.318   7.269
 5147POPC   C1B67291   7.895   0.394   6.187
 5147POPC   C2B67292   8.042   0.529   6.600
 5147POPC   C3B67293   7.864   0.377   7.004
 5147POPC   C4B67294   7.963   0.465   7.442
 5148POPC   NC367295  19.524   2.666   5.383
 5148POPC   PO467296  18.834   2.927   5.396
 5148POPC   GL167297  19.043   2.597   5.702
 5148POPC   GL267298  18.861   2.260   5.740
 5148POPC   C1A67299  19.275   2.650   6.127
 5148POPC   D2A67300  19.402   2.818   6.545
 5148POPC   C3A67301  19.211   2.791   6.944
 5148POPC   C4A67302  18.853   2.975   7.145
 5148POPC   C1B67303  18.782   2.466   6.151
 5148POPC   C2B67304  18.857   2.710   6.563
 5148POPC   C3B67305  18.819   2.483   6.977
 5148POPC   C4B67306  19.077   2.375   7.282
 5149POPC   NC367307  20.994  29.300   5.401
 5149POPC   PO467308  21.527  29.104   5.042
 5149POPC   GL167309  21.586  29.023   5.551
 5149POPC   GL267310  21.278  29.016   5.755
 5149POPC   C1A67311  21.680  29.150   6.034
 5149POPC   D2A67312  21.450  29.368   6.424
 5149POPC   C3A67313  21.651  29.499   6.844
 5149POPC   C4A67314  21.857  29.322   7.227
 5149POPC   C1B67315  21.326  28.853   6.215
 5149POPC   C2B67316  21.636  28.892   6.541
 5149POPC   C3B67317  21.551  28.987   6.956
 5149POPC   C4B67318  21.143  28.834   7.136
 5150POPC   NC367319  37.418  22.243   5.343
 5150POPC   PO467320  37.712  21.768   5.525
 5150POPC   GL167321  37.703  22.072   5.833
 5150POPC   GL267322  37.453  22.320   5.834
 5150POPC   C1A67323  37.944  22.081   6.169
 5150POPC   D2A67324  37.827  22.057   6.550
 5150POPC   C3A67325  37.932  21.898   6.924
 5150POPC   C4A67326  37.620  21.803   7.226
 5150POPC   C1B67327  37.435  22.199   6.241
 5150POPC   C2B67328  37.424  22.378   6.584
 5150POPC   C3B67329  37.545  22.230   6.938
 5150POPC   C4B67330  37.582  22.347   7.320
 5151POPC   NC367331  14.115  18.046   5.626
 5151POPC   PO467332  14.679  18.299   5.339
 5151POPC   GL167333  14.521  18.298   5.830
 5151POPC   GL267334  14.196  18.457   5.940
 5151POPC   C1A67335  14.468  18.354   6.340
 5151POPC   D2A67336  14.134  18.265   6.635
 5151POPC   C3A67337  14.224  18.357   7.047
 5151POPC   C4A67338  14.633  18.446   7.207
 5151POPC   C1B67339  14.064  18.709   6.315
 5151POPC   C2B67340  14.175  18.799   6.759
 5151POPC   C3B67341  14.172  18.849   7.203
 5151POPC   C4B67342  13.831  18.582   7.334
 5152POPC   NC367343  42.855   3.198   5.335
 5152POPC   PO467344  43.256   3.769   5.200
 5152POPC   GL167345  43.226   3.610   5.647
 5152POPC   GL267346  42.948   3.398   5.775
 5152POPC   C1A67347  43.265   3.553   6.136
 5152POPC   D2A67348  43.337   3.337   6.533
 5152POPC   C3A67349  43.171   3.546   6.915
 5152POPC   C4A67350  43.380   3.750   7.250
 5152POPC   C1B67351  42.904   3.179   6.168
 5152POPC   C2B67352  42.832   3.227   6.611
 5152POPC   C3B67353  42.878   3.148   7.051
 5152POPC   C4B67354  42.605   3.042   7.383
 5153POPC   NC367355  39.145  14.271   5.182
 5153POPC   PO467356  39.655  14.086   5.571
 5153POPC   GL167357  39.279  14.199   5.752
 5153POPC   GL267358  38.969  14.024   5.663
 5153POPC   C1A67359  39.230  14.441   6.136
 5153POPC   D2A67360  39.403  14.630   6.527
 5153POPC   C3A67361  39.378  14.511   6.990
 5153POPC   C4A67362  39.466  14.605   7.462
 5153POPC   C1B67363  38.974  13.993   6.121
 5153POPC   C2B67364  39.107  14.151   6.543
 5153POPC   C3B67365  39.101  14.061   6.968
 5153POPC   C4B67366  39.227  14.173   7.359
 5154POPC   NC367367   8.305  17.737   5.318
 5154POPC   PO467368   8.083  17.103   5.364
 5154POPC   GL167369   8.181  17.351   5.714
 5154POPC   GL267370   7.955  17.618   5.741
 5154POPC   C1A67371   8.172  17.402   6.183
 5154POPC   D2A67372   8.123  17.124   6.550
 5154POPC   C3A67373   8.241  17.170   6.964
 5154POPC   C4A67374   8.285  17.350   7.358
 5154POPC   C1B67375   7.876  17.831   6.151
 5154POPC   C2B67376   8.065  17.796   6.569
 5154POPC   C3B67377   8.145  17.676   6.999
 5154POPC   C4B67378   8.091  17.826   7.463
 5155POPC   NC367379   7.347   9.238   5.120
 5155POPC   PO467380   6.717   8.908   5.305
 5155POPC   GL167381   6.645   8.992   5.793
 5155POPC   GL267382   6.443   9.298   5.919
 5155POPC   C1A67383   6.812   9.097   6.224
 5155POPC   D2A67384   6.664   9.302   6.615
 5155POPC   C3A67385   6.771   9.100   7.021
 5155POPC   C4A67386   6.779   9.057   7.475
 5155POPC   C1B67387   6.310   9.064   6.288
 5155POPC   C2B67388   6.182   9.112   6.707
 5155POPC   C3B67389   6.273   9.092   7.129
 5155POPC   C4B67390   6.391   9.408   7.449
 5156POPC   NC367391  40.633   5.375   5.640
 5156POPC   PO467392  40.632   6.022   5.407
 5156POPC   GL167393  40.768   5.854   5.864
 5156POPC   GL267394  40.879   5.544   6.044
 5156POPC   C1A67395  41.004   5.977   6.259
 5156POPC   D2A67396  41.090   5.730   6.613
 5156POPC   C3A67397  40.966   5.893   7.014
 5156POPC   C4A67398  40.890   6.071   7.442
 5156POPC   C1B67399  40.559   5.629   6.377
 5156POPC   C2B67400  40.505   5.689   6.847
 5156POPC   C3B67401  40.560   5.715   7.288
 5156POPC   C4B67402  40.542   5.635   7.752
 5157POPC   NC367403  36.494  30.171   5.582
 5157POPC   PO467404  36.945  29.812   5.312
 5157POPC   GL167405  36.936  29.971   5.774
 5157POPC   GL267406  36.928  29.648   5.937
 5157POPC   C1A67407  36.687  30.102   6.209
 5157POPC   D2A67408  36.514  30.266   6.646
 5157POPC   C3A67409  36.729  30.104   7.030
 5157POPC   C4A67410  37.197  30.063   7.129
 5157POPC   C1B67411  37.130  29.862   6.297
 5157POPC   C2B67412  37.017  29.794   6.733
 5157POPC   C3B67413  36.897  29.648   7.173
 5157POPC   C4B67414  36.978  29.491   7.604
 5158POPC   NC367415  28.989  23.720   5.558
 5158POPC   PO467416  29.574  23.993   5.438
 5158POPC   GL167417  29.429  23.858   5.814
 5158POPC   GL267418  29.398  23.535   5.791
 5158POPC   C1A67419  29.256  23.909   6.223
 5158POPC   D2A67420  29.261  24.121   6.642
 5158POPC   C3A67421  29.211  23.792   6.951
 5158POPC   C4A67422  29.288  23.572   7.349
 5158POPC   C1B67423  29.204  23.371   6.144
 5158POPC   C2B67424  29.133  23.489   6.558
 5158POPC   C3B67425  29.021  23.298   6.954
 5158POPC   C4B67426  28.943  23.178   7.369
 5159POPC   NC367427  22.197  40.539   5.344
 5159POPC   PO467428  22.332  41.152   5.161
 5159POPC   GL167429  22.477  40.909   5.614
 5159POPC   GL267430  22.403  40.534   5.793
 5159POPC   C1A67431  22.374  40.918   6.106
 5159POPC   D2A67432  22.029  40.926   6.435
 5159POPC   C3A67433  22.133  40.843   6.874
 5159POPC   C4A67434  22.172  41.128   7.222
 5159POPC   C1B67435  22.066  40.475   6.131
 5159POPC   C2B67436  21.998  40.430   6.568
 5159POPC   C3B67437  21.857  40.406   7.015
 5159POPC   C4B67438  22.023  40.645   7.340
 5160POPC   NC367439  30.347   0.412   5.660
 5160POPC   PO467440  30.838   0.159   5.342
 5160POPC   GL167441  30.848   0.279   5.802
 5160POPC   GL267442  30.671   0.016   5.954
 5160POPC   C1A67443  30.646   0.432   6.233
 5160POPC   D2A67444  30.770   0.473   6.645
 5160POPC   C3A67445  30.486   0.538   6.985
 5160POPC   C4A67446  30.588   0.574   7.416
 5160POPC   C1B67447  30.440  44.970   6.336
 5160POPC   C2B67448  30.568   0.026   6.776
 5160POPC   C3B67449  30.596   0.092   7.198
 5160POPC   C4B67450  30.357   0.147   7.601
 5161POPC   NC367451   2.449  28.522   5.417
 5161POPC   PO467452   1.774  28.425   5.324
 5161POPC   GL167453   2.022  28.467   5.699
 5161POPC   GL267454   2.213  28.154   5.725
 5161POPC   C1A67455   2.205  28.464   6.125
 5161POPC   D2A67456   2.235  28.195   6.514
 5161POPC   C3A67457   2.220  28.427   6.900
 5161POPC   C4A67458   1.878  28.475   7.164
 5161POPC   C1B67459   1.833  28.133   6.040
 5161POPC   C2B67460   1.744  28.041   6.443
 5161POPC   C3B67461   1.609  28.155   6.823
 5161POPC   C4B67462   1.589  28.045   7.230
 5162POPC   NC367463  42.634   9.766   5.345
 5162POPC   PO467464  41.971   9.752   5.357
 5162POPC   GL167465  42.149   9.621   5.785
 5162POPC   GL267466  42.508   9.547   5.787
 5162POPC   C1A67467  42.264   9.716   6.200
 5162POPC   D2A67468  42.339   9.904   6.560
 5162POPC   C3A67469  42.102   9.712   6.852
 5162POPC   C4A67470  42.283   9.797   7.204
 5162POPC   C1B67471  42.605   9.320   6.176
 5162POPC   C2B67472  42.376   9.336   6.556
 5162POPC   C3B67473  42.490   9.369   6.952
 5162POPC   C4B67474  42.681   9.511   7.322
 5163POPC   NC367475  22.460   5.345   5.617
 5163POPC   PO467476  22.765   4.825   5.425
 5163POPC   GL167477  22.843   5.056   5.810
 5163POPC   GL267478  23.161   4.989   5.911
 5163POPC   C1A67479  22.921   5.333   6.203
 5163POPC   D2A67480  23.073   5.296   6.652
 5163POPC   C3A67481  22.754   5.309   7.001
 5163POPC   C4A67482  22.489   5.057   7.246
 5163POPC   C1B67483  22.881   4.818   6.268
 5163POPC   C2B67484  22.761   4.877   6.727
 5163POPC   C3B67485  22.954   4.829   7.150
 5163POPC   C4B67486  23.218   4.702   7.508
 5164POPC   NC367487  17.607   2.977   5.403
 5164POPC   PO467488  17.349   2.391   5.347
 5164POPC   GL167489  17.418   2.473   5.772
 5164POPC   GL267490  17.693   2.692   5.827
 5164POPC   C1A67491  17.487   2.385   6.219
 5164POPC   D2A67492  17.567   2.507   6.660
 5164POPC   C3A67493  17.376   2.620   7.056
 5164POPC   C4A67494  17.493   3.016   7.303
 5164POPC   C1B67495  17.516   2.884   6.246
 5164POPC   C2B67496  17.222   2.896   6.639
 5164POPC   C3B67497  17.071   3.091   7.046
 5164POPC   C4B67498  17.094   3.306   7.467
 5165POPC   NC367499  34.893  17.380   5.456
 5165POPC   PO467500  34.353  17.764   5.401
 5165POPC   GL167501  34.373  17.539   5.761
 5165POPC   GL267502  34.720  17.580   5.895
 5165POPC   C1A67503  34.319  17.621   6.174
 5165POPC   D2A67504  34.629  17.614   6.462
 5165POPC   C3A67505  34.474  17.546   6.798
 5165POPC   C4A67506  34.463  17.319   7.172
 5165POPC   C1B67507  34.902  17.274   6.188
 5165POPC   C2B67508  34.943  17.256   6.648
 5165POPC   C3B67509  34.914  17.519   7.030
 5165POPC   C4B67510  34.820  17.503   7.489
 5166POPC   NC367511   0.962  30.581   5.490
 5166POPC   PO467512   1.380  31.131   5.475
 5166POPC   GL167513   1.180  30.913   5.872
 5166POPC   GL267514   1.148  30.521   5.949
 5166POPC   C1A67515   1.319  30.809   6.325
 5166POPC   D2A67516   1.277  30.626   6.746
 5166POPC   C3A67517   1.315  30.903   7.113
 5166POPC   C4A67518   0.979  30.963   7.423
 5166POPC   C1B67519   1.442  30.306   6.207
 5166POPC   C2B67520   1.437  30.115   6.594
 5166POPC   C3B67521   1.424  30.204   7.000
 5166POPC   C4B67522   1.606  30.491   7.199
 5167POPC   NC367523  15.549  12.660   5.448
 5167POPC   PO467524  15.924  13.203   5.224
 5167POPC   GL167525  15.866  13.051   5.644
 5167POPC   GL267526  16.013  12.697   5.665
 5167POPC   C1A67527  15.927  13.134   6.094
 5167POPC   D2A67528  16.039  12.970   6.502
 5167POPC   C3A67529  15.890  13.153   6.899
 5167POPC   C4A67530  15.839  12.961   7.280
 5167POPC   C1B67531  15.952  12.600   6.100
 5167POPC   C2B67532  15.780  12.517   6.504
 5167POPC   C3B67533  15.939  12.616   6.900
 5167POPC   C4B67534  15.904  12.474   7.313
 5168POPC   NC367535  26.315  12.542   5.613
 5168POPC   PO467536  26.175  11.927   5.378
 5168POPC   GL167537  25.938  11.984   5.741
 5168POPC   GL267538  25.989  12.279   5.894
 5168POPC   C1A67539  25.950  11.834   6.177
 5168POPC   D2A67540  26.248  11.749   6.507
 5168POPC   C3A67541  26.165  11.817   6.937
 5168POPC   C4A67542  26.203  11.832   7.400
 5168POPC   C1B67543  25.724  12.296   6.237
 5168POPC   C2B67544  25.831  12.155   6.655
 5168POPC   C3B67545  26.083  12.312   7.013
 5168POPC   C4B67546  25.989  12.295   7.446
 5169POPC   NC367547   2.965  32.605   5.394
 5169POPC   PO467548   2.536  32.130   5.161
 5169POPC   GL167549   2.559  32.296   5.632
 5169POPC   GL267550   2.876  32.384   5.849
 5169POPC   C1A67551   2.476  32.182   6.093
 5169POPC   D2A67552   2.826  32.130   6.393
 5169POPC   C3A67553   2.803  32.246   6.832
 5169POPC   C4A67554   2.666  32.177   7.255
 5169POPC   C1B67555   3.151  32.513   6.197
 5169POPC   C2B67556   3.103  32.653   6.640
 5169POPC   C3B67557   3.247  32.446   7.026
 5169POPC   C4B67558   3.130  32.441   7.464
 5170POPC   NC367559  39.740   9.864   5.471
 5170POPC   PO467560  40.334   9.571   5.502
 5170POPC   GL167561  40.080   9.676   5.856
 5170POPC   GL267562  39.716   9.699   5.963
 5170POPC   C1A67563  40.117   9.609   6.280
 5170POPC   D2A67564  39.950   9.786   6.635
 5170POPC   C3A67565  40.180   9.614   6.935
 5170POPC   C4A67566  40.044   9.855   7.248
 5170POPC   C1B67567  39.788  10.071   6.226
 5170POPC   C2B67568  39.621  10.280   6.611
 5170POPC   C3B67569  39.763  10.223   7.061
 5170POPC   C4B67570  39.661  10.122   7.525
 5171POPC   NC367571  24.767  18.295   5.545
 5171POPC   PO467572  24.306  17.954   5.399
 5171POPC   GL167573  24.317  18.238   5.771
 5171POPC   GL267574  24.364  18.638   5.703
 5171POPC   C1A67575  24.488  18.098   6.181
 5171POPC   D2A67576  24.439  17.828   6.565
 5171POPC   C3A67577  24.580  18.086   6.923
 5171POPC   C4A67578  24.690  18.508   7.053
 5171POPC   C1B67579  24.525  18.647   6.163
 5171POPC   C2B67580  24.389  18.671   6.641
 5171POPC   C3B67581  24.180  18.518   7.062
 5171POPC   C4B67582  24.051  18.511   7.513
 5172POPC   NC367583  34.851  23.956   5.489
 5172POPC   PO467584  34.249  23.478   5.362
 5172POPC   GL167585  34.215  23.520   5.796
 5172POPC   GL267586  34.409  23.812   5.756
 5172POPC   C1A67587  34.459  23.433   6.198
 5172POPC   D2A67588  34.390  23.462   6.662
 5172POPC   C3A67589  34.697  23.607   6.999
 5172POPC   C4A67590  34.509  23.748   7.377
 5172POPC   C1B67591  34.620  23.944   6.137
 5172POPC   C2B67592  34.745  23.879   6.567
 5172POPC   C3B67593  34.636  24.121   6.959
 5172POPC   C4B67594  34.860  24.095   7.346
 5173POPC   NC367595  30.807  11.673   5.264
 5173POPC   PO467596  30.531  12.337   5.419
 5173POPC   GL167597  30.518  12.075   5.812
 5173POPC   GL267598  30.795  11.874   5.816
 5173POPC   C1A67599  30.569  12.205   6.231
 5173POPC   D2A67600  30.791  12.167   6.614
 5173POPC   C3A67601  30.619  11.917   6.927
 5173POPC   C4A67602  30.434  12.240   7.134
 5173POPC   C1B67603  30.755  11.749   6.258
 5173POPC   C2B67604  31.005  11.691   6.584
 5173POPC   C3B67605  31.121  11.931   6.919
 5173POPC   C4B67606  30.995  11.716   7.234
 5174POPC   NC367607   4.785   3.103   5.455
 5174POPC   PO467608   4.235   3.406   5.432
 5174POPC   GL167609   4.128   3.259   5.844
 5174POPC   GL267610   4.445   3.070   5.917
 5174POPC   C1A67611   4.117   3.460   6.260
 5174POPC   D2A67612   4.371   3.698   6.564
 5174POPC   C3A67613   4.300   3.580   6.981
 5174POPC   C4A67614   3.967   3.358   7.133
 5174POPC   C1B67615   4.152   2.958   6.272
 5174POPC   C2B67616   4.143   3.108   6.699
 5174POPC   C3B67617   4.461   3.093   7.016
 5174POPC   C4B67618   4.767   3.400   7.178
 5175POPC   NC367619  10.694   0.821   5.349
 5175POPC   PO467620  10.375   1.435   5.394
 5175POPC   GL167621  10.610   1.297   5.834
 5175POPC   GL267622  10.519   1.023   5.861
 5175POPC   C1A67623  10.741   0.986   6.292
 5175POPC   D2A67624  10.607   0.782   6.679
 5175POPC   C3A67625  10.909   0.967   6.948
 5175POPC   C4A67626  10.997   1.208   7.277
 5175POPC   C1B67627  10.348   1.284   6.264
 5175POPC   C2B67628  10.348   1.237   6.717
 5175POPC   C3B67629  10.461   1.169   7.120
 5175POPC   C4B67630  10.526   0.752   7.196
 5176POPC   NC367631  22.852  34.548   5.074
 5176POPC   PO467632  23.262  34.978   5.393
 5176POPC   GL167633  23.040  34.831   5.791
 5176POPC   GL267634  22.940  34.459   5.840
 5176POPC   C1A67635  22.906  34.824   6.233
 5176POPC   D2A67636  22.879  34.636   6.643
 5176POPC   C3A67637  22.978  34.840   7.016
 5176POPC   C4A67638  22.795  34.603   7.305
 5176POPC   C1B67639  22.919  34.299   6.267
 5176POPC   C2B67640  22.634  34.193   6.620
 5176POPC   C3B67641  22.729  34.149   7.063
 5176POPC   C4B67642  23.086  34.187   7.396
 5177POPC   NC367643  18.116  43.953   5.502
 5177POPC   PO467644  18.738  43.604   5.473
 5177POPC   GL167645  18.472  43.730   5.817
 5177POPC   GL267646  18.566  44.056   5.919
 5177POPC   C1A67647  18.277  43.736   6.234
 5177POPC   D2A67648  18.029  43.814   6.592
 5177POPC   C3A67649  18.230  43.764   7.006
 5177POPC   C4A67650  18.081  43.578   7.363
 5177POPC   C1B67651  18.616  44.183   6.335
 5177POPC   C2B67652  18.443  44.152   6.729
 5177POPC   C3B67653  18.435  44.228   7.171
 5177POPC   C4B67654  18.223  44.072   7.486
 5178POPC   NC367655  24.900   7.432   5.479
 5178POPC   PO467656  24.206   7.572   5.554
 5178POPC   GL167657  24.534   7.490   5.856
 5178POPC   GL267658  24.684   7.185   5.888
 5178POPC   C1A67659  24.741   7.580   6.233
 5178POPC   D2A67660  24.542   7.649   6.592
 5178POPC   C3A67661  24.657   7.509   6.994
 5178POPC   C4A67662  24.467   7.546   7.380
 5178POPC   C1B67663  24.488   7.110   6.274
 5178POPC   C2B67664  24.434   7.139   6.714
 5178POPC   C3B67665  24.362   7.096   7.158
 5178POPC   C4B67666  24.223   7.190   7.609
 5179POPC   NC367667  36.343  25.460   5.542
 5179POPC   PO467668  35.824  24.993   5.397
 5179POPC   GL167669  35.929  25.053   5.831
 5179POPC   GL267670  36.269  25.126   5.934
 5179POPC   C1A67671  35.881  25.371   6.175
 5179POPC   D2A67672  35.998  25.629   6.543
 5179POPC   C3A67673  35.759  25.438   6.853
 5179POPC   C4A67674  35.777  25.301   7.300
 5179POPC   C1B67675  36.164  24.910   6.282
 5179POPC   C2B67676  36.023  25.087   6.633
 5179POPC   C3B67677  36.201  25.237   7.028
 5179POPC   C4B67678  36.442  25.199   7.409
 5180POPC   NC367679  43.431  13.877   5.480
 5180POPC   PO467680  43.166  13.321   5.376
 5180POPC   GL167681  43.299  13.444   5.836
 5180POPC   GL267682  43.519  13.733   5.970
 5180POPC   C1A67683  43.189  13.542   6.307
 5180POPC   D2A67684  43.353  13.624   6.744
 5180POPC   C3A67685  43.037  13.656   7.108
 5180POPC   C4A67686  42.733  13.711   7.483
 5180POPC   C1B67687  43.650  13.336   6.206
 5180POPC   C2B67688  43.569  13.145   6.613
 5180POPC   C3B67689  43.627  13.300   7.058
 5180POPC   C4B67690  43.336  13.367   7.405
 5181POPC   NC367691   9.982  12.200   5.492
 5181POPC   PO467692   9.289  12.038   5.463
 5181POPC   GL167693   9.583  12.040   5.856
 5181POPC   GL267694   9.928  11.961   5.941
 5181POPC   C1A67695   9.580  11.917   6.323
 5181POPC   D2A67696   9.484  12.147   6.735
 5181POPC   C3A67697   9.494  11.965   7.131
 5181POPC   C4A67698   9.794  11.650   7.230
 5181POPC   C1B67699  10.127  11.846   6.349
 5181POPC   C2B67700   9.936  11.863   6.779
 5181POPC   C3B67701   9.905  12.234   7.065
 5181POPC   C4B67702  10.139  12.625   7.065
 5182POPC   NC367703   9.920  15.751   5.419
 5182POPC   PO467704   9.351  16.097   5.405
 5182POPC   GL167705   9.615  15.951   5.816
 5182POPC   GL267706   9.973  15.739   5.897
 5182POPC   C1A67707   9.495  15.972   6.251
 5182POPC   D2A67708   9.245  15.969   6.628
 5182POPC   C3A67709   9.550  15.992   6.943
 5182POPC   C4A67710   9.711  16.193   7.272
 5182POPC   C1B67711  10.015  16.002   6.214
 5182POPC   C2B67712   9.927  15.975   6.622
 5182POPC   C3B67713  10.079  15.953   7.039
 5182POPC   C4B67714   9.980  15.761   7.431
 5183POPC   NC367715   4.632  22.271   5.599
 5183POPC   PO467716   4.140  21.927   5.329
 5183POPC   GL167717   4.251  21.913   5.802
 5183POPC   GL267718   4.603  21.924   5.956
 5183POPC   C1A67719   4.190  21.849   6.268
 5183POPC   D2A67720   4.349  22.078   6.653
 5183POPC   C3A67721   4.148  22.149   7.021
 5183POPC   C4A67722   4.119  22.028   7.456
 5183POPC   C1B67723   4.453  22.288   6.213
 5183POPC   C2B67724   4.592  22.525   6.552
 5183POPC   C3B67725   4.426  22.623   6.955
 5183POPC   C4B67726   4.425  22.424   7.351
 5184POPC   NC367727  34.494  26.845   5.335
 5184POPC   PO467728  34.680  26.257   5.417
 5184POPC   GL167729  34.757  26.550   5.745
 5184POPC   GL267730  34.881  26.889   5.708
 5184POPC   C1A67731  34.520  26.759   6.091
 5184POPC   D2A67732  34.232  26.817   6.435
 5184POPC   C3A67733  34.432  26.835   6.822
 5184POPC   C4A67734  34.460  26.559   7.187
 5184POPC   C1B67735  34.882  27.122   6.115
 5184POPC   C2B67736  34.596  27.243   6.448
 5184POPC   C3B67737  34.776  27.243   6.858
 5184POPC   C4B67738  34.656  27.039   7.234
 5185POPC   NC367739  31.674  38.879   5.424
 5185POPC   PO467740  31.154  39.261   5.335
 5185POPC   GL167741  31.460  39.234   5.746
 5185POPC   GL267742  31.738  39.019   5.897
 5185POPC   C1A67743  31.369  39.195   6.218
 5185POPC   D2A67744  31.194  39.441   6.589
 5185POPC   C3A67745  31.533  39.511   6.867
 5185POPC   C4A67746  31.434  39.167   7.128
 5185POPC   C1B67747  31.796  38.829   6.316
 5185POPC   C2B67748  31.850  38.961   6.752
 5185POPC   C3B67749  31.888  38.953   7.213
 5185POPC   C4B67750  31.680  38.895   7.633
 5186POPC   NC367751  37.375  15.087   5.558
 5186POPC   PO467752  36.623  15.206   5.414
 5186POPC   GL167753  36.598  15.248   5.842
 5186POPC   GL267754  36.944  15.083   5.843
 5186POPC   C1A67755  36.815  15.444   6.195
 5186POPC   D2A67756  37.174  15.367   6.429
 5186POPC   C3A67757  37.115  15.410   6.853
 5186POPC   C4A67758  37.011  15.224   7.271
 5186POPC   C1B67759  36.771  14.895   6.207
 5186POPC   C2B67760  36.851  15.011   6.620
 5186POPC   C3B67761  37.019  14.820   6.961
 5186POPC   C4B67762  36.820  14.764   7.356
 5187POPC   NC367763  10.150   1.807   5.210
 5187POPC   PO467764   9.475   1.618   5.554
 5187POPC   GL167765   9.746   1.670   5.869
 5187POPC   GL267766  10.062   1.708   5.714
 5187POPC   C1A67767   9.661   1.808   6.311
 5187POPC   D2A67768   9.900   2.025   6.646
 5187POPC   C3A67769   9.692   2.069   7.040
 5187POPC   C4A67770   9.369   2.374   7.168
 5187POPC   C1B67771  10.165   1.745   6.164
 5187POPC   C2B67772  10.296   1.718   6.608
 5187POPC   C3B67773  10.142   1.728   7.043
 5187POPC   C4B67774   9.780   1.689   7.374
 5188POPC   NC367775  30.109  36.515   5.385
 5188POPC   PO467776  29.574  36.810   5.489
 5188POPC   GL167777  29.870  36.817   5.799
 5188POPC   GL267778  29.867  37.174   5.854
 5188POPC   C1A67779  30.058  36.876   6.204
 5188POPC   D2A67780  29.847  36.973   6.559
 5188POPC   C3A67781  30.085  36.879   6.895
 5188POPC   C4A67782  29.952  36.745   7.274
 5188POPC   C1B67783  29.552  37.212   6.205
 5188POPC   C2B67784  29.538  37.372   6.674
 5188POPC   C3B67785  29.642  37.117   7.068
 5188POPC   C4B67786  29.780  37.115   7.551
 5189POPC   NC367787  43.548  10.627   5.408
 5189POPC   PO467788  42.907  10.172   5.344
 5189POPC   GL167789  43.008  10.466   5.711
 5189POPC   GL267790  43.295  10.362   5.824
 5189POPC   C1A67791  43.066  10.629   6.176
 5189POPC   D2A67792  43.216  10.470   6.590
 5189POPC   C3A67793  43.162  10.761   6.916
 5189POPC   C4A67794  43.372  10.885   7.272
 5189POPC   C1B67795  43.216  10.130   6.201
 5189POPC   C2B67796  43.202   9.932   6.614
 5189POPC   C3B67797  43.253  10.138   7.002
 5189POPC   C4B67798  43.123  10.420   7.302
 5190POPC   NC367799  21.248  11.089   5.244
 5190POPC   PO467800  21.585  11.471   5.676
 5190POPC   GL167801  21.431  11.085   5.797
 5190POPC   GL267802  21.068  11.100   5.764
 5190POPC   C1A67803  21.335  11.013   6.230
 5190POPC   D2A67804  21.349  11.288   6.600
 5190POPC   C3A67805  21.249  11.140   7.021
 5190POPC   C4A67806  21.388  11.418   7.379
 5190POPC   C1B67807  21.082  11.464   6.108
 5190POPC   C2B67808  21.034  11.686   6.516
 5190POPC   C3B67809  21.099  11.621   6.966
 5190POPC   C4B67810  20.891  11.391   7.330
 5191POPC   NC367811   6.449  13.936   5.332
 5191POPC   PO467812   6.458  13.335   5.578
 5191POPC   GL167813   6.412  13.730   5.800
 5191POPC   GL267814   6.727  13.852   5.835
 5191POPC   C1A67815   6.298  13.972   6.169
 5191POPC   D2A67816   6.419  14.061   6.597
 5191POPC   C3A67817   6.246  13.815   6.934
 5191POPC   C4A67818   6.464  13.484   7.160
 5191POPC   C1B67819   6.690  13.507   6.199
 5191POPC   C2B67820   6.829  13.306   6.613
 5191POPC   C3B67821   6.954  13.546   6.975
 5191POPC   C4B67822   6.721  13.935   7.091
 5192POPC   NC367823   9.771  20.089   5.279
 5192POPC   PO467824  10.026  19.329   5.374
 5192POPC   GL167825   9.899  19.707   5.687
 5192POPC   GL267826   9.704  20.015   5.763
 5192POPC   C1A67827   9.903  19.768   6.170
 5192POPC   D2A67828   9.659  19.624   6.569
 5192POPC   C3A67829   9.785  19.678   7.021
 5192POPC   C4A67830   9.620  19.914   7.364
 5192POPC   C1B67831   9.684  20.283   6.107
 5192POPC   C2B67832   9.777  20.310   6.531
 5192POPC   C3B67833   9.583  20.179   6.921
 5192POPC   C4B67834   9.720  20.398   7.291
 5193POPC   NC367835  43.979  44.797   5.578
 5193POPC   PO467836  44.084  44.232   5.267
 5193POPC   GL167837  43.793  44.324   5.735
 5193POPC   GL267838  43.595  44.641   5.836
 5193POPC   C1A67839  43.904  44.516   6.227
 5193POPC   D2A67840  44.176  44.773   6.533
 5193POPC   C3A67841  44.070  44.717   6.995
 5193POPC   C4A67842  43.833  44.360   7.198
 5193POPC   C1B67843  43.628  44.949   6.218
 5193POPC   C2B67844  43.675  44.945   6.675
 5193POPC   C3B67845  43.532  44.764   7.068
 5193POPC   C4B67846  43.587  44.884   7.491
 5194POPC   NC367847   9.132  36.491   5.407
 5194POPC   PO467848   9.258  37.179   5.326
 5194POPC   GL167849   9.228  36.919   5.708
 5194POPC   GL267850   8.890  36.794   5.784
 5194POPC   C1A67851   9.267  36.764   6.150
 5194POPC   D2A67852   9.145  36.943   6.563
 5194POPC   C3A67853   9.184  36.777   6.994
 5194POPC   C4A67854   9.258  37.030   7.390
 5194POPC   C1B67855   8.745  36.952   6.206
 5194POPC   C2B67856   8.634  36.740   6.618
 5194POPC   C3B67857   8.599  36.555   7.043
 5194POPC   C4B67858   8.828  36.759   7.384
 5195POPC   NC367859  31.916  28.236   5.018
 5195POPC   PO467860  31.767  28.634   5.480
 5195POPC   GL167861  31.680  28.393   5.828
 5195POPC   GL267862  31.508  28.072   5.761
 5195POPC   C1A67863  31.588  28.523   6.235
 5195POPC   D2A67864  31.259  28.586   6.505
 5195POPC   C3A67865  31.427  28.606   6.872
 5195POPC   C4A67866  31.766  28.411   6.995
 5195POPC   C1B67867  31.702  28.025   6.194
 5195POPC   C2B67868  31.525  28.141   6.619
 5195POPC   C3B67869  31.577  27.965   7.055
 5195POPC   C4B67870  31.625  27.764   7.504
 5196POPC   NC367871  17.113  42.407   5.366
 5196POPC   PO467872  17.737  42.073   5.347
 5196POPC   GL167873  17.558  42.360   5.663
 5196POPC   GL267874  17.247  42.189   5.791
 5196POPC   C1A67875  17.574  42.533   6.093
 5196POPC   D2A67876  17.787  42.634   6.493
 5196POPC   C3A67877  17.504  42.622   6.849
 5196POPC   C4A67878  17.760  42.525   7.195
 5196POPC   C1B67879  17.465  42.015   6.108
 5196POPC   C2B67880  17.458  42.214   6.499
 5196POPC   C3B67881  17.695  42.161   6.843
 5196POPC   C4B67882  17.581  42.053   7.235
 5197POPC   NC367883  42.919  30.986   5.387
 5197POPC   PO467884  42.699  30.330   5.433
 5197POPC   GL167885  42.997  30.553   5.689
 5197POPC   GL267886  43.208  30.269   5.762
 5197POPC   C1A67887  42.984  30.836   6.079
 5197POPC   D2A67888  42.853  30.809   6.538
 5197POPC   C3A67889  43.195  30.875   6.827
 5197POPC   C4A67890  43.251  30.828   7.249
 5197POPC   C1B67891  43.134  30.348   6.183
 5197POPC   C2B67892  43.286  30.440   6.576
 5197POPC   C3B67893  43.199  30.393   6.999
 5197POPC   C4B67894  43.461  30.386   7.354
 5198POPC   NC367895  36.050  35.678   5.430
 5198POPC   PO467896  36.143  35.023   5.234
 5198POPC   GL167897  36.254  35.212   5.686
 5198POPC   GL267898  36.057  35.429   5.970
 5198POPC   C1A67899  36.466  35.199   6.113
 5198POPC   D2A67900  36.598  35.226   6.540
 5198POPC   C3A67901  36.294  35.253   6.860
 5198POPC   C4A67902  36.436  35.351   7.250
 5198POPC   C1B67903  35.676  35.342   6.237
 5198POPC   C2B67904  35.556  35.492   6.623
 5198POPC   C3B67905  35.691  35.365   7.017
 5198POPC   C4B67906  35.958  35.261   7.344
 5199POPC   NC367907  36.357  41.016   5.418
 5199POPC   PO467908  35.740  40.660   5.515
 5199POPC   GL167909  36.065  40.808   5.776
 5199POPC   GL267910  36.282  40.529   5.737
 5199POPC   C1A67911  36.365  40.852   6.136
 5199POPC   D2A67912  36.242  40.916   6.570
 5199POPC   C3A67913  36.457  41.023   6.966
 5199POPC   C4A67914  36.156  41.131   7.276
 5199POPC   C1B67915  36.043  40.446   6.136
 5199POPC   C2B67916  36.089  40.422   6.600
 5199POPC   C3B67917  36.075  40.688   6.989
 5199POPC   C4B67918  35.894  40.605   7.373
 5200POPC   NC367919  17.311  10.908   5.246
 5200POPC   PO467920  17.364  10.311   5.566
 5200POPC   GL167921  17.485  10.678   5.785
 5200POPC   GL267922  17.179  10.874   5.784
 5200POPC   C1A67923  17.738  10.676   6.199
 5200POPC   D2A67924  17.979  10.648   6.587
 5200POPC   C3A67925  17.775  10.646   6.998
 5200POPC   C4A67926  17.612  10.238   7.177
 5200POPC   C1B67927  17.228  10.608   6.213
 5200POPC   C2B67928  17.379  10.471   6.635
 5200POPC   C3B67929  17.251  10.592   7.048
 5200POPC   C4B67930  17.110  10.342   7.379
 5201POPC   NC367931  27.601  22.305   5.424
 5201POPC   PO467932  27.454  21.693   5.398
 5201POPC   GL167933  27.389  21.918   5.769
 5201POPC   GL267934  27.735  21.974   5.838
 5201POPC   C1A67935  27.412  22.185   6.150
 5201POPC   D2A67936  27.581  22.099   6.561
 5201POPC   C3A67937  27.363  21.926   6.912
 5201POPC   C4A67938  27.615  22.038   7.265
 5201POPC   C1B67939  27.926  22.224   6.147
 5201POPC   C2B67940  28.033  22.336   6.555
 5201POPC   C3B67941  27.797  22.469   6.889
 5201POPC   C4B67942  27.947  22.425   7.271
 5202POPC   NC367943  21.333  28.707   5.182
 5202POPC   PO467944  21.095  28.509   5.720
 5202POPC   GL167945  21.508  28.542   5.832
 5202POPC   GL267946  21.475  28.232   6.072
 5202POPC   C1A67947  21.807  28.575   6.169
 5202POPC   D2A67948  21.733  28.366   6.564
 5202POPC   C3A67949  21.394  28.499   6.827
 5202POPC   C4A67950  21.374  28.404   7.299
 5202POPC   C1B67951  21.701  27.934   6.307
 5202POPC   C2B67952  21.757  27.833   6.693
 5202POPC   C3B67953  21.543  28.003   7.047
 5202POPC   C4B67954  21.650  28.007   7.516
 5203POPC   NC367955  13.706  42.592   5.441
 5203POPC   PO467956  13.177  42.042   5.432
 5203POPC   GL167957  13.358  42.055   5.924
 5203POPC   GL267958  13.590  42.342   5.869
 5203POPC   C1A67959  13.791  42.039   6.197
 5203POPC   D2A67960  13.971  41.876   6.571
 5203POPC   C3A67961  13.808  42.104   6.962
 5203POPC   C4A67962  13.386  42.138   7.168
 5203POPC   C1B67963  13.473  42.444   6.293
 5203POPC   C2B67964  13.556  42.550   6.733
 5203POPC   C3B67965  13.655  42.586   7.157
 5203POPC   C4B67966  13.655  42.662   7.597
 5204POPC   NC367967   2.504   9.913   5.457
 5204POPC   PO467968   3.063   9.625   5.427
 5204POPC   GL167969   2.964   9.594   5.862
 5204POPC   GL267970   2.840   9.949   5.839
 5204POPC   C1A67971   2.959   9.788   6.294
 5204POPC   D2A67972   2.762  10.101   6.548
 5204POPC   C3A67973   2.970   9.993   6.916
 5204POPC   C4A67974   3.153   9.642   7.121
 5204POPC   C1B67975   2.497   9.732   6.089
 5204POPC   C2B67976   2.506   9.663   6.532
 5204POPC   C3B67977   2.597   9.671   6.961
 5204POPC   C4B67978   2.568   9.551   7.402
 5205POPC   NC367979   1.103   6.921   5.507
 5205POPC   PO467980   1.238   7.499   5.301
 5205POPC   GL167981   1.424   7.318   5.672
 5205POPC   GL267982   1.077   7.330   5.835
 5205POPC   C1A67983   1.468   7.243   6.122
 5205POPC   D2A67984   1.151   7.314   6.436
 5205POPC   C3A67985   1.324   7.385   6.842
 5205POPC   C4A67986   1.355   7.269   7.266
 5205POPC   C1B67987   1.280   7.715   6.064
 5205POPC   C2B67988   1.206   7.820   6.520
 5205POPC   C3B67989   0.848   7.658   6.776
 5205POPC   C4B67990   0.709   7.630   7.229
 5206POPC   NC367991  33.176   4.542   5.067
 5206POPC   PO467992  32.801   3.928   5.232
 5206POPC   GL167993  32.723   3.991   5.697
 5206POPC   GL267994  32.586   4.336   5.678
 5206POPC   C1A67995  32.972   4.166   6.083
 5206POPC   D2A67996  33.186   4.419   6.445
 5206POPC   C3A67997  33.075   4.315   6.887
 5206POPC   C4A67998  33.189   4.044   7.215
 5206POPC   C1B67999  32.509   4.390   6.125
 5206POPC   C2B68000  32.693   4.341   6.530
 5206POPC   C3B68001  32.652   4.608   6.915
 5206POPC   C4B68002  32.691   4.449   7.341
 5207POPC   NC368003  10.486   2.709   5.289
 5207POPC   PO468004  11.041   2.613   5.563
 5207POPC   GL168005  10.694   2.578   5.762
 5207POPC   GL268006  10.649   2.907   5.751
 5207POPC   C1A68007  10.536   2.647   6.183
 5207POPC   D2A68008  10.693   2.529   6.569
 5207POPC   C3A68009  10.559   2.754   6.949
 5207POPC   C4A68010  10.756   2.512   7.246
 5207POPC   C1B68011  10.816   3.075   6.126
 5207POPC   C2B68012  10.715   3.163   6.575
 5207POPC   C3B68013  10.902   3.169   6.973
 5207POPC   C4B68014  10.750   3.081   7.384
 5208POPC   NC368015  17.814  37.616   5.454
 5208POPC   PO468016  17.138  37.825   5.402
 5208POPC   GL168017  17.231  37.672   5.811
 5208POPC   GL268018  17.555  37.639   5.890
 5208POPC   C1A68019  17.180  37.459   6.213
 5208POPC   D2A68020  17.336  37.388   6.626
 5208POPC   C3A68021  17.452  37.732   6.906
 5208POPC   C4A68022  17.342  37.602   7.302
 5208POPC   C1B68023  17.718  37.504   6.272
 5208POPC   C2B68024  17.850  37.452   6.690
 5208POPC   C3B68025  17.698  37.298   7.101
 5208POPC   C4B68026  17.706  37.447   7.601
 5209POPC   NC368027  34.307  43.360   5.386
 5209POPC   PO468028  33.702  42.909   5.379
 5209POPC   GL168029  33.669  43.122   5.813
 5209POPC   GL268030  33.679  43.522   5.829
 5209POPC   C1A68031  33.611  42.952   6.259
 5209POPC   D2A68032  33.478  42.947   6.723
 5209POPC   C3A68033  33.778  42.989   7.015
 5209POPC   C4A68034  34.137  42.947   7.242
 5209POPC   C1B68035  33.914  43.426   6.189
 5209POPC   C2B68036  33.830  43.297   6.600
 5209POPC   C3B68037  34.028  43.422   7.015
 5209POPC   C4B68038  33.752  43.533   7.315
 5210POPC   NC368039  13.068  31.079   5.601
 5210POPC   PO468040  12.821  31.737   5.322
 5210POPC   GL168041  12.711  31.764   5.796
 5210POPC   GL268042  12.534  31.484   5.853
 5210POPC   C1A68043  12.743  31.706   6.266
 5210POPC   D2A68044  12.537  31.570   6.679
 5210POPC   C3A68045  12.852  31.620   7.043
 5210POPC   C4A68046  12.873  31.391   7.417
 5210POPC   C1B68047  12.355  31.327   6.213
 5210POPC   C2B68048  12.424  31.055   6.533
 5210POPC   C3B68049  12.518  31.117   6.973
 5210POPC   C4B68050  12.564  30.996   7.394
 5211POPC   NC368051   8.472  43.738   5.464
 5211POPC   PO468052   7.966  44.106   5.247
 5211POPC   GL168053   7.963  43.994   5.685
 5211POPC   GL268054   7.795  43.672   5.720
 5211POPC   C1A68055   8.194  44.002   6.128
 5211POPC   D2A68056   8.323  44.139   6.579
 5211POPC   C3A68057   8.407  43.985   7.007
 5211POPC   C4A68058   8.339  43.575   7.155
 5211POPC   C1B68059   7.701  43.900   6.111
 5211POPC   C2B68060   7.794  44.109   6.490
 5211POPC   C3B68061   7.928  43.873   6.856
 5211POPC   C4B68062   7.657  43.679   7.143
 5212POPC   NC368063  40.852   8.234   5.304
 5212POPC   PO468064  40.138   8.364   5.285
 5212POPC   GL168065  40.495   8.421   5.643
 5212POPC   GL268066  40.563   8.107   5.892
 5212POPC   C1A68067  40.609   8.527   6.113
 5212POPC   D2A68068  40.969   8.573   6.421
 5212POPC   C3A68069  40.920   8.576   6.864
 5212POPC   C4A68070  41.061   8.492   7.294
 5212POPC   C1B68071  40.852   8.094   6.224
 5212POPC   C2B68072  40.708   8.128   6.648
 5212POPC   C3B68073  40.991   8.067   6.985
 5212POPC   C4B68074  40.910   7.998   7.385
 5213POPC   NC368075  30.603  33.806   5.281
 5213POPC   PO468076  31.264  33.799   5.474
 5213POPC   GL168077  30.903  33.832   5.766
 5213POPC   GL268078  30.524  33.785   5.785
 5213POPC   C1A68079  30.831  34.009   6.178
 5213POPC   D2A68080  30.719  34.229   6.572
 5213POPC   C3A68081  30.841  34.025   6.948
 5213POPC   C4A68082  30.672  33.978   7.353
 5213POPC   C1B68083  30.374  33.794   6.232
 5213POPC   C2B68084  30.414  33.817   6.692
 5213POPC   C3B68085  30.254  33.847   7.103
 5213POPC   C4B68086  30.203  33.644   7.478
 5214POPC   NC368087   4.558  11.295   5.424
 5214POPC   PO468088   3.916  11.203   5.399
 5214POPC   GL168089   4.151  11.068   5.760
 5214POPC   GL268090   4.380  11.312   5.905
 5214POPC   C1A68091   4.074  11.075   6.226
 5214POPC   D2A68092   4.341  11.325   6.528
 5214POPC   C3A68093   4.276  11.170   6.945
 5214POPC   C4A68094   4.303  11.033   7.382
 5214POPC   C1B68095   4.465  11.696   6.129
 5214POPC   C2B68096   4.610  11.830   6.521
 5214POPC   C3B68097   4.511  11.723   6.913
 5214POPC   C4B68098   4.324  11.559   7.256
 5215POPC   NC368099  14.016  40.169   5.524
 5215POPC   PO468100  14.599  39.819   5.422
 5215POPC   GL168101  14.415  39.909   5.769
 5215POPC   GL268102  14.494  40.254   5.731
 5215POPC   C1A68103  14.311  39.967   6.181
 5215POPC   D2A68104  14.375  40.221   6.513
 5215POPC   C3A68105  14.358  39.980   6.877
 5215POPC   C4A68106  14.220  39.803   7.261
 5215POPC   C1B68107  14.739  40.279   6.123
 5215POPC   C2B68108  14.856  40.389   6.543
 5215POPC   C3B68109  14.603  40.457   6.910
 5215POPC   C4B68110  14.470  40.239   7.302
 5216POPC   NC368111   0.503  40.414   5.289
 5216POPC   PO468112   0.315  40.966   5.289
 5216POPC   GL168113   0.514  40.853   5.699
 5216POPC   GL268114   0.620  40.527   5.759
 5216POPC   C1A68115   0.611  40.981   6.142
 5216POPC   D2A68116   0.398  41.106   6.526
 5216POPC   C3A68117   0.536  40.950   6.915
 5216POPC   C4A68118   0.161  40.912   7.179
 5216POPC   C1B68119   0.443  40.486   6.161
 5216POPC   C2B68120   0.566  40.548   6.579
 5216POPC   C3B68121   0.430  40.461   7.002
 5216POPC   C4B68122   0.618  40.634   7.321
 5217POPC   NC368123  28.202  16.878   5.391
 5217POPC   PO468124  28.810  17.173   5.427
 5217POPC   GL168125  28.558  17.006   5.782
 5217POPC   GL268126  28.310  16.708   5.862
 5217POPC   C1A68127  28.676  16.896   6.209
 5217POPC   D2A68128  28.605  16.626   6.549
 5217POPC   C3A68129  28.438  16.854   6.843
 5217POPC   C4A68130  28.476  16.890   7.239
 5217POPC   C1B68131  28.158  16.766   6.299
 5217POPC   C2B68132  28.206  17.171   6.507
 5217POPC   C3B68133  28.121  17.256   6.919
 5217POPC   C4B68134  27.966  17.016   7.260
 5218POPC   NC368135  31.317  34.687   4.959
 5218POPC   PO468136  31.701  34.405   5.446
 5218POPC   GL168137  31.578  34.697   5.781
 5218POPC   GL268138  31.857  34.870   6.005
 5218POPC   C1A68139  31.407  34.696   6.199
 5218POPC   D2A68140  31.648  34.638   6.560
 5218POPC   C3A68141  31.526  34.899   6.862
 5218POPC   C4A68142  31.355  34.633   7.155
 5218POPC   C1B68143  31.835  34.407   6.126
 5218POPC   C2B68144  31.763  34.117   6.474
 5218POPC   C3B68145  31.587  34.198   6.878
 5218POPC   C4B68146  31.568  33.998   7.271
 5219POPC   NC368147  16.241   1.508   5.554
 5219POPC   PO468148  16.538   2.062   5.269
 5219POPC   GL168149  16.690   1.928   5.758
 5219POPC   GL268150  16.525   1.695   5.922
 5219POPC   C1A68151  16.774   2.025   6.243
 5219POPC   D2A68152  16.966   1.842   6.631
 5219POPC   C3A68153  16.799   1.967   7.040
 5219POPC   C4A68154  16.797   2.380   7.210
 5219POPC   C1B68155  16.442   1.641   6.327
 5219POPC   C2B68156  16.471   1.675   6.752
 5219POPC   C3B68157  16.345   1.599   7.149
 5219POPC   C4B68158  16.606   1.372   7.402
 5220POPC   NC368159  33.341  16.817   5.411
 5220POPC   PO468160  33.915  16.556   5.167
 5220POPC   GL168161  33.796  16.706   5.657
 5220POPC   GL268162  33.544  16.522   5.819
 5220POPC   C1A68163  33.866  16.798   6.143
 5220POPC   D2A68164  34.060  16.837   6.582
 5220POPC   C3A68165  33.874  16.882   6.999
 5220POPC   C4A68166  33.486  17.091   7.142
 5220POPC   C1B68167  33.395  16.613   6.232
 5220POPC   C2B68168  33.593  16.614   6.640
 5220POPC   C3B68169  33.547  16.510   7.090
 5220POPC   C4B68170  33.279  16.662   7.352
 5221POPC   NC368171  25.704  12.092   5.282
 5221POPC   PO468172  25.022  12.335   5.380
 5221POPC   GL168173  25.086  12.108   5.785
 5221POPC   GL268174  25.442  12.061   5.859
 5221POPC   C1A68175  25.084  11.771   6.102
 5221POPC   D2A68176  25.465  11.766   6.364
 5221POPC   C3A68177  25.375  11.937   6.776
 5221POPC   C4A68178  25.172  11.977   7.172
 5221POPC   C1B68179  25.225  12.231   6.259
 5221POPC   C2B68180  25.351  12.445   6.644
 5221POPC   C3B68181  25.552  12.356   7.063
 5221POPC   C4B68182  25.469  12.249   7.505
 5222POPC   NC368183   2.618  19.497   5.536
 5222POPC   PO468184   2.930  18.907   5.550
 5222POPC   GL168185   2.611  18.882   5.885
 5222POPC   GL268186   2.508  19.240   5.959
 5222POPC   C1A68187   2.387  18.902   6.301
 5222POPC   D2A68188   2.611  19.084   6.699
 5222POPC   C3A68189   2.631  18.840   7.074
 5222POPC   C4A68190   2.556  18.789   7.511
 5222POPC   C1B68191   2.856  19.216   6.263
 5222POPC   C2B68192   3.017  19.447   6.654
 5222POPC   C3B68193   3.103  19.399   7.104
 5222POPC   C4B68194   3.004  19.059   7.423
 5223POPC   NC368195  27.903  22.961   5.235
 5223POPC   PO468196  27.294  22.685   5.335
 5223POPC   GL168197  27.580  22.898   5.673
 5223POPC   GL268198  27.696  22.604   5.840
 5223POPC   C1A68199  27.693  23.095   6.117
 5223POPC   D2A68200  27.616  22.948   6.572
 5223POPC   C3A68201  27.666  23.185   6.991
 5223POPC   C4A68202  27.934  23.380   7.339
 5223POPC   C1B68203  27.375  22.700   6.119
 5223POPC   C2B68204  27.293  22.554   6.505
 5223POPC   C3B68205  27.283  22.428   6.896
 5223POPC   C4B68206  27.440  22.551   7.293
 5224POPC   NC368207   0.231  17.824   4.960
 5224POPC   PO468208   0.694  17.512   5.271
 5224POPC   GL168209   0.799  17.439   5.738
 5224POPC   GL268210   0.555  17.188   5.847
 5224POPC   C1A68211   0.741  17.603   6.212
 5224POPC   D2A68212   0.639  17.471   6.676
 5224POPC   C3A68213   0.596  17.712   7.076
 5224POPC   C4A68214   0.277  17.767   7.385
 5224POPC   C1B68215   0.886  17.123   6.149
 5224POPC   C2B68216   0.855  16.967   6.592
 5224POPC   C3B68217   0.783  17.137   7.042
 5224POPC   C4B68218   0.368  17.261   7.218
 5225POPC   NC368219  39.346   4.697   5.715
 5225POPC   PO468220  39.100   5.332   5.499
 5225POPC   GL168221  39.274   5.185   5.830
 5225POPC   GL268222  38.991   4.994   5.935
 5225POPC   C1A68223  39.536   5.299   6.181
 5225POPC   D2A68224  39.608   5.077   6.565
 5225POPC   C3A68225  39.304   5.007   6.865
 5225POPC   C4A68226  39.474   5.004   7.265
 5225POPC   C1B68227  39.134   4.964   6.346
 5225POPC   C2B68228  38.861   4.840   6.654
 5225POPC   C3B68229  38.826   4.578   6.969
 5225POPC   C4B68230  38.986   4.876   7.244
 5226POPC   NC368231  20.869   5.181   5.182
 5226POPC   PO468232  20.540   4.696   5.377
 5226POPC   GL168233  20.641   5.022   5.647
 5226POPC   GL268234  20.903   4.925   5.866
 5226POPC   C1A68235  20.516   5.158   6.084
 5226POPC   D2A68236  20.401   5.197   6.518
 5226POPC   C3A68237  20.527   5.150   6.962
 5226POPC   C4A68238  20.271   5.077   7.337
 5226POPC   C1B68239  21.076   5.122   6.232
 5226POPC   C2B68240  20.946   5.188   6.678
 5226POPC   C3B68241  21.071   5.147   7.141
 5226POPC   C4B68242  21.120   5.501   7.458
 5227POPC   NC368243   4.044  34.066   5.429
 5227POPC   PO468244   4.133  34.715   5.248
 5227POPC   GL168245   4.229  34.627   5.725
 5227POPC   GL268246   4.327  34.306   5.813
 5227POPC   C1A68247   4.050  34.616   6.162
 5227POPC   D2A68248   4.212  34.427   6.517
 5227POPC   C3A68249   4.276  34.606   6.913
 5227POPC   C4A68250   4.020  34.770   7.197
 5227POPC   C1B68251   4.522  34.150   6.224
 5227POPC   C2B68252   4.623  34.181   6.696
 5227POPC   C3B68253   4.530  34.212   7.160
 5227POPC   C4B68254   4.452  34.179   7.626
 5228POPC   NC368255  38.654  37.458   5.625
 5228POPC   PO468256  38.322  38.009   5.479
 5228POPC   GL168257  38.333  37.767   5.886
 5228POPC   GL268258  38.039  37.582   5.869
 5228POPC   C1A68259  38.613  37.576   6.248
 5228POPC   D2A68260  38.686  37.737   6.673
 5228POPC   C3A68261  38.342  37.786   6.943
 5228POPC   C4A68262  38.438  37.759   7.367
 5228POPC   C1B68263  38.119  37.611   6.343
 5228POPC   C2B68264  38.160  37.360   6.727
 5228POPC   C3B68265  38.100  37.370   7.186
 5228POPC   C4B68266  38.158  37.430   7.646
 5229POPC   NC368267  35.642  30.396   5.315
 5229POPC   PO468268  35.175  29.874   5.413
 5229POPC   GL168269  35.285  29.919   5.832
 5229POPC   GL268270  34.963  29.806   5.903
 5229POPC   C1A68271  35.605  29.821   6.179
 5229POPC   D2A68272  35.789  29.841   6.610
 5229POPC   C3A68273  35.529  29.915   6.984
 5229POPC   C4A68274  35.636  30.080   7.373
 5229POPC   C1B68275  35.040  29.944   6.323
 5229POPC   C2B68276  35.008  30.003   6.766
 5229POPC   C3B68277  34.853  29.824   7.132
 5229POPC   C4B68278  35.186  29.860   7.406
 5230POPC   NC368279  17.834  16.805   5.380
 5230POPC   PO468280  18.320  16.359   5.274
 5230POPC   GL168281  18.178  16.600   5.713
 5230POPC   GL268282  18.476  16.605   5.915
 5230POPC   C1A68283  18.037  16.680   6.208
 5230POPC   D2A68284  17.954  16.465   6.667
 5230POPC   C3A68285  18.024  16.637   7.141
 5230POPC   C4A68286  18.181  16.801   7.556
 5230POPC   C1B68287  18.523  16.572   6.377
 5230POPC   C2B68288  18.399  16.707   6.787
 5230POPC   C3B68289  18.569  16.662   7.215
 5230POPC   C4B68290  18.666  16.694   7.680
 5231POPC   NC368291  11.696  22.676   5.466
 5231POPC   PO468292  11.155  23.122   5.586
 5231POPC   GL168293  11.520  23.140   5.853
 5231POPC   GL268294  11.520  22.795   5.922
 5231POPC   C1A68295  11.515  23.099   6.312
 5231POPC   D2A68296  11.135  23.159   6.559
 5231POPC   C3A68297  11.233  23.096   6.987
 5231POPC   C4A68298  11.055  23.282   7.317
 5231POPC   C1B68299  11.260  22.644   6.267
 5231POPC   C2B68300  11.198  22.669   6.710
 5231POPC   C3B68301  11.348  22.598   7.140
 5231POPC   C4B68302  11.189  22.510   7.574
 5232POPC   NC368303  14.121  35.098   5.453
 5232POPC   PO468304  14.609  35.575   5.379
 5232POPC   GL168305  14.573  35.232   5.722
 5232POPC   GL268306  14.256  35.207   5.922
 5232POPC   C1A68307  14.675  35.153   6.188
 5232POPC   D2A68308  14.397  35.153   6.570
 5232POPC   C3A68309  14.662  35.173   6.923
 5232POPC   C4A68310  14.624  35.388   7.313
 5232POPC   C1B68311  13.924  35.040   6.194
 5232POPC   C2B68312  13.743  35.105   6.597
 5232POPC   C3B68313  13.848  34.958   6.971
 5232POPC   C4B68314  14.193  35.181   7.126
 5233POPC   NC368315  16.170  11.876   5.448
 5233POPC   PO468316  15.702  12.243   5.344
 5233POPC   GL168317  15.883  12.183   5.765
 5233POPC   GL268318  16.272  12.195   5.842
 5233POPC   C1A68319  15.928  12.096   6.207
 5233POPC   D2A68320  16.153  12.143   6.585
 5233POPC   C3A68321  15.851  12.093   6.930
 5233POPC   C4A68322  15.919  11.988   7.385
 5233POPC   C1B68323  16.277  11.766   6.068
 5233POPC   C2B68324  16.254  11.591   6.474
 5233POPC   C3B68325  16.196  11.715   6.903
 5233POPC   C4B68326  16.268  11.664   7.348
 5234POPC   NC368327  31.725   3.056   5.331
 5234POPC   PO468328  31.699   2.393   5.447
 5234POPC   GL168329  31.642   2.711   5.806
 5234POPC   GL268330  31.323   2.887   5.843
 5234POPC   C1A68331  31.803   2.827   6.236
 5234POPC   D2A68332  31.983   2.556   6.603
 5234POPC   C3A68333  31.731   2.464   6.934
 5234POPC   C4A68334  31.415   2.742   7.083
 5234POPC   C1B68335  31.231   2.802   6.313
 5234POPC   C2B68336  31.029   2.861   6.749
 5234POPC   C3B68337  30.961   2.916   7.211
 5234POPC   C4B68338  30.996   2.910   7.680
 5235POPC   NC368339   8.593  14.967   5.386
 5235POPC   PO468340   9.160  15.340   5.311
 5235POPC   GL168341   9.044  15.367   5.756
 5235POPC   GL268342   8.690  15.400   5.672
 5235POPC   C1A68343   9.239  15.122   6.147
 5235POPC   D2A68344   9.300  14.763   6.475
 5235POPC   C3A68345   9.090  14.860   6.881
 5235POPC   C4A68346   9.173  15.169   7.203
 5235POPC   C1B68347   8.648  15.578   6.073
 5235POPC   C2B68348   8.652  15.541   6.537
 5235POPC   C3B68349   8.736  15.415   6.989
 5235POPC   C4B68350   8.722  15.380   7.450
 5236POPC   NC368351  36.545  39.263   5.441
 5236POPC   PO468352  37.121  39.037   5.671
 5236POPC   GL168353  36.926  39.349   5.898
 5236POPC   GL268354  36.693  39.601   5.875
 5236POPC   C1A68355  36.873  39.440   6.341
 5236POPC   D2A68356  36.954  39.122   6.631
 5236POPC   C3A68357  37.031  39.300   6.956
 5236POPC   C4A68358  36.981  39.157   7.327
 5236POPC   C1B68359  36.387  39.539   6.215
 5236POPC   C2B68360  36.477  39.545   6.661
 5236POPC   C3B68361  36.509  39.411   7.090
 5236POPC   C4B68362  36.593  39.450   7.542
 5237POPC   NC368363   9.098  18.021   5.430
 5237POPC   PO468364   8.792  18.628   5.472
 5237POPC   GL168365   8.828  18.353   5.842
 5237POPC   GL268366   9.115  18.153   5.930
 5237POPC   C1A68367   8.709  18.178   6.266
 5237POPC   D2A68368   8.760  17.959   6.671
 5237POPC   C3A68369   9.057  18.163   6.924
 5237POPC   C4A68370   8.869  18.373   7.254
 5237POPC   C1B68371   9.505  18.079   6.135
 5237POPC   C2B68372   9.400  18.033   6.555
 5237POPC   C3B68373   9.510  17.900   6.970
 5237POPC   C4B68374   9.369  17.933   7.411
 5238POPC   NC368375  24.017   2.635   4.904
 5238POPC   PO468376  23.540   2.825   5.239
 5238POPC   GL168377  23.508   2.772   5.749
 5238POPC   GL268378  23.818   2.658   5.906
 5238POPC   C1A68379  23.340   2.750   6.217
 5238POPC   D2A68380  23.322   2.515   6.639
 5238POPC   C3A68381  23.370   2.719   7.060
 5238POPC   C4A68382  23.701   2.849   7.390
 5238POPC   C1B68383  23.804   2.607   6.376
 5238POPC   C2B68384  23.829   2.610   6.839
 5238POPC   C3B68385  23.848   2.370   7.238
 5238POPC   C4B68386  23.888   2.431   7.706
 5239POPC   NC368387  13.841  13.029   5.392
 5239POPC   PO468388  13.467  12.542   5.745
 5239POPC   GL168389  13.575  12.912   5.930
 5239POPC   GL268390  13.892  12.830   5.862
 5239POPC   C1A68391  13.504  13.015   6.369
 5239POPC   D2A68392  13.201  13.092   6.698
 5239POPC   C3A68393  13.285  12.793   7.011
 5239POPC   C4A68394  13.497  12.707   7.397
 5239POPC   C1B68395  14.004  13.034   6.241
 5239POPC   C2B68396  13.969  12.908   6.649
 5239POPC   C3B68397  13.827  12.891   7.037
 5239POPC   C4B68398  14.120  13.091   7.241
 5240POPC   NC368399  41.220   2.614   5.307
 5240POPC   PO468400  40.619   2.896   5.407
 5240POPC   GL168401  40.889   2.776   5.711
 5240POPC   GL268402  40.891   2.418   5.647
 5240POPC   C1A68403  40.798   2.815   6.148
 5240POPC   D2A68404  40.938   2.926   6.558
 5240POPC   C3A68405  40.613   2.767   6.835
 5240POPC   C4A68406  40.700   2.703   7.207
 5240POPC   C1B68407  40.978   2.336   6.090
 5240POPC   C2B68408  40.836   2.433   6.507
 5240POPC   C3B68409  41.057   2.509   6.892
 5240POPC   C4B68410  41.145   2.187   7.176
 5241POPC   NC368411  11.891  27.889   5.283
 5241POPC   PO468412  11.776  27.290   5.240
 5241POPC   GL168413  11.871  27.551   5.661
 5241POPC   GL268414  12.168  27.765   5.700
 5241POPC   C1A68415  11.792  27.603   6.133
 5241POPC   D2A68416  11.969  27.460   6.564
 5241POPC   C3A68417  11.928  27.677   6.971
 5241POPC   C4A68418  11.931  27.778   7.416
 5241POPC   C1B68419  12.244  27.916   6.146
 5241POPC   C2B68420  12.276  27.888   6.620
 5241POPC   C3B68421  12.367  27.876   7.106
 5241POPC   C4B68422  12.416  27.954   7.574
 5242POPC   NC368423  39.456  20.124   5.164
 5242POPC   PO468424  39.295  19.638   5.456
 5242POPC   GL168425  39.200  19.765   5.904
 5242POPC   GL268426  39.143  20.122   5.920
 5242POPC   C1A68427  39.020  19.812   6.342
 5242POPC   D2A68428  38.985  19.757   6.800
 5242POPC   C3A68429  39.259  19.766   7.141
 5242POPC   C4A68430  39.256  20.058   7.485
 5242POPC   C1B68431  39.355  20.219   6.306
 5242POPC   C2B68432  39.308  20.199   6.759
 5242POPC   C3B68433  39.546  20.286   7.137
 5242POPC   C4B68434  39.711  20.257   7.595
 5243POPC   NC368435  30.211  43.710   5.257
 5243POPC   PO468436  29.565  43.413   5.126
 5243POPC   GL168437  29.681  43.528   5.662
 5243POPC   GL268438  30.005  43.742   5.761
 5243POPC   C1A68439  29.812  43.524   6.153
 5243POPC   D2A68440  29.736  43.874   6.488
 5243POPC   C3A68441  29.901  43.808   6.925
 5243POPC   C4A68442  29.853  43.758   7.383
 5243POPC   C1B68443  30.194  43.913   6.210
 5243POPC   C2B68444  30.279  44.079   6.681
 5243POPC   C3B68445  30.103  44.244   7.098
 5243POPC   C4B68446  30.060  44.183   7.555
 5244POPC   NC368447  31.870  24.352   5.561
 5244POPC   PO468448  31.314  24.595   5.252
 5244POPC   GL168449  31.397  24.630   5.715
 5244POPC   GL268450  31.246  24.321   5.851
 5244POPC   C1A68451  31.441  24.763   6.173
 5244POPC   D2A68452  31.282  24.736   6.614
 5244POPC   C3A68453  31.574  24.579   6.904
 5244POPC   C4A68454  31.661  24.309   7.223
 5244POPC   C1B68455  31.044  24.470   6.241
 5244POPC   C2B68456  30.971  24.326   6.668
 5244POPC   C3B68457  31.143  24.380   7.097
 5244POPC   C4B68458  31.223  24.398   7.564
 5245POPC   NC368459  30.449  23.791   5.566
 5245POPC   PO468460  31.063  23.627   5.262
 5245POPC   GL168461  30.941  23.859   5.713
 5245POPC   GL268462  30.740  23.599   5.927
 5245POPC   C1A68463  30.924  23.976   6.206
 5245POPC   D2A68464  30.651  23.928   6.608
 5245POPC   C3A68465  30.750  23.593   6.864
 5245POPC   C4A68466  30.831  23.786   7.221
 5245POPC   C1B68467  30.406  23.814   6.185
 5245POPC   C2B68468  30.108  23.642   6.442
 5245POPC   C3B68469  30.106  23.768   6.833
 5245POPC   C4B68470  30.323  23.582   7.153
 5246POPC   NC368471  28.597  30.568   5.416
 5246POPC   PO468472  28.080  30.420   5.583
 5246POPC   GL168473  28.387  30.600   5.904
 5246POPC   GL268474  28.688  30.422   5.924
 5246POPC   C1A68475  28.502  30.810   6.322
 5246POPC   D2A68476  28.361  31.003   6.732
 5246POPC   C3A68477  28.248  30.740   7.089
 5246POPC   C4A68478  28.346  30.907   7.479
 5246POPC   C1B68479  28.730  30.359   6.382
 5246POPC   C2B68480  28.651  30.579   6.778
 5246POPC   C3B68481  28.706  30.582   7.223
 5246POPC   C4B68482  28.419  30.425   7.549
 5247POPC   NC368483   6.565  23.934   5.278
 5247POPC   PO468484   6.743  23.322   5.424
 5247POPC   GL168485   6.714  23.572   5.774
 5247POPC   GL268486   6.846  23.910   5.718
 5247POPC   C1A68487   6.624  23.584   6.208
 5247POPC   D2A68488   6.360  23.459   6.565
 5247POPC   C3A68489   6.626  23.379   6.926
 5247POPC   C4A68490   6.885  23.505   7.286
 5247POPC   C1B68491   6.800  24.055   6.159
 5247POPC   C2B68492   6.724  23.899   6.591
 5247POPC   C3B68493   6.722  23.901   7.004
 5247POPC   C4B68494   6.347  23.789   7.191
 5248POPC   NC368495  21.480  35.030   5.430
 5248POPC   PO468496  21.082  35.451   5.217
 5248POPC   GL168497  21.280  35.365   5.710
 5248POPC   GL268498  21.624  35.405   5.796
 5248POPC   C1A68499  21.248  35.326   6.167
 5248POPC   D2A68500  21.037  35.134   6.526
 5248POPC   C3A68501  21.176  35.320   6.895
 5248POPC   C4A68502  21.077  35.303   7.335
 5248POPC   C1B68503  21.596  34.982   6.039
 5248POPC   C2B68504  21.624  34.930   6.471
 5248POPC   C3B68505  21.713  35.227   6.794
 5248POPC   C4B68506  21.584  35.293   7.221
 5249POPC   NC368507   1.671  14.259   5.418
 5249POPC   PO468508   2.178  14.646   5.451
 5249POPC   GL168509   1.981  14.492   5.802
 5249POPC   GL268510   1.927  14.139   5.849
 5249POPC   C1A68511   2.058  14.481   6.243
 5249POPC   D2A68512   2.148  14.179   6.553
 5249POPC   C3A68513   2.071  14.354   6.950
 5249POPC   C4A68514   2.030  14.194   7.351
 5249POPC   C1B68515   1.678  13.906   6.175
 5249POPC   C2B68516   1.818  13.776   6.582
 5249POPC   C3B68517   1.737  13.927   6.969
 5249POPC   C4B68518   1.529  14.088   7.306
 5250POPC   NC368519  41.548   1.615   5.278
 5250POPC   PO468520  41.262   2.156   5.384
 5250POPC   GL168521  41.474   1.970   5.758
 5250POPC   GL268522  41.773   1.731   5.715
 5250POPC   C1A68523  41.452   2.112   6.207
 5250POPC   D2A68524  41.252   2.125   6.610
 5250POPC   C3A68525  41.461   1.893   6.919
 5250POPC   C4A68526  41.722   2.052   7.229
 5250POPC   C1B68527  41.885   1.823   6.120
 5250POPC   C2B68528  41.865   1.895   6.556
 5250POPC   C3B68529  41.946   1.706   6.942
 5250POPC   C4B68530  41.969   1.625   7.370
 5251POPC   NC368531  34.019  23.075   5.370
 5251POPC   PO468532  33.693  22.506   5.362
 5251POPC   GL168533  33.897  22.723   5.749
 5251POPC   GL268534  33.892  23.082   5.869
 5251POPC   C1A68535  33.851  22.708   6.210
 5251POPC   D2A68536  34.065  22.515   6.561
 5251POPC   C3A68537  33.851  22.705   6.920
 5251POPC   C4A68538  33.595  22.674   7.276
 5251POPC   C1B68539  33.949  23.295   6.269
 5251POPC   C2B68540  33.824  23.274   6.712
 5251POPC   C3B68541  33.981  23.380   7.141
 5251POPC   C4B68542  33.744  23.312   7.553
 5252POPC   NC368543  26.487  36.345   5.547
 5252POPC   PO468544  27.165  36.314   5.459
 5252POPC   GL168545  27.083  35.948   5.733
 5252POPC   GL268546  26.746  35.948   5.775
 5252POPC   C1A68547  27.068  35.807   6.192
 5252POPC   D2A68548  27.089  36.133   6.521
 5252POPC   C3A68549  27.113  36.215   6.954
 5252POPC   C4A68550  27.128  36.130   7.387
 5252POPC   C1B68551  26.698  36.169   6.197
 5252POPC   C2B68552  26.575  36.085   6.671
 5252POPC   C3B68553  26.643  36.102   7.173
 5252POPC   C4B68554  26.416  36.338   7.529
 5253POPC   NC368555  21.539  40.245   5.341
 5253POPC   PO468556  21.542  39.616   5.428
 5253POPC   GL168557  21.537  39.961   5.780
 5253POPC   GL268558  21.220  40.198   5.822
 5253POPC   C1A68559  21.583  40.103   6.232
 5253POPC   D2A68560  21.722  40.035   6.688
 5253POPC   C3A68561  21.592  39.744   7.001
 5253POPC   C4A68562  21.208  39.703   7.207
 5253POPC   C1B68563  21.060  40.359   6.251
 5253POPC   C2B68564  21.008  40.337   6.700
 5253POPC   C3B68565  21.293  40.388   7.013
 5253POPC   C4B68566  21.461  40.153   7.322
 5254POPC   NC368567  35.290  15.316   5.489
 5254POPC   PO468568  35.281  16.051   5.500
 5254POPC   GL168569  35.461  15.946   5.912
 5254POPC   GL268570  35.321  15.657   5.886
 5254POPC   C1A68571  35.446  16.051   6.353
 5254POPC   D2A68572  35.360  16.150   6.775
 5254POPC   C3A68573  35.634  16.386   7.040
 5254POPC   C4A68574  35.351  16.478   7.321
 5254POPC   C1B68575  35.549  15.541   6.300
 5254POPC   C2B68576  35.556  15.659   6.773
 5254POPC   C3B68577  35.316  15.812   7.177
 5254POPC   C4B68578  35.093  15.653   7.591
 5255POPC   NC368579  29.283   8.657   5.050
 5255POPC   PO468580  29.338   8.002   5.238
 5255POPC   GL168581  29.109   8.118   5.617
 5255POPC   GL268582  28.942   7.800   5.686
 5255POPC   C1A68583  29.012   8.367   6.013
 5255POPC   D2A68584  28.809   8.367   6.448
 5255POPC   C3A68585  28.988   8.321   6.857
 5255POPC   C4A68586  28.853   8.359   7.277
 5255POPC   C1B68587  29.258   7.833   6.035
 5255POPC   C2B68588  29.295   8.123   6.395
 5255POPC   C3B68589  29.440   8.074   6.836
 5255POPC   C4B68590  29.201   7.985   7.246
 5256POPC   NC368591  19.228  38.356   5.481
 5256POPC   PO468592  18.605  38.672   5.433
 5256POPC   GL168593  18.858  38.516   5.848
 5256POPC   GL268594  19.245  38.495   5.962
 5256POPC   C1A68595  18.844  38.264   6.257
 5256POPC   D2A68596  18.846  38.008   6.648
 5256POPC   C3A68597  18.843  38.210   7.055
 5256POPC   C4A68598  18.840  38.592   7.283
 5256POPC   C1B68599  19.069  38.738   6.298
 5256POPC   C2B68600  18.992  38.608   6.726
 5256POPC   C3B68601  19.287  38.539   7.066
 5256POPC   C4B68602  19.309  38.774   7.453
 5257POPC   NC368603  44.965   3.337   5.414
 5257POPC   PO468604  44.240   3.303   5.301
 5257POPC   GL168605  44.502   3.316   5.671
 5257POPC   GL268606  44.257   3.472   5.858
 5257POPC   C1A68607  44.752   3.440   6.071
 5257POPC   D2A68608  44.829   3.647   6.477
 5257POPC   C3A68609  44.747   3.453   6.900
 5257POPC   C4A68610  44.859   3.598   7.312
 5257POPC   C1B68611  44.315   3.603   6.272
 5257POPC   C2B68612  44.361   3.750   6.692
 5257POPC   C3B68613  44.216   3.485   6.967
 5257POPC   C4B68614  44.330   3.364   7.365
 5258POPC   NC368615   5.915  34.976   5.661
 5258POPC   PO468616   5.502  35.408   5.419
 5258POPC   GL168617   5.708  35.422   5.833
 5258POPC   GL268618   6.068  35.419   5.855
 5258POPC   C1A68619   5.836  35.257   6.265
 5258POPC   D2A68620   6.146  35.147   6.577
 5258POPC   C3A68621   6.052  35.263   7.003
 5258POPC   C4A68622   6.262  35.166   7.414
 5258POPC   C1B68623   6.205  35.630   6.227
 5258POPC   C2B68624   6.396  35.592   6.635
 5258POPC   C3B68625   6.199  35.756   6.976
 5258POPC   C4B68626   6.108  35.642   7.348
 5259POPC   NC368627  13.326  22.396   5.347
 5259POPC   PO468628  13.760  21.900   5.321
 5259POPC   GL168629  13.622  22.103   5.703
 5259POPC   GL268630  13.275  21.979   5.707
 5259POPC   C1A68631  13.741  22.320   6.115
 5259POPC   D2A68632  13.712  22.129   6.508
 5259POPC   C3A68633  13.732  22.329   6.886
 5259POPC   C4A68634  13.717  22.089   7.221
 5259POPC   C1B68635  13.295  22.062   6.140
 5259POPC   C2B68636  13.221  22.252   6.522
 5259POPC   C3B68637  13.311  22.053   6.860
 5259POPC   C4B68638  13.251  22.248   7.221
 5260POPC   NC368639  28.873  38.442   5.452
 5260POPC   PO468640  28.310  38.756   5.468
 5260POPC   GL168641  28.500  38.561   5.835
 5260POPC   GL268642  28.534  38.230   5.791
 5260POPC   C1A68643  28.319  38.587   6.263
 5260POPC   D2A68644  28.314  38.361   6.668
 5260POPC   C3A68645  28.492  38.510   7.078
 5260POPC   C4A68646  28.273  38.520   7.484
 5260POPC   C1B68647  28.315  38.036   6.161
 5260POPC   C2B68648  28.301  37.847   6.580
 5260POPC   C3B68649  28.152  37.946   6.999
 5260POPC   C4B68650  28.431  38.013   7.345
 5261POPC   NC368651  19.880  35.304   5.367
 5261POPC   PO468652  19.640  35.964   5.426
 5261POPC   GL168653  19.647  35.577   5.734
 5261POPC   GL268654  19.989  35.431   5.836
 5261POPC   C1A68655  19.571  35.334   6.129
 5261POPC   D2A68656  19.656  35.119   6.506
 5261POPC   C3A68657  19.583  35.345   6.888
 5261POPC   C4A68658  19.723  35.250   7.312
 5261POPC   C1B68659  20.091  35.256   6.232
 5261POPC   C2B68660  20.041  35.399   6.656
 5261POPC   C3B68661  20.180  35.357   7.072
 5261POPC   C4B68662  20.189  35.111   7.472
 5262POPC   NC368663  38.802   3.383   5.349
 5262POPC   PO468664  39.174   2.737   5.337
 5262POPC   GL168665  39.156   2.814   5.753
 5262POPC   GL268666  39.410   3.075   5.742
 5262POPC   C1A68667  38.949   2.708   6.153
 5262POPC   D2A68668  38.837   2.588   6.603
 5262POPC   C3A68669  39.102   2.815   6.927
 5262POPC   C4A68670  39.136   3.084   7.326
 5262POPC   C1B68671  39.486   2.854   6.140
 5262POPC   C2B68672  39.469   2.880   6.571
 5262POPC   C3B68673  39.579   3.046   6.964
 5262POPC   C4B68674  39.646   2.854   7.340
 5263POPC   NC368675  20.991   8.361   5.050
 5263POPC   PO468676  20.409   8.422   5.449
 5263POPC   GL168677  20.756   8.197   5.663
 5263POPC   GL268678  20.804   8.440   5.941
 5263POPC   C1A68679  20.871   7.967   6.064
 5263POPC   D2A68680  20.917   8.217   6.467
 5263POPC   C3A68681  20.752   8.134   6.904
 5263POPC   C4A68682  20.840   8.195   7.357
 5263POPC   C1B68683  20.640   8.616   6.290
 5263POPC   C2B68684  20.510   8.547   6.690
 5263POPC   C3B68685  20.674   8.605   7.098
 5263POPC   C4B68686  20.472   8.527   7.519
 5264POPC   NC368687  31.940   0.909   5.426
 5264POPC   PO468688  32.134   1.499   5.512
 5264POPC   GL168689  32.143   1.112   5.856
 5264POPC   GL268690  32.462   0.933   6.011
 5264POPC   C1A68691  32.082   1.139   6.265
 5264POPC   D2A68692  32.213   1.044   6.629
 5264POPC   C3A68693  31.960   1.203   6.930
 5264POPC   C4A68694  32.215   1.151   7.232
 5264POPC   C1B68695  32.576   1.324   6.243
 5264POPC   C2B68696  32.433   1.522   6.581
 5264POPC   C3B68697  32.593   1.287   6.900
 5264POPC   C4B68698  32.732   1.069   7.240
 5265POPC   NC368699  15.966  31.972   5.502
 5265POPC   PO468700  16.140  32.622   5.502
 5265POPC   GL168701  15.885  32.411   5.772
 5265POPC   GL268702  16.197  32.290   5.908
 5265POPC   C1A68703  15.659  32.480   6.181
 5265POPC   D2A68704  15.770  32.476   6.640
 5265POPC   C3A68705  15.776  32.069   6.893
 5265POPC   C4A68706  15.704  32.001   7.340
 5265POPC   C1B68707  16.119  32.703   6.160
 5265POPC   C2B68708  16.075  32.897   6.586
 5265POPC   C3B68709  16.179  32.698   6.958
 5265POPC   C4B68710  16.199  32.290   7.117
 5266POPC   NC368711   6.287  20.241   5.512
 5266POPC   PO468712   6.594  20.859   5.537
 5266POPC   GL168713   6.666  20.755   5.887
 5266POPC   GL268714   6.617  20.427   5.850
 5266POPC   C1A68715   6.490  20.724   6.256
 5266POPC   D2A68716   6.673  20.801   6.616
 5266POPC   C3A68717   6.458  20.610   6.966
 5266POPC   C4A68718   6.619  20.642   7.381
 5266POPC   C1B68719   6.464  20.226   6.180
 5266POPC   C2B68720   6.231  20.373   6.546
 5266POPC   C3B68721   6.195  20.130   6.917
 5266POPC   C4B68722   6.304  20.207   7.346
 5267POPC   NC368723  35.329  40.430   5.438
 5267POPC   PO468724  35.623  39.847   5.504
 5267POPC   GL168725  35.442  39.967   5.868
 5267POPC   GL268726  35.566  40.312   5.878
 5267POPC   C1A68727  35.331  39.757   6.276
 5267POPC   D2A68728  35.225  39.936   6.694
 5267POPC   C3A68729  35.171  39.719   7.090
 5267POPC   C4A68730  35.356  39.831   7.529
 5267POPC   C1B68731  35.586  40.223   6.317
 5267POPC   C2B68732  35.726  40.049   6.698
 5267POPC   C3B68733  35.640  39.952   7.132
 5267POPC   C4B68734  35.725  40.165   7.531
 5268POPC   NC368735   7.940  33.084   5.465
 5268POPC   PO468736   7.381  32.702   5.335
 5268POPC   GL168737   7.594  32.825   5.747
 5268POPC   GL268738   7.512  33.186   5.843
 5268POPC   C1A68739   7.617  32.851   6.224
 5268POPC   D2A68740   7.447  33.178   6.567
 5268POPC   C3A68741   7.254  33.114   6.991
 5268POPC   C4A68742   7.304  32.814   7.369
 5268POPC   C1B68743   7.722  33.429   6.175
 5268POPC   C2B68744   7.664  33.645   6.592
 5268POPC   C3B68745   7.584  33.528   7.016
 5268POPC   C4B68746   7.675  33.164   7.290
 5269POPC   NC368747  12.165   2.901   5.341
 5269POPC   PO468748  12.050   2.405   5.701
 5269POPC   GL168749  12.230   2.611   5.978
 5269POPC   GL268750  12.167   2.952   5.886
 5269POPC   C1A68751  12.162   2.731   6.391
 5269POPC   D2A68752  12.039   2.905   6.767
 5269POPC   C3A68753  12.148   2.641   7.071
 5269POPC   C4A68754  12.507   2.395   7.114
 5269POPC   C1B68755  12.306   3.206   6.274
 5269POPC   C2B68756  12.416   3.252   6.730
 5269POPC   C3B68757  12.213   3.212   7.143
 5269POPC   C4B68758  11.981   2.981   7.437
 5270POPC   NC368759  37.200  32.736   5.454
 5270POPC   PO468760  37.515  32.067   5.431
 5270POPC   GL168761  37.646  32.197   5.807
 5270POPC   GL268762  37.315  32.371   5.830
 5270POPC   C1A68763  37.866  32.003   6.162
 5270POPC   D2A68764  38.027  31.981   6.594
 5270POPC   C3A68765  37.722  32.189   6.902
 5270POPC   C4A68766  37.646  32.250   7.313
 5270POPC   C1B68767  37.553  32.585   6.148
 5270POPC   C2B68768  37.455  32.397   6.526
 5270POPC   C3B68769  37.289  32.515   6.923
 5270POPC   C4B68770  37.465  32.717   7.259
 5271POPC   NC368771  24.468   6.546   5.312
 5271POPC   PO468772  24.919   6.885   5.159
 5271POPC   GL168773  24.756   6.707   5.664
 5271POPC   GL268774  24.410   6.772   5.812
 5271POPC   C1A68775  24.799   6.718   6.144
 5271POPC   D2A68776  24.597   6.684   6.557
 5271POPC   C3A68777  24.723   6.770   6.970
 5271POPC   C4A68778  24.735   6.485   7.315
 5271POPC   C1B68779  24.317   6.497   6.168
 5271POPC   C2B68780  24.253   6.297   6.582
 5271POPC   C3B68781  24.307   6.434   7.014
 5271POPC   C4B68782  23.931   6.461   7.305
 5272POPC   NC368783  21.440   3.172   5.514
 5272POPC   PO468784  21.613   2.525   5.452
 5272POPC   GL168785  21.396   2.748   5.809
 5272POPC   GL268786  21.029   2.736   5.734
 5272POPC   C1A68787  21.567   3.054   6.196
 5272POPC   D2A68788  21.704   3.317   6.599
 5272POPC   C3A68789  21.668   3.094   7.021
 5272POPC   C4A68790  21.746   2.644   7.179
 5272POPC   C1B68791  21.076   2.946   6.145
 5272POPC   C2B68792  21.255   2.733   6.480
 5272POPC   C3B68793  21.339   2.725   6.880
 5272POPC   C4B68794  21.194   2.821   7.286
 5273POPC   NC368795  21.504  30.131   5.621
 5273POPC   PO468796  21.416  29.515   5.528
 5273POPC   GL168797  21.424  29.591   5.937
 5273POPC   GL268798  21.736  29.754   5.934
 5273POPC   C1A68799  21.147  29.770   6.243
 5273POPC   D2A68800  21.159  30.080   6.571
 5273POPC   C3A68801  21.216  29.787   6.901
 5273POPC   C4A68802  21.210  29.371   7.092
 5273POPC   C1B68803  21.598  30.025   6.294
 5273POPC   C2B68804  21.636  30.048   6.755
 5273POPC   C3B68805  21.605  30.021   7.188
 5273POPC   C4B68806  21.852  29.825   7.504
 5274POPC   NC368807  19.920  30.549   5.510
 5274POPC   PO468808  20.025  31.128   5.421
 5274POPC   GL168809  20.131  30.942   5.866
 5274POPC   GL268810  20.118  30.580   5.998
 5274POPC   C1A68811  20.143  30.961   6.338
 5274POPC   D2A68812  20.026  30.613   6.616
 5274POPC   C3A68813  20.139  30.657   7.058
 5274POPC   C4A68814  19.848  30.893   7.280
 5274POPC   C1B68815  19.721  30.618   6.188
 5274POPC   C2B68816  19.517  30.470   6.579
 5274POPC   C3B68817  19.660  30.469   7.020
 5274POPC   C4B68818  19.888  30.393   7.428
 5275POPC   NC368819  18.373  34.844   5.420
 5275POPC   PO468820  18.492  35.505   5.376
 5275POPC   GL168821  18.492  35.259   5.743
 5275POPC   GL268822  18.159  35.341   5.855
 5275POPC   C1A68823  18.472  35.055   6.150
 5275POPC   D2A68824  18.532  35.300   6.505
 5275POPC   C3A68825  18.501  35.257   6.935
 5275POPC   C4A68826  18.715  35.345   7.310
 5275POPC   C1B68827  18.071  35.371   6.291
 5275POPC   C2B68828  18.089  35.496   6.704
 5275POPC   C3B68829  18.018  35.326   7.105
 5275POPC   C4B68830  18.279  35.118   7.446
 5276POPC   NC368831   9.834  21.031   5.608
 5276POPC   PO468832   9.711  20.588   5.125
 5276POPC   GL168833   9.871  20.530   5.673
 5276POPC   GL268834   9.627  20.776   5.983
 5276POPC   C1A68835  10.064  20.670   6.125
 5276POPC   D2A68836   9.832  20.865   6.482
 5276POPC   C3A68837   9.900  20.687   6.898
 5276POPC   C4A68838   9.814  20.883   7.290
 5276POPC   C1B68839   9.389  20.662   6.328
 5276POPC   C2B68840   9.403  20.614   6.735
 5276POPC   C3B68841   9.370  20.763   7.111
 5276POPC   C4B68842   9.401  20.713   7.563
 5277POPC   NC368843  11.065   9.823   5.497
 5277POPC   PO468844  11.753   9.950   5.409
 5277POPC   GL168845  11.464   9.934   5.793
 5277POPC   GL268846  11.389   9.602   5.863
 5277POPC   C1A68847  11.336  10.120   6.198
 5277POPC   D2A68848  11.180   9.934   6.572
 5277POPC   C3A68849  11.344   9.893   6.973
 5277POPC   C4A68850  11.046   9.891   7.313
 5277POPC   C1B68851  11.200   9.529   6.241
 5277POPC   C2B68852  11.289   9.446   6.648
 5277POPC   C3B68853  11.167   9.418   7.071
 5277POPC   C4B68854  11.313   9.463   7.471
 5278POPC   NC368855   0.240  10.657   5.535
 5278POPC   PO468856  44.720  10.268   5.489
 5278POPC   GL168857  44.587  10.467   5.829
 5278POPC   GL268858  44.513  10.792   5.691
 5278POPC   C1A68859  44.517  10.434   6.259
 5278POPC   D2A68860  44.707  10.212   6.577
 5278POPC   C3A68861  44.602  10.488   6.848
 5278POPC   C4A68862  44.601  10.584   7.268
 5278POPC   C1B68863  44.734  10.911   6.080
 5278POPC   C2B68864  44.766  10.844   6.523
 5278POPC   C3B68865  44.808  10.984   6.946
 5278POPC   C4B68866  44.698  11.061   7.377
 5279POPC   NC368867   9.192  39.000   5.662
 5279POPC   PO468868   8.590  39.297   5.566
 5279POPC   GL168869   8.694  39.150   5.928
 5279POPC   GL268870   8.973  39.365   5.998
 5279POPC   C1A68871   8.694  39.189   6.376
 5279POPC   D2A68872   9.054  39.011   6.599
 5279POPC   C3A68873   9.192  39.235   6.944
 5279POPC   C4A68874   8.865  39.368   7.213
 5279POPC   C1B68875   9.249  39.429   6.356
 5279POPC   C2B68876   9.568  39.553   6.637
 5279POPC   C3B68877   9.649  39.484   7.064
 5279POPC   C4B68878   9.382  39.423   7.411
 5280POPC   NC368879   1.475   0.270   5.334
 5280POPC   PO468880   2.139   0.599   5.367
 5280POPC   GL168881   1.939   0.530   5.787
 5280POPC   GL268882   2.264   0.486   5.910
 5280POPC   C1A68883   1.908   0.250   6.185
 5280POPC   D2A68884   1.755   0.297   6.605
 5280POPC   C3A68885   1.950   0.189   6.990
 5280POPC   C4A68886   1.778   0.192   7.378
 5280POPC   C1B68887   2.270   0.587   6.317
 5280POPC   C2B68888   2.116   0.678   6.711
 5280POPC   C3B68889   2.247   0.592   7.134
 5280POPC   C4B68890   2.267   0.260   7.468
 5281POPC   NC368891  15.644  39.434   5.554
 5281POPC   PO468892  16.164  39.828   5.309
 5281POPC   GL168893  15.926  39.865   5.738
 5281POPC   GL268894  15.771  40.152   5.876
 5281POPC   C1A68895  15.773  39.740   6.169
 5281POPC   D2A68896  15.979  39.745   6.576
 5281POPC   C3A68897  15.806  39.759   6.993
 5281POPC   C4A68898  15.749  39.904   7.440
 5281POPC   C1B68899  15.761  40.273   6.293
 5281POPC   C2B68900  15.662  40.190   6.709
 5281POPC   C3B68901  15.756  40.278   7.117
 5281POPC   C4B68902  16.132  40.367   7.398
 5282POPC   NC368903  23.374   9.904   5.488
 5282POPC   PO468904  23.873   9.546   5.241
 5282POPC   GL168905  23.843   9.721   5.692
 5282POPC   GL268906  23.540   9.600   5.859
 5282POPC   C1A68907  23.789   9.913   6.146
 5282POPC   D2A68908  23.607   9.772   6.556
 5282POPC   C3A68909  23.710  10.106   6.805
 5282POPC   C4A68910  23.867  10.181   7.209
 5282POPC   C1B68911  23.581   9.342   6.263
 5282POPC   C2B68912  23.940   9.271   6.548
 5282POPC   C3B68913  24.012   9.402   6.965
 5282POPC   C4B68914  23.715   9.711   7.122
 5283POPC   NC368915  14.642  13.928   5.348
 5283POPC   PO468916  14.195  13.404   5.447
 5283POPC   GL168917  14.277  13.668   5.796
 5283POPC   GL268918  14.607  13.812   5.837
 5283POPC   C1A68919  14.225  13.521   6.225
 5283POPC   D2A68920  14.411  13.509   6.642
 5283POPC   C3A68921  14.149  13.545   7.024
 5283POPC   C4A68922  14.152  13.529   7.495
 5283POPC   C1B68923  14.440  13.986   6.205
 5283POPC   C2B68924  14.428  14.120   6.617
 5283POPC   C3B68925  14.519  13.906   6.989
 5283POPC   C4B68926  14.271  13.990   7.318
 5284POPC   NC368927  17.307  31.271   5.220
 5284POPC   PO468928  17.623  30.729   5.446
 5284POPC   GL168929  17.531  30.696   5.870
 5284POPC   GL268930  17.446  31.027   5.913
 5284POPC   C1A68931  17.717  30.804   6.293
 5284POPC   D2A68932  17.926  31.141   6.575
 5284POPC   C3A68933  17.756  31.076   7.000
 5284POPC   C4A68934  17.580  30.696   7.166
 5284POPC   C1B68935  17.198  30.786   6.256
 5284POPC   C2B68936  17.293  30.632   6.686
 5284POPC   C3B68937  17.088  30.642   7.133
 5284POPC   C4B68938  17.190  30.710   7.606
 5285POPC   NC368939  34.076  38.827   5.425
 5285POPC   PO468940  33.699  38.357   5.193
 5285POPC   GL168941  33.626  38.443   5.648
 5285POPC   GL268942  33.952  38.401   5.757
 5285POPC   C1A68943  33.576  38.421   6.136
 5285POPC   D2A68944  33.601  38.192   6.544
 5285POPC   C3A68945  33.821  38.450   6.837
 5285POPC   C4A68946  33.759  38.442   7.255
 5285POPC   C1B68947  34.042  38.666   6.105
 5285POPC   C2B68948  33.887  38.870   6.472
 5285POPC   C3B68949  34.068  38.888   6.854
 5285POPC   C4B68950  34.136  38.774   7.238
 5286POPC   NC368951  44.252  40.018   5.558
 5286POPC   PO468952  43.591  40.244   5.576
 5286POPC   GL168953  43.738  39.964   5.876
 5286POPC   GL268954  43.954  39.664   5.821
 5286POPC   C1A68955  43.970  40.123   6.206
 5286POPC   D2A68956  44.027  40.279   6.615
 5286POPC   C3A68957  43.707  40.104   6.892
 5286POPC   C4A68958  43.790  40.008   7.322
 5286POPC   C1B68959  44.253  39.693   6.155
 5286POPC   C2B68960  44.270  39.822   6.562
 5286POPC   C3B68961  44.178  39.894   6.985
 5286POPC   C4B68962  44.235  39.610   7.340
 5287POPC   NC368963  14.746  21.081   5.403
 5287POPC   PO468964  14.265  21.480   5.533
 5287POPC   GL168965  14.253  21.278   5.876
 5287POPC   GL268966  14.599  21.161   5.912
 5287POPC   C1A68967  14.291  21.493   6.245
 5287POPC   D2A68968  14.480  21.395   6.618
 5287POPC   C3A68969  14.428  21.608   7.001
 5287POPC   C4A68970  14.247  21.262   7.221
 5287POPC   C1B68971  14.841  21.383   6.230
 5287POPC   C2B68972  15.004  21.290   6.641
 5287POPC   C3B68973  14.759  21.198   7.003
 5287POPC   C4B68974  14.703  21.393   7.378
 5288POPC   NC368975  14.149  40.958   5.576
 5288POPC   PO468976  14.720  40.698   5.383
 5288POPC   GL168977  14.686  40.724   5.831
 5288POPC   GL268978  14.338  40.681   5.993
 5288POPC   C1A68979  14.795  40.803   6.256
 5288POPC   D2A68980  14.444  40.781   6.524
 5288POPC   C3A68981  14.408  40.963   6.915
 5288POPC   C4A68982  14.498  40.774   7.294
 5288POPC   C1B68983  14.028  40.552   6.335
 5288POPC   C2B68984  14.073  40.492   6.817
 5288POPC   C3B68985  13.995  40.742   7.179
 5288POPC   C4B68986  14.085  40.671   7.589
 5289POPC   NC368987   4.442  21.611   5.157
 5289POPC   PO468988   4.060  21.174   5.549
 5289POPC   GL168989   4.219  21.400   5.899
 5289POPC   GL268990   4.581  21.422   5.889
 5289POPC   C1A68991   4.276  21.365   6.343
 5289POPC   D2A68992   4.250  21.066   6.625
 5289POPC   C3A68993   4.261  21.257   7.027
 5289POPC   C4A68994   3.992  21.607   7.116
 5289POPC   C1B68995   4.714  21.595   6.326
 5289POPC   C2B68996   4.532  21.624   6.743
 5289POPC   C3B68997   4.481  21.753   7.160
 5289POPC   C4B68998   4.666  21.378   7.338
 5290POPC   NC368999  25.069  19.246   5.469
 5290POPC   PO469000  25.661  18.893   5.419
 5290POPC   GL169001  25.565  19.076   5.809
 5290POPC   GL269002  25.274  18.924   5.805
 5290POPC   C1A69003  25.271  19.244   6.174
 5290POPC   D2A69004  25.160  19.098   6.567
 5290POPC   C3A69005  25.294  19.231   6.954
 5290POPC   C4A69006  25.481  19.041   7.258
 5290POPC   C1B69007  25.053  18.760   6.158
 5290POPC   C2B69008  24.911  18.650   6.576
 5290POPC   C3B69009  25.106  18.764   6.955
 5290POPC   C4B69010  24.988  18.868   7.355
 5291POPC   NC369011  40.839  10.591   5.328
 5291POPC   PO469012  41.328  10.163   5.349
 5291POPC   GL169013  40.984  10.274   5.719
 5291POPC   GL269014  40.646  10.465   5.780
 5291POPC   C1A69015  40.946  10.411   6.182
 5291POPC   D2A69016  40.851  10.233   6.575
 5291POPC   C3A69017  40.835  10.405   6.980
 5291POPC   C4A69018  40.977  10.759   7.181
 5291POPC   C1B69019  40.539  10.755   6.126
 5291POPC   C2B69020  40.528  10.639   6.571
 5291POPC   C3B69021  40.517  10.848   6.959
 5291POPC   C4B69022  40.359  10.741   7.327
 5292POPC   NC369023  33.554  44.151   5.316
 5292POPC   PO469024  34.023  43.724   5.491
 5292POPC   GL169025  34.018  43.914   5.913
 5292POPC   GL269026  33.779  44.145   5.791
 5292POPC   C1A69027  33.988  43.913   6.366
 5292POPC   D2A69028  33.753  43.776   6.722
 5292POPC   C3A69029  33.834  43.996   7.085
 5292POPC   C4A69030  34.139  43.847   7.395
 5292POPC   C1B69031  33.552  44.083   6.179
 5292POPC   C2B69032  33.602  44.249   6.605
 5292POPC   C3B69033  33.329  44.032   6.889
 5292POPC   C4B69034  33.337  43.766   7.207
 5293POPC   NC369035  38.414  44.385   5.380
 5293POPC   PO469036  38.636  44.996   5.626
 5293POPC   GL169037  38.325  44.690   5.831
 5293POPC   GL269038  38.117  44.355   5.785
 5293POPC   C1A69039  38.296  44.577   6.252
 5293POPC   D2A69040  38.406  44.489   6.655
 5293POPC   C3A69041  38.395  44.792   6.950
 5293POPC   C4A69042  38.431   0.015   7.291
 5293POPC   C1B69043  38.199  44.092   6.156
 5293POPC   C2B69044  38.331  44.001   6.554
 5293POPC   C3B69045  38.208  44.147   6.971
 5293POPC   C4B69046  38.081  44.297   7.371
 5294POPC   NC369047  29.367  12.280   5.228
 5294POPC   PO469048  28.781  11.993   5.153
 5294POPC   GL169049  29.143  11.982   5.574
 5294POPC   GL269050  29.239  12.302   5.714
 5294POPC   C1A69051  29.121  11.957   6.092
 5294POPC   D2A69052  29.139  11.881   6.546
 5294POPC   C3A69053  28.853  12.032   6.880
 5294POPC   C4A69054  29.194  11.952   7.176
 5294POPC   C1B69055  29.263  12.434   6.111
 5294POPC   C2B69056  28.996  12.365   6.458
 5294POPC   C3B69057  29.200  12.379   6.848
 5294POPC   C4B69058  29.520  12.573   7.038
 5295POPC   NC369059  30.034  39.572   5.324
 5295POPC   PO469060  30.225  38.914   5.180
 5295POPC   GL169061  30.039  39.154   5.640
 5295POPC   GL269062  29.846  39.491   5.786
 5295POPC   C1A69063  29.908  39.093   6.091
 5295POPC   D2A69064  30.108  39.146   6.501
 5295POPC   C3A69065  29.962  39.024   6.906
 5295POPC   C4A69066  29.987  39.226   7.315
 5295POPC   C1B69067  29.525  39.458   6.115
 5295POPC   C2B69068  29.579  39.279   6.555
 5295POPC   C3B69069  29.656  39.421   6.986
 5295POPC   C4B69070  29.647  39.660   7.344
 5296POPC   NC369071   2.351  40.882   5.431
 5296POPC   PO469072   3.002  40.653   5.329
 5296POPC   GL169073   2.770  40.767   5.720
 5296POPC   GL269074   2.441  40.609   5.863
 5296POPC   C1A69075   2.739  40.928   6.154
 5296POPC   D2A69076   2.488  40.960   6.495
 5296POPC   C3A69077   2.480  40.659   6.847
 5296POPC   C4A69078   2.687  40.678   7.225
 5296POPC   C1B69079   2.773  40.426   6.134
 5296POPC   C2B69080   2.885  40.584   6.533
 5296POPC   C3B69081   2.928  40.351   6.891
 5296POPC   C4B69082   2.676  40.062   7.080
 5297POPC   NC369083   6.094  24.348   5.364
 5297POPC   PO469084   5.581  24.695   5.407
 5297POPC   GL169085   5.769  24.511   5.760
 5297POPC   GL269086   6.069  24.678   5.826
 5297POPC   C1A69087   5.868  24.387   6.196
 5297POPC   D2A69088   5.679  24.542   6.600
 5297POPC   C3A69089   5.869  24.480   7.013
 5297POPC   C4A69090   5.742  24.231   7.398
 5297POPC   C1B69091   5.800  24.902   6.139
 5297POPC   C2B69092   5.780  25.068   6.589
 5297POPC   C3B69093   6.077  24.944   6.921
 5297POPC   C4B69094   6.123  24.813   7.373
 5298POPC   NC369095  31.498  37.090   5.398
 5298POPC   PO469096  31.015  36.685   5.452
 5298POPC   GL169097  31.347  36.779   5.801
 5298POPC   GL269098  31.680  36.996   5.841
 5298POPC   C1A69099  31.504  36.730   6.266
 5298POPC   D2A69100  31.288  36.674   6.691
 5298POPC   C3A69101  31.569  36.633   7.059
 5298POPC   C4A69102  31.943  36.601   7.330
 5298POPC   C1B69103  31.380  37.212   6.100
 5298POPC   C2B69104  31.404  37.226   6.538
 5298POPC   C3B69105  31.360  37.106   6.958
 5298POPC   C4B69106  31.670  37.086   7.289
 5299POPC   NC369107   1.827   7.015   5.440
 5299POPC   PO469108   1.885   7.660   5.435
 5299POPC   GL169109   1.892   7.515   5.865
 5299POPC   GL269110   2.206   7.677   5.893
 5299POPC   C1A69111   1.955   7.241   6.267
 5299POPC   D2A69112   1.762   7.088   6.684
 5299POPC   C3A69113   1.852   7.284   7.100
 5299POPC   C4A69114   1.712   7.680   7.292
 5299POPC   C1B69115   2.327   7.608   6.302
 5299POPC   C2B69116   2.139   7.544   6.711
 5299POPC   C3B69117   2.291   7.650   7.110
 5299POPC   C4B69118   2.274   7.953   7.425
 5300POPC   NC369119   6.005  35.644   5.398
 5300POPC   PO469120   6.034  36.274   5.273
 5300POPC   GL169121   6.215  36.147   5.719
 5300POPC   GL269122   5.943  35.917   5.835
 5300POPC   C1A69123   6.180  36.162   6.231
 5300POPC   D2A69124   5.947  36.133   6.700
 5300POPC   C3A69125   6.132  36.229   7.166
 5300POPC   C4A69126   5.883  36.386   7.600
 5300POPC   C1B69127   5.718  35.764   6.212
 5300POPC   C2B69128   5.853  35.617   6.622
 5300POPC   C3B69129   5.658  35.758   6.976
 5300POPC   C4B69130   5.736  35.976   7.328
 5301POPC   NC369131   7.767  24.651   5.321
 5301POPC   PO469132   7.151  24.235   5.391
 5301POPC   GL169133   7.336  24.495   5.703
 5301POPC   GL269134   7.668  24.436   5.772
 5301POPC   C1A69135   7.327  24.358   6.148
 5301POPC   D2A69136   7.109  24.232   6.538
 5301POPC   C3A69137   7.277  24.374   6.916
 5301POPC   C4A69138   7.243  24.786   7.106
 5301POPC   C1B69139   7.805  24.160   6.099
 5301POPC   C2B69140   7.586  24.034   6.477
 5301POPC   C3B69141   7.426  23.860   6.839
 5301POPC   C4B69142   7.197  23.941   7.206
 5302POPC   NC369143  32.857  37.847   5.402
 5302POPC   PO469144  33.326  37.500   5.414
 5302POPC   GL169145  33.054  37.697   5.829
 5302POPC   GL269146  32.796  38.019   5.864
 5302POPC   C1A69147  32.814  37.574   6.179
 5302POPC   D2A69148  32.866  37.444   6.587
 5302POPC   C3A69149  32.767  37.700   6.890
 5302POPC   C4A69150  32.949  37.764   7.255
 5302POPC   C1B69151  33.011  38.065   6.223
 5302POPC   C2B69152  33.074  38.055   6.632
 5302POPC   C3B69153  33.331  37.817   6.856
 5302POPC   C4B69154  33.431  37.836   7.265
 5303POPC   NC369155  31.873  33.952   5.446
 5303POPC   PO469156  32.559  33.906   5.567
 5303POPC   GL169157  32.398  33.741   5.885
 5303POPC   GL269158  32.130  33.582   5.732
 5303POPC   C1A69159  32.430  33.646   6.285
 5303POPC   D2A69160  32.185  33.740   6.618
 5303POPC   C3A69161  32.340  33.580   7.000
 5303POPC   C4A69162  32.363  33.782   7.402
 5303POPC   C1B69163  31.932  33.682   6.144
 5303POPC   C2B69164  31.673  33.602   6.520
 5303POPC   C3B69165  31.807  33.674   6.956
 5303POPC   C4B69166  31.971  33.476   7.350
 5304POPC   NC369167  39.326  41.685   5.294
 5304POPC   PO469168  38.837  41.331   5.319
 5304POPC   GL169169  39.091  41.425   5.682
 5304POPC   GL269170  39.479  41.482   5.730
 5304POPC   C1A69171  38.949  41.457   6.113
 5304POPC   D2A69172  39.006  41.708   6.502
 5304POPC   C3A69173  39.052  41.527   6.910
 5304POPC   C4A69174  38.850  41.298   7.253
 5304POPC   C1B69175  39.434  41.522   6.177
 5304POPC   C2B69176  39.536  41.406   6.604
 5304POPC   C3B69177  39.564  41.592   7.002
 5304POPC   C4B69178  39.306  41.652   7.346
 5305POPC   NC369179  27.931  41.148   5.414
 5305POPC   PO469180  28.561  41.090   5.391
 5305POPC   GL169181  28.436  40.816   5.727
 5305POPC   GL269182  28.172  40.561   5.706
 5305POPC   C1A69183  28.503  40.819   6.156
 5305POPC   D2A69184  28.649  40.980   6.508
 5305POPC   C3A69185  28.593  40.851   6.919
 5305POPC   C4A69186  28.475  41.133   7.233
 5305POPC   C1B69187  28.063  40.583   6.154
 5305POPC   C2B69188  28.084  40.849   6.532
 5305POPC   C3B69189  28.068  40.901   6.972
 5305POPC   C4B69190  28.274  40.644   7.284
 5306POPC   NC369191  12.368   6.085   5.478
 5306POPC   PO469192  11.886   5.742   5.292
 5306POPC   GL169193  11.993   5.699   5.745
 5306POPC   GL269194  11.997   6.025   5.861
 5306POPC   C1A69195  12.108   5.620   6.217
 5306POPC   D2A69196  11.910   5.632   6.631
 5306POPC   C3A69197  12.094   5.640   7.057
 5306POPC   C4A69198  11.915   5.645   7.492
 5306POPC   C1B69199  12.014   6.097   6.322
 5306POPC   C2B69200  12.212   6.053   6.724
 5306POPC   C3B69201  12.131   6.147   7.142
 5306POPC   C4B69202  11.876   6.184   7.524
 5307POPC   NC369203  20.294  42.234   5.597
 5307POPC   PO469204  19.657  42.064   5.531
 5307POPC   GL169205  19.720  42.326   5.882
 5307POPC   GL269206  19.969  42.578   5.853
 5307POPC   C1A69207  19.575  42.371   6.302
 5307POPC   D2A69208  19.755  42.114   6.623
 5307POPC   C3A69209  19.520  42.131   6.983
 5307POPC   C4A69210  19.685  42.106   7.384
 5307POPC   C1B69211  20.104  42.456   6.257
 5307POPC   C2B69212  20.174  42.547   6.680
 5307POPC   C3B69213  19.961  42.400   7.024
 5307POPC   C4B69214  19.569  42.586   7.169
 5308POPC   NC369215  31.730  13.250   5.143
 5308POPC   PO469216  31.234  13.636   5.342
 5308POPC   GL169217  31.289  13.605   5.795
 5308POPC   GL269218  31.358  13.259   5.820
 5308POPC   C1A69219  31.509  13.619   6.204
 5308POPC   D2A69220  31.794  13.675   6.561
 5308POPC   C3A69221  31.578  13.636   6.941
 5308POPC   C4A69222  31.555  13.797   7.341
 5308POPC   C1B69223  31.601  13.108   6.173
 5308POPC   C2B69224  31.499  13.261   6.572
 5308POPC   C3B69225  31.194  13.270   6.899
 5308POPC   C4B69226  31.217  13.420   7.266
 5309POPC   NC369227  41.729   0.703   5.042
 5309POPC   PO469228  41.368   0.268   5.326
 5309POPC   GL169229  41.467   0.254   5.771
 5309POPC   GL269230  41.646  44.986   5.804
 5309POPC   C1A69231  41.733   0.429   6.124
 5309POPC   D2A69232  41.905   0.387   6.560
 5309POPC   C3A69233  41.671   0.441   6.938
 5309POPC   C4A69234  41.522   0.787   7.193
 5309POPC   C1B69235  41.412   0.049   6.230
 5309POPC   C2B69236  41.454   0.059   6.651
 5309POPC   C3B69237  41.347   0.016   7.064
 5309POPC   C4B69238  41.503   0.275   7.387
 5310POPC   NC369239   3.470  15.098   5.310
 5310POPC   PO469240   3.243  15.637   5.642
 5310POPC   GL169241   3.271  15.126   5.861
 5310POPC   GL269242   3.675  14.939   5.904
 5310POPC   C1A69243   3.445  15.086   6.309
 5310POPC   D2A69244   3.694  14.943   6.656
 5310POPC   C3A69245   3.509  15.019   7.059
 5310POPC   C4A69246   3.311  14.758   7.379
 5310POPC   C1B69247   3.935  15.224   6.253
 5310POPC   C2B69248   3.857  15.459   6.632
 5310POPC   C3B69249   3.981  15.231   7.003
 5310POPC   C4B69250   3.823  15.209   7.414
 5311POPC   NC369251  32.659  28.378   5.313
 5311POPC   PO469252  33.367  28.300   5.420
 5311POPC   GL169253  33.197  28.319   5.799
 5311POPC   GL269254  32.883  28.462   5.750
 5311POPC   C1A69255  33.157  28.657   6.112
 5311POPC   D2A69256  32.999  28.596   6.503
 5311POPC   C3A69257  33.172  28.382   6.847
 5311POPC   C4A69258  33.240  28.662   7.192
 5311POPC   C1B69259  32.635  28.643   6.101
 5311POPC   C2B69260  32.529  28.405   6.469
 5311POPC   C3B69261  32.686  28.380   6.901
 5311POPC   C4B69262  32.482  28.160   7.215
 5312POPC   NC369263  10.756   3.863   5.262
 5312POPC   PO469264  10.446   3.172   5.374
 5312POPC   GL169265  10.649   3.416   5.732
 5312POPC   GL269266  10.583   3.743   5.735
 5312POPC   C1A69267  10.594   3.536   6.216
 5312POPC   D2A69268  10.410   3.612   6.654
 5312POPC   C3A69269  10.494   3.449   7.057
 5312POPC   C4A69270  10.838   3.597   7.280
 5312POPC   C1B69271  10.577   4.041   6.109
 5312POPC   C2B69272  10.683   4.044   6.559
 5312POPC   C3B69273  10.659   3.957   6.998
 5312POPC   C4B69274  10.846   4.100   7.431
 5313POPC   NC369275   4.784  25.516   5.408
 5313POPC   PO469276   5.473  25.260   5.475
 5313POPC   GL169277   5.170  25.424   5.741
 5313POPC   GL269278   4.914  25.168   5.777
 5313POPC   C1A69279   5.125  25.389   6.190
 5313POPC   D2A69280   5.154  25.177   6.566
 5313POPC   C3A69281   5.078  25.448   6.918
 5313POPC   C4A69282   5.304  25.487   7.298
 5313POPC   C1B69283   4.682  25.115   6.165
 5313POPC   C2B69284   4.689  24.964   6.614
 5313POPC   C3B69285   4.941  24.962   6.998
 5313POPC   C4B69286   4.840  25.208   7.358
 5314POPC   NC369287   6.926  13.277   5.559
 5314POPC   PO469288   6.624  12.643   5.427
 5314POPC   GL169289   6.608  12.888   5.812
 5314POPC   GL269290   6.945  12.798   5.814
 5314POPC   C1A69291   6.409  12.899   6.253
 5314POPC   D2A69292   6.154  12.794   6.652
 5314POPC   C3A69293   6.415  12.955   6.999
 5314POPC   C4A69294   6.734  13.081   7.293
 5314POPC   C1B69295   6.939  13.011   6.192
 5314POPC   C2B69296   7.012  12.800   6.557
 5314POPC   C3B69297   6.872  12.717   6.934
 5314POPC   C4B69298   7.033  12.672   7.358
 5315POPC   NC369299  14.528  19.440   5.418
 5315POPC   PO469300  14.204  20.063   5.595
 5315POPC   GL169301  14.414  19.754   5.798
 5315POPC   GL269302  14.124  19.505   5.778
 5315POPC   C1A69303  14.666  19.791   6.164
 5315POPC   D2A69304  14.837  19.901   6.566
 5315POPC   C3A69305  14.492  19.984   6.847
 5315POPC   C4A69306  14.402  20.022   7.303
 5315POPC   C1B69307  14.123  19.742   6.205
 5315POPC   C2B69308  14.006  19.809   6.637
 5315POPC   C3B69309  14.132  19.682   7.049
 5315POPC   C4B69310  14.104  19.691   7.516
 5316POPC   NC369311  11.584  21.887   5.648
 5316POPC   PO469312  11.219  21.285   5.508
 5316POPC   GL169313  11.358  21.263   5.931
 5316POPC   GL269314  11.680  21.456   5.938
 5316POPC   C1A69315  11.514  21.217   6.352
 5316POPC   D2A69316  11.609  21.449   6.733
 5316POPC   C3A69317  11.528  21.209   7.104
 5316POPC   C4A69318  11.134  21.176   7.268
 5316POPC   C1B69319  11.456  21.720   6.264
 5316POPC   C2B69320  11.214  21.865   6.621
 5316POPC   C3B69321  11.199  21.644   7.016
 5316POPC   C4B69322  11.247  21.725   7.464
 5317POPC   NC369323  36.798  28.729   5.517
 5317POPC   PO469324  36.739  28.063   5.423
 5317POPC   GL169325  36.935  28.298   5.768
 5317POPC   GL269326  36.602  28.368   5.838
 5317POPC   C1A69327  37.015  28.607   6.131
 5317POPC   D2A69328  37.150  28.515   6.548
 5317POPC   C3A69329  36.920  28.716   6.896
 5317POPC   C4A69330  37.041  28.675   7.292
 5317POPC   C1B69331  36.699  28.227   6.222
 5317POPC   C2B69332  36.670  28.351   6.604
 5317POPC   C3B69333  36.883  28.225   6.976
 5317POPC   C4B69334  36.736  28.273   7.376
 5318POPC   NC369335  29.337  43.207   5.469
 5318POPC   PO469336  29.073  42.613   5.470
 5318POPC   GL169337  29.081  42.867   5.855
 5318POPC   GL269338  29.039  43.247   5.889
 5318POPC   C1A69339  29.034  42.953   6.302
 5318POPC   D2A69340  28.899  43.254   6.558
 5318POPC   C3A69341  28.764  42.959   6.835
 5318POPC   C4A69342  28.965  42.879   7.212
 5318POPC   C1B69343  29.443  43.168   6.114
 5318POPC   C2B69344  29.465  43.179   6.570
 5318POPC   C3B69345  29.230  43.269   6.973
 5318POPC   C4B69346  29.443  43.398   7.341
 5319POPC   NC369347  36.803  13.619   5.246
 5319POPC   PO469348  37.416  13.771   5.469
 5319POPC   GL169349  37.026  13.775   5.717
 5319POPC   GL269350  37.186  13.996   5.968
 5319POPC   C1A69351  36.720  13.806   6.100
 5319POPC   D2A69352  36.810  13.641   6.537
 5319POPC   C3A69353  36.907  13.765   6.984
 5319POPC   C4A69354  36.651  13.626   7.341
 5319POPC   C1B69355  37.168  13.531   6.148
 5319POPC   C2B69356  37.225  13.349   6.578
 5319POPC   C3B69357  37.257  13.244   7.033
 5319POPC   C4B69358  37.155  13.530   7.395
 5320POPC   NC369359  22.126   7.114   5.327
 5320POPC   PO469360  21.880   6.538   5.335
 5320POPC   GL169361  22.056   6.689   5.723
 5320POPC   GL269362  22.361   6.500   5.702
 5320POPC   C1A69363  21.997   6.587   6.175
 5320POPC   D2A69364  21.896   6.770   6.574
 5320POPC   C3A69365  21.905   6.511   6.951
 5320POPC   C4A69366  21.879   6.201   7.256
 5320POPC   C1B69367  22.497   6.724   6.091
 5320POPC   C2B69368  22.527   6.759   6.535
 5320POPC   C3B69369  22.625   6.595   6.946
 5320POPC   C4B69370  22.302   6.587   7.285
 5321POPC   NC369371  30.198  15.075   5.287
 5321POPC   PO469372  29.925  15.661   5.460
 5321POPC   GL169373  29.964  15.449   5.857
 5321POPC   GL269374  30.070  15.091   5.812
 5321POPC   C1A69375  29.774  15.234   6.232
 5321POPC   D2A69376  29.901  14.944   6.540
 5321POPC   C3A69377  29.677  15.073   6.883
 5321POPC   C4A69378  29.834  14.927   7.233
 5321POPC   C1B69379  30.282  15.232   6.212
 5321POPC   C2B69380  30.138  15.418   6.631
 5321POPC   C3B69381  30.104  15.355   7.101
 5321POPC   C4B69382  30.100  15.412   7.579
 5322POPC   NC369383  41.150  12.917   5.374
 5322POPC   PO469384  40.553  12.816   5.447
 5322POPC   GL169385  40.789  12.804   5.804
 5322POPC   GL269386  41.022  13.115   5.833
 5322POPC   C1A69387  40.546  12.787   6.209
 5322POPC   D2A69388  40.458  12.904   6.643
 5322POPC   C3A69389  40.628  12.845   7.042
 5322POPC   C4A69390  40.404  12.488   7.147
 5322POPC   C1B69391  41.052  12.882   6.234
 5322POPC   C2B69392  40.971  12.957   6.654
 5322POPC   C3B69393  41.164  12.877   7.036
 5322POPC   C4B69394  41.147  12.917   7.467
 5323POPC   NC369395  27.589  36.479   5.528
 5323POPC   PO469396  27.438  37.203   5.513
 5323POPC   GL169397  27.741  36.933   5.734
 5323POPC   GL269398  27.550  36.731   5.966
 5323POPC   C1A69399  27.975  36.900   6.119
 5323POPC   D2A69400  27.670  36.854   6.482
 5323POPC   C3A69401  27.789  37.008   6.883
 5323POPC   C4A69402  27.612  37.005   7.282
 5323POPC   C1B69403  27.305  36.499   6.225
 5323POPC   C2B69404  27.161  36.647   6.591
 5323POPC   C3B69405  27.323  36.686   6.997
 5323POPC   C4B69406  27.264  36.641   7.452
 5324POPC   NC369407  28.885  37.267   5.524
 5324POPC   PO469408  28.884  37.979   5.471
 5324POPC   GL169409  29.121  37.828   5.856
 5324POPC   GL269410  29.091  37.502   5.929
 5324POPC   C1A69411  29.121  37.974   6.253
 5324POPC   D2A69412  28.809  37.838   6.514
 5324POPC   C3A69413  29.070  37.803   6.820
 5324POPC   C4A69414  29.294  37.849   7.144
 5324POPC   C1B69415  29.148  37.481   6.360
 5324POPC   C2B69416  29.014  37.313   6.716
 5324POPC   C3B69417  29.186  37.357   7.085
 5324POPC   C4B69418  29.258  37.213   7.451
 5325POPC   NC369419  38.116  33.017   5.403
 5325POPC   PO469420  38.229  33.637   5.577
 5325POPC   GL169421  38.253  33.197   5.870
 5325POPC   GL269422  38.436  32.845   5.882
 5325POPC   C1A69423  38.080  32.902   6.230
 5325POPC   D2A69424  38.228  32.815   6.696
 5325POPC   C3A69425  38.164  33.121   7.051
 5325POPC   C4A69426  37.948  33.430   7.345
 5325POPC   C1B69427  38.598  32.868   6.338
 5325POPC   C2B69428  38.657  33.029   6.799
 5325POPC   C3B69429  38.527  32.757   7.166
 5325POPC   C4B69430  38.655  32.665   7.609
 5326POPC   NC369431  12.115  15.069   5.099
 5326POPC   PO469432  11.981  15.503   5.650
 5326POPC   GL169433  12.233  15.266   5.934
 5326POPC   GL269434  12.181  14.898   5.972
 5326POPC   C1A69435  12.376  15.224   6.321
 5326POPC   D2A69436  12.102  15.009   6.583
 5326POPC   C3A69437  12.260  14.893   6.960
 5326POPC   C4A69438  12.353  15.185   7.232
 5326POPC   C1B69439  11.752  14.954   6.182
 5326POPC   C2B69440  11.577  15.023   6.603
 5326POPC   C3B69441  11.799  15.155   6.980
 5326POPC   C4B69442  11.856  14.809   7.254
 5327POPC   NC369443  10.570  28.754   5.384
 5327POPC   PO469444  10.464  29.435   5.350
 5327POPC   GL169445  10.662  29.164   5.697
 5327POPC   GL269446  10.375  29.062   5.821
 5327POPC   C1A69447  10.720  28.931   6.166
 5327POPC   D2A69448  10.571  28.871   6.645
 5327POPC   C3A69449  10.779  29.075   7.036
 5327POPC   C4A69450  10.963  28.771   7.306
 5327POPC   C1B69451  10.234  29.007   6.264
 5327POPC   C2B69452  10.119  29.132   6.676
 5327POPC   C3B69453  10.283  29.197   7.097
 5327POPC   C4B69454  10.472  29.464   7.435
 5328POPC   NC369455  23.654  42.693   5.482
 5328POPC   PO469456  23.417  43.350   5.431
 5328POPC   GL169457  23.501  43.168   5.871
 5328POPC   GL269458  23.791  42.955   5.888
 5328POPC   C1A69459  23.724  43.244   6.303
 5328POPC   D2A69460  23.952  43.216   6.668
 5328POPC   C3A69461  23.749  43.191   7.050
 5328POPC   C4A69462  23.836  43.457   7.415
 5328POPC   C1B69463  23.556  42.777   6.232
 5328POPC   C2B69464  23.558  42.858   6.680
 5328POPC   C3B69465  23.422  42.634   7.043
 5328POPC   C4B69466  23.549  42.605   7.467
 5329POPC   NC369467  32.583  25.062   5.413
 5329POPC   PO469468  33.177  25.425   5.137
 5329POPC   GL169469  33.061  25.250   5.596
 5329POPC   GL269470  32.904  24.966   5.787
 5329POPC   C1A69471  33.170  25.301   6.060
 5329POPC   D2A69472  33.220  25.036   6.463
 5329POPC   C3A69473  33.261  25.230   6.870
 5329POPC   C4A69474  32.977  25.221   7.225
 5329POPC   C1B69475  32.748  25.081   6.229
 5329POPC   C2B69476  32.688  25.114   6.691
 5329POPC   C3B69477  32.555  24.921   7.088
 5329POPC   C4B69478  32.598  25.017   7.557
 5330POPC   NC369479  36.128  12.175   5.300
 5330POPC   PO469480  35.583  12.166   5.744
 5330POPC   GL169481  35.908  12.487   5.871
 5330POPC   GL269482  36.252  12.397   5.823
 5330POPC   C1A69483  36.055  12.555   6.328
 5330POPC   D2A69484  36.301  12.379   6.692
 5330POPC   C3A69485  36.107  12.275   7.104
 5330POPC   C4A69486  35.767  12.297   7.422
 5330POPC   C1B69487  36.460  12.220   6.197
 5330POPC   C2B69488  36.623  12.001   6.565
 5330POPC   C3B69489  36.440  11.890   6.959
 5330POPC   C4B69490  36.412  11.851   7.406
 5331POPC   NC369491  27.453  16.272   5.426
 5331POPC   PO469492  27.737  16.840   5.426
 5331POPC   GL169493  27.580  16.623   5.832
 5331POPC   GL269494  27.378  16.310   5.922
 5331POPC   C1A69495  27.578  16.775   6.269
 5331POPC   D2A69496  27.753  16.967   6.640
 5331POPC   C3A69497  27.952  16.689   6.891
 5331POPC   C4A69498  27.651  16.597   7.212
 5331POPC   C1B69499  27.329  16.317   6.359
 5331POPC   C2B69500  27.302  16.645   6.700
 5331POPC   C3B69501  27.162  16.671   7.160
 5331POPC   C4B69502  27.305  16.556   7.598
 5332POPC   NC369503  28.907  26.745   5.678
 5332POPC   PO469504  29.447  27.073   5.459
 5332POPC   GL169505  29.364  26.800   5.860
 5332POPC   GL269506  29.331  26.428   5.750
 5332POPC   C1A69507  29.097  26.832   6.287
 5332POPC   D2A69508  28.831  26.879   6.662
 5332POPC   C3A69509  29.027  26.953   7.023
 5332POPC   C4A69510  29.443  26.865   7.187
 5332POPC   C1B69511  29.356  26.389   6.194
 5332POPC   C2B69512  29.417  26.539   6.581
 5332POPC   C3B69513  29.591  26.383   6.937
 5332POPC   C4B69514  29.477  26.371   7.342
 5333POPC   NC369515  17.648  31.989   5.538
 5333POPC   PO469516  17.252  32.492   5.433
 5333POPC   GL169517  17.516  32.364   5.828
 5333POPC   GL269518  17.851  32.495   5.807
 5333POPC   C1A69519  17.566  32.021   6.177
 5333POPC   D2A69520  17.407  32.096   6.567
 5333POPC   C3A69521  17.607  32.015   6.918
 5333POPC   C4A69522  17.503  32.254   7.236
 5333POPC   C1B69523  17.798  32.465   6.244
 5333POPC   C2B69524  17.885  32.320   6.623
 5333POPC   C3B69525  17.904  32.503   7.034
 5333POPC   C4B69526  17.907  32.371   7.488
 5334POPC   NC369527  16.088  23.089   5.264
 5334POPC   PO469528  15.612  23.094   5.722
 5334POPC   GL169529  15.955  22.907   5.879
 5334POPC   GL269530  16.285  22.917   5.747
 5334POPC   C1A69531  15.985  22.847   6.308
 5334POPC   D2A69532  16.102  23.094   6.674
 5334POPC   C3A69533  16.014  22.984   7.080
 5334POPC   C4A69534  15.883  22.855   7.477
 5334POPC   C1B69535  16.413  22.664   6.092
 5334POPC   C2B69536  16.403  22.658   6.527
 5334POPC   C3B69537  16.418  22.727   6.952
 5334POPC   C4B69538  16.164  22.497   7.258
 5335POPC   NC369539  44.565  12.720   5.403
 5335POPC   PO469540   0.274  12.970   5.407
 5335POPC   GL169541  44.993  12.797   5.695
 5335POPC   GL269542   0.101  13.052   5.922
 5335POPC   C1A69543  44.718  12.724   6.079
 5335POPC   D2A69544  44.426  12.672   6.441
 5335POPC   C3A69545  44.628  12.568   6.859
 5335POPC   C4A69546  44.719  12.799   7.234
 5335POPC   C1B69547   0.043  13.021   6.374
 5335POPC   C2B69548   0.004  12.989   6.838
 5335POPC   C3B69549   0.205  13.043   7.261
 5335POPC   C4B69550  44.989  13.055   7.700
 5336POPC   NC369551  32.160  25.566   5.500
 5336POPC   PO469552  32.144  24.969   5.248
 5336POPC   GL169553  32.240  25.137   5.782
 5336POPC   GL269554  32.257  25.464   5.988
 5336POPC   C1A69555  32.238  25.016   6.275
 5336POPC   D2A69556  32.152  25.040   6.759
 5336POPC   C3A69557  31.992  25.460   6.940
 5336POPC   C4A69558  31.918  25.573   7.417
 5336POPC   C1B69559  32.544  25.638   6.309
 5336POPC   C2B69560  32.561  25.738   6.757
 5336POPC   C3B69561  32.496  25.444   7.089
 5336POPC   C4B69562  32.188  25.173   7.305
 5337POPC   NC369563  22.607  43.518   5.486
 5337POPC   PO469564  22.714  42.839   5.223
 5337POPC   GL169565  22.690  43.055   5.680
 5337POPC   GL269566  22.950  43.344   5.843
 5337POPC   C1A69567  22.856  42.910   6.087
 5337POPC   D2A69568  23.132  43.000   6.424
 5337POPC   C3A69569  23.016  42.954   6.860
 5337POPC   C4A69570  23.110  42.959   7.292
 5337POPC   C1B69571  22.819  43.396   6.316
 5337POPC   C2B69572  22.786  43.432   6.762
 5337POPC   C3B69573  22.980  43.419   7.158
 5337POPC   C4B69574  22.911  43.382   7.610
 5338POPC   NC369575  26.452  25.773   5.555
 5338POPC   PO469576  26.909  26.186   5.157
 5338POPC   GL169577  26.849  26.133   5.629
 5338POPC   GL269578  27.134  25.950   5.779
 5338POPC   C1A69579  26.739  26.066   6.105
 5338POPC   D2A69580  26.499  26.009   6.514
 5338POPC   C3A69581  26.739  26.091   6.928
 5338POPC   C4A69582  27.088  26.156   7.243
 5338POPC   C1B69583  26.994  25.613   6.070
 5338POPC   C2B69584  26.788  25.593   6.476
 5338POPC   C3B69585  26.620  25.565   6.867
 5338POPC   C4B69586  26.940  25.657   7.157
 5339POPC   NC369587   0.881  14.345   5.394
 5339POPC   PO469588   1.516  14.667   5.248
 5339POPC   GL169589   1.425  14.589   5.732
 5339POPC   GL269590   1.099  14.404   5.922
 5339POPC   C1A69591   1.567  14.400   6.122
 5339POPC   D2A69592   1.615  14.266   6.546
 5339POPC   C3A69593   1.282  14.470   6.747
 5339POPC   C4A69594   1.228  14.489   7.178
 5339POPC   C1B69595   1.159  14.097   6.310
 5339POPC   C2B69596   0.989  14.029   6.780
 5339POPC   C3B69597   0.965  14.062   7.268
 5339POPC   C4B69598   0.760  14.046   7.737
 5340POPC   NC369599  38.531  11.583   5.484
 5340POPC   PO469600  39.032  11.137   5.360
 5340POPC   GL169601  38.829  11.257   5.763
 5340POPC   GL269602  38.641  10.975   5.894
 5340POPC   C1A69603  38.856  11.412   6.201
 5340POPC   D2A69604  38.832  11.650   6.589
 5340POPC   C3A69605  38.655  11.408   6.908
 5340POPC   C4A69606  38.612  11.163   7.240
 5340POPC   C1B69607  38.424  11.157   6.245
 5340POPC   C2B69608  38.335  11.063   6.670
 5340POPC   C3B69609  38.089  11.144   7.018
 5340POPC   C4B69610  38.178  10.982   7.397
 5341POPC   NC369611   5.323  43.553   5.548
 5341POPC   PO469612   5.269  42.831   5.611
 5341POPC   GL169613   5.200  43.117   5.923
 5341POPC   GL269614   4.921  43.302   5.820
 5341POPC   C1A69615   5.033  43.178   6.345
 5341POPC   D2A69616   4.969  43.046   6.782
 5341POPC   C3A69617   5.186  43.250   7.130
 5341POPC   C4A69618   4.860  43.069   7.354
 5341POPC   C1B69619   4.844  43.602   6.142
 5341POPC   C2B69620   4.736  43.739   6.525
 5341POPC   C3B69621   4.861  43.560   6.871
 5341POPC   C4B69622   4.895  43.662   7.262
 5342POPC   NC369623  37.180  41.757   5.167
 5342POPC   PO469624  36.740  41.308   5.433
 5342POPC   GL169625  36.953  41.534   5.733
 5342POPC   GL269626  37.000  41.887   5.622
 5342POPC   C1A69627  36.917  41.482   6.179
 5342POPC   D2A69628  37.071  41.443   6.597
 5342POPC   C3A69629  36.819  41.408   6.952
 5342POPC   C4A69630  37.033  41.346   7.291
 5342POPC   C1B69631  36.830  41.972   6.027
 5342POPC   C2B69632  37.001  42.084   6.414
 5342POPC   C3B69633  37.112  41.906   6.816
 5342POPC   C4B69634  37.018  41.850   7.231
 5343POPC   NC369635  35.510   2.526   5.309
 5343POPC   PO469636  35.370   1.802   5.410
 5343POPC   GL169637  35.397   1.914   5.835
 5343POPC   GL269638  35.131   2.122   5.783
 5343POPC   C1A69639  35.416   1.928   6.304
 5343POPC   D2A69640  35.299   2.022   6.742
 5343POPC   C3A69641  35.583   2.037   7.118
 5343POPC   C4A69642  35.759   1.661   7.288
 5343POPC   C1B69643  34.948   1.971   6.113
 5343POPC   C2B69644  34.841   1.946   6.495
 5343POPC   C3B69645  34.829   1.822   6.889
 5343POPC   C4B69646  35.080   1.961   7.210
 5344POPC   NC369647   5.048  17.143   5.163
 5344POPC   PO469648   5.239  16.513   5.493
 5344POPC   GL169649   5.109  16.671   5.897
 5344POPC   GL269650   4.976  16.376   6.068
 5344POPC   C1A69651   4.905  17.001   6.186
 5344POPC   D2A69652   4.732  17.147   6.616
 5344POPC   C3A69653   4.899  16.817   6.922
 5344POPC   C4A69654   5.031  16.596   7.299
 5344POPC   C1B69655   5.352  16.416   6.324
 5344POPC   C2B69656   5.341  16.506   6.773
 5344POPC   C3B69657   5.489  16.425   7.175
 5344POPC   C4B69658   5.372  16.302   7.598
 5345POPC   NC369659  12.214   5.408   5.352
 5345POPC   PO469660  12.036   4.763   5.428
 5345POPC   GL169661  12.124   4.956   5.833
 5345POPC   GL269662  11.784   4.975   5.930
 5345POPC   C1A69663  12.159   5.103   6.285
 5345POPC   D2A69664  12.281   5.283   6.705
 5345POPC   C3A69665  12.118   5.128   7.102
 5345POPC   C4A69666  12.277   4.973   7.488
 5345POPC   C1B69667  11.741   4.778   6.341
 5345POPC   C2B69668  11.767   4.850   6.796
 5345POPC   C3B69669  11.781   4.705   7.217
 5345POPC   C4B69670  11.595   4.640   7.620
 5346POPC   NC369671  12.357  17.223   5.392
 5346POPC   PO469672  12.031  17.926   5.338
 5346POPC   GL169673  12.139  17.634   5.680
 5346POPC   GL269674  12.468  17.678   5.614
 5346POPC   C1A69675  12.087  17.432   6.110
 5346POPC   D2A69676  11.874  17.568   6.498
 5346POPC   C3A69677  12.109  17.504   6.903
 5346POPC   C4A69678  12.022  17.341   7.306
 5346POPC   C1B69679  12.515  17.677   6.076
 5346POPC   C2B69680  12.331  17.815   6.512
 5346POPC   C3B69681  12.301  17.983   6.948
 5346POPC   C4B69682  12.368  17.707   7.322
 5347POPC   NC369683  32.069   0.226   5.342
 5347POPC   PO469684  32.481   0.827   5.524
 5347POPC   GL169685  32.350   0.474   5.743
 5347POPC   GL269686  32.053   0.589   5.794
 5347POPC   C1A69687  32.298   0.263   6.146
 5347POPC   D2A69688  32.055   0.037   6.461
 5347POPC   C3A69689  32.188   0.092   6.882
 5347POPC   C4A69690  32.021   0.242   7.250
 5347POPC   C1B69691  31.959   0.654   6.184
 5347POPC   C2B69692  32.091   0.532   6.602
 5347POPC   C3B69693  31.924   0.677   7.003
 5347POPC   C4B69694  31.991   0.748   7.433
 5348POPC   NC369695  15.275  13.990   5.652
 5348POPC   PO469696  14.956  13.482   5.340
 5348POPC   GL169697  15.037  13.535   5.751
 5348POPC   GL269698  15.376  13.536   5.840
 5348POPC   C1A69699  14.898  13.528   6.190
 5348POPC   D2A69700  14.832  13.795   6.568
 5348POPC   C3A69701  15.001  13.654   6.978
 5348POPC   C4A69702  15.381  13.840   7.212
 5348POPC   C1B69703  15.432  13.360   6.223
 5348POPC   C2B69704  15.362  13.466   6.643
 5348POPC   C3B69705  15.405  13.342   7.064
 5348POPC   C4B69706  15.666  13.410   7.409
 5349POPC   NC369707   0.471  21.642   5.320
 5349POPC   PO469708   0.295  21.080   5.343
 5349POPC   GL169709   0.413  21.300   5.734
 5349POPC   GL269710   0.135  21.185   5.895
 5349POPC   C1A69711   0.509  21.527   6.150
 5349POPC   D2A69712   0.777  21.721   6.503
 5349POPC   C3A69713   0.633  21.655   6.944
 5349POPC   C4A69714   0.583  21.373   7.285
 5349POPC   C1B69715   0.130  21.237   6.327
 5349POPC   C2B69716   0.333  21.337   6.687
 5349POPC   C3B69717   0.129  21.480   7.060
 5349POPC   C4B69718  44.780  21.268   7.278
 5350POPC   NC369719  44.660  32.305   5.388
 5350POPC   PO469720  44.749  31.722   5.600
 5350POPC   GL169721  44.716  32.032   5.874
 5350POPC   GL269722  44.387  32.140   5.807
 5350POPC   C1A69723  44.713  32.075   6.310
 5350POPC   D2A69724  44.657  31.864   6.703
 5350POPC   C3A69725  44.673  32.164   7.017
 5350POPC   C4A69726  44.823  32.134   7.409
 5350POPC   C1B69727  44.298  32.354   6.184
 5350POPC   C2B69728  44.455  32.382   6.608
 5350POPC   C3B69729  44.229  32.436   6.968
 5350POPC   C4B69730  44.251  32.205   7.331
 5351POPC   NC369731  33.786  40.410   5.584
 5351POPC   PO469732  33.760  39.727   5.506
 5351POPC   GL169733  33.633  39.990   5.869
 5351POPC   GL269734  33.372  40.277   5.885
 5351POPC   C1A69735  33.902  40.133   6.221
 5351POPC   D2A69736  33.841  40.215   6.655
 5351POPC   C3A69737  33.860  39.844   6.888
 5351POPC   C4A69738  34.003  39.766   7.252
 5351POPC   C1B69739  33.385  40.081   6.317
 5351POPC   C2B69740  33.397  39.981   6.756
 5351POPC   C3B69741  33.498  40.108   7.186
 5351POPC   C4B69742  33.434  40.391   7.567
 5352POPC   NC369743  34.060  20.224   5.136
 5352POPC   PO469744  33.791  19.581   5.410
 5352POPC   GL169745  33.885  19.760   5.807
 5352POPC   GL269746  34.012  20.041   5.681
 5352POPC   C1A69747  33.744  19.793   6.232
 5352POPC   D2A69748  33.681  19.611   6.627
 5352POPC   C3A69749  33.837  19.902   6.917
 5352POPC   C4A69750  34.089  19.827   7.249
 5352POPC   C1B69751  34.098  20.145   6.150
 5352POPC   C2B69752  33.955  20.250   6.570
 5352POPC   C3B69753  34.154  20.291   7.023
 5352POPC   C4B69754  34.074  20.270   7.521
 5353POPC   NC369755   9.625  40.252   5.361
 5353POPC   PO469756  10.043  39.777   5.393
 5353POPC   GL169757   9.800  39.959   5.724
 5353POPC   GL269758  10.006  40.260   5.722
 5353POPC   C1A69759   9.586  40.060   6.121
 5353POPC   D2A69760   9.703  40.246   6.525
 5353POPC   C3A69761   9.675  39.990   6.883
 5353POPC   C4A69762   9.517  39.936   7.287
 5353POPC   C1B69763  10.109  40.061   6.113
 5353POPC   C2B69764  10.006  39.820   6.463
 5353POPC   C3B69765  10.181  39.845   6.867
 5353POPC   C4B69766  10.017  39.873   7.257
 5354POPC   NC369767   7.197  10.171   5.448
 5354POPC   PO469768   7.445   9.587   5.400
 5354POPC   GL169769   7.446   9.878   5.795
 5354POPC   GL269770   7.144  10.025   5.938
 5354POPC   C1A69771   7.540   9.903   6.260
 5354POPC   D2A69772   7.535   9.701   6.683
 5354POPC   C3A69773   7.508   9.827   7.140
 5354POPC   C4A69774   7.335   9.821   7.584
 5354POPC   C1B69775   7.071  10.008   6.408
 5354POPC   C2B69776   7.184  10.086   6.834
 5354POPC   C3B69777   6.925   9.941   7.230
 5354POPC   C4B69778   6.824   9.927   7.705
 5355POPC   NC369779  12.416  39.244   5.583
 5355POPC   PO469780  11.777  39.260   5.488
 5355POPC   GL169781  11.837  39.258   5.872
 5355POPC   GL269782  11.899  38.918   5.890
 5355POPC   C1A69783  11.637  39.248   6.266
 5355POPC   D2A69784  11.889  39.468   6.541
 5355POPC   C3A69785  12.115  39.276   6.850
 5355POPC   C4A69786  12.004  39.325   7.248
 5355POPC   C1B69787  12.094  39.028   6.282
 5355POPC   C2B69788  11.835  38.914   6.636
 5355POPC   C3B69789  11.694  38.943   7.065
 5355POPC   C4B69790  11.811  38.949   7.528
 5356POPC   NC369791  36.925  25.377   5.298
 5356POPC   PO469792  36.409  24.997   5.472
 5356POPC   GL169793  36.754  25.154   5.756
 5356POPC   GL269794  37.120  25.255   5.747
 5356POPC   C1A69795  36.706  25.182   6.211
 5356POPC   D2A69796  36.520  25.186   6.615
 5356POPC   C3A69797  36.706  25.349   6.988
 5356POPC   C4A69798  36.915  25.077   7.252
 5356POPC   C1B69799  37.177  25.362   6.185
 5356POPC   C2B69800  37.061  25.442   6.628
 5356POPC   C3B69801  37.222  25.452   7.079
 5356POPC   C4B69802  37.258  25.348   7.540
 5357POPC   NC369803  19.386  29.907   4.960
 5357POPC   PO469804  19.840  30.143   5.313
 5357POPC   GL169805  19.947  30.121   5.797
 5357POPC   GL269806  19.910  29.774   5.891
 5357POPC   C1A69807  19.802  30.114   6.267
 5357POPC   D2A69808  19.989  29.951   6.669
 5357POPC   C3A69809  19.845  29.983   7.094
 5357POPC   C4A69810  19.982  29.881   7.518
 5357POPC   C1B69811  19.974  29.584   6.316
 5357POPC   C2B69812  19.879  29.442   6.765
 5357POPC   C3B69813  19.725  29.495   7.198
 5357POPC   C4B69814  19.626  29.533   7.657
 5358POPC   NC369815  37.435  24.751   5.114
 5358POPC   PO469816  37.423  24.249   5.356
 5358POPC   GL169817  37.778  24.281   5.663
 5358POPC   GL269818  37.586  24.155   5.883
 5358POPC   C1A69819  37.920  24.446   6.110
 5358POPC   D2A69820  37.747  24.612   6.520
 5358POPC   C3A69821  37.846  24.377   6.897
 5358POPC   C4A69822  37.795  24.344   7.356
 5358POPC   C1B69823  37.417  24.354   6.223
 5358POPC   C2B69824  37.277  24.391   6.634
 5358POPC   C3B69825  37.364  24.394   7.060
 5358POPC   C4B69826  37.282  24.329   7.467
 5359POPC   NC369827  41.617   2.258   5.083
 5359POPC   PO469828  41.690   2.902   5.326
 5359POPC   GL169829  41.404   2.978   5.646
 5359POPC   GL269830  41.704   3.096   5.813
 5359POPC   C1A69831  41.300   2.823   6.040
 5359POPC   D2A69832  41.315   2.606   6.408
 5359POPC   C3A69833  41.427   2.827   6.776
 5359POPC   C4A69834  41.551   2.497   7.079
 5359POPC   C1B69835  41.739   3.332   6.182
 5359POPC   C2B69836  41.594   3.316   6.594
 5359POPC   C3B69837  41.692   3.278   7.010
 5359POPC   C4B69838  41.608   2.961   7.237
 5360POPC   NC369839  36.597  23.625   5.126
 5360POPC   PO469840  36.815  24.009   5.666
 5360POPC   GL169841  37.042  23.645   5.735
 5360POPC   GL269842  37.235  23.808   5.916
 5360POPC   C1A69843  36.944  23.477   6.157
 5360POPC   D2A69844  36.716  23.731   6.476
 5360POPC   C3A69845  36.782  23.540   6.880
 5360POPC   C4A69846  36.814  23.679   7.291
 5360POPC   C1B69847  37.357  23.833   6.297
 5360POPC   C2B69848  37.181  23.878   6.661
 5360POPC   C3B69849  37.248  23.743   7.032
 5360POPC   C4B69850  37.342  23.835   7.412
 5361POPC   NC369851   0.655  29.633   5.407
 5361POPC   PO469852   0.641  30.259   5.368
 5361POPC   GL169853   0.330  30.099   5.673
 5361POPC   GL269854   0.413  29.786   5.819
 5361POPC   C1A69855   0.271  30.160   6.122
 5361POPC   D2A69856   0.502  30.106   6.490
 5361POPC   C3A69857   0.316  30.061   6.888
 5361POPC   C4A69858   0.468  30.172   7.276
 5361POPC   C1B69859   0.597  29.636   6.194
 5361POPC   C2B69860   0.445  29.618   6.631
 5361POPC   C3B69861   0.674  29.731   7.027
 5361POPC   C4B69862   0.612  29.618   7.447
 5362POPC   NC369863  38.385   7.184   5.373
 5362POPC   PO469864  38.665   7.811   5.465
 5362POPC   GL169865  38.633   7.475   5.750
 5362POPC   GL269866  38.290   7.367   5.853
 5362POPC   C1A69867  38.637   7.565   6.183
 5362POPC   D2A69868  38.753   7.407   6.575
 5362POPC   C3A69869  38.521   7.558   6.927
 5362POPC   C4A69870  38.623   7.521   7.355
 5362POPC   C1B69871  38.372   7.111   6.250
 5362POPC   C2B69872  38.345   7.097   6.711
 5362POPC   C3B69873  38.306   7.145   7.188
 5362POPC   C4B69874  38.057   7.399   7.485
 5363POPC   NC369875  10.774  21.391   5.304
 5363POPC   PO469876  10.229  21.264   5.650
 5363POPC   GL169877  10.535  21.205   5.978
 5363POPC   GL269878  10.809  21.336   5.823
 5363POPC   C1A69879  10.517  21.387   6.389
 5363POPC   D2A69880  10.249  21.700   6.615
 5363POPC   C3A69881  10.257  21.524   7.013
 5363POPC   C4A69882  10.287  21.061   7.107
 5363POPC   C1B69883  10.990  21.522   6.172
 5363POPC   C2B69884  11.058  21.392   6.577
 5363POPC   C3B69885  10.759  21.379   6.909
 5363POPC   C4B69886  10.786  21.556   7.295
 5364POPC   NC369887  44.290  34.094   5.186
 5364POPC   PO469888  44.865  33.739   5.314
 5364POPC   GL169889  44.873  33.617   5.794
 5364POPC   GL269890  44.916  33.922   5.992
 5364POPC   C1A69891  44.683  33.556   6.235
 5364POPC   D2A69892  44.722  33.560   6.688
 5364POPC   C3A69893  44.509  33.539   7.110
 5364POPC   C4A69894  44.521  33.612   7.584
 5364POPC   C1B69895   0.047  33.891   6.435
 5364POPC   C2B69896  44.759  34.048   6.795
 5364POPC   C3B69897  44.722  33.976   7.246
 5364POPC   C4B69898   0.010  34.030   7.610
 5365POPC   NC369899  44.967  20.785   5.218
 5365POPC   PO469900  44.583  20.345   5.509
 5365POPC   GL169901  44.570  20.652   5.794
 5365POPC   GL269902  44.896  20.752   5.740
 5365POPC   C1A69903  44.655  20.541   6.232
 5365POPC   D2A69904  44.944  20.342   6.584
 5365POPC   C3A69905  44.710  20.331   7.000
 5365POPC   C4A69906  44.352  20.537   7.206
 5365POPC   C1B69907   0.098  20.740   6.165
 5365POPC   C2B69908  44.949  20.849   6.584
 5365POPC   C3B69909   0.038  20.709   6.984
 5365POPC   C4B69910  44.792  20.720   7.360
 5366POPC   NC369911  30.232  12.719   5.336
 5366POPC   PO469912  29.824  13.285   5.566
 5366POPC   GL169913  29.935  12.903   5.734
 5366POPC   GL269914  29.646  12.726   5.895
 5366POPC   C1A69915  30.135  12.795   6.124
 5366POPC   D2A69916  29.894  12.666   6.492
 5366POPC   C3A69917  29.981  12.758   6.921
 5366POPC   C4A69918  29.980  12.448   7.252
 5366POPC   C1B69919  29.694  13.091   6.192
 5366POPC   C2B69920  29.902  13.237   6.552
 5366POPC   C3B69921  29.855  13.267   6.970
 5366POPC   C4B69922  29.956  13.083   7.340
 5367POPC   NC369923  15.491  24.127   5.414
 5367POPC   PO469924  14.947  23.773   5.412
 5367POPC   GL169925  15.058  23.670   5.883
 5367POPC   GL269926  15.276  23.380   5.975
 5367POPC   C1A69927  14.951  23.607   6.362
 5367POPC   D2A69928  15.199  23.295   6.622
 5367POPC   C3A69929  15.246  23.382   7.054
 5367POPC   C4A69930  15.032  23.729   7.253
 5367POPC   C1B69931  15.445  23.671   6.279
 5367POPC   C2B69932  15.338  23.786   6.735
 5367POPC   C3B69933  15.540  23.816   7.162
 5367POPC   C4B69934  15.561  24.078   7.551
 5368POPC   NC369935  37.661  31.628   5.399
 5368POPC   PO469936  37.868  31.021   5.505
 5368POPC   GL169937  37.641  31.336   5.816
 5368POPC   GL269938  37.495  31.707   5.873
 5368POPC   C1A69939  37.490  31.330   6.233
 5368POPC   D2A69940  37.716  31.175   6.589
 5368POPC   C3A69941  37.669  31.357   6.982
 5368POPC   C4A69942  37.995  31.602   7.131
 5368POPC   C1B69943  37.402  31.857   6.306
 5368POPC   C2B69944  37.604  31.748   6.705
 5368POPC   C3B69945  37.497  31.774   7.204
 5368POPC   C4B69946  37.378  31.975   7.668
 5369POPC   NC369947   5.392  32.592   5.442
 5369POPC   PO469948   4.868  32.253   5.299
 5369POPC   GL169949   5.035  32.220   5.745
 5369POPC   GL269950   5.120  32.545   5.876
 5369POPC   C1A69951   5.065  32.196   6.227
 5369POPC   D2A69952   5.239  32.354   6.628
 5369POPC   C3A69953   5.157  32.048   6.957
 5369POPC   C4A69954   5.007  32.082   7.399
 5369POPC   C1B69955   5.023  32.720   6.295
 5369POPC   C2B69956   4.973  32.780   6.752
 5369POPC   C3B69957   4.963  32.504   7.092
 5369POPC   C4B69958   5.097  32.556   7.522
 5370POPC   NC369959  41.610  13.656   5.445
 5370POPC   PO469960  41.275  14.136   5.550
 5370POPC   GL169961  41.424  13.802   5.912
 5370POPC   GL269962  41.442  13.413   5.900
 5370POPC   C1A69963  41.687  13.635   6.289
 5370POPC   D2A69964  41.898  13.593   6.702
 5370POPC   C3A69965  41.732  13.471   7.114
 5370POPC   C4A69966  41.528  13.734   7.436
 5370POPC   C1B69967  41.261  13.347   6.327
 5370POPC   C2B69968  41.383  13.290   6.770
 5370POPC   C3B69969  41.233  13.360   7.217
 5370POPC   C4B69970  41.341  13.326   7.669
 5371POPC   NC369971  23.182  42.796   5.263
 5371POPC   PO469972  23.750  42.345   5.198
 5371POPC   GL169973  23.761  42.224   5.672
 5371POPC   GL269974  23.974  42.432   5.827
 5371POPC   C1A69975  23.581  42.285   6.099
 5371POPC   D2A69976  23.714  42.356   6.531
 5371POPC   C3A69977  23.873  42.044   6.819
 5371POPC   C4A69978  23.731  42.204   7.189
 5371POPC   C1B69979  24.031  42.596   6.197
 5371POPC   C2B69980  24.073  42.727   6.617
 5371POPC   C3B69981  23.937  42.677   7.039
 5371POPC   C4B69982  24.012  42.940   7.404
 5372POPC   NC369983  37.951   2.876   5.487
 5372POPC   PO469984  37.395   2.532   5.535
 5372POPC   GL169985  37.625   2.702   5.874
 5372POPC   GL269986  37.979   2.557   5.879
 5372POPC   C1A69987  37.633   2.636   6.332
 5372POPC   D2A69988  37.688   2.393   6.700
 5372POPC   C3A69989  37.719   2.604   7.085
 5372POPC   C4A69990  37.596   3.002   7.221
 5372POPC   C1B69991  38.024   2.912   6.174
 5372POPC   C2B69992  37.880   3.020   6.604
 5372POPC   C3B69993  38.091   2.996   7.005
 5372POPC   C4B69994  38.033   2.847   7.437
 5373POPC   NC369995   9.824   1.311   5.396
 5373POPC   PO469996   9.754   0.659   5.507
 5373POPC   GL169997   9.718   1.025   5.785
 5373POPC   GL269998  10.046   1.214   5.846
 5373POPC   C1A69999   9.635   1.276   6.150
 5373POPC   D2A70000   9.900   1.394   6.504
 5373POPC   C3A70001   9.658   1.601   6.813
 5373POPC   C4A70002   9.428   1.417   7.125
 5373POPC   C1B70003  10.007   0.916   6.190
 5373POPC   C2B70004  10.103   0.724   6.554
 5373POPC   C3B70005  10.064   0.859   6.954
 5373POPC   C4B70006   9.937   1.259   7.076
 5374POPC   NC370007  16.602  33.613   5.229
 5374POPC   PO470008  16.651  32.921   5.210
 5374POPC   GL170009  16.472  33.037   5.686
 5374POPC   GL270010  16.436  33.414   5.787
 5374POPC   C1A70011  16.574  32.932   6.161
 5374POPC   D2A70012  16.549  33.122   6.614
 5374POPC   C3A70013  16.870  32.963   6.918
 5374POPC   C4A70014  16.971  32.817   7.371
 5374POPC   C1B70015  16.678  33.422   6.209
 5374POPC   C2B70016  16.702  33.611   6.644
 5374POPC   C3B70017  16.708  33.427   7.090
 5374POPC   C4B70018  16.419  33.474   7.469
 5375POPC   NC370019   8.757  40.400   5.145
 5375POPC   PO470020   8.844  40.952   5.550
 5375POPC   GL170021   9.165  40.749   5.821
 5375POPC   GL270022   8.956  40.481   5.899
 5375POPC   C1A70023   9.340  40.525   6.227
 5375POPC   D2A70024   9.291  40.764   6.623
 5375POPC   C3A70025   9.300  40.616   7.061
 5375POPC   C4A70026   9.158  40.816   7.426
 5375POPC   C1B70027   8.837  40.676   6.308
 5375POPC   C2B70028   8.689  40.747   6.754
 5375POPC   C3B70029   8.689  40.669   7.218
 5375POPC   C4B70030   8.774  40.587   7.674
 5376POPC   NC370031  11.276  37.105   5.594
 5376POPC   PO470032  11.698  36.816   5.144
 5376POPC   GL170033  11.723  36.826   5.606
 5376POPC   GL270034  11.493  36.578   5.698
 5376POPC   C1A70035  11.664  36.930   6.084
 5376POPC   D2A70036  11.335  37.035   6.402
 5376POPC   C3A70037  11.402  37.072   6.841
 5376POPC   C4A70038  11.660  36.791   7.099
 5376POPC   C1B70039  11.215  36.652   6.074
 5376POPC   C2B70040  10.931  36.704   6.442
 5376POPC   C3B70041  11.111  36.671   6.803
 5376POPC   C4B70042  11.132  36.800   7.197
 5377POPC   NC370043  34.308  33.914   5.295
 5377POPC   PO470044  34.955  33.647   5.422
 5377POPC   GL170045  34.823  33.873   5.819
 5377POPC   GL270046  34.456  33.962   5.824
 5377POPC   C1A70047  34.740  33.795   6.296
 5377POPC   D2A70048  34.865  33.838   6.749
 5377POPC   C3A70049  34.652  33.961   7.118
 5377POPC   C4A70050  34.645  33.956   7.582
 5377POPC   C1B70051  34.313  34.095   6.258
 5377POPC   C2B70052  34.346  33.966   6.695
 5377POPC   C3B70053  34.182  34.085   7.105
 5377POPC   C4B70054  34.212  33.692   7.326
 5378POPC   NC370055  13.751  20.987   5.264
 5378POPC   PO470056  13.474  20.375   5.409
 5378POPC   GL170057  13.584  20.608   5.750
 5378POPC   GL270058  13.899  20.461   5.831
 5378POPC   C1A70059  13.451  20.711   6.170
 5378POPC   D2A70060  13.399  20.558   6.600
 5378POPC   C3A70061  13.536  20.762   6.997
 5378POPC   C4A70062  13.913  20.899   7.224
 5378POPC   C1B70063  14.023  20.266   6.212
 5378POPC   C2B70064  13.870  20.313   6.616
 5378POPC   C3B70065  14.009  20.198   7.000
 5378POPC   C4B70066  14.181  20.472   7.298
 5379POPC   NC370067  40.644   6.483   5.342
 5379POPC   PO470068  40.473   7.005   5.498
 5379POPC   GL170069  40.619   6.740   5.840
 5379POPC   GL270070  40.680   6.362   5.843
 5379POPC   C1A70071  40.615   6.627   6.283
 5379POPC   D2A70072  40.907   6.559   6.621
 5379POPC   C3A70073  40.750   6.751   7.009
 5379POPC   C4A70074  40.980   7.021   7.309
 5379POPC   C1B70075  40.520   6.124   6.209
 5379POPC   C2B70076  40.623   6.133   6.639
 5379POPC   C3B70077  40.563   6.258   7.078
 5379POPC   C4B70078  40.648   6.528   7.469
 5380POPC   NC370079  32.959   1.811   5.258
 5380POPC   PO470080  33.510   1.991   5.535
 5380POPC   GL170081  33.293   1.874   5.865
 5380POPC   GL270082  32.946   1.926   5.768
 5380POPC   C1A70083  33.281   2.072   6.251
 5380POPC   D2A70084  33.208   1.920   6.632
 5380POPC   C3A70085  33.289   2.163   6.990
 5380POPC   C4A70086  33.097   1.958   7.316
 5380POPC   C1B70087  32.852   1.796   6.189
 5380POPC   C2B70088  32.682   1.963   6.577
 5380POPC   C3B70089  32.653   1.788   6.980
 5380POPC   C4B70090  32.507   1.551   7.324
 5381POPC   NC370091  31.445  21.421   5.134
 5381POPC   PO470092  31.737  20.841   5.254
 5381POPC   GL170093  31.493  21.259   5.602
 5381POPC   GL270094  31.508  21.621   5.626
 5381POPC   C1A70095  31.666  21.408   6.078
 5381POPC   D2A70096  31.763  21.280   6.528
 5381POPC   C3A70097  31.622  21.438   6.932
 5381POPC   C4A70098  31.436  21.197   7.269
 5381POPC   C1B70099  31.198  21.490   5.962
 5381POPC   C2B70100  31.280  21.566   6.423
 5381POPC   C3B70101  31.134  21.558   6.850
 5381POPC   C4B70102  31.182  21.676   7.240
 5382POPC   NC370103  22.244  28.195   5.360
 5382POPC   PO470104  21.563  28.319   5.319
 5382POPC   GL170105  21.880  28.215   5.724
 5382POPC   GL270106  22.155  28.492   5.776
 5382POPC   C1A70107  22.109  28.149   6.146
 5382POPC   D2A70108  22.251  28.062   6.587
 5382POPC   C3A70109  22.007  28.190   6.955
 5382POPC   C4A70110  21.809  28.558   7.082
 5382POPC   C1B70111  22.432  28.518   6.147
 5382POPC   C2B70112  22.592  28.461   6.553
 5382POPC   C3B70113  22.423  28.465   6.944
 5382POPC   C4B70114  22.233  28.505   7.349
 5383POPC   NC370115   9.243  16.514   5.638
 5383POPC   PO470116   9.746  16.863   5.378
 5383POPC   GL170117   9.947  16.666   5.763
 5383POPC   GL270118  10.000  16.300   5.764
 5383POPC   C1A70119  10.118  16.806   6.154
 5383POPC   D2A70120   9.850  16.883   6.504
 5383POPC   C3A70121  10.049  16.975   6.874
 5383POPC   C4A70122   9.820  17.052   7.257
 5383POPC   C1B70123   9.730  16.416   6.139
 5383POPC   C2B70124   9.585  16.376   6.564
 5383POPC   C3B70125   9.699  16.578   6.931
 5383POPC   C4B70126   9.458  16.673   7.275
 5384POPC   NC370127   0.608  41.371   5.460
 5384POPC   PO470128   0.131  41.789   5.798
 5384POPC   GL170129   0.602  41.702   5.860
 5384POPC   GL270130   0.775  42.036   5.821
 5384POPC   C1A70131   0.640  41.518   6.297
 5384POPC   D2A70132   0.304  41.631   6.629
 5384POPC   C3A70133   0.328  41.402   7.015
 5384POPC   C4A70134   0.732  41.320   7.214
 5384POPC   C1B70135   0.570  42.028   6.238
 5384POPC   C2B70136   0.724  41.959   6.636
 5384POPC   C3B70137   0.576  41.849   7.030
 5384POPC   C4B70138   0.160  41.868   7.191
 5385POPC   NC370139   3.037  35.471   5.414
 5385POPC   PO470140   2.483  35.780   5.687
 5385POPC   GL170141   2.721  35.547   5.898
 5385POPC   GL270142   2.689  35.264   5.734
 5385POPC   C1A70143   2.803  35.500   6.320
 5385POPC   D2A70144   2.603  35.710   6.650
 5385POPC   C3A70145   2.829  35.626   7.016
 5385POPC   C4A70146   2.899  35.263   7.260
 5385POPC   C1B70147   2.525  35.106   6.161
 5385POPC   C2B70148   2.635  35.096   6.644
 5385POPC   C3B70149   2.413  35.234   7.067
 5385POPC   C4B70150   2.289  35.163   7.525
 5386POPC   NC370151  24.177  42.328   5.367
 5386POPC   PO470152  24.759  42.067   5.263
 5386POPC   GL170153  24.601  42.008   5.704
 5386POPC   GL270154  24.230  41.988   5.750
 5386POPC   C1A70155  24.527  42.261   6.091
 5386POPC   D2A70156  24.517  42.671   6.314
 5386POPC   C3A70157  24.572  42.634   6.772
 5386POPC   C4A70158  24.406  42.617   7.239
 5386POPC   C1B70159  24.037  42.052   6.177
 5386POPC   C2B70160  24.246  42.259   6.523
 5386POPC   C3B70161  24.356  42.214   6.931
 5386POPC   C4B70162  24.217  42.023   7.250
 5387POPC   NC370163  29.134  21.621   5.512
 5387POPC   PO470164  28.994  22.364   5.399
 5387POPC   GL170165  29.114  22.094   5.732
 5387POPC   GL270166  28.840  21.887   5.823
 5387POPC   C1A70167  29.122  22.144   6.183
 5387POPC   D2A70168  29.021  22.478   6.477
 5387POPC   C3A70169  28.879  22.359   6.889
 5387POPC   C4A70170  29.174  22.209   7.195
 5387POPC   C1B70171  28.706  21.799   6.229
 5387POPC   C2B70172  28.930  21.911   6.609
 5387POPC   C3B70173  28.853  21.861   7.050
 5387POPC   C4B70174  28.886  21.946   7.529
 5388POPC   NC370175  22.638  31.043   5.345
 5388POPC   PO470176  22.228  30.494   5.469
 5388POPC   GL170177  22.032  30.698   5.885
 5388POPC   GL270178  21.949  31.066   5.871
 5388POPC   C1A70179  22.088  30.857   6.327
 5388POPC   D2A70180  22.217  31.084   6.721
 5388POPC   C3A70181  22.356  30.793   7.063
 5388POPC   C4A70182  22.401  30.503   7.428
 5388POPC   C1B70183  21.691  31.160   6.224
 5388POPC   C2B70184  21.701  30.958   6.659
 5388POPC   C3B70185  21.843  30.982   7.090
 5388POPC   C4B70186  22.063  30.889   7.482
 5389POPC   NC370187  31.917  29.072   5.524
 5389POPC   PO470188  31.231  29.158   5.654
 5389POPC   GL170189  31.558  29.203   5.925
 5389POPC   GL270190  31.844  29.464   5.870
 5389POPC   C1A70191  31.472  29.025   6.329
 5389POPC   D2A70192  31.522  29.084   6.754
 5389POPC   C3A70193  31.238  29.054   7.095
 5389POPC   C4A70194  31.208  29.449   7.272
 5389POPC   C1B70195  31.774  29.432   6.334
 5389POPC   C2B70196  31.798  29.515   6.780
 5389POPC   C3B70197  31.695  29.330   7.181
 5389POPC   C4B70198  31.679  29.429   7.612
 5390POPC   NC370199  20.863  42.568   5.355
 5390POPC   PO470200  20.678  42.003   5.557
 5390POPC   GL170201  20.671  42.174   5.946
 5390POPC   GL270202  20.584  42.508   5.922
 5390POPC   C1A70203  20.541  42.201   6.364
 5390POPC   D2A70204  20.323  42.067   6.718
 5390POPC   C3A70205  20.549  42.297   6.994
 5390POPC   C4A70206  20.982  42.371   7.090
 5390POPC   C1B70207  20.585  42.728   6.332
 5390POPC   C2B70208  20.618  42.764   6.811
 5390POPC   C3B70209  20.338  42.712   7.177
 5390POPC   C4B70210  20.399  42.671   7.601
 5391POPC   NC370211  10.762   7.393   5.250
 5391POPC   PO470212  10.895   8.023   5.413
 5391POPC   GL170213  10.829   7.797   5.808
 5391POPC   GL270214  10.764   7.421   5.778
 5391POPC   C1A70215  10.662   7.859   6.245
 5391POPC   D2A70216  10.573   8.014   6.668
 5391POPC   C3A70217  10.494   7.716   6.998
 5391POPC   C4A70218  10.471   7.462   7.387
 5391POPC   C1B70219  10.597   7.286   6.216
 5391POPC   C2B70220  10.636   7.061   6.638
 5391POPC   C3B70221  10.617   7.058   7.095
 5391POPC   C4B70222  10.758   6.958   7.502
 5392POPC   NC370223  17.789   2.265   5.475
 5392POPC   PO470224  18.456   2.064   5.452
 5392POPC   GL170225  18.490   1.899   5.855
 5392POPC   GL270226  18.148   1.844   5.861
 5392POPC   C1A70227  18.377   2.108   6.252
 5392POPC   D2A70228  18.553   2.261   6.621
 5392POPC   C3A70229  18.377   2.189   7.052
 5392POPC   C4A70230  18.519   2.256   7.508
 5392POPC   C1B70231  18.263   1.607   6.265
 5392POPC   C2B70232  18.276   1.519   6.727
 5392POPC   C3B70233  18.348   1.679   7.131
 5392POPC   C4B70234  18.104   1.926   7.426
 5393POPC   NC370235  11.534   6.076   5.313
 5393POPC   PO470236  10.980   5.823   5.479
 5393POPC   GL170237  11.406   5.819   5.744
 5393POPC   GL270238  11.501   6.172   5.828
 5393POPC   C1A70239  11.622   5.797   6.190
 5393POPC   D2A70240  11.612   6.044   6.634
 5393POPC   C3A70241  11.636   5.892   7.103
 5393POPC   C4A70242  11.455   5.906   7.552
 5393POPC   C1B70243  11.241   6.130   6.239
 5393POPC   C2B70244  11.109   6.158   6.709
 5393POPC   C3B70245  11.134   6.108   7.179
 5393POPC   C4B70246  10.967   6.176   7.616
 5394POPC   NC370247  12.015  39.130   5.118
 5394POPC   PO470248  12.058  38.504   5.402
 5394POPC   GL170249  12.187  38.498   5.811
 5394POPC   GL270250  12.492  38.309   5.824
 5394POPC   C1A70251  12.067  38.520   6.224
 5394POPC   D2A70252  12.312  38.648   6.569
 5394POPC   C3A70253  12.199  38.757   6.983
 5394POPC   C4A70254  12.445  38.673   7.343
 5394POPC   C1B70255  12.363  38.097   6.230
 5394POPC   C2B70256  12.180  38.152   6.683
 5394POPC   C3B70257  12.228  38.239   7.165
 5394POPC   C4B70258  12.391  38.254   7.635
 5395POPC   NC370259  11.928  16.553   5.461
 5395POPC   PO470260  11.895  17.235   5.451
 5395POPC   GL170261  12.085  16.985   5.797
 5395POPC   GL270262  12.228  16.643   5.908
 5395POPC   C1A70263  11.981  16.938   6.227
 5395POPC   D2A70264  12.108  17.107   6.597
 5395POPC   C3A70265  12.002  16.947   7.010
 5395POPC   C4A70266  11.866  16.875   7.442
 5395POPC   C1B70267  12.426  16.741   6.357
 5395POPC   C2B70268  12.412  16.720   6.819
 5395POPC   C3B70269  12.243  16.553   7.247
 5395POPC   C4B70270  12.184  16.551   7.726
 5396POPC   NC370271  18.969  12.772   5.304
 5396POPC   PO470272  18.555  12.327   5.541
 5396POPC   GL170273  18.815  12.623   5.770
 5396POPC   GL270274  19.205  12.650   5.728
 5396POPC   C1A70275  18.901  12.749   6.183
 5396POPC   D2A70276  18.886  13.052   6.489
 5396POPC   C3A70277  18.902  12.867   6.880
 5396POPC   C4A70278  19.127  12.968   7.212
 5396POPC   C1B70279  19.369  12.519   6.127
 5396POPC   C2B70280  19.187  12.447   6.530
 5396POPC   C3B70281  19.315  12.550   6.957
 5396POPC   C4B70282  19.105  12.470   7.342
 5397POPC   NC370283  38.657  41.792   5.274
 5397POPC   PO470284  38.196  41.322   5.464
 5397POPC   GL170285  38.420  41.549   5.781
 5397POPC   GL270286  38.694  41.736   5.766
 5397POPC   C1A70287  38.450  41.509   6.207
 5397POPC   D2A70288  38.221  41.564   6.561
 5397POPC   C3A70289  38.517  41.525   6.883
 5397POPC   C4A70290  38.370  41.495   7.274
 5397POPC   C1B70291  38.721  41.944   6.138
 5397POPC   C2B70292  38.555  41.966   6.559
 5397POPC   C3B70293  38.760  41.999   6.936
 5397POPC   C4B70294  38.830  41.810   7.308
 5398POPC   NC370295  31.400   1.377   5.323
 5398POPC   PO470296  31.482   0.780   5.513
 5398POPC   GL170297  31.645   0.968   5.849
 5398POPC   GL270298  31.688   1.302   5.741
 5398POPC   C1A70299  31.582   1.115   6.253
 5398POPC   D2A70300  31.722   0.886   6.580
 5398POPC   C3A70301  31.435   0.649   6.802
 5398POPC   C4A70302  31.345   0.870   7.161
 5398POPC   C1B70303  31.394   1.527   6.021
 5398POPC   C2B70304  31.415   1.597   6.481
 5398POPC   C3B70305  31.572   1.553   6.924
 5398POPC   C4B70306  31.364   1.608   7.330
 5399POPC   NC370307   8.320  36.366   5.510
 5399POPC   PO470308   7.921  35.771   5.418
 5399POPC   GL170309   7.986  36.015   5.791
 5399POPC   GL270310   8.329  35.984   5.853
 5399POPC   C1A70311   8.024  36.101   6.253
 5399POPC   D2A70312   7.863  36.089   6.688
 5399POPC   C3A70313   8.154  36.187   7.030
 5399POPC   C4A70314   8.054  36.192   7.500
 5399POPC   C1B70315   8.566  36.030   6.220
 5399POPC   C2B70316   8.597  36.228   6.613
 5399POPC   C3B70317   8.620  35.999   6.966
 5399POPC   C4B70318   8.482  35.940   7.361
 5400POPC   NC370319  19.551   0.346   5.402
 5400POPC   PO470320  19.981   0.851   5.359
 5400POPC   GL170321  19.793   0.663   5.733
 5400POPC   GL270322  19.824   0.303   5.860
 5400POPC   C1A70323  19.572   0.774   6.089
 5400POPC   D2A70324  19.516   0.824   6.535
 5400POPC   C3A70325  19.684   0.690   6.942
 5400POPC   C4A70326  19.537   0.689   7.383
 5400POPC   C1B70327  19.886   0.415   6.312
 5400POPC   C2B70328  19.709   0.239   6.718
 5400POPC   C3B70329  19.784   0.265   7.205
 5400POPC   C4B70330  19.865   0.090   7.645
 5401POPC   NC370331  29.375  24.631   5.346
 5401POPC   PO470332  29.078  24.157   5.507
 5401POPC   GL170333  29.117  24.299   5.900
 5401POPC   GL270334  29.219  24.646   5.924
 5401POPC   C1A70335  28.933  24.405   6.290
 5401POPC   D2A70336  28.998  24.571   6.684
 5401POPC   C3A70337  28.945  24.284   7.014
 5401POPC   C4A70338  29.284  24.142   7.287
 5401POPC   C1B70339  29.095  24.914   6.288
 5401POPC   C2B70340  29.233  25.007   6.736
 5401POPC   C3B70341  29.096  24.758   7.150
 5401POPC   C4B70342  28.910  24.881   7.554
 5402POPC   NC370343   1.982  41.079   4.999
 5402POPC   PO470344   1.564  40.637   5.315
 5402POPC   GL170345   1.847  40.633   5.641
 5402POPC   GL270346   1.892  40.963   5.719
 5402POPC   C1A70347   1.900  40.570   6.079
 5402POPC   D2A70348   2.122  40.615   6.472
 5402POPC   C3A70349   1.966  40.535   6.896
 5402POPC   C4A70350   1.977  40.752   7.277
 5402POPC   C1B70351   2.142  41.054   6.088
 5402POPC   C2B70352   2.063  41.237   6.490
 5402POPC   C3B70353   2.156  41.063   6.880
 5402POPC   C4B70354   2.371  41.087   7.247
 5403POPC   NC370355   3.490  17.954   5.338
 5403POPC   PO470356   3.846  18.596   5.426
 5403POPC   GL170357   3.613  18.523   5.789
 5403POPC   GL270358   3.380  18.288   5.711
 5403POPC   C1A70359   3.606  18.489   6.226
 5403POPC   D2A70360   3.706  18.159   6.508
 5403POPC   C3A70361   3.628  18.243   6.911
 5403POPC   C4A70362   3.784  18.279   7.293
 5403POPC   C1B70363   3.226  18.159   6.122
 5403POPC   C2B70364   3.202  18.253   6.579
 5403POPC   C3B70365   3.167  18.063   7.015
 5403POPC   C4B70366   3.278  18.189   7.455
 5404POPC   NC370367  37.851  37.948   5.472
 5404POPC   PO470368  37.419  37.420   5.553
 5404POPC   GL170369  37.522  37.569   5.957
 5404POPC   GL270370  37.616  37.879   5.917
 5404POPC   C1A70371  37.624  37.734   6.401
 5404POPC   D2A70372  37.788  37.701   6.846
 5404POPC   C3A70373  37.600  37.492   7.205
 5404POPC   C4A70374  37.639  37.435   7.668
 5404POPC   C1B70375  37.945  38.056   6.156
 5404POPC   C2B70376  38.038  38.067   6.586
 5404POPC   C3B70377  37.982  38.130   7.039
 5404POPC   C4B70378  37.934  37.832   7.374
 5405POPC   NC370379  21.768  44.812   5.533
 5405POPC   PO470380  22.416   0.050   5.357
 5405POPC   GL170381  22.343  44.770   5.724
 5405POPC   GL270382  22.204  44.433   5.714
 5405POPC   C1A70383  22.068  44.763   6.092
 5405POPC   D2A70384  22.165  44.716   6.529
 5405POPC   C3A70385  21.966  44.874   6.906
 5405POPC   C4A70386  22.164  44.889   7.296
 5405POPC   C1B70387  22.054  44.277   6.154
 5405POPC   C2B70388  22.130  44.173   6.576
 5405POPC   C3B70389  22.118  44.390   6.958
 5405POPC   C4B70390  21.835  44.400   7.284
 5406W        W70391  23.371  17.650  10.699
 5407W        W70392  30.653  13.639  13.474
 5408W        W70393  22.384  34.104  11.493
 5409W        W70394  44.592  22.211  14.812
 5410W        W70395  31.089  39.576   0.762
 5411W        W70396  37.015  43.766  11.207
 5412W        W70397  10.783  39.821  12.620
 5413W        W70398  28.507  16.675  12.981
 5414W        W70399   1.970  21.564  10.711
 5415W        W70400  36.488  20.946  10.088
 5416W        W70401   7.141  42.920   4.304
 5417W        W70402  26.636  39.077  11.581
 5418W        W70403  41.401  37.401  13.147
 5419W        W70404  12.304  19.159   2.108
 5420W        W70405   1.445  40.493   4.405
 5421W        W70406  43.780   6.060  11.119
 5422W        W70407  43.330  32.069   3.414
 5423W        W70408  43.480  15.808   1.314
 5424W        W70409  10.699  11.708  14.274
 5425W        W70410   6.944  31.995  11.599
 5426W        W70411  21.626  26.824  12.910
 5427W        W70412  23.784   9.119   1.338
 5428W        W70413  22.710  32.311  14.294
 5429W        W70414  20.138   1.247   0.327
 5430W        W70415  18.091  44.555   4.202
 5431W        W70416  32.650   2.289   0.991
 5432W        W70417  43.075  15.578  14.384
 5433W        W70418  36.213  40.682  13.852
 5434W        W70419   5.395   6.687   0.837
 5435W        W70420   5.311  26.092  10.689
 5436W        W70421  24.339  15.636  13.919
 5437W        W70422   9.496  41.459   2.793
 5438W        W70423  23.723  35.875   3.654
 5439W        W70424   1.966  34.115   2.682
 5440W        W70425  11.667   5.026  11.696
 5441W        W70426  30.388   6.822   1.859
 5442W        W70427  42.126  11.335   2.744
 5443W        W70428   0.436  30.439  10.522
 5444W        W70429   8.379  30.195  12.544
 5445W        W70430   5.445  30.286  11.641
 5446W        W70431  11.635  39.656  14.940
 5447W        W70432  14.672  14.103  14.427
 5448W        W70433   4.628   3.347   0.054
 5449W        W70434  26.852  24.342   3.102
 5450W        W70435  35.066   0.966  13.336
 5451W        W70436  24.824   5.606  12.075
 5452W        W70437  16.135  16.356  11.507
 5453W        W70438  28.474  37.819  11.867
 5454W        W70439  26.248  35.704  14.953
 5455W        W70440  41.800  39.821   0.909
 5456W        W70441  32.801  36.498   4.649
 5457W        W70442   0.186   7.944   3.801
 5458W        W70443  44.317  42.203  14.463
 5459W        W70444  33.210   4.319   1.700
 5460W        W70445  20.714  43.714   3.257
 5461W        W70446  16.527  41.361  13.010
 5462W        W70447  19.414  37.341  12.685
 5463W        W70448  33.902  22.845   3.552
 5464W        W70449  24.224  29.906   1.930
 5465W        W70450  38.409  31.676   2.342
 5466W        W70451  26.513  34.783  10.477
 5467W        W70452  21.498  42.787   4.690
 5468W        W70453  14.864  34.203  14.978
 5469W        W70454  18.017  12.294  13.931
 5470W        W70455  40.011  17.296  12.348
 5471W        W70456  20.791  35.870   2.272
 5472W        W70457  14.738  40.842  14.774
 5473W        W70458  12.338  15.089  14.333
 5474W        W70459  38.947  17.286  14.857
 5475W        W70460   7.612   9.096   3.454
 5476W        W70461   6.149   9.390  13.938
 5477W        W70462  12.982  44.633  14.414
 5478W        W70463  38.126  16.140  12.932
 5479W        W70464  28.936  26.983   3.617
 5480W        W70465  23.463   6.767   3.224
 5481W        W70466  42.358  12.135   0.914
 5482W        W70467   3.262  33.542   1.899
 5483W        W70468   5.690  17.157  14.492
 5484W        W70469  26.264  20.593   3.286
 5485W        W70470  18.438  10.809  11.346
 5486W        W70471   3.775  23.724  11.117
 5487W        W70472  33.605   5.292   1.792
 5488W        W70473  31.097   0.107   4.411
 5489W        W70474   5.044  10.668   4.746
 5490W        W70475  30.039   5.913  13.475
 5491W        W70476  25.041  36.307   3.581
 5492W        W70477  25.457  23.244   0.876
 5493W        W70478   0.832  25.181  10.870
 5494W        W70479  44.242  33.462  12.322
 5495W        W70480  30.560  13.703  12.536
 5496W        W70481  10.598  37.594  10.775
 5497W        W70482  35.886  16.281   1.970
 5498W        W70483  21.746  39.535  14.181
 5499W        W70484  18.619  14.650  11.707
 5500W        W70485  19.181   7.917  14.809
 5501W        W70486  43.494  41.999   4.803
 5502W        W70487   4.839   4.455   3.884
 5503W        W70488  24.235   5.997   3.212
 5504W        W70489  44.437  23.617   2.438
 5505W        W70490   3.321   7.428   2.205
 5506W        W70491  38.555  27.755  13.561
 5507W        W70492  10.761  29.811   3.392
 5508W        W70493   0.959  21.269   3.607
 5509W        W70494  41.501  41.017  12.942
 5510W        W70495  29.947  19.649   2.717
 5511W        W70496  23.506   7.931  14.351
 5512W        W70497  29.974   2.887   3.313
 5513W        W70498  33.159  16.954  14.429
 5514W        W70499  40.647   3.361  14.555
 5515W        W70500  10.292   7.548  14.477
 5516W        W70501  21.155   1.822   3.657
 5517W        W70502  18.188   3.309  13.410
 5518W        W70503   9.170   4.367   3.121
 5519W        W70504   8.665  22.596   0.352
 5520W        W70505  21.879  15.030  12.503
 5521W        W70506   3.195   1.198  12.067
 5522W        W70507  17.841  36.647   1.608
 5523W        W70508   3.209  42.031   1.389
 5524W        W70509  12.325  34.830   1.262
 5525W        W70510  33.444  23.754  10.459
 5526W        W70511   4.120   7.039  12.615
 5527W        W70512  36.884  43.922  12.233
 5528W        W70513  32.579  32.495  11.314
 5529W        W70514  26.917  35.159   3.082
 5530W        W70515  37.547  34.115   2.417
 5531W        W70516   4.171  43.750   3.163
 5532W        W70517  35.661  19.288  14.712
 5533W        W70518  42.771   3.740  14.847
 5534W        W70519  10.685  41.618  13.468
 5535W        W70520  43.781  43.326   0.482
 5536W        W70521  13.404   4.282   1.461
 5537W        W70522  33.420  21.558  12.840
 5538W        W70523  25.526  33.899   1.258
 5539W        W70524  14.360  20.602  11.550
 5540W        W70525  41.469   7.279   2.160
 5541W        W70526  16.987   1.832  13.241
 5542W        W70527  12.315  21.263   1.914
 5543W        W70528   2.399  29.657  12.481
 5544W        W70529   5.651   3.900   3.668
 5545W        W70530   1.273  41.388   2.297
 5546W        W70531   0.010  42.934  13.400
 5547W        W70532   7.732  41.686   0.482
 5548W        W70533  44.270   8.010   4.517
 5549W        W70534  15.675  41.342  10.695
 5550W        W70535  32.213  31.908  10.749
 5551W        W70536  17.845  37.842   2.326
 5552W        W70537   1.458  33.599   1.369
 5553W        W70538  16.057  21.000   3.183
 5554W        W70539  16.331  17.072   1.357
 5555W        W70540   1.922  18.596   1.057
 5556W        W70541  10.517  32.966   2.886
 5557W        W70542  43.613  19.666   3.088
 5558W        W70543   0.337  21.997  10.888
 5559W        W70544  26.723  18.120   4.346
 5560W        W70545  23.098  31.926   1.666
 5561W        W70546  19.215  10.292   4.146
 5562W        W70547  13.857   9.682  13.011
 5563W        W70548  18.361  31.385   0.735
 5564W        W70549  21.925   4.763   3.340
 5565W        W70550  31.043  17.280   4.106
 5566W        W70551  25.829  22.411  11.998
 5567W        W70552  43.260  37.160  13.324
 5568W        W70553  16.674   8.921  14.963
 5569W        W70554  41.336  38.643  10.706
 5570W        W70555  11.009   9.606  13.520
 5571W        W70556   8.364  29.911  14.245
 5572W        W70557  21.518  22.533   3.162
 5573W        W70558  10.830  42.951   2.783
 5574W        W70559  39.411   0.834  12.968
 5575W        W70560  31.685  40.434  12.508
 5576W        W70561   6.848  33.101   4.121
 5577W        W70562  33.057  31.705  14.844
 5578W        W70563   0.364  39.629  14.262
 5579W        W70564  16.687  42.021   3.579
 5580W        W70565  25.050  15.771   0.292
 5581W        W70566  21.451  37.285  10.426
 5582W        W70567  26.550  41.986  13.441
 5583W        W70568  39.201   1.324   3.944
 5584W        W70569  39.776  24.303   4.116
 5585W        W70570  21.806  22.238   2.770
 5586W        W70571   3.252  42.815  13.125
 5587W        W70572  21.076   2.779  10.742
 5588W        W70573  24.511  20.273   2.684
 5589W        W70574   8.285  44.299  14.124
 5590W        W70575   3.935  14.679  10.631
 5591W        W70576   7.853   4.321  11.295
 5592W        W70577  12.378  40.934   3.687
 5593W        W70578  33.463  15.051  14.908
 5594W        W70579   9.230  28.254  11.582
 5595W        W70580  14.571   2.295  14.453
 5596W        W70581  32.147  15.980   3.272
 5597W        W70582  10.341   8.579   0.220
 5598W        W70583  10.824   7.259  12.463
 5599W        W70584  35.893  20.187   2.817
 5600W        W70585  35.383  20.072  14.188
 5601W        W70586  39.942  41.654   3.668
 5602W        W70587  43.810  43.932  11.570
 5603W        W70588  15.831  11.289   0.576
 5604W        W70589  15.351  16.296   0.893
 5605W        W70590  25.209  12.950  10.466
 5606W        W70591  34.476  33.159  13.336
 5607W        W70592  21.698  26.055   1.945
 5608W        W70593  38.869  18.381   4.854
 5609W        W70594  33.023  21.325   3.145
 5610W        W70595  41.213  25.145  14.711
 5611W        W70596  11.964   9.368  13.120
 5612W        W70597  21.670  31.585   0.879
 5613W        W70598  22.792   9.609  10.635
 5614W        W70599  32.709  29.158   1.750
 5615W        W70600  19.698  12.379  10.863
 5616W        W70601  20.205  30.821   0.815
 5617W        W70602  28.233  10.335   0.889
 5618W        W70603  11.294  29.668  12.135
 5619W        W70604  17.984   4.824  10.343
 5620W        W70605  14.647  36.358   2.848
 5621W        W70606   7.433  25.752   0.655
 5622W        W70607   9.808   3.286   1.891
 5623W        W70608  14.996  39.792  11.162
 5624W        W70609  41.500  21.276   1.755
 5625W        W70610  26.942   9.251  13.483
 5626W        W70611  27.631  30.114   4.947
 5627W        W70612  40.657   2.172  11.851
 5628W        W70613   8.135  18.559   4.349
 5629W        W70614  33.333  39.551  11.143
 5630W        W70615  31.751  11.625   3.651
 5631W        W70616  27.934   3.312  13.543
 5632W        W70617  40.042   8.735   4.179
 5633W        W70618  14.636  27.242   2.323
 5634W        W70619  11.662  13.415   3.202
 5635W        W70620  44.227  21.206  11.868
 5636W        W70621   7.919   0.215   0.420
 5637W        W70622  44.701  25.176  12.469
 5638W        W70623  20.511  39.545  14.529
 5639W        W70624  21.144  28.031   4.482
 5640W        W70625  27.034   6.309  14.912
 5641W        W70626  43.371  15.317   2.686
 5642W        W70627  33.658   7.211   0.722
 5643W        W70628   1.798  27.601  13.259
 5644W        W70629  38.922  42.031   9.936
 5645W        W70630  15.786  31.093   1.461
 5646W        W70631  37.860  28.929   0.711
 5647W        W70632  16.505   0.362   4.641
 5648W        W70633  33.189  14.774  14.039
 5649W        W70634   6.312  10.097   5.027
 5650W        W70635   6.802  33.589   1.636
 5651W        W70636   8.875  18.592  12.960
 5652W        W70637  40.971  38.527  13.271
 5653W        W70638  12.141  39.628   2.691
 5654W        W70639  20.571  33.635   4.722
 5655W        W70640  34.109  44.520  13.924
 5656W        W70641  33.923  13.128  11.645
 5657W        W70642  34.999  41.360  13.764
 5658W        W70643  24.619   7.405  11.629
 5659W        W70644  36.990  40.570   3.259
 5660W        W70645   0.943  29.745  13.283
 5661W        W70646   0.758  15.584   4.132
 5662W        W70647   5.781  10.896  14.826
 5663W        W70648  23.531  37.335  13.791
 5664W        W70649  24.109  24.173   3.236
 5665W        W70650   2.808  29.166  13.456
 5666W        W70651  29.092  27.528   4.865
 5667W        W70652  17.834  29.433   1.094
 5668W        W70653  11.699  16.595   0.024
 5669W        W70654  27.102  13.341  14.846
 5670W        W70655  19.484  41.224  11.712
 5671W        W70656  38.295  16.743  11.435
 5672W        W70657  29.679  17.140  14.439
 5673W        W70658   5.709  40.598  11.245
 5674W        W70659   1.764  16.408  11.269
 5675W        W70660  29.681  44.328   0.444
 5676W        W70661  22.424  36.828   3.017
 5677W        W70662  22.208  26.651  14.031
 5678W        W70663  16.205  44.699  13.914
 5679W        W70664  23.473  42.389   4.107
 5680W        W70665   1.449  35.552   0.904
 5681W        W70666   3.520  34.104   0.452
 5682W        W70667  23.228   5.692  11.671
 5683W        W70668  43.874  43.921  14.784
 5684W        W70669  12.280  12.140  14.484
 5685W        W70670   0.241  25.912  11.377
 5686W        W70671  39.425   0.458   1.700
 5687W        W70672  41.606   6.753  14.920
 5688W        W70673  44.364  14.773   1.469
 5689W        W70674   5.397  40.551  12.734
 5690W        W70675  28.247  12.483  14.847
 5691W        W70676   9.264  26.532   0.907
 5692W        W70677  28.404  25.618  10.684
 5693W        W70678  14.749  21.983  11.597
 5694W        W70679   6.353  20.779   1.728
 5695W        W70680  24.219  31.613  11.937
 5696W        W70681   3.397  40.850  12.873
 5697W        W70682  41.436  22.922  10.763
 5698W        W70683  38.382   7.703   1.651
 5699W        W70684  22.808  11.267   2.753
 5700W        W70685  20.171   6.668   3.235
 5701W        W70686   7.411  10.368  12.975
 5702W        W70687  34.136  22.110  12.914
 5703W        W70688  35.118   3.170   4.706
 5704W        W70689  37.468  39.008  11.021
 5705W        W70690  30.955  40.063  11.000
 5706W        W70691  28.569   0.054   3.286
 5707W        W70692  38.364  14.820   4.652
 5708W        W70693   7.125  16.029   0.312
 5709W        W70694  12.781  32.433   2.664
 5710W        W70695   2.446  10.179   1.813
 5711W        W70696  17.514  12.070  11.159
 5712W        W70697  22.965  29.008  13.018
 5713W        W70698   3.720  12.844  14.919
 5714W        W70699  11.054  39.201  11.945
 5715W        W70700   5.686  26.198   4.777
 5716W        W70701  22.321  32.192  13.898
 5717W        W70702  31.036  25.727  13.041
 5718W        W70703  11.433   3.965   2.359
 5719W        W70704  41.995   0.495  10.977
 5720W        W70705  27.136  33.916  12.079
 5721W        W70706  25.706  24.110   4.508
 5722W        W70707  20.509  43.832   4.647
 5723W        W70708  17.782   8.214  14.007
 5724W        W70709  27.906  40.939   3.770
 5725W        W70710  29.055  24.178  14.485
 5726W        W70711   3.496  43.947  11.579
 5727W        W70712  13.680   0.313   3.242
 5728W        W70713  21.786  28.544  12.006
 5729W        W70714  24.762  22.502   2.012
 5730W        W70715  32.454  41.894   3.243
 5731W        W70716  28.664  36.117   4.461
 5732W        W70717   0.907  32.324  12.616
 5733W        W70718  40.725  18.013   2.253
 5734W        W70719  12.422  43.831  12.040
 5735W        W70720  14.627  34.577   1.297
 5736W        W70721  44.466  29.506   4.181
 5737W        W70722  18.778   6.704   2.833
 5738W        W70723  42.360  25.008   1.308
 5739W        W70724   8.403  44.859   3.176
 5740W        W70725  26.926  30.416   3.309
 5741W        W70726  17.192  24.681   5.090
 5742W        W70727  11.127  35.976   3.132
 5743W        W70728   4.360  11.165   2.206
 5744W        W70729  27.526  21.195   4.678
 5745W        W70730  12.446  41.317   0.586
 5746W        W70731  31.878  27.975  14.299
 5747W        W70732  38.307  30.981   2.898
 5748W        W70733  34.006  10.158   0.704
 5749W        W70734  19.126   5.039  12.572
 5750W        W70735  16.563  39.947   1.984
 5751W        W70736  29.400  18.348   2.092
 5752W        W70737   3.548  14.356  11.553
 5753W        W70738  38.863  32.030  11.403
 5754W        W70739  31.398   8.193  10.321
 5755W        W70740   5.325  41.091   3.176
 5756W        W70741  15.205  36.017  13.862
 5757W        W70742   2.428   7.723  12.955
 5758W        W70743  20.582  37.104  10.936
 5759W        W70744  12.498  22.483   3.301
 5760W        W70745   3.689  25.039  14.325
 5761W        W70746  14.353  35.365  10.730
 5762W        W70747   9.807  28.262   2.404
 5763W        W70748  14.337  36.909  12.544
 5764W        W70749  42.503  13.789  13.445
 5765W        W70750   8.679  32.480  12.782
 5766W        W70751  15.168   0.243   3.460
 5767W        W70752  32.183  14.121  11.261
 5768W        W70753   1.430  25.659  13.979
 5769W        W70754   9.630  41.509   1.681
 5770W        W70755  25.480  13.605   4.715
 5771W        W70756  15.673  16.602   3.689
 5772W        W70757   0.715  40.331   2.637
 5773W        W70758  29.499  27.520  12.563
 5774W        W70759   8.255  10.113   2.866
 5775W        W70760  23.735   9.320  14.516
 5776W        W70761  14.865  10.229   2.358
 5777W        W70762  29.795   4.817  10.663
 5778W        W70763  14.147  20.519   1.244
 5779W        W70764   6.880  12.707  11.389
 5780W        W70765  31.110   2.891  10.173
 5781W        W70766   9.445  27.676   2.931
 5782W        W70767   6.759   0.731   1.884
 5783W        W70768  32.093  13.191   1.398
 5784W        W70769  38.148  28.437  10.783
 5785W        W70770  20.519  16.313  14.598
 5786W        W70771  10.374  19.548   3.629
 5787W        W70772  13.121  43.824  10.984
 5788W        W70773  23.527  40.010   4.919
 5789W        W70774  16.228  20.749  11.502
 5790W        W70775   6.993  32.531   3.070
 5791W        W70776  44.472  16.297   3.634
 5792W        W70777   0.958  22.790  14.985
 5793W        W70778  35.516  31.886  13.040
 5794W        W70779  15.034  41.269  13.068
 5795W        W70780  18.498   5.725   2.704
 5796W        W70781  42.091  44.680  13.472
 5797W        W70782  34.868  30.186  14.756
 5798W        W70783  41.464   0.356   1.933
 5799W        W70784  13.066  36.102   1.392
 5800W        W70785   9.893  33.473   3.274
 5801W        W70786  23.538  36.843  11.641
 5802W        W70787  27.208   0.037  14.031
 5803W        W70788   5.880  42.757   4.428
 5804W        W70789   1.690  41.485   1.608
 5805W        W70790   7.153  38.716  12.773
 5806W        W70791  30.629  31.705  12.469
 5807W        W70792  37.840   7.248   3.474
 5808W        W70793  15.296   0.555   0.740
 5809W        W70794   9.024  12.648   1.119
 5810W        W70795   4.916  38.083   1.877
 5811W        W70796  12.847  39.370   2.339
 5812W        W70797  29.742  20.120   3.281
 5813W        W70798  37.190   4.434   2.586
 5814W        W70799  41.057   1.396  13.322
 5815W        W70800  35.066  30.856   3.099
 5816W        W70801  39.456  42.355   3.294
 5817W        W70802  42.259  41.068   3.356
 5818W        W70803  28.421   6.219  10.091
 5819W        W70804  31.150  31.086   2.404
 5820W        W70805  27.700  33.820  13.337
 5821W        W70806  16.386  16.563  11.106
 5822W        W70807   2.403   7.596   1.886
 5823W        W70808  15.377  17.997  10.758
 5824W        W70809   7.581  10.201   5.042
 5825W        W70810  36.953  25.707  13.183
 5826W        W70811  22.347   9.817  14.299
 5827W        W70812   1.223   0.934   1.726
 5828W        W70813  17.449  36.820   1.906
 5829W        W70814  21.988  19.330   0.337
 5830W        W70815  36.134  21.237  14.618
 5831W        W70816  44.077  18.272  10.057
 5832W        W70817   3.779  14.473  14.756
 5833W        W70818   3.040  37.329   0.586
 5834W        W70819  39.220  44.274  14.807
 5835W        W70820   0.775   3.640   2.697
 5836W        W70821  40.492  30.622   0.966
 5837W        W70822  20.120  39.726  14.837
 5838W        W70823   0.503  30.174   2.635
 5839W        W70824  23.183   2.648   1.057
 5840W        W70825  35.049   2.955   3.562
 5841W        W70826   5.252  34.526   0.712
 5842W        W70827   8.800  33.162   2.661
 5843W        W70828   9.348  39.116  12.346
 5844W        W70829  15.998  20.001   0.769
 5845W        W70830  36.978  29.477   2.726
 5846W        W70831  33.152  42.537  11.849
 5847W        W70832  32.441  31.999   2.731
 5848W        W70833  41.720  22.554  14.536
 5849W        W70834  36.401   6.723   2.270
 5850W        W70835  27.092  27.567  12.712
 5851W        W70836  40.807  31.336   3.640
 5852W        W70837  11.826  17.216  12.014
 5853W        W70838  16.704  21.450   1.952
 5854W        W70839  27.469  10.632  11.556
 5855W        W70840  38.839  19.350  12.416
 5856W        W70841   9.256  32.768   3.749
 5857W        W70842  13.611  21.009   0.439
 5858W        W70843   2.051  32.874  14.497
 5859W        W70844  16.753  40.455   3.662
 5860W        W70845   0.852  19.777  14.921
 5861W        W70846  35.580  19.167   4.113
 5862W        W70847   2.960   5.473  12.502
 5863W        W70848  33.659   5.386  11.888
 5864W        W70849   0.419   5.311   4.142
 5865W        W70850  22.571  26.973  10.950
 5866W        W70851  11.399  42.442  12.481
 5867W        W70852  29.289   6.847   0.400
 5868W        W70853  23.680  32.958  12.152
 5869W        W70854  25.220  26.935  14.367
 5870W        W70855  25.245  17.818   2.805
 5871W        W70856  26.094  35.487   3.209
 5872W        W70857   2.471  34.069   2.792
 5873W        W70858  18.992   4.467   3.798
 5874W        W70859  17.570  23.709  12.529
 5875W        W70860   9.137  18.262   4.666
 5876W        W70861  33.884   1.453   1.920
 5877W        W70862  43.345  25.283   0.861
 5878W        W70863  25.064  12.880   3.358
 5879W        W70864  36.627  25.273   1.885
 5880W        W70865  38.056  28.590  13.013
 5881W        W70866  23.039  25.439  14.814
 5882W        W70867  29.323   7.921   4.637
 5883W        W70868   5.486  32.319  11.966
 5884W        W70869  17.250  10.832   0.337
 5885W        W70870   3.286  19.210  12.371
 5886W        W70871   5.002   2.837   4.179
 5887W        W70872   1.906   6.600  13.299
 5888W        W70873  22.311  29.899   2.748
 5889W        W70874  33.277  30.590  13.370
 5890W        W70875   1.732  16.400  13.329
 5891W        W70876  13.142  40.662   4.511
 5892W        W70877  38.568  26.127  14.953
 5893W        W70878  32.226  38.006  12.876
 5894W        W70879  14.408   3.038  11.447
 5895W        W70880  43.570  21.045  13.638
 5896W        W70881  28.484  42.185   1.228
 5897W        W70882  34.204  25.670  12.371
 5898W        W70883  23.741   9.947  14.540
 5899W        W70884  17.044  11.236  10.254
 5900W        W70885  16.736  41.519  13.473
 5901W        W70886   6.301  39.914   2.948
 5902W        W70887  29.600  41.629   2.853
 5903W        W70888  36.619  22.243   3.205
 5904W        W70889  11.543  11.837  13.690
 5905W        W70890  14.291  41.445   3.435
 5906W        W70891  33.585   4.940  14.869
 5907W        W70892  24.996  14.557  14.454
 5908W        W70893  26.703  27.991   4.661
 5909W        W70894  32.496  36.574   3.716
 5910W        W70895   2.292  31.673  12.514
 5911W        W70896  19.596  31.132  12.769
 5912W        W70897   4.546  40.735  11.148
 5913W        W70898  17.819  43.719   3.125
 5914W        W70899  41.518   1.809  10.560
 5915W        W70900   1.854  18.177  14.792
 5916W        W70901  43.516  37.607   1.039
 5917W        W70902   5.815  12.210   1.830
 5918W        W70903  23.881  32.697   2.586
 5919W        W70904  31.974  32.123   2.534
 5920W        W70905   3.740  44.289   0.979
 5921W        W70906  17.589  20.699   3.610
 5922W        W70907  35.478  37.255   0.962
 5923W        W70908  22.463   5.901  12.286
 5924W        W70909  35.606  29.709   4.631
 5925W        W70910  12.092  38.954   1.346
 5926W        W70911  10.324  20.808  11.137
 5927W        W70912  25.631  18.483   1.569
 5928W        W70913  23.621  30.136   0.878
 5929W        W70914  36.541  19.721   1.118
 5930W        W70915  41.637  13.042  12.334
 5931W        W70916  27.006  44.175  14.357
 5932W        W70917  19.085   4.305   0.253
 5933W        W70918  22.275   6.765   2.235
 5934W        W70919  22.068  27.439  12.004
 5935W        W70920   7.918  43.480   3.672
 5936W        W70921  25.902  33.768  12.334
 5937W        W70922  36.369  40.267  14.975
 5938W        W70923  31.574  24.156  11.526
 5939W        W70924  34.755   0.156  12.066
 5940W        W70925  26.183   3.543  11.637
 5941W        W70926  39.426   5.251   2.642
 5942W        W70927   4.326  27.046   3.334
 5943W        W70928  33.347  33.444  10.599
 5944W        W70929  18.079  22.022   1.352
 5945W        W70930  15.387  11.940   4.216
 5946W        W70931   0.949  15.063  14.003
 5947W        W70932  18.133  25.504  12.474
 5948W        W70933  20.015  22.598   0.353
 5949W        W70934  22.608   0.591   1.220
 5950W        W70935  26.024  42.849  12.072
 5951W        W70936  13.391  26.144  10.587
 5952W        W70937  26.042   6.229   3.788
 5953W        W70938  17.640   5.697   0.832
 5954W        W70939  23.759  25.592   1.264
 5955W        W70940  33.332   5.181  14.465
 5956W        W70941  10.774  26.934  13.288
 5957W        W70942   7.987  10.861   3.173
 5958W        W70943   6.314  29.952  10.691
 5959W        W70944  15.025  21.475   1.719
 5960W        W70945   5.176  37.382  13.330
 5961W        W70946  36.477  29.462   2.574
 5962W        W70947  15.568  31.159  14.700
 5963W        W70948  12.300  43.784  10.899
 5964W        W70949   7.672  11.209  11.159
 5965W        W70950  29.695  39.473   0.256
 5966W        W70951  28.089  34.565   0.396
 5967W        W70952   3.849  33.605   3.658
 5968W        W70953  13.250  33.206   0.796
 5969W        W70954   9.792  19.445  14.062
 5970W        W70955  37.067  32.798   0.851
 5971W        W70956   2.347  41.481   2.765
 5972W        W70957  22.870  14.836  14.357
 5973W        W70958  17.065  37.787   1.818
 5974W        W70959  15.711   6.872  14.934
 5975W        W70960  12.592  17.988  13.899
 5976W        W70961   9.318  25.204   0.425
 5977W        W70962  17.770  34.030   4.555
 5978W        W70963  15.796  31.739   3.725
 5979W        W70964  24.184  22.206   2.687
 5980W        W70965  44.724   8.841   1.735
 5981W        W70966  38.892  37.280  14.405
 5982W        W70967  12.580  28.712  11.111
 5983W        W70968  37.856   0.018   1.497
 5984W        W70969  27.671  28.497   1.495
 5985W        W70970  34.501  26.424   4.537
 5986W        W70971  29.089  34.926   0.345
 5987W        W70972  19.718   0.982   0.477
 5988W        W70973   4.988  24.620   3.757
 5989W        W70974  22.388  41.018  13.823
 5990W        W70975  37.542  13.917   4.636
 5991W        W70976  29.455  17.614   3.708
 5992W        W70977  18.602  40.251   4.804
 5993W        W70978  17.075  32.301  14.209
 5994W        W70979  30.233   8.366   3.831
 5995W        W70980  13.872  38.419  11.170
 5996W        W70981  34.594  30.189   3.440
 5997W        W70982   5.744  31.747  11.984
 5998W        W70983   7.969  26.134  13.603
 5999W        W70984   0.682  29.516  12.446
 6000W        W70985  40.994   9.210  13.005
 6001W        W70986   1.029  28.412  10.730
 6002W        W70987  21.551  37.252   0.757
 6003W        W70988  22.567  41.763  11.139
 6004W        W70989  37.763  21.264   0.877
 6005W        W70990  23.950  38.017  14.280
 6006W        W70991  33.789  39.645   3.151
 6007W        W70992  30.824  25.176   0.827
 6008W        W70993  12.641  32.578  11.183
 6009W        W70994  23.123  41.098   0.107
 6010W        W70995  13.145  37.526   3.127
 6011W        W70996  35.260  42.566  12.501
 6012W        W70997   4.999   9.003  11.516
 6013W        W70998  30.682  26.561   0.259
 6014W        W70999  25.686   1.882   0.882
 6015W        W71000  32.981  26.393   1.370
 6016W        W71001  39.335  29.927  11.929
 6017W        W71002   3.548  14.579  12.400
 6018W        W71003  35.583   3.437   1.204
 6019W        W71004  32.029  42.823  14.015
 6020W        W71005  20.530  40.641  11.987
 6021W        W71006  18.414  24.266   3.980
 6022W        W71007  17.667  37.162   1.574
 6023W        W71008  20.512  15.090   0.260
 6024W        W71009  17.580   7.183   2.410
 6025W        W71010  42.738  21.069  14.714
 6026W        W71011  11.381  24.788  13.936
 6027W        W71012  39.014   9.126   2.034
 6028W        W71013  14.729  39.869  11.592
 6029W        W71014  43.360  27.386   3.813
 6030W        W71015  21.534  26.751   4.917
 6031W        W71016  11.744  40.937  11.502
 6032W        W71017  13.706  30.375   2.794
 6033W        W71018  20.203  40.145  11.290
 6034W        W71019   0.228  29.997   3.046
 6035W        W71020  43.131   7.933   1.940
 6036W        W71021   1.408   0.414   1.580
 6037W        W71022  22.677  23.415  14.290
 6038W        W71023   3.520  33.495  12.366
 6039W        W71024  27.041  16.228   2.463
 6040W        W71025  33.465  32.913   3.789
 6041W        W71026  17.705  20.146  14.523
 6042W        W71027  23.913  35.112   3.226
 6043W        W71028   5.700  28.748   1.487
 6044W        W71029  38.948   4.833  12.510
 6045W        W71030  33.522  39.334   0.309
 6046W        W71031  36.471  23.634   1.169
 6047W        W71032  18.679  33.981  12.437
 6048W        W71033  43.882  14.952  11.513
 6049W        W71034  15.649  43.234   4.852
 6050W        W71035  18.796  35.716  14.782
 6051W        W71036   0.882  33.679  13.398
 6052W        W71037  12.781  20.798   3.566
 6053W        W71038  21.125  25.587   0.401
 6054W        W71039  22.648  41.969   2.858
 6055W        W71040  40.563   7.597  13.542
 6056W        W71041  28.423  19.303   4.306
 6057W        W71042  28.142  44.390  10.913
 6058W        W71043  28.098  40.720   0.362
 6059W        W71044   8.764  26.885   4.899
 6060W        W71045  14.794  13.685  14.697
 6061W        W71046   6.245  43.959  11.130
 6062W        W71047   0.482  12.767   2.672
 6063W        W71048  10.208  33.999   0.976
 6064W        W71049  21.026   9.294   2.108
 6065W        W71050   7.777  24.405  11.163
 6066W        W71051  10.830  37.480   4.470
 6067W        W71052  29.085  12.570  11.357
 6068W        W71053  32.650  18.634  12.555
 6069W        W71054   9.430  40.973  12.396
 6070W        W71055  12.368  43.831   2.245
 6071W        W71056  32.495  15.582  13.688
 6072W        W71057  13.193  29.603  11.153
 6073W        W71058  37.463   8.166   4.697
 6074W        W71059  10.800  39.118   2.641
 6075W        W71060   3.688  33.576   2.703
 6076W        W71061  18.729  32.574   1.737
 6077W        W71062  26.246   8.145  12.005
 6078W        W71063   2.372   6.747  11.580
 6079W        W71064   7.294   8.858  10.702
 6080W        W71065  33.133  21.060   3.575
 6081W        W71066  24.567  25.490  12.191
 6082W        W71067  34.442  30.341  14.991
 6083W        W71068  14.651   4.718  10.769
 6084W        W71069  35.846   8.169  14.774
 6085W        W71070   6.993   3.900   4.476
 6086W        W71071  22.513  34.499  12.234
 6087W        W71072  28.578  42.538  10.572
 6088W        W71073  15.068   0.567  14.972
 6089W        W71074  37.523  35.023   5.075
 6090W        W71075  19.278  15.097  11.447
 6091W        W71076  38.663  32.647  14.955
 6092W        W71077  38.838  16.290  14.786
 6093W        W71078  16.744  32.521  10.721
 6094W        W71079   4.892  21.554  14.762
 6095W        W71080  39.916  32.402   1.912
 6096W        W71081  10.458  33.444  12.749
 6097W        W71082   9.515  10.598  13.510
 6098W        W71083  28.762  42.983  12.336
 6099W        W71084  10.714  42.183   4.600
 6100W        W71085  19.302   0.658  11.070
 6101W        W71086  10.802  21.617  11.618
 6102W        W71087  24.125  20.566  10.717
 6103W        W71088  31.182  17.764   3.917
 6104W        W71089  44.197  26.635   5.068
 6105W        W71090  16.052  44.681   3.387
 6106W        W71091  42.044   0.971  10.819
 6107W        W71092  40.658  17.631   9.409
 6108W        W71093  31.492  21.574  13.987
 6109W        W71094  16.245  41.476  12.526
 6110W        W71095  35.290   6.800  13.350
 6111W        W71096   9.893  35.964   2.579
 6112W        W71097  31.037  22.105   1.574
 6113W        W71098  25.943  16.706  14.800
 6114W        W71099  27.065  25.285  13.973
 6115W        W71100   8.602  31.922  10.729
 6116W        W71101  17.799  44.365  11.550
 6117W        W71102  14.199   4.264   3.891
 6118W        W71103  26.272  27.902   3.187
 6119W        W71104  13.642   8.098   2.727
 6120W        W71105  39.831  35.371   1.619
 6121W        W71106   5.209  33.153   0.264
 6122W        W71107  37.286   2.823   0.304
 6123W        W71108  24.117   3.303  13.956
 6124W        W71109   8.954  41.256  13.761
 6125W        W71110  23.077  17.368   2.156
 6126W        W71111   9.921  25.775  11.125
 6127W        W71112  31.351  42.796  10.767
 6128W        W71113  26.094  29.405  14.747
 6129W        W71114  32.849  37.271   2.750
 6130W        W71115   1.363  23.727  14.966
 6131W        W71116   1.033  32.645  13.471
 6132W        W71117  36.554  40.617   0.335
 6133W        W71118  44.938  15.537   3.699
 6134W        W71119  34.043  21.180   2.160
 6135W        W71120  20.555   9.633   3.586
 6136W        W71121  31.404  37.353   3.289
 6137W        W71122  36.912  27.482   1.903
 6138W        W71123  43.366  27.058   4.200
 6139W        W71124  44.055  31.735   1.683
 6140W        W71125  10.820   1.066  11.893
 6141W        W71126  15.316  36.451  11.143
 6142W        W71127  42.938  43.257   1.677
 6143W        W71128  44.329  39.387   0.274
 6144W        W71129  17.624  39.778   2.592
 6145W        W71130  11.313  44.816  10.761
 6146W        W71131  44.370  29.308  12.075
 6147W        W71132  32.124  42.864   4.231
 6148W        W71133   7.257  43.344   1.260
 6149W        W71134  31.672  27.445   3.877
 6150W        W71135   0.110   0.285   1.735
 6151W        W71136  42.615  27.971  14.632
 6152W        W71137  15.318   7.220  13.146
 6153W        W71138  12.793  21.115  12.261
 6154W        W71139  16.145  35.428   2.411
 6155W        W71140  24.528  19.014  12.076
 6156W        W71141   8.683  28.519  14.544
 6157W        W71142  16.642  22.734  12.613
 6158W        W71143  35.124  30.270  14.324
 6159W        W71144  24.270  22.952  14.312
 6160W        W71145   4.941   0.834  12.489
 6161W        W71146  34.183  17.649   1.655
 6162W        W71147  15.756  39.068  11.207
 6163W        W71148  33.089  29.198   3.359
 6164W        W71149   2.172  32.066   4.593
 6165W        W71150  29.709  12.818  14.047
 6166W        W71151  17.674   5.187  11.885
 6167W        W71152  23.744  41.711   0.739
 6168W        W71153  21.706  12.181  12.482
 6169W        W71154  23.674  24.286   2.846
 6170W        W71155  33.020  29.462   4.674
 6171W        W71156  36.717   0.745   1.750
 6172W        W71157  37.866  19.566   3.029
 6173W        W71158   1.986  12.259  13.811
 6174W        W71159  19.112  26.849  13.336
 6175W        W71160  34.373  27.960   3.709
 6176W        W71161  29.744  25.926  11.178
 6177W        W71162  15.308   8.142  14.903
 6178W        W71163  44.510   3.255  11.758
 6179W        W71164   0.433  19.191  10.201
 6180W        W71165  32.931   2.492   0.479
 6181W        W71166  30.118  27.422   3.306
 6182W        W71167  26.367  32.956   0.251
 6183W        W71168  29.162  20.667  13.005
 6184W        W71169  21.492  24.275  14.942
 6185W        W71170   0.845  33.863  14.013
 6186W        W71171  29.698   2.242   2.185
 6187W        W71172  40.503   9.272   2.145
 6188W        W71173  35.939  35.569   1.802
 6189W        W71174  40.646  38.743   3.634
 6190W        W71175  36.853  43.402   1.159
 6191W        W71176  32.374  19.939   3.200
 6192W        W71177  21.875  24.217  10.759
 6193W        W71178   3.195  12.145  12.986
 6194W        W71179  15.346  25.569   4.085
 6195W        W71180  28.980   1.316  13.368
 6196W        W71181  44.251  28.281  12.961
 6197W        W71182  12.285  13.818  12.133
 6198W        W71183  20.287  24.040   0.241
 6199W        W71184  14.930  11.601  11.642
 6200W        W71185  24.802  21.729   0.502
 6201W        W71186  26.794  19.624   0.778
 6202W        W71187  14.155   7.402  12.700
 6203W        W71188   1.269  24.492  12.495
 6204W        W71189  32.546   4.717   4.351
 6205W        W71190   2.448   1.718  11.197
 6206W        W71191   0.776   7.348  14.860
 6207W        W71192   2.375  28.135  12.900
 6208W        W71193  22.616  44.831   1.541
 6209W        W71194  11.657  16.355  14.340
 6210W        W71195  42.982  21.720   3.243
 6211W        W71196  43.195  26.943  11.528
 6212W        W71197  42.947  16.429  11.981
 6213W        W71198  44.284   4.864   0.086
 6214W        W71199   4.388   5.309   9.564
 6215W        W71200  18.994   8.669  13.378
 6216W        W71201   3.263  17.244  14.519
 6217W        W71202   4.427  44.959   3.973
 6218W        W71203  33.555  23.207  12.662
 6219W        W71204   9.219  19.133   2.582
 6220W        W71205  12.101  44.559  13.454
 6221W        W71206   3.921  28.185  14.873
 6222W        W71207   1.493  37.248  12.049
 6223W        W71208   3.323  36.167  14.032
 6224W        W71209  29.251   0.348  10.645
 6225W        W71210  26.428  37.961  14.516
 6226W        W71211  39.900  39.286  13.425
 6227W        W71212  22.040   1.983  12.273
 6228W        W71213  21.857  12.851  11.967
 6229W        W71214  11.300  37.587   4.661
 6230W        W71215   5.466  41.028   1.481
 6231W        W71216  15.284  39.951  13.023
 6232W        W71217   2.726  44.720   4.087
 6233W        W71218   5.601  43.138   1.807
 6234W        W71219  34.535  26.188   0.455
 6235W        W71220  35.020  11.315  11.104
 6236W        W71221  10.219  42.784  11.863
 6237W        W71222  28.121   1.788  13.801
 6238W        W71223  19.645   6.780  11.617
 6239W        W71224  19.175  11.638  14.413
 6240W        W71225  24.712  14.208  10.652
 6241W        W71226   0.742  38.127  12.081
 6242W        W71227   3.578  39.801  14.427
 6243W        W71228  42.057  22.153  12.704
 6244W        W71229   5.982   8.622  13.498
 6245W        W71230  11.599  11.516  14.885
 6246W        W71231  36.074  43.983   3.570
 6247W        W71232   7.911  25.922   0.624
 6248W        W71233  36.037  13.186  11.169
 6249W        W71234  25.174  12.959  11.680
 6250W        W71235  22.972  41.354   4.121
 6251W        W71236  38.604  39.621   0.364
 6252W        W71237  10.756  32.105  10.482
 6253W        W71238   4.938  12.728  10.714
 6254W        W71239  24.955  32.117  13.106
 6255W        W71240  39.497  18.387  10.746
 6256W        W71241  21.654  36.324   0.246
 6257W        W71242  17.513  33.183   2.489
 6258W        W71243  21.265  17.477  14.783
 6259W        W71244  15.898  14.595   2.557
 6260W        W71245  34.386  17.972  11.048
 6261W        W71246  29.479  23.007  10.353
 6262W        W71247  39.000  35.995  12.423
 6263W        W71248  37.237  25.580  11.220
 6264W        W71249   8.658  23.539  11.738
 6265W        W71250  41.548  15.046   2.401
 6266W        W71251   4.358  18.551   1.878
 6267W        W71252  23.205  32.356  13.349
 6268W        W71253   0.794   1.923   3.210
 6269W        W71254  25.527  35.915  14.305
 6270W        W71255  28.670   6.285  11.954
 6271W        W71256  42.798  37.904  11.164
 6272W        W71257  12.145  32.587  14.951
 6273W        W71258  33.615  33.643  10.994
 6274W        W71259  38.914  43.432  10.672
 6275W        W71260  30.853   7.395  14.008
 6276W        W71261   9.678   1.165  11.095
 6277W        W71262  27.434   1.828   2.344
 6278W        W71263  40.597  35.826   0.487
 6279W        W71264  29.113  14.634   1.210
 6280W        W71265  27.442  14.302   1.281
 6281W        W71266  19.101  22.663   2.743
 6282W        W71267  27.113  20.563   3.582
 6283W        W71268  34.835   6.174   3.927
 6284W        W71269  31.520  39.924   4.082
 6285W        W71270  20.264  32.591  14.767
 6286W        W71271  33.587  33.224  14.269
 6287W        W71272  11.643  16.295   2.758
 6288W        W71273  19.056  33.137   2.401
 6289W        W71274  41.373  11.751   4.255
 6290W        W71275  11.919  39.673   2.219
 6291W        W71276   9.171  39.588   3.640
 6292W        W71277  43.870  27.154   0.736
 6293W        W71278  24.069  23.207   4.218
 6294W        W71279  21.862  39.074   4.065
 6295W        W71280  35.537  12.424  11.388
 6296W        W71281  29.574  22.127   3.696
 6297W        W71282  42.322  31.322  10.737
 6298W        W71283  22.979   6.845   4.183
 6299W        W71284   6.990   8.697  11.541
 6300W        W71285  15.901  43.009   4.080
 6301W        W71286  13.025  42.445  12.120
 6302W        W71287  39.877  16.310   1.354
 6303W        W71288  31.958  40.471  12.032
 6304W        W71289  39.994  10.684   0.352
 6305W        W71290   8.323  25.780  11.340
 6306W        W71291  36.020   2.657  14.021
 6307W        W71292  14.373  32.284  12.107
 6308W        W71293  26.662   6.927  14.950
 6309W        W71294  28.018   6.856   3.704
 6310W        W71295  23.553   2.813   1.392
 6311W        W71296  18.565  17.657  10.592
 6312W        W71297  11.733  20.528  13.992
 6313W        W71298  20.847  30.975  11.068
 6314W        W71299  40.577  24.215   5.000
 6315W        W71300  18.685   8.824   3.196
 6316W        W71301  21.571  23.785  14.773
 6317W        W71302  25.427  33.523  12.618
 6318W        W71303  42.466  43.967   2.393
 6319W        W71304   0.840  32.957  11.902
 6320W        W71305   6.419  42.890   0.397
 6321W        W71306  11.194  19.075  13.058
 6322W        W71307  10.948  19.675  11.071
 6323W        W71308  39.774  44.368   2.803
 6324W        W71309  20.259  28.708  14.239
 6325W        W71310  15.181   3.808   4.147
 6326W        W71311  39.553  43.679   2.908
 6327W        W71312   8.919  11.715   4.150
 6328W        W71313  39.691   6.467  11.103
 6329W        W71314   0.010  44.449   4.948
 6330W        W71315  19.848  20.747  12.892
 6331W        W71316  27.272  10.752   3.701
 6332W        W71317  42.061  18.766   3.727
 6333W        W71318  22.102  13.615   1.840
 6334W        W71319   5.465  32.533  11.084
 6335W        W71320  38.124   4.543   0.892
 6336W        W71321  30.090  18.032   4.157
 6337W        W71322   7.982   6.371   2.690
 6338W        W71323  18.372   5.178   3.630
 6339W        W71324   3.343   2.141   4.572
 6340W        W71325  28.908  19.119   2.898
 6341W        W71326  12.744   0.072  11.994
 6342W        W71327  23.158  19.535   0.823
 6343W        W71328  25.634  11.026  10.657
 6344W        W71329   3.818   4.750   4.738
 6345W        W71330  12.304   8.975   4.406
 6346W        W71331  34.325  43.378  11.201
 6347W        W71332  20.841  12.560   0.733
 6348W        W71333  36.095  10.734   3.701
 6349W        W71334  16.788  38.389  10.736
 6350W        W71335  12.875   2.326   0.450
 6351W        W71336  28.223  42.786  11.505
 6352W        W71337  36.506  20.760   0.382
 6353W        W71338  34.364   8.829  10.448
 6354W        W71339  20.810   3.845  13.074
 6355W        W71340   1.745  29.967  10.760
 6356W        W71341   6.224  41.242  11.986
 6357W        W71342  14.658  43.486   0.248
 6358W        W71343  31.137  30.138   1.902
 6359W        W71344   8.838  15.068  12.141
 6360W        W71345  17.214  18.897  12.064
 6361W        W71346  38.499  20.760  12.002
 6362W        W71347  12.622   2.271   3.211
 6363W        W71348  32.438  34.895   1.377
 6364W        W71349   9.884  34.916  12.969
 6365W        W71350   1.529  38.480   1.132
 6366W        W71351  44.360  36.257   3.662
 6367W        W71352  21.950  29.435  11.388
 6368W        W71353   5.863  35.448   2.347
 6369W        W71354  34.158  10.729  14.291
 6370W        W71355  23.769  18.334   1.715
 6371W        W71356  18.309  22.575  11.154
 6372W        W71357  35.643   2.451   0.022
 6373W        W71358   0.672  27.058   2.587
 6374W        W71359  27.444  33.697  14.882
 6375W        W71360  21.551  18.800  11.298
 6376W        W71361  29.451   0.917   4.660
 6377W        W71362  35.179  15.845  14.351
 6378W        W71363  26.584  15.993   2.334
 6379W        W71364   5.878  43.339   4.593
 6380W        W71365  27.335   5.952   3.987
 6381W        W71366  18.097   1.763   3.666
 6382W        W71367  28.997  37.738  11.747
 6383W        W71368  44.582   0.404  10.282
 6384W        W71369  33.439  11.685  12.463
 6385W        W71370  24.543  28.416  11.306
 6386W        W71371   3.414  21.271  10.736
 6387W        W71372  23.947  18.014   1.350
 6388W        W71373  36.659   9.787   4.094
 6389W        W71374   4.449  13.611  10.711
 6390W        W71375  42.023  31.283   2.484
 6391W        W71376  25.277  43.337  11.118
 6392W        W71377  41.238   4.336  11.470
 6393W        W71378  41.337  27.129  12.995
 6394W        W71379  17.035  44.312  10.820
 6395W        W71380  22.597  24.780   2.307
 6396W        W71381  37.797   6.316   1.135
 6397W        W71382  24.694  14.591  14.862
 6398W        W71383  36.127  26.741   0.334
 6399W        W71384  20.639  32.337   0.698
 6400W        W71385  22.668  26.138   1.856
 6401W        W71386  27.545  21.771  11.608
 6402W        W71387  38.388   8.807  13.907
 6403W        W71388  10.803  27.180   4.485
 6404W        W71389   9.613  30.196  13.960
 6405W        W71390   4.882  44.925  14.073
 6406W        W71391   1.275  28.405  12.430
 6407W        W71392   8.120  11.201   3.659
 6408W        W71393   2.487   4.843   0.780
 6409W        W71394  42.907   7.799  13.354
 6410W        W71395   1.378  18.185  12.984
 6411W        W71396   1.718   0.466   3.675
 6412W        W71397   3.152  30.693   2.411
 6413W        W71398  24.906  38.865   3.154
 6414W        W71399   6.104  25.282   1.276
 6415W        W71400   4.183   5.339  14.765
 6416W        W71401  35.189  39.347  11.158
 6417W        W71402  42.919  16.944  12.112
 6418W        W71403   9.489  15.085   0.015
 6419W        W71404  35.237  26.674  14.210
 6420W        W71405  25.882  37.174   2.444
 6421W        W71406  29.192  25.018   5.041
 6422W        W71407  21.025  10.714  11.510
 6423W        W71408   4.257   8.931  14.456
 6424W        W71409  15.821  44.728   2.283
 6425W        W71410   0.815   3.715  10.534
 6426W        W71411  38.833  15.593  13.093
 6427W        W71412  31.941  32.327   2.041
 6428W        W71413   9.907  42.481   1.937
 6429W        W71414  22.113  40.500  12.889
 6430W        W71415  35.890   1.231  12.978
 6431W        W71416   6.633  24.385  12.155
 6432W        W71417   9.717  28.460  14.646
 6433W        W71418  26.878  35.118  10.271
 6434W        W71419   9.650  40.958  14.396
 6435W        W71420  20.618  36.829  14.978
 6436W        W71421  13.596  30.442  11.685
 6437W        W71422  22.493  27.601   4.331
 6438W        W71423   7.902  42.394   4.249
 6439W        W71424  38.308  34.969  13.558
 6440W        W71425  37.313  41.555  11.553
 6441W        W71426  19.677   9.208   5.023
 6442W        W71427   7.677  11.086  11.677
 6443W        W71428  14.049  23.016  11.390
 6444W        W71429  21.187   5.497   0.821
 6445W        W71430  30.379  28.020  12.832
 6446W        W71431  16.704  28.608  12.238
 6447W        W71432  42.978  26.917   3.194
 6448W        W71433  22.423  16.181  11.975
 6449W        W71434  24.928  23.788   0.750
 6450W        W71435   4.670  40.015   0.831
 6451W        W71436   0.237  14.487  11.990
 6452W        W71437  13.358  25.048   2.925
 6453W        W71438  44.419   9.346  14.744
 6454W        W71439  33.080  41.729   1.822
 6455W        W71440  36.431  37.028   4.339
 6456W        W71441  19.642  36.656  10.745
 6457W        W71442  23.477   0.722   1.829
 6458W        W71443  24.251  20.234  12.946
 6459W        W71444   2.115   3.363  13.463
 6460W        W71445  30.413  24.488   3.525
 6461W        W71446  39.349  33.571   0.006
 6462W        W71447  43.360  10.297  13.431
 6463W        W71448  37.001  42.113   0.752
 6464W        W71449  13.457  33.277  12.315
 6465W        W71450  17.644  15.569  11.163
 6466W        W71451  35.123  37.048   4.937
 6467W        W71452  25.113  40.747  12.459
 6468W        W71453  40.730   0.869  13.848
 6469W        W71454  20.262  13.610   3.877
 6470W        W71455  40.145   9.840   1.153
 6471W        W71456  24.123   3.945   3.180
 6472W        W71457   9.122  44.317   0.755
 6473W        W71458  20.618  30.931   4.713
 6474W        W71459  41.265  19.053   0.254
 6475W        W71460   2.815  42.228  14.363
 6476W        W71461  18.983  28.464   5.059
 6477W        W71462   5.469  22.710   1.230
 6478W        W71463   4.566   8.707  13.694
 6479W        W71464  35.874   5.218  11.037
 6480W        W71465  27.377  21.073   1.312
 6481W        W71466   7.649  11.026  12.475
 6482W        W71467  28.650  18.011  13.949
 6483W        W71468  38.556  41.183  12.088
 6484W        W71469  34.712  35.509  11.438
 6485W        W71470  24.155  40.503  12.720
 6486W        W71471  36.988  10.865   2.383
 6487W        W71472  16.248   0.880   4.915
 6488W        W71473  43.367  20.813   1.246
 6489W        W71474  44.506   1.755  12.542
 6490W        W71475  34.576  15.271   2.247
 6491W        W71476  26.956  25.463  11.947
 6492W        W71477   4.730  30.670  11.055
 6493W        W71478  44.552  26.979   0.266
 6494W        W71479  22.934  19.315   1.356
 6495W        W71480  18.065  41.411   1.904
 6496W        W71481   2.818  31.508  12.555
 6497W        W71482  17.744  20.855   0.822
 6498W        W71483  33.382  16.111  14.065
 6499W        W71484  25.137  40.841   1.746
 6500W        W71485  24.430  43.752  11.120
 6501W        W71486   4.196  23.729  13.902
 6502W        W71487  28.783  39.019  10.684
 6503W        W71488   1.709  32.006   1.342
 6504W        W71489  33.664  22.197  11.453
 6505W        W71490  33.016  43.288  13.671
 6506W        W71491  42.905  17.578  12.048
 6507W        W71492  39.027  35.449   2.777
 6508W        W71493  22.385  19.651  10.163
 6509W        W71494  42.089  39.511  13.214
 6510W        W71495  38.381   1.966   2.566
 6511W        W71496  33.467  40.571  12.558
 6512W        W71497  22.183  17.822   4.132
 6513W        W71498  12.306  26.261  11.984
 6514W        W71499  27.904  19.801   4.923
 6515W        W71500  38.984  43.386  12.352
 6516W        W71501  20.657  24.495  11.085
 6517W        W71502  19.889  20.690  11.102
 6518W        W71503  28.403  38.480   3.775
 6519W        W71504   6.640  28.759  14.433
 6520W        W71505  29.558  43.186   2.762
 6521W        W71506  40.753  37.370  12.786
 6522W        W71507  24.712  17.811  10.779
 6523W        W71508  28.108  37.248   2.649
 6524W        W71509  35.536  29.590   1.794
 6525W        W71510  11.887  16.154   2.321
 6526W        W71511  23.411  17.749   3.502
 6527W        W71512  31.470   6.616   0.686
 6528W        W71513   6.551  41.610  12.394
 6529W        W71514  28.100  26.898   2.576
 6530W        W71515  18.724  13.594  11.908
 6531W        W71516  37.730  17.566  13.628
 6532W        W71517  36.994  15.110   4.032
 6533W        W71518  20.927  36.405  14.863
 6534W        W71519  33.122  25.584  11.010
 6535W        W71520   9.304   2.137  14.325
 6536W        W71521  25.333   2.278   0.847
 6537W        W71522   7.311  32.669  10.963
 6538W        W71523  37.801  13.825   1.979
 6539W        W71524  20.120  24.514   2.866
 6540W        W71525  36.899  40.066   3.294
 6541W        W71526  44.825  22.015   0.792
 6542W        W71527  33.718   1.231  13.688
 6543W        W71528  24.274  41.799   0.736
 6544W        W71529   6.412  34.180   0.493
 6545W        W71530   6.920   6.886  13.432
 6546W        W71531  27.637  26.549   2.384
 6547W        W71532  36.854  41.401   3.403
 6548W        W71533  44.992  41.299   0.493
 6549W        W71534  18.309  30.556   3.699
 6550W        W71535  22.081  14.072  13.542
 6551W        W71536  20.576  16.227  13.080
 6552W        W71537  38.402   1.576  10.966
 6553W        W71538  33.652   7.136   3.108
 6554W        W71539  44.377   3.372  12.678
 6555W        W71540   0.501  19.357  12.568
 6556W        W71541  26.868  15.235  10.659
 6557W        W71542  10.819  30.607   3.174
 6558W        W71543  13.603  27.613  14.771
 6559W        W71544   9.232  34.403  11.755
 6560W        W71545   7.281   0.211   0.755
 6561W        W71546  21.996  32.754   5.223
 6562W        W71547  11.185  12.559  12.023
 6563W        W71548   4.742  12.750   5.027
 6564W        W71549  39.515  31.357  13.338
 6565W        W71550  10.198  27.457  10.453
 6566W        W71551  16.176  14.315   4.800
 6567W        W71552  13.285  27.316   5.020
 6568W        W71553   4.282  16.386   2.877
 6569W        W71554  25.108  28.249  13.979
 6570W        W71555  41.021  39.591   4.666
 6571W        W71556  25.856  32.192   3.533
 6572W        W71557  18.559   2.787   0.194
 6573W        W71558  34.443   9.298   4.017
 6574W        W71559  22.169  43.402   0.927
 6575W        W71560  18.328  43.411   1.036
 6576W        W71561  42.884  29.506   0.828
 6577W        W71562  16.946  21.163   1.318
 6578W        W71563   7.048   5.261   3.832
 6579W        W71564   0.385  40.324  13.914
 6580W        W71565   3.492  23.501  11.623
 6581W        W71566  28.132   5.835  10.308
 6582W        W71567  13.799   2.343   2.701
 6583W        W71568  10.151  44.478   3.796
 6584W        W71569  36.126   1.216  14.209
 6585W        W71570  10.206   0.800  13.871
 6586W        W71571  42.577   0.385  13.927
 6587W        W71572  40.493  36.869  14.430
 6588W        W71573  16.289  31.555   0.306
 6589W        W71574  41.394  44.771  14.767
 6590W        W71575  28.145  25.308  11.513
 6591W        W71576  23.793  28.739  13.441
 6592W        W71577  11.283  19.645  14.246
 6593W        W71578  39.046  22.245   1.253
 6594W        W71579  28.680   7.964  12.552
 6595W        W71580  28.072   0.402   2.347
 6596W        W71581  33.577   9.846  14.500
 6597W        W71582  30.533   9.420  11.019
 6598W        W71583  10.780  18.709  12.074
 6599W        W71584  43.907  43.883   3.524
 6600W        W71585   4.539   8.416  11.024
 6601W        W71586  20.206  21.206   2.279
 6602W        W71587  13.296  41.023   3.363
 6603W        W71588   6.385  21.560   1.398
 6604W        W71589  20.216  13.561   4.411
 6605W        W71590  10.093  38.951  11.933
 6606W        W71591   0.337   3.251  14.973
 6607W        W71592   0.962  20.844   4.804
 6608W        W71593  39.437   5.069   4.045
 6609W        W71594  19.717   4.962  11.486
 6610W        W71595  30.995  35.048   3.727
 6611W        W71596   0.475  30.954  14.403
 6612W        W71597   7.728   4.671   1.183
 6613W        W71598  38.298  43.996   2.614
 6614W        W71599   0.982  35.992  10.858
 6615W        W71600  38.630  19.019   2.920
 6616W        W71601   9.783  33.362  11.933
 6617W        W71602  12.824  43.327   4.622
 6618W        W71603  23.022  19.346   0.214
 6619W        W71604   7.209   3.956   2.674
 6620W        W71605  39.145  21.238   4.659
 6621W        W71606  18.003  38.010   3.450
 6622W        W71607  39.996  25.531  13.965
 6623W        W71608   9.002  30.877  12.911
 6624W        W71609   4.631  33.892  11.613
 6625W        W71610  40.255  44.845  13.232
 6626W        W71611  35.781  12.773  10.974
 6627W        W71612   4.435  19.024  14.951
 6628W        W71613  17.436  36.908   3.760
 6629W        W71614   0.990  20.237   0.715
 6630W        W71615  38.804  35.949   1.819
 6631W        W71616  13.210  36.838  10.540
 6632W        W71617   6.188  28.492  14.540
 6633W        W71618   7.318  15.366   0.483
 6634W        W71619   0.662  25.958  11.710
 6635W        W71620  28.948   2.897   3.624
 6636W        W71621  24.436  23.969   1.783
 6637W        W71622  41.456  22.725   2.616
 6638W        W71623  44.410  31.522   3.112
 6639W        W71624  31.687   8.453   2.787
 6640W        W71625   5.391  35.936   4.141
 6641W        W71626   9.578  20.591  13.540
 6642W        W71627  10.810   2.945   1.811
 6643W        W71628  35.821  39.785   2.198
 6644W        W71629  25.598  18.815  14.934
 6645W        W71630   2.277   1.164   5.106
 6646W        W71631  39.357  12.083  14.231
 6647W        W71632  33.084  21.862   3.015
 6648W        W71633  19.704  12.275  10.358
 6649W        W71634  15.237  18.589   2.372
 6650W        W71635   5.379  20.631  13.977
 6651W        W71636  36.623  44.680  14.025
 6652W        W71637   8.079  16.831   3.262
 6653W        W71638  18.984   3.864   0.479
 6654W        W71639  24.637  33.938   1.831
 6655W        W71640  35.949  27.856   2.972
 6656W        W71641   3.872  35.605  11.546
 6657W        W71642  34.309  25.265   3.524
 6658W        W71643  42.552   1.715   1.939
 6659W        W71644   9.255  44.423   4.584
 6660W        W71645  10.537  35.480   1.671
 6661W        W71646  40.791   0.906   3.338
 6662W        W71647   6.698  19.755  14.744
 6663W        W71648  31.937  38.984   1.094
 6664W        W71649  44.900  44.318  10.667
 6665W        W71650  34.462  30.593   2.661
 6666W        W71651  11.335   1.213  14.475
 6667W        W71652   4.292  43.734   2.653
 6668W        W71653  34.110  33.881   2.270
 6669W        W71654  42.842  18.950  13.581
 6670W        W71655   4.744   7.390  13.616
 6671W        W71656  13.524  24.718  10.525
 6672W        W71657  25.896  42.837  13.024
 6673W        W71658  10.210  27.056  11.635
 6674W        W71659  14.895  13.123  12.131
 6675W        W71660   3.175  24.478   1.330
 6676W        W71661  31.935  38.243   3.770
 6677W        W71662  30.056  39.058  14.359
 6678W        W71663  38.355  14.195  12.216
 6679W        W71664  30.622   8.675   3.710
 6680W        W71665  23.079  44.029   1.834
 6681W        W71666  23.717  34.453   4.561
 6682W        W71667  10.948   0.782  11.099
 6683W        W71668  13.083  31.226   1.791
 6684W        W71669   2.017  13.679  10.986
 6685W        W71670  40.994   0.538  11.284
 6686W        W71671  15.041  39.445  11.548
 6687W        W71672   8.220  33.883  11.215
 6688W        W71673  35.615  36.602  11.996
 6689W        W71674  16.340  15.278   3.069
 6690W        W71675   5.326   3.859   3.255
 6691W        W71676  26.563   2.815  13.144
 6692W        W71677  38.361   3.082   4.301
 6693W        W71678  16.582  37.589  13.929
 6694W        W71679  31.403  20.395   4.069
 6695W        W71680   4.314   8.439   0.279
 6696W        W71681  44.226  24.909   2.757
 6697W        W71682  18.751  10.922  12.905
 6698W        W71683  18.678  40.329   0.991
 6699W        W71684   6.909   3.956  10.318
 6700W        W71685  31.819   4.954  11.920
 6701W        W71686  22.409   9.658   3.602
 6702W        W71687  25.029  25.586  12.481
 6703W        W71688   9.345  32.954   0.774
 6704W        W71689  34.992  33.402  11.186
 6705W        W71690  28.376   0.271   4.222
 6706W        W71691  15.273  34.026  10.828
 6707W        W71692   4.632  36.604   2.255
 6708W        W71693   4.758  36.582  13.035
 6709W        W71694  32.069  18.553   4.968
 6710W        W71695  28.561  22.998  10.587
 6711W        W71696   8.664  19.656   2.678
 6712W        W71697  10.292  20.676  12.986
 6713W        W71698  15.239  21.663   3.061
 6714W        W71699  16.770  26.314   2.489
 6715W        W71700  29.477   1.629   0.946
 6716W        W71701  37.447  38.494  10.995
 6717W        W71702  23.670  26.522  13.905
 6718W        W71703  18.109   1.798   0.031
 6719W        W71704  41.537  36.161  14.871
 6720W        W71705  38.920  28.988  12.826
 6721W        W71706  38.947  15.721  13.605
 6722W        W71707   6.365  28.605   9.914
 6723W        W71708  32.837  29.922  13.812
 6724W        W71709   0.759  40.831  13.969
 6725W        W71710  14.863  33.382  11.110
 6726W        W71711  28.130  26.067  13.441
 6727W        W71712  11.141  20.244  10.827
 6728W        W71713  19.701  32.628  14.466
 6729W        W71714   6.118  39.941   4.687
 6730W        W71715  39.538  28.983  10.655
 6731W        W71716  21.186  37.592   4.588
 6732W        W71717  14.841   0.384   1.504
 6733W        W71718  34.522  21.801   1.900
 6734W        W71719  32.657  44.876   3.272
 6735W        W71720  43.376  20.929  12.603
 6736W        W71721  22.763  13.326   1.754
 6737W        W71722  36.813  31.467  12.897
 6738W        W71723  40.306  35.539  13.817
 6739W        W71724  33.880   2.233  13.460
 6740W        W71725  40.430  17.319   2.699
 6741W        W71726  30.553  12.742   0.517
 6742W        W71727  29.957  26.961  11.645
 6743W        W71728  31.873  24.098  10.677
 6744W        W71729  37.094  13.877  13.545
 6745W        W71730  20.026  15.070   1.217
 6746W        W71731  44.506  31.406   2.610
 6747W        W71732  12.746   8.742   1.266
 6748W        W71733   6.709   7.370  12.457
 6749W        W71734  23.191   5.903  14.350
 6750W        W71735  20.193  25.068   4.496
 6751W        W71736  23.759  34.885  13.923
 6752W        W71737   1.892  29.042   2.855
 6753W        W71738  37.034  41.641   2.272
 6754W        W71739   6.478  10.104  12.930
 6755W        W71740  13.117  31.412   2.566
 6756W        W71741  14.913  14.695   3.929
 6757W        W71742  15.925  20.695   5.709
 6758W        W71743  19.316   9.885   1.472
 6759W        W71744  34.184   6.651  12.353
 6760W        W71745  24.548  25.636  12.713
 6761W        W71746  34.478  42.396  12.070
 6762W        W71747  16.264  10.473   2.871
 6763W        W71748  33.929  11.336   0.306
 6764W        W71749  11.200  29.550  14.608
 6765W        W71750  20.998  25.673  11.067
 6766W        W71751  34.886   9.456   0.684
 6767W        W71752   0.185  37.372  14.631
 6768W        W71753  42.751   6.372   4.546
 6769W        W71754  30.638  20.068   4.681
 6770W        W71755  22.554  34.129   4.209
 6771W        W71756  25.994  35.994   3.393
 6772W        W71757  40.784  19.693   2.724
 6773W        W71758  22.987  19.003   1.776
 6774W        W71759  30.614  32.471  11.345
 6775W        W71760  14.329   2.350   1.239
 6776W        W71761   5.885  33.053   0.034
 6777W        W71762   7.011  18.139   2.701
 6778W        W71763   1.951  15.037  12.349
 6779W        W71764   8.313  20.884  11.980
 6780W        W71765  27.462  36.613   2.962
 6781W        W71766   0.276   8.167  11.942
 6782W        W71767  17.477  42.001   2.214
 6783W        W71768  31.579  35.961   1.700
 6784W        W71769  27.515   8.671   3.357
 6785W        W71770  12.124   3.242   0.122
 6786W        W71771  15.512   1.785   0.573
 6787W        W71772  33.072   4.849  14.806
 6788W        W71773  23.562   0.037  11.137
 6789W        W71774   6.850  38.155  13.926
 6790W        W71775  33.694  24.113  11.720
 6791W        W71776  21.337  32.114   3.684
 6792W        W71777   0.785  37.974   1.243
 6793W        W71778  20.995  11.126  12.901
 6794W        W71779  34.134   6.550   0.921
 6795W        W71780  30.353  42.880  14.478
 6796W        W71781  43.462  25.026   3.234
 6797W        W71782  41.936   4.942   3.647
 6798W        W71783  43.672   7.963  14.776
 6799W        W71784  19.065  27.580  13.766
 6800W        W71785  10.500  20.536   3.632
 6801W        W71786  12.332  24.266  13.984
 6802W        W71787  44.167  16.814  10.205
 6803W        W71788   1.028  27.108  11.708
 6804W        W71789  12.252  28.516   4.154
 6805W        W71790  13.768  28.624  13.918
 6806W        W71791  15.941  11.247  11.144
 6807W        W71792   4.806  23.238  13.824
 6808W        W71793  30.436  26.687  13.529
 6809W        W71794   6.249  38.768  12.519
 6810W        W71795  34.259  19.314   4.105
 6811W        W71796  36.919  30.579   0.876
 6812W        W71797  36.037  38.251  11.201
 6813W        W71798  40.796  21.401   1.796
 6814W        W71799  35.016  26.895  11.559
 6815W        W71800   2.160   1.979   4.117
 6816W        W71801   4.256  35.103  10.214
 6817W        W71802  34.199  35.182   3.280
 6818W        W71803   3.057  21.814  11.085
 6819W        W71804  15.632  35.859   3.733
 6820W        W71805  26.499  35.905  13.370
 6821W        W71806  27.278  28.496  11.188
 6822W        W71807   6.273  39.444   0.449
 6823W        W71808   7.417  18.554   3.088
 6824W        W71809  34.587  30.450  13.443
 6825W        W71810  34.107  25.485   4.725
 6826W        W71811  20.605  29.661  10.631
 6827W        W71812   7.538   2.656   4.172
 6828W        W71813   2.403  40.308   0.884
 6829W        W71814  23.815  17.683  10.463
 6830W        W71815  41.839  30.869   1.253
 6831W        W71816   1.573  28.818  12.480
 6832W        W71817  15.694  15.713  14.846
 6833W        W71818   5.834  38.527  13.100
 6834W        W71819   1.405  39.076  14.029
 6835W        W71820  30.681   0.327   4.616
 6836W        W71821  12.891   3.252  11.675
 6837W        W71822  22.426   6.279   2.433
 6838W        W71823  14.709   2.537  10.696
 6839W        W71824   9.357  19.254  12.424
 6840W        W71825  18.707  30.891  12.827
 6841W        W71826  14.776  33.389   0.447
 6842W        W71827  13.793  29.425   2.409
 6843W        W71828  31.532   4.044   4.152
 6844W        W71829  22.527  17.946  11.436
 6845W        W71830   9.524  14.240   4.975
 6846W        W71831   0.448   5.918  10.774
 6847W        W71832  19.245  26.227  12.846
 6848W        W71833  18.195  42.662   3.876
 6849W        W71834  31.597   9.324   2.714
 6850W        W71835  38.877   2.981   1.748
 6851W        W71836  20.339  16.820   4.375
 6852W        W71837  44.890   9.159  11.600
 6853W        W71838  26.248  28.396  11.101
 6854W        W71839   3.359   9.361   2.651
 6855W        W71840   4.858  23.125  13.298
 6856W        W71841  18.598   1.006   2.314
 6857W        W71842  21.273  10.361  13.997
 6858W        W71843  14.158  13.739  14.378
 6859W        W71844  41.410   3.568  14.944
 6860W        W71845  14.330  28.648  13.224
 6861W        W71846  33.195  25.882   1.971
 6862W        W71847  18.622   2.531   2.362
 6863W        W71848  26.794   7.100   4.144
 6864W        W71849   1.815   6.445  14.725
 6865W        W71850  27.563  11.134   0.938
 6866W        W71851  24.448   1.825  12.419
 6867W        W71852  29.038  27.052  11.649
 6868W        W71853  11.904   0.492  14.525
 6869W        W71854  33.688  30.592   2.712
 6870W        W71855  11.531  44.081   3.289
 6871W        W71856   5.883  13.820  10.491
 6872W        W71857  36.088  13.072  14.895
 6873W        W71858  38.303   2.274   0.167
 6874W        W71859  13.612  27.134  12.392
 6875W        W71860  40.237  16.204  13.464
 6876W        W71861  39.151   7.220   1.593
 6877W        W71862  15.306  38.475   4.964
 6878W        W71863  14.156  11.923   2.683
 6879W        W71864  17.614  15.387   2.561
 6880W        W71865  28.875  15.758   1.078
 6881W        W71866  27.776  44.125  11.138
 6882W        W71867  43.689  29.961   3.358
 6883W        W71868  39.087  14.285  14.446
 6884W        W71869  27.976  31.106  14.420
 6885W        W71870  31.050  12.388   4.588
 6886W        W71871   6.923  26.314  10.586
 6887W        W71872  24.127  12.726   3.838
 6888W        W71873  36.322  34.115  10.493
 6889W        W71874  36.829   8.770   4.659
 6890W        W71875  10.221  33.985   4.344
 6891W        W71876  15.578   6.263   2.170
 6892W        W71877  39.363   6.417  14.190
 6893W        W71878  11.658  18.687  14.492
 6894W        W71879  32.964   3.775   0.925
 6895W        W71880  23.900   3.635   0.458
 6896W        W71881  24.552   9.636  10.734
 6897W        W71882  39.232  30.407   1.900
 6898W        W71883  30.489  29.384  11.865
 6899W        W71884   7.179  42.507   4.655
 6900W        W71885   2.706  23.944  11.651
 6901W        W71886  39.860  13.835   3.656
 6902W        W71887  37.981  15.832   1.385
 6903W        W71888   8.356  17.631  14.054
 6904W        W71889  16.185  40.522  11.707
 6905W        W71890  11.262   7.808   1.778
 6906W        W71891  29.848  44.029   2.539
 6907W        W71892  41.482  36.119   2.158
 6908W        W71893  25.837  29.062   0.519
 6909W        W71894  34.526  34.850   4.217
 6910W        W71895  14.718   5.261   0.152
 6911W        W71896   4.280   0.892   4.312
 6912W        W71897   1.588  24.517   2.192
 6913W        W71898  35.980  15.377  10.866
 6914W        W71899  35.170  37.301   3.632
 6915W        W71900  19.015  35.646  13.516
 6916W        W71901  10.433  26.942   1.360
 6917W        W71902   6.368  32.002   4.065
 6918W        W71903  26.039   7.919  12.453
 6919W        W71904  36.156  32.588   3.761
 6920W        W71905  11.165   1.258   4.737
 6921W        W71906  29.973  24.325   3.759
 6922W        W71907  12.636  22.057  12.361
 6923W        W71908  17.534  21.254  13.611
 6924W        W71909  29.612  37.370   2.708
 6925W        W71910  36.034   2.022   4.012
 6926W        W71911   1.739  17.666   3.671
 6927W        W71912   2.893  24.142   1.004
 6928W        W71913  19.680  12.833   4.161
 6929W        W71914  34.789  31.095   0.423
 6930W        W71915  13.129  36.640   4.041
 6931W        W71916  36.364  24.664   3.730
 6932W        W71917  33.681  10.889  12.798
 6933W        W71918   9.904   9.318  13.254
 6934W        W71919  37.413  28.677  11.174
 6935W        W71920  15.161  13.356   3.145
 6936W        W71921  20.252  32.931   4.492
 6937W        W71922  43.546   5.717  13.383
 6938W        W71923  24.484  31.356  13.388
 6939W        W71924  24.022  42.935   1.224
 6940W        W71925  37.456  23.561  12.519
 6941W        W71926  34.477  37.578  10.352
 6942W        W71927   9.015  41.189   0.505
 6943W        W71928  15.510  38.892  13.568
 6944W        W71929  25.183   8.201   4.460
 6945W        W71930  35.921  14.391   3.231
 6946W        W71931  40.586  24.594   4.050
 6947W        W71932   4.377  41.023   2.114
 6948W        W71933  29.456  34.144   3.650
 6949W        W71934  39.974  30.643   4.583
 6950W        W71935  26.026  14.167  13.931
 6951W        W71936  18.263  10.340  14.828
 6952W        W71937  30.636  43.594  13.499
 6953W        W71938  19.889   3.350  14.740
 6954W        W71939  13.218  16.615  10.417
 6955W        W71940  12.151  20.117  10.744
 6956W        W71941  28.824  11.769   1.280
 6957W        W71942  27.669  15.159  11.020
 6958W        W71943  38.469  24.278   4.154
 6959W        W71944   8.858  11.735   3.634
 6960W        W71945  41.817  33.653  10.723
 6961W        W71946  24.980  12.238   0.643
 6962W        W71947  27.567  20.794   3.726
 6963W        W71948  28.348  16.953  11.039
 6964W        W71949  26.404  20.250  13.581
 6965W        W71950  17.066  24.551   2.916
 6966W        W71951  22.774  32.814   2.196
 6967W        W71952  19.033  31.080   2.310
 6968W        W71953  28.349  18.601   0.872
 6969W        W71954   4.845  16.818   3.881
 6970W        W71955  37.009  24.000   1.849
 6971W        W71956  27.075  23.949   4.778
 6972W        W71957  18.356  38.503   1.318
 6973W        W71958   2.720  13.655   4.550
 6974W        W71959   8.006  17.971   2.815
 6975W        W71960  20.155   6.902   1.732
 6976W        W71961  19.095  10.338   2.828
 6977W        W71962  35.038  11.808  10.928
 6978W        W71963  43.433   5.342   0.162
 6979W        W71964  19.684  34.134   3.132
 6980W        W71965  41.489  17.745   0.077
 6981W        W71966   8.496  37.054   0.817
 6982W        W71967  43.521  36.081   3.285
 6983W        W71968  28.023  12.181   1.661
 6984W        W71969  23.438  19.195   1.427
 6985W        W71970  31.239   8.113  11.462
 6986W        W71971  36.322  20.228  12.915
 6987W        W71972  15.096  11.399   1.900
 6988W        W71973  16.390  23.173  11.927
 6989W        W71974  41.321  35.195   2.455
 6990W        W71975  44.006   2.219   0.312
 6991W        W71976  44.757   4.383  12.078
 6992W        W71977   6.661   9.651   9.745
 6993W        W71978  37.323  39.470   1.331
 6994W        W71979  19.141  38.359  14.064
 6995W        W71980  22.714  11.766   2.790
 6996W        W71981  40.857   4.361   0.102
 6997W        W71982  18.152  44.321  11.167
 6998W        W71983  23.145  28.710  12.648
 6999W        W71984   1.892   9.951  11.091
 7000W        W71985   1.964  42.008   1.818
 7001W        W71986  44.419  43.733  13.488
 7002W        W71987  23.239   7.913   1.457
 7003W        W71988  37.897  36.977   5.110
 7004W        W71989  29.416  31.004   3.733
 7005W        W71990  39.442  36.839   1.430
 7006W        W71991  36.994  42.849   4.763
 7007W        W71992  42.067  22.477  11.096
 7008W        W71993   5.761  36.654   1.299
 7009W        W71994  22.140  29.389  13.932
 7010W        W71995  41.262  21.192   2.212
 7011W        W71996  14.728  30.633   1.355
 7012W        W71997  14.355  30.636   4.227
 7013W        W71998  16.107  35.903   4.195
 7014W        W71999   1.834  33.692  14.955
 7015W        W72000  37.795  32.362   4.815
 7016W        W72001  24.103   4.648   4.932
 7017W        W72002  22.589  34.370  10.935
 7018W        W72003  22.271   6.308  12.035
 7019W        W72004  38.306   2.329  13.741
 7020W        W72005  27.005   7.759   3.320
 7021W        W72006  10.324   4.426   0.270
 7022W        W72007   2.669  31.705  11.190
 7023W        W72008  34.631  35.966   1.429
 7024W        W72009   1.527  23.917   4.393
 7025W        W72010  21.297  31.333  11.133
 7026W        W72011   2.980  32.111  12.908
 7027W        W72012  21.705   4.439  13.112
 7028W        W72013   9.312  23.235  13.415
 7029W        W72014  32.074  39.548   4.627
 7030W        W72015  30.070  36.828  13.783
 7031W        W72016  27.610  31.100  12.032
 7032W        W72017  12.652  26.676   3.664
 7033W        W72018  26.691   4.374  12.032
 7034W        W72019  35.277  28.581   4.043
 7035W        W72020  35.490  11.542   0.864
 7036W        W72021   4.458  26.503   1.194
 7037W        W72022  16.275   9.482  10.891
 7038W        W72023  27.991  10.641  13.055
 7039W        W72024  29.655   3.027  10.133
 7040W        W72025   0.385  28.553  12.511
 7041W        W72026  12.767  11.673  13.810
 7042W        W72027  12.905  22.669   1.917
 7043W        W72028  12.868  35.147   2.232
 7044W        W72029  38.652  25.112   9.871
 7045W        W72030  21.123  27.153  11.196
 7046W        W72031  44.458  25.862  11.173
 7047W        W72032  28.740  28.418   4.575
 7048W        W72033  23.988  36.066   0.737
 7049W        W72034   0.933   4.774  10.636
 7050W        W72035  38.567  37.279  13.978
 7051W        W72036  34.428  29.715   4.579
 7052W        W72037  33.074  44.148  11.175
 7053W        W72038  19.564  12.189   4.875
 7054W        W72039  30.513  30.885  12.863
 7055W        W72040   6.730  28.868   3.541
 7056W        W72041  24.176  44.006  11.553
 7057W        W72042  23.628  41.560   1.269
 7058W        W72043  27.499   0.951  13.359
 7059W        W72044  16.447  30.423   2.340
 7060W        W72045  42.152  39.571   0.358
 7061W        W72046   2.815  19.759   0.918
 7062W        W72047  25.349   7.542   3.123
 7063W        W72048  24.080  19.487  10.620
 7064W        W72049  15.141  19.091   2.521
 7065W        W72050  30.672  20.101   3.645
 7066W        W72051  12.778  12.264  10.514
 7067W        W72052  13.715  37.357   0.956
 7068W        W72053   4.783  15.314   0.532
 7069W        W72054  44.191  12.778   1.012
 7070W        W72055  43.850   6.356  13.244
 7071W        W72056  27.106  24.039  13.443
 7072W        W72057  40.438  31.224  14.671
 7073W        W72058   1.893  20.729  11.906
 7074W        W72059  41.414  42.770   2.709
 7075W        W72060  27.107  18.831   3.518
 7076W        W72061  39.267  24.552  10.339
 7077W        W72062  20.797  23.523  11.270
 7078W        W72063   4.292  42.826   2.073
 7079W        W72064  22.713  23.663  13.418
 7080W        W72065  34.804  23.166   0.826
 7081W        W72066  35.908  19.579   0.711
 7082W        W72067  25.695  39.320  14.798
 7083W        W72068  22.039   1.432   1.612
 7084W        W72069   4.269  34.545  13.430
 7085W        W72070  32.994   5.423  13.531
 7086W        W72071  24.765  11.923   3.679
 7087W        W72072  38.982  22.681   3.141
 7088W        W72073   3.317  30.902   0.756
 7089W        W72074  40.379  12.777  12.553
 7090W        W72075  15.644   1.032  13.983
 7091W        W72076  10.901  24.754   2.820
 7092W        W72077   8.239  38.421   4.902
 7093W        W72078   8.073  41.825  11.913
 7094W        W72079  20.863  18.785   2.353
 7095W        W72080  21.431  19.084  13.990
 7096W        W72081  27.727   1.891   1.856
 7097W        W72082   5.443  14.309   4.189
 7098W        W72083  11.157  13.589   3.241
 7099W        W72084  29.985  11.753   2.748
 7100W        W72085   4.152  27.646   2.066
 7101W        W72086  29.327  42.349   0.495
 7102W        W72087   8.873  33.565   2.283
 7103W        W72088   9.572  21.756  12.177
 7104W        W72089  36.185   2.871  10.710
 7105W        W72090  10.015   5.871   4.532
 7106W        W72091   9.353  41.822  10.953
 7107W        W72092   2.299  32.992   2.426
 7108W        W72093   7.562   9.315  10.726
 7109W        W72094  22.057  36.338   4.833
 7110W        W72095  14.172  34.312  10.500
 7111W        W72096  20.269  11.212   4.256
 7112W        W72097  28.361  31.951  11.602
 7113W        W72098  11.691  33.952   0.354
 7114W        W72099  32.754  41.325   1.742
 7115W        W72100  24.765  32.911   2.803
 7116W        W72101   6.467   7.862  13.777
 7117W        W72102  22.867  28.411   1.193
 7118W        W72103  44.545  39.612  14.828
 7119W        W72104  37.563  40.572  13.511
 7120W        W72105  12.105  38.816  11.612
 7121W        W72106   0.298  38.488   1.874
 7122W        W72107  16.162  29.088   4.087
 7123W        W72108  28.148  10.695   3.471
 7124W        W72109  31.898   0.786  13.788
 7125W        W72110   5.408  33.031  14.801
 7126W        W72111   8.201  31.143  12.628
 7127W        W72112  25.163  32.533   1.334
 7128W        W72113  21.608  10.733   3.816
 7129W        W72114   4.878  44.752   3.807
 7130W        W72115  31.932   2.972  11.210
 7131W        W72116  43.194   5.285  14.248
 7132W        W72117  29.481   3.474  13.829
 7133W        W72118   4.421  37.461   2.466
 7134W        W72119  28.417  43.153   1.508
 7135W        W72120   1.917  10.953  11.349
 7136W        W72121   0.751  36.736  11.160
 7137W        W72122  34.017  10.859  13.418
 7138W        W72123  24.879  10.020  14.394
 7139W        W72124  13.578  24.316  11.518
 7140W        W72125   6.389  31.875  11.277
 7141W        W72126  32.981  11.432  12.904
 7142W        W72127  33.548   5.968   0.684
 7143W        W72128  33.377  33.415   3.707
 7144W        W72129  26.677  32.166   5.410
 7145W        W72130  44.333   6.218   1.594
 7146W        W72131  16.444  23.219  12.762
 7147W        W72132  15.874  12.620  14.879
 7148W        W72133  35.302  27.528  12.015
 7149W        W72134  12.165   6.041   2.786
 7150W        W72135  18.119  42.273  11.283
 7151W        W72136   9.853  25.173   4.189
 7152W        W72137  13.164   6.341   2.941
 7153W        W72138   7.343   3.901   3.155
 7154W        W72139   6.065  31.693  14.797
 7155W        W72140  24.662  18.739   4.254
 7156W        W72141  16.294   1.111  11.577
 7157W        W72142  40.896  38.988   1.331
 7158W        W72143  33.015  19.057  14.230
 7159W        W72144   9.395  34.993  11.000
 7160W        W72145  15.198  25.246  14.356
 7161W        W72146  39.269  39.463   1.478
 7162W        W72147  31.394   2.865   3.825
 7163W        W72148  37.766  28.497  13.455
 7164W        W72149  44.763  25.430   4.410
 7165W        W72150  21.687  24.644  10.530
 7166W        W72151  17.082   5.415  14.533
 7167W        W72152  44.254  25.128   0.890
 7168W        W72153  10.563   8.773  11.861
 7169W        W72154   3.862  40.812  12.590
 7170W        W72155  10.324  43.506   4.738
 7171W        W72156  24.423  24.064  12.974
 7172W        W72157   4.289  33.054  12.989
 7173W        W72158  23.726   8.353  13.538
 7174W        W72159  17.899  14.687  11.112
 7175W        W72160   0.759   5.225  12.003
 7176W        W72161  12.241   7.395   3.120
 7177W        W72162  23.580  34.150   0.819
 7178W        W72163   8.834   3.328   2.242
 7179W        W72164   2.971   3.004  12.522
 7180W        W72165  30.613   1.879   0.269
 7181W        W72166  17.161  43.349   0.204
 7182W        W72167  33.840   0.690   1.332
 7183W        W72168  39.866  34.864  13.926
 7184W        W72169   0.823  10.546   2.338
 7185W        W72170  24.436  37.808  11.165
 7186W        W72171  20.032  29.920  12.166
 7187W        W72172  39.372  25.940  14.443
 7188W        W72173  10.064   8.005  13.496
 7189W        W72174  25.741   1.723   1.382
 7190W        W72175  26.963  24.208   1.128
 7191W        W72176   5.372   6.912  14.128
 7192W        W72177  36.061  34.376  13.387
 7193W        W72178   3.381   4.767  10.701
 7194W        W72179  17.045   1.804   3.204
 7195W        W72180  22.720  19.246  12.416
 7196W        W72181  21.915   8.411  13.364
 7197W        W72182   5.239  41.348  13.297
 7198W        W72183  33.861  12.805  13.428
 7199W        W72184  28.006  43.400   0.783
 7200W        W72185  26.866   1.485   0.894
 7201W        W72186  44.789   4.617   0.268
 7202W        W72187   6.467  16.968  12.125
 7203W        W72188   5.496  39.544  14.856
 7204W        W72189   7.469   9.409   2.684
 7205W        W72190  21.163   3.702  13.906
 7206W        W72191  44.480  33.656   0.664
 7207W        W72192   7.871  22.240  12.120
 7208W        W72193  12.664  41.511  11.988
 7209W        W72194  25.065  14.982   0.814
 7210W        W72195   7.879  22.725   1.372
 7211W        W72196  20.633  26.089  12.922
 7212W        W72197  24.854  31.956  12.623
 7213W        W72198   0.211  28.885   0.869
 7214W        W72199  28.873  22.701   4.326
 7215W        W72200  38.901   1.474  10.554
 7216W        W72201   8.159  15.409   1.931
 7217W        W72202   1.302  16.237  12.041
 7218W        W72203  22.373   4.453   4.217
 7219W        W72204  33.700  29.711   1.295
 7220W        W72205  22.975   6.824   1.189
 7221W        W72206  21.963  20.133   3.613
 7222W        W72207  36.851   7.164   0.305
 7223W        W72208  44.286  27.909  11.256
 7224W        W72209  31.995  20.289   3.180
 7225W        W72210  26.706  16.632   0.230
 7226W        W72211  14.599  40.186  10.302
 7227W        W72212  13.927  42.856   1.100
 7228W        W72213  30.900  36.092  12.674
 7229W        W72214  11.858  41.471   2.944
 7230W        W72215  31.617  31.437   1.299
 7231W        W72216  38.291  27.129  12.938
 7232W        W72217  42.124  40.564   0.346
 7233W        W72218  40.294   9.770   2.125
 7234W        W72219   3.158  23.135   4.115
 7235W        W72220  42.028  19.836   3.718
 7236W        W72221  27.772  37.621   2.737
 7237W        W72222  34.328  18.844   2.146
 7238W        W72223  24.432  25.021   4.865
 7239W        W72224  27.994  23.992   2.224
 7240W        W72225  14.230  35.308   2.324
 7241W        W72226  13.234   5.115  14.198
 7242W        W72227  22.575  12.549   1.240
 7243W        W72228  30.970  14.342   0.859
 7244W        W72229  30.570  29.636  12.549
 7245W        W72230   7.731  14.738   1.794
 7246W        W72231  22.924  36.847  12.606
 7247W        W72232  32.077   8.280  13.085
 7248W        W72233   6.356  21.031   1.272
 7249W        W72234  14.927  27.474  13.481
 7250W        W72235  26.391   8.719  13.897
 7251W        W72236  42.382  21.552   3.667
 7252W        W72237  43.186   8.000  10.839
 7253W        W72238  29.921  27.543  13.324
 7254W        W72239  11.718   3.937   1.909
 7255W        W72240  17.024   0.515   1.038
 7256W        W72241   0.792  24.048   2.229
 7257W        W72242  28.678  19.490  11.481
 7258W        W72243  23.157   6.076   2.890
 7259W        W72244   9.850  24.262   2.814
 7260W        W72245  26.945  13.786   3.875
 7261W        W72246  33.969  30.004   3.095
 7262W        W72247  21.671  27.853   2.556
 7263W        W72248  41.338   8.696   1.332
 7264W        W72249  19.735  18.928   2.702
 7265W        W72250   9.095  18.110  12.130
 7266W        W72251  28.466  32.627   4.182
 7267W        W72252  17.058  23.546  12.515
 7268W        W72253   7.651  37.931  11.565
 7269W        W72254  16.072  25.406   4.610
 7270W        W72255  24.123   0.027  13.908
 7271W        W72256   7.265  34.862  12.515
 7272W        W72257  35.880  36.597  13.951
 7273W        W72258   1.688  18.049   4.469
 7274W        W72259  15.651  31.237  11.666
 7275W        W72260  42.007  23.844   3.983
 7276W        W72261   8.670  29.286   1.733
 7277W        W72262   5.926  28.427   0.559
 7278W        W72263  10.768  44.658  12.094
 7279W        W72264  33.422  30.413   4.677
 7280W        W72265  29.202  23.170  14.407
 7281W        W72266  16.618  11.708   3.502
 7282W        W72267  26.299   9.814   2.725
 7283W        W72268   1.884  26.587   4.675
 7284W        W72269   2.966   9.302  13.899
 7285W        W72270   9.944  23.901   0.426
 7286W        W72271   5.013  11.579  13.154
 7287W        W72272   2.864   7.212  13.492
 7288W        W72273  31.617  14.686  14.299
 7289W        W72274  32.380  40.556  13.861
 7290W        W72275  42.448  36.410   2.057
 7291W        W72276  23.592  13.149  12.589
 7292W        W72277  42.861  32.180   3.647
 7293W        W72278  11.462  10.464   2.304
 7294W        W72279  44.960  23.403  14.773
 7295W        W72280   9.416  35.907  11.105
 7296W        W72281  28.746  15.099   3.234
 7297W        W72282   9.864  36.291   2.198
 7298W        W72283  28.108  30.625   0.654
 7299W        W72284  27.065  37.692  11.775
 7300W        W72285  22.493  41.513  13.036
 7301W        W72286  11.062   3.854   0.440
 7302W        W72287  15.658  36.478  14.304
 7303W        W72288  26.160   9.177  12.848
 7304W        W72289   1.231  14.221  14.052
 7305W        W72290  41.124  23.772  10.824
 7306W        W72291   3.462  12.710   3.683
 7307W        W72292  41.231  37.596  13.618
 7308W        W72293  34.329  32.620  12.453
 7309W        W72294  40.875  12.413  10.345
 7310W        W72295  32.900   7.321  13.418
 7311W        W72296  42.837   4.986  13.493
 7312W        W72297  43.331   2.479   2.898
 7313W        W72298  17.035  40.306   3.240
 7314W        W72299  24.799  36.848   4.180
 7315W        W72300  25.639  18.302   1.092
 7316W        W72301   7.709  11.601  11.495
 7317W        W72302  42.484   3.389   4.926
 7318W        W72303  18.137  44.035   4.277
 7319W        W72304  41.647  36.632   4.517
 7320W        W72305   8.442  24.082  11.951
 7321W        W72306  38.577  18.709  13.803
 7322W        W72307   6.374   4.796   0.945
 7323W        W72308  13.804  26.461  14.726
 7324W        W72309  24.618  27.118   2.330
 7325W        W72310  44.987  22.758  11.086
 7326W        W72311   7.274  12.240  12.046
 7327W        W72312  31.657   8.588  13.009
 7328W        W72313  10.873  36.918   0.475
 7329W        W72314  14.495  41.626  14.098
 7330W        W72315  15.303  36.526  10.633
 7331W        W72316  27.289  41.907   2.827
 7332W        W72317  14.464   2.311  11.096
 7333W        W72318  44.038  15.578  14.405
 7334W        W72319   5.169  21.132  11.651
 7335W        W72320  41.539  14.466   5.179
 7336W        W72321  23.961  40.324   3.326
 7337W        W72322  41.443  20.968   2.663
 7338W        W72323   2.105  30.793  13.430
 7339W        W72324  11.624  26.196   1.253
 7340W        W72325  29.147  13.302   3.863
 7341W        W72326  38.649  20.678   1.757
 7342W        W72327  35.498  14.084  14.360
 7343W        W72328   7.753  24.255  13.452
 7344W        W72329  32.430  24.513  10.789
 7345W        W72330  33.918  38.088  12.436
 7346W        W72331  11.108  17.103   2.367
 7347W        W72332  13.048  21.527  10.729
 7348W        W72333  38.923   9.645   0.662
 7349W        W72334  31.606  43.051  11.162
 7350W        W72335  14.354   0.824   3.582
 7351W        W72336  26.428   0.506   2.423
 7352W        W72337  36.068   0.064  11.309
 7353W        W72338  43.553   9.792   4.630
 7354W        W72339  14.101  23.971  11.662
 7355W        W72340   9.269  14.167  13.023
 7356W        W72341   5.411  23.258  11.561
 7357W        W72342  21.635  13.750   0.124
 7358W        W72343  42.743  35.771  13.082
 7359W        W72344  16.676  10.343   4.596
 7360W        W72345  25.197  32.425  14.935
 7361W        W72346  17.901   5.038   9.857
 7362W        W72347  30.116  39.846  10.635
 7363W        W72348  24.553  40.619   1.271
 7364W        W72349  22.130  24.642   2.498
 7365W        W72350  35.461  43.333  13.138
 7366W        W72351  19.933  39.834  12.709
 7367W        W72352  14.385  29.393  13.470
 7368W        W72353  26.726  29.586  10.474
 7369W        W72354  38.505  20.747  14.338
 7370W        W72355  33.646  26.009  12.183
 7371W        W72356  29.044  12.313   4.120
 7372W        W72357  33.119  17.237  10.667
 7373W        W72358  38.857  34.063  14.792
 7374W        W72359  36.956  23.312  12.542
 7375W        W72360  26.463  29.377   3.751
 7376W        W72361  17.154  40.708   1.960
 7377W        W72362  31.614   0.868  14.804
 7378W        W72363   5.175  30.407  13.785
 7379W        W72364  24.094  33.151   2.358
 7380W        W72365   2.412  40.406   3.147
 7381W        W72366  12.784  10.722  14.960
 7382W        W72367  29.258   0.046   2.216
 7383W        W72368  20.865   0.228  11.471
 7384W        W72369  44.324   2.359  13.949
 7385W        W72370  25.826  34.477  10.973
 7386W        W72371  31.554  16.695  14.497
 7387W        W72372  20.162  44.050  11.299
 7388W        W72373  35.290   7.225   1.470
 7389W        W72374  18.142   3.499   2.746
 7390W        W72375   4.449  20.632   3.218
 7391W        W72376  17.221  11.560   4.086
 7392W        W72377  10.359  23.715   2.910
 7393W        W72378  29.287  36.343   5.005
 7394W        W72379  35.473  32.519   4.880
 7395W        W72380  34.848   5.976  10.577
 7396W        W72381   9.700  42.043  10.593
 7397W        W72382   9.831  10.120   0.911
 7398W        W72383   8.313  19.055  13.431
 7399W        W72384  10.821  11.694   2.370
 7400W        W72385   3.266  12.213   1.718
 7401W        W72386  43.174  21.211   5.156
 7402W        W72387  35.960  12.202   3.344
 7403W        W72388  22.671   0.193   4.557
 7404W        W72389  37.912   3.654   4.716
 7405W        W72390   0.507  36.596   1.928
 7406W        W72391  44.742  24.534   4.573
 7407W        W72392   8.288  11.411   3.210
 7408W        W72393  38.473  19.063   1.566
 7409W        W72394   8.080  25.911   3.269
 7410W        W72395  28.658  32.143   4.096
 7411W        W72396   1.736  22.864   4.275
 7412W        W72397   4.429   4.522   0.308
 7413W        W72398  41.019  28.655   0.322
 7414W        W72399  17.085   9.188   0.146
 7415W        W72400   7.866  22.010   1.522
 7416W        W72401  19.320   4.759  11.220
 7417W        W72402   7.170  34.415  12.073
 7418W        W72403  39.357  39.742  10.789
 7419W        W72404  38.968  28.581   3.607
 7420W        W72405  42.434  41.808   3.863
 7421W        W72406  28.954  23.438  13.394
 7422W        W72407  32.764  29.701  12.059
 7423W        W72408   0.138  19.141  14.488
 7424W        W72409   9.821  29.244  11.073
 7425W        W72410  43.360   0.744  12.091
 7426W        W72411  10.137  23.448  11.681
 7427W        W72412  20.789  28.809   0.232
 7428W        W72413   8.941  18.989   3.335
 7429W        W72414  33.089  34.178   3.048
 7430W        W72415  16.874  15.393   2.226
 7431W        W72416  41.734  22.520   0.834
 7432W        W72417  19.223  24.810  14.486
 7433W        W72418  33.879  43.919  14.636
 7434W        W72419  43.809  11.042  12.540
 7435W        W72420  35.791   4.399  11.481
 7436W        W72421  43.546  21.579  11.277
 7437W        W72422  25.412  13.204   0.795
 7438W        W72423  22.577   1.301   4.644
 7439W        W72424  37.800  37.086  13.911
 7440W        W72425   8.491   1.685  11.558
 7441W        W72426   8.461  30.409  14.300
 7442W        W72427   4.845   2.899  14.817
 7443W        W72428  21.920   4.017  10.538
 7444W        W72429  11.254  42.714  14.444
 7445W        W72430  26.025  19.962   1.008
 7446W        W72431   6.895  19.784  11.228
 7447W        W72432  31.617  27.901  14.783
 7448W        W72433  23.651  17.442  11.121
 7449W        W72434  41.565  36.438  11.194
 7450W        W72435  19.246  12.652  10.836
 7451W        W72436  44.364  44.823   1.300
 7452W        W72437  21.509  44.008   4.139
 7453W        W72438  26.725  24.776  13.473
 7454W        W72439  33.412  30.796   5.078
 7455W        W72440  38.080  38.508  10.469
 7456W        W72441  12.636   4.795   1.111
 7457W        W72442  41.078  44.729   1.381
 7458W        W72443  40.945  44.205   0.082
 7459W        W72444  33.516  15.275   1.216
 7460W        W72445  15.308  13.567  10.835
 7461W        W72446   8.396  41.471  10.620
 7462W        W72447  19.840   9.914   2.278
 7463W        W72448  25.605  36.525   0.717
 7464W        W72449  36.437  19.494   4.942
 7465W        W72450  25.827  11.588  14.894
 7466W        W72451  14.492   5.285   5.263
 7467W        W72452  27.170  11.640   0.193
 7468W        W72453   7.149   0.716   4.722
 7469W        W72454  13.959  20.943  13.313
 7470W        W72455  26.370   8.708  12.884
 7471W        W72456  29.475  27.014  10.418
 7472W        W72457   4.199  25.646  13.094
 7473W        W72458  21.521   5.374  11.864
 7474W        W72459  41.015   7.652   1.939
 7475W        W72460  14.389  41.831  11.645
 7476W        W72461  22.092  41.063   1.770
 7477W        W72462  25.698   8.267   3.203
 7478W        W72463   7.928  43.953  14.332
 7479W        W72464  23.691  17.281   4.649
 7480W        W72465  13.716   6.580   0.271
 7481W        W72466  37.760  35.811   1.834
 7482W        W72467  33.980  20.184  13.580
 7483W        W72468  14.605   6.888   0.274
 7484W        W72469  19.793   7.314   3.870
 7485W        W72470  12.349  17.122  11.961
 7486W        W72471  14.769  18.490   0.673
 7487W        W72472  28.559  14.318   3.577
 7488W        W72473  31.063   0.685   0.427
 7489W        W72474  22.631  38.329  13.116
 7490W        W72475  37.978  25.351  11.570
 7491W        W72476  13.411   9.421  14.416
 7492W        W72477  20.536  30.789   3.862
 7493W        W72478   3.885  42.876  10.530
 7494W        W72479  27.421   7.669  10.683
 7495W        W72480  26.380  41.136   2.218
 7496W        W72481  29.565   2.236  11.559
 7497W        W72482  26.077  10.398   3.344
 7498W        W72483  27.115   1.231   2.252
 7499W        W72484   0.346  31.192  14.858
 7500W        W72485  11.245  22.633   3.686
 7501W        W72486  13.856  34.139   1.974
 7502W        W72487  23.977  40.647  11.395
 7503W        W72488  24.577  15.536  14.560
 7504W        W72489  31.233  17.523  14.965
 7505W        W72490  26.085  35.018   2.205
 7506W        W72491  11.121  19.045   1.110
 7507W        W72492  25.166  44.856  11.817
 7508W        W72493  24.162  38.997   0.472
 7509W        W72494   5.406  12.717   1.062
 7510W        W72495  13.670  17.277  10.788
 7511W        W72496  17.672  23.038   2.362
 7512W        W72497  13.660   4.954   1.324
 7513W        W72498  26.906  27.574   4.075
 7514W        W72499  27.468  21.234   1.835
 7515W        W72500  24.311  25.239   0.828
 7516W        W72501  12.144   1.051  14.907
 7517W        W72502  28.426  30.040   2.174
 7518W        W72503  26.883  20.505  13.481
 7519W        W72504  40.531  36.548   2.703
 7520W        W72505  20.767  21.569  12.967
 7521W        W72506  26.735  33.643   1.325
 7522W        W72507  16.178  41.505  10.688
 7523W        W72508  30.367  23.592  11.602
 7524W        W72509   3.665  16.263  10.811
 7525W        W72510  32.967  24.999  13.826
 7526W        W72511  13.727   7.383  13.729
 7527W        W72512  34.301  15.156  13.493
 7528W        W72513  26.916  31.484  13.390
 7529W        W72514   5.176  19.755   2.684
 7530W        W72515  35.204  44.570   3.609
 7531W        W72516  16.088  28.234   3.026
 7532W        W72517   7.867   3.229   1.818
 7533W        W72518   1.072  32.434   2.731
 7534W        W72519   0.235  32.583   0.883
 7535W        W72520  24.486  32.352   1.890
 7536W        W72521  33.616  40.543   4.117
 7537W        W72522  21.390  24.427  14.455
 7538W        W72523  37.347  32.965  11.587
 7539W        W72524  11.858  27.032   1.809
 7540W        W72525  26.489   8.386   0.058
 7541W        W72526  41.689  39.718  14.003
 7542W        W72527  39.273  29.520   2.323
 7543W        W72528  15.678   3.001   1.309
 7544W        W72529   9.447  17.664   2.632
 7545W        W72530  12.260  28.901  12.670
 7546W        W72531  30.179  38.439  11.101
 7547W        W72532  15.184  14.246   3.788
 7548W        W72533  38.368   2.358  11.402
 7549W        W72534  36.893  20.556   2.176
 7550W        W72535  28.448   8.884  10.655
 7551W        W72536  21.813  31.969   1.183
 7552W        W72537   2.428  38.816   4.203
 7553W        W72538  27.598  42.858   0.845
 7554W        W72539  42.780  31.411   4.120
 7555W        W72540  44.485  17.057   4.110
 7556W        W72541   7.302   8.697   0.802
 7557W        W72542  43.943   1.437   1.113
 7558W        W72543  44.218  15.748   2.404
 7559W        W72544  20.513  41.446  11.631
 7560W        W72545  12.096   0.299   2.331
 7561W        W72546   9.751  38.123  12.942
 7562W        W72547   0.059  37.055   5.008
 7563W        W72548  18.470  10.151   0.274
 7564W        W72549  43.417  43.515   0.847
 7565W        W72550  33.514  39.301  13.953
 7566W        W72551  15.280  24.105   0.282
 7567W        W72552  29.471  14.782  14.893
 7568W        W72553  22.087  15.085   4.141
 7569W        W72554  35.090  20.133  10.667
 7570W        W72555  24.066  17.573   3.292
 7571W        W72556   3.871   5.060  11.967
 7572W        W72557  11.299   7.296   3.448
 7573W        W72558  39.083  41.262  12.762
 7574W        W72559  16.663  27.264   2.641
 7575W        W72560  42.539  19.997   3.731
 7576W        W72561  37.882  21.373  14.948
 7577W        W72562  30.569  17.501   2.158
 7578W        W72563   3.074  10.380  12.696
 7579W        W72564   2.371   4.814   3.282
 7580W        W72565   9.600  38.888   1.275
 7581W        W72566   7.606  20.242   3.277
 7582W        W72567  17.617  22.115   2.781
 7583W        W72568  29.487   3.433   4.147
 7584W        W72569   6.184  28.911  12.896
 7585W        W72570  39.239  27.557   1.757
 7586W        W72571  17.926  16.690   4.513
 7587W        W72572   0.985  28.854   2.422
 7588W        W72573  34.834  28.227  11.251
 7589W        W72574  19.530  35.535   1.299
 7590W        W72575  34.827  10.765  13.976
 7591W        W72576  43.198   4.641   1.934
 7592W        W72577  29.768  44.307   1.856
 7593W        W72578  10.127  39.016   1.037
 7594W        W72579   7.846  26.336  10.718
 7595W        W72580  25.015  35.919   2.821
 7596W        W72581  43.213  40.012   4.559
 7597W        W72582  13.702  30.643  13.060
 7598W        W72583   7.581  27.319   0.237
 7599W        W72584  33.432  31.689   0.399
 7600W        W72585   3.597   7.152  12.709
 7601W        W72586  44.059  28.523   4.285
 7602W        W72587   3.206  29.381   2.606
 7603W        W72588  13.805  15.360  12.068
 7604W        W72589   6.610  12.923   3.959
 7605W        W72590  16.281  10.935  12.589
 7606W        W72591  10.771  18.169   3.920
 7607W        W72592  12.015  10.165  13.069
 7608W        W72593  18.738  26.981  11.007
 7609W        W72594  16.033   4.217   3.279
 7610W        W72595  28.058  14.041  10.632
 7611W        W72596  23.586  36.969   0.652
 7612W        W72597  11.328  30.570   3.222
 7613W        W72598  22.184   2.538   3.342
 7614W        W72599  13.567  25.038  13.342
 7615W        W72600  28.902  32.087  12.866
 7616W        W72601  39.028  38.949  12.779
 7617W        W72602   8.293  44.842  14.309
 7618W        W72603  38.132   5.146   4.442
 7619W        W72604  25.021  34.148   4.500
 7620W        W72605   0.093  19.761   1.791
 7621W        W72606  19.362  10.641   1.353
 7622W        W72607  31.891  15.110  11.927
 7623W        W72608  24.449  13.621  14.252
 7624W        W72609  33.618  17.173  10.791
 7625W        W72610  42.662  30.023   0.870
 7626W        W72611  26.419  23.234   3.807
 7627W        W72612  27.199  12.885  13.566
 7628W        W72613  19.649  12.076   1.248
 7629W        W72614  39.869   8.967   0.964
 7630W        W72615  18.575  39.326   4.275
 7631W        W72616  25.647   6.962  13.939
 7632W        W72617  16.561   0.003  13.289
 7633W        W72618  11.226  18.052   0.792
 7634W        W72619  16.940   9.834  11.379
 7635W        W72620  25.978  29.913  10.316
 7636W        W72621  35.840   4.778  14.132
 7637W        W72622  40.435  33.037  13.574
 7638W        W72623  22.818  12.656   3.096
 7639W        W72624  38.784  23.126  12.113
 7640W        W72625  23.369  28.417  13.571
 7641W        W72626  19.924  35.040   1.746
 7642W        W72627  12.316  33.600   0.903
 7643W        W72628   0.076  24.223  13.836
 7644W        W72629   3.240  16.136   0.501
 7645W        W72630  30.927   7.512   1.916
 7646W        W72631  40.941   9.398   3.541
 7647W        W72632  21.101  36.559   2.889
 7648W        W72633  35.788  20.774   3.830
 7649W        W72634  30.015  18.816   0.854
 7650W        W72635   2.272  34.857  13.532
 7651W        W72636  43.359   2.965   1.443
 7652W        W72637  32.615  35.124   3.388
 7653W        W72638   5.102  13.311  13.929
 7654W        W72639  29.464  40.094  14.417
 7655W        W72640  16.786  21.732   2.412
 7656W        W72641  13.723  25.719  11.753
 7657W        W72642  40.241   3.612   1.873
 7658W        W72643  43.872   1.257  12.010
 7659W        W72644  29.444  34.489   2.485
 7660W        W72645  32.519  19.031  14.317
 7661W        W72646  21.670   2.753   2.337
 7662W        W72647  33.585  31.843   4.153
 7663W        W72648  27.647  17.141  13.042
 7664W        W72649  43.916   3.033  11.053
 7665W        W72650  14.487  38.032   4.496
 7666W        W72651  31.025  10.176   3.090
 7667W        W72652   1.877  20.765  12.887
 7668W        W72653  18.062  42.455  11.742
 7669W        W72654  38.026  40.544   4.087
 7670W        W72655  29.682  23.816   4.117
 7671W        W72656  35.340  27.807   0.876
 7672W        W72657  23.164  35.176   1.718
 7673W        W72658  24.134  29.066  11.169
 7674W        W72659  39.455  42.885   0.092
 7675W        W72660  43.268  18.462   2.834
 7676W        W72661  17.105  13.533  14.149
 7677W        W72662  16.295   3.762  13.796
 7678W        W72663  41.918  24.763   2.928
 7679W        W72664   6.677  34.905  12.834
 7680W        W72665  32.907  44.375  10.703
 7681W        W72666  36.489   2.657  11.544
 7682W        W72667  36.981   3.713  11.197
 7683W        W72668  35.871   1.912   3.238
 7684W        W72669  39.723   6.360   2.862
 7685W        W72670  18.194   0.425  13.774
 7686W        W72671  10.165  25.889  14.560
 7687W        W72672  28.686  17.634  11.358
 7688W        W72673  29.096   8.331   3.885
 7689W        W72674  27.628  32.680   3.695
 7690W        W72675  32.851  18.396  12.006
 7691W        W72676  43.801  34.564   2.853
 7692W        W72677  21.757  43.552   2.393
 7693W        W72678  18.885  23.684  10.448
 7694W        W72679  40.429  14.836  11.531
 7695W        W72680  18.589  44.577   2.100
 7696W        W72681  39.743   9.133   3.244
 7697W        W72682  33.895  21.631  14.995
 7698W        W72683  24.252   5.148   1.987
 7699W        W72684  44.398   1.384   3.021
 7700W        W72685  39.068   2.289  13.009
 7701W        W72686  13.247  44.436   0.856
 7702W        W72687  41.788  22.686  11.532
 7703W        W72688  39.961  16.323   0.242
 7704W        W72689  29.932  43.918  10.873
 7705W        W72690   3.689  21.715   0.456
 7706W        W72691  27.097   5.157   0.667
 7707W        W72692  22.692  29.688  13.545
 7708W        W72693  21.096  29.217   1.517
 7709W        W72694  37.345  40.109   1.204
 7710W        W72695  16.737  22.432  14.781
 7711W        W72696   9.474  28.632   0.653
 7712W        W72697  36.585  33.617   4.767
 7713W        W72698  11.643  12.138   1.862
 7714W        W72699  35.943   5.457   2.324
 7715W        W72700  39.895  25.668   2.782
 7716W        W72701  14.481  39.714  11.083
 7717W        W72702  11.429   1.937  13.154
 7718W        W72703  10.549  22.964  13.568
 7719W        W72704   4.056  44.020  12.983
 7720W        W72705   9.331  21.803   0.470
 7721W        W72706  19.354  33.361  14.008
 7722W        W72707  20.005  23.545   0.258
 7723W        W72708  16.538  42.484   3.827
 7724W        W72709   5.200  21.481   0.461
 7725W        W72710   3.195  33.570   2.823
 7726W        W72711  36.125  32.563  13.896
 7727W        W72712   0.693  13.192   0.545
 7728W        W72713  30.978  12.436   0.947
 7729W        W72714   0.311  18.592   2.803
 7730W        W72715   2.995  24.119  11.241
 7731W        W72716  44.315  34.185  14.307
 7732W        W72717  38.597  25.025  12.136
 7733W        W72718  44.306  31.801  14.785
 7734W        W72719   6.771  12.295  12.212
 7735W        W72720  42.459  25.866   0.835
 7736W        W72721  38.777  17.676   1.727
 7737W        W72722   5.541  17.125   1.543
 7738W        W72723  35.139  38.507  14.485
 7739W        W72724   9.196  14.227  14.902
 7740W        W72725  42.507  29.534   2.947
 7741W        W72726   4.807  39.679   5.000
 7742W        W72727  18.909  15.100  11.920
 7743W        W72728  26.423  35.134   3.008
 7744W        W72729  22.248  28.168  12.707
 7745W        W72730  43.958   9.416  14.975
 7746W        W72731  11.668  16.809  14.060
 7747W        W72732  34.861  27.844  13.997
 7748W        W72733  42.592  26.429  12.541
 7749W        W72734  31.438  23.103  12.539
 7750W        W72735  27.198  29.185  12.374
 7751W        W72736  20.956  36.024   2.789
 7752W        W72737  35.101  16.564  14.320
 7753W        W72738   2.283  41.769   3.922
 7754W        W72739  44.012  10.435   0.080
 7755W        W72740  32.352  16.141   2.814
 7756W        W72741  43.493  32.909   3.498
 7757W        W72742  26.894  25.736   3.286
 7758W        W72743  40.977  10.671   1.751
 7759W        W72744   4.693  12.680   0.306
 7760W        W72745  41.576  42.190   3.547
 7761W        W72746   8.736  12.294  11.880
 7762W        W72747  41.122  20.952   3.679
 7763W        W72748   9.792  20.449  12.679
 7764W        W72749  44.154   0.144   5.062
 7765W        W72750   3.315   1.874   2.328
 7766W        W72751   7.672  28.602  14.392
 7767W        W72752  26.109  11.626   1.234
 7768W        W72753  11.995   4.259   3.160
 7769W        W72754  41.986  22.102  13.851
 7770W        W72755  41.411  29.478  13.409
 7771W        W72756   5.743   3.835   2.699
 7772W        W72757  11.897  44.009  10.658
 7773W        W72758  19.647   6.702   1.322
 7774W        W72759  27.207  22.703   2.124
 7775W        W72760  39.993  17.919  11.991
 7776W        W72761   2.335  26.806   1.826
 7777W        W72762  28.135  22.636  11.133
 7778W        W72763  35.527  33.349  12.976
 7779W        W72764  25.930  44.463  14.509
 7780W        W72765  11.432  43.567   3.207
 7781W        W72766  14.794  29.135   1.209
 7782W        W72767  38.638  43.926  11.391
 7783W        W72768  22.017  28.856  10.722
 7784W        W72769   4.686  16.255  13.009
 7785W        W72770  12.357  25.919   4.590
 7786W        W72771  22.381  29.390   3.769
 7787W        W72772  37.789  21.956  14.313
 7788W        W72773  29.913   8.214   3.281
 7789W        W72774  18.614  25.104   3.123
 7790W        W72775  36.023  11.628   2.612
 7791W        W72776  42.350  24.199  12.133
 7792W        W72777  23.103  29.110  10.960
 7793W        W72778  10.687  33.647  11.723
 7794W        W72779  23.037  38.538   3.782
 7795W        W72780  12.192  42.112   4.038
 7796W        W72781  21.035   1.076  14.956
 7797W        W72782  14.653  36.831   0.074
 7798W        W72783  17.071  31.830   1.423
 7799W        W72784  19.937   5.288   2.541
 7800W        W72785  39.938  23.709  12.424
 7801W        W72786  29.062  42.332  10.763
 7802W        W72787  28.017  22.389  12.114
 7803W        W72788   3.474  35.042   3.174
 7804W        W72789  36.360  44.535   1.370
 7805W        W72790  13.801  36.577   2.003
 7806W        W72791   7.871   1.167   1.380
 7807W        W72792  22.134  38.134   4.105
 7808W        W72793  27.405  36.232   2.167
 7809W        W72794  32.157   8.841   3.645
 7810W        W72795  14.693  41.303  12.429
 7811W        W72796  15.790  26.626  13.003
 7812W        W72797  28.215  23.001  11.523
 7813W        W72798  24.936   1.769  12.572
 7814W        W72799  21.506  11.989   3.342
 7815W        W72800  22.855  27.081  13.139
 7816W        W72801   3.288  12.114  11.258
 7817W        W72802  34.853  25.733   2.738
 7818W        W72803  16.352  30.656  14.345
 7819W        W72804  27.234  32.575   2.228
 7820W        W72805  19.641  17.058  12.594
 7821W        W72806  38.833  16.098  13.249
 7822W        W72807  43.281  26.600   0.336
 7823W        W72808  32.317  20.296  12.122
 7824W        W72809  13.621  13.083   2.490
 7825W        W72810   7.735  34.920   2.785
 7826W        W72811   8.846  37.084  14.585
 7827W        W72812  37.404  24.590   3.623
 7828W        W72813  35.190  18.706   2.058
 7829W        W72814  37.630   2.523   2.641
 7830W        W72815   2.950  37.375   2.112
 7831W        W72816  17.987  38.699  11.685
 7832W        W72817  38.610  14.564  14.468
 7833W        W72818  29.856  22.182  11.533
 7834W        W72819  33.792   9.381  14.456
 7835W        W72820  23.565  25.018   3.274
 7836W        W72821  24.783  35.505   3.133
 7837W        W72822   4.784  24.912   1.993
 7838W        W72823  36.558  20.063  11.633
 7839W        W72824  40.996  17.841  12.888
 7840W        W72825  44.438   5.764  12.848
 7841W        W72826  42.986   6.386   0.078
 7842W        W72827  18.988   6.400   0.848
 7843W        W72828  23.235  10.468  12.964
 7844W        W72829  19.314  11.289   3.186
 7845W        W72830   6.136  12.678   1.785
 7846W        W72831  11.884  30.934   2.948
 7847W        W72832  17.649   0.867   4.340
 7848W        W72833   4.273  40.528  12.478
 7849W        W72834  28.485  34.552   3.704
 7850W        W72835  35.037  21.949   3.681
 7851W        W72836  20.037  12.018  11.630
 7852W        W72837  32.047   8.437  12.078
 7853W        W72838  17.263  40.386   0.273
 7854W        W72839  12.831  10.346   1.010
 7855W        W72840   7.001  41.867   2.687
 7856W        W72841   8.792  11.166   2.869
 7857W        W72842  32.413  24.079   3.846
 7858W        W72843  16.593  42.152  14.247
 7859W        W72844  36.320  36.571   4.109
 7860W        W72845  21.988   1.924   1.322
 7861W        W72846  36.509  33.593   4.241
 7862W        W72847  41.853  28.482   9.692
 7863W        W72848  17.591  39.462  12.945
 7864W        W72849  39.217   2.507  12.202
 7865W        W72850  37.769  31.640   0.513
 7866W        W72851   0.064  20.116   3.724
 7867W        W72852   8.312   9.751   5.104
 7868W        W72853  30.049  36.518   0.531
 7869W        W72854  30.888  35.463   2.874
 7870W        W72855  17.769  17.667   0.243
 7871W        W72856  34.052  41.339   4.398
 7872W        W72857  15.518  14.102   4.196
 7873W        W72858  42.535   2.312  12.433
 7874W        W72859   6.809  14.684   2.400
 7875W        W72860   4.140  18.787  12.171
 7876W        W72861  31.640  40.949   0.420
 7877W        W72862  37.151  25.282   2.929
 7878W        W72863   6.369  36.950  14.431
 7879W        W72864  32.672   6.896  12.505
 7880W        W72865  43.956  43.902   2.451
 7881W        W72866  38.629  24.762   2.619
 7882W        W72867   3.465  43.060   0.437
 7883W        W72868  24.013  28.256  12.077
 7884W        W72869  44.015  31.407  14.349
 7885W        W72870  24.523  44.431  12.891
 7886W        W72871   1.505  20.050   3.922
 7887W        W72872  16.096  31.268  12.035
 7888W        W72873  21.895  44.461  14.012
 7889W        W72874  31.877  21.161   0.713
 7890W        W72875  38.799  10.623   0.943
 7891W        W72876   1.477   1.496   2.316
 7892W        W72877   9.386  10.885  13.928
 7893W        W72878  15.674  13.584   0.747
 7894W        W72879  39.361  23.764  14.244
 7895W        W72880  10.258   3.070   0.372
 7896W        W72881  31.198  34.077   3.646
 7897W        W72882  33.030  37.498   2.215
 7898W        W72883  35.864  35.398  11.503
 7899W        W72884   4.413  17.920  14.302
 7900W        W72885  44.548  29.158   0.184
 7901W        W72886  38.932  32.000   1.017
 7902W        W72887  28.025  30.454   3.331
 7903W        W72888   7.732  37.987   0.862
 7904W        W72889  30.850  42.735   1.889
 7905W        W72890  26.748  25.147  11.490
 7906W        W72891   6.525   0.832   2.694
 7907W        W72892   0.757   6.983  13.103
 7908W        W72893  11.775  44.281   0.776
 7909W        W72894   2.234  44.199  11.186
 7910W        W72895  36.066  30.623  14.379
 7911W        W72896  24.142  37.328   4.617
 7912W        W72897  27.169  36.351   4.352
 7913W        W72898  42.494   9.601   4.867
 7914W        W72899  37.875  17.770  12.387
 7915W        W72900  15.145  38.069  11.507
 7916W        W72901  32.738  33.794   2.902
 7917W        W72902  33.862  31.921   2.389
 7918W        W72903  22.640  32.760   1.619
 7919W        W72904  16.680  24.125  12.376
 7920W        W72905  34.832   3.965   4.433
 7921W        W72906  41.046  30.113   0.870
 7922W        W72907   5.468   7.907   0.012
 7923W        W72908   2.382  16.518  14.142
 7924W        W72909   8.806   1.614  13.394
 7925W        W72910  26.368  17.925   0.639
 7926W        W72911  35.640  28.416  14.437
 7927W        W72912  24.931  15.358   3.127
 7928W        W72913  38.633  24.517  14.442
 7929W        W72914  25.028   5.842  11.368
 7930W        W72915  33.957  12.832  14.353
 7931W        W72916  19.965  25.520   4.401
 7932W        W72917  29.033  31.455   4.173
 7933W        W72918  35.032   6.389   1.265
 7934W        W72919  27.187  41.496  10.770
 7935W        W72920   3.364  44.879   4.624
 7936W        W72921  30.089   0.865  11.536
 7937W        W72922  13.833  22.000   0.537
 7938W        W72923  39.767   0.173   4.469
 7939W        W72924  22.098  28.512  11.604
 7940W        W72925  39.605  19.620   1.787
 7941W        W72926   8.385  30.626   4.655
 7942W        W72927  32.363  24.569   3.112
 7943W        W72928   0.635  18.673   3.258
 7944W        W72929  11.112  25.069   3.778
 7945W        W72930   9.272  18.734   0.473
 7946W        W72931  37.883  17.298   1.432
 7947W        W72932   8.805  14.028  12.819
 7948W        W72933   1.829  42.919   3.272
 7949W        W72934  38.419  41.960   2.771
 7950W        W72935  27.805   7.544   4.661
 7951W        W72936   1.814  42.310   0.514
 7952W        W72937  23.010  25.636   3.751
 7953W        W72938   8.360  22.147   4.284
 7954W        W72939  43.244   5.705  13.841
 7955W        W72940   8.940  20.513  10.624
 7956W        W72941  26.822  25.194  12.477
 7957W        W72942   5.147   6.380   5.068
 7958W        W72943  33.509   5.771   2.761
 7959W        W72944  21.865  18.172   1.866
 7960W        W72945  17.447  39.380   1.719
 7961W        W72946  35.193   8.975  10.826
 7962W        W72947   5.094   4.268   2.242
 7963W        W72948  24.663  34.016  13.585
 7964W        W72949   4.257  32.960  10.905
 7965W        W72950   1.865  21.651  14.232
 7966W        W72951   0.969   3.582   4.912
 7967W        W72952  18.343   4.688  11.580
 7968W        W72953  22.562  37.936   4.884
 7969W        W72954  13.777   9.879   0.842
 7970W        W72955  23.971   0.951  12.131
 7971W        W72956  16.558  38.457   1.336
 7972W        W72957  32.284  37.979  14.042
 7973W        W72958   3.365   0.743   5.200
 7974W        W72959  44.646  41.281  14.287
 7975W        W72960   3.538  44.638   4.109
 7976W        W72961   5.737  12.869   4.317
 7977W        W72962   2.687  37.524  14.037
 7978W        W72963  33.244  35.149  12.591
 7979W        W72964   3.386  35.692  11.603
 7980W        W72965  13.276   4.732   1.723
 7981W        W72966  21.806  16.687   3.100
 7982W        W72967  24.690  27.375   2.754
 7983W        W72968  23.154  41.747   1.388
 7984W        W72969   2.306  26.895   0.315
 7985W        W72970  36.789  12.895   2.461
 7986W        W72971  19.051  40.803  11.026
 7987W        W72972  11.835  42.485  14.333
 7988W        W72973  22.277  11.354  13.078
 7989W        W72974  28.667  33.087   1.714
 7990W        W72975   6.820  12.085  13.499
 7991W        W72976  21.270  19.788   3.106
 7992W        W72977  38.465  21.946   3.243
 7993W        W72978  29.075  37.924   2.169
 7994W        W72979  28.995  29.826  10.692
 7995W        W72980  22.990  41.487   0.922
 7996W        W72981  28.192  41.941   1.904
 7997W        W72982  18.301   0.026   0.890
 7998W        W72983  18.171  40.865  10.718
 7999W        W72984  42.057  38.387  13.857
 8000W        W72985  25.433  35.716  11.986
 8001W        W72986  33.887   2.255  14.316
 8002W        W72987   9.467   6.765  12.460
 8003W        W72988   1.819  35.613   4.131
 8004W        W72989  36.486  32.146   4.532
 8005W        W72990   6.929  14.102  12.642
 8006W        W72991  17.687  40.856  10.907
 8007W        W72992  30.009  24.605   3.170
 8008W        W72993   6.543   9.220  12.614
 8009W        W72994   0.894  12.473  11.582
 8010W        W72995  43.519  37.516  12.035
 8011W        W72996   4.632  25.407   3.427
 8012W        W72997  37.641  41.267  10.644
 8013W        W72998  26.146  17.147  14.052
 8014W        W72999   2.703  29.641   1.291
 8015W        W73000  21.141  21.644   3.145
 8016W        W73001  12.567   9.765  13.432
 8017W        W73002  18.271  15.667  13.003
 8018W        W73003  22.536   8.346   3.903
 8019W        W73004  25.550  17.360   2.769
 8020W        W73005   1.710   1.776  11.915
 8021W        W73006  36.557  15.207   1.180
 8022W        W73007  35.185   5.762  13.119
 8023W        W73008  11.098  10.563  10.901
 8024W        W73009  11.214   5.361   5.366
 8025W        W73010  14.049  22.484   2.161
 8026W        W73011  30.582  31.912   4.140
 8027W        W73012   7.426  25.576  10.526
 8028W        W73013  24.865  36.489  11.722
 8029W        W73014  25.708  43.916   3.437
 8030W        W73015  34.636  22.251  14.437
 8031W        W73016  35.284  17.092   4.577
 8032W        W73017  13.716  32.981   4.029
 8033W        W73018  18.050  33.619   3.888
 8034W        W73019   2.634  44.525  11.213
 8035W        W73020  27.893  38.411   0.688
 8036W        W73021  20.261  39.600  11.909
 8037W        W73022  23.613   5.790   2.152
 8038W        W73023  31.477  17.279   4.875
 8039W        W73024  40.618  40.863  12.100
 8040W        W73025  32.620  29.630  14.215
 8041W        W73026  26.025  10.326   3.841
 8042W        W73027  11.651  18.581  13.549
 8043W        W73028  42.871   9.355  13.494
 8044W        W73029  23.245  22.626  11.610
 8045W        W73030  44.872  33.489  11.509
 8046W        W73031  31.239  41.745   2.657
 8047W        W73032  37.215  18.257   1.180
 8048W        W73033  13.045  41.627   4.171
 8049W        W73034  24.212  44.467  12.405
 8050W        W73035  22.674  40.074   2.878
 8051W        W73036   0.378  20.926   0.854
 8052W        W73037  34.504  30.429  14.468
 8053W        W73038  17.557  13.871  10.577
 8054W        W73039   8.827   4.808  10.448
 8055W        W73040  14.722  38.071   1.338
 8056W        W73041  19.131   9.195   2.185
 8057W        W73042  44.860  35.372   0.624
 8058W        W73043  13.194   5.875  11.620
 8059W        W73044  12.251  44.540  14.831
 8060W        W73045   7.337   8.043  10.323
 8061W        W73046  38.860  19.690  10.704
 8062W        W73047  25.199   9.384  11.560
 8063W        W73048  32.096  21.964   1.619
 8064W        W73049  13.279  21.732   4.731
 8065W        W73050  28.049  20.131  13.279
 8066W        W73051  16.222  36.658   1.001
 8067W        W73052  32.150  34.369  13.539
 8068W        W73053  23.714   5.360  13.051
 8069W        W73054   0.548  32.145  14.351
 8070W        W73055  28.443  32.577   0.804
 8071W        W73056  42.666  40.278  11.091
 8072W        W73057  19.314   0.677  11.955
 8073W        W73058  34.831  20.268  13.483
 8074W        W73059  20.811  20.246   0.819
 8075W        W73060  35.234  23.617   3.616
 8076W        W73061  30.495  40.489  13.576
 8077W        W73062  41.564  28.418   4.713
 8078W        W73063  10.684   2.552  12.130
 8079W        W73064  37.681   4.813  12.512
 8080W        W73065  14.116  41.049  11.181
 8081W        W73066  12.670  14.936   4.230
 8082W        W73067  41.463  11.336  14.292
 8083W        W73068   5.265  32.000  14.333
 8084W        W73069  33.691  14.544   0.818
 8085W        W73070  15.473   7.942  14.044
 8086W        W73071  41.234   3.362   0.423
 8087W        W73072  25.109  41.324  10.886
 8088W        W73073  20.044  20.977  12.445
 8089W        W73074  22.639  28.942   4.062
 8090W        W73075  15.446  27.084   2.136
 8091W        W73076  27.670  37.956  13.868
 8092W        W73077  17.538  40.481   0.706
 8093W        W73078  36.417  21.742   3.181
 8094W        W73079   3.451  26.058   4.669
 8095W        W73080  20.040  13.198   4.099
 8096W        W73081  27.045  17.839   2.963
 8097W        W73082  40.272  19.322  14.045
 8098W        W73083  28.228  36.376   3.634
 8099W        W73084  13.630   2.279   3.193
 8100W        W73085  19.804  37.926  12.047
 8101W        W73086  26.178  31.885   3.279
 8102W        W73087  12.066  34.433   1.431
 8103W        W73088   3.936  33.061  14.013
 8104W        W73089  11.662  22.691  14.405
 8105W        W73090  27.085   9.118  11.597
 8106W        W73091  32.845  16.875  13.888
 8107W        W73092  29.199   3.257   4.815
 8108W        W73093   7.712  32.134  10.967
 8109W        W73094  15.409  42.314  13.497
 8110W        W73095  34.435   8.860   2.235
 8111W        W73096  10.344  32.898  11.537
 8112W        W73097  10.448  28.192  13.587
 8113W        W73098  35.984  17.666   1.656
 8114W        W73099  26.143  34.502   3.244
 8115W        W73100  32.620  21.169  11.901
 8116W        W73101  14.667  42.886  13.962
 8117W        W73102  12.595  11.193   0.780
 8118W        W73103  34.611  31.862   0.867
 8119W        W73104  30.195  23.505  14.068
 8120W        W73105  24.951  33.448   2.427
 8121W        W73106  37.068  44.531   2.948
 8122W        W73107  31.608  39.785   2.315
 8123W        W73108   8.204  25.165  14.850
 8124W        W73109  17.200  17.033  12.735
 8125W        W73110  15.069   9.202   4.632
 8126W        W73111  14.664  35.581   2.294
 8127W        W73112  13.248  17.704   4.641
 8128W        W73113  21.809  37.513  10.751
 8129W        W73114  12.225   8.067  12.871
 8130W        W73115  10.828   6.670   1.399
 8131W        W73116  15.562   5.669  13.969
 8132W        W73117   5.131  15.491   2.282
 8133W        W73118  13.186  15.362  13.548
 8134W        W73119  22.339  11.760  11.125
 8135W        W73120  19.246  21.038   3.163
 8136W        W73121  42.535  21.580  11.231
 8137W        W73122  14.183  36.498  13.363
 8138W        W73123  27.228  12.415   1.278
 8139W        W73124  22.932  10.118   4.162
 8140W        W73125   8.889  42.545   4.237
 8141W        W73126  18.701   4.938  12.918
 8142W        W73127   7.452   0.522  13.377
 8143W        W73128  14.289  20.200   4.044
 8144W        W73129   5.177  23.147   0.172
 8145W        W73130  23.715  39.800  13.258
 8146W        W73131  39.010  38.340   1.736
 8147W        W73132  29.434  23.910   1.284
 8148W        W73133  19.191  10.213  11.534
 8149W        W73134   3.409  15.486  12.178
 8150W        W73135   6.196  26.443   0.571
 8151W        W73136  27.013  12.640   1.799
 8152W        W73137  10.883  44.024   1.720
 8153W        W73138  20.568  36.831   2.977
 8154W        W73139  28.597  10.593  12.352
 8155W        W73140  13.348  14.861  13.525
 8156W        W73141   8.744  13.977  14.010
 8157W        W73142   9.924  17.818   0.716
 8158W        W73143   5.137   6.436   1.230
 8159W        W73144  19.646  23.697   1.442
 8160W        W73145  10.979  21.743  12.538
 8161W        W73146  42.183  13.745  13.919
 8162W        W73147  31.137  27.333   0.240
 8163W        W73148   6.845  12.900   3.153
 8164W        W73149  11.859  32.824  10.715
 8165W        W73150  37.940  10.141  14.853
 8166W        W73151   4.016  29.606   3.270
 8167W        W73152  22.188  13.314  10.738
 8168W        W73153  43.860  13.922   2.906
 8169W        W73154  35.424  26.647  12.949
 8170W        W73155  23.569  34.141  11.201
 8171W        W73156  16.988  11.482   1.891
 8172W        W73157  28.356  39.736   4.551
 8173W        W73158  43.897  33.421   1.973
 8174W        W73159  44.520   3.851  13.661
 8175W        W73160  14.348   3.259   0.764
 8176W        W73161   1.110  31.935  12.878
 8177W        W73162  44.019  38.016   4.065
 8178W        W73163   2.481  25.496  12.400
 8179W        W73164   1.494  36.406   0.987
 8180W        W73165  14.461  23.055  13.019
 8181W        W73166  24.011  40.790  11.905
 8182W        W73167  41.246  43.509   3.991
 8183W        W73168  11.951  34.109  14.296
 8184W        W73169  30.996  33.797  14.234
 8185W        W73170   1.960   9.773   0.221
 8186W        W73171   8.766  35.301  10.382
 8187W        W73172   4.742  14.237   2.559
 8188W        W73173  26.969  34.920   0.424
 8189W        W73174   5.850  39.773   4.176
 8190W        W73175   6.471  24.891   1.236
 8191W        W73176   2.398  35.002   4.518
 8192W        W73177   4.991  41.887  14.377
 8193W        W73178  31.121  35.015  10.585
 8194W        W73179  16.189  44.937   4.643
 8195W        W73180  32.372  13.249   1.838
 8196W        W73181  37.934  33.196   4.894
 8197W        W73182  37.617  27.835  11.252
 8198W        W73183  24.895  29.264   0.476
 8199W        W73184   4.226  28.597  13.939
 8200W        W73185  15.655  30.477   3.321
 8201W        W73186  41.726  19.726   2.309
 8202W        W73187   4.346  16.342  10.996
 8203W        W73188  28.567   0.349  13.846
 8204W        W73189   6.002  15.081  14.924
 8205W        W73190  41.935  24.955   1.586
 8206W        W73191  27.151  21.312   2.837
 8207W        W73192  20.619  41.842  14.944
 8208W        W73193  32.574   9.595   1.677
 8209W        W73194  38.535   9.639   4.668
 8210W        W73195   4.135  39.404   0.554
 8211W        W73196  16.728  24.589   4.872
 8212W        W73197  28.649   5.357  14.321
 8213W        W73198  23.768  42.802   1.704
 8214W        W73199  32.365  30.119  13.791
 8215W        W73200  14.083  18.628   0.047
 8216W        W73201  26.088  12.654   4.084
 8217W        W73202  34.817  21.128  12.422
 8218W        W73203  17.683  36.241   1.936
 8219W        W73204   5.540  25.022   1.938
 8220W        W73205  21.597   7.556   3.127
 8221W        W73206  12.581   1.234  13.507
 8222W        W73207  40.837  13.227  10.895
 8223W        W73208  17.209  19.637   1.412
 8224W        W73209  14.820   9.229   3.240
 8225W        W73210   3.751  12.544   4.100
 8226W        W73211   3.797  31.562  10.640
 8227W        W73212  19.313  25.278  13.468
 8228W        W73213  26.998  38.356   4.768
 8229W        W73214   8.326   7.306  12.909
 8230W        W73215  25.226   6.227  14.340
 8231W        W73216  19.856  28.410  13.072
 8232W        W73217  40.104  39.380  12.943
 8233W        W73218   9.182  38.006   0.308
 8234W        W73219  35.418  17.035  11.145
 8235W        W73220  15.567   9.273   9.951
 8236W        W73221   5.454  27.902   1.627
 8237W        W73222  40.780  34.359  14.110
 8238W        W73223  37.409  26.697  12.056
 8239W        W73224  17.169  16.637   2.614
 8240W        W73225  37.397   5.717   3.664
 8241W        W73226  10.768  34.545   2.702
 8242W        W73227  29.104  18.339  12.023
 8243W        W73228  30.612  22.518   3.685
 8244W        W73229  27.645  25.259   1.714
 8245W        W73230  20.615  41.376   3.302
 8246W        W73231  16.517  14.322  12.108
 8247W        W73232  39.884  24.121   0.740
 8248W        W73233  15.945  23.404   1.960
 8249W        W73234  38.250   2.434  10.913
 8250W        W73235  15.350  11.272   1.391
 8251W        W73236  21.693   7.316   0.240
 8252W        W73237  24.123   9.005  11.191
 8253W        W73238  26.451  33.640  14.477
 8254W        W73239  34.119  28.058   2.316
 8255W        W73240  40.838   2.949   1.378
 8256W        W73241  44.256  44.382   2.200
 8257W        W73242   7.675  33.041  14.259
 8258W        W73243  34.276  38.990  10.956
 8259W        W73244  12.834  24.580  12.663
 8260W        W73245  38.740  28.639  12.480
 8261W        W73246  32.669  22.106  11.683
 8262W        W73247  10.125   6.299  12.847
 8263W        W73248  26.757  25.160  12.990
 8264W        W73249  23.504  30.044  12.809
 8265W        W73250  19.636  16.016  11.593
 8266W        W73251  16.275   7.960  14.254
 8267W        W73252  35.960  23.168   3.155
 8268W        W73253  10.777   1.541   2.143
 8269W        W73254  41.886   1.191  12.644
 8270W        W73255  18.467   3.680   3.142
 8271W        W73256  38.581  21.480   1.265
 8272W        W73257   2.316   1.475   3.356
 8273W        W73258   9.435  21.314   4.077
 8274W        W73259  27.052  20.503   1.426
 8275W        W73260  11.914  44.044   3.703
 8276W        W73261  29.345  16.628   4.451
 8277W        W73262  13.078   4.383  11.141
 8278W        W73263   8.469  19.053  11.077
 8279W        W73264   4.964  31.569  13.028
 8280W        W73265  21.948  41.325   3.283
 8281W        W73266  41.007  43.755   4.942
 8282W        W73267  33.957  38.404   2.262
 8283W        W73268  35.450  29.362  11.873
 8284W        W73269  25.145  16.513  11.054
 8285W        W73270  38.835  37.652  10.798
 8286W        W73271  39.777  18.331   2.397
 8287W        W73272  40.582  22.159  13.918
 8288W        W73273   2.933   3.037  11.608
 8289W        W73274  38.318  11.210  14.903
 8290W        W73275  22.721  36.488   1.900
 8291W        W73276  11.157  44.744  12.448
 8292W        W73277  44.327  33.623   2.181
 8293W        W73278  37.161  11.399  10.265
 8294W        W73279   6.549  44.718   2.196
 8295W        W73280  16.695   9.695   2.831
 8296W        W73281  38.124  16.838   1.386
 8297W        W73282  36.908   9.721  11.932
 8298W        W73283  37.044  17.024   4.233
 8299W        W73284  32.057  32.401   1.351
 8300W        W73285  11.228  21.249   3.123
 8301W        W73286   9.222  26.201  11.599
 8302W        W73287   8.721   8.966  11.451
 8303W        W73288   3.319  19.689   0.834
 8304W        W73289  29.938  33.156   2.156
 8305W        W73290  13.161  22.348  14.777
 8306W        W73291  39.843  10.232  11.128
 8307W        W73292  26.597  10.692   0.799
 8308W        W73293   2.504   3.868  13.488
 8309W        W73294  32.178   3.842  11.830
 8310W        W73295  19.639  26.538  14.468
 8311W        W73296  19.048  16.611  13.299
 8312W        W73297   6.853  29.648   1.390
 8313W        W73298   0.442  21.451   4.267
 8314W        W73299  22.084   7.503  10.717
 8315W        W73300   7.785  39.647  13.983
 8316W        W73301   1.210  17.369   0.854
 8317W        W73302  26.328  17.227   3.431
 8318W        W73303   6.219   5.801  12.987
 8319W        W73304   6.444   3.941   3.215
 8320W        W73305  39.371  13.018  13.950
 8321W        W73306  39.613   3.468  11.131
 8322W        W73307  28.056  30.316   1.591
 8323W        W73308  12.122  35.567  10.987
 8324W        W73309   5.268  13.764   3.159
 8325W        W73310  41.090  28.495  12.932
 8326W        W73311  17.795  26.444   1.190
 8327W        W73312  15.097  19.733  14.263
 8328W        W73313   6.869  18.128   4.562
 8329W        W73314  37.050  42.518   3.726
 8330W        W73315   9.486  16.580   0.245
 8331W        W73316  27.041  30.139  12.595
 8332W        W73317  10.927  37.094  13.417
 8333W        W73318  13.200  32.951   4.238
 8334W        W73319  10.188  20.166  14.285
 8335W        W73320  13.244   9.064   1.174
 8336W        W73321  32.368   1.321   3.107
 8337W        W73322  44.008  35.076   4.152
 8338W        W73323  21.530   4.174  13.569
 8339W        W73324  29.715  41.723   4.189
 8340W        W73325  39.404  34.950   5.396
 8341W        W73326  29.410  39.486  12.914
 8342W        W73327   6.470  38.874  13.524
 8343W        W73328  24.589  24.176   1.336
 8344W        W73329  12.328  44.091   4.042
 8345W        W73330  39.966  21.741   3.671
 8346W        W73331  42.001  38.978   4.046
 8347W        W73332  39.333  35.164   3.089
 8348W        W73333  41.271  12.051  13.574
 8349W        W73334  39.829  41.974   3.278
 8350W        W73335  22.073  33.936   2.235
 8351W        W73336  20.485   3.451   2.872
 8352W        W73337  42.230  32.429   1.764
 8353W        W73338  39.363  14.893  12.658
 8354W        W73339  37.494  34.642   2.399
 8355W        W73340  38.508  23.807   2.472
 8356W        W73341   1.232  34.849  10.409
 8357W        W73342   2.882  20.631  11.507
 8358W        W73343   1.511   1.900   2.668
 8359W        W73344  19.366  27.203   4.552
 8360W        W73345  21.394   4.410   0.859
 8361W        W73346  17.530  44.231  10.586
 8362W        W73347  10.381  44.514   4.640
 8363W        W73348  13.513   8.180   1.799
 8364W        W73349   1.632   6.222   1.832
 8365W        W73350  43.966  27.224  13.268
 8366W        W73351  19.201  23.727  14.454
 8367W        W73352  26.499   9.520  13.409
 8368W        W73353  43.818  10.510   2.052
 8369W        W73354  11.185  12.495  11.135
 8370W        W73355  43.271  44.503   3.657
 8371W        W73356  42.137  18.613   3.237
 8372W        W73357  35.284   9.808  13.703
 8373W        W73358  42.519   2.755  12.122
 8374W        W73359  33.089  42.747   3.279
 8375W        W73360  31.657  25.713  11.283
 8376W        W73361  15.816   4.395   2.787
 8377W        W73362  31.905  44.762  12.626
 8378W        W73363   4.317  21.057  13.374
 8379W        W73364  31.909  25.669  12.607
 8380W        W73365  21.761  16.351  14.367
 8381W        W73366  10.353   2.180   1.721
 8382W        W73367  12.730  44.431  12.884
 8383W        W73368  13.275   8.443  11.505
 8384W        W73369  12.822  33.873  12.609
 8385W        W73370   4.840  42.065  13.119
 8386W        W73371  29.494  11.176   0.333
 8387W        W73372   3.973  40.417   4.090
 8388W        W73373  36.047   2.433   2.500
 8389W        W73374  23.689   7.435  14.317
 8390W        W73375  42.863  14.631  13.410
 8391W        W73376   9.338  16.418  14.765
 8392W        W73377   6.391  29.405   1.392
 8393W        W73378  32.483  35.823  10.877
 8394W        W73379  35.823   7.097  12.952
 8395W        W73380  28.679   5.183   4.700
 8396W        W73381  33.570  43.169  12.938
 8397W        W73382   3.716   4.260   4.938
 8398W        W73383  13.573  27.729   1.689
 8399W        W73384  37.774  19.192   3.378
 8400W        W73385  38.809  37.850   1.695
 8401W        W73386  14.169  41.858   4.187
 8402W        W73387  39.945  41.730   0.479
 8403W        W73388  44.895  12.403  10.539
 8404W        W73389  26.757  44.860  13.831
 8405W        W73390   4.758  40.926   0.823
 8406W        W73391   2.112  32.900  11.470
 8407W        W73392   2.807  31.154   3.800
 8408W        W73393  19.278  40.381   3.563
 8409W        W73394  21.124   9.509   1.644
 8410W        W73395   6.812  12.827  10.905
 8411W        W73396  31.185   3.241  13.935
 8412W        W73397  44.231   9.323   4.503
 8413W        W73398  19.834  36.237  13.477
 8414W        W73399  19.934   1.650   0.027
 8415W        W73400  21.007   3.536  11.416
 8416W        W73401   7.188  20.482   1.272
 8417W        W73402  14.559  38.587  13.484
 8418W        W73403  19.796   9.174   0.298
 8419W        W73404  12.668  20.101   3.256
 8420W        W73405  36.818   0.553  13.883
 8421W        W73406  36.635  36.440  11.658
 8422W        W73407  28.091  40.619  12.416
 8423W        W73408  36.088   9.957  10.745
 8424W        W73409   4.377  31.628   0.886
 8425W        W73410  20.996  33.952  11.929
 8426W        W73411  23.134  22.165  10.559
 8427W        W73412  25.019  41.622  13.647
 8428W        W73413  24.065  22.552  11.113
 8429W        W73414  13.714  26.349   4.536
 8430W        W73415   0.018  21.585   4.532
 8431W        W73416  30.384  18.850  11.630
 8432W        W73417   7.442  29.099  12.617
 8433W        W73418  42.458   8.396   2.879
 8434W        W73419   6.681  17.800  14.103
 8435W        W73420   7.371  33.762   3.583
 8436W        W73421   3.112   1.413   0.826
 8437W        W73422  27.532  38.971  10.781
 8438W        W73423   3.114  30.168   0.305
 8439W        W73424  39.715  33.387   2.823
 8440W        W73425  21.488  44.242  10.869
 8441W        W73426  16.227  33.452  11.380
 8442W        W73427  42.021  10.609   3.548
 8443W        W73428  20.708  26.244  11.454
 8444W        W73429  35.113  42.054   4.641
 8445W        W73430  26.108  18.063  12.371
 8446W        W73431  16.269   9.415   2.897
 8447W        W73432  35.117  33.495   0.350
 8448W        W73433  41.974  21.084  11.679
 8449W        W73434  43.882  31.409   4.443
 8450W        W73435  33.929   4.326  14.366
 8451W        W73436  11.669  16.809   4.603
 8452W        W73437  17.129  38.084   2.999
 8453W        W73438  23.488   4.763  11.553
 8454W        W73439   7.999  26.137   2.359
 8455W        W73440  35.718  40.818  14.831
 8456W        W73441  21.703   2.477  12.578
 8457W        W73442  19.254  33.994   3.653
 8458W        W73443  11.902  44.522   2.097
 8459W        W73444  30.161  26.588   1.837
 8460W        W73445  29.441  36.542   4.515
 8461W        W73446  30.147   9.433   4.080
 8462W        W73447  25.086  10.025   1.944
 8463W        W73448   4.616  37.363  10.798
 8464W        W73449  21.829  11.273  13.327
 8465W        W73450  11.192  29.429   2.725
 8466W        W73451  11.543  26.478   3.545
 8467W        W73452  37.832  16.144  12.468
 8468W        W73453  12.199   1.982   3.295
 8469W        W73454  13.573  32.602   1.788
 8470W        W73455  23.970  22.031   4.630
 8471W        W73456   6.229   6.943   2.167
 8472W        W73457  14.705  23.769  12.778
 8473W        W73458   5.696  23.480  13.027
 8474W        W73459  25.065  17.209   0.836
 8475W        W73460  16.328  28.970   0.778
 8476W        W73461  26.631  17.885  13.414
 8477W        W73462  40.980  12.399  14.831
 8478W        W73463   8.416  39.467  12.119
 8479W        W73464  43.840  33.709   3.443
 8480W        W73465  43.857  32.047  14.948
 8481W        W73466  20.592  25.941   0.430
 8482W        W73467  18.264  18.850   1.872
 8483W        W73468  19.156  33.928  14.411
 8484W        W73469   0.542  12.228  14.871
 8485W        W73470  29.615  28.464   0.514
 8486W        W73471  22.217  25.139   2.303
 8487W        W73472  28.100   9.909  13.472
 8488W        W73473  28.031  14.016  12.429
 8489W        W73474   3.250  35.027   2.706
 8490W        W73475  36.987  24.791  12.797
 8491W        W73476   4.034  30.590   2.196
 8492W        W73477  12.806  26.446  12.008
 8493W        W73478  24.740  37.837   4.240
 8494W        W73479  18.697  22.260  12.557
 8495W        W73480  38.847  17.820  10.874
 8496W        W73481   2.052  43.398  13.937
 8497W        W73482   8.927   6.815   3.885
 8498W        W73483  18.531  29.093   2.667
 8499W        W73484  30.433   0.827  13.963
 8500W        W73485   3.030  29.533  14.939
 8501W        W73486  18.323  32.584   4.113
 8502W        W73487  25.265  34.632  14.793
 8503W        W73488  18.279  42.500   0.777
 8504W        W73489  11.149   3.745   4.304
 8505W        W73490  40.380  40.726   3.631
 8506W        W73491  15.652  10.387  12.928
 8507W        W73492  33.874  26.390  12.455
 8508W        W73493  27.584  18.103   3.692
 8509W        W73494   7.789  33.016  14.749
 8510W        W73495  27.512  18.573  14.940
 8511W        W73496   2.971   7.430   1.701
 8512W        W73497  25.042  41.839   2.133
 8513W        W73498  38.438  22.636   4.531
 8514W        W73499  33.613  41.786   2.799
 8515W        W73500  27.743  27.698  13.364
 8516W        W73501  29.805  35.358   4.051
 8517W        W73502   7.448   6.277  11.617
 8518W        W73503  17.769   0.368  12.506
 8519W        W73504  19.250  22.725  12.037
 8520W        W73505  20.826  23.563  14.490
 8521W        W73506  20.258  18.085   1.166
 8522W        W73507  35.889  23.396  11.589
 8523W        W73508  38.019   9.648  11.572
 8524W        W73509  34.997  14.237   1.675
 8525W        W73510   0.196  39.995   2.292
 8526W        W73511  30.030  30.719   2.400
 8527W        W73512  13.632  25.543  13.202
 8528W        W73513  21.003  28.019   3.208
 8529W        W73514  38.420  35.705   3.082
 8530W        W73515  28.381  42.421  11.824
 8531W        W73516  44.346  26.282   2.151
 8532W        W73517  10.607  41.779  10.427
 8533W        W73518  19.151  11.249   2.113
 8534W        W73519  31.056  42.277  13.536
 8535W        W73520  23.075  22.380   2.388
 8536W        W73521  19.407   5.735   4.423
 8537W        W73522  19.365   5.241  11.044
 8538W        W73523  34.622  43.629  13.895
 8539W        W73524  19.098   2.731   4.059
 8540W        W73525   8.893  26.165  11.972
 8541W        W73526   0.532  30.834   3.277
 8542W        W73527   2.830  20.226   3.292
 8543W        W73528  32.937  39.390   3.166
 8544W        W73529  23.361  33.962   2.794
 8545W        W73530  18.284  35.811  10.687
 8546W        W73531  25.581   5.673  11.603
 8547W        W73532  11.782   0.675  14.050
 8548W        W73533  21.155  33.655   2.875
 8549W        W73534  13.286  29.935   2.914
 8550W        W73535  31.718  43.195   1.264
 8551W        W73536  26.822  11.230  11.982
 8552W        W73537  10.857  37.327  11.136
 8553W        W73538  32.949  12.410   2.643
 8554W        W73539  31.788  26.486   4.124
 8555W        W73540  23.801  41.472  10.876
 8556W        W73541  21.051  42.827  14.956
 8557W        W73542  28.002   0.759   3.129
 8558W        W73543   4.931  17.270  11.547
 8559W        W73544  10.265  26.648  14.941
 8560W        W73545   6.816  34.063   0.832
 8561W        W73546  37.827   4.964   0.951
 8562W        W73547  40.546  33.740   9.880
 8563W        W73548   6.314  42.108  14.237
 8564W        W73549  33.367   0.987   1.497
 8565W        W73550   3.272  12.656  14.706
 8566W        W73551  32.035  34.600   3.646
 8567W        W73552  16.337  43.758   3.139
 8568W        W73553  44.852  15.056  12.253
 8569W        W73554  44.074  20.556   2.234
 8570W        W73555  37.604  13.800  11.899
 8571W        W73556  29.053  19.837  10.771
 8572W        W73557  29.895  41.135  13.446
 8573W        W73558  36.380  20.712   2.191
 8574W        W73559  28.441  44.680  13.375
 8575W        W73560  36.406   9.741   2.748
 8576W        W73561  25.612   4.007  14.761
 8577W        W73562  39.204  15.894   4.842
 8578W        W73563   3.466   1.679  12.389
 8579W        W73564  31.622  33.902  13.539
 8580W        W73565  40.288  16.357  14.844
 8581W        W73566  33.322  20.628   3.240
 8582W        W73567  18.865  23.037  12.819
 8583W        W73568  13.599   6.747   4.660
 8584W        W73569  23.040  36.934   4.054
 8585W        W73570  36.032  30.992  13.065
 8586W        W73571  10.798   8.306   2.865
 8587W        W73572  15.141   7.451  11.197
 8588W        W73573  24.195  16.080  11.118
 8589W        W73574  38.344   2.833  14.419
 8590W        W73575  32.006  31.610   3.265
 8591W        W73576  26.168   2.863   0.960
 8592W        W73577  10.917  40.757  12.409
 8593W        W73578  16.778  10.085   9.956
 8594W        W73579  37.652  31.556  14.991
 8595W        W73580  21.511  24.733   1.289
 8596W        W73581   8.175  13.077   2.521
 8597W        W73582  15.433  44.246   1.761
 8598W        W73583  30.178  43.174   1.276
 8599W        W73584  44.865  22.016  14.383
 8600W        W73585  35.988  24.482  13.842
 8601W        W73586  20.584  26.553  13.765
 8602W        W73587  15.024  11.101  11.382
 8603W        W73588  37.597  29.433  13.030
 8604W        W73589  16.289  39.556   3.574
 8605W        W73590  24.462  13.429   1.795
 8606W        W73591  36.513  22.778  12.122
 8607W        W73592   0.561   4.575  10.980
 8608W        W73593  42.942  43.343  11.491
 8609W        W73594   9.624   1.552  14.823
 8610W        W73595  29.154  24.078  10.788
 8611W        W73596  13.601   5.311  14.992
 8612W        W73597  18.564  31.789   2.323
 8613W        W73598   2.269  33.595  12.643
 8614W        W73599  17.259   4.959   2.882
 8615W        W73600  11.156  20.142   4.081
 8616W        W73601  37.251  43.694   2.718
 8617W        W73602  13.997  25.051   2.294
 8618W        W73603  34.713  35.192   3.400
 8619W        W73604  22.523  29.700   2.280
 8620W        W73605  13.569  40.052  14.982
 8621W        W73606  30.597  21.155  10.407
 8622W        W73607   3.380  30.745  10.522
 8623W        W73608  25.748  24.925  11.591
 8624W        W73609  43.486  34.492  10.682
 8625W        W73610  11.005   3.068   0.712
 8626W        W73611  14.634  38.580   1.241
 8627W        W73612   1.268  36.752   4.117
 8628W        W73613  37.543  10.680   4.692
 8629W        W73614  21.000   4.229   1.269
 8630W        W73615  24.501   7.125  14.529
 8631W        W73616  41.014  40.794   2.220
 8632W        W73617  20.260   5.675   4.232
 8633W        W73618  15.766  21.353  14.898
 8634W        W73619   0.366  31.604   2.242
 8635W        W73620  32.339   9.833  11.498
 8636W        W73621  16.657   6.306   4.777
 8637W        W73622  34.872  19.454  14.510
 8638W        W73623  38.641  29.605   4.611
 8639W        W73624   1.457  44.255  14.045
 8640W        W73625  44.883  21.849   3.339
 8641W        W73626   5.136  42.777   0.727
 8642W        W73627  29.450  16.862  13.965
 8643W        W73628  42.072  10.162   2.667
 8644W        W73629  22.300  40.102   1.152
 8645W        W73630  26.076  22.243   2.889
 8646W        W73631  23.149  38.542  14.326
 8647W        W73632  39.038  41.417   0.685
 8648W        W73633   9.802  27.120  14.041
 8649W        W73634  30.689  42.311  11.954
 8650W        W73635  40.568  30.428   2.910
 8651W        W73636  14.237   4.491   4.685
 8652W        W73637  36.483   3.418   4.018
 8653W        W73638   9.303  23.926  11.601
 8654W        W73639  15.567  35.875  12.399
 8655W        W73640  24.911  13.829  12.193
 8656W        W73641  41.336   1.976   2.896
 8657W        W73642  44.278  20.046   2.442
 8658W        W73643  44.290  14.217   4.510
 8659W        W73644  19.123   5.226  14.919
 8660W        W73645  22.947  40.289  10.506
 8661W        W73646  40.082  16.803   0.056
 8662W        W73647  39.514  38.253  11.864
 8663W        W73648  40.067  15.602  13.616
 8664W        W73649  27.135  39.294   1.464
 8665W        W73650   5.393   9.141   1.382
 8666W        W73651  26.238  11.898   2.238
 8667W        W73652   8.068   6.735  12.105
 8668W        W73653  36.328  16.093  12.571
 8669W        W73654  27.441  19.125   3.265
 8670W        W73655  31.902  33.638   2.723
 8671W        W73656  15.809  35.470   4.216
 8672W        W73657  28.487  12.277   1.930
 8673W        W73658  17.199   4.178   3.166
 8674W        W73659  43.336  19.802   1.234
 8675W        W73660  16.065  43.362  13.775
 8676W        W73661   3.160  10.324   3.241
 8677W        W73662  21.632  27.086  13.366
 8678W        W73663  39.033  38.443  11.361
 8679W        W73664   4.259   3.455   4.894
 8680W        W73665  44.345  33.684  14.464
 8681W        W73666   9.902   2.542  10.705
 8682W        W73667  43.781   5.151  13.115
 8683W        W73668  19.763  40.456   1.260
 8684W        W73669  17.678  43.599   4.796
 8685W        W73670   0.282  43.438   2.888
 8686W        W73671   3.014  25.328  11.542
 8687W        W73672  34.533  19.802  14.225
 8688W        W73673   9.627  10.639   4.134
 8689W        W73674  23.131  32.677   3.487
 8690W        W73675  40.913  39.266   2.284
 8691W        W73676  32.376  29.884   3.152
 8692W        W73677  40.958  28.231  10.678
 8693W        W73678  20.277  22.627   3.716
 8694W        W73679  28.745  24.719  13.786
 8695W        W73680  36.990  24.325  10.579
 8696W        W73681  43.993  36.191   4.080
 8697W        W73682  11.639  18.833   4.189
 8698W        W73683  42.355  24.473   1.320
 8699W        W73684  43.111  36.659   2.596
 8700W        W73685  20.243  40.031   3.801
 8701W        W73686   9.003  13.108  10.692
 8702W        W73687   5.676  10.887  12.091
 8703W        W73688  28.577  29.558  14.462
 8704W        W73689  33.645   4.842   5.101
 8705W        W73690  11.639  17.819  14.108
 8706W        W73691   7.439  15.278  11.392
 8707W        W73692  16.890  30.422  11.605
 8708W        W73693   8.266  22.347   0.917
 8709W        W73694  18.486   8.199   0.916
 8710W        W73695  42.487   3.950   3.089
 8711W        W73696  26.209  35.465  14.499
 8712W        W73697   2.342  40.964  10.416
 8713W        W73698  35.046  41.966  14.505
 8714W        W73699  39.624   2.726  13.967
 8715W        W73700  30.316  11.295   2.347
 8716W        W73701   4.424   7.447  12.470
 8717W        W73702  14.588   9.050   2.828
 8718W        W73703  32.557   9.516  13.952
 8719W        W73704  20.295  33.058   0.977
 8720W        W73705  37.054  39.010  12.892
 8721W        W73706  43.064  39.427  13.556
 8722W        W73707   4.403   7.500   1.750
 8723W        W73708  22.757  18.668   9.999
 8724W        W73709   0.886   2.208   1.438
 8725W        W73710  22.105  20.328   1.768
 8726W        W73711  16.753   8.677   2.606
 8727W        W73712  32.103   0.370   1.514
 8728W        W73713  18.343  40.598   3.337
 8729W        W73714   6.353  12.329  13.373
 8730W        W73715  14.843  17.113  11.514
 8731W        W73716  34.825  36.559  12.362
 8732W        W73717  18.953  10.922  11.534
 8733W        W73718  33.525  16.356   1.453
 8734W        W73719   5.212  27.094  11.564
 8735W        W73720   1.378  14.153  11.377
 8736W        W73721  44.111  16.744  11.001
 8737W        W73722  20.783  39.082   0.454
 8738W        W73723  25.749  38.957  12.545
 8739W        W73724  29.484  20.478   2.984
 8740W        W73725  25.154  37.506   2.396
 8741W        W73726  40.230  19.770  12.772
 8742W        W73727  27.032  35.104  13.473
 8743W        W73728   5.258  40.763  11.038
 8744W        W73729   8.046  11.577  11.114
 8745W        W73730  27.531  32.636   3.176
 8746W        W73731   4.922  18.591  12.391
 8747W        W73732   0.786   7.315  11.227
 8748W        W73733  26.617  20.977  12.544
 8749W        W73734  32.555  39.541  13.955
 8750W        W73735   9.823  27.901  12.979
 8751W        W73736   8.325  26.779   3.181
 8752W        W73737  16.215  14.617  11.394
 8753W        W73738  29.129  39.343   4.227
 8754W        W73739  11.661   9.621   2.152
 8755W        W73740  29.897  37.377  11.195
 8756W        W73741  39.447   5.790   4.688
 8757W        W73742   0.435  15.248  13.012
 8758W        W73743  32.416  26.081  14.708
 8759W        W73744  21.489  17.234   2.307
 8760W        W73745  24.586  20.112  11.018
 8761W        W73746  11.231  38.953   2.827
 8762W        W73747   4.735  14.310   0.774
 8763W        W73748  30.281  13.104  11.101
 8764W        W73749  31.070   8.189   2.320
 8765W        W73750   0.048  15.864   2.867
 8766W        W73751   2.511  35.158   3.018
 8767W        W73752   6.218   2.157  12.083
 8768W        W73753  22.713  24.148  12.478
 8769W        W73754  25.927  20.165   3.337
 8770W        W73755  39.396   4.435  10.693
 8771W        W73756   8.351  30.511   3.771
 8772W        W73757  35.574  41.395  10.395
 8773W        W73758  25.942  15.611   4.952
 8774W        W73759   7.116  37.466   1.172
 8775W        W73760  29.900  40.286   3.108
 8776W        W73761  37.378  10.994  10.530
 8777W        W73762  21.992  32.355   0.793
 8778W        W73763  37.977  14.781   3.211
 8779W        W73764  13.740  36.979   4.680
 8780W        W73765  22.447  32.878   4.530
 8781W        W73766  15.121  42.827  14.228
 8782W        W73767  35.491  25.038  13.432
 8783W        W73768   2.341  37.339  11.014
 8784W        W73769  20.519  12.126   1.459
 8785W        W73770  37.328  16.013   0.343
 8786W        W73771  18.345  30.032  13.549
 8787W        W73772   9.920  11.946   1.176
 8788W        W73773  37.375   1.892  12.074
 8789W        W73774  18.584  20.706   0.342
 8790W        W73775  22.774   6.496   0.220
 8791W        W73776  27.028  41.424  12.500
 8792W        W73777   0.534  28.075  14.318
 8793W        W73778   3.715  42.267   0.842
 8794W        W73779  42.811   4.922   2.214
 8795W        W73780  24.573  36.139   3.679
 8796W        W73781  26.982  32.485  12.113
 8797W        W73782   7.883  21.938   2.027
 8798W        W73783  17.967  26.890  11.607
 8799W        W73784  14.830  44.077   3.714
 8800W        W73785   5.256  15.862  11.012
 8801W        W73786   2.356   7.826  14.376
 8802W        W73787  30.045  18.738  14.490
 8803W        W73788  32.237  22.311   0.891
 8804W        W73789  27.940  23.393  13.893
 8805W        W73790  22.793  41.220  14.717
 8806W        W73791  41.458  12.792   2.932
 8807W        W73792  30.959   6.001   3.148
 8808W        W73793  38.028  17.549  13.176
 8809W        W73794   4.382   5.569   0.519
 8810W        W73795  34.475  39.823  12.044
 8811W        W73796  37.152  20.104   2.232
 8812W        W73797  36.627  40.920   3.382
 8813W        W73798  23.193   7.945   3.575
 8814W        W73799  18.570   3.221   2.920
 8815W        W73800  43.393  26.776   2.105
 8816W        W73801  18.093   9.066   1.464
 8817W        W73802  18.549  13.869  13.755
 8818W        W73803  26.271  20.053   2.398
 8819W        W73804  34.145  37.386  11.308
 8820W        W73805  15.109  26.149  14.273
 8821W        W73806  14.188  12.908   4.072
 8822W        W73807  17.860  36.899  12.264
 8823W        W73808  41.462  40.289   3.642
 8824W        W73809   4.907   8.763  13.301
 8825W        W73810  37.274  23.832  12.964
 8826W        W73811  11.145  33.599  11.469
 8827W        W73812  13.406   4.885  11.214
 8828W        W73813   5.485  38.053  11.953
 8829W        W73814  20.351  32.056   1.728
 8830W        W73815  21.170  10.960   4.248
 8831W        W73816  39.268  39.480  13.989
 8832W        W73817  34.360  34.058  13.477
 8833W        W73818  44.079  35.001   2.704
 8834W        W73819   0.258  37.792  10.691
 8835W        W73820  17.165  21.273   2.374
 8836W        W73821   3.066   1.413  12.983
 8837W        W73822  32.849  33.835  11.051
 8838W        W73823   9.474  22.252  10.910
 8839W        W73824  31.757  16.804   2.032
 8840W        W73825  14.363   5.082  11.633
 8841W        W73826   1.801  28.726   0.365
 8842W        W73827   4.564  44.004  13.092
 8843W        W73828  28.167  36.173  12.927
 8844W        W73829  40.753  14.075   2.278
 8845W        W73830  32.500  28.257  14.581
 8846W        W73831  12.328  32.018  10.919
 8847W        W73832  41.528  33.335   0.782
 8848W        W73833  24.772  26.160  11.595
 8849W        W73834   5.222  26.356  14.892
 8850W        W73835  43.988  20.247  13.063
 8851W        W73836  23.084  29.532  10.602
 8852W        W73837  21.648  30.161   2.117
 8853W        W73838  19.079   0.719   3.569
 8854W        W73839   9.344  15.334   0.449
 8855W        W73840  29.522   2.306   4.634
 8856W        W73841  37.470  35.452   2.576
 8857W        W73842   9.670   1.542   1.948
 8858W        W73843  17.708  44.351   0.459
 8859W        W73844  40.532  40.924   4.072
 8860W        W73845  29.460  38.354  12.912
 8861W        W73846  42.721  15.101   0.888
 8862W        W73847   7.769  29.543  13.595
 8863W        W73848   8.467  38.806   0.219
 8864W        W73849   2.840  38.601   3.394
 8865W        W73850  10.063  20.586   1.874
 8866W        W73851  30.043  13.145   1.117
 8867W        W73852  44.751  11.499   3.501
 8868W        W73853  21.433  42.491   0.799
 8869W        W73854  44.641  15.624  11.601
 8870W        W73855  16.184  34.859  12.987
 8871W        W73856  28.934  31.376   3.644
 8872W        W73857  12.373  32.466  13.489
 8873W        W73858   0.189  38.029   3.215
 8874W        W73859  35.509  39.280  14.641
 8875W        W73860  37.786  13.723   0.538
 8876W        W73861   9.365  11.792   3.655
 8877W        W73862   0.877  15.893   2.128
 8878W        W73863  38.596   7.789  10.635
 8879W        W73864  10.560  36.526  12.439
 8880W        W73865  26.689  12.676   2.675
 8881W        W73866  27.711   5.464   1.913
 8882W        W73867  18.322  20.256  11.978
 8883W        W73868  25.493   2.270  13.862
 8884W        W73869  22.271  44.056   3.762
 8885W        W73870  42.833  12.269   1.198
 8886W        W73871  27.066   6.224  13.203
 8887W        W73872  37.175  24.624   4.706
 8888W        W73873  36.308  32.923   0.996
 8889W        W73874  17.855   1.449  11.616
 8890W        W73875   6.799  18.162  13.036
 8891W        W73876   3.584  19.072  11.959
 8892W        W73877  18.915   6.997   3.610
 8893W        W73878  30.396   6.785  10.599
 8894W        W73879   1.495  35.575   2.410
 8895W        W73880   1.391  37.314  14.334
 8896W        W73881  26.644   8.286  12.994
 8897W        W73882  35.942  15.288   4.156
 8898W        W73883   8.055  25.482  11.642
 8899W        W73884  13.669   3.188  10.730
 8900W        W73885  19.778  21.487   0.002
 8901W        W73886  34.177  22.087  12.383
 8902W        W73887   0.043   0.977   3.577
 8903W        W73888  44.737  25.890  14.818
 8904W        W73889  36.547  31.028  13.165
 8905W        W73890  43.041  30.506   3.997
 8906W        W73891   7.738  16.521   3.894
 8907W        W73892  22.546   9.928  14.754
 8908W        W73893  41.456   9.434   0.300
 8909W        W73894  18.109   4.910  14.322
 8910W        W73895  41.804  17.963   2.630
 8911W        W73896  12.093   7.373   1.251
 8912W        W73897   2.360  35.827   2.229
 8913W        W73898  15.236  30.140  13.005
 8914W        W73899  14.632  38.290   3.131
 8915W        W73900  23.159  41.886   4.218
 8916W        W73901  36.358  12.336  14.491
 8917W        W73902  44.299  13.047   0.588
 8918W        W73903  17.614  15.250   4.285
 8919W        W73904  11.414   7.402  10.109
 8920W        W73905   8.509   4.497  11.219
 8921W        W73906  20.780  34.108   0.537
 8922W        W73907  26.752  36.504   3.708
 8923W        W73908  16.808  32.660  14.454
 8924W        W73909  36.524   4.314   4.413
 8925W        W73910   8.407  21.727   3.700
 8926W        W73911  35.813   7.704  10.752
 8927W        W73912  15.682  37.324  14.071
 8928W        W73913  31.274  33.899   0.432
 8929W        W73914  23.187  19.255  12.130
 8930W        W73915   1.890   6.844   1.011
 8931W        W73916  38.016  41.280   2.103
 8932W        W73917   1.722  10.757   2.322
 8933W        W73918   5.064  35.586  11.991
 8934W        W73919  31.617  30.349   3.118
 8935W        W73920  44.619  42.497  14.777
 8936W        W73921  36.178  27.406   4.893
 8937W        W73922  30.456  15.327  13.970
 8938W        W73923   0.954  37.654  11.944
 8939W        W73924  15.241  11.488  10.694
 8940W        W73925   3.136  30.405  14.846
 8941W        W73926  43.841  42.479  12.830
 8942W        W73927  35.654  18.776  14.825
 8943W        W73928  33.130  40.369   4.183
 8944W        W73929  14.810  42.159  12.324
 8945W        W73930  16.211  31.298   0.766
 8946W        W73931  22.997  43.399  12.917
 8947W        W73932  24.997  13.516   2.669
 8948W        W73933   5.630  31.420   3.865
 8949W        W73934  31.345  13.835  12.233
 8950W        W73935   3.833  16.031  12.014
 8951W        W73936  14.115   8.600   1.267
 8952W        W73937  32.411  42.033  13.920
 8953W        W73938  40.681  22.410  13.088
 8954W        W73939  39.356  32.176  11.134
 8955W        W73940   6.313  11.885   3.679
 8956W        W73941  42.765  40.584   2.684
 8957W        W73942  31.500  27.729   1.456
 8958W        W73943  11.560   1.400   1.903
 8959W        W73944  16.773  40.407   0.467
 8960W        W73945  44.919  20.541   1.974
 8961W        W73946  30.498  44.449   0.075
 8962W        W73947  23.983  42.417   1.363
 8963W        W73948  35.904   4.844   4.829
 8964W        W73949  19.182  35.438   0.895
 8965W        W73950   3.547   0.824  14.848
 8966W        W73951  23.266  35.992   3.902
 8967W        W73952   1.500   7.791   1.721
 8968W        W73953  44.378  17.835   4.946
 8969W        W73954   2.603  37.385   3.968
 8970W        W73955  16.615  26.990   0.737
 8971W        W73956  30.577  12.129   4.610
 8972W        W73957   8.203   7.438   2.307
 8973W        W73958   2.332  33.805   2.368
 8974W        W73959  34.044  20.955  11.132
 8975W        W73960  25.283  32.431   3.962
 8976W        W73961   6.165  27.476  10.575
 8977W        W73962  23.304  14.705  12.450
 8978W        W73963  30.341  31.794   5.040
 8979W        W73964  10.785  15.831  10.696
 8980W        W73965  23.379  26.352  14.304
 8981W        W73966  10.121   0.940  12.331
 8982W        W73967  26.141  15.657  11.509
 8983W        W73968   4.838  19.200  13.568
 8984W        W73969   6.455  33.594   5.269
 8985W        W73970  14.757   7.332   4.213
 8986W        W73971  36.934   1.210  11.486
 8987W        W73972  30.114  16.555   2.193
 8988W        W73973  29.691  27.821   1.950
 8989W        W73974   2.327  14.033  11.171
 8990W        W73975  14.214  10.879  11.058
 8991W        W73976   7.855  25.088   0.245
 8992W        W73977  38.281   0.477  12.609
 8993W        W73978  34.983  29.487   1.903
 8994W        W73979  23.739  36.982   4.288
 8995W        W73980  39.105  43.432   0.860
 8996W        W73981  39.934  38.596  14.873
 8997W        W73982  16.438  11.118  10.958
 8998W        W73983  36.516  19.287   3.120
 8999W        W73984  21.766  29.110  11.757
 9000W        W73985  14.349  15.206   4.534
 9001W        W73986   8.312  18.134  14.293
 9002W        W73987  13.283  30.425  14.480
 9003W        W73988  31.452  15.110   2.788
 9004W        W73989  17.000  41.583   3.060
 9005W        W73990  28.529  16.288  13.539
 9006W        W73991  14.028  29.841   2.223
 9007W        W73992  41.003  20.902   1.872
 9008W        W73993  43.106  24.210   2.122
 9009W        W73994  44.841  23.254   0.447
 9010W        W73995  44.128   4.759  13.085
 9011W        W73996  43.366   4.695  12.421
 9012W        W73997   8.719  18.639   2.828
 9013W        W73998  13.581   7.825   4.154
 9014W        W73999  16.294  39.045   1.034
 9015W        W74000  32.481  31.662  13.930
 9016W        W74001  10.448  17.740   3.909
 9017W        W74002  24.457  11.372  14.816
 9018W        W74003   2.022  37.951   4.975
 9019W        W74004  20.922  19.129   0.804
 9020W        W74005  27.971  10.669  11.652
 9021W        W74006  12.574  35.913   3.880
 9022W        W74007   3.911   5.887  11.597
 9023W        W74008   8.396  44.006   4.953
 9024W        W74009  15.641  30.868  11.996
 9025W        W74010  16.211   8.892   3.138
 9026W        W74011  40.331  38.058   1.519
 9027W        W74012  41.037   5.978   0.842
 9028W        W74013  24.217  44.750  13.482
 9029W        W74014  19.307  42.279   4.556
 9030W        W74015  20.706  35.852  13.497
 9031W        W74016  42.919  43.365   4.432
 9032W        W74017  35.407  10.811  14.601
 9033W        W74018  19.212  44.248  11.490
 9034W        W74019  20.992  43.849  12.214
 9035W        W74020  30.662  42.970  12.476
 9036W        W74021  44.677  20.969  14.384
 9037W        W74022  20.323  14.217   0.759
 9038W        W74023  25.143  12.770   1.378
 9039W        W74024  32.112  31.008   1.886
 9040W        W74025  17.152  43.469  10.798
 9041W        W74026  42.004   9.288   3.637
 9042W        W74027  14.382  23.332  11.066
 9043W        W74028  28.631  21.371  14.384
 9044W        W74029  28.443   5.453  12.808
 9045W        W74030   3.747  15.138  14.563
 9046W        W74031  16.930   2.012   4.542
 9047W        W74032  13.856  10.339  11.596
 9048W        W74033   1.289   5.010   4.076
 9049W        W74034   6.425  34.010   2.347
 9050W        W74035   1.524   9.465   3.223
 9051W        W74036   7.984  42.778  14.966
 9052W        W74037   8.282  16.181  13.274
 9053W        W74038  15.534  34.626  14.920
 9054W        W74039   4.846  21.224  12.192
 9055W        W74040  12.007  31.130  13.095
 9056W        W74041  17.545  40.269   3.180
 9057W        W74042  25.602  14.609  12.060
 9058W        W74043  28.497  14.732  14.354
 9059W        W74044  34.938  44.600  11.088
 9060W        W74045  39.064  28.042   1.606
 9061W        W74046  19.552   3.410   2.629
 9062W        W74047   3.298   8.956  14.473
 9063W        W74048  14.185   6.981   1.849
 9064W        W74049  43.048  22.306   5.027
 9065W        W74050  26.463   5.953  10.656
 9066W        W74051  25.239   6.193   3.344
 9067W        W74052  21.997  26.553   2.309
 9068W        W74053   3.643  27.608  14.808
 9069W        W74054  18.271  27.393  11.599
 9070W        W74055  25.131  18.458  11.105
 9071W        W74056  19.763  10.735  10.780
 9072W        W74057   9.634  16.168   4.231
 9073W        W74058  23.589   0.265  12.583
 9074W        W74059  43.380  37.243   2.000
 9075W        W74060  25.255  22.206   1.302
 9076W        W74061  17.505  17.218   0.890
 9077W        W74062  39.287  39.738  13.003
 9078W        W74063  12.884  31.563  12.661
 9079W        W74064   3.452  42.773   2.492
 9080W        W74065   1.834  14.148   0.234
 9081W        W74066  24.515  25.911  11.219
 9082W        W74067  34.029   3.294  10.774
 9083W        W74068  41.505   8.998   1.731
 9084W        W74069  37.635   9.190  10.969
 9085W        W74070  24.498   1.867  14.724
 9086W        W74071  44.437  25.934   5.060
 9087W        W74072  40.549   3.865   1.546
 9088W        W74073  17.757  16.754   3.111
 9089W        W74074  22.512  13.419  12.895
 9090W        W74075  32.220  37.924  11.128
 9091W        W74076  22.077  36.411   3.721
 9092W        W74077  11.249  39.556   3.739
 9093W        W74078  10.923  32.637   3.200
 9094W        W74079  11.778   5.937  12.456
 9095W        W74080  33.020  44.269  11.693
 9096W        W74081  26.752   9.840   3.567
 9097W        W74082  41.472  10.861  14.485
 9098W        W74083   0.215   4.237  11.161
 9099W        W74084  21.696  28.201   2.181
 9100W        W74085  27.116  20.760  11.175
 9101W        W74086  21.751  35.925   0.974
 9102W        W74087  13.448  32.244   4.710
 9103W        W74088  39.913  40.937   2.662
 9104W        W74089  34.005  11.715   3.294
 9105W        W74090  36.651  19.243  13.032
 9106W        W74091  24.237  23.151   0.229
 9107W        W74092  12.222  35.307  13.789
 9108W        W74093  27.569  26.093  13.517
 9109W        W74094  35.668   7.193   4.065
 9110W        W74095  40.949  16.567   3.444
 9111W        W74096  10.409  43.983   3.912
 9112W        W74097  13.326  39.889   2.671
 9113W        W74098   2.889  27.561  14.300
 9114W        W74099  11.191   0.233  11.552
 9115W        W74100  32.467  37.091   3.937
 9116W        W74101  28.677  33.904  13.432
 9117W        W74102  42.551  32.708   3.206
 9118W        W74103  16.601  13.365   3.361
 9119W        W74104  13.759  23.934  11.063
 9120W        W74105  40.716  15.116   0.881
 9121W        W74106  44.372  11.307   3.853
 9122W        W74107  39.042  28.375   3.090
 9123W        W74108   7.255  38.848  12.289
 9124W        W74109   3.467  21.179  12.569
 9125W        W74110  35.914   3.470  13.341
 9126W        W74111  43.248   8.181  13.427
 9127W        W74112  19.841   7.919  12.555
 9128W        W74113  20.561  27.179  12.010
 9129W        W74114  38.787  25.184  11.663
 9130W        W74115  16.881  42.382   2.267
 9131W        W74116  27.730  26.107   1.413
 9132W        W74117  40.539   3.364  12.945
 9133W        W74118   5.395  20.823   1.233
 9134W        W74119  15.183   6.101   1.878
 9135W        W74120   4.486  41.341  10.615
 9136W        W74121  26.853   3.837   5.007
 9137W        W74122  42.154  36.690   4.605
 9138W        W74123   8.751   9.302  12.857
 9139W        W74124  39.980  42.490   3.326
 9140W        W74125   6.877  43.899  10.595
 9141W        W74126   2.667  37.829   0.943
 9142W        W74127  16.698  11.298  13.881
 9143W        W74128  19.888  20.780   0.141
 9144W        W74129  41.464  11.641  10.680
 9145W        W74130  24.448  33.970   3.638
 9146W        W74131   1.816  40.909   0.364
 9147W        W74132   2.883   4.260   0.240
 9148W        W74133  37.125   3.925   1.922
 9149W        W74134  42.312  36.908   2.813
 9150W        W74135  17.565   8.841   2.267
 9151W        W74136   2.555  25.713  14.601
 9152W        W74137   6.749  23.985  12.541
 9153W        W74138   8.928  10.976   4.837
 9154W        W74139   2.618  14.929   0.682
 9155W        W74140  36.045  28.182   3.787
 9156W        W74141  42.736  23.430   1.648
 9157W        W74142  23.511  33.715  12.132
 9158W        W74143  41.582  38.497   1.449
 9159W        W74144  35.217  27.002  12.079
 9160W        W74145  32.987  18.404   2.470
 9161W        W74146   1.806  44.286   4.338
 9162W        W74147  12.866  15.978   1.279
 9163W        W74148  26.493  23.498  13.866
 9164W        W74149  24.543   8.386  11.328
 9165W        W74150  14.827  12.529   0.741
 9166W        W74151   3.775  21.935  11.742
 9167W        W74152   7.651  33.402   4.142
 9168W        W74153  12.135  19.388  13.054
 9169W        W74154  24.754  22.039   3.581
 9170W        W74155  21.620  11.492   3.261
 9171W        W74156  10.830   9.817   4.889
 9172W        W74157  36.798  23.583   2.142
 9173W        W74158  12.107   4.730  10.403
 9174W        W74159  19.691  42.225   0.895
 9175W        W74160  17.766  10.253   2.492
 9176W        W74161  22.216  33.964   1.232
 9177W        W74162  40.887   0.435  13.563
 9178W        W74163  28.894  10.763  13.146
 9179W        W74164  17.736   0.610   1.415
 9180W        W74165   0.781  15.248   2.758
 9181W        W74166  38.269  14.236   0.779
 9182W        W74167   6.329  37.110  14.928
 9183W        W74168  12.846  22.331  14.319
 9184W        W74169  21.928   9.170  13.373
 9185W        W74170   1.162  18.709   3.118
 9186W        W74171   6.754  14.897  12.986
 9187W        W74172   4.429  13.114  12.324
 9188W        W74173   6.092  33.612  12.934
 9189W        W74174   1.708  38.770   2.139
 9190W        W74175  10.457  29.644   0.723
 9191W        W74176  16.315  17.582   1.003
 9192W        W74177  25.233   7.282   1.374
 9193W        W74178  41.552  17.612   2.290
 9194W        W74179  24.547   0.450  11.584
 9195W        W74180   5.170  40.827   1.859
 9196W        W74181  27.202  11.573  12.829
 9197W        W74182  22.490  34.550  13.222
 9198W        W74183  34.735  29.635   1.097
 9199W        W74184  21.906   3.267  10.640
 9200W        W74185  13.189  19.439   4.193
 9201W        W74186   0.667  20.166   0.311
 9202W        W74187  42.417  34.191   4.434
 9203W        W74188  32.152  12.094  11.152
 9204W        W74189  37.805  44.801  11.836
 9205W        W74190   1.808  38.755  13.955
 9206W        W74191  30.615  29.011   2.721
 9207W        W74192  10.026  38.616   1.329
 9208W        W74193   0.907  33.470   4.590
 9209W        W74194   8.139   5.114  13.403
 9210W        W74195  10.103  27.076   1.873
 9211W        W74196  20.205  36.581  12.382
 9212W        W74197  21.143  25.898   2.842
 9213W        W74198  21.740  22.980   3.312
 9214W        W74199  23.760  24.759   3.712
 9215W        W74200   3.745   7.254   5.092
 9216W        W74201  40.062  21.253  14.868
 9217W        W74202   5.943   3.516   0.933
 9218W        W74203  36.991  17.236   3.234
 9219W        W74204  39.807  24.661   1.527
 9220W        W74205  40.433   2.788   1.674
 9221W        W74206   4.031   3.784   3.235
 9222W        W74207   1.384  32.315   3.734
 9223W        W74208  27.655  32.618   4.607
 9224W        W74209  23.713  24.074   0.066
 9225W        W74210  35.514  18.238  10.709
 9226W        W74211  14.082  24.274  11.241
 9227W        W74212  35.900   4.387   2.235
 9228W        W74213  30.719   8.312   4.570
 9229W        W74214  10.932  22.539  14.949
 9230W        W74215  32.072  13.352   4.770
 9231W        W74216  20.242  31.388   3.345
 9232W        W74217  17.267   0.726   4.665
 9233W        W74218  11.254  43.337   3.662
 9234W        W74219  37.346  36.824   0.408
 9235W        W74220  12.343  39.590  12.076
 9236W        W74221   7.837  17.231   1.273
 9237W        W74222  12.308   9.345   1.683
 9238W        W74223  10.767   2.208   4.698
 9239W        W74224   4.028  16.547   4.199
 9240W        W74225   1.439  14.921   4.018
 9241W        W74226  23.743  23.025   0.221
 9242W        W74227  43.562  33.036  11.746
 9243W        W74228  16.982  17.585  12.077
 9244W        W74229  29.386   7.940   3.717
 9245W        W74230   2.908  31.003   0.266
 9246W        W74231  41.031  27.136  12.067
 9247W        W74232   4.176  13.089  14.964
 9248W        W74233   0.793   7.351   4.024
 9249W        W74234  31.452  11.721  11.146
 9250W        W74235   3.603  30.863   2.194
 9251W        W74236  44.306  24.044  13.329
 9252W        W74237  26.964  12.135   3.912
 9253W        W74238  23.172  28.126   0.412
 9254W        W74239  21.134  28.886  10.519
 9255W        W74240  31.437   3.711   1.887
 9256W        W74241  38.649  41.738   1.742
 9257W        W74242  36.097   1.542   2.284
 9258W        W74243  11.490  41.472  12.833
 9259W        W74244   9.939   3.340  10.247
 9260W        W74245  32.959  15.810  13.929
 9261W        W74246   2.904   0.657  13.501
 9262W        W74247  37.558  17.297  11.278
 9263W        W74248  42.750  40.610  10.704
 9264W        W74249  26.758   5.515   3.286
 9265W        W74250   6.378  42.921   2.191
 9266W        W74251  35.018   6.438  14.500
 9267W        W74252  22.718  15.645   1.941
 9268W        W74253   7.486  34.495   0.595
 9269W        W74254  29.996  25.155   3.192
 9270W        W74255   4.177  25.520   2.145
 9271W        W74256   1.190  35.510  11.482
 9272W        W74257  42.695  23.050  11.624
 9273W        W74258  12.215  16.300   3.991
 9274W        W74259  41.460  21.673  10.179
 9275W        W74260   2.933  11.386   3.325
 9276W        W74261   3.207  13.883   2.528
 9277W        W74262   1.870  36.359  11.156
 9278W        W74263   0.043   9.751   4.825
 9279W        W74264  38.549  44.396  10.406
 9280W        W74265  20.731  11.148  14.281
 9281W        W74266  37.369  27.453  14.794
 9282W        W74267  40.308   8.676   9.834
 9283W        W74268   4.835  23.438  10.311
 9284W        W74269  13.968  21.616   2.493
 9285W        W74270   2.837  10.287   4.676
 9286W        W74271   9.623  18.716  14.559
 9287W        W74272  40.494  21.676  13.759
 9288W        W74273   7.946  15.832  12.997
 9289W        W74274  13.603  42.883  10.482
 9290W        W74275  26.060  35.621  13.561
 9291W        W74276  11.869  43.793   4.135
 9292W        W74277  21.626  42.358   4.966
 9293W        W74278  10.850  16.294   0.254
 9294W        W74279   1.203  44.591   3.559
 9295W        W74280   1.827  15.285   1.439
 9296W        W74281  22.459  28.182  10.918
 9297W        W74282  22.989  15.766   4.748
 9298W        W74283  34.141  22.047   3.695
 9299W        W74284  43.513   5.719   1.329
 9300W        W74285  33.148  20.224  13.925
 9301W        W74286  42.905   5.213  13.025
 9302W        W74287  18.857   1.438   3.662
 9303W        W74288  41.268  15.114   0.795
 9304W        W74289  41.591  30.154   1.760
 9305W        W74290  22.288  20.584  12.405
 9306W        W74291  27.618  19.825  14.534
 9307W        W74292   9.685  16.097  13.345
 9308W        W74293  43.861  29.140  11.537
 9309W        W74294  39.842   4.675  10.683
 9310W        W74295  41.438  11.588   4.760
 9311W        W74296  33.631  40.024  14.779
 9312W        W74297  10.105   4.393   2.658
 9313W        W74298  37.408  27.395   1.658
 9314W        W74299  15.659  28.644  14.444
 9315W        W74300  29.114  44.532  11.248
 9316W        W74301  19.744  37.973   3.742
 9317W        W74302   6.717  28.417   4.319
 9318W        W74303  25.573   8.533  11.100
 9319W        W74304  11.145   3.876  14.532
 9320W        W74305  11.515  41.071   3.728
 9321W        W74306  11.268  12.516  13.059
 9322W        W74307  19.779  25.570   1.475
 9323W        W74308  14.173  25.584  12.061
 9324W        W74309  27.130  27.418   4.946
 9325W        W74310  20.026  32.750  11.229
 9326W        W74311  21.232  42.408  11.127
 9327W        W74312   5.418  19.455   3.286
 9328W        W74313   1.751  14.787   1.727
 9329W        W74314   6.748  31.982  12.517
 9330W        W74315  43.411  23.315  14.350
 9331W        W74316   1.927  23.905  10.704
 9332W        W74317   3.226  41.384  11.468
 9333W        W74318  25.731  21.225  11.558
 9334W        W74319  41.426   3.637  12.150
 9335W        W74320  31.546  31.836  12.201
 9336W        W74321  15.952  28.673   2.737
 9337W        W74322  34.288  39.627  13.451
 9338W        W74323  16.267   3.298   2.919
 9339W        W74324  42.346  17.863   9.839
 9340W        W74325  16.863   2.778  11.736
 9341W        W74326  37.817  37.501  10.439
 9342W        W74327  26.120  34.513  11.885
 9343W        W74328  33.331  13.345  13.017
 9344W        W74329  18.862  12.294  14.952
 9345W        W74330  14.582  43.441  11.034
 9346W        W74331   9.353  16.806  14.019
 9347W        W74332   6.038  11.248   0.256
 9348W        W74333   4.964  38.156  13.836
 9349W        W74334  44.287  22.503   4.169
 9350W        W74335   8.105  42.338  13.862
 9351W        W74336  42.162  18.486  11.445
 9352W        W74337  23.496  42.857  12.419
 9353W        W74338  23.943  34.004   1.892
 9354W        W74339  41.712  10.224   0.749
 9355W        W74340  18.534  19.754  12.111
 9356W        W74341  13.711  15.873  12.868
 9357W        W74342  34.486  44.929  12.612
 9358W        W74343  30.554  38.974  14.137
 9359W        W74344   8.628  33.568  14.833
 9360W        W74345  23.365  10.583   1.364
 9361W        W74346   8.253  11.571  14.784
 9362W        W74347  28.571  11.030   0.793
 9363W        W74348   5.997  33.493  14.337
 9364W        W74349  41.845  15.543  13.077
 9365W        W74350  33.030  27.602   0.552
 9366W        W74351  28.040   8.690   0.411
 9367W        W74352  38.636  35.602  12.068
 9368W        W74353  14.045  24.489   4.285
 9369W        W74354  28.525  20.198  12.047
 9370W        W74355  36.985   8.096   4.090
 9371W        W74356  33.080  43.052  10.381
 9372W        W74357  11.778  17.834   4.546
 9373W        W74358  33.568   8.952  14.305
 9374W        W74359   7.929  34.066   2.142
 9375W        W74360   2.917  44.865   0.866
 9376W        W74361  41.444  27.360   3.141
 9377W        W74362  38.898  21.706  13.548
 9378W        W74363  38.207   8.668   2.574
 9379W        W74364  32.902  20.748  11.090
 9380W        W74365  43.372   0.884   1.327
 9381W        W74366  38.771   6.328  11.106
 9382W        W74367  34.994  44.665  13.133
 9383W        W74368  34.414  30.938  14.400
 9384W        W74369   4.548  31.941   5.034
 9385W        W74370  18.980  42.357  11.966
 9386W        W74371  19.073  34.969   0.109
 9387W        W74372  15.510  14.700   4.482
 9388W        W74373   4.911   3.678  13.901
 9389W        W74374  24.394  11.059  11.082
 9390W        W74375  12.787   0.543  14.268
 9391W        W74376  12.348  23.098  10.584
 9392W        W74377  13.814  20.476  14.637
 9393W        W74378  38.496  37.448   2.728
 9394W        W74379  32.040  19.627  12.900
 9395W        W74380  35.992  38.769  14.919
 9396W        W74381  15.416  42.970   3.903
 9397W        W74382  35.670  24.517  13.401
 9398W        W74383  26.221  20.253  12.621
 9399W        W74384  37.601  34.962  10.313
 9400W        W74385  14.380  37.445  10.280
 9401W        W74386   1.512  13.737  11.089
 9402W        W74387  19.084   1.275   1.408
 9403W        W74388  44.317  11.739  12.083
 9404W        W74389  11.552  34.580  13.935
 9405W        W74390  30.108  17.193   4.093
 9406W        W74391  11.132   2.287   0.303
 9407W        W74392  17.581  44.348  11.076
 9408W        W74393   4.443   3.499   0.536
 9409W        W74394  32.538  44.581  12.466
 9410W        W74395   7.377  30.114   0.733
 9411W        W74396  22.315  13.180   0.600
 9412W        W74397  17.907  35.865   3.281
 9413W        W74398  13.111  42.554  11.620
 9414W        W74399   7.282  25.537   3.815
 9415W        W74400  37.417  19.717   4.595
 9416W        W74401  21.153  18.574  12.218
 9417W        W74402  22.511  23.238   3.497
 9418W        W74403  17.313   6.874  11.998
 9419W        W74404  10.956  23.299   4.061
 9420W        W74405   8.219  28.545   2.816
 9421W        W74406  23.704   6.907   2.789
 9422W        W74407  13.719  38.457   1.741
 9423W        W74408  20.023  31.394   2.858
 9424W        W74409  14.795  24.772  12.092
 9425W        W74410  25.124  23.637   3.760
 9426W        W74411  41.800   8.418  11.170
 9427W        W74412  24.312  10.148   0.375
 9428W        W74413   6.147  37.815   0.386
 9429W        W74414  15.626   0.776   1.520
 9430W        W74415  10.819  35.327  13.053
 9431W        W74416  40.359  29.224  14.950
 9432W        W74417  17.170   3.846  12.868
 9433W        W74418   4.186  17.843   0.509
 9434W        W74419  25.509  24.035   3.669
 9435W        W74420   9.594  14.308   1.235
 9436W        W74421   9.294  12.131  11.952
 9437W        W74422  21.838  32.336  11.661
 9438W        W74423  22.995  29.197  12.403
 9439W        W74424  18.010  28.600  10.347
 9440W        W74425  21.514  42.731   2.204
 9441W        W74426   4.175  42.860   4.151
 9442W        W74427  13.609  41.830  13.146
 9443W        W74428  44.493  38.680   3.567
 9444W        W74429  18.248   3.963  11.987
 9445W        W74430   4.745  12.788  12.038
 9446W        W74431  36.379  39.350   3.443
 9447W        W74432   4.362  14.799  13.909
 9448W        W74433  27.034   9.250   0.860
 9449W        W74434   0.839  29.151  11.546
 9450W        W74435  15.787  38.863   2.346
 9451W        W74436  38.950  20.266   2.673
 9452W        W74437  20.529  20.233  13.452
 9453W        W74438  24.294   3.617   2.822
 9454W        W74439  39.873  29.958  10.607
 9455W        W74440   6.233  39.731  12.845
 9456W        W74441  18.554  13.951   2.704
 9457W        W74442  36.189  11.765  12.785
 9458W        W74443  19.749  16.917   3.177
 9459W        W74444  39.702  36.371  10.805
 9460W        W74445  15.228  14.652   1.412
 9461W        W74446  27.895  20.639  13.197
 9462W        W74447   9.510  43.078  12.418
 9463W        W74448   2.831  21.833  11.979
 9464W        W74449  33.144   6.775   5.165
 9465W        W74450   6.313   5.008   1.861
 9466W        W74451  38.396   5.059  14.951
 9467W        W74452  37.911  43.594  12.422
 9468W        W74453  14.272  14.362   4.302
 9469W        W74454   7.246  34.176   0.254
 9470W        W74455  39.322  27.021   3.754
 9471W        W74456   9.199   1.919  13.418
 9472W        W74457  12.206  43.888   4.510
 9473W        W74458  41.610  29.348  12.008
 9474W        W74459  34.286  10.430  12.473
 9475W        W74460   1.568  38.479   2.554
 9476W        W74461  10.339  35.122  12.099
 9477W        W74462  35.434  13.261   4.454
 9478W        W74463  13.789  24.168   2.301
 9479W        W74464   2.310  11.472  14.297
 9480W        W74465  16.297  34.538  14.377
 9481W        W74466  33.867   6.370  10.128
 9482W        W74467  23.260  33.102  12.904
 9483W        W74468   2.741  12.566  12.039
 9484W        W74469  22.249  18.557  14.871
 9485W        W74470   0.347  41.338   3.719
 9486W        W74471   5.255  42.430   3.859
 9487W        W74472  20.004  34.873  14.787
 9488W        W74473  40.081  20.180  10.462
 9489W        W74474  16.762  14.599  14.290
 9490W        W74475  14.221  13.031  12.499
 9491W        W74476   7.692   1.666  14.133
 9492W        W74477   4.709  28.676  14.821
 9493W        W74478  35.515  29.035   4.114
 9494W        W74479  17.189  24.468   3.746
 9495W        W74480  41.765   3.539   3.311
 9496W        W74481  11.106   6.238  11.252
 9497W        W74482  28.037  35.475   2.313
 9498W        W74483   2.258  32.498   4.864
 9499W        W74484   9.779  29.499  10.629
 9500W        W74485   7.211  14.767  13.177
 9501W        W74486  33.163  43.224   1.013
 9502W        W74487  27.755  13.885  11.071
 9503W        W74488  18.052  20.838   0.235
 9504W        W74489  35.904  28.001  10.746
 9505W        W74490  14.034   0.878  10.674
 9506W        W74491  38.188  43.236   0.970
 9507W        W74492  44.721   4.096   0.248
 9508W        W74493  17.655  43.132  11.432
 9509W        W74494   0.467  12.788  12.464
 9510W        W74495  26.956  35.490  13.811
 9511W        W74496  38.446  34.665   3.255
 9512W        W74497  28.573  25.296  14.833
 9513W        W74498  20.502  14.927  10.600
 9514W        W74499   5.316  23.480   4.296
 9515W        W74500  38.090   5.463   0.010
 9516W        W74501  24.938  20.649  14.416
 9517W        W74502  11.255  26.552  10.340
 9518W        W74503   6.846  38.211  11.114
 9519W        W74504  24.166  23.507   2.094
 9520W        W74505  14.627  10.726   1.762
 9521W        W74506  26.517  26.421  10.143
 9522W        W74507  44.245  21.744  11.920
 9523W        W74508  25.462  24.674   0.183
 9524W        W74509   7.255  23.723   4.794
 9525W        W74510  33.409  34.543   2.418
 9526W        W74511  23.568   4.124  13.570
 9527W        W74512  12.297  39.058   0.842
 9528W        W74513  10.860  15.986  13.912
 9529W        W74514  31.488  32.328  14.985
 9530W        W74515   3.883  30.430  13.912
 9531W        W74516  17.316   0.915   5.122
 9532W        W74517  10.407  43.338   4.229
 9533W        W74518  31.136   1.843   4.059
 9534W        W74519  34.436   3.114  10.493
 9535W        W74520  31.538  41.942   0.823
 9536W        W74521  16.347  37.994  14.883
 9537W        W74522   1.302  10.906   2.598
 9538W        W74523  40.048   0.758  14.199
 9539W        W74524  35.578  13.324  12.545
 9540W        W74525  10.187  19.782  13.385
 9541W        W74526  39.716  20.255  14.953
 9542W        W74527  39.064  28.863   2.902
 9543W        W74528  28.201  38.175  11.589
 9544W        W74529  20.293  11.715   4.403
 9545W        W74530  32.007  17.304   3.598
 9546W        W74531  21.081  37.070   4.668
 9547W        W74532  42.465  22.383  14.979
 9548W        W74533  41.326  21.168   5.015
 9549W        W74534  42.793  15.299  14.716
 9550W        W74535  38.094   3.351   1.510
 9551W        W74536  40.061  30.102  11.431
 9552W        W74537  36.435  21.526  10.929
 9553W        W74538   4.141  41.503   2.169
 9554W        W74539   2.860   5.648   2.258
 9555W        W74540  35.252  34.508   2.881
 9556W        W74541   6.306   0.330  11.960
 9557W        W74542   7.218  42.982  10.654
 9558W        W74543  44.003  24.899  11.930
 9559W        W74544  19.736   4.920  13.790
 9560W        W74545  25.719  31.396   1.833
 9561W        W74546  25.956  10.206  12.148
 9562W        W74547   0.948  41.624  14.549
 9563W        W74548  42.964  30.677   2.723
 9564W        W74549   4.898   6.408  14.902
 9565W        W74550  18.117  26.502   2.048
 9566W        W74551   6.088  42.721  13.102
 9567W        W74552  31.333  29.662   1.642
 9568W        W74553  41.460  16.128  14.362
 9569W        W74554  38.704   1.441   3.799
 9570W        W74555  41.456  28.034   0.218
 9571W        W74556  15.186  33.362  12.587
 9572W        W74557  22.642  34.926  14.590
 9573W        W74558  18.116  25.688  13.889
 9574W        W74559  14.165  43.392   1.750
 9575W        W74560  35.844  42.954  12.138
 9576W        W74561  31.170  35.030  13.782
 9577W        W74562  43.864  18.316   3.682
 9578W        W74563  24.035  38.321  13.344
 9579W        W74564   9.709   5.470  11.236
 9580W        W74565   2.844  28.599  13.429
 9581W        W74566   2.332  17.153  12.939
 9582W        W74567  39.815  30.244  11.027
 9583W        W74568  15.971  13.736   4.141
 9584W        W74569  41.804  21.697  10.569
 9585W        W74570  15.405  15.243  11.527
 9586W        W74571  42.535  20.325   0.919
 9587W        W74572  23.929   5.186  12.616
 9588W        W74573  11.741   8.048  13.621
 9589W        W74574  17.547  13.755  13.986
 9590W        W74575  35.396  22.794  12.950
 9591W        W74576  33.573  44.314   2.010
 9592W        W74577  25.859  32.960   0.376
 9593W        W74578  18.755  16.139   1.411
 9594W        W74579  38.110  35.482  13.456
 9595W        W74580  15.808  41.436  11.619
 9596W        W74581  18.540  23.323  11.842
 9597W        W74582  28.087   9.326  10.766
 9598W        W74583  31.942   8.908   0.822
 9599W        W74584  37.882  23.597  10.310
 9600W        W74585  30.935  13.839   2.811
 9601W        W74586  19.117  41.749   1.570
 9602W        W74587  42.424  41.509  13.602
 9603W        W74588  25.926   9.898   3.301
 9604W        W74589  29.118  27.805  11.004
 9605W        W74590  35.564  12.300  10.909
 9606W        W74591  25.008   4.039   3.632
 9607W        W74592  25.684   4.444  12.823
 9608W        W74593  42.293   0.022  14.171
 9609W        W74594  38.131  31.691   1.861
 9610W        W74595  21.916  11.700  14.578
 9611W        W74596  19.312  14.731   2.195
 9612W        W74597  31.511  36.672   5.083
 9613W        W74598   5.938  22.111   2.740
 9614W        W74599  38.572  42.388   2.465
 9615W        W74600  39.473  18.297   0.520
 9616W        W74601   3.427  12.348  13.429
 9617W        W74602  41.312  15.295  11.657
 9618W        W74603  42.637  37.550   3.390
 9619W        W74604  35.381  26.102   1.392
 9620W        W74605  14.805   3.943  13.926
 9621W        W74606  42.375  18.711   4.133
 9622W        W74607  34.112  40.551   2.369
 9623W        W74608  43.316  13.235   1.819
 9624W        W74609  12.517  20.095  12.546
 9625W        W74610   7.643  14.854  12.913
 9626W        W74611  19.172  29.995   2.281
 9627W        W74612  15.708   6.352   0.682
 9628W        W74613  16.539  23.462   0.378
 9629W        W74614  36.461  24.506  14.040
 9630W        W74615  31.117   1.446  10.587
 9631W        W74616  29.549  38.451  14.812
 9632W        W74617   0.876  10.186   0.097
 9633W        W74618  32.353   3.649   4.929
 9634W        W74619  24.239  33.599   1.803
 9635W        W74620  17.581  38.304   4.171
 9636W        W74621  20.678   1.596   3.631
 9637W        W74622  28.484  14.194   1.577
 9638W        W74623  11.407  27.622  11.851
 9639W        W74624  26.232  35.425   2.627
 9640W        W74625   5.206  16.150  11.918
 9641W        W74626  26.561  36.193   9.641
 9642W        W74627  42.837  29.145   4.627
 9643W        W74628  37.042  12.320  14.831
 9644W        W74629  18.718  14.117  11.935
 9645W        W74630  40.708  33.351   3.702
 9646W        W74631   4.944  42.424   1.094
 9647W        W74632   3.309   5.351  14.379
 9648W        W74633  33.856  31.861  12.623
 9649W        W74634  11.054  29.911  14.956
 9650W        W74635   5.509  26.754   2.199
 9651W        W74636  16.227  26.191  10.230
 9652W        W74637  16.112  13.119  13.490
 9653W        W74638  27.573  37.095   4.863
 9654W        W74639   8.666  27.454   3.695
 9655W        W74640  32.032  43.514  11.984
 9656W        W74641  18.030  42.516   3.207
 9657W        W74642  14.149  25.964  11.233
 9658W        W74643  42.562  23.548  11.694
 9659W        W74644  13.209  26.427  12.339
 9660W        W74645  15.815  41.988   1.400
 9661W        W74646   9.170   8.253  13.520
 9662W        W74647  26.236  35.615   4.804
 9663W        W74648  16.169  41.298   4.120
 9664W        W74649   4.902   5.885  14.837
 9665W        W74650  15.221  38.548  14.511
 9666W        W74651   7.096   9.263   4.650
 9667W        W74652  40.223   0.216   4.243
 9668W        W74653   0.061   3.923  12.216
 9669W        W74654  17.525  41.233  12.830
 9670W        W74655  35.212  41.575  12.861
 9671W        W74656  19.654  38.009   4.629
 9672W        W74657  42.425  28.478   1.766
 9673W        W74658  21.151  11.731  13.906
 9674W        W74659  25.734  26.658  11.462
 9675W        W74660  32.529  10.217   4.022
 9676W        W74661   3.386  41.339  14.810
 9677W        W74662  16.108   4.207   4.355
 9678W        W74663  30.867  13.352   2.661
 9679W        W74664  33.340   0.313  10.603
 9680W        W74665  24.569  35.799  11.008
 9681W        W74666   8.462  44.691  11.988
 9682W        W74667  35.445   9.148   0.997
 9683W        W74668  30.601  41.959  14.251
 9684W        W74669   6.857  34.047  12.364
 9685W        W74670  43.085  24.955   4.847
 9686W        W74671  37.598  40.235  10.683
 9687W        W74672   1.214  23.159   2.294
 9688W        W74673  21.115  35.362   4.334
 9689W        W74674  18.168   4.551   0.315
 9690W        W74675  33.918  23.565   4.049
 9691W        W74676  44.679  41.403   1.833
 9692W        W74677  10.652  24.804   4.551
 9693W        W74678  12.957  32.400  11.577
 9694W        W74679  18.342  38.901  13.213
 9695W        W74680  19.383  11.845  13.115
 9696W        W74681  36.529  33.173   2.424
 9697W        W74682  38.348  14.237  14.801
 9698W        W74683  26.193  27.029   2.183
 9699W        W74684   7.756  40.906   0.942
 9700W        W74685  23.221   5.454   2.101
 9701W        W74686  26.444  10.469   1.254
 9702W        W74687   7.224  19.746   1.664
 9703W        W74688  43.061   2.501   1.580
 9704W        W74689   3.761  11.826  11.713
 9705W        W74690  16.363  30.143   1.835
 9706W        W74691  31.193  16.466  12.554
 9707W        W74692   5.900  20.552  12.895
 9708W        W74693  33.200  21.642   2.213
 9709W        W74694  22.219  35.434   4.476
 9710W        W74695   2.767  31.871   1.801
 9711W        W74696  13.258  31.004   2.246
 9712W        W74697   5.780  33.944   3.280
 9713W        W74698  42.083  29.538  11.910
 9714W        W74699  38.164   1.196  13.029
 9715W        W74700  26.196  16.755   0.308
 9716W        W74701  16.841  36.012   4.780
 9717W        W74702  11.686  16.975   0.949
 9718W        W74703  41.916  10.478  13.974
 9719W        W74704  27.090   0.674  12.362
 9720W        W74705   7.491  11.227   4.203
 9721W        W74706  40.762  39.603   2.638
 9722W        W74707   7.702  34.936  14.303
 9723W        W74708  36.824  10.199  12.128
 9724W        W74709   3.443   7.641  14.840
 9725W        W74710  42.768  18.266   0.333
 9726W        W74711   6.447  42.434   1.772
 9727W        W74712  19.103  19.034  13.607
 9728W        W74713  42.199  10.295  12.020
 9729W        W74714  13.200   9.937  11.972
 9730W        W74715  38.211  35.412  14.326
 9731W        W74716  31.424   9.424  14.170
 9732W        W74717  37.570   3.665   1.852
 9733W        W74718  37.635  36.001   2.482
 9734W        W74719   4.842  41.285   0.021
 9735W        W74720   4.633  20.980  11.244
 9736W        W74721  11.368  31.565  14.263
 9737W        W74722  41.946  44.318  14.276
 9738W        W74723   5.826  44.883  14.425
 9739W        W74724   1.001  22.256  14.953
 9740W        W74725  35.562   9.582  14.786
 9741W        W74726  18.155   8.792   3.207
 9742W        W74727  27.418  10.316  14.909
 9743W        W74728  18.522  15.642   3.310
 9744W        W74729  34.513   5.918   2.148
 9745W        W74730   2.742  29.703   0.345
 9746W        W74731  22.644  38.002   0.753
 9747W        W74732   3.735  30.349   4.508
 9748W        W74733   5.887   2.335  14.527
 9749W        W74734  22.174  28.158   2.398
 9750W        W74735  12.564   1.197   1.306
 9751W        W74736   8.388  29.605  10.656
 9752W        W74737  44.906  17.786  14.735
 9753W        W74738  33.937  44.540  13.325
 9754W        W74739  31.841  23.692  11.633
 9755W        W74740  13.770   5.887   1.231
 9756W        W74741   3.364  31.561  13.441
 9757W        W74742  15.781  43.117   3.575
 9758W        W74743   8.193  28.073   3.774
 9759W        W74744   9.214  20.154   3.778
 9760W        W74745  39.810   0.845   0.031
 9761W        W74746  26.510  16.728   3.644
 9762W        W74747  36.092  22.029  11.998
 9763W        W74748   2.220  35.093   2.611
 9764W        W74749  44.425  43.167  10.154
 9765W        W74750  14.428  21.092  13.041
 9766W        W74751   0.552   4.476   1.345
 9767W        W74752  22.735  18.064   2.781
 9768W        W74753   9.698   9.677   3.333
 9769W        W74754  27.653   6.085  11.982
 9770W        W74755   5.765  19.148  12.463
 9771W        W74756   2.622  23.736  12.920
 9772W        W74757  22.207  35.549   3.431
 9773W        W74758  42.573   3.224   1.867
 9774W        W74759  32.948  29.453   3.786
 9775W        W74760  19.458  31.627  13.698
 9776W        W74761   3.811  14.824   4.973
 9777W        W74762  12.867  36.812  14.448
 9778W        W74763  43.482  25.951  14.820
 9779W        W74764  12.429  10.137   1.934
 9780W        W74765  19.105  21.808   4.520
 9781W        W74766  27.996  18.329   2.226
 9782W        W74767  25.705  36.412  14.276
 9783W        W74768  37.560  36.071   3.349
 9784W        W74769  25.936   2.967   3.318
 9785W        W74770   5.573  17.628  14.288
 9786W        W74771  33.958   6.409  13.640
 9787W        W74772  40.785   6.857  14.451
 9788W        W74773   3.910  15.588  14.323
 9789W        W74774  24.379   6.479   1.853
 9790W        W74775  18.709  12.046   1.289
 9791W        W74776  17.316  41.778  13.931
 9792W        W74777  33.512  34.803   1.374
 9793W        W74778  26.288  20.906  11.154
 9794W        W74779  13.332  12.505  11.636
 9795W        W74780   9.580  32.061   3.012
 9796W        W74781   2.344  23.974  12.514
 9797W        W74782  12.285  44.973   4.047
 9798W        W74783   3.822  35.665  10.693
 9799W        W74784   0.624  21.981  11.868
 9800W        W74785  36.043  33.439  12.990
 9801W        W74786  31.087  42.348   3.236
 9802W        W74787  26.310  27.636   4.686
 9803W        W74788   2.012  11.378  13.637
 9804W        W74789  40.460  27.890   2.654
 9805W        W74790   6.733  22.894   3.401
 9806W        W74791  28.719  43.470   2.206
 9807W        W74792  42.808  31.582   1.331
 9808W        W74793  39.873  29.886   2.876
 9809W        W74794  28.506   0.172   0.786
 9810W        W74795  26.210  39.487  14.822
 9811W        W74796   4.421   7.366  11.464
 9812W        W74797  33.678   6.838   2.618
 9813W        W74798  38.529  22.507   0.267
 9814W        W74799  38.783   5.231   2.321
 9815W        W74800  36.535  38.421   4.430
 9816W        W74801  27.532   7.271  11.971
 9817W        W74802  18.258   6.178   1.735
 9818W        W74803  15.082   7.727   4.033
 9819W        W74804  21.694   1.834   4.698
 9820W        W74805  10.444  20.240   3.207
 9821W        W74806   5.948  41.946   0.897
 9822W        W74807  42.512   5.454  11.044
 9823W        W74808  17.694   2.095   3.728
 9824W        W74809   4.285  19.796   1.266
 9825W        W74810  40.280  39.976  11.155
 9826W        W74811  30.662  33.623  14.647
 9827W        W74812  10.688  33.428  14.425
 9828W        W74813  37.200  40.291  12.865
 9829W        W74814   1.790  33.627  12.846
 9830W        W74815   7.104  21.191   0.773
 9831W        W74816  16.734   0.798  11.109
 9832W        W74817  19.541   9.616  12.512
 9833W        W74818  11.174  39.812   4.586
 9834W        W74819  15.145   8.106   2.237
 9835W        W74820   3.227  24.198  14.652
 9836W        W74821  33.630   0.217   1.854
 9837W        W74822  27.984  33.492  13.060
 9838W        W74823   1.030  14.783  12.403
 9839W        W74824  37.015  13.586   0.475
 9840W        W74825  17.700  39.090   0.834
 9841W        W74826  16.272  44.334   4.331
 9842W        W74827  24.715  38.876  13.536
 9843W        W74828   3.956  28.111   2.260
 9844W        W74829   7.189  16.816  12.429
 9845W        W74830  16.003  27.696   2.280
 9846W        W74831   3.559  11.824   1.915
 9847W        W74832  39.469  12.812  13.447
 9848W        W74833  31.765  30.558   0.465
 9849W        W74834   3.987  43.792   2.234
 9850W        W74835  39.024  18.997   3.268
 9851W        W74836  27.581  44.309   2.438
 9852W        W74837  43.397   4.808   1.471
 9853W        W74838  12.674  14.960   5.099
 9854W        W74839   6.915  15.145   2.249
 9855W        W74840  39.538  43.282   1.883
 9856W        W74841   8.294  13.939   4.733
 9857W        W74842  27.606  30.642  14.960
 9858W        W74843  42.822  12.873  12.006
 9859W        W74844  17.169   9.097  11.815
 9860W        W74845  35.627   4.733   0.344
 9861W        W74846  15.511  36.819   3.821
 9862W        W74847  22.138  31.916   2.007
 9863W        W74848  28.224  35.350   4.198
 9864W        W74849  28.866  28.146  12.009
 9865W        W74850   7.949  41.259  10.793
 9866W        W74851  22.581   9.998   2.281
 9867W        W74852  27.618   9.688  11.498
 9868W        W74853   1.984  12.438  14.428
 9869W        W74854  19.361  37.832  13.446
 9870W        W74855  11.730   0.289   0.835
 9871W        W74856   7.319  41.066   1.366
 9872W        W74857  17.796  42.417   0.953
 9873W        W74858   2.182  15.164  14.279
 9874W        W74859  22.129   3.431  14.138
 9875W        W74860  33.882  18.083   0.845
 9876W        W74861  12.411  12.897   3.060
 9877W        W74862  10.984  34.506   4.289
 9878W        W74863  16.670   9.387   3.256
 9879W        W74864   8.213  37.078  10.497
 9880W        W74865  24.927  21.709   3.100
 9881W        W74866  30.689  17.595  13.729
 9882W        W74867   1.456  21.613  10.399
 9883W        W74868   8.860  26.374   1.189
 9884W        W74869  19.086  26.667  10.438
 9885W        W74870   2.081  33.988  10.706
 9886W        W74871  36.591   7.732   4.142
 9887W        W74872  36.097  14.594   0.372
 9888W        W74873  43.265   0.211   4.127
 9889W        W74874  20.233   8.159   0.357
 9890W        W74875  25.337   0.994   3.922
 9891W        W74876   9.653  32.994   3.997
 9892W        W74877   8.685  25.121  10.259
 9893W        W74878  15.320   8.185   4.066
 9894W        W74879  17.462  44.300  12.618
 9895W        W74880  38.325  29.938  13.232
 9896W        W74881  23.657  37.093  13.349
 9897W        W74882  26.567  32.710   3.160
 9898W        W74883  44.258   2.900  12.868
 9899W        W74884  13.160  22.168  11.541
 9900W        W74885  10.854  37.811  11.930
 9901W        W74886  39.050  18.479   3.235
 9902W        W74887  37.034  16.332   1.073
 9903W        W74888   7.834   4.814  12.680
 9904W        W74889  21.508  10.291   4.203
 9905W        W74890  41.737  39.970   1.855
 9906W        W74891   4.627   0.909  12.886
 9907W        W74892  25.746   5.860  12.603
 9908W        W74893  22.001  37.871   2.693
 9909W        W74894  29.945  41.210  12.022
 9910W        W74895   5.426  10.650  12.495
 9911W        W74896  37.012   9.359   5.341
 9912W        W74897  26.186  26.754   4.942
 9913W        W74898  10.158  35.655   3.706
 9914W        W74899  16.701  19.354   9.931
 9915W        W74900  24.812  33.967   0.244
 9916W        W74901   3.877   4.650  13.219
 9917W        W74902  26.210  39.964   0.571
 9918W        W74903  16.090  35.475   1.898
 9919W        W74904  44.751  34.077   4.910
 9920W        W74905  10.077  19.742  10.747
 9921W        W74906  11.765   1.998  14.399
 9922W        W74907  37.328   1.887  14.485
 9923W        W74908  29.098  42.390   2.726
 9924W        W74909  35.380   8.619   0.948
 9925W        W74910   1.341  11.417   2.683
 9926W        W74911  32.413   5.070  10.510
 9927W        W74912  10.166   2.521  11.927
 9928W        W74913  41.512  24.463   0.910
 9929W        W74914   9.987  25.957   2.277
 9930W        W74915  20.340  28.593  12.069
 9931W        W74916  14.782  40.508  10.679
 9932W        W74917   6.303  11.062  10.812
 9933W        W74918  26.953  32.593   2.711
 9934W        W74919  30.352  12.695   2.334
 9935W        W74920  38.437  31.161   2.442
 9936W        W74921  26.271  19.541   0.739
 9937W        W74922   3.389  13.300   4.982
 9938W        W74923  43.472   8.859  10.524
 9939W        W74924   3.861  29.866   2.694
 9940W        W74925   2.810   8.193  13.086
 9941W        W74926   4.369  29.284  13.359
 9942W        W74927  15.126  28.558   1.738
 9943W        W74928  40.380  41.686   2.455
 9944W        W74929  29.015  24.569  10.644
 9945W        W74930  21.561  20.244   4.709
 9946W        W74931   4.295  14.910   1.340
 9947W        W74932  38.228  18.547   3.661
 9948W        W74933  42.130  23.168   3.784
 9949W        W74934  19.453  21.538   9.960
 9950W        W74935  40.284  44.485   0.676
 9951W        W74936  28.130  20.956   0.943
 9952W        W74937  17.743  42.455   1.458
 9953W        W74938  37.410  29.564   0.280
 9954W        W74939  38.948  11.670   2.889
 9955W        W74940   0.807  36.803   2.335
 9956W        W74941  43.952   6.578  14.950
 9957W        W74942  36.154  20.159   1.971
 9958W        W74943   1.023  17.612   3.863
 9959W        W74944  12.091  29.506   2.749
 9960W        W74945  30.855  36.343   4.240
 9961W        W74946  24.546  15.033  14.581
 9962W        W74947   8.809  41.401  10.910
 9963W        W74948  37.565   9.924   4.108
 9964W        W74949  18.907   4.969   1.870
 9965W        W74950   1.251  27.766   3.130
 9966W        W74951  28.065  25.669   1.366
 9967W        W74952  16.101   0.431   2.763
 9968W        W74953   8.703  10.389  12.391
 9969W        W74954  24.927  31.932   0.870
 9970W        W74955  42.817  37.763  14.700
 9971W        W74956   3.282   7.848   0.397
 9972W        W74957  24.640  37.354  14.378
 9973W        W74958  41.872  24.932  12.032
 9974W        W74959  16.750  36.950   4.115
 9975W        W74960  21.762  35.439   0.171
 9976W        W74961  15.181   8.091  12.361
 9977W        W74962  32.841  23.606  11.571
 9978W        W74963  24.097   5.390   2.393
 9979W        W74964  42.779  42.463   4.527
 9980W        W74965   2.765  39.729   2.279
 9981W        W74966  13.002  19.838   3.923
 9982W        W74967   4.232  43.931   0.653
 9983W        W74968  15.131  25.522  14.798
 9984W        W74969  34.633  18.144  12.540
 9985W        W74970  35.218   1.343   0.467
 9986W        W74971   2.695  25.078  11.879
 9987W        W74972  21.739   9.826   0.410
 9988W        W74973  26.462  42.338   1.382
 9989W        W74974   1.159  40.429  14.976
 9990W        W74975  33.169  18.237   3.294
 9991W        W74976  29.893  27.160   0.421
 9992W        W74977  41.109  34.201  12.519
 9993W        W74978   1.087  17.580  13.270
 9994W        W74979  29.169  21.548   1.426
 9995W        W74980  43.220  21.217  10.990
 9996W        W74981  43.494  19.087  12.577
 9997W        W74982  32.010  21.979  12.611
 9998W        W74983  22.767  27.389   2.739
 9999W        W74984  33.663  30.128  11.006
10000W        W74985  23.244  27.148  13.443
10001W        W74986  28.461  24.917   0.233
10002W        W74987  43.778  24.267   3.328
10003W        W74988  26.653   7.144   1.412
10004W        W74989  28.998   3.109  14.960
10005W        W74990  11.826  25.984  12.954
10006W        W74991   2.864  16.155   1.298
10007W        W74992  37.945   4.937  12.984
10008W        W74993  26.797  10.326  11.843
10009W        W74994  10.822  34.120   0.751
10010W        W74995  43.400  44.521  14.966
10011W        W74996  39.920  41.931   1.461
10012W        W74997  22.547  17.267  11.603
10013W        W74998  11.384  39.794  13.381
10014W        W74999  41.885  17.818  14.766
10015W        W75000  27.698  28.511   0.482
10016W        W75001   2.460   4.365   2.733
10017W        W75002  22.898   7.794  11.268
10018W        W75003   7.393  21.083  11.838
10019W        W75004   8.638  23.760  13.080
10020W        W75005  23.243   7.302   4.226
10021W        W75006   6.354   1.748   4.598
10022W        W75007  36.046  43.722   0.998
10023W        W75008  31.098  35.014   4.609
10024W        W75009  21.713  39.367   3.636
10025W        W75010  29.573  13.883   0.841
10026W        W75011  13.586  11.349  14.232
10027W        W75012  13.531  36.938   3.781
10028W        W75013  24.022  23.729   4.202
10029W        W75014  11.975  12.545   0.853
10030W        W75015   1.316  12.051   2.332
10031W        W75016  16.317   8.125   4.135
10032W        W75017  27.424  10.683  13.595
10033W        W75018  22.277  25.681   3.290
10034W        W75019  41.226  29.750  12.960
10035W        W75020  26.715   7.597   4.202
10036W        W75021   3.902  20.447  14.820
10037W        W75022   3.204  13.270  11.615
10038W        W75023   3.289   7.836   3.435
10039W        W75024  26.333  18.029   3.568
10040W        W75025  15.265   7.845   3.551
10041W        W75026  20.282  12.687   4.904
10042W        W75027  21.948  16.141  12.918
10043W        W75028   0.283   4.501   0.372
10044W        W75029   0.559  24.120   4.599
10045W        W75030  40.111  19.136   4.598
10046W        W75031  20.651  36.913   0.881
10047W        W75032  41.390  28.037  11.930
10048W        W75033  11.342  19.540   4.711
10049W        W75034  40.249  44.255  13.430
10050W        W75035  39.554   1.247   3.581
10051W        W75036  34.546   8.725   0.808
10052W        W75037  19.950  21.556   4.575
10053W        W75038  39.805  33.931   4.619
10054W        W75039  44.271  32.361  14.905
10055W        W75040  24.536   3.770  11.114
10056W        W75041  25.465   0.950  11.731
10057W        W75042  42.878  34.586  14.442
10058W        W75043   6.955  44.818  12.080
10059W        W75044  40.464   3.987   1.029
10060W        W75045  27.935  20.785  12.415
10061W        W75046   8.400  33.188   1.767
10062W        W75047   8.344  14.141  14.549
10063W        W75048  16.312   4.713   2.724
10064W        W75049  33.612  12.339  11.060
10065W        W75050   5.280  44.012  11.423
10066W        W75051   2.312  27.534  14.022
10067W        W75052  30.104  39.059   1.264
10068W        W75053  38.420  40.104   0.467
10069W        W75054  12.062  40.984   0.400
10070W        W75055   7.781  23.133  10.659
10071W        W75056  44.190  12.741   4.050
10072W        W75057  13.839  44.426  13.807
10073W        W75058   1.390  37.933   4.741
10074W        W75059  14.845  16.610  13.464
10075W        W75060  40.041  43.975   2.571
10076W        W75061  25.433  21.075  11.945
10077W        W75062  44.819  22.000  10.756
10078W        W75063  34.997  20.171  12.464
10079W        W75064  16.069  28.549   0.968
10080W        W75065  22.218  14.578   4.664
10081W        W75066  33.641  21.518  14.520
10082W        W75067  38.121   6.224   3.949
10083W        W75068  28.013  12.158  12.928
10084W        W75069  34.467   9.393  11.438
10085W        W75070  14.624  27.961   1.360
10086W        W75071   2.506  40.590   2.326
10087W        W75072  18.573  43.863  12.876
10088W        W75073   9.822  29.085   4.755
10089W        W75074  21.229  16.714   2.846
10090W        W75075  24.126   2.257  11.632
10091W        W75076  35.412  32.063   4.599
10092W        W75077  36.310  41.328   4.615
10093W        W75078  17.279  36.052   0.256
10094W        W75079  19.560  25.791  11.494
10095W        W75080  12.647  30.162   4.611
10096W        W75081  24.640   7.202  12.175
10097W        W75082   6.653   3.416  14.568
10098W        W75083  20.040  24.196  14.308
10099W        W75084  44.940  19.519  10.661
10100W        W75085  17.748  32.663  14.449
10101W        W75086  39.521  34.054   2.283
10102W        W75087   6.176  12.911   2.793
10103W        W75088   7.243   5.920   0.486
10104W        W75089  21.092  25.578   0.960
10105W        W75090  20.546  40.192   2.836
10106W        W75091  20.519  25.575  12.896
10107W        W75092  14.584   1.585  12.965
10108W        W75093  10.698  10.604   4.200
10109W        W75094   1.556  34.872   2.975
10110W        W75095  26.029  16.312  12.944
10111W        W75096  39.000  27.240   0.348
10112W        W75097  30.576  38.296  13.589
10113W        W75098  29.932  19.551   1.371
10114W        W75099  44.613  12.180   3.767
10115W        W75100  18.589  16.413   1.860
10116W        W75101  10.839  34.016  11.415
10117W        W75102  44.594  21.315  12.862
10118W        W75103   6.057   2.733   4.148
10119W        W75104  40.299   4.714   3.761
10120W        W75105  34.119   7.868  11.170
10121W        W75106   4.961  40.638   4.152
10122W        W75107  43.456  22.872  11.137
10123W        W75108  33.191  29.951   4.588
10124W        W75109   3.202   7.805  12.327
10125W        W75110  12.098  18.719  14.213
10126W        W75111   3.801  33.289   0.629
10127W        W75112   2.240  43.602  13.380
10128W        W75113  24.963   2.253  13.884
10129W        W75114  29.989  43.702   3.450
10130W        W75115  44.265  40.422   1.380
10131W        W75116  31.390  40.598  13.465
10132W        W75117  36.046  43.984  14.545
10133W        W75118  20.493   6.908   3.658
10134W        W75119  25.462  15.049  13.875
10135W        W75120  29.828  33.019  11.579
10136W        W75121  43.363  29.093  10.633
10137W        W75122  23.153  33.836  11.064
10138W        W75123   5.394  33.981  11.174
10139W        W75124  38.283  13.821   0.489
10140W        W75125  42.702  32.005   1.845
10141W        W75126  26.347  22.609   5.068
10142W        W75127  23.979   9.137  14.927
10143W        W75128  41.302  18.575   4.187
10144W        W75129  29.968  15.862   1.883
10145W        W75130  19.551  42.791  13.001
10146W        W75131   6.682  19.222  12.454
10147W        W75132  18.996   1.304   3.176
10148W        W75133  13.889  42.923  12.878
10149W        W75134  44.238  32.886  14.925
10150W        W75135  15.079   6.323  12.606
10151W        W75136  21.060   6.660  10.642
10152W        W75137  30.730  13.754  14.566
10153W        W75138  15.489  12.186  14.792
10154W        W75139  28.027   7.866   3.924
10155W        W75140   3.389   9.701  11.702
10156W        W75141  43.446   6.524   1.815
10157W        W75142  11.733  21.580   4.046
10158W        W75143  43.038  38.469  11.973
10159W        W75144  38.343  23.658  14.038
10160W        W75145  17.319  30.093  13.454
10161W        W75146  37.474  14.989   2.321
10162W        W75147  19.298  32.585  14.798
10163W        W75148   1.034  29.573   1.783
10164W        W75149  40.304   1.273   0.425
10165W        W75150  13.190  34.460  12.913
10166W        W75151  20.161   1.708  12.992
10167W        W75152  20.812  40.405   1.209
10168W        W75153   6.036   5.962   0.889
10169W        W75154  20.981  40.887   2.319
10170W        W75155  13.385   2.297   4.628
10171W        W75156  16.279  39.973  12.864
10172W        W75157  24.128  15.086   3.649
10173W        W75158   7.829  30.447  14.970
10174W        W75159   7.017  17.689  14.513
10175W        W75160  22.271  42.743  11.920
10176W        W75161  42.012  43.795  14.415
10177W        W75162  34.159  16.282  14.936
10178W        W75163  42.455  43.045  12.552
10179W        W75164  36.499  27.626   3.199
10180W        W75165  27.656  14.328  10.791
10181W        W75166  28.405  14.879   4.596
10182W        W75167  22.534  35.112   3.967
10183W        W75168   5.569   0.495   2.252
10184W        W75169  13.850   2.002  12.172
10185W        W75170   6.389  37.841  12.851
10186W        W75171  20.537  11.368  12.870
10187W        W75172  19.712   2.382  10.878
10188W        W75173  30.626  18.206  12.005
10189W        W75174  29.075  13.541  10.765
10190W        W75175  34.325   9.241   0.038
10191W        W75176   1.931   4.306  14.268
10192W        W75177  18.431   0.961  11.181
10193W        W75178  16.442   8.972  10.947
10194W        W75179  22.943  22.619  13.533
10195W        W75180  10.486   1.334   3.661
10196W        W75181   0.321  35.387   3.023
10197W        W75182  13.164  22.482  12.987
10198W        W75183  40.032  21.239   2.831
10199W        W75184   5.248  33.391   5.018
10200W        W75185  26.996  43.501   1.802
10201W        W75186  43.782  39.268   2.383
10202W        W75187  21.506  15.325   4.054
10203W        W75188  23.513   5.521   3.658
10204W        W75189  43.438  33.585  11.966
10205W        W75190  24.645  32.992  12.141
10206W        W75191  18.270  39.383  10.949
10207W        W75192  10.830   4.750   9.590
10208W        W75193   6.920   2.066  10.396
10209W        W75194  35.097   3.209  14.925
10210W        W75195  22.691  23.123   2.539
10211W        W75196  43.548  13.869   3.598
10212W        W75197  16.710  16.624   4.711
10213W        W75198  23.261  26.715   3.193
10214W        W75199  43.469  25.071  14.944
10215W        W75200   2.004  40.008  10.836
10216W        W75201  20.087  29.382   1.267
10217W        W75202  36.453  36.041   3.268
10218W        W75203   3.589   8.925   5.223
10219W        W75204  30.494  32.929   4.271
10220W        W75205  23.513   8.815   0.337
10221W        W75206  30.882  30.207   2.370
10222W        W75207  40.465  35.381  12.531
10223W        W75208   4.112   6.692   1.150
10224W        W75209  20.204  41.628   4.108
10225W        W75210   7.286   8.766   3.251
10226W        W75211   9.307  35.321  14.748
10227W        W75212  32.929  27.303  12.106
10228W        W75213  25.655  44.389  13.966
10229W        W75214  14.623  44.226  13.567
10230W        W75215  21.134  39.934  13.354
10231W        W75216  10.234   8.208  10.755
10232W        W75217  14.541  15.797   2.353
10233W        W75218  25.534  20.420  11.210
10234W        W75219   6.476  39.224   2.355
10235W        W75220  35.410  41.432  12.365
10236W        W75221  38.856   3.455  12.350
10237W        W75222  29.617   1.776   4.182
10238W        W75223  31.117   1.480   1.375
10239W        W75224  18.850  15.912   0.710
10240W        W75225   6.610   7.927   3.702
10241W        W75226  34.445   6.779  13.212
10242W        W75227   2.998  31.107  14.325
10243W        W75228   3.771  35.041   2.709
10244W        W75229  24.004   6.352   0.014
10245W        W75230   9.639  16.129  12.064
10246W        W75231  32.488  19.721   4.742
10247W        W75232   2.496  24.012   3.635
10248W        W75233  23.801  14.311  12.031
10249W        W75234  27.152  18.106  13.453
10250W        W75235  27.256  14.078  11.076
10251W        W75236  21.145  31.413   4.123
10252W        W75237  27.203   1.871   0.775
10253W        W75238  39.388  24.945   2.791
10254W        W75239  33.919  23.342   2.681
10255W        W75240   6.108  35.576   0.232
10256W        W75241  31.182  28.619   2.384
10257W        W75242  37.855   3.850   1.400
10258W        W75243  10.246   3.299   2.212
10259W        W75244   9.887  20.939   4.110
10260W        W75245  28.577  24.390   0.316
10261W        W75246  31.976  26.294  13.965
10262W        W75247  37.505   8.396   4.198
10263W        W75248   0.006   0.749   2.839
10264W        W75249  10.668  39.811  13.887
10265W        W75250  31.731  30.850  14.776
10266W        W75251  36.524  33.825   3.762
10267W        W75252  19.076  34.401   2.677
10268W        W75253  30.615  16.092   2.655
10269W        W75254  30.670  13.793  14.007
10270W        W75255  27.895  19.449  14.836
10271W        W75256  22.810  37.669   3.212
10272W        W75257  17.190   0.272  14.482
10273W        W75258   3.102  21.994   3.538
10274W        W75259  42.627  36.807  13.784
10275W        W75260  38.576  21.747   3.974
10276W        W75261  29.936   7.616   1.765
10277W        W75262  22.303  25.068   3.819
10278W        W75263   8.861  27.680  12.329
10279W        W75264   9.369  24.535   0.633
10280W        W75265  29.339  24.426  12.051
10281W        W75266   8.233  12.669  10.513
10282W        W75267   5.635  17.340   0.371
10283W        W75268  39.608  29.133  14.130
10284W        W75269   0.284   0.298   1.119
10285W        W75270  16.554  14.129   4.457
10286W        W75271  23.793  13.907   0.885
10287W        W75272  21.345   2.166  11.504
10288W        W75273  42.515   0.964  12.578
10289W        W75274  39.831  32.855  11.904
10290W        W75275   3.339  35.582  12.519
10291W        W75276   6.354  30.852  12.081
10292W        W75277  36.984  19.993  13.566
10293W        W75278  12.781  15.908   2.743
10294W        W75279  28.437  32.911   1.256
10295W        W75280  27.500   7.190   3.846
10296W        W75281  24.595  41.571  13.945
10297W        W75282   7.993  32.603  12.205
10298W        W75283  39.893  27.602   0.877
10299W        W75284  15.156  11.796   0.806
10300W        W75285  30.711  12.244   1.410
10301W        W75286  34.430  21.728   0.947
10302W        W75287  28.949   2.222   1.521
10303W        W75288  39.272  20.605   2.388
10304W        W75289  22.757  22.072  12.610
10305W        W75290  32.564  12.392  12.873
10306W        W75291  25.659  41.786   0.340
10307W        W75292  28.228   5.399   4.548
10308W        W75293   3.935  32.032   1.509
10309W        W75294  36.382  40.604  12.777
10310W        W75295  29.629  28.580  14.448
10311W        W75296  15.655  35.943  14.111
10312W        W75297  40.801  39.891  13.914
10313W        W75298  10.874  40.536  13.310
10314W        W75299  22.934  23.607   0.219
10315W        W75300  22.154  40.581   1.007
10316W        W75301   5.293   0.460  13.371
10317W        W75302  28.488   7.796  12.117
10318W        W75303  44.794  32.029   3.113
10319W        W75304  12.110  17.420  14.780
10320W        W75305  21.668  11.993  12.974
10321W        W75306  41.377   4.353   0.176
10322W        W75307  24.157  42.465   2.976
10323W        W75308  21.488  10.769   0.045
10324W        W75309  40.435  34.867   1.301
10325W        W75310  22.530   5.410  12.102
10326W        W75311  14.205  34.907   1.970
10327W        W75312  43.819  37.061  12.044
10328W        W75313   5.459  19.962   4.023
10329W        W75314  10.339  22.981  11.665
10330W        W75315  36.006  25.580  14.831
10331W        W75316  16.098  43.050   0.764
10332W        W75317  36.946  18.059   2.851
10333W        W75318  10.861  38.845  11.112
10334W        W75319  38.614  37.669   0.293
10335W        W75320   8.572  17.564  10.657
10336W        W75321  39.289  41.358  14.254
10337W        W75322  22.211  18.180  11.082
10338W        W75323  35.010  39.309   3.825
10339W        W75324  43.099  27.434   4.431
10340W        W75325  28.651  24.823   4.152
10341W        W75326  33.628  22.687   4.101
10342W        W75327  29.752  14.860   1.741
10343W        W75328  35.997  10.764   0.437
10344W        W75329  41.410  44.464   1.881
10345W        W75330  25.660  23.038  10.795
10346W        W75331   9.813   7.864  10.800
10347W        W75332   7.362  10.829  11.336
10348W        W75333  27.536  24.035  10.918
10349W        W75334  11.430  33.849  13.420
10350W        W75335  35.136  17.665   3.731
10351W        W75336  34.577  26.096  12.943
10352W        W75337  30.772  33.339  14.181
10353W        W75338  39.025   7.631   2.446
10354W        W75339  15.579  16.590   1.761
10355W        W75340  27.734  39.974  14.207
10356W        W75341  36.286  33.879  13.963
10357W        W75342  39.355   8.601  14.308
10358W        W75343  32.862  36.739   2.848
10359W        W75344   4.771  42.858   3.237
10360W        W75345  20.752  21.023   3.709
10361W        W75346   7.397  23.027   0.265
10362W        W75347  43.867   2.021  14.280
10363W        W75348  44.286  13.589  12.814
10364W        W75349  13.146   7.839   1.975
10365W        W75350  36.126   5.737   4.121
10366W        W75351  44.337  15.018   4.114
10367W        W75352  10.958  43.271  11.388
10368W        W75353  28.205  21.531  12.985
10369W        W75354  20.205  21.586  14.708
10370W        W75355  34.537  30.168   0.467
10371W        W75356  17.187  16.295  13.552
10372W        W75357  27.708  34.623  13.108
10373W        W75358  24.046  26.741  14.790
10374W        W75359  12.215   0.284  10.906
10375W        W75360  15.320  26.457  12.011
10376W        W75361  13.496  18.340   1.220
10377W        W75362  10.634  43.328  13.905
10378W        W75363   6.897  14.124   0.290
10379W        W75364  10.388  25.746  12.876
10380W        W75365  28.035  11.614  11.630
10381W        W75366  11.236  14.085  14.321
10382W        W75367  12.322  20.045  14.333
10383W        W75368   1.740   4.110  10.878
10384W        W75369  37.207  17.595   1.919
10385W        W75370  15.102  19.798   3.598
10386W        W75371   1.514   0.018   1.238
10387W        W75372   3.787   7.783  13.514
10388W        W75373  19.842   8.270   1.966
10389W        W75374  27.921   9.153   2.674
10390W        W75375   8.387  21.700   4.595
10391W        W75376   4.899   0.589  14.880
10392W        W75377   9.584  38.285   2.145
10393W        W75378  34.024  40.080  11.746
10394W        W75379  39.997   2.711  13.081
10395W        W75380  10.485  13.672   3.668
10396W        W75381  23.567  27.942   3.602
10397W        W75382  26.167   7.656   1.919
10398W        W75383  38.360  26.697  12.086
10399W        W75384  23.173  11.112   1.334
10400W        W75385  19.501  21.600  11.264
10401W        W75386  21.859   4.388   2.857
10402W        W75387  32.078   7.413  10.373
10403W        W75388  25.334  43.342  14.129
10404W        W75389  21.733  16.712   4.422
10405W        W75390  42.229  23.278  14.933
10406W        W75391  36.978  36.177  14.608
10407W        W75392  31.651  33.218  14.046
10408W        W75393   8.259  27.245   4.818
10409W        W75394  28.486  23.496  10.648
10410W        W75395   7.583  18.735  10.800
10411W        W75396  17.349  18.609   1.834
10412W        W75397  36.972   1.730   3.695
10413W        W75398  16.425   7.179   1.658
10414W        W75399   7.637  19.585   1.928
10415W        W75400  10.903   6.674   5.042
10416W        W75401  42.327  44.538  12.642
10417W        W75402  12.698   1.627  12.304
10418W        W75403  33.098   7.874  14.969
10419W        W75404  19.725  24.951  11.105
10420W        W75405  36.123  20.415   5.061
10421W        W75406  37.400  44.053  13.828
10422W        W75407  12.346   5.259   4.604
10423W        W75408  14.116  38.776  11.465
10424W        W75409  27.150  16.275  14.000
10425W        W75410  22.724   5.139  12.983
10426W        W75411   2.616  41.374   1.940
10427W        W75412  28.914   8.094   2.318
10428W        W75413  42.260  43.811   4.790
10429W        W75414  30.227  24.411  13.789
10430W        W75415  19.676  33.997  14.340
10431W        W75416   7.496  42.915  14.977
10432W        W75417   3.956  30.006  14.895
10433W        W75418   3.081  17.796  10.681
10434W        W75419  42.768  23.966  14.881
10435W        W75420   9.519  35.124   0.184
10436W        W75421  24.532  23.009  14.792
10437W        W75422  39.893  37.326  12.288
10438W        W75423  31.399   1.464   2.750
10439W        W75424   5.646  17.240   2.067
10440W        W75425  41.394  24.828  11.440
10441W        W75426   8.614  13.661   0.757
10442W        W75427  31.508  21.636   4.282
10443W        W75428   5.165   4.566   5.493
10444W        W75429  34.862  12.191   0.078
10445W        W75430  44.511  17.840  14.306
10446W        W75431  27.538   8.654  11.493
10447W        W75432  14.997  12.299  14.850
10448W        W75433  34.868  29.786  12.943
10449W        W75434  35.670  21.727  11.888
10450W        W75435  23.552   5.826  14.958
10451W        W75436  39.008  30.108  10.990
10452W        W75437  14.823  28.406   5.062
10453W        W75438  35.012  18.745  10.804
10454W        W75439  36.572   4.508  14.920
10455W        W75440  32.225   1.697  12.526
10456W        W75441   2.404  26.953  13.462
10457W        W75442  22.586  33.565  13.786
10458W        W75443  42.860  14.054  14.358
10459W        W75444  15.039  17.245   1.875
10460W        W75445  42.280  27.185   4.782
10461W        W75446  12.576  39.370  14.086
10462W        W75447   5.312  30.536   1.924
10463W        W75448   2.292  16.176   2.129
10464W        W75449  43.837  22.721   1.200
10465W        W75450   9.439  17.698  13.794
10466W        W75451  25.272  28.188   2.280
10467W        W75452  43.049  24.114  13.893
10468W        W75453   5.708  26.077  14.808
10469W        W75454  25.670  39.863   0.469
10470W        W75455  25.697  32.449  13.702
10471W        W75456  12.172  40.415  10.439
10472W        W75457  19.715  32.511   0.673
10473W        W75458  30.557  39.992   3.729
10474W        W75459  35.386  12.174   2.359
10475W        W75460  35.010   0.348   0.648
10476W        W75461   1.737   1.348  10.692
10477W        W75462   8.242  43.807   2.753
10478W        W75463  24.447  20.849  14.324
10479W        W75464  10.413  23.082   2.841
10480W        W75465  39.523   2.029  14.895
10481W        W75466  38.738   8.128   0.606
10482W        W75467  30.600   7.079  12.411
10483W        W75468  14.088   2.914  10.527
10484W        W75469  39.352  14.379   0.716
10485W        W75470  33.020  19.668   2.302
10486W        W75471  18.687  43.040   1.873
10487W        W75472   7.355   5.483  10.594
10488W        W75473   0.911  38.883  11.226
10489W        W75474   9.700  42.766   0.546
10490W        W75475  18.966  35.341   4.747
10491W        W75476  19.916   8.507   2.426
10492W        W75477  16.032  27.559  12.568
10493W        W75478  27.989   2.893   1.018
10494W        W75479  33.883  31.479  14.022
10495W        W75480  15.071  15.115  12.421
10496W        W75481  11.718  13.903  11.903
10497W        W75482  25.160  24.197   4.418
10498W        W75483  43.130  13.095  11.620
10499W        W75484  19.612  20.229  12.471
10500W        W75485   6.894  44.094  11.075
10501W        W75486  25.263   6.812   1.747
10502W        W75487  44.438  27.235  13.042
10503W        W75488  22.119  24.728   0.468
10504W        W75489   8.159   3.162   2.853
10505W        W75490  24.731  44.105   3.257
10506W        W75491  44.310  22.519   2.370
10507W        W75492   3.178   5.300  12.949
10508W        W75493  36.151   3.921  11.568
10509W        W75494   8.139   7.923   4.746
10510W        W75495  17.275  32.965   3.773
10511W        W75496  12.442  22.151   2.830
10512W        W75497   3.253  22.304   1.534
10513W        W75498  33.109  10.853  11.948
10514W        W75499  24.158  37.291   3.230
10515W        W75500  18.732   9.954  11.470
10516W        W75501  36.935  37.060  11.582
10517W        W75502  34.401   4.192  13.364
10518W        W75503   6.752  10.830  12.550
10519W        W75504  23.020  42.991  13.785
10520W        W75505  22.748  30.492   3.352
10521W        W75506  14.367   4.502   1.020
10522W        W75507  16.691  34.679  12.870
10523W        W75508  40.685  12.766   0.830
10524W        W75509   3.789   2.395   3.842
10525W        W75510  26.477  37.038  11.944
10526W        W75511  29.741  29.333   1.431
10527W        W75512  28.530  16.588  10.692
10528W        W75513   0.124  31.521   0.443
10529W        W75514   1.695   5.513   1.347
10530W        W75515  20.911  14.158  10.862
10531W        W75516  29.697   7.304   0.753
10532W        W75517   4.668  12.275   4.828
10533W        W75518  16.830  11.952   2.757
10534W        W75519  10.106  10.120   1.341
10535W        W75520  17.708  34.137  10.825
10536W        W75521  22.084  43.060  11.153
10537W        W75522  23.601  19.630  13.437
10538W        W75523  27.907  11.710   4.049
10539W        W75524  40.073  10.212   1.768
10540W        W75525  17.077  13.222  12.361
10541W        W75526  24.737  23.100  13.395
10542W        W75527  23.118  17.314  12.422
10543W        W75528  30.163  20.738   0.259
10544W        W75529  43.005  29.408   0.314
10545W        W75530  21.078  17.030  12.447
10546W        W75531  17.822  26.495   3.133
10547W        W75532  41.502  38.315   1.963
10548W        W75533  41.448  40.469  12.945
10549W        W75534  22.322  28.967  10.320
10550W        W75535  34.480   7.217  10.607
10551W        W75536  32.619  10.438  11.246
10552W        W75537  14.179  36.022   1.241
10553W        W75538  19.715   2.253   5.001
10554W        W75539  24.482  29.511   0.719
10555W        W75540   1.276   1.706   3.120
10556W        W75541   8.471  25.799  11.983
10557W        W75542   8.203  19.022  12.585
10558W        W75543  18.235  32.848  13.815
10559W        W75544   5.926   2.256  12.649
10560W        W75545  42.252  10.124  13.821
10561W        W75546   4.929   5.327  11.119
10562W        W75547  38.997  42.215  10.768
10563W        W75548  16.937  19.899   5.007
10564W        W75549  18.579  23.620  13.440
10565W        W75550  31.071  28.000   3.624
10566W        W75551  35.079   7.315  13.543
10567W        W75552  20.759  43.477  12.509
10568W        W75553  25.026   7.499   1.802
10569W        W75554  26.672  31.496   1.295
10570W        W75555  12.308  12.777   1.198
10571W        W75556  27.909  16.308  13.589
10572W        W75557  26.473  12.066   3.335
10573W        W75558  33.597  19.562  12.364
10574W        W75559  43.032  36.998  11.078
10575W        W75560  28.298  32.078   3.687
10576W        W75561  29.731   9.218  13.394
10577W        W75562   5.259  17.859  14.800
10578W        W75563  19.250  26.858  14.356
10579W        W75564  37.067  11.823   5.004
10580W        W75565  39.846  11.499  13.210
10581W        W75566   4.916  42.833   0.268
10582W        W75567   5.516  15.265   1.913
10583W        W75568  31.774  40.047   0.798
10584W        W75569  26.121   8.797  14.437
10585W        W75570  39.450  35.378   1.267
10586W        W75571  17.753   0.504  14.595
10587W        W75572  11.238  14.261  11.126
10588W        W75573  32.407  25.630   3.231
10589W        W75574  26.039  17.618  14.888
10590W        W75575  35.302  15.734   1.428
10591W        W75576  13.775  41.388  11.876
10592W        W75577   6.981  33.580   0.768
10593W        W75578  19.090   0.716  14.206
10594W        W75579   5.931  16.441   4.574
10595W        W75580  40.525  12.662  14.963
10596W        W75581   7.383   6.747  10.411
10597W        W75582  11.090  10.191  11.960
10598W        W75583  23.180  17.828  12.464
10599W        W75584   2.483  41.404   3.274
10600W        W75585  33.619  18.249  11.543
10601W        W75586  30.502  44.565  14.156
10602W        W75587  37.566  21.727   2.271
10603W        W75588  40.366   2.070   2.196
10604W        W75589  24.279  20.336   1.631
10605W        W75590  12.335  37.820  10.724
10606W        W75591  26.654  36.069   2.590
10607W        W75592  29.955   2.976  14.932
10608W        W75593  26.942  25.981   1.946
10609W        W75594  29.970  42.895   2.913
10610W        W75595   4.424   8.367  12.362
10611W        W75596  37.363  18.040  12.418
10612W        W75597  11.861  39.814   0.455
10613W        W75598  21.051  41.916  13.407
10614W        W75599  16.484  32.822  14.873
10615W        W75600  37.054  11.234   3.204
10616W        W75601  35.645  23.060  11.885
10617W        W75602   6.567   2.683   4.906
10618W        W75603  31.419  22.223   4.927
10619W        W75604  10.876  24.213  12.016
10620W        W75605  20.776  12.258   3.827
10621W        W75606  31.774  28.534   0.874
10622W        W75607  14.398   1.221  13.728
10623W        W75608   1.334  15.683   4.584
10624W        W75609   5.932  11.627   3.409
10625W        W75610  30.980  25.781   2.271
10626W        W75611  19.713  20.972  12.011
10627W        W75612  38.851   8.523  11.021
10628W        W75613  32.384  18.116   4.711
10629W        W75614   9.097  37.545  10.047
10630W        W75615  13.553  29.727   2.045
10631W        W75616   1.343  21.175  12.654
10632W        W75617   9.358   9.553  12.757
10633W        W75618  28.549  14.273   2.072
10634W        W75619  25.202  20.504   1.941
10635W        W75620  39.392  21.806  11.945
10636W        W75621  41.320  36.617   2.202
10637W        W75622  13.624  21.749   1.571
10638W        W75623  30.402  38.377   0.841
10639W        W75624  41.013  44.947  12.101
10640W        W75625  18.764  21.916  11.580
10641W        W75626  35.815   1.647  14.184
10642W        W75627  29.204  33.009   4.186
10643W        W75628  41.862  24.192   0.632
10644W        W75629  24.265  39.614  11.193
10645W        W75630  19.259  40.291  13.290
10646W        W75631  21.437   1.905  14.062
10647W        W75632  19.004   6.896  10.795
10648W        W75633  23.989   2.244   4.113
10649W        W75634   0.134  27.229   4.212
10650W        W75635   6.305  35.168  11.171
10651W        W75636   8.285  10.172   3.730
10652W        W75637   9.196   3.272   2.592
10653W        W75638  19.395  34.821  13.749
10654W        W75639   5.298  29.794   3.653
10655W        W75640  34.315  38.949   1.166
10656W        W75641  14.355  26.077   1.399
10657W        W75642   0.891  20.959   2.672
10658W        W75643  22.570   4.856   0.578
10659W        W75644  13.188   1.677  14.792
10660W        W75645  16.870   3.661   4.526
10661W        W75646  42.221   3.723  13.544
10662W        W75647  41.900  35.194   2.582
10663W        W75648  10.627  11.401  12.549
10664W        W75649  31.438  16.236  13.685
10665W        W75650  17.312  17.307  10.747
10666W        W75651  16.171  13.047   0.073
10667W        W75652  40.368   2.857   1.158
10668W        W75653  21.302   6.461  11.064
10669W        W75654   4.257  10.402  14.244
10670W        W75655   7.842  34.194  11.864
10671W        W75656  18.007   5.445   3.319
10672W        W75657  19.610  32.650  12.018
10673W        W75658  11.097  20.740   1.914
10674W        W75659   8.075   3.904  14.893
10675W        W75660  19.786  33.186  10.737
10676W        W75661   5.807   4.819   1.437
10677W        W75662   9.766  30.129  14.439
10678W        W75663  17.921   7.901  11.931
10679W        W75664  11.646  33.390  13.550
10680W        W75665  37.859  43.880   4.304
10681W        W75666  20.594   2.824   1.891
10682W        W75667   0.560   8.718   2.823
10683W        W75668  38.333  33.518   4.089
10684W        W75669  41.049   9.077   0.396
10685W        W75670  15.243   8.836   1.722
10686W        W75671  35.895  15.786   3.667
10687W        W75672   0.949  16.350   4.492
10688W        W75673   5.090  36.166   1.853
10689W        W75674  25.565   9.837   1.871
10690W        W75675  42.706   5.826   2.276
10691W        W75676  15.476  30.258  11.698
10692W        W75677  35.318  33.245   0.772
10693W        W75678  37.883  28.627  12.133
10694W        W75679  32.647  35.393   1.378
10695W        W75680  39.189  31.955   4.625
10696W        W75681  24.805  36.757   2.851
10697W        W75682  25.104  10.609  13.720
10698W        W75683  11.818  10.113   2.157
10699W        W75684  40.489  13.092   1.349
10700W        W75685   2.327  25.870   0.454
10701W        W75686   8.507   8.416  10.609
10702W        W75687  31.713  13.948  12.561
10703W        W75688   1.884   9.340  14.770
10704W        W75689  39.296  30.117   1.039
10705W        W75690  37.918  19.304  12.603
10706W        W75691   8.762  33.621  12.995
10707W        W75692  25.103  21.223   3.227
10708W        W75693  32.051  32.865  10.711
10709W        W75694  37.597  18.719  11.688
10710W        W75695  43.512   7.196  13.644
10711W        W75696   1.269  16.772   3.745
10712W        W75697  21.310  11.197  13.341
10713W        W75698  17.009   1.313   0.552
10714W        W75699  40.061  41.002  14.831
10715W        W75700  33.430  42.644  12.542
10716W        W75701  26.944   4.175  12.428
10717W        W75702  15.394   2.311   0.502
10718W        W75703   2.270   4.737   1.885
10719W        W75704  41.968   2.266   0.855
10720W        W75705   5.320  21.970   3.326
10721W        W75706  20.613  41.410   1.187
10722W        W75707  44.552   1.762   0.396
10723W        W75708  10.963  31.436   3.987
10724W        W75709  37.246  37.438   2.765
10725W        W75710   9.985  25.162  14.045
10726W        W75711  43.228  13.642   3.959
10727W        W75712  18.060  17.007  12.830
10728W        W75713   3.235  22.857  14.599
10729W        W75714  37.511  31.463   2.404
10730W        W75715  35.701  24.580  12.050
10731W        W75716   4.720  44.479   9.932
10732W        W75717  12.836  21.343   2.656
10733W        W75718  21.678  21.445  13.933
10734W        W75719   3.837  22.501  13.357
10735W        W75720   0.776  23.196   2.807
10736W        W75721  33.603  21.825   0.752
10737W        W75722  36.079   5.094   3.708
10738W        W75723  10.864  27.259   3.222
10739W        W75724  36.935   6.861  11.876
10740W        W75725  28.742  15.717  10.590
10741W        W75726  43.082  20.542   0.912
10742W        W75727   3.687  18.522   4.163
10743W        W75728  43.477  30.679  11.639
10744W        W75729  33.468  24.073   4.913
10745W        W75730   5.427   9.827   2.586
10746W        W75731   3.062  17.270   1.951
10747W        W75732   4.347  32.913   0.259
10748W        W75733  30.583  42.364   2.844
10749W        W75734  30.011  11.121  14.793
10750W        W75735   0.050  28.179   1.308
10751W        W75736  24.256  35.154  11.886
10752W        W75737  41.616  12.231   4.190
10753W        W75738  30.052   8.400  11.180
10754W        W75739  42.072   0.910   2.865
10755W        W75740  18.134  17.092   2.351
10756W        W75741  16.027  29.489  11.519
10757W        W75742  13.098  36.060  12.865
10758W        W75743  30.115  36.879  12.913
10759W        W75744  19.757   7.287  11.494
10760W        W75745  20.240  33.312   3.659
10761W        W75746  11.379  37.932   2.728
10762W        W75747   3.892   4.462   0.391
10763W        W75748   1.399   7.255   1.769
10764W        W75749  32.122  39.149   3.259
10765W        W75750  15.228  43.013  10.813
10766W        W75751  42.418  38.836   2.833
10767W        W75752  27.916   9.869  11.046
10768W        W75753   2.734  22.047  10.719
10769W        W75754  28.998  43.605  14.017
10770W        W75755  35.581  34.175  13.521
10771W        W75756   5.954  14.298   3.288
10772W        W75757  27.953  40.967  13.835
10773W        W75758  23.281  16.031  12.016
10774W        W75759  43.935  31.535  12.972
10775W        W75760  12.082  25.447   2.682
10776W        W75761  22.018  25.950   4.145
10777W        W75762   1.022   9.085   1.065
10778W        W75763  12.100   0.253  14.072
10779W        W75764  32.767   9.306  12.479
10780W        W75765  11.634  41.378  11.228
10781W        W75766  31.917  20.745   1.405
10782W        W75767  27.128  31.624   9.749
10783W        W75768  23.864  44.456   2.305
10784W        W75769  23.736  27.535  13.927
10785W        W75770   4.717  12.304  12.792
10786W        W75771  43.521   3.688  14.264
10787W        W75772  17.446  13.250   3.180
10788W        W75773  12.333  44.949  11.677
10789W        W75774   5.062  16.014   2.262
10790W        W75775   0.484  34.880  13.157
10791W        W75776  13.181   0.283   3.066
10792W        W75777  15.063  15.693  13.945
10793W        W75778  24.214  33.119   4.523
10794W        W75779  16.188  43.825   3.696
10795W        W75780  18.956  13.883  11.101
10796W        W75781  42.065   3.832  11.538
10797W        W75782  27.489  37.914  11.930
10798W        W75783   8.005  24.654   4.290
10799W        W75784  11.833  43.204  11.722
10800W        W75785  23.142  30.815   3.360
10801W        W75786  40.263  11.747  14.034
10802W        W75787  17.017  14.579  12.389
10803W        W75788  34.207  12.356   3.789
10804W        W75789  16.338  44.873   3.794
10805W        W75790  24.303  31.043   0.855
10806W        W75791  12.701  31.436  10.858
10807W        W75792  36.996   3.428  11.625
10808W        W75793  31.097  35.048   0.361
10809W        W75794  21.024  39.077   4.836
10810W        W75795  41.521  14.275   2.796
10811W        W75796  10.371   3.239  11.152
10812W        W75797  10.413   7.572   4.068
10813W        W75798  29.926   2.770   0.425
10814W        W75799  28.350  36.659  14.039
10815W        W75800   3.248   5.384  13.492
10816W        W75801  38.219  32.895  11.028
10817W        W75802  28.863  24.416   1.265
10818W        W75803  35.556  35.268  11.895
10819W        W75804  10.054  25.286  11.166
10820W        W75805   7.694   2.496  12.194
10821W        W75806  29.109   7.308   2.081
10822W        W75807  18.274  40.328  12.033
10823W        W75808  22.529  30.949   1.727
10824W        W75809   4.136  18.587   4.589
10825W        W75810   4.757  13.214  10.620
10826W        W75811  43.966   5.166   4.147
10827W        W75812  28.079  28.025  10.718
10828W        W75813  28.893  42.469  13.452
10829W        W75814  14.034  29.139  12.605
10830W        W75815  12.809   4.312  10.683
10831W        W75816  14.675  12.671   3.383
10832W        W75817  32.207  21.573   1.941
10833W        W75818  25.504  19.240   4.655
10834W        W75819  10.135  30.417   3.625
10835W        W75820  30.522  31.178   3.229
10836W        W75821   2.217   0.503  10.992
10837W        W75822  21.822   6.007   3.643
10838W        W75823  41.843  22.821   5.090
10839W        W75824  44.308  38.065   0.986
10840W        W75825  36.296  15.489   3.821
10841W        W75826  23.670   0.385   4.258
10842W        W75827  35.173  17.963  14.585
10843W        W75828  30.659  36.943   3.356
10844W        W75829  10.380  27.618  12.395
10845W        W75830   7.355  17.154   1.089
10846W        W75831  44.425  13.315  14.631
10847W        W75832  29.348  21.515  12.636
10848W        W75833  10.632  15.104   0.029
10849W        W75834  35.586  26.624   4.610
10850W        W75835  21.801   3.362   3.716
10851W        W75836  32.917  16.228  13.071
10852W        W75837  25.607   8.633   1.200
10853W        W75838  31.557   4.956   1.436
10854W        W75839  19.676  10.391  12.962
10855W        W75840  37.828   8.126  11.647
10856W        W75841  21.643   5.981   0.399
10857W        W75842  28.649  24.595   3.705
10858W        W75843   7.466  26.983  13.850
10859W        W75844  11.206   4.305  14.197
10860W        W75845  25.599   2.912  13.407
10861W        W75846  32.496   7.919   9.807
10862W        W75847   1.467  22.158  12.587
10863W        W75848  31.432  41.846  11.494
10864W        W75849  15.483  20.733   2.379
10865W        W75850  36.426  35.347   1.826
10866W        W75851  17.223  33.121   1.474
10867W        W75852  28.646  30.931   2.296
10868W        W75853   8.666   9.461  11.475
10869W        W75854  20.449  25.765   2.847
10870W        W75855  27.651  11.779   2.856
10871W        W75856   6.104  10.262   1.961
10872W        W75857   0.295   2.859   3.581
10873W        W75858   1.899  33.188  14.875
10874W        W75859  17.110  19.544   4.637
10875W        W75860  43.349  22.654  12.328
10876W        W75861  23.194   3.214  10.246
10877W        W75862  20.049  12.271   4.650
10878W        W75863  30.992   9.234  12.906
10879W        W75864   0.536  11.869  10.824
10880W        W75865   7.836  32.444   0.452
10881W        W75866  39.336  29.805  10.495
10882W        W75867  14.824  16.540   0.283
10883W        W75868  40.368  21.991  11.950
10884W        W75869  15.855  44.151   0.398
10885W        W75870   5.819  29.688  12.342
10886W        W75871  27.914  23.064   2.454
10887W        W75872  34.401  26.963  14.006
10888W        W75873  25.017  38.014   1.324
10889W        W75874  29.054   2.335   4.848
10890W        W75875   7.975  27.490  11.225
10891W        W75876  27.230  20.053   2.746
10892W        W75877  27.231   2.755   0.146
10893W        W75878   2.501  16.573   3.096
10894W        W75879  22.420  22.623   4.596
10895W        W75880  25.549   3.518   0.686
10896W        W75881  13.830   6.915  11.877
10897W        W75882  36.815  37.328   4.152
10898W        W75883  41.398   9.592  12.432
10899W        W75884  32.096  12.801   1.723
10900W        W75885  44.981  25.245  12.041
10901W        W75886   4.549  16.038   2.217
10902W        W75887  14.636  38.155   2.238
10903W        W75888  26.494  36.799  14.393
10904W        W75889  18.296  35.989  11.170
10905W        W75890  24.182   6.345  10.127
10906W        W75891  13.259  24.065  11.146
10907W        W75892  11.167  18.654   4.149
10908W        W75893  37.171  42.600  14.238
10909W        W75894  11.095  26.299   0.768
10910W        W75895  44.973   9.311   2.745
10911W        W75896  44.221   9.157  12.338
10912W        W75897  16.177   0.891  12.022
10913W        W75898   1.996  13.199   0.024
10914W        W75899   2.205  39.316  14.332
10915W        W75900  32.620  24.135   1.907
10916W        W75901  27.399  44.801  11.603
10917W        W75902  23.509  44.767   1.615
10918W        W75903  32.500  23.716   3.436
10919W        W75904  32.930  42.995  11.843
10920W        W75905   5.894   4.480   2.360
10921W        W75906  37.895  44.269   3.964
10922W        W75907  10.878  13.718   2.271
10923W        W75908  15.813   7.680  12.020
10924W        W75909  31.033  27.499  14.192
10925W        W75910  32.703  17.754   1.783
10926W        W75911  23.207  16.996   1.832
10927W        W75912  22.057  11.248   3.207
10928W        W75913   5.730  17.942  11.515
10929W        W75914  33.821  14.324   0.007
10930W        W75915  15.548  19.724  10.617
10931W        W75916   0.036  11.670  11.513
10932W        W75917  18.826  14.057   4.140
10933W        W75918  33.546   3.495  12.990
10934W        W75919  39.805  28.824  11.046
10935W        W75920  34.905  11.221   0.305
10936W        W75921  40.455  17.562   2.260
10937W        W75922  33.902  42.022   0.245
10938W        W75923   4.112   9.828   2.449
10939W        W75924  27.538  30.397   2.467
10940W        W75925  41.752  35.608   0.602
10941W        W75926  15.857  19.920  14.028
10942W        W75927  40.875  38.854  11.948
10943W        W75928  11.640   2.682   3.091
10944W        W75929  16.888   1.894  11.843
10945W        W75930  13.576  27.554   5.406
10946W        W75931  14.820  13.893   0.706
10947W        W75932   6.403  39.325  14.513
10948W        W75933  28.923   0.782  10.739
10949W        W75934  28.641  34.455  10.572
10950W        W75935  44.288  16.521  12.762
10951W        W75936  36.123   4.229  14.806
10952W        W75937  33.155  37.507  12.583
10953W        W75938  35.987  14.899   1.818
10954W        W75939  30.209  37.907   3.120
10955W        W75940  28.573  22.100  13.873
10956W        W75941  13.225  24.329   2.268
10957W        W75942   3.318  14.343  14.555
10958W        W75943   0.293  35.157   2.171
10959W        W75944  25.821  39.866  14.101
10960W        W75945  11.643  44.576   4.075
10961W        W75946   3.168  30.387   1.687
10962W        W75947   8.098  20.257   3.126
10963W        W75948  12.154  40.729  11.732
10964W        W75949  10.125   8.677  10.985
10965W        W75950  35.907  30.626  14.892
10966W        W75951  44.406  34.471  14.743
10967W        W75952  18.198   2.333  13.238
10968W        W75953  31.021  42.550  13.975
10969W        W75954   5.623  25.699  13.020
10970W        W75955  35.452  26.190   0.810
10971W        W75956  16.161   2.191   4.251
10972W        W75957   1.947  15.626  11.675
10973W        W75958  39.479  29.010   3.635
10974W        W75959  22.750  29.794  11.638
10975W        W75960   8.174  35.523  10.986
10976W        W75961  22.026  25.571   0.802
10977W        W75962  33.622  40.399  11.654
10978W        W75963  40.423   9.620  10.740
10979W        W75964  16.174  14.281   0.448
10980W        W75965  18.597   6.015   2.283
10981W        W75966   3.441  10.856   2.258
10982W        W75967   7.839  33.515  11.529
10983W        W75968  29.960  12.117   0.085
10984W        W75969  36.317   3.560  12.501
10985W        W75970  40.983  24.679   2.881
10986W        W75971   1.249  32.123  13.752
10987W        W75972  39.794  11.085   3.772
10988W        W75973  33.325  14.796  11.921
10989W        W75974  20.086   1.831   1.236
10990W        W75975   0.977  44.475   4.035
10991W        W75976  19.695  30.645   2.887
10992W        W75977   8.188  41.136   3.688
10993W        W75978  30.632  43.377   1.420
10994W        W75979   7.115  27.643   2.343
10995W        W75980  19.703   6.158   1.357
10996W        W75981  41.368  36.979  11.691
10997W        W75982  28.976  27.146   2.650
10998W        W75983  17.197   0.844   0.678
10999W        W75984  19.188  22.623  14.514
11000W        W75985  21.653  18.640   4.920
11001W        W75986  19.811  18.444  14.891
11002W        W75987  25.892   5.186   2.207
11003W        W75988   7.368  10.987  14.662
11004W        W75989   2.381  44.873  13.769
11005W        W75990  20.140  38.008   0.448
11006W        W75991  43.942   3.517  14.005
11007W        W75992   3.750  44.085   1.846
11008W        W75993  11.939  33.518  13.118
11009W        W75994   8.871  16.597   4.572
11010W        W75995   0.038  28.465  13.421
11011W        W75996  43.182  33.869  14.976
11012W        W75997   4.812  39.512   1.673
11013W        W75998  31.550   7.763   1.131
11014W        W75999  37.114  37.602  14.776
11015W        W76000  10.542  17.554  13.942
11016W        W76001  30.213   2.981  10.662
11017W        W76002   3.337  33.611   3.310
11018W        W76003  27.140  41.462  13.865
11019W        W76004  38.840  27.558  14.906
11020W        W76005  23.575  39.319   0.519
11021W        W76006  26.689  44.208   0.947
11022W        W76007  28.501   3.942  14.434
11023W        W76008  10.985  29.904   0.462
11024W        W76009  29.311  36.655  14.535
11025W        W76010  31.432  44.696   1.773
11026W        W76011  29.383  31.252  11.933
11027W        W76012   0.045  14.927  12.768
11028W        W76013   9.743  19.325  10.785
11029W        W76014  14.240   8.721   2.155
11030W        W76015  28.311   1.779   3.079
11031W        W76016  20.738   1.278   4.029
11032W        W76017   1.765  11.583  14.314
11033W        W76018  15.039  40.814  13.316
11034W        W76019  43.491   7.827  11.973
11035W        W76020   5.190   5.435   9.768
11036W        W76021  30.370  39.506   1.280
11037W        W76022   1.495  15.238   3.631
11038W        W76023  39.584  23.619  11.806
11039W        W76024  19.277  17.477   3.619
11040W        W76025  38.865  23.144   1.304
11041W        W76026  33.064  10.236  11.093
11042W        W76027  41.095  21.763  11.577
11043W        W76028   6.987  40.967  13.285
11044W        W76029  23.697  36.330  10.911
11045W        W76030  36.400  41.481  12.462
11046W        W76031  29.484  36.985  10.571
11047W        W76032  24.013  27.610   3.109
11048W        W76033  26.616  19.426   5.279
11049W        W76034  10.438   5.729   1.412
11050W        W76035  10.077  26.214   0.844
11051W        W76036   4.347  15.590   3.981
11052W        W76037   3.984  22.024  12.661
11053W        W76038  30.198  23.787  12.120
11054W        W76039   4.769  33.573  12.511
11055W        W76040  40.455  22.274  10.981
11056W        W76041  11.648  44.389   5.059
11057W        W76042  32.325  29.523  11.855
11058W        W76043  41.147  35.385  14.777
11059W        W76044  38.909  23.621  12.470
11060W        W76045   4.399  17.212  13.844
11061W        W76046  37.856  24.246   2.036
11062W        W76047  33.915  16.696   4.206
11063W        W76048  27.242  34.632  14.372
11064W        W76049   0.455   2.331   3.353
11065W        W76050  10.689  22.074   0.008
11066W        W76051  17.112  40.024   4.571
11067W        W76052  21.215  39.022  14.434
11068W        W76053  36.926   5.319   2.442
11069W        W76054  31.055  32.089   4.323
11070W        W76055  34.078  15.077  12.979
11071W        W76056  30.939   7.400  14.972
11072W        W76057   3.765  41.192  11.644
11073W        W76058  39.020  15.964   4.028
11074W        W76059  18.683   5.934   1.169
11075W        W76060  14.486  34.065   1.378
11076W        W76061  21.925  35.358   1.197
11077W        W76062   7.296  38.820  11.403
11078W        W76063  38.728  39.451   1.223
11079W        W76064  36.477  13.740  12.129
11080W        W76065  17.359  30.657   4.084
11081W        W76066  13.811  29.887   0.163
11082W        W76067   1.258   3.710   1.323
11083W        W76068  31.687  27.921  11.051
11084W        W76069  32.997  33.034  10.688
11085W        W76070  26.601  17.700   2.100
11086W        W76071  41.702  31.027  12.096
11087W        W76072  36.885  35.169  13.144
11088W        W76073  17.588   6.032   0.444
11089W        W76074   6.426  21.962  11.906
11090W        W76075  11.681  43.431  13.884
11091W        W76076  29.875   2.007   0.910
11092W        W76077  22.216  22.320   2.388
11093W        W76078  14.449   3.246   3.283
11094W        W76079   8.276  15.334   0.840
11095W        W76080  44.526  32.666  11.721
11096W        W76081  30.865  13.035   3.582
11097W        W76082  15.216  19.919   1.740
11098W        W76083  23.174  19.775  14.329
11099W        W76084  38.104   1.973  14.083
11100W        W76085  21.213  25.624   3.295
11101W        W76086  34.055   7.162  12.087
11102W        W76087  38.023  14.759   1.337
11103W        W76088   9.742  37.638   0.750
11104W        W76089  26.071  31.556   0.584
11105W        W76090  33.082  15.559   3.207
11106W        W76091  15.359  19.103   0.007
11107W        W76092  12.330  38.628  11.184
11108W        W76093  44.247  41.212  12.996
11109W        W76094  35.448   0.203   0.368
11110W        W76095  35.092  30.390   3.292
11111W        W76096   8.522  16.538   1.337
11112W        W76097   1.493  41.023  11.683
11113W        W76098  26.749  15.942   0.958
11114W        W76099  15.795   1.405   4.176
11115W        W76100   4.006  25.349  11.926
11116W        W76101  36.313  14.335   1.200
11117W        W76102  34.933  32.542   4.105
11118W        W76103  28.524  17.626   4.099
11119W        W76104  26.022  21.610  13.842
11120W        W76105  13.102  30.495  13.519
11121W        W76106  13.107  29.112  11.534
11122W        W76107  27.077  17.625  10.571
11123W        W76108   2.196   2.384  13.851
11124W        W76109  14.273  19.497   1.306
11125W        W76110   1.002  30.842  14.316
11126W        W76111  18.895  30.385   0.489
11127W        W76112   7.307  30.896  13.843
11128W        W76113   5.107  10.279   9.965
11129W        W76114   1.445   8.235   0.953
11130W        W76115  22.855  40.503  12.183
11131W        W76116  41.427   2.874   4.379
11132W        W76117  25.026  35.744  11.228
11133W        W76118  13.616   6.941  13.496
11134W        W76119  32.121  28.546  13.626
11135W        W76120  18.698  36.149   1.263
11136W        W76121   8.438  39.610   2.268
11137W        W76122  10.782   4.551  10.108
11138W        W76123  43.399  28.192   2.320
11139W        W76124   6.846  40.368  10.715
11140W        W76125  18.442   1.593  13.272
11141W        W76126   7.112  30.182   3.631
11142W        W76127  12.922  24.584  14.860
11143W        W76128  34.603  11.535  12.504
11144W        W76129  25.114  17.311   3.530
11145W        W76130   5.904  23.084  13.375
11146W        W76131  17.053  31.925  10.581
11147W        W76132  35.633  18.267   3.278
11148W        W76133  43.751  11.854  13.921
11149W        W76134  19.649  31.917  14.115
11150W        W76135  19.219   4.671   3.384
11151W        W76136  10.326  37.772  12.488
11152W        W76137  16.935  33.928   0.481
11153W        W76138  40.244  38.620  13.926
11154W        W76139  29.553  18.562  12.199
11155W        W76140  20.535  44.220   3.298
11156W        W76141  15.846  32.548  11.190
11157W        W76142  10.414  43.292   1.042
11158W        W76143  34.946   6.197   2.736
11159W        W76144  44.575  34.917   0.013
11160W        W76145  29.529  43.949   4.564
11161W        W76146  31.928   3.392  11.995
11162W        W76147  12.382  19.472   2.824
11163W        W76148  16.345  24.494   3.539
11164W        W76149  38.127  24.134  14.072
11165W        W76150  43.310  14.808   2.916
11166W        W76151  44.749  23.017  13.299
11167W        W76152  39.328  29.975  13.559
11168W        W76153   2.198  23.134   3.318
11169W        W76154  23.138  32.608  14.256
11170W        W76155  30.914  15.903  10.801
11171W        W76156  18.222  39.522  13.664
11172W        W76157   5.214  36.717   4.167
11173W        W76158  44.828  14.583  10.434
11174W        W76159  24.441  15.161   1.436
11175W        W76160  19.563   5.785   0.317
11176W        W76161  22.659  37.552   1.705
11177W        W76162  40.311  29.511  10.698
11178W        W76163  28.615   2.876  10.773
11179W        W76164   9.653  31.738   4.682
11180W        W76165  26.260  43.941   1.195
11181W        W76166  27.156  18.164  14.886
11182W        W76167  35.252  32.499   3.685
11183W        W76168  17.522  10.739   2.489
11184W        W76169  35.350  10.805  14.097
11185W        W76170  23.960  14.762  10.751
11186W        W76171  22.688   0.402  14.258
11187W        W76172  42.528   6.206  14.388
11188W        W76173  13.626  34.924  14.805
11189W        W76174  26.497  35.427   0.772
11190W        W76175   7.840  25.169   2.755
11191W        W76176   2.834   0.479  12.576
11192W        W76177  30.105  44.561  12.564
11193W        W76178  23.489  23.459  10.693
11194W        W76179  29.923  37.268   3.790
11195W        W76180  19.656  35.375  11.109
11196W        W76181  21.744  14.649   0.182
11197W        W76182  27.977  11.198  13.431
11198W        W76183  40.500   6.786  10.915
11199W        W76184   4.527   4.051  13.995
11200W        W76185   8.353  17.366  12.058
11201W        W76186  34.465  19.379   1.415
11202W        W76187   0.512   1.774   2.628
11203W        W76188  20.298  18.019  12.919
11204W        W76189  28.850  28.575   3.721
11205W        W76190   6.836  17.157   0.899
11206W        W76191  10.181  21.013   2.797
11207W        W76192   0.275  14.149  12.383
11208W        W76193   1.180  39.364  12.454
11209W        W76194  43.279  26.704  14.264
11210W        W76195  30.348  34.911   5.168
11211W        W76196  23.653  11.749   4.651
11212W        W76197  20.992  10.744   0.192
11213W        W76198  10.087  39.341  10.722
11214W        W76199  37.485  15.042  11.573
11215W        W76200   7.871  16.180   0.054
11216W        W76201   5.997  39.400  11.966
11217W        W76202  41.378   8.948  14.070
11218W        W76203  37.019  12.682  11.532
11219W        W76204   3.213  37.788   3.217
11220W        W76205  13.362   4.506   3.144
11221W        W76206  22.006  18.603  13.486
11222W        W76207   3.294  30.562   4.755
11223W        W76208  37.384   3.471   2.310
11224W        W76209   1.246  30.494   3.629
11225W        W76210   2.873  38.598   4.280
11226W        W76211  23.437  10.868  11.160
11227W        W76212  12.858  23.011  10.474
11228W        W76213  17.171  29.995   1.487
11229W        W76214  33.489  19.051   0.509
11230W        W76215  44.878   0.894   4.588
11231W        W76216  39.717  24.611  14.992
11232W        W76217   5.369  31.505   3.131
11233W        W76218   7.274  19.814  11.583
11234W        W76219  32.915  35.291   4.504
11235W        W76220  24.487  37.487   1.790
11236W        W76221  17.430   5.940  12.409
11237W        W76222  38.916  19.292   1.477
11238W        W76223   0.487  11.723  12.938
11239W        W76224  33.897  25.917  12.677
11240W        W76225  44.855  43.607  11.449
11241W        W76226  37.832   1.584   1.820
11242W        W76227  18.604  40.818   1.199
11243W        W76228   5.757  22.340  12.302
11244W        W76229  26.257  40.665   2.396
11245W        W76230  20.203  17.448   9.892
11246W        W76231  33.108  25.582  14.509
11247W        W76232  36.134  41.941   1.190
11248W        W76233  26.349   3.193  10.307
11249W        W76234  22.612  19.427   1.845
11250W        W76235  23.233   7.098   2.873
11251W        W76236  31.001   0.343  12.484
11252W        W76237  35.759  39.136   4.244
11253W        W76238  24.714   4.802  13.414
11254W        W76239  43.715  21.992   3.634
11255W        W76240  13.593  18.654  14.746
11256W        W76241  34.856  17.720  12.328
11257W        W76242   6.177  10.184  12.504
11258W        W76243   4.289  11.114  13.361
11259W        W76244  43.878  12.308   2.060
11260W        W76245  43.963   5.086   4.677
11261W        W76246  14.192  22.593  11.644
11262W        W76247  44.867  12.272   0.822
11263W        W76248  32.832  35.979  12.474
11264W        W76249  20.095   9.886  11.806
11265W        W76250  32.408   4.363  13.168
11266W        W76251  28.201   8.516   3.322
11267W        W76252  36.453  13.121   3.295
11268W        W76253  43.892   8.325   1.401
11269W        W76254  31.494  13.603   3.741
11270W        W76255  41.937  44.329   4.780
11271W        W76256  16.242   0.480  13.434
11272W        W76257  44.010  30.963   4.702
11273W        W76258  26.102  11.265  10.702
11274W        W76259  21.665  30.946  12.196
11275W        W76260  21.279  37.967  11.882
11276W        W76261   4.353   1.792  14.380
11277W        W76262  15.235  29.677  11.973
11278W        W76263  10.969  12.230  11.616
11279W        W76264   0.038  32.607   1.771
11280W        W76265  11.432  11.702   3.631
11281W        W76266  39.085  24.283  11.211
11282W        W76267  14.318  14.167   3.718
11283W        W76268  36.791  36.096   2.881
11284W        W76269  38.615  43.463  11.095
11285W        W76270   4.791  13.701   3.386
11286W        W76271  21.058  43.468   0.272
11287W        W76272   0.177   4.844   1.633
11288W        W76273  44.795  43.300   0.076
11289W        W76274  13.213  40.129   4.556
11290W        W76275  27.050   7.054   1.098
11291W        W76276  40.951   3.082   4.645
11292W        W76277  22.262   1.340  14.843
11293W        W76278  35.027  38.921   1.816
11294W        W76279   0.970  11.776  14.996
11295W        W76280  32.442   6.234   1.290
11296W        W76281  21.713  32.859  13.578
11297W        W76282  21.485  37.352   4.244
11298W        W76283  38.853   9.862  11.914
11299W        W76284  41.411  43.324  10.684
11300W        W76285  33.925   2.789  12.581
11301W        W76286  19.694   8.341  12.287
11302W        W76287  26.821   1.348  12.811
11303W        W76288  38.253  14.027   3.042
11304W        W76289  32.679  36.744   2.049
11305W        W76290  37.245  44.503  14.893
11306W        W76291   0.911  38.877  14.033
11307W        W76292  27.651  26.597  14.977
11308W        W76293  39.602   7.053  10.937
11309W        W76294  11.365  40.307  13.345
11310W        W76295  43.859  10.297  11.444
11311W        W76296  24.188  25.471  13.608
11312W        W76297  35.346  17.504  14.442
11313W        W76298  17.447   9.817   5.326
11314W        W76299  18.289  28.102  13.801
11315W        W76300  29.140   9.129   4.868
11316W        W76301  18.819  26.988  12.834
11317W        W76302  34.010  23.034  10.429
11318W        W76303  31.463  43.592  14.280
11319W        W76304  27.202  29.523  11.139
11320W        W76305  17.613  27.105  10.611
11321W        W76306  44.289  35.600   2.866
11322W        W76307   9.746  21.489  11.261
11323W        W76308  24.503  39.778  14.816
11324W        W76309  33.859  37.124   2.817
11325W        W76310   6.290   2.337   2.822
11326W        W76311  40.658  19.798  12.376
11327W        W76312  23.739  42.396  11.244
11328W        W76313   5.800  41.629   3.735
11329W        W76314  23.038   6.596   2.924
11330W        W76315   0.092  41.427  12.443
11331W        W76316  28.800  18.020  13.448
11332W        W76317   3.004  15.798  11.451
11333W        W76318  40.563  14.205   4.946
11334W        W76319   8.565  10.182   0.214
11335W        W76320  29.692  27.880   1.424
11336W        W76321  25.177  38.836  12.804
11337W        W76322  24.663   8.407  11.822
11338W        W76323  26.132  25.109   4.934
11339W        W76324   5.839  37.440  10.141
11340W        W76325  27.986   9.404  13.431
11341W        W76326   8.679  29.986  12.913
11342W        W76327  10.857  25.327   3.378
11343W        W76328  34.427  24.588   2.054
11344W        W76329  26.610  18.959  13.769
11345W        W76330  42.212  16.644  11.399
11346W        W76331  34.306   3.041  11.603
11347W        W76332  11.612  19.350   5.169
11348W        W76333  34.394  30.362  12.127
11349W        W76334  22.652  26.866   0.030
11350W        W76335  16.051  43.385  13.269
11351W        W76336  30.806   2.962  14.283
11352W        W76337  38.324  16.603   5.015
11353W        W76338   7.765   8.771   1.029
11354W        W76339   0.329  15.319   0.477
11355W        W76340  21.210  15.024   3.127
11356W        W76341   1.901   8.993   2.368
11357W        W76342  28.410  43.311  13.134
11358W        W76343  17.421  33.969   0.630
11359W        W76344  31.171  39.194  14.449
11360W        W76345   9.982  12.783   0.664
11361W        W76346  35.525   3.532   4.489
11362W        W76347  35.446  40.733  14.369
11363W        W76348   8.965  12.023   0.338
11364W        W76349  13.777   8.265   3.912
11365W        W76350  42.959  14.289   4.990
11366W        W76351  16.609  27.671  14.407
11367W        W76352   7.419   2.352   4.731
11368W        W76353  25.303  10.076   2.771
11369W        W76354  20.694  17.852  12.112
11370W        W76355  41.562  40.466   3.179
11371W        W76356  23.449  44.653   3.548
11372W        W76357  14.716  37.101  14.637
11373W        W76358  41.864  14.593   3.132
11374W        W76359  13.199  14.851  12.589
11375W        W76360  26.967   4.277  10.711
11376W        W76361  43.580  22.197   1.855
11377W        W76362  33.599  35.913  13.988
11378W        W76363   4.413  24.671  11.563
11379W        W76364   0.853  44.768   1.820
11380W        W76365  34.349  24.048   2.281
11381W        W76366  16.288  22.760  14.865
11382W        W76367  20.794   6.353   0.372
11383W        W76368  11.930  44.960   0.364
11384W        W76369  30.419   5.762  10.756
11385W        W76370   2.593   4.863   2.820
11386W        W76371   1.924  15.164  12.843
11387W        W76372  44.737   3.307   2.230
11388W        W76373  41.011  42.305  12.952
11389W        W76374  10.818  35.341  11.216
11390W        W76375  12.192  29.833   4.733
11391W        W76376  30.286  21.136   0.555
11392W        W76377  16.111  19.055  12.365
11393W        W76378   0.425  40.994   1.226
11394W        W76379  26.023  10.442  13.611
11395W        W76380  30.882  31.544  10.925
11396W        W76381  29.166  43.417  13.402
11397W        W76382  27.171  18.743  11.171
11398W        W76383  39.132   5.858  10.144
11399W        W76384  33.515  30.053  12.470
11400W        W76385   0.371   0.996  10.591
11401W        W76386  23.557   0.669  13.814
11402W        W76387  24.463   2.903   5.005
11403W        W76388  20.261  12.375  12.583
11404W        W76389  40.307  29.091   0.856
11405W        W76390  35.306  43.648   2.312
11406W        W76391   1.246  25.558   3.715
11407W        W76392   6.265  41.042   0.793
11408W        W76393   3.863   0.087   2.010
11409W        W76394   2.314  11.282   0.288
11410W        W76395   9.820  11.882  12.859
11411W        W76396  34.490  34.611   2.253
11412W        W76397  37.313   1.404   0.343
11413W        W76398  37.284  30.091  12.119
11414W        W76399  32.471  31.985   3.925
11415W        W76400  30.037  29.543   3.812
11416W        W76401  37.540  14.567   5.140
11417W        W76402  39.320  16.205  13.436
11418W        W76403  37.973  27.195  13.806
11419W        W76404  11.474  36.335   3.218
11420W        W76405   5.431  31.441  11.075
11421W        W76406  14.815   6.811   3.189
11422W        W76407  13.863  44.284   4.522
11423W        W76408   9.089  43.710   1.342
11424W        W76409  26.924   4.801   4.759
11425W        W76410  37.808   2.907   0.218
11426W        W76411  28.673  33.456  12.602
11427W        W76412  34.841  18.084  13.508
11428W        W76413  42.043  36.505  13.136
11429W        W76414   7.242  40.334   2.140
11430W        W76415  26.942  42.579   2.548
11431W        W76416  36.038  12.248  13.120
11432W        W76417  32.686  37.973   3.157
11433W        W76418  17.046  13.143   0.093
11434W        W76419   2.249  25.017  12.475
11435W        W76420  17.365  43.747  14.447
11436W        W76421  28.788  28.651  12.830
11437W        W76422  43.754   0.003   4.288
11438W        W76423   4.305  38.885  11.907
11439W        W76424   8.235  31.550  10.634
11440W        W76425   4.853  38.584   1.662
11441W        W76426  34.136   1.815   0.476
11442W        W76427  43.169   3.246  11.154
11443W        W76428  30.895  32.034  10.740
11444W        W76429  21.051  28.979   3.634
11445W        W76430   5.776   7.370  12.175
11446W        W76431  35.802  42.180  11.711
11447W        W76432  32.360  43.895  13.979
11448W        W76433  14.143   0.252  13.936
11449W        W76434   0.455  31.094   2.412
11450W        W76435  30.530  43.002   0.400
11451W        W76436  10.143  17.330  14.840
11452W        W76437  31.264   7.404   4.616
11453W        W76438  20.836  15.803  13.942
11454W        W76439  41.398  11.166   2.200
11455W        W76440  40.897   7.384   3.741
11456W        W76441  33.436  38.052  13.362
11457W        W76442  30.435  32.630   1.419
11458W        W76443  41.287  24.184   4.405
11459W        W76444  41.449  42.692   3.595
11460W        W76445  34.829  43.506   2.264
11461W        W76446  35.804   0.020  12.949
11462W        W76447  13.215  14.920   0.331
11463W        W76448  33.919  31.094  14.371
11464W        W76449  21.247  11.264  14.298
11465W        W76450   7.759  41.303   1.802
11466W        W76451   9.233  42.287   1.692
11467W        W76452  20.766  39.978  12.997
11468W        W76453  16.060  25.204  12.159
11469W        W76454  28.265  16.740  14.412
11470W        W76455  14.336  31.732  12.837
11471W        W76456  10.937  37.981   4.558
11472W        W76457  39.712  38.360   3.201
11473W        W76458  27.257  28.901   1.669
11474W        W76459  27.139   7.176   0.599
11475W        W76460   6.116  42.143  10.374
11476W        W76461  27.180   2.290   1.338
11477W        W76462  27.688  30.975  13.458
11478W        W76463   5.972  44.935   1.339
11479W        W76464  25.651  10.373   0.365
11480W        W76465  29.124  14.284   2.729
11481W        W76466  37.846  27.927   3.756
11482W        W76467   6.145  43.501  14.196
11483W        W76468  37.970  39.300  11.507
11484W        W76469  27.612   4.094   4.632
11485W        W76470  20.559  19.152   2.563
11486W        W76471  36.172  11.430   2.119
11487W        W76472  31.043  19.632   4.676
11488W        W76473  22.048   7.357   3.268
11489W        W76474   9.970   0.464   4.589
11490W        W76475  41.983  22.256  14.868
11491W        W76476  15.304  26.449   4.255
11492W        W76477  24.974  30.474  13.908
11493W        W76478   9.298  37.360   3.209
11494W        W76479  43.427  16.315   2.277
11495W        W76480  28.576  40.328  11.036
11496W        W76481   4.244  29.120  11.078
11497W        W76482  27.083  20.221  13.885
11498W        W76483   1.159   7.093  12.357
11499W        W76484  40.491   8.196   4.616
11500W        W76485  34.491  13.362   0.769
11501W        W76486   2.210   8.821  13.788
11502W        W76487  42.072  22.362   5.113
11503W        W76488  26.731  32.218  12.665
11504W        W76489   8.884  39.414   0.355
11505W        W76490  26.391  29.906  13.046
11506W        W76491  12.727  35.844   0.532
11507W        W76492  44.036  40.202   0.988
11508W        W76493  18.021  13.660  13.020
11509W        W76494  44.436  20.182  10.570
11510W        W76495  20.557  43.134   2.391
11511W        W76496   9.331  22.101  14.271
11512W        W76497  14.866  42.109   1.865
11513W        W76498   6.339  37.639  14.911
11514W        W76499   0.933  37.093   4.895
11515W        W76500   8.150  22.614  14.271
11516W        W76501  17.599  29.113  14.289
11517W        W76502  31.912  10.737  12.681
11518W        W76503  12.311  15.610  13.435
11519W        W76504  43.500  33.344   3.168
11520W        W76505  44.958  11.652   0.248
11521W        W76506  41.929  28.142   0.423
11522W        W76507  41.343  29.918  11.523
11523W        W76508  35.308  25.996  12.498
11524W        W76509  21.632  15.675   2.940
11525W        W76510  25.049  27.541   3.439
11526W        W76511  20.748  31.510   1.057
11527W        W76512   2.308  35.426   4.235
11528W        W76513   2.447  21.942   1.794
11529W        W76514  11.612  23.725  10.544
11530W        W76515   4.996  28.038   0.829
11531W        W76516  44.199  21.198   0.339
11532W        W76517  35.609  43.838  14.249
11533W        W76518  36.963   5.667   0.353
11534W        W76519  13.069  36.000   9.895
11535W        W76520  44.379  23.008   3.256
11536W        W76521  37.012  26.698  14.482
11537W        W76522  37.491  21.259  13.243
11538W        W76523  29.512  14.440   3.063
11539W        W76524   2.941  25.072   3.119
11540W        W76525  12.817  27.479   0.690
11541W        W76526  44.762  21.207   1.283
11542W        W76527  40.594   8.470  12.535
11543W        W76528  34.135  20.999   1.172
11544W        W76529  33.344   1.739  11.956
11545W        W76530   6.151   2.288  13.919
11546W        W76531  33.564  17.753  11.661
11547W        W76532   4.419  41.016  12.551
11548W        W76533  31.161  38.430   1.264
11549W        W76534  13.973  24.152  14.793
11550W        W76535  24.310  24.673   3.258
11551W        W76536  15.321  17.316  14.384
11552W        W76537   5.797  18.895   3.984
11553W        W76538   4.723  33.337  12.992
11554W        W76539  35.606   7.295   2.347
11555W        W76540  44.268  11.846  12.607
11556W        W76541  16.487  40.464  12.814
11557W        W76542   9.750  41.947  12.150
11558W        W76543  14.254  31.783  11.039
11559W        W76544  27.668  29.411   4.563
11560W        W76545  21.976  42.764   4.914
11561W        W76546  19.549  37.565  10.821
11562W        W76547  38.423  31.102   4.380
11563W        W76548  19.790  29.438   1.792
11564W        W76549  31.214   3.804   1.118
11565W        W76550   1.776  24.694  11.617
11566W        W76551   2.605  19.007  13.658
11567W        W76552  16.032   9.306  10.481
11568W        W76553   2.767  36.934   2.886
11569W        W76554  39.972  24.700   2.879
11570W        W76555  35.212  41.008   5.159
11571W        W76556  29.331  28.279  11.117
11572W        W76557  41.491  24.065   1.240
11573W        W76558  44.884   6.660   9.649
11574W        W76559   8.383   1.950  11.986
11575W        W76560  25.619  23.704   0.098
11576W        W76561   8.149  24.057   4.377
11577W        W76562   8.844   2.959  14.445
11578W        W76563  35.473  14.281   1.470
11579W        W76564   0.516  32.550   0.424
11580W        W76565  34.091  16.087  11.775
11581W        W76566  39.916  23.669  12.968
11582W        W76567   7.954  22.735   4.141
11583W        W76568  23.323  26.475   1.287
11584W        W76569  10.447   8.251   3.664
11585W        W76570  36.495   6.929   2.767
11586W        W76571  34.873  12.309  14.565
11587W        W76572  10.857  44.030   1.205
11588W        W76573  40.802  16.348   1.860
11589W        W76574  10.576   8.448  13.483
11590W        W76575   9.932   5.676  11.656
11591W        W76576   8.760   8.596  13.537
11592W        W76577  35.143  18.765   2.566
11593W        W76578   7.389   1.325   1.362
11594W        W76579  24.525  39.063  12.496
11595W        W76580  34.658  17.610  10.682
11596W        W76581   7.094  21.062  11.044
11597W        W76582   6.255  43.933   1.944
11598W        W76583  11.205  13.839  12.071
11599W        W76584  10.699  40.535   1.232
11600W        W76585  41.427  14.546   2.361
11601W        W76586  33.320  30.500  12.665
11602W        W76587  23.077  20.021   2.744
11603W        W76588  12.326  25.452  11.616
11604W        W76589   7.047   3.201  14.327
11605W        W76590  39.851   7.875   3.128
11606W        W76591  29.242  44.423  13.119
11607W        W76592  41.578  35.476   3.630
11608W        W76593  15.053  27.997  13.409
11609W        W76594   6.774  30.155  13.033
11610W        W76595  10.097  42.823   0.869
11611W        W76596  44.308  39.012  11.407
11612W        W76597  40.540  37.805  13.484
11613W        W76598  22.951  30.626   5.449
11614W        W76599  26.930  21.730   3.030
11615W        W76600  17.264  29.362   3.478
11616W        W76601  13.531  16.532  14.206
11617W        W76602  29.208  23.197   0.503
11618W        W76603   6.942  14.370  11.645
11619W        W76604  38.828   0.750  11.876
11620W        W76605  44.776  37.884  13.897
11621W        W76606  38.416  34.919  14.099
11622W        W76607  41.194  15.379   2.605
11623W        W76608   4.886   9.168  12.832
11624W        W76609  41.777  41.416   2.421
11625W        W76610  22.556  27.926  14.951
11626W        W76611  15.151  22.243   3.860
11627W        W76612  22.313  39.495   2.296
11628W        W76613  12.280  30.768   3.241
11629W        W76614   4.434   0.410  14.555
11630W        W76615  22.827  36.058   3.541
11631W        W76616  16.678  43.580   1.776
11632W        W76617  25.666  29.405  11.042
11633W        W76618  44.943  36.162  12.059
11634W        W76619  24.119  23.007   2.563
11635W        W76620   1.318  13.587   3.624
11636W        W76621  17.601  35.048  13.305
11637W        W76622  21.653  13.615   2.322
11638W        W76623  19.109  38.138  13.082
11639W        W76624  28.455  32.419  13.492
11640W        W76625   5.803  26.074   1.421
11641W        W76626  23.258  14.098  12.778
11642W        W76627  12.729   3.810  10.557
11643W        W76628  34.434  43.378   3.557
11644W        W76629  13.182  29.977   2.286
11645W        W76630  37.735  31.619  13.883
11646W        W76631  32.567  41.787   0.830
11647W        W76632  32.121  18.128  11.870
11648W        W76633  21.565   0.939  13.727
11649W        W76634  16.653  13.536   2.640
11650W        W76635   9.950  21.292  12.997
11651W        W76636   3.375   9.446  14.323
11652W        W76637   0.096   7.203  14.374
11653W        W76638  29.029  21.115   4.208
11654W        W76639  20.518  42.626   2.241
11655W        W76640  37.853  15.172   0.790
11656W        W76641  19.530   6.470   2.296
11657W        W76642  22.117  10.933   4.079
11658W        W76643   9.679  11.493  12.465
11659W        W76644  13.081  30.591  11.053
11660W        W76645  31.683   5.360  12.680
11661W        W76646  21.694  30.025  12.588
11662W        W76647  29.366  38.018  11.513
11663W        W76648  33.904  19.611   4.546
11664W        W76649  38.230  35.891  13.740
11665W        W76650  39.326  43.665  13.899
11666W        W76651  12.144   4.752  10.947
11667W        W76652  35.582   1.743   2.826
11668W        W76653  22.140  19.446   2.156
11669W        W76654  37.018  12.073  12.129
11670W        W76655   5.182  28.516   2.727
11671W        W76656  27.502   5.211   4.155
11672W        W76657  35.027  43.985   1.939
11673W        W76658  24.536  26.131  13.005
11674W        W76659  23.542   9.785   1.791
11675W        W76660  43.185  28.054  13.749
11676W        W76661  23.017  10.603   4.103
11677W        W76662   9.022  26.352  12.411
11678W        W76663   2.727  26.346  10.945
11679W        W76664  32.772  11.894  12.873
11680W        W76665  29.671   2.820   5.307
11681W        W76666  10.111  26.992   0.439
11682W        W76667  28.143  32.585   3.766
11683W        W76668  27.893  13.238  11.111
11684W        W76669  28.415  11.850   1.632
11685W        W76670  43.449  10.320   3.577
11686W        W76671  14.277  34.426   2.162
11687W        W76672   5.277  38.073   0.031
11688W        W76673  32.900   3.446  13.345
11689W        W76674  19.368  39.214   0.341
11690W        W76675  32.788  14.637  11.914
11691W        W76676  33.150  30.638   1.416
11692W        W76677  17.180  21.066   1.846
11693W        W76678  16.671   7.477   0.370
11694W        W76679   0.294  18.256   4.671
11695W        W76680  35.501  40.593   1.309
11696W        W76681   3.727  12.196   0.636
11697W        W76682  23.934  37.859   0.295
11698W        W76683  36.818   3.854  14.326
11699W        W76684  15.788  27.465   1.860
11700W        W76685  31.927  21.341  10.621
11701W        W76686  43.889  26.019  10.664
11702W        W76687   0.000  18.187  10.493
11703W        W76688  41.944  15.350   1.504
11704W        W76689   5.800  31.108  12.864
11705W        W76690  11.750  38.281   2.755
11706W        W76691  11.221  21.321  11.619
11707W        W76692  18.278  44.493  14.533
11708W        W76693  26.913  44.419  10.969
11709W        W76694  32.399  43.556  12.360
11710W        W76695  32.328  28.263   1.890
11711W        W76696  33.209   9.737  12.958
11712W        W76697  37.072  15.991   1.893
11713W        W76698  19.656  37.860   2.716
11714W        W76699  26.266  29.050  10.320
11715W        W76700  10.520   4.703  11.442
11716W        W76701  32.414  26.179  11.471
11717W        W76702   8.821  36.490  12.306
11718W        W76703  19.681  24.506  11.868
11719W        W76704   0.357  16.315  11.557
11720W        W76705  24.221  27.136   4.641
11721W        W76706  40.642  35.512  14.661
11722W        W76707   5.568  41.809   4.175
11723W        W76708   0.185   1.877  12.964
11724W        W76709  14.324  33.110   2.894
11725W        W76710   3.227   4.536  14.923
11726W        W76711  37.594  37.142  11.043
11727W        W76712  12.135  44.110   1.316
11728W        W76713  35.078   6.291  12.999
11729W        W76714  40.598  43.016   3.621
11730W        W76715  39.022  33.824  12.474
11731W        W76716  27.069  37.411   1.691
11732W        W76717  20.152  17.264  12.474
11733W        W76718  40.803  41.328   4.285
11734W        W76719  28.072  39.905   2.351
11735W        W76720  29.820  18.217   4.540
11736W        W76721  16.327   8.025  10.329
11737W        W76722  23.018  34.817   2.134
11738W        W76723  18.227  42.100   2.678
11739W        W76724   1.796  28.437  11.123
11740W        W76725  10.709  38.786   4.135
11741W        W76726  26.615  12.815  14.381
11742W        W76727  23.783   4.217  14.655
11743W        W76728  11.365  20.026  12.057
11744W        W76729   7.872  39.584   2.808
11745W        W76730  10.646  26.513   2.178
11746W        W76731  32.815  15.785  11.046
11747W        W76732  26.100  15.174   3.777
11748W        W76733  22.561   1.653  12.077
11749W        W76734  14.235  31.857  12.357
11750W        W76735  21.208   6.028  11.984
11751W        W76736  35.549  43.814   1.902
11752W        W76737  39.494  27.618  13.558
11753W        W76738  43.958  41.494   3.131
11754W        W76739  19.995   9.895  13.485
11755W        W76740   4.716  25.590  11.238
11756W        W76741  29.045  31.214   0.376
11757W        W76742   1.760   0.898   0.797
11758W        W76743  16.164  29.274  11.941
11759W        W76744   1.602   5.810  12.975
11760W        W76745  11.625   4.260   3.572
11761W        W76746  23.697  13.806  13.550
11762W        W76747  30.948   5.151  12.778
11763W        W76748  40.201  19.659  11.032
11764W        W76749  21.255   5.443   4.963
11765W        W76750  32.358  42.400  12.963
11766W        W76751  25.788  14.623  13.820
11767W        W76752  33.075  19.587   1.773
11768W        W76753  14.826  13.525   1.135
11769W        W76754  41.920  31.695  11.531
11770W        W76755   1.305  13.601   4.662
11771W        W76756  13.650  27.000   2.176
11772W        W76757  24.095  18.163  14.541
11773W        W76758  32.461   5.643   1.272
11774W        W76759  18.511  16.910   2.676
11775W        W76760  18.056   2.775  13.530
11776W        W76761  16.041   4.770  13.863
11777W        W76762  20.425   9.077  11.437
11778W        W76763  44.191  23.165  10.695
11779W        W76764  32.581   0.500   4.558
11780W        W76765  42.982  25.968   2.085
11781W        W76766   4.693   0.470   3.784
11782W        W76767  27.703  31.904   0.512
11783W        W76768  42.007  30.455   2.314
11784W        W76769  13.596  40.522  10.532
11785W        W76770  13.615  11.406   0.889
11786W        W76771  15.144  39.089   1.247
11787W        W76772  17.846  35.138  11.024
11788W        W76773   2.406  12.412  14.751
11789W        W76774  28.262   2.770  13.907
11790W        W76775  43.469  26.019  13.491
11791W        W76776  34.191  18.717  13.266
11792W        W76777   1.790  21.214  11.969
11793W        W76778  37.982  35.502   2.805
11794W        W76779  17.902  25.769  12.994
11795W        W76780  22.084  41.990   4.529
11796W        W76781  30.117  10.701   4.854
11797W        W76782  29.176   4.880   4.694
11798W        W76783   6.915  36.883  13.214
11799W        W76784  24.027  32.350  12.721
11800W        W76785  22.565  13.608   0.445
11801W        W76786  43.520  36.192  13.064
11802W        W76787  14.362  34.330  13.411
11803W        W76788  17.476  16.829  11.941
11804W        W76789  24.921   9.819  11.592
11805W        W76790  12.745   2.215  12.502
11806W        W76791  24.259  14.199   4.565
11807W        W76792  35.869   6.481   3.212
11808W        W76793   5.298  31.133  11.474
11809W        W76794  13.776   1.726  13.148
11810W        W76795  10.691  19.009   2.317
11811W        W76796  14.924  25.499  12.565
11812W        W76797  24.053  26.194  13.741
11813W        W76798  27.709  19.156   2.820
11814W        W76799  21.810  42.119   1.648
11815W        W76800  32.658  14.803   0.520
11816W        W76801  22.231  14.615  11.086
11817W        W76802  13.496  31.435  13.874
11818W        W76803  14.723  37.429   0.956
11819W        W76804  38.959  32.724  10.716
11820W        W76805  17.824  44.167   3.405
11821W        W76806  39.331  24.152   0.706
11822W        W76807  15.831  17.611  12.008
11823W        W76808  11.738  10.308  14.412
11824W        W76809  19.644  33.628   0.963
11825W        W76810  19.159  33.351   3.273
11826W        W76811  44.768   7.634   2.925
11827W        W76812  20.796  19.741  14.976
11828W        W76813  38.970  36.556  12.951
11829W        W76814  19.394  28.565   1.173
11830W        W76815   4.940  23.627  13.502
11831W        W76816  27.554  25.038  10.670
11832W        W76817   3.616  33.461  13.700
11833W        W76818  43.347  31.510  12.467
11834W        W76819  42.765  40.049  10.594
11835W        W76820  38.652  20.347   3.574
11836W        W76821  35.822  21.239   3.581
11837W        W76822   8.512  36.420   2.386
11838W        W76823  25.364  35.736   0.435
11839W        W76824   9.399  22.518  14.854
11840W        W76825   5.947  36.629  13.416
11841W        W76826  14.527  24.324  14.091
11842W        W76827  15.572   5.118   0.418
11843W        W76828   2.272   0.389  14.714
11844W        W76829  11.678  23.063   0.963
11845W        W76830  36.934  10.181   4.461
11846W        W76831  27.495  21.662  14.524
11847W        W76832  34.662  40.970  10.585
11848W        W76833  24.364  30.847   3.653
11849W        W76834  17.075   3.045  12.113
11850W        W76835   4.072   9.203  10.586
11851W        W76836  42.339  27.137  14.021
11852W        W76837   0.477  33.728  11.902
11853W        W76838  37.285  13.222   3.052
11854W        W76839  12.421   1.895   2.826
11855W        W76840   3.046  22.437   2.823
11856W        W76841  19.153   3.554  11.900
11857W        W76842   1.862  21.641   4.327
11858W        W76843   4.817  18.280   1.948
11859W        W76844   5.945   5.942  12.573
11860W        W76845  29.630   3.824   3.837
11861W        W76846   2.777  33.652   0.211
11862W        W76847  13.258  44.864   4.513
11863W        W76848   0.282   7.648   2.070
11864W        W76849  37.396  30.945  12.691
11865W        W76850   0.632   2.284   2.875
11866W        W76851  34.437  25.981   4.279
11867W        W76852  10.671  13.865  12.957
11868W        W76853   5.387  35.781   2.339
11869W        W76854  29.508  27.221   0.822
11870W        W76855  39.023  17.472   1.290
11871W        W76856  11.136   9.690  11.036
11872W        W76857  40.370   6.354   3.056
11873W        W76858   4.907  37.298   0.701
11874W        W76859  44.721  11.711  12.424
11875W        W76860  24.967  41.798  12.292
11876W        W76861  16.790  29.440  14.054
11877W        W76862  13.975  26.382  12.486
11878W        W76863   9.948  14.125   4.182
11879W        W76864  36.583  36.613  13.438
11880W        W76865  44.338  20.129  14.892
11881W        W76866  28.720  39.368   4.566
11882W        W76867  11.742   6.357  11.242
11883W        W76868  42.298  10.656  10.684
11884W        W76869  32.860  17.302   3.939
11885W        W76870  38.891  27.222   3.962
11886W        W76871  36.906  13.279   4.863
11887W        W76872  40.290  40.031   4.976
11888W        W76873  33.890  32.842  11.713
11889W        W76874   9.227  33.348   4.677
11890W        W76875   6.393  17.991   1.002
11891W        W76876  32.558   8.441  12.941
11892W        W76877  25.176  23.437   1.890
11893W        W76878  28.386  11.475   1.277
11894W        W76879  15.173  41.926  11.466
11895W        W76880   0.499  19.072   4.122
11896W        W76881  40.950   3.962   1.243
11897W        W76882   7.731  26.736   2.894
11898W        W76883   3.486  11.121  13.948
11899W        W76884  40.637  22.249   2.798
11900W        W76885  37.930  38.855  14.485
11901W        W76886  31.415  23.515   4.008
11902W        W76887  43.549  38.792   2.546
11903W        W76888   9.695   6.733   0.872
11904W        W76889  39.318  16.352   2.683
11905W        W76890  14.055  42.765   2.430
11906W        W76891  21.057  37.498  14.915
11907W        W76892  35.976   7.328  13.396
11908W        W76893  26.808   2.899   3.677
11909W        W76894  28.933  40.019   4.075
11910W        W76895  18.166  26.460  13.537
11911W        W76896   0.968  14.694  14.407
11912W        W76897  34.875  37.575   4.549
11913W        W76898  41.480  40.543   2.360
11914W        W76899  43.880   7.167  11.507
11915W        W76900  37.449  40.318   3.281
11916W        W76901  14.206  39.285  10.702
11917W        W76902   1.506  32.088   3.269
11918W        W76903  37.941   7.442   9.770
11919W        W76904  43.460  33.371  10.973
11920W        W76905  30.171  42.283  12.998
11921W        W76906   4.335  25.691   3.102
11922W        W76907   6.288   8.250  11.501
11923W        W76908   9.122  31.189   1.354
11924W        W76909  16.328  31.641   3.210
11925W        W76910  22.721  16.528   5.179
11926W        W76911  28.521  28.030  11.590
11927W        W76912   5.214  21.812   2.483
11928W        W76913  44.766  30.505   4.097
11929W        W76914  38.437  28.985  13.075
11930W        W76915  26.293  33.121   5.390
11931W        W76916  15.322  38.525   3.447
11932W        W76917   6.371   1.713  13.033
11933W        W76918  29.651  35.600   4.840
11934W        W76919  42.190  17.492   4.020
11935W        W76920  25.554  42.603  10.700
11936W        W76921  33.855  20.752  11.595
11937W        W76922  30.453  30.570   0.496
11938W        W76923  39.009  42.273  11.268
11939W        W76924   6.277  30.129   1.187
11940W        W76925  12.444  38.824  12.432
11941W        W76926  28.305  44.037   1.463
11942W        W76927  30.261  32.593  12.895
11943W        W76928  29.048  28.341   4.158
11944W        W76929   5.506  11.822  11.863
11945W        W76930  20.073  39.070   2.227
11946W        W76931  34.054  40.267   3.384
11947W        W76932   1.726   3.178   0.361
11948W        W76933   3.959  36.538   1.373
11949W        W76934  15.735  33.979   4.338
11950W        W76935  40.513  27.500  10.237
11951W        W76936  36.626  27.053   1.906
11952W        W76937  39.175   5.357   1.208
11953W        W76938  32.628   6.676   1.077
11954W        W76939  41.890   7.698   2.160
11955W        W76940  36.335  39.028  14.186
11956W        W76941  19.677  25.180  10.652
11957W        W76942  39.981  41.887   4.625
11958W        W76943   3.869   7.683   1.744
11959W        W76944  32.626  39.988  12.456
11960W        W76945   6.393  21.197   2.651
11961W        W76946  35.616  28.201   4.140
11962W        W76947  16.794  36.134   3.374
11963W        W76948  22.241  32.030   1.464
11964W        W76949  19.997  26.433   3.326
11965W        W76950   9.709  30.847   3.641
11966W        W76951   0.937  29.910  12.640
11967W        W76952  44.753   8.679   3.335
11968W        W76953  21.075  35.596  13.262
11969W        W76954  21.933  42.437  10.596
11970W        W76955  13.398   1.730  12.199
11971W        W76956   1.919  33.721  14.037
11972W        W76957  25.554  16.843   0.801
11973W        W76958  30.160  25.960  14.471
11974W        W76959  19.831  11.181   3.258
11975W        W76960  11.800   8.755   4.506
11976W        W76961   2.671   4.017   0.692
11977W        W76962   0.767  31.969   0.558
11978W        W76963  43.903  11.147   1.232
11979W        W76964  31.150  38.075  11.141
11980W        W76965  19.137  35.657  12.178
11981W        W76966  38.852  31.509   1.197
11982W        W76967  24.693  13.871  11.126
11983W        W76968  33.520   3.524   4.195
11984W        W76969  13.564  36.103   1.303
11985W        W76970  14.222  36.312   2.128
11986W        W76971  13.084   9.140  14.874
11987W        W76972  42.434  42.842   3.343
11988W        W76973   8.337   8.437  12.142
11989W        W76974  29.680  13.050   4.541
11990W        W76975  26.762   0.877   2.736
11991W        W76976  19.326  14.648   0.721
11992W        W76977   5.067  10.638   4.208
11993W        W76978  27.489   7.582  13.066
11994W        W76979  30.476  28.741   1.756
11995W        W76980  34.859  28.859   4.554
11996W        W76981  10.188  44.172   0.696
11997W        W76982   2.167  22.502  11.699
11998W        W76983  31.440   5.731   1.913
11999W        W76984   9.719  21.116   2.603
12000W        W76985   5.120  18.478   2.352
12001W        W76986  24.370  22.540   5.161
12002W        W76987  11.014  38.577   1.086
12003W        W76988  43.040   1.343   1.161
12004W        W76989  34.375   6.180  11.843
12005W        W76990   8.917  24.584   0.914
12006W        W76991  25.445  28.870   3.641
12007W        W76992  22.685  32.120   4.829
12008W        W76993  44.691   3.925  11.848
12009W        W76994  40.015  13.870  14.308
12010W        W76995  30.664  43.209   3.987
12011W        W76996  30.132  34.164   1.009
12012W        W76997  40.600  19.677   1.396
12013W        W76998  11.025  11.276  14.269
12014W        W76999  31.687  15.745  13.511
12015W        W77000   2.322   8.342   0.366
12016W        W77001  29.063  43.418   2.679
12017W        W77002  13.153  18.765  12.495
12018W        W77003  33.892  33.115   0.440
12019W        W77004  28.180  18.833   1.288
12020W        W77005   8.626  40.819  11.993
12021W        W77006  32.735   5.313   2.156
12022W        W77007  20.249  27.644   0.210
12023W        W77008   5.525  40.382   3.234
12024W        W77009  15.486   4.251   1.912
12025W        W77010  27.164  11.808   0.693
12026W        W77011  30.102  31.123  11.056
12027W        W77012  27.589   6.436  11.528
12028W        W77013  30.960  40.005   4.724
12029W        W77014  37.834  35.355   4.257
12030W        W77015  42.818  31.443  10.743
12031W        W77016   1.383  36.311   3.878
12032W        W77017  23.002  37.380   1.325
12033W        W77018   1.434   6.394   0.963
12034W        W77019  31.540  42.994  12.469
12035W        W77020  32.928  28.643   1.683
12036W        W77021  19.674  41.831   1.258
12037W        W77022  42.350   2.498   4.084
12038W        W77023  32.658  39.020   4.360
12039W        W77024   8.428   2.360  13.787
12040W        W77025  13.749  18.541  11.434
12041W        W77026  27.172  19.517  13.394
12042W        W77027  42.015   2.217  14.307
12043W        W77028  30.590  16.747  14.743
12044W        W77029  44.369  30.619   4.905
12045W        W77030  27.274  16.334   0.360
12046W        W77031  43.981  29.022   4.959
12047W        W77032   2.221  40.849   4.129
12048W        W77033  14.845   6.989  13.281
12049W        W77034  14.744  32.644   2.151
12050W        W77035  37.489  13.002   0.144
12051W        W77036   5.773   5.336   2.736
12052W        W77037  10.617  36.076  10.534
12053W        W77038   1.533  26.945  11.739
12054W        W77039  28.291  20.667  12.771
12055W        W77040   1.515  34.281   4.132
12056W        W77041  23.171  12.825   0.513
12057W        W77042  32.769  38.972  14.437
12058W        W77043  16.028   0.894  14.864
12059W        W77044  16.472  22.433  11.152
12060W        W77045  19.344  43.226  11.047
12061W        W77046  42.269  28.085   2.975
12062W        W77047  29.215  25.109  10.694
12063W        W77048  16.032  27.070  12.909
12064W        W77049   5.966  38.325  12.013
12065W        W77050  26.192   5.365   3.140
12066W        W77051   3.432  13.633  11.281
12067W        W77052   9.507   1.036  13.206
12068W        W77053  25.674  16.797   0.265
12069W        W77054  23.050  16.382   0.476
12070W        W77055  29.764   2.740   4.293
12071W        W77056   1.941  43.106  14.363
12072W        W77057  27.086  22.453   4.869
12073W        W77058   1.984  31.594   1.154
12074W        W77059  41.509  41.219   0.944
12075W        W77060   0.516   8.626   2.324
12076W        W77061   0.437  19.026  14.889
12077W        W77062  39.303  38.503   3.665
12078W        W77063   8.781  15.100   3.160
12079W        W77064  20.641  27.285   0.454
12080W        W77065  20.588  29.076   4.963
12081W        W77066  18.661  24.010  12.392
12082W        W77067   3.312  25.731  11.572
12083W        W77068  17.539   6.886   3.062
12084W        W77069   3.016   4.804   1.867
12085W        W77070  40.047  10.722  12.566
12086W        W77071  29.184   5.267   1.758
12087W        W77072  28.294  14.570   0.394
12088W        W77073  29.472  24.937  10.249
12089W        W77074  35.411  37.438   1.951
12090W        W77075  30.011  37.506   2.184
12091W        W77076   7.224  26.137   1.675
12092W        W77077  42.202  12.390  11.025
12093W        W77078  36.978  17.846  11.540
12094W        W77079   3.774   5.449   2.358
12095W        W77080  35.345  31.661   4.181
12096W        W77081  29.427  41.314   1.172
12097W        W77082  40.761  37.991  14.392
12098W        W77083  30.435  16.508   1.414
12099W        W77084  39.103  36.529   3.864
12100W        W77085  38.628   8.674   4.971
12101W        W77086  17.060   1.429  11.164
12102W        W77087  36.836  10.658  11.772
12103W        W77088  42.924   4.115   4.863
12104W        W77089  38.077  35.962   3.426
12105W        W77090  43.626   6.976  11.085
12106W        W77091  22.300  37.331   2.653
12107W        W77092  34.959  33.570  10.720
12108W        W77093  38.096   3.838   2.747
12109W        W77094  25.508  36.879   1.076
12110W        W77095  16.842   0.695   3.854
12111W        W77096  13.647  14.898   1.158
12112W        W77097  37.988  24.466   2.896
12113W        W77098  37.182  30.034   2.968
12114W        W77099  29.596  37.088   0.303
12115W        W77100  25.211  26.658   3.193
12116W        W77101  14.196   2.218   2.366
12117W        W77102  44.029  28.033  12.135
12118W        W77103  24.149  41.733  14.285
12119W        W77104  38.342  15.160   1.896
12120W        W77105  17.086  25.926  12.062
12121W        W77106  39.167  18.560  11.965
12122W        W77107  24.248   4.714  14.546
12123W        W77108   3.282  29.698   0.395
12124W        W77109   1.021   5.452  13.834
12125W        W77110  25.927  44.406   1.391
12126W        W77111  30.796  38.633  11.971
12127W        W77112  19.758  38.375   3.237
12128W        W77113  31.888  31.404  12.254
12129W        W77114  39.315  34.904  14.763
12130W        W77115   2.718  20.783   4.936
12131W        W77116  36.061  35.543  13.070
12132W        W77117  28.770   5.777  12.145
12133W        W77118  29.605  31.803  14.921
12134W        W77119  10.653   5.193  11.581
12135W        W77120  38.193   1.508  14.328
12136W        W77121  15.567   2.394   1.856
12137W        W77122   0.333   5.505  14.407
12138W        W77123   8.695  33.481  12.499
12139W        W77124  39.053  30.016   3.801
12140W        W77125   9.572  27.555   3.572
12141W        W77126  11.951  27.489   4.124
12142W        W77127  27.112   1.488   3.169
12143W        W77128  35.040  20.762   1.260
12144W        W77129  19.065  27.662  13.196
12145W        W77130  28.010  26.914   0.868
12146W        W77131  14.824  42.018   0.317
12147W        W77132  13.566  12.322   0.739
12148W        W77133  38.859  19.760  12.055
12149W        W77134   2.617   5.819  12.146
12150W        W77135  26.209  41.942   1.652
12151W        W77136  29.869  41.643  13.377
12152W        W77137   5.542  10.397   0.869
12153W        W77138  35.561   5.411  11.504
12154W        W77139  37.494  26.000   0.050
12155W        W77140  20.842  12.640   2.172
12156W        W77141   2.710  10.869   1.447
12157W        W77142   8.078  10.204  14.982
12158W        W77143  10.756  34.913  11.526
12159W        W77144  33.937   6.225  12.143
12160W        W77145  15.324  11.661  13.944
12161W        W77146  44.399  31.884   1.296
12162W        W77147  39.931   2.874  13.567
12163W        W77148  37.630  24.191  12.846
12164W        W77149  27.185  33.838   2.690
12165W        W77150   2.456  22.478  10.894
12166W        W77151  11.723  36.782   1.828
12167W        W77152  12.750   6.837   4.990
12168W        W77153  36.906  34.045  12.293
12169W        W77154  43.854   2.841   1.227
12170W        W77155  32.876  34.384  13.039
12171W        W77156  28.935  31.340   0.907
12172W        W77157  17.287  42.494   2.613
12173W        W77158  14.714   7.737   3.228
12174W        W77159   9.815  23.212   1.647
12175W        W77160  40.739   2.354   2.970
12176W        W77161  40.043  25.592   2.166
12177W        W77162  39.963  23.137   0.750
12178W        W77163  42.935  10.101   2.907
12179W        W77164   1.823  26.721   1.746
12180W        W77165  34.720  11.248  14.225
12181W        W77166  29.942   9.400  11.204
12182W        W77167  17.314  35.544   0.007
12183W        W77168  25.898  26.083   1.821
12184W        W77169  37.398  34.695  14.243
12185W        W77170  37.824  24.867  11.693
12186W        W77171  14.184   1.840  10.959
12187W        W77172  18.158  20.420  13.936
12188W        W77173   2.867   1.826   2.042
12189W        W77174   7.198  15.516   4.647
12190W        W77175   7.380  42.424   1.016
12191W        W77176  40.932  43.837   3.306
12192W        W77177  28.866   6.687   2.379
12193W        W77178  37.474   5.437   4.105
12194W        W77179   8.577  42.047   0.943
12195W        W77180   2.432  30.918   4.035
12196W        W77181  31.063  32.022  14.935
12197W        W77182  39.741  21.420  11.971
12198W        W77183   4.254   8.655  11.966
12199W        W77184   0.239   3.952  13.043
12200W        W77185  15.760  16.110  13.527
12201W        W77186   0.745  44.045   1.342
12202W        W77187  32.471  32.474   4.085
12203W        W77188  35.561  12.235  13.332
12204W        W77189   9.154  25.490  14.996
12205W        W77190  19.806  43.454  11.086
12206W        W77191   3.370   4.652   5.030
12207W        W77192  22.307   0.135   0.298
12208W        W77193  37.884  21.719   2.689
12209W        W77194  43.264  33.621  13.844
12210W        W77195   7.666  36.091   2.773
12211W        W77196  18.171   9.300  11.020
12212W        W77197   2.100  25.678   3.452
12213W        W77198   8.914  22.115   2.914
12214W        W77199  27.536  35.463  11.569
12215W        W77200  38.766  32.915   4.682
12216W        W77201  24.777  38.813  14.860
12217W        W77202  29.793  19.177  14.633
12218W        W77203  14.073   9.928   3.759
12219W        W77204  26.086  35.801  13.076
12220W        W77205  14.381  26.956   2.699
12221W        W77206   8.262  41.360   1.569
12222W        W77207  22.442   8.696  11.253
12223W        W77208  36.080  12.688   3.523
12224W        W77209   8.343   5.336   0.312
12225W        W77210   2.790  37.419   1.627
12226W        W77211  23.033  41.046  12.062
12227W        W77212  44.466  37.990   0.492
12228W        W77213  22.071   8.693  12.550
12229W        W77214  17.562  24.500   0.360
12230W        W77215   8.776  22.766   1.212
12231W        W77216  14.960  14.242   0.246
12232W        W77217  28.409  38.394  13.058
12233W        W77218  21.589  31.834  13.415
12234W        W77219  14.046  43.794   4.643
12235W        W77220  16.548  17.299  13.879
12236W        W77221  34.943  30.963   4.419
12237W        W77222  38.553  34.499  14.863
12238W        W77223  11.882  15.805   2.725
12239W        W77224  33.687   6.140   3.162
12240W        W77225   5.622   6.321  10.597
12241W        W77226  20.336  12.222   0.900
12242W        W77227  10.828  41.435   2.648
12243W        W77228  25.023  39.730  11.191
12244W        W77229  22.529  23.285  13.807
12245W        W77230  21.526  38.143  14.107
12246W        W77231  32.142  32.125  11.204
12247W        W77232  26.522  32.217   4.529
12248W        W77233  13.648  30.854   3.272
12249W        W77234   4.389  12.108  12.393
12250W        W77235  17.397  36.490   2.321
12251W        W77236  26.190  34.488  13.534
12252W        W77237  18.182  43.066  11.525
12253W        W77238  33.552  28.422  13.518
12254W        W77239  32.815  18.725   4.015
12255W        W77240  35.715  24.536   2.760
12256W        W77241  12.646  21.951  11.053
12257W        W77242   6.599  21.967   4.105
12258W        W77243  41.873  32.995  10.264
12259W        W77244  35.402   3.201  12.454
12260W        W77245  11.576  41.193  10.240
12261W        W77246  18.772  33.515   0.732
12262W        W77247   2.736  19.092  10.840
12263W        W77248   7.620   8.477  10.226
12264W        W77249   5.810  41.747   4.623
12265W        W77250  39.908  42.101  12.386
12266W        W77251  25.754   0.557  13.295
12267W        W77252  17.344  33.549  12.819
12268W        W77253  14.081  41.345  13.934
12269W        W77254  21.506  29.272   2.328
12270W        W77255  21.077  43.985   1.688
12271W        W77256  22.686  28.408   0.714
12272W        W77257   2.716  26.539  13.302
12273W        W77258  29.086  38.967   0.625
12274W        W77259   1.657  14.138   2.346
12275W        W77260  12.243   9.354   4.054
12276W        W77261  36.180  22.761  13.524
12277W        W77262   1.260  24.036  13.367
12278W        W77263  38.800  30.961   3.585
12279W        W77264   2.229  22.291  12.910
12280W        W77265  35.950  12.754   4.022
12281W        W77266  10.168  26.489   3.279
12282W        W77267  43.463  18.122  12.445
12283W        W77268  36.414  41.369  11.961
12284W        W77269  16.056  18.567  13.885
12285W        W77270   7.388   8.874   1.969
12286W        W77271  25.470   6.446   0.898
12287W        W77272  14.317   2.488   3.646
12288W        W77273  14.814  19.500   5.012
12289W        W77274  24.515   8.796  14.347
12290W        W77275  20.682  44.940   0.225
12291W        W77276   1.325  40.483  10.625
12292W        W77277  31.682  12.108  13.598
12293W        W77278  42.083   7.269  10.358
12294W        W77279  17.729   2.365  12.035
12295W        W77280  22.606   0.716   2.602
12296W        W77281  28.322  21.179  10.204
12297W        W77282  32.002  12.706  12.488
12298W        W77283  30.229  28.084  10.690
12299W        W77284  35.014  42.508  14.489
12300W        W77285  15.086   7.084   1.750
12301W        W77286  15.129  42.571   2.094
12302W        W77287  37.959  35.049  12.429
12303W        W77288  35.933  21.560  11.096
12304W        W77289  38.570   4.924   4.160
12305W        W77290  28.412   2.919   3.679
12306W        W77291  15.127  12.116  10.698
12307W        W77292  10.823  21.567   2.262
12308W        W77293   8.861  35.016  11.690
12309W        W77294  42.226   4.434   0.748
12310W        W77295   6.507  43.228   3.757
12311W        W77296   0.475  41.328   2.777
12312W        W77297   8.868  35.864  11.123
12313W        W77298  10.788  24.272  10.730
12314W        W77299   4.894   5.709  14.348
12315W        W77300   6.390   3.710  13.849
12316W        W77301  21.260   3.311  12.039
12317W        W77302   9.753  36.189   0.281
12318W        W77303   9.060  11.529   0.137
12319W        W77304  42.041  24.495  12.987
12320W        W77305  31.341   2.821   0.448
12321W        W77306   8.336  40.413   2.930
12322W        W77307  19.401  28.621  12.937
12323W        W77308   4.147  33.574   4.157
12324W        W77309  40.626  32.855   9.778
12325W        W77310   0.467  15.664   9.852
12326W        W77311   0.778   7.792  10.734
12327W        W77312  31.791   2.182  14.029
12328W        W77313  42.367  19.290  10.653
12329W        W77314  25.689  11.944   1.273
12330W        W77315  29.153  29.971  10.234
12331W        W77316  32.178   9.225  14.490
12332W        W77317  20.613   7.160  13.117
12333W        W77318  44.278  16.080   1.048
12334W        W77319  40.992   7.266   0.370
12335W        W77320   3.070  27.023   4.740
12336W        W77321  39.902   1.846   2.321
12337W        W77322  34.910  18.563  12.691
12338W        W77323  25.936  23.843   0.479
12339W        W77324  38.517  40.924  10.587
12340W        W77325  23.158  42.850  11.514
12341W        W77326   9.738   7.192  12.509
12342W        W77327  18.650   8.332  14.560
12343W        W77328  34.772  32.132  12.952
12344W        W77329  14.127  18.296   1.949
12345W        W77330  10.863  35.758  12.021
12346W        W77331  28.955  16.378   3.119
12347W        W77332  22.699   7.409   0.408
12348W        W77333  36.865  12.229   3.232
12349W        W77334  40.530  32.365   1.414
12350W        W77335  27.437  27.092  14.868
12351W        W77336  25.759  27.397   4.535
12352W        W77337   1.755  16.051   3.200
12353W        W77338  35.138  32.190  13.909
12354W        W77339  40.950  43.369   4.615
12355W        W77340  40.264  20.557   2.824
12356W        W77341  42.673  24.567  10.313
12357W        W77342   0.781   5.189  14.304
12358W        W77343  35.510  20.771  12.025
12359W        W77344  18.401  29.654   2.738
12360W        W77345  44.445  22.134  12.539
12361W        W77346  16.183  20.735   4.031
12362W        W77347  14.842  27.710   3.624
12363W        W77348   3.596  29.592   4.913
12364W        W77349   3.850  20.451  10.622
12365W        W77350   1.930  13.216   0.781
12366W        W77351   0.381  19.505  14.212
12367W        W77352   3.680  11.780   0.290
12368W        W77353  11.194  34.438   1.426
12369W        W77354  13.165  31.993  13.036
12370W        W77355  34.331  33.955   1.393
12371W        W77356  43.587  15.591  14.185
12372W        W77357  23.554  19.245   3.968
12373W        W77358  18.752   1.331   0.481
12374W        W77359   9.359  44.012   3.826
12375W        W77360  20.630  13.610   4.730
12376W        W77361  25.927   9.516   0.348
12377W        W77362  30.990   8.903   4.000
12378W        W77363  30.610  41.600  11.614
12379W        W77364   2.989  25.992   2.774
12380W        W77365  25.531  34.963  13.033
12381W        W77366   1.182  27.981  13.769
12382W        W77367   6.690  23.502  11.201
12383W        W77368  24.137  13.243  11.904
12384W        W77369  16.211  15.269  13.257
12385W        W77370  19.296   2.350  11.200
12386W        W77371  40.561  10.759   4.913
12387W        W77372  31.811  13.988   1.302
12388W        W77373   2.336   5.914  10.734
12389W        W77374  35.158   2.338   0.797
12390W        W77375  40.749  23.453   4.567
12391W        W77376  40.458  28.374  13.426
12392W        W77377  36.626   6.740  13.883
12393W        W77378  20.797  38.112  12.969
12394W        W77379   7.484  23.360  12.040
12395W        W77380  39.813  16.114  12.484
12396W        W77381  26.115   2.297  14.417
12397W        W77382  18.215  41.475  13.342
12398W        W77383   2.559  37.452  12.006
12399W        W77384   0.586  19.896   0.795
12400W        W77385  11.298  26.533   4.162
12401W        W77386   3.972  44.980  13.855
12402W        W77387  15.268  39.292  11.997
12403W        W77388  20.124  43.020  12.735
12404W        W77389   7.873  38.786  11.706
12405W        W77390  19.317  15.811   4.323
12406W        W77391  23.615  43.720  10.802
12407W        W77392  44.994  38.406  13.993
12408W        W77393  24.938  26.589  11.130
12409W        W77394  10.183  42.358   2.472
12410W        W77395   8.784  35.460  11.417
12411W        W77396  24.888   0.133  14.878
12412W        W77397  38.090   6.372   4.462
12413W        W77398  29.221  11.556   1.533
12414W        W77399   5.753  30.137   4.399
12415W        W77400   4.903  11.830   1.366
12416W        W77401  22.149   1.016  14.458
12417W        W77402  41.771  10.265  12.392
12418W        W77403  20.031   7.203  11.076
12419W        W77404  34.458  41.479  10.511
12420W        W77405  27.520  31.133  11.198
12421W        W77406  42.727   4.171  13.975
12422W        W77407  11.961   6.981   2.821
12423W        W77408  30.536  15.768   4.107
12424W        W77409  14.184  21.680  14.789
12425W        W77410  24.497  40.483  11.965
12426W        W77411  43.872  32.024  11.485
12427W        W77412  31.391  41.263   2.727
12428W        W77413   5.890   2.422   4.524
12429W        W77414  21.808   4.916  12.706
12430W        W77415   4.424   8.999   4.148
12431W        W77416  24.026   6.736   3.656
12432W        W77417  29.838  12.720   1.375
12433W        W77418   1.514  10.155   3.318
12434W        W77419  43.370  35.069   4.234
12435W        W77420  14.047  41.687   4.670
12436W        W77421  27.401   7.315  12.616
12437W        W77422  12.216  15.955  11.215
12438W        W77423  22.951   0.887   4.551
12439W        W77424  35.981  39.526  13.534
12440W        W77425  38.475  34.450  13.493
12441W        W77426  44.039   3.502  11.221
12442W        W77427   2.968  29.983   0.773
12443W        W77428  25.254  41.482   5.061
12444W        W77429  35.505  20.316  12.253
12445W        W77430  32.012  23.277   1.637
12446W        W77431  25.038  27.730  14.953
12447W        W77432  20.916  32.640   2.150
12448W        W77433  31.261  27.254   1.378
12449W        W77434  27.152   7.613  13.508
12450W        W77435  28.461  19.012   1.679
12451W        W77436   0.413  15.181  10.728
12452W        W77437  10.921   1.722   1.130
12453W        W77438  18.861  28.458   1.301
12454W        W77439  43.974  15.261  11.954
12455W        W77440  21.794  12.547   2.509
12456W        W77441  33.100  32.979   1.894
12457W        W77442  21.767  18.444   1.202
12458W        W77443  31.388  24.009   2.749
12459W        W77444  33.053  39.411  14.410
12460W        W77445  24.669  10.535  12.491
12461W        W77446   6.756  18.227  11.692
12462W        W77447  39.292   3.205   4.494
12463W        W77448   0.186   4.225   3.342
12464W        W77449  30.234  36.499   0.051
12465W        W77450  15.207  29.928   1.396
12466W        W77451  26.731  28.183  11.099
12467W        W77452   9.804   5.669   3.168
12468W        W77453  44.279  19.865   4.313
12469W        W77454   4.914  22.561  13.414
12470W        W77455   0.882  34.615  10.699
12471W        W77456  16.793  20.121   4.230
12472W        W77457  40.396  28.054   4.156
12473W        W77458   7.357  20.681   0.765
12474W        W77459  31.899   5.504   1.851
12475W        W77460  17.105  39.342   4.600
12476W        W77461  35.537  24.669   1.440
12477W        W77462  41.241  16.069   3.205
12478W        W77463  30.491   9.857  12.585
12479W        W77464  40.528  26.988   3.079
12480W        W77465  14.940   4.715  11.217
12481W        W77466  37.450   0.381   4.645
12482W        W77467  25.989  22.932   1.879
12483W        W77468  43.578  20.647   0.788
12484W        W77469  24.088  43.831  12.541
12485W        W77470  14.883  25.051  12.959
12486W        W77471  21.734   8.862   3.206
12487W        W77472  26.243   9.974  12.574
12488W        W77473  44.712  41.381   4.444
12489W        W77474  15.783  32.451   1.736
12490W        W77475  42.313  17.349  10.645
12491W        W77476  29.535  39.950   4.623
12492W        W77477   5.776  41.305   1.820
12493W        W77478  42.638  26.005  12.901
12494W        W77479  12.394  32.629  11.652
12495W        W77480   4.468  38.086   3.667
12496W        W77481  12.202  34.992   2.688
12497W        W77482   9.537  33.443   4.244
12498W        W77483  27.610  44.104   1.701
12499W        W77484  31.532  23.934   1.258
12500W        W77485  44.426  35.589   1.896
12501W        W77486  24.086  33.389  11.058
12502W        W77487  19.205  15.259  10.581
12503W        W77488  40.451  27.210   4.481
12504W        W77489  32.500  39.980   1.514
12505W        W77490  21.744  31.309   3.401
12506W        W77491  36.298  29.020  12.648
12507W        W77492  28.625  41.015  14.670
12508W        W77493  10.088   2.334   0.110
12509W        W77494   5.772  26.716   4.837
12510W        W77495   9.323   6.177  12.917
12511W        W77496  29.834   9.405  13.864
12512W        W77497  21.440  35.848   3.490
12513W        W77498   3.974  25.413   4.337
12514W        W77499  35.076  13.674  13.342
12515W        W77500  40.496  42.545  12.945
12516W        W77501  42.792  18.119   1.241
12517W        W77502  28.003  23.987   2.759
12518W        W77503  39.309   7.305   3.809
12519W        W77504   4.439  27.758   4.445
12520W        W77505   4.356  31.182  13.335
12521W        W77506  22.949  26.557  11.847
12522W        W77507  13.609  22.098   0.981
12523W        W77508   0.258  34.099  12.216
12524W        W77509  29.105  23.519   1.478
12525W        W77510  35.499  42.801   1.853
12526W        W77511  41.388  43.774   0.275
12527W        W77512  41.594  23.190   9.758
12528W        W77513  34.763  42.255   2.805
12529W        W77514  26.954  13.225   3.216
12530W        W77515  34.171  36.335  11.577
12531W        W77516   9.415   7.330  11.043
12532W        W77517  19.106  15.775  13.793
12533W        W77518   3.887   7.232  12.173
12534W        W77519  37.512  10.993  11.049
12535W        W77520  40.210  39.856   1.827
12536W        W77521  21.998  21.865   2.346
12537W        W77522   7.622  32.589  14.995
12538W        W77523  42.834  36.366   0.777
12539W        W77524  30.160  17.093   3.583
12540W        W77525  34.471  41.464  13.802
12541W        W77526  31.034  33.149  14.815
12542W        W77527   8.163  31.853  13.805
12543W        W77528  19.160  23.683  11.650
12544W        W77529  25.405  31.034  12.546
12545W        W77530  20.102  12.753   1.650
12546W        W77531  22.578   9.359  11.506
12547W        W77532  26.076  19.058   1.512
12548W        W77533  14.135  11.379   0.842
12549W        W77534  28.422  13.289   3.314
12550W        W77535  14.737   4.811   4.562
12551W        W77536   0.843   5.728  12.501
12552W        W77537  18.267  16.472  11.557
12553W        W77538  21.005  15.556   1.682
12554W        W77539  39.879  28.821   3.905
12555W        W77540  22.506  20.402  14.265
12556W        W77541  10.110  18.083   2.420
12557W        W77542   6.386   3.888  10.797
12558W        W77543  13.799  40.372  11.456
12559W        W77544   7.965  36.503  11.589
12560W        W77545  30.912  37.076  11.676
12561W        W77546  23.210   2.484   1.586
12562W        W77547   8.605  43.402  13.732
12563W        W77548   4.710   4.334   3.376
12564W        W77549  16.273  32.316  14.886
12565W        W77550  42.461  23.156  12.090
12566W        W77551  37.533   4.871   1.854
12567W        W77552   4.010  12.600  12.992
12568W        W77553  31.307  19.221  11.428
12569W        W77554  13.734  15.694  13.381
12570W        W77555  11.598  43.500  12.089
12571W        W77556  41.568   3.267   1.997
12572W        W77557  33.870  11.653   1.930
12573W        W77558   5.695  25.421  14.014
12574W        W77559  28.185  32.473  14.837
12575W        W77560  33.926  28.030   3.364
12576W        W77561  43.528  37.806  12.495
12577W        W77562   2.790  12.307   4.753
12578W        W77563   7.291   4.844  13.821
12579W        W77564  26.150  25.624  11.486
12580W        W77565   9.135  35.466   3.537
12581W        W77566  21.999   6.191  14.985
12582W        W77567   3.425  18.185   3.879
12583W        W77568  13.913  43.731   3.248
12584W        W77569  33.085   6.992   3.789
12585W        W77570   4.829  30.937  11.490
12586W        W77571  21.201  17.094   3.782
12587W        W77572  22.815  20.561  13.095
12588W        W77573  21.227  17.687  14.253
12589W        W77574   1.745  29.177   4.836
12590W        W77575  36.085  41.201  13.919
12591W        W77576  23.654  20.844  13.728
12592W        W77577  43.500   8.830   3.733
12593W        W77578  25.322   5.007  11.206
12594W        W77579   1.203  11.342   4.003
12595W        W77580  32.552  27.220   4.123
12596W        W77581  41.983  32.429   5.564
12597W        W77582  30.200  37.597   2.668
12598W        W77583  27.859  15.707  12.542
12599W        W77584  17.422  38.896  10.670
12600W        W77585  36.887  29.773  11.581
12601W        W77586  44.525   2.285   0.395
12602W        W77587   6.125  21.973  11.493
12603W        W77588   8.281  37.877   1.983
12604W        W77589  10.362  35.746  13.883
12605W        W77590   9.487  32.955   4.492
12606W        W77591  38.814  24.982  12.620
12607W        W77592  14.126  11.368  11.186
12608W        W77593  41.489  32.687   4.727
12609W        W77594  19.098  39.796   4.766
12610W        W77595  25.515  14.371   2.866
12611W        W77596  38.500  21.820  12.841
12612W        W77597  19.011  22.906  13.384
12613W        W77598  39.651   4.870  13.447
12614W        W77599  37.167  17.595  13.326
12615W        W77600  41.825  28.273  10.169
12616W        W77601  11.415   8.583   3.810
12617W        W77602   1.997  25.611  11.682
12618W        W77603  13.228  19.508  12.961
12619W        W77604  29.368   5.867   0.436
12620W        W77605  25.997   0.613  10.692
12621W        W77606  41.745   4.474  10.727
12622W        W77607   5.385  10.246  11.142
12623W        W77608  23.631   9.104   0.791
12624W        W77609  14.221  15.144   1.443
12625W        W77610  42.254  31.368   4.701
12626W        W77611  24.961   0.532  14.379
12627W        W77612  23.814  40.936  14.721
12628W        W77613  28.219  21.442   4.170
12629W        W77614  35.077  38.592   0.933
12630W        W77615  22.275  17.099  10.468
12631W        W77616  25.686  42.791  13.509
12632W        W77617   3.343  25.649  13.888
12633W        W77618   4.283  13.545   0.861
12634W        W77619  26.683   4.252  12.857
12635W        W77620  34.240   0.442   1.114
12636W        W77621  39.424  34.097   4.288
12637W        W77622  28.913  28.181  14.810
12638W        W77623  12.733   8.229  12.196
12639W        W77624   3.431   9.003  11.769
12640W        W77625   2.580   0.248   0.729
12641W        W77626  23.581  29.727   3.302
12642W        W77627  26.031  24.206   0.080
12643W        W77628  27.718  12.764  10.934
12644W        W77629  11.100  35.349  14.432
12645W        W77630  12.681  20.261  12.998
12646W        W77631   0.993   1.915   2.725
12647W        W77632  11.438  44.003  11.705
12648W        W77633  33.279   5.470   4.291
12649W        W77634   4.623   9.594  14.004
12650W        W77635  15.664  25.657  14.793
12651W        W77636   9.851  44.260  11.085
12652W        W77637  17.737  41.529   0.904
12653W        W77638   0.981  39.845  12.467
12654W        W77639   7.361  39.944   1.826
12655W        W77640  24.644   5.478  11.602
12656W        W77641  20.278   5.260   3.333
12657W        W77642  12.212  40.079   0.757
12658W        W77643  25.887  38.474   4.225
12659W        W77644   9.161  31.649   2.272
12660W        W77645  15.734  11.626  14.775
12661W        W77646  32.746  38.137  13.799
12662W        W77647  34.055  23.652  13.403
12663W        W77648   8.640  36.109  13.099
12664W        W77649  39.763  17.273   9.888
12665W        W77650  22.793  26.668   1.865
12666W        W77651  21.982  29.304   4.765
12667W        W77652  22.027  16.693   0.335
12668W        W77653   2.406  40.542  12.643
12669W        W77654  26.564  10.891   4.505
12670W        W77655  24.991  31.933   3.320
12671W        W77656   4.519  29.193  11.928
12672W        W77657  33.890   4.272  10.635
12673W        W77658  18.259  41.614  12.469
12674W        W77659  44.556  37.893  13.427
12675W        W77660  44.493  29.181   1.370
12676W        W77661  42.774  44.981   4.067
12677W        W77662  12.374  28.714   0.237
12678W        W77663  18.249  42.277   1.706
12679W        W77664   6.351  37.094   0.879
12680W        W77665   4.176  23.683  12.065
12681W        W77666   7.665  25.056   1.876
12682W        W77667  31.606  37.551   0.729
12683W        W77668  23.048  38.113  11.972
12684W        W77669  43.938  35.233  12.081
12685W        W77670  38.586  24.238   3.663
12686W        W77671  22.112  30.057   0.641
12687W        W77672   1.273  31.928   2.817
12688W        W77673   9.164   9.272  11.500
12689W        W77674  19.036  23.180   0.351
12690W        W77675  23.512  24.485  13.706
12691W        W77676  14.167   8.278   2.437
12692W        W77677  37.320   3.346   0.339
12693W        W77678  38.947   7.237   0.152
12694W        W77679   2.419  44.138  10.294
12695W        W77680  39.989  36.653   1.432
12696W        W77681   9.896   3.445  11.227
12697W        W77682  37.275  20.323  13.301
12698W        W77683  22.545  22.995   0.825
12699W        W77684  13.324  42.864   4.118
12700W        W77685  13.648  11.886  14.887
12701W        W77686  18.305  39.365   1.325
12702W        W77687  31.524  10.856  13.818
12703W        W77688  39.678  22.758   3.674
12704W        W77689  16.050   7.257   2.066
12705W        W77690  30.539   5.569   1.754
12706W        W77691  10.679  16.284   2.673
12707W        W77692  27.309  27.121  12.469
12708W        W77693  24.588  44.795  13.883
12709W        W77694  32.297   2.247  13.964
12710W        W77695  35.421  10.613  11.679
12711W        W77696  24.596  35.606  12.918
12712W        W77697  23.690   3.396  10.185
12713W        W77698  42.002  15.486   1.010
12714W        W77699  21.653   4.643  14.995
12715W        W77700  44.544   7.839  14.827
12716W        W77701   8.225  24.652   4.866
12717W        W77702  42.006  22.640  13.841
12718W        W77703  44.006  39.370   0.742
12719W        W77704  41.911  10.394  14.940
12720W        W77705  16.356  16.496  12.454
12721W        W77706   1.606  20.772   2.550
12722W        W77707  30.721  40.915   3.305
12723W        W77708   4.736  26.968   5.054
12724W        W77709   2.571  40.644   0.490
12725W        W77710  16.545  44.860   3.299
12726W        W77711  32.361  34.590  14.900
12727W        W77712  10.338  29.684  14.029
12728W        W77713   3.711   8.364   1.097
12729W        W77714  33.401   9.255   1.630
12730W        W77715   3.228   1.466   3.283
12731W        W77716  22.046  16.612  10.390
12732W        W77717   6.779   1.692   3.817
12733W        W77718  14.373   2.785  14.431
12734W        W77719  26.075  19.073  11.653
12735W        W77720   0.777  26.498  10.992
12736W        W77721   7.690   9.437  11.550
12737W        W77722   8.816  32.658  11.865
12738W        W77723   2.402   6.266  11.998
12739W        W77724  35.203   0.398  12.060
12740W        W77725   1.473  44.362   1.917
12741W        W77726  10.403   2.474  13.436
12742W        W77727   3.380  20.250  10.727
12743W        W77728  17.544  42.172  10.468
12744W        W77729  26.685  17.614   3.533
12745W        W77730  21.175  29.368   3.320
12746W        W77731  12.219  21.238   1.399
12747W        W77732  42.414  34.330  14.413
12748W        W77733   3.364   3.795   0.997
12749W        W77734   8.990  34.103  13.483
12750W        W77735  23.577  18.716   9.638
12751W        W77736  26.770  21.610  13.204
12752W        W77737  21.758  21.062   3.430
12753W        W77738  41.033  29.342  13.783
12754W        W77739   4.655  13.726   9.793
12755W        W77740  13.882  19.544  11.049
12756W        W77741  14.593  37.115   2.318
12757W        W77742  14.654  42.956   1.550
12758W        W77743  24.667  18.280  10.981
12759W        W77744  20.066  33.656  12.499
12760W        W77745  11.215  40.852   2.388
12761W        W77746  16.190  15.129  11.510
12762W        W77747   3.219   7.044   0.702
12763W        W77748   0.793  17.767   3.193
12764W        W77749  42.710   2.438  13.277
12765W        W77750   4.958   1.905  11.982
12766W        W77751  15.174  12.839   3.230
12767W        W77752  17.720  28.089  11.512
12768W        W77753  43.414  25.179  12.073
12769W        W77754  42.420  38.619  11.620
12770W        W77755  38.528  26.032  14.018
12771W        W77756  37.861  24.866   3.333
12772W        W77757   0.058  17.814  13.377
12773W        W77758  12.343  12.312   0.471
12774W        W77759  13.035  16.561   0.474
12775W        W77760  20.390   9.603  14.873
12776W        W77761   4.208  10.713   1.929
12777W        W77762  21.340  15.515  13.065
12778W        W77763  42.380   0.089   4.478
12779W        W77764  14.618  27.553   2.747
12780W        W77765  37.881  32.101   0.971
12781W        W77766  24.676  38.468   2.100
12782W        W77767  20.645  25.790   4.940
12783W        W77768   7.816  16.072   0.648
12784W        W77769  28.741   1.798   2.804
12785W        W77770  41.293   5.424  14.402
12786W        W77771   0.599  34.927   0.074
12787W        W77772  44.229  24.129   1.155
12788W        W77773  15.227  19.855  11.058
12789W        W77774   1.947   0.018   3.518
12790W        W77775  24.447   2.496  12.913
12791W        W77776   9.341  36.541  14.562
12792W        W77777  43.830  24.493   1.123
12793W        W77778  15.281  18.512   1.387
12794W        W77779  27.428  13.340   0.248
12795W        W77780  25.104  10.243  13.346
12796W        W77781   6.938  17.973  11.190
12797W        W77782  43.040  25.030  11.081
12798W        W77783  32.584  34.860   0.375
12799W        W77784  17.818  10.092   5.046
12800W        W77785  17.651  31.130  13.501
12801W        W77786  33.516  43.049  14.746
12802W        W77787   8.569  27.907  10.257
12803W        W77788  13.574  20.013  14.745
12804W        W77789  17.241  39.076  14.457
12805W        W77790  13.241  16.981  10.807
12806W        W77791  39.322  16.144  14.591
12807W        W77792   2.395  29.595   3.683
12808W        W77793  21.534  27.915   0.795
12809W        W77794  32.391  43.795  14.912
12810W        W77795  12.495  32.539  14.318
12811W        W77796   0.520  28.748  13.956
12812W        W77797  15.745  22.721  14.016
12813W        W77798  37.352  42.926  10.722
12814W        W77799  39.539  24.493  14.523
12815W        W77800   3.654  33.565  14.758
12816W        W77801   8.915   6.424  10.636
12817W        W77802  30.456  16.817  12.026
12818W        W77803  31.767  26.692   1.433
12819W        W77804   9.576  21.618   2.686
12820W        W77805  11.892  15.576   1.353
12821W        W77806  31.873  39.311   0.662
12822W        W77807  34.284  21.890   4.615
12823W        W77808  27.496  13.392   1.616
12824W        W77809  42.932   6.469   1.396
12825W        W77810  42.346  41.942   2.869
12826W        W77811  38.523   3.150  13.010
12827W        W77812  11.896  30.113   1.675
12828W        W77813  32.004  10.715  13.615
12829W        W77814  41.722  11.130  13.338
12830W        W77815  10.834  18.494   1.269
12831W        W77816   7.069  41.479  10.979
12832W        W77817  32.494  22.039  13.897
12833W        W77818  27.216  25.553   1.770
12834W        W77819  17.244  29.448  14.770
12835W        W77820  24.926  33.770   3.613
12836W        W77821   0.782  42.554   1.467
12837W        W77822  21.794  29.643   0.882
12838W        W77823  25.681  42.815  12.477
12839W        W77824  16.592  13.768   1.125
12840W        W77825  40.936  29.511   4.626
12841W        W77826  17.645  34.675   2.752
12842W        W77827  29.417  22.603   4.616
12843W        W77828  24.082   7.445   2.336
12844W        W77829  21.149  14.948   4.126
12845W        W77830  36.821  12.941  12.391
12846W        W77831  15.736  40.119   4.429
12847W        W77832  31.882  29.638   1.728
12848W        W77833  43.401   4.247   4.275
12849W        W77834   7.625  15.340  14.079
12850W        W77835  25.636   4.033   0.819
12851W        W77836  44.258   4.269  10.797
12852W        W77837  35.965  17.301  12.882
12853W        W77838   0.044  26.517   1.532
12854W        W77839  30.426  34.969   0.801
12855W        W77840  29.996   3.771  14.518
12856W        W77841  43.182  24.422  10.277
12857W        W77842  31.038  24.021  10.057
12858W        W77843  36.222  18.853   9.904
12859W        W77844   4.673   8.339  10.366
12860W        W77845  36.662  37.871  14.870
12861W        W77846  17.568  27.365   2.758
12862W        W77847  36.857   2.463   0.813
12863W        W77848  12.050  17.306  11.576
12864W        W77849   1.532   3.021  10.695
12865W        W77850  35.602  17.582   1.285
12866W        W77851   6.178  26.517  13.894
12867W        W77852  21.990   3.487  13.133
12868W        W77853  34.123   9.783  12.074
12869W        W77854  37.392  20.766   4.694
12870W        W77855  12.193  24.986   1.288
12871W        W77856  29.181  33.387   4.571
12872W        W77857   8.070  28.639   4.542
12873W        W77858  40.897  44.516   1.836
12874W        W77859  26.821  41.926  13.892
12875W        W77860  35.439   5.138   1.674
12876W        W77861  24.060  30.339  11.445
12877W        W77862  35.694   3.008  13.331
12878W        W77863   1.250  13.566   1.329
12879W        W77864  24.383  15.051  13.159
12880W        W77865   5.100  11.415   2.771
12881W        W77866  30.573  32.182   1.641
12882W        W77867  19.742  13.611   1.272
12883W        W77868  14.476  10.307   2.013
12884W        W77869  22.468   8.826  14.450
12885W        W77870   7.641  22.707  12.042
12886W        W77871  41.270  40.188  12.080
12887W        W77872  18.902  24.958   4.965
12888W        W77873   9.262  19.145   0.785
12889W        W77874  28.963  33.614   3.144
12890W        W77875  19.055  13.274  11.461
12891W        W77876   5.910  30.663  12.510
12892W        W77877  36.558   4.009  12.425
12893W        W77878   5.692  22.209   4.182
12894W        W77879  29.124  34.399   0.325
12895W        W77880  27.675  31.139  12.959
12896W        W77881   2.204  27.959  12.422
12897W        W77882  37.833   1.440  13.963
12898W        W77883  37.634   9.647  14.865
12899W        W77884  19.560  22.635  13.957
12900W        W77885   0.705  40.033  12.078
12901W        W77886  32.579  25.481   2.274
12902W        W77887  20.657  40.322  12.393
12903W        W77888  37.616  16.251  12.958
12904W        W77889   8.685  42.265   4.653
12905W        W77890  42.961  33.338  12.954
12906W        W77891  37.361   9.291  13.975
12907W        W77892  41.491   5.159  14.006
12908W        W77893  33.748  38.107   4.118
12909W        W77894  13.740  34.732   1.192
12910W        W77895  33.963  43.807  11.598
12911W        W77896   9.867  19.025   2.306
12912W        W77897  27.147  35.058  12.587
12913W        W77898  27.117  20.654  13.035
12914W        W77899  19.893  10.762  11.707
12915W        W77900  38.426  10.235   3.759
12916W        W77901  19.073  16.001  11.221
12917W        W77902   1.991  42.736   1.219
12918W        W77903   0.310  33.734  11.404
12919W        W77904  43.255  40.261  13.222
12920W        W77905  23.703  38.472  12.570
12921W        W77906  12.587  15.145   1.007
12922W        W77907  18.048   8.668   2.285
12923W        W77908  16.679  40.334  11.548
12924W        W77909   0.931  27.391  10.090
12925W        W77910   1.781  12.109   0.419
12926W        W77911  37.848  41.440   2.561
12927W        W77912  14.648  31.338  12.721
12928W        W77913  36.371   1.181  14.980
12929W        W77914  13.169  12.802   2.287
12930W        W77915   0.893  19.011   2.798
12931W        W77916  16.837  20.382  14.783
12932W        W77917  19.812  12.033  14.763
12933W        W77918  41.998  11.874  10.159
12934W        W77919   9.862  25.703   0.896
12935W        W77920  32.932  20.486  13.517
12936W        W77921  20.671  35.522  13.912
12937W        W77922  16.105  38.429  14.764
12938W        W77923  13.777  31.393  11.623
12939W        W77924  18.331  30.828  12.242
12940W        W77925  11.410  29.943  11.675
12941W        W77926   4.326  34.992   0.743
12942W        W77927  27.798   7.784  10.218
12943W        W77928  33.331  36.401   1.350
12944W        W77929  18.231  17.273   0.881
12945W        W77930  21.688  25.900   2.828
12946W        W77931  33.580  11.440   4.041
12947W        W77932  29.025  14.543   3.395
12948W        W77933   7.427   4.033  14.452
12949W        W77934  11.750  21.561  10.955
12950W        W77935  34.547  31.509   3.181
12951W        W77936  16.378  42.821   4.206
12952W        W77937  24.932  28.573   3.043
12953W        W77938   0.283  29.048  13.551
12954W        W77939   9.917  10.622   3.208
12955W        W77940   3.726  35.572  12.890
12956W        W77941   7.136   7.614   9.688
12957W        W77942  20.503  37.071   4.282
12958W        W77943  27.996  11.367  12.513
12959W        W77944  35.221  29.568   2.882
12960W        W77945   1.653  16.196  10.390
12961W        W77946   5.544  26.923  11.161
12962W        W77947  41.038   6.283   0.419
12963W        W77948   1.835  41.298  10.446
12964W        W77949  11.805  14.233   4.856
12965W        W77950   0.529  21.956   4.240
12966W        W77951  32.711  12.376   1.238
12967W        W77952  21.005  22.292   1.228
12968W        W77953  28.511  35.152   0.173
12969W        W77954  41.636  20.000   2.749
12970W        W77955  24.599  20.936   1.859
12971W        W77956  25.082  36.500  14.828
12972W        W77957  34.717  32.529   1.318
12973W        W77958  25.637  13.685   0.807
12974W        W77959   7.662  43.172   1.947
12975W        W77960  36.655  29.972  11.165
12976W        W77961   4.761  18.075   3.285
12977W        W77962  31.818  25.546   0.803
12978W        W77963  26.269  11.033  14.335
12979W        W77964  41.810  14.542  12.010
12980W        W77965  25.015   3.329  10.717
12981W        W77966   7.399   4.676   0.762
12982W        W77967  29.911  36.932  11.492
12983W        W77968   2.681  12.657   3.134
12984W        W77969   7.849  10.871  10.170
12985W        W77970   8.810  41.411  12.491
12986W        W77971   1.864  39.982  14.515
12987W        W77972  40.808  23.586   9.821
12988W        W77973  40.995   6.374  14.405
12989W        W77974  40.991  38.098   1.926
12990W        W77975  20.381   9.872   2.398
12991W        W77976   7.777  24.024   1.866
12992W        W77977  24.530  10.158  10.746
12993W        W77978   6.450  23.008  13.342
12994W        W77979   0.403  39.805   1.834
12995W        W77980   4.433   3.963   2.325
12996W        W77981  24.281   0.391  10.836
12997W        W77982  20.080  11.153  12.945
12998W        W77983  32.720   4.789  11.699
12999W        W77984  17.794   9.882  13.904
13000W        W77985   0.837  42.820   1.933
13001W        W77986  10.679  18.313  12.802
13002W        W77987  16.245  22.801   3.350
13003W        W77988   0.898  30.569  13.085
13004W        W77989  28.091  27.356  13.561
13005W        W77990  31.482  37.392   3.839
13006W        W77991  11.672   9.760  11.195
13007W        W77992  19.803  10.805  14.278
13008W        W77993   1.884   4.324   4.550
13009W        W77994  20.833  25.278   4.200
13010W        W77995  12.355  36.877  10.763
13011W        W77996  32.636  38.816   0.377
13012W        W77997  25.971   3.887  13.924
13013W        W77998  19.648  34.427  14.059
13014W        W77999  42.906  31.966  14.025
13015W        W78000  27.639   5.904  10.151
13016W        W78001   8.175   6.979  13.939
13017W        W78002  30.612  14.156   2.471
13018W        W78003  24.866  40.827  11.171
13019W        W78004   1.080  24.646  14.866
13020W        W78005  21.594  37.215  14.188
13021W        W78006   4.966  37.472  11.173
13022W        W78007   4.412   1.284  13.432
13023W        W78008  40.041  26.772  12.450
13024W        W78009   0.595  12.161   3.896
13025W        W78010  20.278  19.499   2.258
13026W        W78011  34.006  18.040   1.362
13027W        W78012  30.370  32.034  11.567
13028W        W78013  30.949   2.114  13.105
13029W        W78014  25.935  35.410   3.714
13030W        W78015  14.855  28.613   1.190
13031W        W78016   9.197  27.541  11.959
13032W        W78017  15.064  15.230   1.736
13033W        W78018  27.990  28.479  13.038
13034W        W78019  39.098  42.029  13.451
13035W        W78020  31.817  31.444   1.771
13036W        W78021  42.936  34.401  11.229
13037W        W78022  29.876  44.958   2.935
13038W        W78023   2.900  10.854  10.740
13039W        W78024  39.997  33.792   3.671
13040W        W78025   8.177  29.582  13.279
13041W        W78026  38.566  12.350  11.613
13042W        W78027  16.825  23.524  11.074
13043W        W78028  42.528  44.289  13.041
13044W        W78029  25.121  14.776  13.077
13045W        W78030  42.807  11.791   2.277
13046W        W78031   6.828  42.848  11.634
13047W        W78032   6.389  35.863  13.461
13048W        W78033   4.252  43.561   3.638
13049W        W78034  44.000  44.825   2.411
13050W        W78035  21.041  42.338   1.111
13051W        W78036  25.761  25.108  14.971
13052W        W78037  20.636  42.883  12.586
13053W        W78038   7.158  39.943  10.682
13054W        W78039  32.697   9.186  13.594
13055W        W78040  24.261  17.338   3.718
13056W        W78041  12.756  31.615   4.814
13057W        W78042  28.605  14.047  13.127
13058W        W78043  39.811  15.553  12.416
13059W        W78044  26.554  24.657  12.997
13060W        W78045   6.066  31.000   3.379
13061W        W78046   8.922  12.141   2.913
13062W        W78047  16.058  32.126  10.841
13063W        W78048  23.518  31.382  14.156
13064W        W78049  35.843  20.434  11.882
13065W        W78050  14.624  19.989  12.238
13066W        W78051  12.066   7.249  13.819
13067W        W78052  42.879  40.967  13.775
13068W        W78053   1.071   8.605   4.900
13069W        W78054  30.011  13.262   2.113
13070W        W78055  18.950  23.784   9.888
13071W        W78056   6.462  40.085  11.589
13072W        W78057  17.737  35.840   4.165
13073W        W78058  43.341  20.941   3.034
13074W        W78059  29.976  40.384  13.017
13075W        W78060  41.446  26.661   4.785
13076W        W78061  43.079  39.171  11.594
13077W        W78062  36.823  25.735   1.749
13078W        W78063   1.298  22.252  10.786
13079W        W78064  26.505  27.663   3.741
13080W        W78065  36.008  41.470   0.289
13081W        W78066  38.118  42.130  14.468
13082W        W78067  24.370  16.686  12.102
13083W        W78068   7.966  41.871   3.139
13084W        W78069  17.448  21.676  12.453
13085W        W78070  41.930  12.692   0.315
13086W        W78071   5.921  15.134   4.130
13087W        W78072  32.362  25.318  14.031
13088W        W78073  16.627  22.549  13.498
13089W        W78074  36.920  24.530  11.829
13090W        W78075  38.326  40.973   0.153
13091W        W78076   7.380   9.864   2.920
13092W        W78077  32.965  22.598   4.784
13093W        W78078  14.836  12.586  10.871
13094W        W78079  24.987  19.692  14.105
13095W        W78080  25.527   9.305   0.584
13096W        W78081  16.208  38.021  11.465
13097W        W78082  25.339  44.393  12.388
13098W        W78083  27.825  11.299  12.020
13099W        W78084  12.565  32.027   4.498
13100W        W78085  25.675   9.104   0.124
13101W        W78086   3.428   4.518   4.098
13102W        W78087  25.741   0.793   1.136
13103W        W78088  37.343  21.775  10.282
13104W        W78089  30.412  26.595   3.650
13105W        W78090   3.003  21.571  10.641
13106W        W78091  19.101  19.108  13.071
13107W        W78092  12.356  16.420   3.245
13108W        W78093  29.935   4.200   2.684
13109W        W78094   9.096  21.408  13.084
13110W        W78095   6.292  22.973   3.126
13111W        W78096  39.831  36.498  12.636
13112W        W78097  39.264  38.475  14.005
13113W        W78098  35.499  24.127   3.577
13114W        W78099  27.630  27.251   0.726
13115W        W78100  34.262  38.965  12.051
13116W        W78101  38.465  30.462  10.474
13117W        W78102  35.319   0.355   2.843
13118W        W78103  29.590  39.060   0.562
13119W        W78104  34.078  13.404   1.891
13120W        W78105   8.302  28.666  13.612
13121W        W78106  13.348  38.062  10.702
13122W        W78107  44.321  34.423  12.077
13123W        W78108   1.747  26.387   0.783
13124W        W78109  37.032  25.882   4.736
13125W        W78110  27.528  17.548   2.342
13126W        W78111  25.337  16.198   3.782
13127W        W78112  32.108   0.426  12.997
13128W        W78113  42.841  29.683   3.789
13129W        W78114  23.101   6.027   1.290
13130W        W78115  21.475  23.620   2.477
13131W        W78116  30.511   7.301   1.610
13132W        W78117   5.434  35.842   0.025
13133W        W78118  44.065  37.811  12.491
13134W        W78119  28.278  17.099   4.104
13135W        W78120   6.716  15.533  13.994
13136W        W78121  38.784   7.750   4.221
13137W        W78122   9.149  37.736  10.698
13138W        W78123   5.862  41.125   2.339
13139W        W78124  36.939  32.637  14.991
13140W        W78125  22.252  24.892  12.840
13141W        W78126  29.033  10.298  14.534
13142W        W78127  18.684   6.876  10.392
13143W        W78128  32.344  24.120   2.384
13144W        W78129  29.845  19.160   2.608
13145W        W78130   7.941  31.601  12.547
13146W        W78131  21.341  37.125  13.220
13147W        W78132  15.231  36.278   0.491
13148W        W78133  32.466  12.786  10.682
13149W        W78134  12.241  35.263  14.972
13150W        W78135   0.344  25.351  13.025
13151W        W78136  13.056  34.919   5.160
13152W        W78137  14.163  18.290   3.272
13153W        W78138   2.843   6.634  14.315
13154W        W78139  40.250  11.175   4.703
13155W        W78140  36.978  19.974   1.304
13156W        W78141  18.915  33.644  13.935
13157W        W78142   0.682  23.942  14.438
13158W        W78143   3.219  41.103  10.431
13159W        W78144  12.709  44.445   0.861
13160W        W78145  13.263   3.553   3.184
13161W        W78146  32.396  10.789  13.965
13162W        W78147  31.928   6.272  12.640
13163W        W78148  29.431  23.552  12.443
13164W        W78149  35.037  28.864   3.222
13165W        W78150  10.438  28.593  11.121
13166W        W78151  20.076   1.834  12.070
13167W        W78152  18.748  33.644  11.139
13168W        W78153  24.425  23.870   0.784
13169W        W78154  19.664  36.361   0.344
13170W        W78155   1.747  17.901   1.277
13171W        W78156   4.143  25.130  11.487
13172W        W78157  40.900  23.216  10.149
13173W        W78158  39.543  31.791   2.345
13174W        W78159  38.859   1.531  11.554
13175W        W78160  27.106  27.684   1.225
13176W        W78161   9.957   9.870  14.959
13177W        W78162  42.281  38.145   1.452
13178W        W78163  13.779  41.281   4.878
13179W        W78164  12.230  24.493   1.071
13180W        W78165  17.184  26.725   4.369
13181W        W78166  19.043   6.625  12.667
13182W        W78167  19.194  44.288  12.902
13183W        W78168  29.473   4.301   3.969
13184W        W78169  44.674  30.712   1.873
13185W        W78170  13.586   2.473  13.350
13186W        W78171   6.462  14.681   2.819
13187W        W78172   4.442   9.802   2.067
13188W        W78173  25.668  36.377   4.703
13189W        W78174  16.128  31.679   4.127
13190W        W78175  18.719  22.545  12.128
13191W        W78176   3.218  21.803   0.715
13192W        W78177  30.376  18.116   3.747
13193W        W78178  44.799  44.546   1.245
13194W        W78179  18.343  17.851   1.842
13195W        W78180  43.480   7.868   1.486
13196W        W78181  13.049  31.844  14.049
13197W        W78182   0.981  14.205  11.731
13198W        W78183  19.998   4.727   0.847
13199W        W78184   6.359  29.590  13.452
13200W        W78185  25.879  42.101   4.041
13201W        W78186  18.137  31.126  10.775
13202W        W78187  26.022  16.916   4.373
13203W        W78188   6.927   1.099   1.294
13204W        W78189  34.989  16.868  11.492
13205W        W78190  44.647   5.834  11.186
13206W        W78191  14.778   5.817  13.449
13207W        W78192   5.972  18.928  11.760
13208W        W78193   5.329  39.170  12.760
13209W        W78194   9.542   3.029   2.857
13210W        W78195  30.429  23.085  11.602
13211W        W78196   9.760  25.208   1.786
13212W        W78197  23.596  35.605   4.096
13213W        W78198  15.883   9.166   0.739
13214W        W78199  35.141  40.397  12.972
13215W        W78200   0.540  29.594  14.602
13216W        W78201  22.607   0.665  12.047
13217W        W78202  33.702   6.007   5.161
13218W        W78203  19.223  32.035  13.507
13219W        W78204  34.070  41.827  13.729
13220W        W78205  28.053   0.304  10.625
13221W        W78206  11.872   5.700  10.207
13222W        W78207  32.402   4.696  11.296
13223W        W78208  33.922  27.694  12.501
13224W        W78209  38.243  21.983  12.369
13225W        W78210  22.232  13.058  12.586
13226W        W78211  21.943  12.831   4.171
13227W        W78212   5.407  44.329  10.993
13228W        W78213  12.551  24.047   2.844
13229W        W78214  30.187   1.524   5.550
13230W        W78215  40.191   9.659  13.015
13231W        W78216  25.758   7.337   2.866
13232W        W78217  28.105  41.058   0.770
13233W        W78218  31.996  33.590  11.213
13234W        W78219   7.416  11.760  13.004
13235W        W78220  40.212  23.679  11.076
13236W        W78221  33.495  17.223  11.619
13237W        W78222   5.367  33.850   1.882
13238W        W78223  11.114  25.577   4.468
13239W        W78224  26.649  13.381  10.611
13240W        W78225  14.300  30.446  14.310
13241W        W78226  39.916   0.320   1.749
13242W        W78227  40.466  27.182  10.661
13243W        W78228  12.116  21.297   3.842
13244W        W78229  16.837  20.910  13.978
13245W        W78230  35.415   4.249  13.355
13246W        W78231   7.122  25.993   3.632
13247W        W78232   3.127  41.423   2.066
13248W        W78233  11.692  41.046   2.336
13249W        W78234  15.705  19.343   0.329
13250W        W78235  40.338  12.931   0.477
13251W        W78236  36.928  23.243  14.727
13252W        W78237  15.633  25.626   1.219
13253W        W78238  25.616  38.738  13.040
13254W        W78239  37.606   9.679   4.557
13255W        W78240  22.374  31.109   2.751
13256W        W78241  42.411  20.266   4.152
13257W        W78242   4.625  15.796  13.465
13258W        W78243   1.847   8.412  12.559
13259W        W78244  28.609   5.312   4.200
13260W        W78245  16.039  26.480   0.357
13261W        W78246  24.823  31.537   3.033
13262W        W78247   2.051  42.677   4.099
13263W        W78248   3.639  28.601  14.848
13264W        W78249  24.549  40.030  14.395
13265W        W78250  23.488  43.221  13.842
13266W        W78251   0.337  17.364  10.692
13267W        W78252  44.908   4.337   2.107
13268W        W78253  23.180   0.690   3.617
13269W        W78254  13.769  44.975   2.382
13270W        W78255  28.659  38.412  13.528
13271W        W78256  38.540   7.282   4.255
13272W        W78257  30.479  24.236   2.595
13273W        W78258  23.670  23.740   3.579
13274W        W78259  26.482  29.894   3.780
13275W        W78260  35.401  17.705   0.393
13276W        W78261  24.483  42.892   0.848
13277W        W78262  28.230  19.534  11.158
13278W        W78263  36.392  18.913   1.701
13279W        W78264  17.735  32.362   1.467
13280W        W78265   6.840  17.654  12.594
13281W        W78266  38.908   3.879   4.987
13282W        W78267  22.285  11.301   2.720
13283W        W78268  10.918  24.656   1.847
13284W        W78269  10.139  38.572  12.247
13285W        W78270  26.507  29.155  10.745
13286W        W78271  42.534  31.526  13.576
13287W        W78272  35.880  29.294  12.498
13288W        W78273  44.884   0.339  10.952
13289W        W78274  23.185   5.390  13.769
13290W        W78275  15.652   3.358   4.610
13291W        W78276  21.690   8.840   4.538
13292W        W78277  22.561  43.915   2.449
13293W        W78278   3.139   5.352   4.492
13294W        W78279  14.369   4.032   1.271
13295W        W78280  23.123   8.835   3.528
13296W        W78281  28.947  13.768  14.840
13297W        W78282  31.613  42.334   2.299
13298W        W78283  33.660  13.381  10.208
13299W        W78284   3.657  33.489   4.147
13300W        W78285  39.120  18.117  10.534
13301W        W78286  11.180  37.291  14.288
13302W        W78287  25.919  28.483   4.340
13303W        W78288  23.091  15.277   4.058
13304W        W78289  40.064  32.516  10.693
13305W        W78290  12.305  38.119  14.543
13306W        W78291  13.403  28.042   3.757
13307W        W78292  33.183  28.604   0.360
13308W        W78293   9.132  44.320  13.813
13309W        W78294  42.452  44.866   1.027
13310W        W78295  12.250  13.195  14.841
13311W        W78296  27.213   2.755   1.625
13312W        W78297  21.591  15.542   0.888
13313W        W78298  31.162  29.027   2.730
13314W        W78299   6.375  33.587  11.345
13315W        W78300   2.310  21.292  11.158
13316W        W78301  37.104   1.942  13.347
13317W        W78302  14.985  32.474   0.661
13318W        W78303  18.210  41.273   3.912
13319W        W78304   8.672  31.498   2.089
13320W        W78305  29.321  42.996  14.473
13321W        W78306  14.770  17.316   1.416
13322W        W78307  23.028  42.741  14.277
13323W        W78308  28.167  25.997   0.623
13324W        W78309  17.592  14.112  11.988
13325W        W78310  17.995  41.287  11.090
13326W        W78311  32.978  23.517  14.412
13327W        W78312  27.927   4.235   5.085
13328W        W78313  30.465  40.206   4.542
13329W        W78314  37.950  17.257  12.485
13330W        W78315  21.552  44.446   1.175
13331W        W78316   3.678   6.790  12.343
13332W        W78317  34.529  12.138  11.099
13333W        W78318  17.376  20.812   4.597
13334W        W78319  11.283   1.876   4.182
13335W        W78320  44.452  39.948   1.545
13336W        W78321  43.372  28.458   2.766
13337W        W78322  21.128  16.981  11.428
13338W        W78323  32.901  19.700  10.738
13339W        W78324  18.162  20.460  12.417
13340W        W78325  14.013   4.438  14.494
13341W        W78326  41.245  38.778   2.685
13342W        W78327   2.942  42.332   4.291
13343W        W78328   0.415  25.732   3.369
13344W        W78329  13.435  39.852  13.149
13345W        W78330  36.838   6.552   2.937
13346W        W78331   2.949  30.718   4.068
13347W        W78332  39.877  35.405   0.194
13348W        W78333  18.448  33.972  12.900
13349W        W78334   2.546  42.401  13.665
13350W        W78335   2.242  32.584   0.792
13351W        W78336  40.893   0.895  14.883
13352W        W78337  23.958  10.954  13.697
13353W        W78338   3.510  31.511  11.965
13354W        W78339  43.746  31.790   3.701
13355W        W78340  26.192  19.042   2.839
13356W        W78341  40.973  15.327  12.782
13357W        W78342  42.910  43.787  13.869
13358W        W78343  10.277  15.819   2.280
13359W        W78344  32.454  42.212   3.667
13360W        W78345   3.019  14.676  14.263
13361W        W78346  16.762  37.107  12.370
13362W        W78347  27.442  26.648   3.252
13363W        W78348  41.129  37.555  14.278
13364W        W78349  37.485   2.048  11.559
13365W        W78350   5.986   8.911  14.491
13366W        W78351  40.540   9.798   4.698
13367W        W78352  33.134  14.582   0.557
13368W        W78353  14.660   0.960   0.740
13369W        W78354  21.231   0.915  14.497
13370W        W78355   4.462  38.204   0.968
13371W        W78356  35.367  27.254   0.894
13372W        W78357  35.171   6.788  12.836
13373W        W78358  44.251  13.428   0.927
13374W        W78359  19.007  38.376  13.552
13375W        W78360  29.213  44.989   1.215
13376W        W78361  18.982  33.070   0.991
13377W        W78362   5.237  28.709   1.265
13378W        W78363  29.888  43.014   1.871
13379W        W78364  30.888  32.179  11.693
13380W        W78365  25.464  41.519  14.378
13381W        W78366  23.643   9.351   0.327
13382W        W78367  13.284  42.055   0.721
13383W        W78368  42.374  29.927  12.403
13384W        W78369  36.548  39.062   1.629
13385W        W78370  16.046  10.826  14.826
13386W        W78371   7.822  33.902  14.366
13387W        W78372   7.728  15.733  11.458
13388W        W78373  16.320  29.109   4.923
13389W        W78374  31.381  35.891   2.174
13390W        W78375  30.416  27.416  14.083
13391W        W78376  26.236  44.592  12.150
13392W        W78377  39.051  16.456  12.918
13393W        W78378  13.612   6.421  11.928
13394W        W78379  20.546  25.585   1.018
13395W        W78380   0.037  13.663  12.113
13396W        W78381  24.461  18.773   2.571
13397W        W78382   3.334  24.432  11.528
13398W        W78383   1.814  20.234  11.949
13399W        W78384  26.023  14.507   4.436
13400W        W78385  31.922  17.609  11.232
13401W        W78386   3.744   1.303  12.091
13402W        W78387  33.713   5.828   1.825
13403W        W78388  27.626  13.230  13.510
13404W        W78389  24.236  22.137  14.879
13405W        W78390   9.705  41.354   2.188
13406W        W78391  16.695  16.150  11.235
13407W        W78392  13.219  36.076   0.410
13408W        W78393  36.951   2.327  10.713
13409W        W78394  32.139   7.284   3.542
13410W        W78395   2.190  27.599  11.986
13411W        W78396  19.852  18.180  10.942
13412W        W78397  24.531  29.947  10.706
13413W        W78398   6.277  38.869  11.030
13414W        W78399  35.464   4.985  14.909
13415W        W78400  16.319  37.781   2.669
13416W        W78401  19.290   5.269   4.218
13417W        W78402  10.202   2.209  11.474
13418W        W78403  43.217   5.167   3.186
13419W        W78404  40.037  41.475  13.668
13420W        W78405   6.318  25.490  10.195
13421W        W78406  16.176  10.446   4.517
13422W        W78407  13.141  39.019   4.579
13423W        W78408  40.341  38.039   0.445
13424W        W78409  38.923   1.232  13.283
13425W        W78410  11.981   3.768  12.016
13426W        W78411   0.817  28.645   0.078
13427W        W78412  10.793   8.014   1.605
13428W        W78413   3.289  34.920   3.787
13429W        W78414  43.357  35.041  13.915
13430W        W78415   4.940   6.730  11.476
13431W        W78416  15.530   3.470  13.047
13432W        W78417  40.091   2.247  11.072
13433W        W78418  29.955   9.264  14.375
13434W        W78419  30.691  26.555   2.665
13435W        W78420  44.384  29.452   2.849
13436W        W78421   8.694  11.855  10.969
13437W        W78422  34.577  13.321   4.677
13438W        W78423  11.579  38.607  14.785
13439W        W78424  18.592  41.770  14.284
13440W        W78425  41.041  14.334   5.109
13441W        W78426  29.111  28.980   0.901
13442W        W78427  27.578  24.917   0.116
13443W        W78428  37.433   4.042  12.948
13444W        W78429   2.887  34.496  10.716
13445W        W78430  11.354  35.729  12.193
13446W        W78431  37.682  35.808  10.038
13447W        W78432  22.479  14.623  14.617
13448W        W78433  22.434  12.872  13.043
13449W        W78434  11.138  10.783   2.652
13450W        W78435  25.909   8.685  13.800
13451W        W78436  21.616  25.951  12.474
13452W        W78437  24.910  23.160   3.647
13453W        W78438  27.213  26.023   1.420
13454W        W78439  25.580  22.555   3.660
13455W        W78440  38.545  16.713   5.469
13456W        W78441  41.142   4.768   2.291
13457W        W78442  40.985  26.596  14.714
13458W        W78443  40.344   3.773  14.607
13459W        W78444  22.175  24.960   4.862
13460W        W78445  40.275   2.766  11.282
13461W        W78446  36.878  44.224  13.943
13462W        W78447  36.288  18.229   4.090
13463W        W78448  16.339  18.024  11.168
13464W        W78449  27.101   3.649  10.779
13465W        W78450  25.491  36.963   0.491
13466W        W78451   1.272  44.925   4.230
13467W        W78452  28.977  34.902   4.301
13468W        W78453  16.195  26.956   3.632
13469W        W78454  38.036  41.948   2.418
13470W        W78455   5.858   0.442  12.894
13471W        W78456  25.796  16.679  11.582
13472W        W78457  23.237  34.708  10.637
13473W        W78458  21.264  14.609   0.342
13474W        W78459  25.012   3.862   4.574
13475W        W78460   7.745  16.284  14.549
13476W        W78461  10.309  40.418   4.585
13477W        W78462   4.137  10.291  14.746
13478W        W78463  33.064   3.754   2.851
13479W        W78464  38.606   8.332   2.831
13480W        W78465  19.632   2.183   2.809
13481W        W78466  31.950   5.321  14.479
13482W        W78467  21.404  29.488   0.146
13483W        W78468  36.113   1.037  13.447
13484W        W78469  44.160  42.950  11.105
13485W        W78470  32.659  16.763   0.789
13486W        W78471  37.430  33.390   0.349
13487W        W78472  15.300  29.835   3.658
13488W        W78473  32.687  32.411  13.367
13489W        W78474   7.883  13.367   4.907
13490W        W78475  19.116   3.766   2.398
13491W        W78476  29.645  31.496   3.706
13492W        W78477   3.166  36.611  14.560
13493W        W78478   4.347  26.252  12.538
13494W        W78479  33.972   2.419  12.161
13495W        W78480  42.753  43.895   1.959
13496W        W78481   0.223  22.948  14.667
13497W        W78482  37.565  17.465  11.812
13498W        W78483  25.563   3.044   2.392
13499W        W78484  39.432  31.685  11.041
13500W        W78485  27.475  19.605   2.742
13501W        W78486  15.187  10.829   1.158
13502W        W78487   4.739   8.307  14.033
13503W        W78488  13.231  28.141  10.593
13504W        W78489  22.415  27.580   3.777
13505W        W78490   6.842  35.033  13.674
13506W        W78491  20.027  34.572   1.914
13507W        W78492  40.476  10.246  11.976
13508W        W78493   2.448  42.739   1.487
13509W        W78494  34.332  32.667   3.433
13510W        W78495   3.654   4.528  11.110
13511W        W78496  35.511  31.496  12.545
13512W        W78497  41.564  16.855   0.027
13513W        W78498  42.757  35.855  13.583
13514W        W78499  22.174  37.100  11.052
13515W        W78500  32.874  18.245   0.889
13516W        W78501  34.382  37.366   2.705
13517W        W78502  20.272  38.149  12.097
13518W        W78503  20.206  19.649   4.136
13519W        W78504   8.011  37.227  10.026
13520W        W78505  13.722   4.329  13.956
13521W        W78506   4.255  27.024  13.618
13522W        W78507  30.232  31.572   3.050
13523W        W78508  24.994  12.073   2.624
13524W        W78509  38.281  25.462  13.389
13525W        W78510  13.833  36.432   0.990
13526W        W78511  40.418  26.825   4.122
13527W        W78512   0.870   1.403   4.771
13528W        W78513  30.341  40.890   1.020
13529W        W78514  39.259   6.733  11.983
13530W        W78515  41.064  17.746  14.017
13531W        W78516  22.731  41.740  14.356
13532W        W78517   7.636  43.320  14.579
13533W        W78518  35.339  38.406   1.350
13534W        W78519  38.001  21.347  12.562
13535W        W78520  31.172  36.212  13.178
13536W        W78521  40.581   6.455   1.755
13537W        W78522   7.024  43.213   3.875
13538W        W78523   8.035   3.324  10.670
13539W        W78524   8.474  22.974   2.896
13540W        W78525  21.590  39.857   4.051
13541W        W78526  36.021  22.785  14.775
13542W        W78527   7.888   2.219   1.528
13543W        W78528  12.763  29.137   4.740
13544W        W78529  29.047  29.864   4.191
13545W        W78530  26.095  13.712  12.901
13546W        W78531  40.877  29.556  14.247
13547W        W78532  37.682  33.872   0.377
13548W        W78533  37.795  11.152  13.372
13549W        W78534  35.127  27.686  14.432
13550W        W78535   6.767  27.619  12.127
13551W        W78536  10.946   5.749   0.116
13552W        W78537  22.639  11.647   4.828
13553W        W78538  28.204  42.193  10.697
13554W        W78539   6.652  33.493  10.093
13555W        W78540  30.867  31.358   1.744
13556W        W78541  12.580   9.857   2.355
13557W        W78542   0.887  43.763   2.276
13558W        W78543  27.681  24.140  10.441
13559W        W78544  26.601  13.634   1.872
13560W        W78545  13.050  11.780  10.407
13561W        W78546  27.736   0.620   2.676
13562W        W78547  22.461  44.027   1.420
13563W        W78548  14.607  44.388  10.246
13564W        W78549  43.721  17.528   3.475
13565W        W78550  17.846  13.749  14.420
13566W        W78551  43.514   7.533   4.262
13567W        W78552  32.649  43.923  10.668
13568W        W78553  34.326  25.197  10.637
13569W        W78554  33.588  15.171  13.207
13570W        W78555  13.765  22.564  11.357
13571W        W78556  33.326  24.279   1.236
13572W        W78557  13.408  35.058  10.642
13573W        W78558  30.079  10.399   3.061
13574W        W78559  10.540   8.242   4.676
13575W        W78560   5.447  36.572   1.863
13576W        W78561   7.973  34.422   2.937
13577W        W78562  40.501  28.489   9.982
13578W        W78563  28.616  33.889   1.873
13579W        W78564   6.799  35.324  11.889
13580W        W78565  35.943  23.755  14.744
13581W        W78566  13.521  29.119  12.609
13582W        W78567  44.973  40.898  11.528
13583W        W78568  38.827  37.298   3.625
13584W        W78569  35.092  12.302  13.092
13585W        W78570  25.612  32.248   4.325
13586W        W78571  35.720  22.282   1.047
13587W        W78572  42.606  32.764   4.103
13588W        W78573  24.697  17.835  14.982
13589W        W78574  33.617  17.525   3.718
13590W        W78575  42.514  20.740  10.677
13591W        W78576   2.804  10.525  10.325
13592W        W78577  10.764  36.990  11.527
13593W        W78578  19.846  21.071   1.322
13594W        W78579  15.731  41.668  12.066
13595W        W78580  26.116  36.660   4.678
13596W        W78581  30.973  15.583  14.888
13597W        W78582  20.047  10.369  12.563
13598W        W78583  28.726  24.559   2.190
13599W        W78584  26.992  16.755   1.881
13600W        W78585  26.074  20.470  11.880
13601W        W78586  36.849   2.719   2.175
13602W        W78587  21.329  29.161  12.461
13603W        W78588   2.132  17.312  14.822
13604W        W78589   8.745  34.452   1.225
13605W        W78590  27.113  23.663   2.345
13606W        W78591   8.971   7.177  14.940
13607W        W78592  38.047  26.723  11.588
13608W        W78593  16.358  42.498   2.407
13609W        W78594  14.214  28.660  11.451
13610W        W78595  19.024  22.664  12.513
13611W        W78596   1.328  25.496  10.593
13612W        W78597  31.646  15.561   0.389
13613W        W78598  18.418  15.258  13.876
13614W        W78599  16.752  25.280  12.385
13615W        W78600  17.709  35.021   0.888
13616W        W78601  11.526  26.933  12.625
13617W        W78602  13.819  13.828  14.920
13618W        W78603  26.349  16.023   0.214
13619W        W78604   3.709  23.741  13.796
13620W        W78605   4.181  24.044  14.809
13621W        W78606  10.959  19.525   1.260
13622W        W78607  43.832  33.426  12.650
13623W        W78608  27.041  17.710  12.071
13624W        W78609  16.350  36.486   1.506
13625W        W78610   6.178  21.939   3.317
13626W        W78611   1.801  14.545  10.760
13627W        W78612  44.978  43.708   2.136
13628W        W78613  12.767  15.662   0.362
13629W        W78614   3.402  33.138  12.714
13630W        W78615  29.215  28.415  13.012
13631W        W78616   0.090   8.565   2.628
13632W        W78617  14.009  11.273  11.667
13633W        W78618  16.121   2.715   2.255
13634W        W78619  20.251  42.748  11.881
13635W        W78620  33.983   7.375   1.312
13636W        W78621  43.446  33.347   2.233
13637W        W78622  25.515   2.887   5.091
13638W        W78623  24.102  34.783   4.482
13639W        W78624   4.092  44.427  10.791
13640W        W78625  19.006  10.064  11.048
13641W        W78626  12.217  37.788  11.753
13642W        W78627   6.638  15.412   3.764
13643W        W78628  24.533  10.174   2.404
13644W        W78629  41.914  17.795  13.373
13645W        W78630  27.174  23.005   4.754
13646W        W78631  32.974  27.778   1.278
13647W        W78632  11.764  24.405  11.536
13648W        W78633  10.696  40.523  11.966
13649W        W78634   7.474  25.039  13.017
13650W        W78635  38.265  25.219  14.043
13651W        W78636  23.493  43.867  14.975
13652W        W78637  35.625  32.899   2.043
13653W        W78638  11.696  23.903  11.627
13654W        W78639  10.094  41.810  10.320
13655W        W78640  29.945  17.960  13.140
13656W        W78641  15.030  24.010   1.698
13657W        W78642  13.302  12.041  13.005
13658W        W78643  20.570  37.056  11.450
13659W        W78644  15.079  39.941   3.334
13660W        W78645  43.779  22.681  14.461
13661W        W78646  15.543  20.832   0.378
13662W        W78647  44.348  34.923   5.693
13663W        W78648  19.659  19.738  12.500
13664W        W78649  38.961  41.818   3.629
13665W        W78650   4.905  35.999  12.275
13666W        W78651  24.817  21.740   2.597
13667W        W78652   7.232  40.510  11.583
13668W        W78653  10.780  14.096   0.934
13669W        W78654   2.761   3.997   4.557
13670W        W78655  17.317   1.460  11.638
13671W        W78656   6.729   1.009   0.404
13672W        W78657  12.773  44.034  13.278
13673W        W78658  43.763  32.300  11.938
13674W        W78659  37.600  33.570  13.879
13675W        W78660  11.842  37.642  14.095
13676W        W78661  19.351  16.692  10.670
13677W        W78662  29.613  43.487  14.799
13678W        W78663  39.827   0.500  13.819
13679W        W78664  28.813  31.951   3.643
13680W        W78665   8.572  40.996  10.684
13681W        W78666  31.840   7.611   3.266
13682W        W78667   4.852  37.591  14.801
13683W        W78668  20.962   9.397  10.823
13684W        W78669  28.183  30.595  11.338
13685W        W78670  41.564  10.328  14.311
13686W        W78671  31.703  34.345   4.889
13687W        W78672  19.059  17.936   2.293
13688W        W78673   0.926  12.849   3.712
13689W        W78674   4.285  21.740   1.774
13690W        W78675  11.376  23.126   3.822
13691W        W78676  21.461  31.046   2.609
13692W        W78677   6.336   5.346  13.891
13693W        W78678   3.360  38.923   0.436
13694W        W78679   3.009  13.224  10.648
13695W        W78680  41.901   7.425  11.253
13696W        W78681  39.397  30.025   3.064
13697W        W78682  31.292  19.528  10.613
13698W        W78683  27.960  15.118   4.739
13699W        W78684  30.335  39.347  14.777
13700W        W78685   7.651   0.886   4.623
13701W        W78686  22.206   2.391  13.996
13702W        W78687  32.099  41.249  12.512
13703W        W78688  11.285  13.366   3.769
13704W        W78689  37.961  31.129  10.938
13705W        W78690   8.452  13.791   3.226
13706W        W78691  39.846  33.053   3.286
13707W        W78692  11.692  40.397  14.210
13708W        W78693  26.463   7.632   0.408
13709W        W78694   8.268  32.002   0.716
13710W        W78695  33.081  41.234   3.153
13711W        W78696   8.217  25.133   0.930
13712W        W78697  43.341   0.364  12.432
13713W        W78698  30.937  18.126  10.578
13714W        W78699  11.802  40.792  10.480
13715W        W78700   8.194   7.803  14.963
13716W        W78701  20.863   6.258   4.184
13717W        W78702  34.470   4.365  11.446
13718W        W78703  37.506  26.477  11.009
13719W        W78704  17.599  38.251   3.252
13720W        W78705  42.341  15.614  12.893
13721W        W78706  11.979  20.581  11.616
13722W        W78707  42.951  38.558   1.786
13723W        W78708   5.561  30.488  10.726
13724W        W78709  36.063  19.010  10.372
13725W        W78710  38.611  43.570   4.023
13726W        W78711  14.859   8.207  11.920
13727W        W78712  42.558   8.837   2.648
13728W        W78713  44.915   6.213   2.292
13729W        W78714   9.309  29.476   4.201
13730W        W78715  32.933  33.163   0.017
13731W        W78716   2.501  38.586  14.766
13732W        W78717  31.505   2.540  14.213
13733W        W78718  14.571  43.963  11.228
13734W        W78719  15.535  33.556   0.028
13735W        W78720  35.052   5.904  12.645
13736W        W78721  18.291  39.428   3.533
13737W        W78722  36.453  30.729  14.033
13738W        W78723  36.724  32.461   3.608
13739W        W78724  25.251  18.611   0.301
13740W        W78725  13.500  22.704   4.842
13741W        W78726   4.334  28.620  11.108
13742W        W78727  19.709   3.965  11.251
13743W        W78728  41.108  39.368   1.815
13744W        W78729  25.235  27.527   4.476
13745W        W78730   5.788   8.695   3.214
13746W        W78731   6.273  14.359   9.783
13747W        W78732  30.478   9.925  10.798
13748W        W78733  28.283  24.683  13.570
13749W        W78734   1.593   1.720  14.777
13750W        W78735  28.758  37.998   2.700
13751W        W78736  13.192  18.261  13.513
13752W        W78737  40.440  27.012   1.843
13753W        W78738  25.667   4.364  11.944
13754W        W78739   2.525   2.701  12.529
13755W        W78740   0.295  22.154   3.286
13756W        W78741  15.085  34.452  11.551
13757W        W78742  43.009  19.715  11.576
13758W        W78743   2.295  41.104   2.312
13759W        W78744  30.571   7.309  10.609
13760W        W78745  39.984  35.118   1.187
13761W        W78746  35.314  32.397  12.591
13762W        W78747  33.026   9.814   4.502
13763W        W78748  26.608  35.973   0.667
13764W        W78749  13.664  12.715   0.327
13765W        W78750  25.119  20.458   2.458
13766W        W78751  27.602  44.734   4.243
13767W        W78752  31.691  35.510  12.961
13768W        W78753   2.505  20.559   0.361
13769W        W78754  18.568  17.628   4.114
13770W        W78755  19.263  19.492  13.409
13771W        W78756   7.033  10.817   2.822
13772W        W78757  39.422   4.853   3.585
13773W        W78758  34.064   7.500  14.881
13774W        W78759  12.790  24.105  10.915
13775W        W78760  18.845  13.388  10.979
13776W        W78761  25.153  10.438  14.238
13777W        W78762  35.521  28.719   0.399
13778W        W78763  39.796  36.023   0.853
13779W        W78764  21.527  44.288  13.664
13780W        W78765  11.296  40.058  10.724
13781W        W78766   2.956  25.967   3.565
13782W        W78767  14.619  41.186  11.924
13783W        W78768  10.711  27.236  10.519
13784W        W78769  33.845  12.812   2.547
13785W        W78770  44.030  23.084  12.778
13786W        W78771  16.322  35.403   0.940
13787W        W78772  14.530   7.755  12.811
13788W        W78773   2.488  44.923  12.921
13789W        W78774  18.134  42.432   4.349
13790W        W78775  25.697  40.310   3.819
13791W        W78776  12.162  14.802  13.943
13792W        W78777  39.282   5.893  11.651
13793W        W78778  34.806   1.691   4.174
13794W        W78779  14.605  36.891   0.979
13795W        W78780   2.487   1.674   2.881
13796W        W78781  13.276  27.756   0.561
13797W        W78782   7.467   8.026   3.996
13798W        W78783  13.560  18.101   2.795
13799W        W78784  14.502   4.936   4.093
13800W        W78785  17.723   0.431  11.583
13801W        W78786   8.238  37.452   3.727
13802W        W78787   1.501   3.780   3.122
13803W        W78788  41.629  24.962   0.814
13804W        W78789   4.834  41.066  10.881
13805W        W78790   6.084  29.643  11.862
13806W        W78791  44.443  24.057  11.962
13807W        W78792  29.060  11.172   0.039
13808W        W78793  44.827  31.412   4.764
13809W        W78794   6.415  20.305  13.456
13810W        W78795  35.452  39.034   0.283
13811W        W78796  42.316  29.284   9.837
13812W        W78797  14.891  43.036   1.992
13813W        W78798  21.730   8.699  14.954
13814W        W78799  39.765   8.330  14.452
13815W        W78800  11.312  37.811  13.479
13816W        W78801  25.749  28.571   0.850
13817W        W78802  27.147  38.952  11.688
13818W        W78803   4.859  19.642  14.254
13819W        W78804  20.664   6.454  14.055
13820W        W78805   6.971  19.032   4.601
13821W        W78806   6.117  18.541   4.229
13822W        W78807   1.496  27.027   2.376
13823W        W78808  13.173  37.268  14.750
13824W        W78809   5.917  33.648   3.743
13825W        W78810  30.180  24.136   1.904
13826W        W78811   1.208  10.625   1.363
13827W        W78812  32.010  11.151  13.948
13828W        W78813  42.706  28.916  13.805
13829W        W78814  23.023  27.043  11.664
13830W        W78815  29.071  37.695  11.230
13831W        W78816   8.448  20.286   0.339
13832W        W78817   2.372  15.095   1.967
13833W        W78818  12.394  36.615  14.319
13834W        W78819  21.718  23.222  10.530
13835W        W78820   9.699  32.061  10.492
13836W        W78821   5.437   3.782  11.163
13837W        W78822  10.889  15.607   1.472
13838W        W78823  22.574  30.066  10.897
13839W        W78824   3.883  20.917   4.271
13840W        W78825  12.672  24.180  11.411
13841W        W78826  36.975  30.644  13.609
13842W        W78827   6.727  28.388  11.667
13843W        W78828  13.093   5.839   2.864
13844W        W78829   3.347  27.253   0.054
13845W        W78830  37.090  36.980  11.106
13846W        W78831  29.685  37.176   5.090
13847W        W78832   6.907  27.448   1.532
13848W        W78833  12.126  30.699   0.876
13849W        W78834  44.414   7.115   1.178
13850W        W78835  31.503   2.661  10.568
13851W        W78836  21.763  11.331   1.342
13852W        W78837   1.141  15.207   0.869
13853W        W78838  38.419  43.387  13.656
13854W        W78839   4.209  26.621   2.632
13855W        W78840  15.988   0.992  12.497
13856W        W78841   1.439   2.676   3.887
13857W        W78842  30.633  17.699   0.633
13858W        W78843   6.141   7.379   0.875
13859W        W78844   1.475  19.300   1.647
13860W        W78845   0.106  25.084   0.550
13861W        W78846  18.601  27.849   3.399
13862W        W78847  10.289  39.533   0.292
13863W        W78848  36.533   7.293   3.160
13864W        W78849  35.747  22.886   1.121
13865W        W78850  18.684  16.922   0.957
13866W        W78851  39.984  42.890  10.919
13867W        W78852  11.895  25.084   5.061
13868W        W78853  43.459   6.807   3.589
13869W        W78854  20.075  43.849   4.368
13870W        W78855  37.730  24.460   0.418
13871W        W78856  23.261   6.735   2.491
13872W        W78857  25.805  21.619   2.357
13873W        W78858   7.752  38.799   1.425
13874W        W78859   2.419  35.901   0.380
13875W        W78860  38.912  36.768  14.384
13876W        W78861  25.719  32.583  12.548
13877W        W78862  25.793   7.908   0.970
13878W        W78863  32.372   4.870  14.126
13879W        W78864  22.791  30.480   1.662
13880W        W78865  40.728  41.669  10.737
13881W        W78866  18.718  42.887   1.322
13882W        W78867   9.157   7.716  12.873
13883W        W78868  29.977  13.903   3.673
13884W        W78869   8.273   1.917  14.498
13885W        W78870  14.633   5.802   2.318
13886W        W78871  27.085   5.335  11.176
13887W        W78872  33.167  33.104   3.338
13888W        W78873  40.573  24.896  13.883
13889W        W78874  10.205  10.379   1.780
13890W        W78875  16.224  29.492   1.392
13891W        W78876  15.018  31.658  12.058
13892W        W78877  36.533  43.687   1.922
13893W        W78878  18.696  22.671   3.099
13894W        W78879   7.938   2.383  10.403
13895W        W78880  21.396  18.894   5.683
13896W        W78881   9.704  39.760  13.995
13897W        W78882   0.511  41.742   4.440
13898W        W78883  39.364  19.400   0.139
13899W        W78884  16.310  33.599   3.900
13900W        W78885   5.371   8.410   9.776
13901W        W78886   6.818   1.696  10.800
13902W        W78887   1.298  16.061  12.567
13903W        W78888   5.672  21.948  12.912
13904W        W78889  43.885  42.274   0.327
13905W        W78890   2.104  31.919  12.997
13906W        W78891  44.328  24.929  13.582
13907W        W78892  25.114  38.936   0.461
13908W        W78893   4.220  12.821  14.420
13909W        W78894  13.868   0.586   0.234
13910W        W78895  22.447   0.777  10.796
13911W        W78896  43.857  36.462  13.363
13912W        W78897  17.567  32.005  10.471
13913W        W78898   0.990  36.282   1.825
13914W        W78899  38.106  21.898  13.461
13915W        W78900  21.732  20.167   4.207
13916W        W78901  25.915  38.701   1.210
13917W        W78902  39.599   2.277  14.359
13918W        W78903  38.318  27.137  14.355
13919W        W78904  23.319  40.710  12.335
13920W        W78905  21.447  36.833   4.336
13921W        W78906  11.725  36.361   4.561
13922W        W78907  28.220  16.714  13.437
13923W        W78908   1.673  21.139   0.450
13924W        W78909  19.128  18.829   0.565
13925W        W78910  35.508  44.007  12.561
13926W        W78911  36.970  12.259  10.669
13927W        W78912  44.240  42.617   4.352
13928W        W78913  10.652  21.181  10.406
13929W        W78914   2.406  28.249   1.817
13930W        W78915   3.758  20.130   0.180
13931W        W78916  41.869  19.976  11.630
13932W        W78917  36.745  31.988  10.524
13933W        W78918  33.376  25.011  14.119
13934W        W78919  38.743  15.411   0.840
13935W        W78920  21.201  30.187   2.411
13936W        W78921   0.515  25.007   0.244
13937W        W78922  33.161  40.975  14.880
13938W        W78923  32.383  40.606  11.193
13939W        W78924  28.165  20.325  12.380
13940W        W78925  18.818  37.924  14.783
13941W        W78926  13.632   1.824   4.351
13942W        W78927  10.492   3.401   3.082
13943W        W78928   4.219  44.305   1.828
13944W        W78929  15.677  28.921   1.726
13945W        W78930   9.184  32.604   4.237
13946W        W78931  33.014   4.495  11.102
13947W        W78932  33.398  31.339  10.735
13948W        W78933  15.430  36.916  11.397
13949W        W78934  44.024  14.666   0.076
13950W        W78935  10.321  10.297   0.895
13951W        W78936  11.256   5.783   1.892
13952W        W78937   0.986  37.264  10.318
13953W        W78938  42.594  19.264  11.657
13954W        W78939  31.525  29.561   2.101
13955W        W78940  22.793   6.680   0.729
13956W        W78941  17.104  39.892   0.316
13957W        W78942  11.228  14.317   4.439
13958W        W78943  16.399  19.521  14.792
13959W        W78944  18.737   2.981   3.814
13960W        W78945  29.541  38.500  11.567
13961W        W78946  21.397  12.497   3.329
13962W        W78947  41.542  29.538   3.948
13963W        W78948   8.750  35.881  14.069
13964W        W78949  34.415  12.300  14.798
13965W        W78950  18.066   0.079   4.149
13966W        W78951  23.611  42.299   3.608
13967W        W78952   9.388   9.911   1.031
13968W        W78953  35.392  32.888   1.571
13969W        W78954  21.835  43.210   4.659
13970W        W78955  35.392  43.917   2.773
13971W        W78956   4.715   5.245  12.833
13972W        W78957  19.160  44.939  12.531
13973W        W78958  12.767  27.515  12.072
13974W        W78959  33.262  10.289   4.534
13975W        W78960  12.757  23.516   4.822
13976W        W78961  38.515  34.302  12.972
13977W        W78962   7.054  32.196   2.237
13978W        W78963   5.377  36.396   3.803
13979W        W78964  42.240  44.467  11.155
13980W        W78965  28.539  25.551   1.603
13981W        W78966  30.846  24.603  14.917
13982W        W78967  40.000  14.569  13.528
13983W        W78968  44.473  24.796   5.148
13984W        W78969  32.028  21.683   4.420
13985W        W78970  40.568  15.178  11.905
13986W        W78971  22.063  14.255   1.314
13987W        W78972  21.942   7.866  11.922
13988W        W78973   4.372  11.387  14.278
13989W        W78974  34.325  35.024   4.664
13990W        W78975   4.275  39.508   3.291
13991W        W78976  24.111  42.368   3.522
13992W        W78977  37.716   4.172   1.837
13993W        W78978  23.132  40.989   0.607
13994W        W78979  35.056   6.716   2.821
13995W        W78980  44.895   7.584  10.867
13996W        W78981  40.595  24.048  12.078
13997W        W78982  24.167  27.740  14.898
13998W        W78983  30.087  34.295   3.088
13999W        W78984  41.198  38.074   0.907
14000W        W78985   9.193  28.755  11.592
14001W        W78986  23.227  13.760   3.486
14002W        W78987  42.573  12.440   3.625
14003W        W78988  38.858  35.440   1.914
14004W        W78989   9.398   5.668  12.975
14005W        W78990  10.553  30.377   1.895
14006W        W78991  35.680  10.277   1.593
14007W        W78992  40.800  18.447  13.598
14008W        W78993  10.239  38.441   1.759
14009W        W78994  38.852  18.345  10.935
14010W        W78995  16.821  13.863  14.434
14011W        W78996  35.073  25.583  10.939
14012W        W78997  19.994  21.169   4.916
14013W        W78998  35.901  44.848   1.255
14014W        W78999  42.558  26.577   3.190
14015W        W79000   9.909  31.140  13.470
14016W        W79001  14.193  11.860  14.360
14017W        W79002  40.990  12.556   0.442
14018W        W79003  27.613  15.129  11.957
14019W        W79004  37.459  30.140  13.870
14020W        W79005  16.794   1.470  11.601
14021W        W79006  43.401  23.649  12.532
14022W        W79007  34.058  27.201  12.637
14023W        W79008  23.814  19.559   0.515
14024W        W79009  11.166  21.573   4.723
14025W        W79010  31.142   0.420  12.973
14026W        W79011  35.653  19.665   3.879
14027W        W79012  26.443  24.749   2.359
14028W        W79013   9.345   2.524  13.461
14029W        W79014  12.808  34.030   4.576
14030W        W79015  23.291  20.166   1.873
14031W        W79016  14.122  42.454   4.219
14032W        W79017  39.631  31.591  11.502
14033W        W79018  30.479  43.898   3.327
14034W        W79019  18.862  44.735  13.826
14035W        W79020  37.021   2.819  13.952
14036W        W79021  36.775  43.447  10.526
14037W        W79022  35.682  39.940  13.419
14038W        W79023   8.920   3.988  14.355
14039W        W79024   6.890   0.461  12.696
14040W        W79025  20.875  13.092  14.528
14041W        W79026  13.758  31.038  10.262
14042W        W79027  35.879  34.816   4.500
14043W        W79028  36.881  31.147  11.546
14044W        W79029  33.732  24.592  13.420
14045W        W79030  21.493  14.534  11.589
14046W        W79031  25.715  25.772   2.222
14047W        W79032  11.111  14.273  12.416
14048W        W79033  14.596  29.566   3.626
14049W        W79034  14.748  16.842  11.944
14050W        W79035  32.213  23.628  12.578
14051W        W79036  33.298  30.476   3.631
14052W        W79037   6.495  34.796  11.515
14053W        W79038   4.942  41.287  12.581
14054W        W79039  32.083  10.149   1.404
14055W        W79040   4.779  22.019  14.542
14056W        W79041  28.109   5.011   1.317
14057W        W79042   6.819  35.627   2.423
14058W        W79043  11.769  44.324  10.248
14059W        W79044   7.477  26.978  12.990
14060W        W79045   4.464   1.232   0.532
14061W        W79046  20.603  15.472   2.541
14062W        W79047  28.439  13.937   2.738
14063W        W79048  14.295   8.373  12.524
14064W        W79049   4.321   5.765   4.064
14065W        W79050  39.994  31.138   4.270
14066W        W79051  13.507  37.993  14.525
14067W        W79052  11.716  14.919   1.939
14068W        W79053  25.550  44.305   1.809
14069W        W79054  39.802  16.556   4.915
14070W        W79055  10.730  41.497   4.040
14071W        W79056  39.514   0.899  13.994
14072W        W79057   1.910  30.117  14.805
14073W        W79058  43.917  22.488  10.479
14074W        W79059   1.251  25.292  11.158
14075W        W79060  19.538   9.871   4.495
14076W        W79061  33.589  11.188  14.250
14077W        W79062  43.274  33.086   2.789
14078W        W79063  15.725   3.321  11.428
14079W        W79064  22.294   9.748  10.540
14080W        W79065  38.270  24.192  12.274
14081W        W79066  24.656  26.155   2.259
14082W        W79067  36.402  11.748  14.035
14083W        W79068  17.542  24.244   1.310
14084W        W79069  21.451  15.456  14.468
14085W        W79070  15.534   7.968   0.365
14086W        W79071  26.642  42.441   1.855
14087W        W79072  42.532   8.388  12.955
14088W        W79073  13.236  10.601  13.129
14089W        W79074  36.812  25.311  13.565
14090W        W79075  43.017  31.713  11.157
14091W        W79076  19.154  28.064   3.324
14092W        W79077  14.756  38.563  14.297
14093W        W79078   7.219  20.134   4.509
14094W        W79079  17.616  39.673  11.542
14095W        W79080   1.985  17.786  12.276
14096W        W79081  42.368  34.040  12.926
14097W        W79082  29.699  25.079  13.402
14098W        W79083  42.028   6.920  13.947
14099W        W79084   1.200  32.127  10.313
14100W        W79085   8.338  21.005   0.043
14101W        W79086  20.676  37.126  13.975
14102W        W79087   3.385   4.425  11.832
14103W        W79088  24.364  15.566  13.021
14104W        W79089  34.602   2.942  12.014
14105W        W79090   9.184   7.681   0.022
14106W        W79091  15.100  31.175  10.842
14107W        W79092   6.836   4.565   5.241
14108W        W79093  10.884  15.267   1.913
14109W        W79094  20.914   7.699   0.461
14110W        W79095   0.119  40.485  13.466
14111W        W79096  41.349  20.173  10.985
14112W        W79097  23.023  25.527  12.429
14113W        W79098  29.976   2.298   1.755
14114W        W79099   5.351   0.500  14.484
14115W        W79100   0.184  36.240   3.378
14116W        W79101  33.292   6.591  14.494
14117W        W79102  27.775  44.499   1.982
14118W        W79103  17.677  31.037   2.136
14119W        W79104  41.364  15.452   2.129
14120W        W79105  35.302  38.942   4.062
14121W        W79106  16.613  16.173   2.863
14122W        W79107  37.522  18.334   0.724
14123W        W79108  24.785   6.733  13.563
14124W        W79109  42.302   1.871   1.002
14125W        W79110  15.085  25.714  13.911
14126W        W79111   1.029  30.005   4.586
14127W        W79112  34.672   8.785   3.564
14128W        W79113  37.795  13.274  13.099
14129W        W79114   3.490  32.050   4.182
14130W        W79115  24.251  25.595   0.391
14131W        W79116   3.492  21.710  14.702
14132W        W79117  15.588  20.812   3.245
14133W        W79118   6.869  38.368   1.588
14134W        W79119  26.918  11.756  12.000
14135W        W79120  37.900  39.425  12.641
14136W        W79121  38.998  17.173   1.738
14137W        W79122   5.265  39.023  12.267
14138W        W79123  33.353  13.394  11.935
14139W        W79124   4.390  29.036   2.270
14140W        W79125  40.904  14.949  13.734
14141W        W79126   9.274  43.626   4.686
14142W        W79127  20.040   0.689   2.666
14143W        W79128   2.319  15.820  12.610
14144W        W79129  24.765  32.585   2.272
14145W        W79130  34.581  25.466  10.240
14146W        W79131   5.575   6.208   2.139
14147W        W79132  23.576  12.186   4.328
14148W        W79133   5.342  28.188   1.206
14149W        W79134  18.159  34.150  12.487
14150W        W79135  12.309  27.150  11.969
14151W        W79136  26.906  22.228  11.081
14152W        W79137  43.378   5.739   0.474
14153W        W79138  16.812  16.338   1.306
14154W        W79139  18.128   0.431  10.460
14155W        W79140   5.593  24.209  11.909
14156W        W79141  29.958  37.744  10.413
14157W        W79142  16.900  35.130   4.525
14158W        W79143  34.685  29.508   2.864
14159W        W79144  35.041  26.626  11.096
14160W        W79145  21.198   3.913   2.695
14161W        W79146  44.756  22.514   0.902
14162W        W79147   9.935   5.961   2.269
14163W        W79148  36.778   2.989   1.722
14164W        W79149  19.360   8.425   1.858
14165W        W79150  19.695   3.273  10.642
14166W        W79151  17.298  34.296  13.419
14167W        W79152   0.657   8.984   0.685
14168W        W79153  39.278  34.444  12.577
14169W        W79154  40.077  10.663  13.079
14170W        W79155  13.694  16.098   0.664
14171W        W79156  26.082  19.691   3.212
14172W        W79157  12.735  11.897   2.145
14173W        W79158   2.792  42.807  12.519
14174W        W79159  44.943  22.629  12.999
14175W        W79160   1.987  39.218  13.028
14176W        W79161   7.476   8.594  11.660
14177W        W79162  10.612   0.465  14.638
14178W        W79163  11.004  36.868   0.988
14179W        W79164  19.813   0.422   2.234
14180W        W79165  22.475  22.628  10.425
14181W        W79166  11.676  27.233  13.455
14182W        W79167  33.915   5.721   0.411
14183W        W79168  41.005   1.184  12.498
14184W        W79169   4.315   3.447  13.150
14185W        W79170  10.659  37.382   4.937
14186W        W79171  24.820  26.294   0.271
14187W        W79172  22.250  35.338  13.106
14188W        W79173   6.736  20.430   0.983
14189W        W79174  40.154  21.905   0.506
14190W        W79175  11.951   2.805  12.160
14191W        W79176  24.710   8.361   3.196
14192W        W79177  11.167  24.456   3.168
14193W        W79178  34.621   9.870   4.539
14194W        W79179   6.217   0.399  12.458
14195W        W79180   9.637   7.513  12.913
14196W        W79181  32.161   9.357  12.236
14197W        W79182  32.366  33.082  12.065
14198W        W79183   5.839  12.470   0.079
14199W        W79184  40.399   3.277   2.700
14200W        W79185  37.332  15.345  14.061
14201W        W79186  14.848  29.517  12.836
14202W        W79187  13.306  15.726   2.857
14203W        W79188  15.843  12.811   1.229
14204W        W79189   0.470  31.377  12.446
14205W        W79190  34.963  18.872   1.634
14206W        W79191  38.577  42.568  12.581
14207W        W79192  31.719  33.626   0.356
14208W        W79193  13.086  42.556   0.581
14209W        W79194  36.903  25.419   0.911
14210W        W79195  24.309   4.872   3.538
14211W        W79196  40.537   0.776  11.180
14212W        W79197  23.805  22.983  10.591
14213W        W79198   8.643  27.485  10.642
14214W        W79199  15.516  23.645  10.630
14215W        W79200  20.285   3.774  13.299
14216W        W79201  19.632  36.134   4.544
14217W        W79202  38.274  20.500  13.490
14218W        W79203  30.456  33.889  10.713
14219W        W79204  44.644  34.902   2.688
14220W        W79205  36.867  10.682  14.214
14221W        W79206   8.407  23.401  13.665
14222W        W79207  30.858  38.805   4.289
14223W        W79208  22.156  44.913  10.842
14224W        W79209  42.872  16.817  12.612
14225W        W79210  18.202  13.161  11.446
14226W        W79211  13.647  16.153  12.401
14227W        W79212  17.713  12.665  12.007
14228W        W79213  27.014  28.264  11.586
14229W        W79214  14.218   1.717  11.913
14230W        W79215  20.309  42.431   2.707
14231W        W79216  10.895  10.447   3.741
14232W        W79217  18.801   5.000  12.044
14233W        W79218  44.104  42.407  11.132
14234W        W79219   3.548  26.465   3.379
14235W        W79220  36.427  15.598   2.440
14236W        W79221   0.978  19.743   2.213
14237W        W79222  43.595  11.188  12.990
14238W        W79223  12.705  17.549   0.335
14239W        W79224   2.745  13.742  13.561
14240W        W79225  18.656  40.162  10.362
14241W        W79226  21.256  38.947  10.577
14242W        W79227  19.136  10.587   0.892
14243W        W79228  16.533  23.293   4.075
14244W        W79229   8.353  36.521  12.532
14245W        W79230  12.015  18.178   0.464
14246W        W79231   5.102   1.554   2.670
14247W        W79232  38.222  20.329   0.839
14248W        W79233  22.626  39.568   3.119
14249W        W79234  38.342  39.813   4.036
14250W        W79235  42.869  44.459   1.808
14251W        W79236   8.445  42.825   3.897
14252W        W79237  24.262  18.163  12.081
14253W        W79238  41.948  40.063   1.383
14254W        W79239  25.296  39.057  11.824
14255W        W79240   3.400   3.305   0.883
14256W        W79241  18.903  42.259  13.434
14257W        W79242  31.848  12.847  11.649
14258W        W79243  16.619  16.338  11.706
14259W        W79244  41.440  24.533  13.486
14260W        W79245   9.229  37.191  10.652
14261W        W79246  20.459   9.335  10.890
14262W        W79247  20.092  29.697  11.384
14263W        W79248  23.613  27.435  12.528
14264W        W79249  32.289  37.442  13.537
14265W        W79250   8.073  35.466   1.453
14266W        W79251  44.257   2.236  14.519
14267W        W79252   2.980  36.931   4.629
14268W        W79253  28.191  22.702   0.725
14269W        W79254  25.533  37.131   3.557
14270W        W79255  36.161  16.333  10.862
14271W        W79256  42.559  38.111   3.339
14272W        W79257  27.280   0.411  11.951
14273W        W79258   5.019  32.447   3.409
14274W        W79259  13.038  11.635  11.649
14275W        W79260  29.386   4.401   1.332
14276W        W79261  15.285  17.506  12.545
14277W        W79262   8.352  23.880  13.940
14278W        W79263   8.704  22.113   4.668
14279W        W79264   8.431  40.324  13.806
14280W        W79265  30.669  35.656  12.876
14281W        W79266  25.466  32.927  14.417
14282W        W79267  29.929  18.275  14.301
14283W        W79268   5.011  18.800   0.749
14284W        W79269   0.730  37.394   4.126
14285W        W79270  32.605  19.752   4.165
14286W        W79271   7.783  38.077   4.247
14287W        W79272  43.100  23.477   0.888
14288W        W79273  41.579  30.579  13.288
14289W        W79274  25.900  24.966   0.855
14290W        W79275  22.520   7.193   3.395
14291W        W79276  40.083  37.225   4.039
14292W        W79277  10.254  24.162  13.272
14293W        W79278  44.599  35.466  13.178
14294W        W79279   8.880  24.283  10.703
14295W        W79280  14.540  29.948  14.379
14296W        W79281  26.596  31.545   3.933
14297W        W79282  27.014  26.662   3.730
14298W        W79283  41.480  18.851   2.067
14299W        W79284  26.659  41.459  14.034
14300W        W79285   3.352   2.485   1.286
14301W        W79286  19.298  26.242   0.141
14302W        W79287  11.901  21.678  12.698
14303W        W79288  13.314   6.636  14.510
14304W        W79289  31.200   5.812   2.345
14305W        W79290  28.673   8.663   4.840
14306W        W79291   8.451  43.788  11.769
14307W        W79292  27.698  31.629  13.804
14308W        W79293  20.255  28.604  14.744
14309W        W79294   0.045  19.471   3.097
14310W        W79295  44.974  18.807  14.841
14311W        W79296  39.306  15.125  11.297
14312W        W79297  23.180  13.680  14.924
14313W        W79298  19.298  26.221  11.283
14314W        W79299  38.385  38.954   3.610
14315W        W79300  40.536   2.264  13.247
14316W        W79301  36.448  35.434  11.502
14317W        W79302  24.820  28.031  12.477
14318W        W79303  26.005   3.476  14.716
14319W        W79304  42.945  20.096   0.650
14320W        W79305  12.480  39.079   0.343
14321W        W79306  19.218   4.253  13.904
14322W        W79307  37.161  10.418   2.661
14323W        W79308  32.026  21.506  14.301
14324W        W79309  31.536  43.053  13.394
14325W        W79310  26.146  15.308  10.611
14326W        W79311  12.637  20.484   1.476
14327W        W79312  26.475  35.389  13.296
14328W        W79313  36.460   8.712   5.066
14329W        W79314  40.076   4.651  13.287
14330W        W79315  40.544   3.700   4.141
14331W        W79316  12.036  10.336  13.952
14332W        W79317  10.836  17.319  12.899
14333W        W79318   8.855  17.657  13.565
14334W        W79319   8.224   7.923   5.250
14335W        W79320   8.011  23.013   2.711
14336W        W79321  24.599  37.318  11.175
14337W        W79322  12.693  36.295  11.637
14338W        W79323  43.456  22.510   3.193
14339W        W79324  29.625  35.443   1.437
14340W        W79325  22.518  19.446  13.954
14341W        W79326  23.297   6.156  13.536
14342W        W79327  17.138  13.343  13.309
14343W        W79328  29.559  38.997   3.522
14344W        W79329  12.252  21.054  14.279
14345W        W79330  23.320  40.924  12.811
14346W        W79331   3.251   2.215  11.204
14347W        W79332  28.945  11.255  11.047
14348W        W79333   1.027  29.725   5.036
14349W        W79334  16.332  27.905   0.197
14350W        W79335   4.430  35.862   0.482
14351W        W79336  24.517  25.400   4.498
14352W        W79337  12.077  10.884  11.598
14353W        W79338  41.814  35.845  13.703
14354W        W79339  40.852  23.194   0.220
14355W        W79340  40.840  20.497  12.998
14356W        W79341   8.750  27.330  13.145
14357W        W79342   0.641  40.214  14.838
14358W        W79343  24.933  12.150  13.390
14359W        W79344  19.226  42.258  14.720
14360W        W79345  26.761  10.770   2.707
14361W        W79346  38.337   2.888   1.396
14362W        W79347  16.675  32.671   1.228
14363W        W79348  20.724  13.519   4.170
14364W        W79349  12.100  10.236   4.143
14365W        W79350  33.904  34.665  12.998
14366W        W79351  29.459   8.438   4.618
14367W        W79352  25.629   9.104  13.713
14368W        W79353  36.632  44.022  13.228
14369W        W79354  13.544  11.530  13.448
14370W        W79355  30.448  42.048   0.257
14371W        W79356  11.936  31.950   3.711
14372W        W79357   5.754  39.896  12.017
14373W        W79358  31.937  10.637   2.308
14374W        W79359  39.577   8.949   4.139
14375W        W79360   0.633  26.464  11.888
14376W        W79361  33.629  18.736  11.994
14377W        W79362   9.383  40.219   4.543
14378W        W79363   4.278   6.808  10.181
14379W        W79364  44.780  12.392  14.432
14380W        W79365  20.184   1.180  10.759
14381W        W79366  23.684  13.599  14.934
14382W        W79367  39.887  25.118   2.422
14383W        W79368  30.454  44.183   2.852
14384W        W79369  34.504  40.987   2.317
14385W        W79370  13.534  10.808  10.753
14386W        W79371  42.100   7.746  11.575
14387W        W79372  36.403  12.763   1.159
14388W        W79373  43.248  10.316   4.652
14389W        W79374  10.818  44.319  13.140
14390W        W79375  23.454  33.560   3.516
14391W        W79376  26.014  41.222  11.113
14392W        W79377  32.825  12.400  10.565
14393W        W79378  12.164   6.994  14.594
14394W        W79379  38.495  18.139   1.751
14395W        W79380  10.797  35.409  14.880
14396W        W79381  27.132  41.573   1.009
14397W        W79382   8.261  12.432   3.135
14398W        W79383  39.329  25.989   2.334
14399W        W79384  24.005  22.944  11.418
14400W        W79385  39.419  40.036   3.259
14401W        W79386  33.798  28.079  12.926
14402W        W79387  31.591   8.085  13.119
14403W        W79388  35.815   9.429   0.309
14404W        W79389  31.697  11.263  11.169
14405W        W79390  20.951  38.935  12.045
14406W        W79391  44.666  40.961   0.726
14407W        W79392   0.990  36.795   1.859
14408W        W79393  19.427   4.929   5.063
14409W        W79394  12.292  16.354  14.989
14410W        W79395  32.839  28.372  11.989
14411W        W79396  18.147  31.923   0.014
14412W        W79397  15.621  42.717   4.884
14413W        W79398  18.157  44.474   0.797
14414W        W79399   0.440  31.778   4.214
14415W        W79400  29.984   5.728   3.339
14416W        W79401  25.117  31.946  14.613
14417W        W79402  11.762  23.062  12.392
14418W        W79403   5.214  30.043   2.839
14419W        W79404  15.656  18.545   3.185
14420W        W79405  35.016  24.948   3.806
14421W        W79406   4.402   2.598  13.543
14422W        W79407  26.053  16.832  12.012
14423W        W79408  37.942  12.311  10.797
14424W        W79409  43.118  27.399   0.357
14425W        W79410  34.890   3.224   1.672
14426W        W79411  30.437  41.779   2.311
14427W        W79412  39.033   0.778  11.103
14428W        W79413  16.776  24.170   3.577
14429W        W79414   6.866   3.145   4.828
14430W        W79415  34.306  22.155  13.428
14431W        W79416  14.325   5.005   2.260
14432W        W79417  11.974  38.912  12.843
14433W        W79418   1.108  42.150   1.386
14434W        W79419  28.981  27.054  12.582
14435W        W79420  23.295  36.541  13.864
14436W        W79421  21.722  34.357   3.781
14437W        W79422  41.254  31.408   2.780
14438W        W79423  13.663  17.119   0.867
14439W        W79424  29.817  26.222   2.373
14440W        W79425  38.410  13.133   2.117
14441W        W79426  29.403  23.119  14.954
14442W        W79427  31.065   8.520  11.212
14443W        W79428   2.190  41.881   3.418
14444W        W79429   9.642  27.616  14.299
14445W        W79430   8.835  33.050   4.544
14446W        W79431  13.005  30.395  14.944
14447W        W79432   7.865  13.644  12.492
14448W        W79433  36.051   9.290  12.393
14449W        W79434  37.370  21.816   0.196
14450W        W79435  33.243  44.999  11.213
14451W        W79436  18.745   6.709  14.277
14452W        W79437  31.382  24.134   3.757
14453W        W79438  26.594  44.279   5.097
14454W        W79439   4.430   8.767  14.906
14455W        W79440  17.859  35.920  14.376
14456W        W79441   3.397  42.129   4.446
14457W        W79442   1.264  11.815   1.812
14458W        W79443  16.249  41.497   4.700
14459W        W79444  15.220  28.718   2.262
14460W        W79445   1.358  37.415   1.323
14461W        W79446   0.335  31.877   0.150
14462W        W79447  22.076  23.368   3.224
14463W        W79448   5.292  10.106   0.530
14464W        W79449  37.529   9.865  13.181
14465W        W79450  28.439  44.349  13.817
14466W        W79451  42.835  19.357  14.508
14467W        W79452  24.407   4.248   4.150
14468W        W79453  24.165  20.793   0.494
14469W        W79454  33.211  32.838  10.009
14470W        W79455  21.203  13.860   2.187
14471W        W79456  19.026  42.721  13.029
14472W        W79457  26.952  26.646  10.302
14473W        W79458  18.481  21.172   1.559
14474W        W79459  21.585  30.499  11.974
14475W        W79460  26.617  30.958  14.176
14476W        W79461  39.929  33.912  14.918
14477W        W79462   9.957  17.626   2.614
14478W        W79463  40.204  43.973  14.967
14479W        W79464  21.042  40.421  12.928
14480W        W79465  12.938  41.743   3.666
14481W        W79466  16.827  23.303   1.036
14482W        W79467  33.976  22.580  10.692
14483W        W79468  36.001  15.175  14.560
14484W        W79469  35.874   0.317   4.687
14485W        W79470  38.326  21.269   4.288
14486W        W79471  33.926   7.314   5.598
14487W        W79472  10.024  35.558   1.699
14488W        W79473  33.199  13.625  13.421
14489W        W79474  37.878  17.355   2.282
14490W        W79475  40.053  44.145   5.026
14491W        W79476  38.544   4.420   4.091
14492W        W79477  12.845  26.617  14.381
14493W        W79478  19.193  37.966   2.484
14494W        W79479  34.605  12.196   4.560
14495W        W79480  37.136   8.996  10.928
14496W        W79481  37.668  43.839   1.734
14497W        W79482  21.805  11.853   1.305
14498W        W79483  11.586  15.348  13.987
14499W        W79484   2.782  36.935   1.869
14500W        W79485  35.127  16.746   1.865
14501W        W79486   6.251  25.234   5.129
14502W        W79487  42.918  36.007  14.423
14503W        W79488  28.467  23.253  13.548
14504W        W79489   4.040  22.255   3.516
14505W        W79490  38.841  14.157  12.497
14506W        W79491  23.660   9.123  12.844
14507W        W79492   5.522  31.784   4.239
14508W        W79493  19.315  25.854   3.446
14509W        W79494  33.893   1.877  13.051
14510W        W79495   1.794  38.980   0.425
14511W        W79496  15.816  13.896   0.364
14512W        W79497   7.254  40.931   0.866
14513W        W79498  31.714  30.405   2.309
14514W        W79499  44.061  43.018   0.755
14515W        W79500  12.757  28.137  13.383
14516W        W79501  11.698   1.056   1.195
14517W        W79502   2.032   8.133  12.117
14518W        W79503  44.562  25.655  10.712
14519W        W79504  33.692  31.420  12.189
14520W        W79505  41.053  16.796   1.919
14521W        W79506  25.640   5.897  14.942
14522W        W79507  35.035  24.052   3.812
14523W        W79508  35.130  35.522   1.388
14524W        W79509  35.420  39.926   4.018
14525W        W79510  41.049   4.860  11.587
14526W        W79511  14.165  27.323  14.521
14527W        W79512  36.692  11.874  14.977
14528W        W79513  25.017  34.889  11.029
14529W        W79514  29.007  25.692  13.935
14530W        W79515  36.610  12.619  10.598
14531W        W79516  13.892  25.124  12.934
14532W        W79517  42.349   6.085   4.741
14533W        W79518  14.740  25.918  14.842
14534W        W79519  43.365   7.710   3.738
14535W        W79520  16.097  12.086  10.984
14536W        W79521   1.952  43.784  14.950
14537W        W79522   3.435  43.852   4.442
14538W        W79523  31.558  17.349  10.611
14539W        W79524  36.118  30.738  12.277
14540W        W79525  24.041  37.766   1.734
14541W        W79526   9.137  29.116  10.440
14542W        W79527  29.945  37.137   0.695
14543W        W79528  42.516  10.182   1.723
14544W        W79529  25.193  43.272  12.474
14545W        W79530  22.563  39.985   4.446
14546W        W79531   4.751   6.512  10.494
14547W        W79532  17.059  33.698  11.897
14548W        W79533  31.606  42.472   3.233
14549W        W79534   9.367  10.782   4.583
14550W        W79535   9.096  14.752  14.930
14551W        W79536  17.555  33.419   3.848
14552W        W79537  22.714   6.745  14.787
14553W        W79538  19.719  27.033  14.599
14554W        W79539  35.815  31.859  14.395
14555W        W79540   9.968  19.662  10.242
14556W        W79541  18.770  23.981   4.213
14557W        W79542   5.219  22.000   4.169
14558W        W79543  30.701   4.035  12.248
14559W        W79544  43.589   4.865   2.780
14560W        W79545  39.779  33.574  12.470
14561W        W79546  23.163  17.207  14.306
14562W        W79547  29.854   8.742   2.566
14563W        W79548   2.724  17.876  11.066
14564W        W79549  32.107  19.332   1.382
14565W        W79550  19.248  38.863  11.953
14566W        W79551  17.477  18.220  10.288
14567W        W79552  26.498   6.383  14.966
14568W        W79553   5.037  27.595   1.869
14569W        W79554  20.035  21.707   2.291
14570W        W79555   5.157  10.916  10.536
14571W        W79556  14.220  32.874   3.765
14572W        W79557  37.387  23.619  14.454
14573W        W79558   4.839  39.549   2.721
14574W        W79559  23.787  10.807   4.697
14575W        W79560  23.232  17.513   3.943
14576W        W79561   8.519  20.286  11.416
14577W        W79562  42.426  43.570  11.610
14578W        W79563  20.346   1.765  11.605
14579W        W79564   1.722   3.544   3.954
14580W        W79565  33.089  36.217   4.336
14581W        W79566  42.867  29.712  12.426
14582W        W79567  28.780  26.565  12.521
14583W        W79568  22.106  18.830   0.308
14584W        W79569   6.901  36.288  14.061
14585W        W79570  42.402  18.824   2.837
14586W        W79571  41.956  20.143  10.768
14587W        W79572  34.483  32.575   4.427
14588W        W79573  35.508   6.324   1.495
14589W        W79574  18.284  23.782   4.095
14590W        W79575  12.756  44.386  14.930
14591W        W79576  33.685  37.259  11.501
14592W        W79577  42.952  36.505  14.100
14593W        W79578  44.200  29.202   0.959
14594W        W79579  11.552  40.037  14.565
14595W        W79580   0.456  21.034  13.305
14596W        W79581  35.541  33.810   1.945
14597W        W79582  37.619  44.322  11.762
14598W        W79583  23.023  26.854   2.300
14599W        W79584  32.948  22.986  14.378
14600W        W79585  37.560  31.150  14.017
14601W        W79586   6.203  42.025  10.947
14602W        W79587   4.317  44.557  13.872
14603W        W79588   5.692  29.459   2.221
14604W        W79589  38.515   4.174  11.139
14605W        W79590  43.035  30.087  13.426
14606W        W79591  22.480  29.147  13.036
14607W        W79592  30.115  13.660  13.823
14608W        W79593  36.311  23.477   0.672
14609W        W79594   1.358  38.256  12.354
14610W        W79595   7.394   4.934   3.622
14611W        W79596  43.083  20.805   4.642
14612W        W79597  42.732   1.555  12.586
14613W        W79598  11.532   0.016   1.241
14614W        W79599  29.942   0.391   1.803
14615W        W79600  26.947  31.582  10.698
14616W        W79601  36.288  33.056  13.949
14617W        W79602  22.242  42.398   1.696
14618W        W79603  11.185   6.266  12.268
14619W        W79604   7.101  28.530   4.667
14620W        W79605  23.668  26.612  11.643
14621W        W79606  33.825  15.251   0.808
14622W        W79607  32.728   6.156  12.902
14623W        W79608  24.049  27.154  13.785
14624W        W79609  14.857   0.482  12.400
14625W        W79610   6.372   1.839  10.581
14626W        W79611  23.045  20.550   2.871
14627W        W79612  25.504  31.538   0.430
14628W        W79613  28.517  33.394   2.742
14629W        W79614   7.910  44.531   2.312
14630W        W79615  11.654  28.222   3.358
14631W        W79616  16.996  43.578   0.768
14632W        W79617  11.667   4.213   0.992
14633W        W79618   3.237  26.424   2.938
14634W        W79619  36.020   1.481  14.653
14635W        W79620  39.575  24.351   4.591
14636W        W79621  30.127  40.954   2.400
14637W        W79622  26.255  31.985   2.793
14638W        W79623  36.485  38.398  13.065
14639W        W79624  15.689  30.666   2.835
14640W        W79625  23.558  22.652  11.172
14641W        W79626  13.105  38.742   3.706
14642W        W79627  18.625  40.904  12.040
14643W        W79628  10.422  21.672   1.929
14644W        W79629   5.355  33.899   2.388
14645W        W79630  23.731  36.855  10.762
14646W        W79631  31.257  44.284  11.648
14647W        W79632  14.835   0.720   4.674
14648W        W79633   5.660   4.750   2.804
14649W        W79634  31.507  17.414  11.473
14650W        W79635   7.735  26.562  14.410
14651W        W79636  17.797  42.769   4.635
14652W        W79637  17.591  16.453   1.741
14653W        W79638  23.158  17.296   3.466
14654W        W79639  21.098   5.936   0.501
14655W        W79640  16.882  32.454   0.789
14656W        W79641  38.879   7.691   1.487
14657W        W79642  24.251  16.172  11.952
14658W        W79643  29.637  34.558   1.009
14659W        W79644   6.207  38.811   4.069
14660W        W79645  38.320  33.982  13.743
14661W        W79646  29.202  41.874  12.071
14662W        W79647  42.935  26.891   2.275
14663W        W79648  14.208  37.113  11.194
14664W        W79649   1.498  17.078  13.982
14665W        W79650  32.120  26.584  11.626
14666W        W79651  21.259  24.971   4.772
14667W        W79652  42.494  39.422  11.851
14668W        W79653  39.016  33.670   3.343
14669W        W79654  29.484  14.689  14.382
14670W        W79655   2.192  27.676   0.880
14671W        W79656  37.876   0.299  14.101
14672W        W79657  31.150  40.902   1.383
14673W        W79658  20.246  18.928   0.686
14674W        W79659  35.576  43.300   1.764
14675W        W79660  26.965  26.738   1.238
14676W        W79661  39.440  18.771   0.344
14677W        W79662  26.713   2.260  12.435
14678W        W79663  22.136   6.784  10.671
14679W        W79664  30.324  35.071   1.304
14680W        W79665   1.854  33.171  14.121
14681W        W79666  17.048   9.026   4.482
14682W        W79667  32.030  33.385  12.504
14683W        W79668  28.634  29.636   3.757
14684W        W79669   6.454  31.032   4.673
14685W        W79670   1.888  34.707  14.945
14686W        W79671   0.255   4.788  14.893
14687W        W79672  19.059  35.422  14.385
14688W        W79673  11.777   5.405  10.822
14689W        W79674  26.484  24.662   4.349
14690W        W79675  15.038  21.365   4.918
14691W        W79676   0.366  17.475  11.633
14692W        W79677  41.448  20.237   4.132
14693W        W79678   4.392  19.024  11.497
14694W        W79679  18.013  25.967  13.468
14695W        W79680   5.155   0.755  12.946
14696W        W79681  10.730  22.596   3.791
14697W        W79682  19.192  30.905  12.525
14698W        W79683  28.096  33.427  13.964
14699W        W79684  27.907  36.149   2.896
14700W        W79685  26.653  16.504   2.250
14701W        W79686   3.743  21.531  12.878
14702W        W79687   4.046   5.885  13.090
14703W        W79688   0.244   3.484   2.350
14704W        W79689  28.395  14.901   0.855
14705W        W79690  17.868  33.911  13.878
14706W        W79691  25.956   0.837  14.032
14707W        W79692  36.310  44.712   0.083
14708W        W79693  18.985  13.906  12.746
14709W        W79694  36.088   3.309   2.284
14710W        W79695   1.202  38.843  14.972
14711W        W79696  26.849   1.555  14.370
14712W        W79697  19.618  29.102   3.555
14713W        W79698  31.743  13.911   3.124
14714W        W79699  13.301  39.597   2.238
14715W        W79700  38.747   6.939   4.605
14716W        W79701  14.946  16.283   1.259
14717W        W79702  41.580  23.513   0.306
14718W        W79703  38.584  15.820  14.890
14719W        W79704  28.130  43.064  10.157
14720W        W79705  22.416  36.477   0.969
14721W        W79706  21.762  11.292  14.263
14722W        W79707  21.468  23.010  13.412
14723W        W79708  27.457  35.579   0.731
14724W        W79709  29.594  10.249   0.260
14725W        W79710  21.665  20.530  10.740
14726W        W79711  31.825  34.969   1.167
14727W        W79712  22.137  38.395  12.423
14728W        W79713  42.328   4.461   3.090
14729W        W79714  39.442  35.642  11.721
14730W        W79715  37.647   7.291  11.569
14731W        W79716  29.424  12.430  10.333
14732W        W79717  22.191  39.636   4.511
14733W        W79718  35.218  33.267  12.145
14734W        W79719  35.124  29.705   1.447
14735W        W79720   3.275  42.339   2.122
14736W        W79721  40.449  14.372  12.559
14737W        W79722  22.753   3.810  13.404
14738W        W79723   5.953  34.433   4.157
14739W        W79724  41.392   3.125   3.276
14740W        W79725  13.433  25.069   2.426
14741W        W79726  23.225  36.015  13.075
14742W        W79727  31.916  11.537   2.728
14743W        W79728   1.147  18.259  11.181
14744W        W79729  10.693  41.413  14.865
14745W        W79730  14.608  24.859   2.383
14746W        W79731  10.375  25.532   2.208
14747W        W79732  37.433  25.193   4.317
14748W        W79733  17.842  26.090   1.734
14749W        W79734  27.224  25.380   3.891
14750W        W79735  15.494  23.628   1.880
14751W        W79736  43.618  14.843   1.004
14752W        W79737  39.487  25.054   1.445
14753W        W79738  34.187  36.237  14.365
14754W        W79739  38.838  26.232  11.982
14755W        W79740  36.399  20.707   3.235
14756W        W79741  42.798  39.096   3.611
14757W        W79742  16.289  23.002   0.391
14758W        W79743  36.367  13.722   2.409
14759W        W79744  17.064  17.045  10.325
14760W        W79745  40.332  10.101  10.984
14761W        W79746  28.252  43.021   2.798
14762W        W79747  14.376  37.825   0.098
14763W        W79748  11.415  43.005  11.429
14764W        W79749  18.577  43.492   4.629
14765W        W79750  25.152  13.166   4.607
14766W        W79751  41.731   8.648  14.329
14767W        W79752  24.621   4.740  11.953
14768W        W79753  10.407  11.833  13.848
14769W        W79754  12.606  34.460  14.923
14770W        W79755  14.199  14.037   2.750
14771W        W79756   7.079  19.294  13.838
14772W        W79757  42.035  22.549   0.303
14773W        W79758  14.142  36.852  11.644
14774W        W79759  28.667  23.719   3.233
14775W        W79760  12.393  20.576  10.688
14776W        W79761  35.150  35.139  14.717
14777W        W79762   2.650  36.503   4.002
14778W        W79763  27.905   0.858  13.645
14779W        W79764   6.922   0.508   2.759
14780W        W79765   7.896  35.307  14.906
14781W        W79766  33.487   1.100   4.522
14782W        W79767  29.427  19.048   2.883
14783W        W79768  40.331   4.502   0.914
14784W        W79769  33.416  31.874  12.277
14785W        W79770  24.838  28.655  10.920
14786W        W79771  15.115  21.941   4.837
14787W        W79772  25.184  21.571   0.173
14788W        W79773  25.151  21.157   3.793
14789W        W79774  33.891   6.019  14.989
14790W        W79775   7.436   7.355  11.906
14791W        W79776   0.081  14.778   2.167
14792W        W79777  39.033  39.589   0.684
14793W        W79778  40.904  36.113  13.672
14794W        W79779  23.766   6.221  13.785
14795W        W79780  33.190  14.823   1.925
14796W        W79781  41.116  23.720  12.024
14797W        W79782  41.507  38.992   4.184
14798W        W79783  19.052  10.342   1.664
14799W        W79784  33.996  29.073  10.701
14800W        W79785  15.351   9.148   3.967
14801W        W79786  34.482  26.215   0.977
14802W        W79787  43.205  12.874   5.071
14803W        W79788  40.691   5.061  11.214
14804W        W79789  36.589  31.048   2.179
14805W        W79790  31.083  14.853  10.923
14806W        W79791  35.592  12.632   4.538
14807W        W79792  34.784  38.864   4.169
14808W        W79793  14.714   2.655  11.600
14809W        W79794  11.258  25.008   1.664
14810W        W79795  13.593  11.089   3.660
14811W        W79796  31.607   4.779  10.066
14812W        W79797  15.772   1.066  11.606
14813W        W79798  34.667  29.517  12.485
14814W        W79799  26.023  33.095   9.916
14815W        W79800  44.968  14.191  14.948
14816W        W79801  18.803  40.432  12.048
14817W        W79802   1.467  23.542  10.685
14818W        W79803  12.182  32.882  14.039
14819W        W79804   7.847  34.584   0.960
14820W        W79805  31.038  28.929  11.165
14821W        W79806  30.542  29.476   3.619
14822W        W79807  10.342  18.399  13.527
14823W        W79808  29.553  12.748   2.786
14824W        W79809  20.068  14.386  11.182
14825W        W79810   7.820   3.355  11.423
14826W        W79811  17.077  30.095  12.149
14827W        W79812  27.190  29.800  14.002
14828W        W79813   6.312  13.610  10.728
14829W        W79814   9.168  12.667   3.839
14830W        W79815  33.510  24.649   1.616
14831W        W79816  15.720  44.662  10.783
14832W        W79817  28.538  43.458   2.716
14833W        W79818   5.197  24.716  11.150
14834W        W79819  36.060  22.280  13.365
14835W        W79820   6.940  29.085   1.498
14836W        W79821  16.557  33.544  12.140
14837W        W79822  41.209  11.514   3.802
14838W        W79823  15.692  40.827  10.760
14839W        W79824  20.637  31.439  14.491
14840W        W79825  16.813  30.383   1.963
14841W        W79826  19.782  30.416  11.465
14842W        W79827  10.417  16.351  14.823
14843W        W79828   0.258   7.801   1.577
14844W        W79829  15.615  28.415   1.687
14845W        W79830  20.567   5.244   3.773
14846W        W79831  15.077  15.859   0.818
14847W        W79832  22.101  40.496  14.553
14848W        W79833  36.093  25.566   1.250
14849W        W79834  33.305  37.547  13.397
14850W        W79835  15.710  16.106  11.227
14851W        W79836  27.469  32.137   4.839
14852W        W79837  16.636   0.933   0.535
14853W        W79838  35.669  31.039  11.075
14854W        W79839   7.607  13.778   3.665
14855W        W79840  44.333   8.500   4.367
14856W        W79841   0.071   2.411   4.257
14857W        W79842  42.007  25.115   2.553
14858W        W79843   5.324   4.293  12.020
14859W        W79844  25.276   7.736   4.006
14860W        W79845  15.173  30.450   3.617
14861W        W79846  44.182   6.758  11.579
14862W        W79847  36.443  23.074  11.671
14863W        W79848   5.963  21.525  12.780
14864W        W79849  11.179  20.591  12.699
14865W        W79850  25.726  26.716   3.245
14866W        W79851  36.491  36.685   2.114
14867W        W79852  25.952  15.080  13.998
14868W        W79853   7.421  15.128   3.288
14869W        W79854   0.440  12.259  12.549
14870W        W79855  41.356  11.260  11.580
14871W        W79856  14.416   2.722   4.082
14872W        W79857  27.215  25.117  11.682
14873W        W79858  26.492  42.837  14.741
14874W        W79859   6.685  25.491  12.814
14875W        W79860  14.383   1.678  14.703
14876W        W79861  14.751   3.670   3.231
14877W        W79862  22.025  31.483  13.424
14878W        W79863  31.871  25.264   2.297
14879W        W79864  33.010  23.727   2.783
14880W        W79865  18.322  20.268  10.611
14881W        W79866  21.259  16.209  12.512
14882W        W79867  22.543  17.022   2.721
14883W        W79868   2.009  14.568  12.524
14884W        W79869  31.122   4.156   0.460
14885W        W79870  15.119  15.482  11.904
14886W        W79871  36.409  10.178  12.446
14887W        W79872  22.509  12.255  11.148
14888W        W79873  21.044  34.062   3.152
14889W        W79874  24.511   6.969  11.398
14890W        W79875  37.471  26.995  12.477
14891W        W79876   1.564  24.416  11.218
14892W        W79877  12.310   9.454   4.603
14893W        W79878   1.421   3.567   0.851
14894W        W79879  36.621  29.991   1.877
14895W        W79880  30.980  20.550  13.144
14896W        W79881  29.565  24.141  14.517
14897W        W79882  31.910   9.401   4.214
14898W        W79883  21.759  39.452   4.874
14899W        W79884  40.917  29.400  10.973
14900W        W79885  19.496  17.576   0.004
14901W        W79886   4.888   9.297   1.278
14902W        W79887  14.066  21.209   3.751
14903W        W79888  22.895  26.236  14.467
14904W        W79889   4.963  35.036   4.909
14905W        W79890  16.622  31.422  11.941
14906W        W79891  33.885  29.595  10.806
14907W        W79892   2.923   4.688  10.919
14908W        W79893  27.742  22.448  12.823
14909W        W79894  15.762  11.847   2.629
14910W        W79895  14.823  31.887   2.646
14911W        W79896  35.570  14.863   2.344
14912W        W79897  21.223  40.453  14.047
14913W        W79898  21.129  30.914   0.853
14914W        W79899   4.797  13.830   4.413
14915W        W79900  24.181  11.633   0.941
14916W        W79901   1.912   7.895  13.476
14917W        W79902  11.201  23.782  14.762
14918W        W79903  15.714  41.616   4.026
14919W        W79904  15.077  18.756  14.529
14920W        W79905  29.530  38.481   4.602
14921W        W79906  17.220  14.026   0.972
14922W        W79907   6.730  38.384   0.678
14923W        W79908  35.092  17.772  11.583
14924W        W79909  18.275  20.881  14.098
14925W        W79910   0.290  20.696  12.942
14926W        W79911  23.737  39.392  12.938
14927W        W79912  11.874  30.999  11.210
14928W        W79913  43.641  24.577  12.319
14929W        W79914  36.075  25.972   3.776
14930W        W79915  33.994  36.832  14.957
14931W        W79916  11.224  16.490  11.181
14932W        W79917  16.851  26.680   2.881
14933W        W79918  44.075  24.959   0.423
14934W        W79919  11.007  22.200  11.464
14935W        W79920  17.268  14.296  11.611
14936W        W79921  40.551   1.736  13.888
14937W        W79922  41.096  11.627   1.294
14938W        W79923  14.800  16.114   4.278
14939W        W79924   0.288   6.476   1.313
14940W        W79925  43.742  38.061   1.155
14941W        W79926  31.833  11.665  10.426
14942W        W79927  16.326  19.256   3.390
14943W        W79928   8.842  17.064  14.817
14944W        W79929   7.851  25.803  10.736
14945W        W79930   5.699  17.879   3.741
14946W        W79931  38.901  27.089  14.020
14947W        W79932  33.950  15.275   1.841
14948W        W79933  12.526   0.710  12.506
14949W        W79934  10.924  37.918   3.698
14950W        W79935  36.388  21.969   3.661
14951W        W79936   9.371  13.374   1.244
14952W        W79937  36.659  34.987  10.512
14953W        W79938  20.537  34.856  12.152
14954W        W79939  39.914  43.330  14.460
14955W        W79940  38.290  10.126   2.407
14956W        W79941  40.477   6.907   0.894
14957W        W79942  44.801  26.590  10.199
14958W        W79943   5.376  37.176  11.077
14959W        W79944  39.634  26.741   1.490
14960W        W79945  39.432  40.898   3.447
14961W        W79946  10.276   6.012   4.962
14962W        W79947  30.554  17.152  13.473
14963W        W79948  30.834  44.475  10.041
14964W        W79949  42.156  35.984   3.223
14965W        W79950  22.006  14.787   1.382
14966W        W79951  42.071  25.049  12.934
14967W        W79952  15.297  44.236   4.506
14968W        W79953   3.870  27.693   3.162
14969W        W79954  25.535   9.835   0.350
14970W        W79955  33.701  19.886   4.993
14971W        W79956   9.252  26.573  10.692
14972W        W79957   9.849  34.439   4.116
14973W        W79958  31.268   0.953   4.182
14974W        W79959  25.604  40.592   1.765
14975W        W79960   0.486  38.952   0.655
14976W        W79961   2.929  29.475   0.778
14977W        W79962  29.527  21.327  13.933
14978W        W79963  36.536  11.636  11.004
14979W        W79964  20.896   0.054  14.344
14980W        W79965  41.419  12.119   4.785
14981W        W79966  40.515  44.915  12.235
14982W        W79967  41.976  34.163   0.579
14983W        W79968  10.330  13.363   4.844
14984W        W79969   6.328  18.253   5.147
14985W        W79970  28.709  43.579   1.271
14986W        W79971  11.789  37.860  10.691
14987W        W79972  32.483  22.635  14.965
14988W        W79973  38.019  21.634  12.994
14989W        W79974  10.203  42.252   2.977
14990W        W79975   1.664   0.348  11.721
14991W        W79976  12.792  12.280  14.474
14992W        W79977  29.655   5.895  11.163
14993W        W79978  14.290  10.216   2.479
14994W        W79979  43.503  16.637   3.171
14995W        W79980  34.014  30.578  14.331
14996W        W79981  11.688   2.849  12.581
14997W        W79982  31.934  37.506  11.224
14998W        W79983  13.209  11.436  12.087
14999W        W79984  40.607  24.646  13.427
15000W        W79985  23.261  25.574   1.221
15001W        W79986  40.057   0.391   5.011
15002W        W79987   1.291  41.523  13.874
15003W        W79988  37.423   9.615   2.405
15004W        W79989  12.392   6.696   0.045
15005W        W79990  11.198  18.840  13.519
15006W        W79991  43.276  19.702  11.132
15007W        W79992   4.404  12.064   1.354
15008W        W79993  12.860  21.790  14.348
15009W        W79994   1.070   1.703  14.786
15010W        W79995   5.350  37.795  13.584
15011W        W79996   3.853  29.300   4.563
15012W        W79997  12.829   0.875  13.851
15013W        W79998  41.289  42.099  14.647
15014W        W79999  23.098   3.381   4.282
15015W        W80000  41.952  41.581   1.678
15016W        W80001  35.108  32.766   1.036
15017W        W80002   5.151   4.266  14.809
15018W        W80003  13.796  12.588  13.362
15019W        W80004  22.127   7.459   4.937
15020W        W80005  37.066  36.860  12.439
15021W        W80006  16.807  41.346  11.680
15022W        W80007  20.069  21.483  12.415
15023W        W80008  29.535  30.603  10.588
15024W        W80009  35.947  37.227  10.759
15025W        W80010  21.011  19.300   2.276
15026W        W80011  22.667  23.559   2.258
15027W        W80012  40.544  20.175   1.221
15028W        W80013  37.091  23.110   2.190
15029W        W80014  25.540   6.065   3.740
15030W        W80015   5.594  42.596  11.134
15031W        W80016  26.073  36.222  12.061
15032W        W80017  36.042  31.411   1.908
15033W        W80018  39.731  21.972   4.513
15034W        W80019  36.448   4.325  11.477
15035W        W80020  10.263   2.483   2.732
15036W        W80021  39.834  14.463  10.848
15037W        W80022  35.353   1.788  11.863
15038W        W80023   0.182   7.982  14.233
15039W        W80024  35.710   9.814  10.420
15040W        W80025   2.141  37.839   3.370
15041W        W80026  42.362  31.537  12.093
15042W        W80027  23.115  22.416  11.006
15043W        W80028  42.041  43.375   4.522
15044W        W80029   1.979  35.571   0.976
15045W        W80030  27.943  11.148   3.263
15046W        W80031   7.726  35.576  13.469
15047W        W80032  42.623  13.323  13.240
15048W        W80033   0.638  35.115   0.881
15049W        W80034  17.603  43.551  14.042
15050W        W80035   5.747  30.881  11.546
15051W        W80036  33.115  15.580  14.433
15052W        W80037   5.332  42.845  12.534
15053W        W80038  26.460  37.822  11.372
15054W        W80039  32.999  44.892  13.104
15055W        W80040  43.727  12.310  12.984
15056W        W80041  42.237  34.451   1.914
15057W        W80042  24.306  21.055   2.795
15058W        W80043  37.305  26.499   3.731
15059W        W80044  20.546   9.985   1.113
15060W        W80045  26.888  37.502  14.790
15061W        W80046  33.161  28.847  12.906
15062W        W80047  22.753   8.723  13.546
15063W        W80048  25.649  36.383   1.227
15064W        W80049   0.274  44.560   2.267
15065W        W80050  38.876   8.223  13.388
15066W        W80051  27.638  28.877  11.492
15067W        W80052  31.060  33.851  13.243
15068W        W80053  24.247  26.136  11.596
15069W        W80054  17.753  12.894  11.538
15070W        W80055   0.467   9.642  11.150
15071W        W80056  44.481  20.624  12.621
15072W        W80057  40.899  29.396  13.273
15073W        W80058  25.473  23.730  12.374
15074W        W80059  16.112   2.863   1.022
15075W        W80060  27.908  14.733  12.073
15076W        W80061  39.868  31.701  10.029
15077W        W80062  21.092  32.336  11.146
15078W        W80063   7.971   2.955   4.182
15079W        W80064  40.090  18.799  14.056
15080W        W80065  22.559  40.530   3.081
15081W        W80066  37.548  37.465  13.025
15082W        W80067  30.983  30.936  13.090
15083W        W80068  17.283  43.042   4.279
15084W        W80069   4.984  25.143   4.293
15085W        W80070   2.979  24.031  12.080
15086W        W80071   3.073  14.540   1.158
15087W        W80072  29.021  13.897  13.460
15088W        W80073  38.738   4.169  12.874
15089W        W80074  25.237   0.789   1.043
15090W        W80075  37.761  37.913  12.792
15091W        W80076  42.557   4.865  11.641
15092W        W80077   3.935  37.828   3.713
15093W        W80078  38.717  38.887  11.100
15094W        W80079  34.918  32.906  11.448
15095W        W80080   6.302   7.884  11.125
15096W        W80081   7.381  28.064   3.103
15097W        W80082  15.051  10.107   3.133
15098W        W80083  37.189   9.851   5.312
15099W        W80084  41.242  39.951  14.183
15100W        W80085  34.205  17.876   4.926
15101W        W80086   1.838   9.336  13.847
15102W        W80087  17.509  34.134  10.341
15103W        W80088   3.488  19.415   4.605
15104W        W80089  25.455  10.095  12.995
15105W        W80090  26.735  38.373   2.318
15106W        W80091  42.457   8.687  13.830
15107W        W80092   0.699  32.754   0.877
15108W        W80093  22.700  10.390  11.410
15109W        W80094   4.816  21.942   2.168
15110W        W80095  39.696   4.312  12.550
15111W        W80096  23.025  27.484  11.946
15112W        W80097  42.901  31.912  11.633
15113W        W80098   8.735  22.155   0.923
15114W        W80099   5.703  33.553   2.142
15115W        W80100   7.246  24.766   1.713
15116W        W80101  11.382  31.059   3.377
15117W        W80102  34.560  27.457   1.422
15118W        W80103  27.213  34.599  10.919
15119W        W80104  17.186  30.923   1.991
15120W        W80105  36.580   5.489  12.139
15121W        W80106   4.782   1.673  13.354
15122W        W80107  35.668  13.213   1.466
15123W        W80108  14.808  30.469  14.305
15124W        W80109  27.418   8.269  12.569
15125W        W80110  41.098  36.692   4.448
15126W        W80111  28.691  31.961  13.335
15127W        W80112  15.720  30.380  12.154
15128W        W80113  11.261   4.947   1.017
15129W        W80114  17.537  31.168  11.946
15130W        W80115  42.364   6.726  12.315
15131W        W80116   5.058  33.554  14.205
15132W        W80117  29.983  35.242  14.457
15133W        W80118  25.708  34.061   3.852
15134W        W80119  23.062  12.015  10.636
15135W        W80120  43.447  19.023   0.733
15136W        W80121  24.710  42.413   0.881
15137W        W80122  29.144   3.934  11.124
15138W        W80123  40.993   3.438   4.268
15139W        W80124   7.985  41.819   0.039
15140W        W80125  40.445   6.442   4.503
15141W        W80126  33.990  29.438   2.296
15142W        W80127   8.743  39.283  12.469
15143W        W80128  36.265  13.895   0.926
15144W        W80129   6.976  35.162  13.180
15145W        W80130  21.246  29.365  11.957
15146W        W80131  24.183  16.089   0.893
15147W        W80132  28.458  32.395   1.282
15148W        W80133  40.121  20.232  11.751
15149W        W80134  31.811  39.198  13.482
15150W        W80135  25.215  40.516   2.741
15151W        W80136  34.612  38.524   1.884
15152W        W80137  14.335  42.224  12.579
15153W        W80138  18.638   6.831   1.604
15154W        W80139  34.409  18.594  12.796
15155W        W80140  37.017  32.930   3.659
15156W        W80141  31.415  19.597  13.782
15157W        W80142   2.841  33.416   0.722
15158W        W80143  20.171  27.396  12.855
15159W        W80144  38.139  25.211  14.857
15160W        W80145  43.426  33.927   3.625
15161W        W80146  34.571  32.135   5.072
15162W        W80147  13.561  14.091   4.157
15163W        W80148   3.191  32.359  12.476
15164W        W80149   3.895   5.438  10.652
15165W        W80150  13.976  39.660  10.986
15166W        W80151   8.220   0.258   2.758
15167W        W80152  26.924  27.980  14.395
15168W        W80153  39.035   0.315   2.415
15169W        W80154   4.204  15.157  14.291
15170W        W80155  34.671   3.857   3.893
15171W        W80156  18.904  16.042  12.643
15172W        W80157  34.047  41.950  11.030
15173W        W80158  36.934   9.167   3.254
15174W        W80159  44.500   1.324  13.768
15175W        W80160   5.702  32.004   2.909
15176W        W80161   5.502  42.852   2.696
15177W        W80162   0.456  15.219  13.997
15178W        W80163  32.375  19.188   2.776
15179W        W80164  34.277  23.489  11.599
15180W        W80165  12.488   7.676  14.782
15181W        W80166  29.904  33.075   3.595
15182W        W80167   9.323  13.318   3.066
15183W        W80168  26.236  19.265  12.473
15184W        W80169  31.065  21.184   1.746
15185W        W80170   6.140  32.930   0.499
15186W        W80171  42.533  27.619   0.824
15187W        W80172  39.707  29.055   0.054
15188W        W80173  23.254  19.184  13.533
15189W        W80174  13.324  26.223  11.874
15190W        W80175  20.669  34.377  13.292
15191W        W80176  41.522  43.275  11.176
15192W        W80177  12.638  30.840   0.889
15193W        W80178  42.882   5.292  10.725
15194W        W80179  29.023  22.737  10.613
15195W        W80180  43.621  33.922  11.581
15196W        W80181  38.967   8.398   3.250
15197W        W80182  44.718  24.324   4.112
15198W        W80183   8.473  28.588   3.276
15199W        W80184  41.810  32.739  12.092
15200W        W80185  43.992  41.828  14.278
15201W        W80186  28.556  29.848  13.937
15202W        W80187  39.462  41.937   1.924
15203W        W80188  12.154  37.345  10.933
15204W        W80189   7.403   6.362   0.240
15205W        W80190   1.238   0.941  14.343
15206W        W80191  40.452  27.092  12.493
15207W        W80192   9.331  42.185  14.799
15208W        W80193  32.948  13.560   1.670
15209W        W80194   5.524   2.706   3.310
15210W        W80195  19.061  32.845  11.161
15211W        W80196   6.401  35.034   4.645
15212W        W80197   2.857  34.281   3.568
15213W        W80198  27.471  40.598   2.699
15214W        W80199   4.431  39.843   0.351
15215W        W80200  34.771  27.849  14.983
15216W        W80201  38.437  20.283  11.135
15217W        W80202  13.252  22.339   2.224
15218W        W80203  34.474  12.212   1.309
15219W        W80204  28.496  36.162   0.100
15220W        W80205  20.335  25.888  14.308
15221W        W80206  33.401  39.856  11.857
15222W        W80207  22.887  27.128   3.232
15223W        W80208  28.563  37.379   3.678
15224W        W80209  24.438  27.266   1.402
15225W        W80210  26.536  14.126  13.951
15226W        W80211  31.992  35.366  13.402
15227W        W80212   8.929  36.482   0.325
15228W        W80213   5.389   6.903   1.339
15229W        W80214   3.481  29.715  10.753
15230W        W80215  43.758  15.348   3.052
15231W        W80216  20.574  37.955   2.685
15232W        W80217   1.999  29.426  10.773
15233W        W80218   9.321  30.733   4.781
15234W        W80219  41.877  18.580   1.472
15235W        W80220   9.252  38.125  12.622
15236W        W80221   0.220  25.727  14.801
15237W        W80222   8.391  39.963  12.375
15238W        W80223  38.876  20.299   1.481
15239W        W80224   8.479  29.388  14.039
15240W        W80225   3.210  19.064   3.609
15241W        W80226  26.805  34.334  10.724
15242W        W80227  16.820  23.020   1.941
15243W        W80228  12.374   4.412   2.239
15244W        W80229  38.035  28.551   3.255
15245W        W80230  20.568   2.092   3.701
15246W        W80231  28.401   8.219   2.335
15247W        W80232  16.374   6.301   3.920
15248W        W80233  44.356  21.008  11.346
15249W        W80234  39.876  29.935   3.828
15250W        W80235   4.800  22.683   1.773
15251W        W80236  35.135   4.259   0.793
15252W        W80237   1.792  20.199  11.048
15253W        W80238  17.875  25.788  11.012
15254W        W80239  37.513  30.921   4.151
15255W        W80240  26.263  13.742   2.245
15256W        W80241   0.459  39.300  13.840
15257W        W80242   6.069  36.878   3.606
15258W        W80243  23.705  44.726  13.942
15259W        W80244  13.171  23.280   1.314
15260W        W80245   7.850  37.200   4.493
15261W        W80246   1.965   9.862   1.425
15262W        W80247  29.808  37.151  13.278
15263W        W80248  11.668   3.287  14.067
15264W        W80249  43.518  20.878  10.729
15265W        W80250  12.801   1.336   3.560
15266W        W80251  30.860  43.537  12.993
15267W        W80252  35.374  11.226  13.420
15268W        W80253  29.427   2.191   0.825
15269W        W80254  40.877  17.179   1.629
15270W        W80255  44.796  27.518  13.762
15271W        W80256  25.835  43.501  14.955
15272W        W80257  10.614  18.759   2.755
15273W        W80258  43.188   8.971   4.168
15274W        W80259  22.050  30.470  12.744
15275W        W80260  28.357   7.341  13.313
15276W        W80261  23.607  37.605  13.380
15277W        W80262  19.088  13.155   0.931
15278W        W80263   1.517  36.526  13.794
15279W        W80264  17.835  11.197  12.899
15280W        W80265  43.330   2.720   3.379
15281W        W80266   8.850   7.254  13.540
15282W        W80267  21.427   8.337   0.869
15283W        W80268  44.853   0.514   3.777
15284W        W80269  33.903  35.049  11.277
15285W        W80270   4.414  18.169   2.905
15286W        W80271  42.216  12.189  13.365
15287W        W80272  41.487  37.071   4.302
15288W        W80273   2.823  33.675  11.990
15289W        W80274  43.171  29.711   1.578
15290W        W80275   8.800  22.226  13.051
15291W        W80276  44.735  40.582  14.834
15292W        W80277   4.818  12.159   1.768
15293W        W80278  11.824  36.535   2.311
15294W        W80279  18.007   2.277  11.598
15295W        W80280  13.869  38.035  10.681
15296W        W80281  40.263   6.411   0.946
15297W        W80282  19.647   8.561  11.799
15298W        W80283  22.191  32.475   1.708
15299W        W80284  27.672  29.506   2.752
15300W        W80285  39.609   8.503  11.622
15301W        W80286  15.304  37.618   2.824
15302W        W80287  13.640  33.703  12.969
15303W        W80288  11.148  31.661   2.481
15304W        W80289  37.793   1.867   4.651
15305W        W80290  28.853  27.610  10.575
15306W        W80291  13.927  42.199  14.091
15307W        W80292  14.241   2.205  13.823
15308W        W80293  23.666  40.344  12.536
15309W        W80294   0.277  11.955   0.859
15310W        W80295  37.947   8.666   0.972
15311W        W80296  18.454  44.133   2.401
15312W        W80297  20.123  12.845  13.354
15313W        W80298   6.529  25.571   4.850
15314W        W80299  32.326  43.902   4.038
15315W        W80300  33.409  13.659  10.584
15316W        W80301  26.450  33.252  13.544
15317W        W80302   1.388  34.048  14.073
15318W        W80303  12.447  15.383   1.930
15319W        W80304  25.163  16.599  13.357
15320W        W80305   5.815  11.150  11.175
15321W        W80306  37.601  39.390  11.883
15322W        W80307  37.542   5.200  13.799
15323W        W80308   7.416  15.335   0.988
15324W        W80309  21.513  26.198  10.976
15325W        W80310  22.801  24.979   5.032
15326W        W80311  15.767  40.325   3.586
15327W        W80312  11.734  31.124   0.005
15328W        W80313  20.383  40.065   3.311
15329W        W80314  26.408  29.992  10.642
15330W        W80315  15.762   8.384   0.604
15331W        W80316  25.936  28.078   0.882
15332W        W80317  40.920  32.724  10.182
15333W        W80318  35.520  44.971   3.686
15334W        W80319  11.684  37.495   4.045
15335W        W80320   9.890   0.319   0.662
15336W        W80321  19.573  20.118   3.170
15337W        W80322   2.008  31.426   2.834
15338W        W80323  10.929  44.233   2.284
15339W        W80324  30.020  11.662  12.041
15340W        W80325   4.366  29.886   1.929
15341W        W80326  32.894   0.269  14.667
15342W        W80327  41.807   6.758  13.517
15343W        W80328  34.647  28.038  12.079
15344W        W80329   2.854   3.359  14.561
15345W        W80330  18.054  40.954  13.509
15346W        W80331  24.939   9.143  11.932
15347W        W80332  40.961  28.294  10.128
15348W        W80333  40.017  31.432  13.441
15349W        W80334  43.281  10.343  12.543
15350W        W80335  43.103  31.060   2.389
15351W        W80336  39.559   2.909  12.183
15352W        W80337  26.678   5.256  10.421
15353W        W80338   5.802   0.771   3.852
15354W        W80339  33.037  27.765  10.805
15355W        W80340  26.464  32.592   1.727
15356W        W80341  27.001  33.415   4.128
15357W        W80342  18.442  44.095  12.419
15358W        W80343  34.361  22.108   4.157
15359W        W80344  27.211   2.274  12.498
15360W        W80345  13.324  34.691  14.424
15361W        W80346  22.131  18.288  13.011
15362W        W80347   1.059  30.583  14.773
15363W        W80348  35.305  20.583   0.842
15364W        W80349  17.100  23.711  10.675
15365W        W80350  11.654  11.287   1.945
15366W        W80351  38.042  18.563  13.971
15367W        W80352  10.817  37.154  13.947
15368W        W80353  26.960  20.287   1.912
15369W        W80354  35.723  36.286   4.844
15370W        W80355  29.019  36.391  13.983
15371W        W80356  30.157  20.570  11.508
15372W        W80357   1.773   0.347  13.615
15373W        W80358   4.359   4.433  14.343
15374W        W80359  10.716   4.249  13.022
15375W        W80360  31.398  28.741   1.843
15376W        W80361  15.508   2.845  13.653
15377W        W80362  37.123   1.984  11.089
15378W        W80363  17.007  11.777   2.306
15379W        W80364  17.786   5.729  13.501
15380W        W80365  42.758  11.643  12.995
15381W        W80366  18.083  36.858  11.409
15382W        W80367   2.622  35.096   4.977
15383W        W80368  17.584  17.518   1.851
15384W        W80369  36.549  42.340   0.352
15385W        W80370  12.372  43.291   2.335
15386W        W80371  11.712   3.067  13.510
15387W        W80372  11.164  22.463   1.382
15388W        W80373  21.251  30.902   4.161
15389W        W80374  19.504  35.325  13.503
15390W        W80375  35.139  13.759   4.201
15391W        W80376  20.198   4.448  11.621
15392W        W80377  17.870  12.653   1.418
15393W        W80378  42.869  28.630  11.599
15394W        W80379  43.003  27.072  13.455
15395W        W80380  26.213  25.202   2.213
15396W        W80381   7.835  24.358   4.680
15397W        W80382  18.505   0.469   4.754
15398W        W80383  36.348  33.480  14.774
15399W        W80384  33.886  22.294   0.695
15400W        W80385  39.270  39.509  11.730
15401W        W80386  31.504  33.082   2.405
15402W        W80387  17.114  38.574  11.115
15403W        W80388  10.171  18.233   1.490
15404W        W80389  43.916  30.346   3.036
15405W        W80390  10.775  21.080  12.004
15406W        W80391   6.058  23.068   4.694
15407W        W80392  19.930  15.550   1.422
15408W        W80393  35.078  10.381  14.223
15409W        W80394  14.854  23.598   3.778
15410W        W80395  30.049  22.596  13.886
15411W        W80396  40.006  23.076   3.336
15412W        W80397  34.181  34.902  14.743
15413W        W80398   3.206  28.048   1.259
15414W        W80399  14.309  13.285   0.360
15415W        W80400  38.189  33.955  11.952
15416W        W80401   1.795   4.747  14.486
15417W        W80402  13.673   2.669   0.486
15418W        W80403   1.311  20.253  11.773
15419W        W80404  39.977   5.024   4.620
15420W        W80405   0.578  34.039  14.444
15421W        W80406  24.972  18.063   1.293
15422W        W80407   5.913  15.520  14.661
15423W        W80408   7.254  28.937   4.385
15424W        W80409  42.999  32.437   3.207
15425W        W80410   7.493  41.107  13.255
15426W        W80411  16.526  42.917  11.240
15427W        W80412  12.691  15.795  11.112
15428W        W80413  31.860   0.033   3.925
15429W        W80414  29.468  20.918   2.629
15430W        W80415  28.063  16.945  11.926
15431W        W80416  30.459  35.317   2.082
15432W        W80417  43.456  43.306   1.353
15433W        W80418  44.261  25.116  14.496
15434W        W80419  23.269  12.309  12.303
15435W        W80420   4.395   0.770   0.767
15436W        W80421  19.448  32.101   0.807
15437W        W80422  34.619   0.826  14.436
15438W        W80423  27.895  43.834  14.927
15439W        W80424   5.268  15.739   1.828
15440W        W80425  10.362  23.170   3.702
15441W        W80426  16.119  10.791   4.159
15442W        W80427  37.005  14.207  11.549
15443W        W80428  39.007  43.389   4.556
15444W        W80429  22.141  16.726  14.512
15445W        W80430  42.734   1.324  14.758
15446W        W80431  18.778  20.270   1.819
15447W        W80432  38.572  29.671   1.885
15448W        W80433  13.857  39.097  13.567
15449W        W80434  31.154  10.334  13.336
15450W        W80435  12.623  35.321   0.432
15451W        W80436  10.728  33.566  10.663
15452W        W80437  17.005  40.100  10.279
15453W        W80438  21.179  35.915  14.671
15454W        W80439   9.839  21.751   0.281
15455W        W80440  31.024  14.256  12.869
15456W        W80441   6.293  30.312   1.779
15457W        W80442   2.105  19.051  11.314
15458W        W80443   0.896  36.661   4.535
15459W        W80444  18.484  41.517  13.814
15460W        W80445  18.176   3.672  12.883
15461W        W80446   8.656   2.192  14.730
15462W        W80447  27.039  13.672   4.381
15463W        W80448  41.797  16.277   1.133
15464W        W80449  11.014  39.649   1.767
15465W        W80450  16.726   8.917   3.063
15466W        W80451  44.981  40.128  12.515
15467W        W80452  24.140   8.090   2.499
15468W        W80453  30.085  16.829   1.666
15469W        W80454  39.421   4.907  10.505
15470W        W80455  28.421   7.156   3.852
15471W        W80456  32.699   7.636   4.515
15472W        W80457  23.726   8.328   0.267
15473W        W80458   9.332  43.665  12.022
15474W        W80459  15.773   3.735  11.709
15475W        W80460   6.895  39.069  10.675
15476W        W80461  27.471  21.988  12.914
15477W        W80462  42.486  12.951  14.517
15478W        W80463  19.084  14.889   4.178
15479W        W80464  16.590  43.412  14.461
15480W        W80465  11.413  23.752  13.900
15481W        W80466  21.764  20.312  11.746
15482W        W80467  22.292  25.630   2.435
15483W        W80468  34.639  27.469   2.919
15484W        W80469  26.590  24.672  11.632
15485W        W80470  26.156   7.188  10.759
15486W        W80471  26.609  24.495  12.120
15487W        W80472  31.322  17.604   1.998
15488W        W80473  15.238  31.831   1.312
15489W        W80474  30.712  28.246  10.484
15490W        W80475  23.525   6.783  10.708
15491W        W80476  44.358   4.281   0.834
15492W        W80477  39.413   1.889   2.832
15493W        W80478  10.103  40.252   4.152
15494W        W80479  21.596  22.556  11.656
15495W        W80480  10.241  31.951  10.507
15496W        W80481  38.995  23.761   2.690
15497W        W80482   1.535  27.078  14.985
15498W        W80483   6.030  29.205   4.283
15499W        W80484  37.019  16.776   0.267
15500W        W80485   9.765   0.820   0.748
15501W        W80486   5.602  42.908   0.900
15502W        W80487  21.786   2.900   0.307
15503W        W80488   3.885  13.612   3.124
15504W        W80489  33.976  16.208   0.427
15505W        W80490  33.913   9.355   2.798
15506W        W80491  33.596  35.036  10.857
15507W        W80492  23.282  32.454   5.367
15508W        W80493  16.123  36.455  13.557
15509W        W80494  38.972  44.957   3.814
15510W        W80495   3.577  39.101   1.277
15511W        W80496  42.423  40.597   1.934
15512W        W80497  27.976  28.489   3.255
15513W        W80498  38.355  13.930   4.299
15514W        W80499  38.351   2.523   4.223
15515W        W80500   5.582  23.025  14.832
15516W        W80501  38.667  21.110  14.961
15517W        W80502  34.992  18.152  13.000
15518W        W80503   7.147  16.737   1.658
15519W        W80504  38.296  21.661  11.942
15520W        W80505   7.965  43.929   3.183
15521W        W80506  42.794  12.796   0.733
15522W        W80507  32.049  44.537   0.769
15523W        W80508  24.156  40.542  10.930
15524W        W80509  14.754  39.779   0.732
15525W        W80510  29.092  29.170  12.428
15526W        W80511  32.485  11.721  12.046
15527W        W80512  41.883  14.743   3.611
15528W        W80513  25.158  13.791   1.639
15529W        W80514  20.240  44.382   1.793
15530W        W80515  12.665  35.195  12.911
15531W        W80516  36.632  39.983   0.337
15532W        W80517   8.237  17.659  14.559
15533W        W80518  42.398   3.777   3.675
15534W        W80519  25.017   6.712   0.765
15535W        W80520  40.075  19.604   1.596
15536W        W80521   2.921  30.583  12.221
15537W        W80522  27.200  44.391  12.336
15538W        W80523  12.260  11.224  11.250
15539W        W80524  12.117  25.772  14.127
15540W        W80525  40.774  29.972   2.624
15541W        W80526   0.528  17.156   1.782
15542W        W80527  41.742  22.030   1.913
15543W        W80528  36.337  36.934   3.424
15544W        W80529  34.613  36.133   2.296
15545W        W80530   0.189  32.185  11.936
15546W        W80531  42.485  10.842  12.018
15547W        W80532  18.040  20.480   3.408
15548W        W80533  12.492  15.562  12.458
15549W        W80534  15.209  43.652  12.929
15550W        W80535  11.874  19.618   2.914
15551W        W80536   4.417  13.637   4.116
15552W        W80537  43.352  34.626  11.963
15553W        W80538  10.896  38.954  12.370
15554W        W80539  20.084   8.682   3.717
15555W        W80540  10.174   2.905  13.231
15556W        W80541   4.561  10.675   0.978
15557W        W80542   9.384  43.891  13.949
15558W        W80543  25.532   4.817  14.068
15559W        W80544   6.339  30.558   2.755
15560W        W80545   8.842  27.925  11.578
15561W        W80546  10.096   1.055  13.225
15562W        W80547  17.673   9.449  12.612
15563W        W80548   1.753  42.763   0.750
15564W        W80549  23.438  22.660  13.390
15565W        W80550  13.278  34.591  10.478
15566W        W80551  24.554  13.120  12.353
15567W        W80552  17.998  20.421  10.236
15568W        W80553  28.401  19.636  11.952
15569W        W80554  33.371  25.265   3.242
15570W        W80555  13.159  13.595  10.545
15571W        W80556  19.784  28.534  14.332
15572W        W80557  43.918  20.175   3.631
15573W        W80558  27.799  13.274   3.705
15574W        W80559  42.268   5.618   1.574
15575W        W80560  30.064  20.201  13.549
15576W        W80561  31.595  10.289  13.096
15577W        W80562  28.160  30.480  14.219
15578W        W80563   1.006  17.077  13.150
15579W        W80564  17.592  32.436  12.194
15580W        W80565  22.774  22.860  13.967
15581W        W80566  26.142  22.195  12.682
15582W        W80567  44.014   7.699  10.411
15583W        W80568  29.052  15.200  11.948
15584W        W80569  10.426  41.766   4.393
15585W        W80570  21.808  18.153   4.247
15586W        W80571  31.541  16.722   2.513
15587W        W80572  16.457  40.579  14.296
15588W        W80573  32.219   7.905  13.427
15589W        W80574  44.005  43.898   2.998
15590W        W80575  11.044  26.126  11.960
15591W        W80576  31.485  29.565   3.512
15592W        W80577   2.542  34.379  12.279
15593W        W80578  39.654   6.005  14.271
15594W        W80579  28.386  42.363   5.029
15595W        W80580  22.609  39.562   4.189
15596W        W80581  16.071  37.036  14.673
15597W        W80582  25.303  32.584   0.841
15598W        W80583  36.181  40.148  11.396
15599W        W80584  18.467  33.998  11.971
15600W        W80585  39.783  19.225  13.901
15601W        W80586  30.476  27.101  10.621
15602W        W80587   1.889  29.169   0.148
15603W        W80588   4.746  43.266   3.704
15604W        W80589  25.179  16.802  12.014
15605W        W80590   4.680  27.628  14.119
15606W        W80591  26.286  39.024   1.374
15607W        W80592  42.297  25.609   2.775
15608W        W80593  32.017  18.920  14.306
15609W        W80594  11.210  16.731   2.023
15610W        W80595  20.012  42.976   4.393
15611W        W80596  29.300  39.874  10.376
15612W        W80597  27.744  26.434   2.896
15613W        W80598  32.049  21.176  13.251
15614W        W80599  31.536  27.929  12.582
15615W        W80600  39.280  29.905  13.040
15616W        W80601  18.213  27.598  12.075
15617W        W80602   9.267  36.557  12.605
15618W        W80603  40.003  32.667  14.608
15619W        W80604  23.184   2.384   0.245
15620W        W80605  26.964   5.722  10.633
15621W        W80606  40.843  14.138   3.857
15622W        W80607  10.653  21.709   4.872
15623W        W80608  42.340  18.723  14.686
15624W        W80609  40.500  42.607  10.202
15625W        W80610  43.051  35.017   1.898
15626W        W80611   7.820  35.855  14.890
15627W        W80612  12.415  37.832   2.907
15628W        W80613  25.056   1.262  11.688
15629W        W80614  31.014  23.785   3.758
15630W        W80615   1.403  23.401   2.966
15631W        W80616   7.835  29.896   0.192
15632W        W80617  16.519   1.049  14.046
15633W        W80618   6.463  24.118  13.818
15634W        W80619   6.602   5.464  13.026
15635W        W80620  40.286  38.045  12.844
15636W        W80621  10.564  26.469  13.966
15637W        W80622  33.646  27.567   2.754
15638W        W80623  35.946  41.985   4.096
15639W        W80624  10.644  31.023  14.204
15640W        W80625  28.454  43.208   1.000
15641W        W80626  16.604  24.527   2.225
15642W        W80627  30.774  43.242   2.638
15643W        W80628  26.742  25.533   3.743
15644W        W80629   6.024   9.072   0.679
15645W        W80630  30.346  40.575   3.217
15646W        W80631  42.297   5.913  14.050
15647W        W80632  29.978  28.565   0.888
15648W        W80633  34.961  30.548  11.473
15649W        W80634  14.078  36.268   4.305
15650W        W80635  14.821  36.138  11.770
15651W        W80636  12.637  39.436  13.038
15652W        W80637  16.653  36.117   2.869
15653W        W80638   3.341  33.089   3.188
15654W        W80639  29.463  11.584   0.655
15655W        W80640  10.923  15.311   4.163
15656W        W80641  11.951  17.613   2.170
15657W        W80642   5.155  38.079   3.357
15658W        W80643  38.440  15.041  14.550
15659W        W80644  42.362   9.716   2.739
15660W        W80645   8.083  30.280  13.897
15661W        W80646   8.870  28.281   0.564
15662W        W80647   9.187  30.380   0.461
15663W        W80648   8.897   7.254  11.891
15664W        W80649  37.847  22.622   4.290
15665W        W80650  41.217   3.833   3.667
15666W        W80651  32.951   7.372  12.448
15667W        W80652  29.065  38.900   2.360
15668W        W80653  12.388  14.273   2.713
15669W        W80654  40.312  16.207  11.670
15670W        W80655  28.979  41.903   0.508
15671W        W80656  35.636   0.296  11.146
15672W        W80657   8.743  24.428   0.447
15673W        W80658  25.540   8.335   1.828
15674W        W80659  20.155   7.078   0.720
15675W        W80660  11.784  37.859   1.834
15676W        W80661  20.227  12.319  14.686
15677W        W80662  10.223  13.221   2.822
15678W        W80663   7.186  28.193   0.251
15679W        W80664  37.783  21.733   3.192
15680W        W80665  19.209  11.206  11.183
15681W        W80666  38.012  29.568  13.416
15682W        W80667  35.533  26.000   1.883
15683W        W80668  29.310  10.357  11.049
15684W        W80669  36.595  33.784  12.602
15685W        W80670  12.938  22.251   3.068
15686W        W80671  23.572  33.333  11.805
15687W        W80672  12.279  14.215   1.743
15688W        W80673  13.725   8.222   1.320
15689W        W80674   2.297  39.299  13.415
15690W        W80675  39.357   3.479   0.933
15691W        W80676   4.301  26.828  13.158
15692W        W80677  39.786  13.343  10.737
15693W        W80678   0.416   7.652  11.083
15694W        W80679  38.536  44.549  13.376
15695W        W80680  36.442  12.746  12.689
15696W        W80681  30.854  15.363   1.929
15697W        W80682   3.886  28.683  13.420
15698W        W80683  27.521   0.420  14.196
15699W        W80684   1.312  30.494   4.517
15700W        W80685   8.312  22.360   2.302
15701W        W80686  18.005  44.382  14.964
15702W        W80687  17.089  27.146   2.939
15703W        W80688   1.293  12.604  13.320
15704W        W80689   8.444  43.593   3.627
15705W        W80690  43.456  13.079  14.992
15706W        W80691   6.887  41.300   1.070
15707W        W80692   9.878  40.012   4.540
15708W        W80693  29.453  13.725  13.101
15709W        W80694  14.863   9.208   4.150
15710W        W80695  18.392  18.988  14.756
15711W        W80696   8.964  21.099   4.145
15712W        W80697   7.629  19.796   0.169
15713W        W80698  28.630   1.417   3.227
15714W        W80699  36.860   3.230   4.869
15715W        W80700   5.241  30.238   2.352
15716W        W80701   9.255  15.355  12.373
15717W        W80702   5.153  34.045  13.454
15718W        W80703  17.427  17.897  11.925
15719W        W80704  18.082   7.199  13.832
15720W        W80705   5.023  24.255   5.084
15721W        W80706  43.006  29.968   1.985
15722W        W80707  36.608  38.597   1.830
15723W        W80708  34.197   9.493  14.109
15724W        W80709  40.099   5.476   1.878
15725W        W80710  19.357   7.919  14.314
15726W        W80711   0.774   5.986   1.915
15727W        W80712  20.952  39.489  14.783
15728W        W80713  34.909  39.526  13.989
15729W        W80714   5.817  19.965  10.733
15730W        W80715   0.530  32.056  10.611
15731W        W80716  42.041  37.694   1.311
15732W        W80717  33.432  17.653  13.110
15733W        W80718  42.958  34.349   1.455
15734W        W80719  23.478  11.749  14.359
15735W        W80720  25.116  31.750  10.357
15736W        W80721   3.488  27.161  12.969
15737W        W80722  41.498  34.055   3.666
15738W        W80723   5.418   4.612  12.514
15739W        W80724  29.621  33.082  14.767
15740W        W80725  39.115  11.771   3.711
15741W        W80726  34.989  15.391  13.013
15742W        W80727  34.052  18.568   1.418
15743W        W80728  37.123   2.225   3.411
15744W        W80729  24.557   3.091  10.815
15745W        W80730   9.238  36.169  13.435
15746W        W80731   3.651  39.763  11.128
15747W        W80732   5.288  34.399   1.220
15748W        W80733  34.962   1.372  12.900
15749W        W80734  42.804   6.905   2.325
15750W        W80735   6.424  30.591  12.543
15751W        W80736  41.742   6.605  11.706
15752W        W80737  11.769  15.818   0.404
15753W        W80738  37.814   9.771   1.603
15754W        W80739   9.379  25.063  12.958
15755W        W80740   6.274  19.579  12.540
15756W        W80741   5.890  25.082  14.982
15757W        W80742   9.959   0.500  12.083
15758W        W80743  10.107  16.326  13.561
15759W        W80744   7.783  27.731   3.128
15760W        W80745  16.102  33.471  11.876
15761W        W80746   0.407   7.094   4.222
15762W        W80747  35.450  42.498  14.774
15763W        W80748  36.492  15.237   4.249
15764W        W80749  42.595  42.420  13.950
15765W        W80750  43.391  34.268   0.208
15766W        W80751  21.978  11.857   3.097
15767W        W80752  27.823  41.046  11.057
15768W        W80753   1.307  12.836  12.078
15769W        W80754   8.217   3.455   3.285
15770W        W80755  16.153  11.135   0.945
15771W        W80756  26.005   0.961   1.952
15772W        W80757  40.361  40.947   1.405
15773W        W80758   6.165   5.207  12.919
15774W        W80759  14.985   1.068  14.904
15775W        W80760  42.782  36.826   2.200
15776W        W80761  38.548  43.131  11.928
15777W        W80762  33.895  31.917   3.621
15778W        W80763  30.093  29.621  13.490
15779W        W80764  24.876  41.801  12.802
15780W        W80765   3.906   7.926  14.851
15781W        W80766   8.636  18.046  13.897
15782W        W80767  36.040  37.557   1.248
15783W        W80768  35.139   8.068   2.155
15784W        W80769  27.381  16.625  12.435
15785W        W80770  38.320  25.703  14.803
15786W        W80771  30.404  43.005   1.733
15787W        W80772  17.247  15.603   2.860
15788W        W80773  25.740  31.633   3.385
15789W        W80774  11.230  12.090   4.542
15790W        W80775  39.903  31.095  11.499
15791W        W80776  38.526  24.973   1.390
15792W        W80777  18.107  35.794   0.699
15793W        W80778  28.344  36.005   0.567
15794W        W80779  30.463   7.051  11.040
15795W        W80780  17.629  24.480  14.791
15796W        W80781   3.776  21.325   3.680
15797W        W80782  41.475  37.009  10.531
15798W        W80783   3.033  38.334   2.216
15799W        W80784  24.680   2.520  13.541
15800W        W80785  27.435  16.185  11.524
15801W        W80786  11.166  23.482   3.045
15802W        W80787   7.608  31.950   3.156
15803W        W80788  37.509  22.215  13.839
15804W        W80789  34.527  12.397   0.826
15805W        W80790   6.232  14.677  12.516
15806W        W80791   2.964  20.024  10.512
15807W        W80792  28.345  23.095  11.041
15808W        W80793   8.270  11.104   2.794
15809W        W80794  35.003   5.113   0.921
15810W        W80795   1.792   7.036   3.466
15811W        W80796  25.133   2.950   2.638
15812W        W80797  19.802  12.942  10.147
15813W        W80798   9.935  27.622  14.759
15814W        W80799  42.192  12.388  12.563
15815W        W80800  11.265  27.745  10.989
15816W        W80801  13.745  18.995  14.368
15817W        W80802  14.738  21.369  11.161
15818W        W80803  35.279   3.398  14.040
15819W        W80804   9.623   2.514   1.342
15820W        W80805  24.342   1.274   3.693
15821W        W80806   2.289  39.554  13.854
15822W        W80807  29.002  11.687   2.869
15823W        W80808  34.635  28.672   0.450
15824W        W80809  32.494  39.027  13.992
15825W        W80810  10.677  20.801   4.459
15826W        W80811   8.600  27.547   3.152
15827W        W80812  17.765   6.789   5.282
15828W        W80813  44.811   6.817  14.193
15829W        W80814  34.756   0.754   4.130
15830W        W80815   2.693  33.882   0.912
15831W        W80816  31.524  13.703  11.769
15832W        W80817  14.508  35.930   5.012
15833W        W80818  35.062   1.431   0.993
15834W        W80819  37.605  17.326   4.881
15835W        W80820   2.776   0.691   1.191
15836W        W80821   6.216   0.018  10.087
15837W        W80822  43.740  19.025   1.340
15838W        W80823  18.665  31.581   2.768
15839W        W80824  13.849  41.532  13.490
15840W        W80825  25.959  38.451  11.842
15841W        W80826   7.054  13.840   3.928
15842W        W80827  25.993   6.405   4.872
15843W        W80828  24.194   6.680   0.865
15844W        W80829  11.307   7.714  13.568
15845W        W80830   6.175  14.631  10.670
15846W        W80831   6.896  22.954   0.351
15847W        W80832  37.706  12.439   1.774
15848W        W80833  10.701  26.698  10.470
15849W        W80834  19.789  43.125   4.820
15850W        W80835   3.854  25.481   4.836
15851W        W80836  34.990  11.737   0.272
15852W        W80837   1.056  26.983   1.643
15853W        W80838   3.875  30.347   0.744
15854W        W80839  36.942  18.960   3.253
15855W        W80840  14.876  20.798   4.155
15856W        W80841  29.548  36.164  14.401
15857W        W80842  41.840  28.287   3.206
15858W        W80843  17.037   3.552  12.058
15859W        W80844  26.084   0.287  11.622
15860W        W80845  19.278   0.719  12.882
15861W        W80846  16.833  11.400   1.386
15862W        W80847   6.032  13.471   3.557
15863W        W80848  31.576   9.433   3.236
15864W        W80849   7.282  39.526  13.440
15865W        W80850   7.439  29.037  10.907
15866W        W80851  10.699  39.020   3.138
15867W        W80852  13.501  34.651  11.523
15868W        W80853   8.237   3.260  13.267
15869W        W80854   9.804  21.551  10.759
15870W        W80855  36.469  19.474   4.435
15871W        W80856   9.605  26.767   2.909
15872W        W80857  17.626  29.321   3.083
15873W        W80858  28.167  18.477  12.027
15874W        W80859   9.771  18.516   2.301
15875W        W80860   4.370  17.609   0.082
15876W        W80861  11.210  35.585  10.457
15877W        W80862  26.068   4.719   2.282
15878W        W80863  26.653  11.889   0.914
15879W        W80864  12.889   4.271   1.311
15880W        W80865  10.613  39.029   1.288
15881W        W80866  36.340  40.484  10.989
15882W        W80867  28.436  35.930   1.402
15883W        W80868  30.716  12.836  10.995
15884W        W80869  40.084   7.436   4.210
15885W        W80870  25.884   2.961  10.467
15886W        W80871  21.380  29.745   3.602
15887W        W80872  29.714   1.284   2.451
15888W        W80873   4.948  26.699  14.297
15889W        W80874  23.738   7.661   4.501
15890W        W80875  23.998  25.427  14.492
15891W        W80876  17.385  38.836  14.903
15892W        W80877  20.029  12.676   2.860
15893W        W80878  16.702   2.889  14.340
15894W        W80879  13.531  19.632   3.840
15895W        W80880  37.414   4.864  12.953
15896W        W80881  26.688   6.856  12.141
15897W        W80882  34.032   8.080   3.994
15898W        W80883  14.335  22.141   0.461
15899W        W80884  42.883  38.261   1.365
15900W        W80885   1.306  28.232  11.159
15901W        W80886   2.827  28.629  12.349
15902W        W80887   0.457  26.998  13.060
15903W        W80888  35.023  19.661   5.106
15904W        W80889  36.479  22.507   1.863
15905W        W80890   6.671  12.914  10.427
15906W        W80891  38.576  17.118  13.591
15907W        W80892  17.044  12.233  13.741
15908W        W80893   2.948  27.492  12.383
15909W        W80894  26.779  23.218   1.390
15910W        W80895  31.025  32.599   4.512
15911W        W80896  26.045  28.957   9.869
15912W        W80897  14.599   8.296   0.566
15913W        W80898  28.600  35.941   3.125
15914W        W80899  20.293  27.134  14.881
15915W        W80900  34.666  44.732   1.042
15916W        W80901   4.971  43.873  12.190
15917W        W80902   7.405  29.162   1.175
15918W        W80903  10.874  43.354  14.347
15919W        W80904  11.255  33.223   3.193
15920W        W80905  32.768  42.854  12.795
15921W        W80906  42.921   0.193   1.207
15922W        W80907  29.378  34.606  13.774
15923W        W80908  33.426  44.948  11.690
15924W        W80909   3.259  28.178   0.237
15925W        W80910  38.056  13.048  12.411
15926W        W80911  35.777   1.233   0.411
15927W        W80912  41.496  15.107  14.353
15928W        W80913   1.640   6.897   2.558
15929W        W80914  11.012  18.810   1.873
15930W        W80915  29.109  20.236  14.382
15931W        W80916  37.278  43.732   4.087
15932W        W80917  33.669  36.911   4.346
15933W        W80918  15.565  42.419   0.487
15934W        W80919   0.409  24.655  12.660
15935W        W80920   1.996  20.709   0.276
15936W        W80921  39.808  22.694   2.778
15937W        W80922  33.077  41.382  10.917
15938W        W80923   4.165  28.635  14.781
15939W        W80924  34.627  38.912  13.015
15940W        W80925  22.231   5.916  10.965
15941W        W80926  38.671   7.323   1.809
15942W        W80927  22.534   7.394   3.911
15943W        W80928  22.953  27.001  13.825
15944W        W80929  22.104   0.056   1.703
15945W        W80930  44.369   2.823  10.970
15946W        W80931  28.965  23.042   2.374
15947W        W80932  29.051  11.887   0.801
15948W        W80933  22.919  30.791   4.947
15949W        W80934   5.386  15.943  12.336
15950W        W80935  18.310  29.394  13.115
15951W        W80936  10.731   7.736  13.841
15952W        W80937  11.156   3.393  10.649
15953W        W80938  10.736  21.518   3.831
15954W        W80939   1.073  18.640   2.308
15955W        W80940  17.011  43.435  11.756
15956W        W80941   9.821  19.267   1.859
15957W        W80942   8.370  21.668  12.599
15958W        W80943   0.936   0.441  13.453
15959W        W80944   1.241  36.415   1.416
15960W        W80945   3.528  34.648   2.453
15961W        W80946  32.902   9.629  13.361
15962W        W80947   2.827  23.436   2.722
15963W        W80948   9.678  12.713   4.007
15964W        W80949  35.619   6.009   3.293
15965W        W80950   4.463  17.176  11.692
15966W        W80951  43.297  11.558  14.877
15967W        W80952  30.495  10.116   0.879
15968W        W80953   1.781   5.366   2.362
15969W        W80954  24.172  24.503  14.818
15970W        W80955  41.198  23.448  11.220
15971W        W80956  32.583   6.140  14.815
15972W        W80957  12.179   7.119  11.556
15973W        W80958  26.514   0.989  13.013
15974W        W80959  38.532  12.853  12.530
15975W        W80960   1.903  36.079   1.344
15976W        W80961  38.333  15.121  14.014
15977W        W80962  22.273  22.209   3.640
15978W        W80963  14.066  21.032   1.361
15979W        W80964   8.848  33.649  14.375
15980W        W80965   0.102  16.703   2.833
15981W        W80966  20.650  34.345  14.934
15982W        W80967  22.526   8.177  11.249
15983W        W80968  34.915  42.308  10.784
15984W        W80969  33.983  17.215  14.652
15985W        W80970   1.482  15.466  11.549
15986W        W80971  30.701   3.898   1.195
15987W        W80972  13.228   1.107  10.747
15988W        W80973  21.790  12.086   3.775
15989W        W80974  22.645   1.704  12.961
15990W        W80975  42.116   6.709  10.873
15991W        W80976   9.739  23.272  10.625
15992W        W80977  39.067  17.872   2.145
15993W        W80978   4.367  44.508  11.588
15994W        W80979  10.325   9.100   0.221
15995W        W80980  24.562   5.671   3.455
15996W        W80981  38.057  22.313   3.942
15997W        W80982  38.478  41.803  12.883
15998W        W80983  12.640  23.204   1.093
15999W        W80984  26.316  29.924  11.244
16000W        W80985  21.843  44.998  13.900
16001W        W80986   4.661   2.131   3.079
16002W        W80987   8.814  25.004  13.567
16003W        W80988  11.310   8.189  11.601
16004W        W80989  18.062  13.589  12.505
16005W        W80990  34.505  32.915  14.283
16006W        W80991   7.662  28.949   4.693
16007W        W80992  18.063  33.414  14.021
16008W        W80993   9.845  13.078  14.910
16009W        W80994   9.435  39.653   2.411
16010W        W80995  11.773  29.945   0.764
16011W        W80996  34.301  10.361  10.639
16012W        W80997  15.126  25.484   2.792
16013W        W80998  11.858   9.088   1.179
16014W        W80999  34.817  39.134   1.239
16015W        W81000   7.703   2.468   3.391
16016W        W81001   8.576  18.572   0.655
16017W        W81002   3.959  28.030   0.760
16018W        W81003  10.965  35.148   3.542
16019W        W81004  20.514   0.881   2.596
16020W        W81005   8.597  21.504   2.670
16021W        W81006  12.764  30.349   0.918
16022W        W81007  10.231  19.504  12.492
16023W        W81008   5.315  42.830  13.487
16024W        W81009   1.332   7.028  10.571
16025W        W81010  29.863  18.858  14.016
16026W        W81011  37.796  41.553  13.376
16027W        W81012   0.523  27.463  10.900
16028W        W81013  32.389   5.882   3.591
16029W        W81014   6.471  17.044  14.001
16030W        W81015   5.900  39.638   2.251
16031W        W81016  36.890  26.438   0.857
16032W        W81017  39.126  10.776  10.890
16033W        W81018  27.528  24.027   3.698
16034W        W81019   3.783   6.148   3.371
16035W        W81020  35.104  35.948  13.917
16036W        W81021  32.134   6.879  13.408
16037W        W81022   9.950  41.228   3.157
16038W        W81023  25.428  13.763  12.123
16039W        W81024  11.869  22.998   1.892
16040W        W81025  43.049  32.085  10.808
16041W        W81026   1.294  32.250  11.583
16042W        W81027  17.195  17.068   1.332
16043W        W81028  12.940  20.690   1.850
16044W        W81029   4.704  23.120  12.810
16045W        W81030  32.819  38.268   2.741
16046W        W81031  10.591   6.529  14.987
16047W        W81032  26.046  42.613  13.878
16048W        W81033  22.479  19.153   3.122
16049W        W81034  44.030   3.776  10.672
16050W        W81035  13.596  42.894   1.493
16051W        W81036  41.503  37.290   3.087
16052W        W81037  40.511  32.311   0.331
16053W        W81038   3.812  16.276   1.684
16054W        W81039   9.824   2.000  14.412
16055W        W81040  36.069   1.445   4.045
16056W        W81041   2.487  21.461   1.929
16057W        W81042  18.810  14.015  13.316
16058W        W81043  24.106  40.921  13.767
16059W        W81044   4.498  23.757  11.675
16060W        W81045  31.948   9.874  12.480
16061W        W81046  40.879  33.236  10.242
16062W        W81047  33.525  43.025  10.652
16063W        W81048  16.248  13.594   3.716
16064W        W81049  31.838  41.559  10.299
16065W        W81050  38.413   9.226  10.769
16066W        W81051  39.150  36.070  12.925
16067W        W81052  26.411  16.735  13.841
16068W        W81053  29.740  12.020   2.327
16069W        W81054  11.852  14.715   3.955
16070W        W81055  31.210  40.683  12.510
16071W        W81056  29.894   0.888   2.128
16072W        W81057  39.794   9.759   4.291
16073W        W81058   8.271  38.081  12.918
16074W        W81059  10.738  44.225  10.031
16075W        W81060  26.473   1.003   0.305
16076W        W81061   2.980  30.130   1.273
16077W        W81062  19.129  30.023  13.062
16078W        W81063  28.573   0.178  13.322
16079W        W81064  18.163   2.148  12.246
16080W        W81065  16.306  35.018   3.711
16081W        W81066  35.579  12.108   4.558
16082W        W81067  38.090  29.117  12.248
16083W        W81068   0.497  34.680   0.614
16084W        W81069   5.045  32.675  12.490
16085W        W81070  26.253   9.083   3.379
16086W        W81071  38.763  29.653   2.372
16087W        W81072  28.048  38.654  11.398
16088W        W81073  20.163  30.885  12.059
16089W        W81074  36.008  23.135   2.626
16090W        W81075  32.520  35.975  13.777
16091W        W81076   7.179   2.690   2.281
16092W        W81077   1.307   1.835  11.198
16093W        W81078  44.489  27.933  13.583
16094W        W81079  32.100  14.318   0.473
16095W        W81080  13.413   1.999  14.392
16096W        W81081  44.262  19.040   4.567
16097W        W81082  42.355  17.565  12.667
16098W        W81083  13.433  22.569   3.635
16099W        W81084  28.684  39.537  10.597
16100W        W81085  37.308   7.887   0.359
16101W        W81086  33.643  21.453  11.901
16102W        W81087  15.219  21.317   0.802
16103W        W81088   2.065  28.867  12.327
16104W        W81089   4.499  31.409  11.005
16105W        W81090  15.149  19.709  13.741
16106W        W81091  30.222   2.761   1.782
16107W        W81092   4.823  21.093  13.552
16108W        W81093  18.191  36.850  14.885
16109W        W81094  22.473  34.631   3.228
16110W        W81095  41.871  25.256  12.450
16111W        W81096  34.368  31.620  11.143
16112W        W81097  27.520  35.941   2.640
16113W        W81098   7.134  23.164   3.219
16114W        W81099  24.662   0.855   2.835
16115W        W81100  35.393  43.995  13.707
16116W        W81101  34.997  34.319   2.185
16117W        W81102  39.652  42.835   3.116
16118W        W81103  22.438   2.169   1.290
16119W        W81104  13.687  25.775   4.009
16120W        W81105  43.992  40.470  12.012
16121W        W81106  37.067  30.618   3.130
16122W        W81107   6.394  21.203  12.941
16123W        W81108  36.480  20.213   1.304
16124W        W81109   7.089   6.323  14.273
16125W        W81110  43.356  16.114   3.283
16126W        W81111  29.106  40.361   4.437
16127W        W81112  35.203  24.038   1.882
16128W        W81113   7.674   0.741   5.108
16129W        W81114  44.955  24.066   2.444
16130W        W81115  25.999  40.345  11.961
16131W        W81116   6.013  19.705  12.974
16132W        W81117  17.223  44.346   1.722
16133W        W81118   5.770  19.283  11.469
16134W        W81119  39.149  21.346  11.943
16135W        W81120  14.355  16.754  14.415
16136W        W81121   8.774   6.143  14.562
16137W        W81122  27.531  25.763   4.108
16138W        W81123  23.260  26.340  13.104
16139W        W81124  22.662  37.761   1.221
16140W        W81125  19.159  21.910  13.769
16141W        W81126  29.643  31.809  10.253
16142W        W81127  38.541  16.484  12.872
16143W        W81128  26.204  10.853  11.134
16144W        W81129   0.232  34.353   4.055
16145W        W81130  16.635  39.089   4.629
16146W        W81131  10.767  20.548  10.979
16147W        W81132   4.310  44.817  10.557
16148W        W81133  40.038   4.229  12.999
16149W        W81134  42.996   5.393   2.284
16150W        W81135  25.769  37.511  11.863
16151W        W81136  36.294  37.025  11.941
16152W        W81137   2.788  29.968   4.584
16153W        W81138   3.003  17.630  11.434
16154W        W81139   8.312  20.607  12.420
16155W        W81140  39.171  43.962  14.373
16156W        W81141   4.743  19.776   3.831
16157W        W81142  27.077  12.058  12.925
16158W        W81143  23.476  24.364  12.877
16159W        W81144  35.368  23.740  13.866
16160W        W81145  29.548   8.452  11.283
16161W        W81146  30.470   8.819   1.725
16162W        W81147  28.899   1.190  10.121
16163W        W81148  24.178  39.971  13.482
16164W        W81149  17.374  22.655   2.184
16165W        W81150  26.091   8.849  11.565
16166W        W81151  34.058  37.775   3.770
16167W        W81152   7.627  36.860  12.150
16168W        W81153   1.653  35.859   3.691
16169W        W81154   4.122  12.690   0.312
16170W        W81155   4.953   4.367   1.750
16171W        W81156  30.119   7.761   4.153
16172W        W81157   3.890  39.421   1.551
16173W        W81158   3.872  13.710  10.524
16174W        W81159  43.047   7.373   2.419
16175W        W81160  29.209  25.638  14.387
16176W        W81161  42.709   9.662   3.115
16177W        W81162  28.278  40.980  14.257
16178W        W81163  26.532  20.564   2.712
16179W        W81164  14.390  38.966  12.029
16180W        W81165  36.073  39.136   1.399
16181W        W81166  12.851  39.002  11.981
16182W        W81167  23.403  12.702  11.903
16183W        W81168  23.638  24.989   4.156
16184W        W81169  19.605  18.069  11.830
16185W        W81170   4.301  35.597  13.457
16186W        W81171   4.943  19.588   3.130
16187W        W81172  41.785  16.612  11.660
16188W        W81173  10.641   9.711  13.119
16189W        W81174  34.934  11.893   3.787
16190W        W81175  19.709   8.273  11.369
16191W        W81176  43.384  34.223  12.959
16192W        W81177   7.651  30.022   1.546
16193W        W81178   9.120  38.347   1.118
16194W        W81179  31.856  34.600  11.996
16195W        W81180  35.956   0.382  14.074
16196W        W81181   3.714  10.200   4.739
16197W        W81182  27.664  14.458  12.985
16198W        W81183  15.542  31.925   3.273
16199W        W81184  31.053   1.336   3.931
16200W        W81185  32.095  17.779   1.345
16201W        W81186  33.693  31.557   1.522
16202W        W81187  30.137   0.911   1.676
16203W        W81188   5.182  17.465  11.975
16204W        W81189  25.828   7.131  13.483
16205W        W81190  22.533  10.391   9.840
16206W        W81191  43.019  23.064   1.871
16207W        W81192  16.782  36.821   0.265
16208W        W81193  37.787   4.192   4.556
16209W        W81194  43.210  22.936  11.577
16210W        W81195  29.006   6.973   3.792
16211W        W81196   1.153  21.669   1.629
16212W        W81197  20.237  30.451   1.180
16213W        W81198  22.326   1.844   1.713
16214W        W81199  26.660  12.901   3.857
16215W        W81200  11.393  28.463   2.878
16216W        W81201  22.085   3.967  11.337
16217W        W81202  15.278  10.681  11.610
16218W        W81203  13.177  15.945   2.415
16219W        W81204  39.621  19.726  13.941
16220W        W81205  34.359   0.724  14.949
16221W        W81206  11.743  29.550   4.614
16222W        W81207  42.935  18.203  13.086
16223W        W81208   4.196   8.389  12.827
16224W        W81209  16.600  15.366   3.513
16225W        W81210  41.702  22.635  12.889
16226W        W81211  40.098  34.921   0.306
16227W        W81212  41.088   2.377  12.588
16228W        W81213  20.053  32.812   1.384
16229W        W81214   0.423  11.258  11.724
16230W        W81215   6.888   3.179   2.819
16231W        W81216  18.741  17.716  11.585
16232W        W81217  12.916  17.276   1.324
16233W        W81218  35.013  43.859   4.667
16234W        W81219  34.602  12.941   3.349
16235W        W81220  34.370  18.193  11.966
16236W        W81221  25.952  14.741   4.905
16237W        W81222  26.373  38.848   1.837
16238W        W81223   1.423  35.509  14.906
16239W        W81224   4.779  37.868  14.343
16240W        W81225  35.101  11.196  13.859
16241W        W81226  20.489  13.143   3.846
16242W        W81227  21.952   1.046   0.170
16243W        W81228  40.312  21.711   0.054
16244W        W81229   0.710  40.546   1.803
16245W        W81230   0.046  29.640   2.055
16246W        W81231  16.738  26.116  13.744
16247W        W81232  39.577  17.939  13.719
16248W        W81233  29.418  14.359  13.755
16249W        W81234  15.679   4.726   1.776
16250W        W81235  13.295  14.275  10.158
16251W        W81236   1.282   6.663   2.833
16252W        W81237  38.632  23.604  12.026
16253W        W81238  28.527  19.376   2.632
16254W        W81239  35.354   9.351  11.167
16255W        W81240  17.205   3.963  13.804
16256W        W81241  10.711  19.664  11.542
16257W        W81242  28.467  14.643   3.206
16258W        W81243  21.657  26.675   4.017
16259W        W81244  38.471  21.997  11.595
16260W        W81245   2.808  37.992  13.250
16261W        W81246   6.012  21.822  10.983
16262W        W81247  18.463  17.999  12.641
16263W        W81248  25.987  39.378  14.341
16264W        W81249  30.071  36.032  14.405
16265W        W81250  38.996  15.693   2.700
16266W        W81251   6.839  33.398   0.292
16267W        W81252  17.825  22.578   2.570
16268W        W81253   4.010   9.257   1.426
16269W        W81254  19.096  31.413  14.592
16270W        W81255  31.035  27.097  13.845
16271W        W81256  26.639   3.271  11.620
16272W        W81257   6.941  33.112  12.840
16273W        W81258   9.787  14.707   4.074
16274W        W81259  23.756  37.465   2.452
16275W        W81260  45.000  42.420   3.252
16276W        W81261   8.807  35.423  14.846
16277W        W81262  13.065  35.045   3.562
16278W        W81263  13.178  18.722   1.821
16279W        W81264  22.661  15.713   9.584
16280W        W81265   0.306   0.527   0.648
16281W        W81266   2.821  39.026   1.009
16282W        W81267  18.534  11.172   4.573
16283W        W81268   6.213  18.028  13.826
16284W        W81269  38.398  32.141   0.027
16285W        W81270  13.648   0.905  11.016
16286W        W81271   9.740  10.131   1.714
16287W        W81272  25.957   0.434  12.455
16288W        W81273  40.501  40.783  10.544
16289W        W81274  25.056  18.157  13.784
16290W        W81275  37.555  23.797   4.617
16291W        W81276   2.052  26.731  13.846
16292W        W81277  40.016  20.976  12.015
16293W        W81278  31.628  41.373  11.632
16294W        W81279  27.478  22.110   2.289
16295W        W81280  36.346   3.182   3.131
16296W        W81281   4.722  26.070   3.043
16297W        W81282  26.498   4.437   0.974
16298W        W81283  21.051  40.040   2.721
16299W        W81284  39.190   1.272  11.244
16300W        W81285  36.920  11.417  10.718
16301W        W81286   3.030  35.311   2.296
16302W        W81287   5.913  40.840   4.329
16303W        W81288  36.978  38.861   2.439
16304W        W81289  24.390   3.808   0.399
16305W        W81290  26.166  32.059  12.011
16306W        W81291  25.262   5.163  12.892
16307W        W81292   0.840  25.736   1.432
16308W        W81293  33.579  34.276   1.495
16309W        W81294  44.220  13.759  14.773
16310W        W81295  25.703  26.126  14.445
16311W        W81296  18.054  31.183   1.811
16312W        W81297   2.163  17.790   0.944
16313W        W81298  42.546   0.106   3.613
16314W        W81299   5.693  43.243  12.545
16315W        W81300  29.078  15.652   1.950
16316W        W81301  11.388  26.066  12.323
16317W        W81302   3.968  33.777  12.390
16318W        W81303  12.113  16.767  13.747
16319W        W81304  21.825  18.092   0.796
16320W        W81305  18.664  28.305  13.450
16321W        W81306   5.235  37.079   1.850
16322W        W81307   3.840  19.719  13.561
16323W        W81308  20.782   7.330   3.501
16324W        W81309  14.966  16.824  14.800
16325W        W81310  12.383  28.407  12.586
16326W        W81311  24.886  27.123  11.095
16327W        W81312  13.680  31.775   2.427
16328W        W81313  40.599  17.587  13.116
16329W        W81314  29.613   7.756   2.711
16330W        W81315  13.770  21.362   2.911
16331W        W81316  33.891  14.836   3.075
16332W        W81317  26.072   3.335   0.701
16333W        W81318   3.502  12.792   1.201
16334W        W81319  24.185  43.862   2.787
16335W        W81320  23.968  17.731  11.403
16336W        W81321   1.249  12.490   4.749
16337W        W81322  24.495  26.294  12.017
16338W        W81323  39.550   3.954   0.885
16339W        W81324   3.529  17.900  13.851
16340W        W81325  12.900  10.864  13.445
16341W        W81326   7.688   1.565  12.352
16342W        W81327   1.020  30.081   0.000
16343W        W81328   7.440   6.468   2.686
16344W        W81329  33.090   2.778   0.026
16345W        W81330  28.650  14.752  10.583
16346W        W81331   3.731  28.188  13.458
16347W        W81332  31.555   2.688  11.458
16348W        W81333  35.105  24.683  10.865
16349W        W81334  36.872  35.690  14.818
16350W        W81335  31.498  27.166  12.985
16351W        W81336  16.144  37.283  10.465
16352W        W81337   1.400  35.389  13.375
16353W        W81338  35.892  26.124  14.894
16354W        W81339  35.449  20.787   3.155
16355W        W81340  26.697   9.838   2.372
16356W        W81341   0.826  38.532   0.447
16357W        W81342  25.657  10.760  12.424
16358W        W81343  35.887   8.524   1.997
16359W        W81344  21.292   1.424  14.477
16360W        W81345  43.206  41.351  13.570
16361W        W81346  24.195  15.573   0.783
16362W        W81347  44.307   5.217   2.396
16363W        W81348  27.334  17.790   1.371
16364W        W81349  43.806  29.821  13.890
16365W        W81350  18.415  36.416  12.468
16366W        W81351  15.840  43.747   3.325
16367W        W81352   0.501  42.521   3.226
16368W        W81353  39.816  31.509   1.579
16369W        W81354  20.544  43.108  12.122
16370W        W81355  41.044  18.351   0.978
16371W        W81356  30.798  38.321  12.386
16372W        W81357   6.004   7.840  11.571
16373W        W81358   8.190   3.174   3.745
16374W        W81359  17.033   8.569  13.031
16375W        W81360  44.358  40.071   0.547
16376W        W81361  44.780  30.373  13.648
16377W        W81362  34.373  36.623   1.313
16378W        W81363  10.507  27.648  13.942
16379W        W81364  37.954  29.604   4.107
16380W        W81365  15.057  19.222  14.312
16381W        W81366  25.507  40.176  12.963
16382W        W81367  32.393  17.170   4.876
16383W        W81368  15.330  10.857   3.172
16384W        W81369  21.659  16.716  13.756
16385W        W81370  34.290  27.995  13.055
16386W        W81371   9.198  39.523   2.844
16387W        W81372  20.567  35.863   3.922
16388W        W81373  20.745  10.912   2.914
16389W        W81374   8.285  23.772   2.260
16390W        W81375   2.274  26.073  14.391
16391W        W81376  42.208  44.282  12.215
16392W        W81377  34.052  43.808  11.084
16393W        W81378  20.558   5.011  14.982
16394W        W81379  12.768  28.010  10.843
16395W        W81380   8.816   1.664   4.237
16396W        W81381  19.306   7.964   1.548
16397W        W81382  12.307   1.815   4.138
16398W        W81383  10.402  31.920  12.839
16399W        W81384  11.758  43.555   3.643
16400W        W81385  44.149  41.362  14.427
16401W        W81386  26.428  21.039   3.545
16402W        W81387  10.389   8.692  10.531
16403W        W81388   2.947  36.973   3.896
16404W        W81389   7.270   9.007  13.013
16405W        W81390  19.116  33.247  12.437
16406W        W81391  39.047  25.097   3.200
16407W        W81392   1.745   2.133  13.988
16408W        W81393  10.623   7.337   9.688
16409W        W81394  44.154  11.989   2.336
16410W        W81395   2.581  21.985   3.654
16411W        W81396  12.381  18.060  12.499
16412W        W81397   4.125  25.071   0.255
16413W        W81398  41.097  44.318   4.191
16414W        W81399  14.338  29.472  14.312
16415W        W81400   1.998  19.541  14.371
16416W        W81401  17.581  17.179  13.160
16417W        W81402  31.536  31.281  10.648
16418W        W81403  11.096  22.988   4.718
16419W        W81404   8.286   7.863   0.481
16420W        W81405  32.015  20.009   1.903
16421W        W81406  25.251  17.477  13.209
16422W        W81407  25.746  43.007   3.278
16423W        W81408  11.384  13.759   1.459
16424W        W81409  24.106  37.952   2.667
16425W        W81410  29.036  28.552   3.247
16426W        W81411   5.895  16.684  14.393
16427W        W81412  21.357  26.509  14.304
16428W        W81413   6.882  11.858  11.461
16429W        W81414  43.131  23.899  10.255
16430W        W81415  42.383  31.730   4.338
16431W        W81416  21.604  40.090   0.326
16432W        W81417  41.891  12.399   1.127
16433W        W81418  36.815  39.563   3.191
16434W        W81419  32.522  24.097   2.906
16435W        W81420  38.050  28.403   3.748
16436W        W81421  42.941  40.567   3.634
16437W        W81422   8.577  20.694  13.017
16438W        W81423  39.442   7.349  14.197
16439W        W81424  32.152  39.115   4.296
16440W        W81425  10.254  16.852   4.854
16441W        W81426  28.213  36.870   3.257
16442W        W81427  41.740  34.209   0.129
16443W        W81428   0.782  19.307   1.485
16444W        W81429  40.947  25.271  13.530
16445W        W81430  25.266  11.814  14.074
16446W        W81431  19.757  13.217  12.560
16447W        W81432   5.698  22.043   1.201
16448W        W81433  31.399  31.364   0.849
16449W        W81434   8.290  30.973   2.636
16450W        W81435   4.468  34.206   2.811
16451W        W81436   2.796  10.348  10.809
16452W        W81437  30.720   4.221   0.772
16453W        W81438  17.200  11.667  14.546
16454W        W81439  39.135  35.584  12.136
16455W        W81440  37.771  24.286   4.732
16456W        W81441  38.425  22.771  12.054
16457W        W81442  44.010   8.900  11.224
16458W        W81443  16.895   4.211  14.981
16459W        W81444   9.694  32.459   2.705
16460W        W81445  13.959  21.916  12.620
16461W        W81446   4.300  36.919   4.265
16462W        W81447   5.493  10.742   4.479
16463W        W81448  15.157  35.682  13.450
16464W        W81449  41.281   3.580   1.140
16465W        W81450  30.091  27.689  11.936
16466W        W81451   8.340  26.967  14.509
16467W        W81452   7.141   4.948  12.945
16468W        W81453  18.485  40.235   2.972
16469W        W81454  15.823  16.150   3.306
16470W        W81455  32.327  33.025   0.800
16471W        W81456   8.181  31.905  11.027
16472W        W81457   8.297  31.939  13.317
16473W        W81458  16.697  38.180  11.199
16474W        W81459   6.452  27.167  10.212
16475W        W81460  28.116  33.404   0.368
16476W        W81461   9.164  26.612   0.079
16477W        W81462  37.126  29.059  11.010
16478W        W81463   8.563  15.237   1.258
16479W        W81464   9.600  13.284  13.465
16480W        W81465  31.631  38.909  11.073
16481W        W81466  41.600  26.085  12.178
16482W        W81467  15.287  14.392  13.794
16483W        W81468   0.683  12.732  10.780
16484W        W81469   5.213  13.581   4.614
16485W        W81470  36.065   0.723  13.044
16486W        W81471  38.778  11.674   1.425
16487W        W81472  23.059   0.285   0.825
16488W        W81473   2.742  28.035   1.005
16489W        W81474   5.676  19.462   0.536
16490W        W81475  23.013  43.300   1.266
16491W        W81476   3.283  28.429   4.603
16492W        W81477  12.025  36.247  13.948
16493W        W81478  12.433  19.063  14.404
16494W        W81479  35.886   0.425   0.533
16495W        W81480  17.292  29.892   2.759
16496W        W81481  25.128   1.489   2.214
16497W        W81482  42.218  29.829  10.675
16498W        W81483  17.462  24.912   2.511
16499W        W81484  35.350  19.019  11.081
16500W        W81485  10.105  12.797   3.550
16501W        W81486  14.866  13.823  11.557
16502W        W81487  33.218  37.239  11.712
16503W        W81488   1.356   4.936   3.206
16504W        W81489  26.916  33.828   5.032
16505W        W81490  42.502  33.117   2.294
16506W        W81491  37.594  14.830  12.600
16507W        W81492  42.063   2.276   3.711
16508W        W81493  11.817  33.746   0.885
16509W        W81494   2.305  14.708  13.921
16510W        W81495  43.655   9.407   2.855
16511W        W81496  18.595  39.995  12.673
16512W        W81497   5.429  40.987  11.510
16513W        W81498  44.233  43.180  11.619
16514W        W81499  14.876  19.170  14.817
16515W        W81500  20.655   6.689   1.910
16516W        W81501  32.649  13.124   9.979
16517W        W81502   9.730   1.434  12.910
16518W        W81503   9.947  15.883   0.022
16519W        W81504  21.019  34.914   5.245
16520W        W81505  25.573  34.396   0.468
16521W        W81506  38.479   4.614   4.570
16522W        W81507  27.938  29.446   3.199
16523W        W81508  41.840  40.901  12.551
16524W        W81509  10.149  43.061   4.578
16525W        W81510  17.149  40.819   0.543
16526W        W81511  35.982  31.067  11.929
16527W        W81512   7.161  13.699   3.430
16528W        W81513   8.221  24.257  11.504
16529W        W81514  12.819  28.151   4.923
16530W        W81515  35.336  21.821   3.267
16531W        W81516   0.770  13.345   1.484
16532W        W81517  32.194   6.696   1.371
16533W        W81518   4.619  21.329   0.897
16534W        W81519  28.961  11.734   4.710
16535W        W81520   0.324   7.168  12.017
16536W        W81521   6.485  14.193   4.073
16537W        W81522   7.975  39.451   4.140
16538W        W81523  13.155   3.090  10.676
16539W        W81524  25.517  25.889   3.598
16540W        W81525  22.990   9.622  14.763
16541W        W81526  10.829  24.427  11.561
16542W        W81527  31.147  25.109   5.163
16543W        W81528   1.375  28.762  11.174
16544W        W81529  10.856  28.015  11.877
16545W        W81530  20.295   6.440   3.705
16546W        W81531  24.026  38.650  12.940
16547W        W81532   2.377  22.428  14.829
16548W        W81533  21.538  44.480   0.329
16549W        W81534  12.165  19.596   3.831
16550W        W81535  21.263   1.984  10.245
16551W        W81536  30.931  38.754  14.433
16552W        W81537  18.790  34.817   2.477
16553W        W81538   5.709  17.589   2.444
16554W        W81539   4.900   3.063  10.754
16555W        W81540  42.833  42.766   2.608
16556W        W81541  17.029  38.766  13.077
16557W        W81542  14.233  26.625   3.444
16558W        W81543   9.698   3.575   3.673
16559W        W81544  41.891   0.861  11.829
16560W        W81545   5.805  34.076   2.211
16561W        W81546   1.430   3.260   3.112
16562W        W81547  19.595   1.988  14.827
16563W        W81548  39.421   8.450   0.244
16564W        W81549  24.937  39.604   3.725
16565W        W81550  30.548  19.694  11.087
16566W        W81551  40.345  34.970   0.784
16567W        W81552   4.447  24.151  13.847
16568W        W81553  18.566  16.550  13.535
16569W        W81554  42.208  36.878   1.346
16570W        W81555  32.865  39.924   4.161
16571W        W81556   2.401   5.798   4.187
16572W        W81557  36.345  18.016   1.554
16573W        W81558  25.577  29.656   4.112
16574W        W81559  14.166  12.183  13.455
16575W        W81560  26.575  17.677   4.599
16576W        W81561   2.488  43.221  12.582
16577W        W81562   4.742  41.410   2.585
16578W        W81563  38.377  40.665  12.570
16579W        W81564  41.658  34.850   3.343
16580W        W81565  12.746  43.768  11.618
16581W        W81566  41.318   2.460   4.097
16582W        W81567  22.562  43.437  13.833
16583W        W81568  14.667  36.571  13.530
16584W        W81569  39.653   0.711   2.802
16585W        W81570  16.083  10.137  12.636
16586W        W81571   1.289  43.444  12.796
16587W        W81572  21.185  22.352  12.968
16588W        W81573  33.107  21.762   0.868
16589W        W81574  11.842  20.225   1.398
16590W        W81575  42.780  11.599   3.601
16591W        W81576  11.208   0.230  13.424
16592W        W81577  31.156  31.458  14.024
16593W        W81578   3.916  38.753   0.300
16594W        W81579  24.584  24.010  12.032
16595W        W81580  21.965  29.859   5.462
16596W        W81581  40.011  20.850  14.107
16597W        W81582  26.274  12.674   3.601
16598W        W81583   3.332  25.706   5.036
16599W        W81584  17.504  31.438  13.096
16600W        W81585  17.072  18.021   2.267
16601W        W81586  15.573  23.023   5.174
16602W        W81587  40.481   6.956  11.950
16603W        W81588  27.377  43.658   2.924
16604W        W81589  44.542  17.500   3.772
16605W        W81590   2.315  33.922  14.965
16606W        W81591  39.462  11.266   0.815
16607W        W81592  25.690  22.166  10.454
16608W        W81593  22.201  33.485   1.959
16609W        W81594   8.838  25.576   0.888
16610W        W81595  31.507  35.862   1.191
16611W        W81596  31.084  29.735  13.317
16612W        W81597   8.712  19.049  13.121
16613W        W81598  13.689  26.144   3.621
16614W        W81599  31.615  35.417   1.426
16615W        W81600  36.563   0.518   2.227
16616W        W81601  38.821  34.000  11.024
16617W        W81602   7.201  37.213   0.706
16618W        W81603  14.326  37.902   3.300
16619W        W81604  26.841  35.289  12.940
16620W        W81605  22.544  35.260  11.924
16621W        W81606  41.523   0.832  12.192
16622W        W81607  40.811  38.590  12.374
16623W        W81608   5.301  18.225  11.634
16624W        W81609  23.652  14.418   1.738
16625W        W81610  37.615  25.570   0.398
16626W        W81611  41.159  26.010   2.610
16627W        W81612  13.854   3.667  11.540
16628W        W81613  34.749   6.606  11.154
16629W        W81614  12.186  35.349  12.894
16630W        W81615  26.046   9.489  12.446
16631W        W81616   8.553   7.339   2.726
16632W        W81617  27.198   6.283   4.376
16633W        W81618  26.508  10.368  12.872
16634W        W81619  11.283   9.606   3.656
16635W        W81620   0.356  44.796   0.212
16636W        W81621  30.624   9.260  11.495
16637W        W81622  30.082  40.855  14.478
16638W        W81623  22.919   6.299   3.318
16639W        W81624  31.832  15.709   4.204
16640W        W81625   1.753   1.801  10.415
16641W        W81626  27.041  19.858  10.998
16642W        W81627  21.007  31.067  14.342
16643W        W81628  30.410  17.620   4.094
16644W        W81629   5.344  37.931   0.528
16645W        W81630  34.397  38.288  12.450
16646W        W81631  35.128  20.029   4.299
16647W        W81632  38.257  21.106  14.665
16648W        W81633  41.466  15.497   4.575
16649W        W81634  37.075  29.586   1.732
16650W        W81635  25.490  27.856   3.626
16651W        W81636  42.252  38.376  12.520
16652W        W81637  28.901   8.925  11.822
16653W        W81638  24.950  33.425  14.321
16654W        W81639  14.531  11.079  12.563
16655W        W81640  28.964  14.373   1.693
16656W        W81641  22.679  21.967  14.749
16657W        W81642   8.470   5.570  12.939
16658W        W81643   8.733  37.351  10.619
16659W        W81644  20.556  12.224  11.499
16660W        W81645  37.837  41.380   3.068
16661W        W81646  20.203  34.065   3.150
16662W        W81647  23.496   1.428   1.208
16663W        W81648  13.606  38.944  13.113
16664W        W81649  12.517  24.513   4.545
16665W        W81650  26.271  41.876  12.994
16666W        W81651  16.274  23.675   3.097
16667W        W81652  39.520  23.690   2.680
16668W        W81653  10.237  44.562  12.921
16669W        W81654  12.549  27.579   5.382
16670W        W81655   9.772  19.912  13.816
16671W        W81656  38.133  35.001   2.835
16672W        W81657  39.020  10.212  13.840
16673W        W81658  20.628  14.993  12.543
16674W        W81659   9.066  43.412  12.407
16675W        W81660  12.135  32.451   3.142
16676W        W81661   4.386  35.133  13.934
16677W        W81662  28.052   7.368   3.135
16678W        W81663  39.962   9.627   3.360
16679W        W81664  21.385  42.946   3.175
16680W        W81665   1.229  16.551  13.372
16681W        W81666   0.049  44.029  14.034
16682W        W81667  19.854  44.856   1.390
16683W        W81668  37.052   1.460  13.576
16684W        W81669   7.401   2.267  10.262
16685W        W81670  44.033   0.953  11.606
16686W        W81671  40.263  18.283  12.941
16687W        W81672   3.560  40.360   3.136
16688W        W81673  36.113   3.479  14.790
16689W        W81674  32.115  36.432   4.018
16690W        W81675  21.728  38.148  13.600
16691W        W81676  42.017  22.187  11.525
16692W        W81677  10.187  31.896  14.395
16693W        W81678  42.930  19.862  14.571
16694W        W81679  28.211   4.416  14.510
16695W        W81680  31.539  33.107   1.887
16696W        W81681  24.072  34.877  13.000
16697W        W81682  37.372  31.549   4.268
16698W        W81683   7.318  32.483   3.887
16699W        W81684  12.795  27.026  10.691
16700W        W81685  37.915  34.953   0.392
16701W        W81686  34.010  22.650   1.916
16702W        W81687  38.015   3.390   3.021
16703W        W81688  29.917  39.365  13.860
16704W        W81689  35.279  16.264   4.346
16705W        W81690  35.447  36.950  11.620
16706W        W81691  20.359  39.524   1.557
16707W        W81692   7.593  12.249  13.967
16708W        W81693  12.036  39.949  14.771
16709W        W81694  24.089   1.191  10.229
16710W        W81695  29.254  34.912  14.823
16711W        W81696  39.265   9.366   3.001
16712W        W81697  23.769  36.843  12.922
16713W        W81698  26.742  35.355  11.079
16714W        W81699  31.851  34.857  13.514
16715W        W81700  44.402   5.323   3.878
16716W        W81701  20.141  31.600   1.889
16717W        W81702  17.357   0.258   1.369
16718W        W81703  33.810  30.866  13.926
16719W        W81704   0.996  33.796   2.134
16720W        W81705   2.180  19.050   1.484
16721W        W81706  39.415   0.486  13.406
16722W        W81707  41.422  42.117   4.509
16723W        W81708  19.606  18.392   3.685
16724W        W81709  37.424  34.973   4.554
16725W        W81710  29.715  24.183   4.519
16726W        W81711  39.857  12.585  12.489
16727W        W81712  19.716  16.165   1.327
16728W        W81713  41.453   3.359   4.540
16729W        W81714   5.119  24.380   3.308
16730W        W81715   9.963  35.346   0.324
16731W        W81716  19.186  42.018   1.119
16732W        W81717  36.930   2.949  13.419
16733W        W81718  39.405  29.948   2.569
16734W        W81719  23.998  17.241  12.903
16735W        W81720  44.284   1.611  13.408
16736W        W81721  21.061  36.510  13.829
16737W        W81722  10.964  37.441   0.474
16738W        W81723  44.612  34.106   2.907
16739W        W81724  43.228  14.183   0.390
16740W        W81725  10.057  14.274   1.488
16741W        W81726  23.907  20.006  13.232
16742W        W81727  39.957   6.888  11.264
16743W        W81728  21.648   5.797  12.105
16744W        W81729  41.583  10.700   2.298
16745W        W81730  29.985   7.704   3.342
16746W        W81731  38.354  19.683   0.342
16747W        W81732  44.844  34.149  13.847
16748W        W81733  42.737   1.634   1.451
16749W        W81734  23.236  34.005   0.408
16750W        W81735  29.428   9.961   4.571
16751W        W81736  34.539  33.528   1.170
16752W        W81737  20.091  34.163  12.616
16753W        W81738  12.681  28.052  12.375
16754W        W81739  31.229  29.495   4.510
16755W        W81740  39.464  32.894   3.607
16756W        W81741  44.573  19.209   2.886
16757W        W81742   5.403  33.172  13.608
16758W        W81743  34.787  29.025  11.624
16759W        W81744  35.090   8.968  13.364
16760W        W81745   8.981   7.160   1.915
16761W        W81746  21.301   9.681   0.771
16762W        W81747  40.817   2.332   4.153
16763W        W81748  31.246  33.918  12.235
16764W        W81749  35.175  27.164   1.826
16765W        W81750  18.087  43.280  11.984
16766W        W81751  21.557  32.518  12.644
16767W        W81752  21.737  29.097  14.977
16768W        W81753  39.501   0.954  12.042
16769W        W81754  18.709   4.283   4.472
16770W        W81755  25.688  44.119  10.910
16771W        W81756  36.138  42.268   0.738
16772W        W81757  24.960  38.024   0.484
16773W        W81758   5.361   4.309  11.137
16774W        W81759   3.479  36.263  14.825
16775W        W81760  32.848  18.649   2.041
16776W        W81761   3.351  24.250   2.200
16777W        W81762  33.066  34.670   0.269
16778W        W81763  34.956   7.492   0.464
16779W        W81764  25.037  25.225   4.594
16780W        W81765   1.992   4.783   0.951
16781W        W81766   5.873  34.040   2.714
16782W        W81767   1.177  44.996  10.728
16783W        W81768  42.374  12.105  14.888
16784W        W81769  22.085   6.069   1.724
16785W        W81770  21.841  10.770   0.450
16786W        W81771  20.264  13.707   0.792
16787W        W81772   8.732  40.766   3.074
16788W        W81773  19.250   4.972   3.778
16789W        W81774  20.064   2.221  12.995
16790W        W81775  34.344   0.390  12.889
16791W        W81776  28.063  10.319   3.817
16792W        W81777  37.480  35.267   0.331
16793W        W81778   1.496  35.531  11.872
16794W        W81779  34.483  11.880   0.905
16795W        W81780  21.062  14.588  13.455
16796W        W81781  35.920  37.099  12.933
16797W        W81782   0.364  24.825  13.145
16798W        W81783  25.726  24.752  12.075
16799W        W81784  16.031  11.434   2.820
16800W        W81785  40.113  10.679  14.378
16801W        W81786  42.573   2.422  14.944
16802W        W81787  11.399  23.571   4.110
16803W        W81788  10.511   7.392   0.791
16804W        W81789  25.618  18.902  11.516
16805W        W81790   7.888  17.586  13.786
16806W        W81791  11.786  39.860   0.960
16807W        W81792   7.589  28.696   0.972
16808W        W81793  30.042   2.345  11.716
16809W        W81794  31.149  26.806   9.946
16810W        W81795  19.182  36.583  13.055
16811W        W81796  29.819   4.731  14.971
16812W        W81797  17.359  14.764   1.360
16813W        W81798  37.945  22.383  13.355
16814W        W81799   8.869  27.919   0.187
16815W        W81800  22.241  25.429   1.250
16816W        W81801  34.600  27.187  11.503
16817W        W81802  24.516  32.874   0.971
16818W        W81803  20.703  17.309  12.207
16819W        W81804  13.851  37.495  13.902
16820W        W81805  11.687  14.303  11.387
16821W        W81806  25.596  33.399  14.888
16822W        W81807  19.499  27.451   3.778
16823W        W81808  20.498  38.099   4.125
16824W        W81809   2.752   0.497   1.674
16825W        W81810  27.258  25.918  11.123
16826W        W81811   5.750  41.430  13.307
16827W        W81812   0.663  24.680  13.545
16828W        W81813  18.347  27.378  10.234
16829W        W81814  17.799  14.707  14.935
16830W        W81815   3.901  38.728  12.164
16831W        W81816  16.135  33.017  11.131
16832W        W81817  29.331   9.201  13.695
16833W        W81818   5.811  31.187  13.850
16834W        W81819  32.854  18.088   3.701
16835W        W81820  18.206   4.874  12.519
16836W        W81821  15.897  15.246  12.830
16837W        W81822  44.488  29.541  13.422
16838W        W81823   2.787  44.335   4.903
16839W        W81824   9.814  27.205   4.636
16840W        W81825  37.039  41.021   3.024
16841W        W81826  43.985  30.079  12.159
16842W        W81827  27.358  29.007   4.520
16843W        W81828  28.103  35.121   3.741
16844W        W81829  28.013  12.633   2.606
16845W        W81830  20.539  20.981   0.504
16846W        W81831   2.575  17.018   1.837
16847W        W81832  31.134  19.718   0.703
16848W        W81833  31.273  23.254   0.303
16849W        W81834  41.791  32.012  14.445
16850W        W81835   5.841   9.712  11.400
16851W        W81836  13.953  36.363  14.866
16852W        W81837   5.889   3.220   2.701
16853W        W81838   6.585   7.339  14.357
16854W        W81839  43.954  23.577   2.214
16855W        W81840  24.935   2.258   2.941
16856W        W81841  37.519   6.199  12.956
16857W        W81842   4.823  10.710   3.243
16858W        W81843  12.974  32.173   5.003
16859W        W81844  12.099   2.536   3.357
16860W        W81845  40.981   5.232  13.947
16861W        W81846  43.634  17.164  12.906
16862W        W81847  21.584   2.460   0.475
16863W        W81848  19.506  37.555  12.243
16864W        W81849  40.400  20.660   4.502
16865W        W81850  13.405  10.947   1.179
16866W        W81851  30.261  25.095  11.496
16867W        W81852   6.279  40.065   4.235
16868W        W81853  44.277  36.265   4.537
16869W        W81854  43.980  19.728   3.906
16870W        W81855   7.432  39.821   0.394
16871W        W81856  10.588  35.388  11.666
16872W        W81857  27.850   0.809  14.150
16873W        W81858   0.917  39.817   0.872
16874W        W81859  34.348  19.721  10.530
16875W        W81860  41.926  42.734   2.571
16876W        W81861  35.381  34.693  14.578
16877W        W81862  34.072  42.370  13.138
16878W        W81863  11.792  29.220  10.284
16879W        W81864   2.597  30.183   0.469
16880W        W81865   3.349  37.484   5.158
16881W        W81866  37.495  38.469  13.223
16882W        W81867  33.716  22.182   3.961
16883W        W81868  24.643  10.389  13.574
16884W        W81869  15.080   8.232  14.425
16885W        W81870  33.580  19.962  13.791
16886W        W81871  27.659  44.316  13.172
16887W        W81872  21.978  21.052  13.766
16888W        W81873   4.511   3.466   2.242
16889W        W81874  14.274  42.008   0.891
16890W        W81875  41.860  17.188  13.929
16891W        W81876  35.877   2.282  12.858
16892W        W81877  44.256  35.981   0.880
16893W        W81878  28.179  11.793   3.607
16894W        W81879  40.437  10.947  11.215
16895W        W81880  11.611  13.938  10.422
16896W        W81881   6.316  43.136  12.886
16897W        W81882  39.393   2.966  13.573
16898W        W81883  38.033  33.126   1.045
16899W        W81884  36.072  15.391   3.366
16900W        W81885  36.641   5.242  11.639
16901W        W81886  32.916  42.828  13.466
16902W        W81887  25.897  26.509   2.771
16903W        W81888  17.153   1.076   4.321
16904W        W81889  17.820  35.849  10.387
16905W        W81890  28.852  31.617   3.051
16906W        W81891   0.119   1.976   1.046
16907W        W81892  16.682  35.037  14.734
16908W        W81893  30.003  40.628  12.098
16909W        W81894  14.624  10.230   4.587
16910W        W81895  28.929  27.551   2.967
16911W        W81896  40.826  32.868   2.832
16912W        W81897  22.098  37.305   4.556
16913W        W81898  21.174  13.589  13.246
16914W        W81899  33.644  17.522   4.639
16915W        W81900  25.924  30.866  12.518
16916W        W81901   4.200  44.900  13.335
16917W        W81902   8.355  30.967  11.710
16918W        W81903   9.240  21.024   1.686
16919W        W81904   3.947  34.850   2.250
16920W        W81905  28.168  34.296   0.858
16921W        W81906  22.076  28.252  14.876
16922W        W81907  44.844  26.598   0.434
16923W        W81908  20.647   9.183   3.350
16924W        W81909  16.357   2.264   2.824
16925W        W81910  39.586  37.168  14.746
16926W        W81911  20.729   7.476   5.128
16927W        W81912   4.056   9.893   4.117
16928W        W81913  23.421  24.577   1.750
16929W        W81914  32.385  21.524  13.906
16930W        W81915  32.648  31.894  13.452
16931W        W81916  25.646  34.851   0.786
16932W        W81917  34.070  20.796   2.512
16933W        W81918  18.207  22.971  14.442
16934W        W81919  18.737  18.233  13.019
16935W        W81920  37.305  13.397  11.961
16936W        W81921  40.515  34.431   0.454
16937W        W81922  20.069  16.807   0.772
16938W        W81923  40.268  26.401  13.837
16939W        W81924  33.618   6.427   0.901
16940W        W81925  39.044  32.467  11.623
16941W        W81926  35.733  35.112  13.752
16942W        W81927  36.458  18.237  11.822
16943W        W81928  22.853  13.262  14.789
16944W        W81929  18.782  24.206   1.672
16945W        W81930  28.896  31.526  13.090
16946W        W81931  11.125  33.566   1.427
16947W        W81932  42.774   6.186   5.045
16948W        W81933   9.521  28.701   4.553
16949W        W81934  30.455  35.591  10.996
16950W        W81935  21.143  24.571  14.039
16951W        W81936  43.289  30.510  10.650
16952W        W81937  33.499   1.430   0.025
16953W        W81938  40.719  32.832   4.406
16954W        W81939   0.296   0.188  12.221
16955W        W81940  31.477  31.608  13.584
16956W        W81941  13.700  14.683  11.683
16957W        W81942   7.634  20.782   3.245
16958W        W81943  15.350  41.502   4.395
16959W        W81944  12.181   6.914   3.307
16960W        W81945  23.982  31.558  12.386
16961W        W81946  40.336  44.443  12.349
16962W        W81947  22.668   4.666  12.077
16963W        W81948  28.667  28.912  10.632
16964W        W81949  36.340  37.850  11.453
16965W        W81950  25.095  19.561  12.577
16966W        W81951   6.348   0.425  10.976
16967W        W81952  44.060  37.779  13.367
16968W        W81953  17.072  35.034   3.223
16969W        W81954  36.539  39.002   2.148
16970W        W81955  34.658   2.351   0.711
16971W        W81956  39.643   2.177   3.756
16972W        W81957   3.431  40.797  14.373
16973W        W81958  27.194   7.949  13.894
16974W        W81959  35.718  42.772   0.612
16975W        W81960  33.404  40.281  12.123
16976W        W81961   8.852  41.047   0.976
16977W        W81962  19.288  29.871  10.960
16978W        W81963  39.455  44.488  10.986
16979W        W81964  43.543  41.760  14.534
16980W        W81965  11.205  27.185   0.469
16981W        W81966  27.492   5.858  13.910
16982W        W81967  29.999  40.757   2.866
16983W        W81968  17.551  28.035   3.246
16984W        W81969   4.225  23.204   0.541
16985W        W81970  29.598  42.099  13.394
16986W        W81971   1.870  22.402   3.373
16987W        W81972   9.990  18.786   1.829
16988W        W81973  36.124  39.719   4.564
16989W        W81974  32.882  35.813   4.065
16990W        W81975  33.859   2.252  11.683
16991W        W81976   0.722  35.594  11.692
16992W        W81977  12.601  31.364   1.809
16993W        W81978  26.225  20.007  14.936
16994W        W81979  19.814  30.432  12.032
16995W        W81980  31.939  14.399   2.283
16996W        W81981  44.866   3.643   2.724
16997W        W81982  20.234  27.508   3.245
16998W        W81983  36.631  41.308   1.089
16999W        W81984   3.972   9.665   4.575
17000W        W81985  25.237  42.340  14.330
17001W        W81986  27.906  37.085   0.762
17002W        W81987   5.424  41.989   2.857
17003W        W81988  31.110  18.518   1.437
17004W        W81989  17.344  38.616  13.457
17005W        W81990   8.677  36.154   3.759
17006W        W81991  19.630  18.041   1.783
17007W        W81992  32.010  23.738   1.330
17008W        W81993  34.065  17.222   2.910
17009W        W81994  12.568  26.527   2.400
17010W        W81995   1.418   0.487  13.279
17011W        W81996  40.832  13.766   9.801
17012W        W81997  10.833  23.066   0.817
17013W        W81998  19.363   5.474   3.755
17014W        W81999  44.738  29.643   3.773
17015W        W82000  23.772   7.503  11.151
17016W        W82001  43.179  32.194  14.395
17017W        W82002   2.363  33.463  12.168
17018W        W82003   2.494  38.381  12.944
17019W        W82004  30.028  34.658  13.392
17020W        W82005   2.085  43.854   4.627
17021W        W82006  25.899  20.815  14.313
17022W        W82007  21.596  28.864  14.521
17023W        W82008   9.328  24.222  12.082
17024W        W82009  25.590  28.650  14.836
17025W        W82010   5.987  23.571   3.725
17026W        W82011  23.560  39.324   1.923
17027W        W82012   2.321  25.951  12.559
17028W        W82013  30.282  33.640   3.819
17029W        W82014  25.194  15.048  10.987
17030W        W82015  14.482  31.934   3.537
17031W        W82016  29.115  41.448  13.801
17032W        W82017  14.670  33.434   1.791
17033W        W82018   9.303  24.111   4.875
17034W        W82019  31.180  26.380   2.611
17035W        W82020  38.630   5.126   4.627
17036W        W82021  20.105   0.010   1.812
17037W        W82022  30.611  22.958   4.337
17038W        W82023  32.970  23.194   0.757
17039W        W82024  10.088  11.382   3.558
17040W        W82025  31.934  41.849   3.097
17041W        W82026  15.085   9.332   1.763
17042W        W82027  17.507  15.063  11.106
17043W        W82028   0.349  27.478   1.446
17044W        W82029  19.225   8.395  14.558
17045W        W82030  18.105  15.111   4.226
17046W        W82031   4.682  29.442   2.359
17047W        W82032  21.781  18.629   4.048
17048W        W82033  21.704  25.554   4.226
17049W        W82034  42.586   9.488  11.887
17050W        W82035  33.109  12.409  10.994
17051W        W82036  25.058  14.029   2.723
17052W        W82037  39.459  41.584   0.443
17053W        W82038  25.602  40.102   2.767
17054W        W82039   3.537  34.967  10.768
17055W        W82040  32.031   8.247  10.963
17056W        W82041  42.379   5.588  13.663
17057W        W82042  22.901  35.970  12.597
17058W        W82043  18.542   2.202   2.789
17059W        W82044  31.967  40.491   3.599
17060W        W82045  34.625  30.271  12.968
17061W        W82046  11.623   6.486   2.249
17062W        W82047  42.876  13.565   1.921
17063W        W82048  20.333  25.119   1.112
17064W        W82049   2.781   9.738   2.752
17065W        W82050  32.934  35.314   2.653
17066W        W82051   0.329  42.271   4.531
17067W        W82052  35.931   3.954   0.627
17068W        W82053  32.894  20.664   5.024
17069W        W82054  24.136  25.381   2.868
17070W        W82055  23.184  35.165  11.119
17071W        W82056   8.173  26.621  14.030
17072W        W82057   0.505   4.246  11.617
17073W        W82058  41.452  43.682  14.393
17074W        W82059  27.020  10.953  12.403
17075W        W82060  33.714  36.380  12.838
17076W        W82061  34.722  14.100  10.059
17077W        W82062  10.465  27.051   3.532
17078W        W82063  44.282  38.914  14.576
17079W        W82064  28.412  16.066  12.673
17080W        W82065  34.028  13.792  14.233
17081W        W82066  30.783  34.909   3.247
17082W        W82067   5.371  30.866   3.932
17083W        W82068  21.868  12.188  14.369
17084W        W82069   0.754   5.008  11.138
17085W        W82070  35.512  43.649  11.652
17086W        W82071  39.962   3.855   0.262
17087W        W82072   2.273  26.458  11.220
17088W        W82073  44.046  30.270   2.472
17089W        W82074  30.428   9.839   0.454
17090W        W82075  34.044  26.150   2.671
17091W        W82076   0.272  32.129   0.632
17092W        W82077  40.002   1.748  10.361
17093W        W82078  14.253  10.585   4.193
17094W        W82079  28.265  15.855  13.464
17095W        W82080  43.923  26.122  14.508
17096W        W82081  20.308  33.405  12.098
17097W        W82082   3.466  33.698  10.950
17098W        W82083  40.872  35.374   3.185
17099W        W82084  13.916  43.256  14.833
17100W        W82085   3.792   3.817   2.758
17101W        W82086  42.741  44.819  13.986
17102W        W82087  10.211  13.613  12.897
17103W        W82088   1.063  38.521  11.994
17104W        W82089  37.266  18.298   4.347
17105W        W82090  43.460  12.138   3.214
17106W        W82091   2.865  21.291  11.966
17107W        W82092  33.378  23.603  12.989
17108W        W82093  38.017  30.255   0.444
17109W        W82094   8.701  15.720   1.394
17110W        W82095   9.416  27.572  13.834
17111W        W82096   8.433  36.590  13.997
17112W        W82097  41.066  33.609   0.272
17113W        W82098  18.179  30.370   0.871
17114W        W82099  17.550   9.127  12.225
17115W        W82100  17.651   0.584  10.666
17116W        W82101   5.442  38.538   1.369
17117W        W82102  17.415  25.367  14.337
17118W        W82103  19.545  15.191  12.891
17119W        W82104  37.785   6.278  13.382
17120W        W82105  32.218  19.811   2.355
17121W        W82106   4.389  30.771   1.438
17122W        W82107   3.840   6.091   4.614
17123W        W82108  19.926  34.614   3.985
17124W        W82109   9.769  42.856  12.923
17125W        W82110  32.569  13.735  13.933
17126W        W82111  37.020   0.808   4.150
17127W        W82112  31.497  33.993  10.994
17128W        W82113  25.439   1.795  12.641
17129W        W82114   8.020  34.888  11.100
17130W        W82115  41.456  40.735   1.867
17131W        W82116  22.664   4.957  12.494
17132W        W82117  21.278  27.363   2.184
17133W        W82118   1.824  10.728   0.803
17134W        W82119  17.262  37.083  11.613
17135W        W82120  19.041  39.770  13.416
17136W        W82121  22.979   4.574   2.489
17137W        W82122  39.391  26.700  10.146
17138W        W82123  29.330  15.781  12.546
17139W        W82124  20.406  22.154   5.034
17140W        W82125  15.655  28.438  13.159
17141W        W82126   3.201   2.445  12.116
17142W        W82127  43.424  30.571   2.234
17143W        W82128  27.954  11.170  14.788
17144W        W82129  27.685  26.746  10.720
17145W        W82130  44.196  44.341  14.039
17146W        W82131  35.484   8.695  14.265
17147W        W82132   7.910   8.044  10.261
17148W        W82133   1.870  36.955   4.792
17149W        W82134   3.378  26.868  13.896
17150W        W82135  23.085   3.039   3.400
17151W        W82136  21.881  40.990  13.830
17152W        W82137  26.980  24.559   0.314
17153W        W82138  43.185  39.930  13.689
17154W        W82139  43.378  31.431   2.768
17155W        W82140  35.864   8.346  14.294
17156W        W82141  33.073  13.319   4.736
17157W        W82142  28.765  28.579   0.139
17158W        W82143  34.854  12.356  14.059
17159W        W82144  39.526  14.857  13.550
17160W        W82145   7.144  38.660  14.779
17161W        W82146  21.622  39.927   4.589
17162W        W82147   4.477  28.360   1.623
17163W        W82148   8.106  44.121  10.868
17164W        W82149  19.289   1.483  14.954
17165W        W82150  42.883  12.037   2.726
17166W        W82151  22.866  24.625  14.785
17167W        W82152  39.507  33.555  12.914
17168W        W82153  31.167  37.538  11.687
17169W        W82154   0.378  24.471   0.183
17170W        W82155  36.156   6.495  13.990
17171W        W82156  13.376  28.625   0.268
17172W        W82157  36.918  25.994  14.182
17173W        W82158  44.384   4.780  13.580
17174W        W82159  18.229  26.087   2.329
17175W        W82160  22.886  22.370  13.038
17176W        W82161  26.809  18.103   3.333
17177W        W82162  20.319  19.541   1.394
17178W        W82163  32.085  20.533  10.965
17179W        W82164  40.659  21.123   4.479
17180W        W82165  27.159  26.669   5.089
17181W        W82166  30.820  23.209  10.652
17182W        W82167  14.942  18.413  13.532
17183W        W82168  20.863  22.017  12.733
17184W        W82169  32.028  42.997  12.004
17185W        W82170   2.698  15.528   4.551
17186W        W82171  36.629   8.718   1.286
17187W        W82172  12.442  37.502   0.271
17188W        W82173  12.240  13.181  11.395
17189W        W82174  39.498  28.603   1.356
17190W        W82175  31.551   7.105   0.787
17191W        W82176  37.066  32.591   1.848
17192W        W82177  17.224  32.042  11.831
17193W        W82178  44.273  30.927  13.776
17194W        W82179  43.320  36.548   3.165
17195W        W82180  38.129   8.759   0.064
17196W        W82181   5.741  10.111   2.297
17197W        W82182   7.187  24.296  14.836
17198W        W82183  16.743  26.361   5.146
17199W        W82184  22.528   7.871   4.119
17200W        W82185   3.657   4.362   9.908
17201W        W82186  27.348  21.475   3.288
17202W        W82187  10.746  24.265  14.335
17203W        W82188  34.945  20.104   2.430
17204W        W82189   1.423  30.456  10.635
17205W        W82190  11.994  39.158   4.257
17206W        W82191  34.093  12.915   1.700
17207W        W82192  33.112   4.369  13.921
17208W        W82193  17.149   7.231   0.464
17209W        W82194  22.916  34.706  13.544
17210W        W82195  38.938  10.092   0.934
17211W        W82196  19.282  29.362  10.860
17212W        W82197  38.138  18.510  14.970
17213W        W82198  34.563   9.070   1.268
17214W        W82199  30.214  10.374   1.308
17215W        W82200  36.782  37.557   2.629
17216W        W82201   3.354   6.552   0.588
17217W        W82202  32.677  24.626  14.385
17218W        W82203  38.988  27.558  11.391
17219W        W82204   4.726   9.232  13.318
17220W        W82205  15.961   7.346  14.831
17221W        W82206   8.323  32.425  13.160
17222W        W82207  22.490  20.118  12.249
17223W        W82208  17.350  27.438  12.077
17224W        W82209  40.641  35.281  13.503
17225W        W82210  37.301  43.054  14.932
17226W        W82211  11.073  10.429  14.190
17227W        W82212  35.188  20.651  12.527
17228W        W82213  18.867   7.797   1.812
17229W        W82214  22.100  33.161   0.433
17230W        W82215  10.398  21.230   4.122
17231W        W82216  31.067  38.178   0.814
17232W        W82217  25.489   5.878  11.122
17233W        W82218   4.930   8.765  14.639
17234W        W82219  27.737  37.451  11.911
17235W        W82220   3.822  14.306   5.221
17236W        W82221  34.636  12.413  11.511
17237W        W82222  21.652  17.333  12.072
17238W        W82223  22.587   2.827  12.464
17239W        W82224  36.869  24.113   0.024
17240W        W82225  24.726  29.885   3.517
17241W        W82226  12.239  15.908  14.721
17242W        W82227  24.485   8.503  12.343
17243W        W82228  44.974   0.716   1.015
17244W        W82229  11.282   8.135   4.031
17245W        W82230  14.760  20.302   4.233
17246W        W82231   1.180  44.170   2.283
17247W        W82232  10.349  33.370  14.032
17248W        W82233  24.660  41.508   0.945
17249W        W82234   0.077  34.880  10.736
17250W        W82235  28.313  41.299   1.207
17251W        W82236   0.806  34.314  11.120
17252W        W82237  10.556  26.536   0.436
17253W        W82238  33.621  20.105   2.105
17254W        W82239  24.678  16.177   2.361
17255W        W82240  37.008  20.637  11.114
17256W        W82241  14.285  15.678   1.842
17257W        W82242  34.649  21.532  12.096
17258W        W82243  35.615  40.802   3.320
17259W        W82244  42.806  17.075   2.621
17260W        W82245   4.723   3.380   4.581
17261W        W82246  37.583  29.889  14.494
17262W        W82247  22.044   7.897   4.669
17263W        W82248   5.870  24.741  14.569
17264W        W82249   1.774  19.259  10.943
17265W        W82250  26.149   5.876   1.671
17266W        W82251  21.810  18.243  14.795
17267W        W82252  35.287  14.605   4.300
17268W        W82253  30.036   5.913  14.847
17269W        W82254   8.979  25.267  14.125
17270W        W82255  23.655  32.543   1.384
17271W        W82256  32.309  24.548   1.229
17272W        W82257  21.652  15.282   3.278
17273W        W82258  17.180  37.923  12.042
17274W        W82259   2.016  43.376   0.303
17275W        W82260  11.181  38.679  11.969
17276W        W82261  10.363  41.439  12.639
17277W        W82262  22.927  22.628   2.815
17278W        W82263  10.754  13.089   0.865
17279W        W82264  39.566  24.953  11.960
17280W        W82265  25.747  31.251  12.852
17281W        W82266  32.308  31.173  11.997
17282W        W82267  13.609  12.287   3.812
17283W        W82268  42.403  24.103   4.869
17284W        W82269  23.658  29.105   4.142
17285W        W82270  17.830   9.053  13.504
17286W        W82271  14.244   6.454  14.289
17287W        W82272  27.477  20.113   0.319
17288W        W82273  13.515   5.662   3.824
17289W        W82274   4.423  31.885  14.425
17290W        W82275  44.943  25.291  10.661
17291W        W82276  36.065  29.403  12.984
17292W        W82277  37.702  11.097  14.661
17293W        W82278  18.197   9.762  10.791
17294W        W82279  14.885  27.107   0.767
17295W        W82280  21.527  23.458  11.653
17296W        W82281  40.830  26.800  10.642
17297W        W82282   1.856  43.523  12.622
17298W        W82283  32.681  19.637  13.673
17299W        W82284  28.445  13.855  14.876
17300W        W82285   7.716  10.571  13.399
17301W        W82286  33.133  33.973   2.594
17302W        W82287  10.133  43.074   3.286
17303W        W82288   6.189   0.883  10.742
17304W        W82289  21.561   1.652  12.884
17305W        W82290   2.959  33.927   3.998
17306W        W82291  34.997   5.469  12.347
17307W        W82292  20.814   7.610  14.307
17308W        W82293  41.622  30.572  11.902
17309W        W82294   2.938  35.300   3.709
17310W        W82295  40.024   0.176  11.572
17311W        W82296  17.335  22.189   1.842
17312W        W82297  31.598  39.860   2.832
17313W        W82298  24.945   7.411  13.133
17314W        W82299  41.464  42.994   3.172
17315W        W82300  35.563  38.612  13.439
17316W        W82301  16.333   4.834  13.426
17317W        W82302  35.560  19.882   0.932
17318W        W82303  10.597  34.809   3.504
17319W        W82304   9.716  44.433   2.688
17320W        W82305  18.818  29.936  11.144
17321W        W82306  39.747  37.044   4.440
17322W        W82307  26.696  31.376  11.124
17323W        W82308  15.052   1.432  11.138
17324W        W82309  40.114  31.431  12.450
17325W        W82310  42.973  26.957  10.818
17326W        W82311   8.310  26.390  12.908
17327W        W82312  34.372  19.348  14.459
17328W        W82313   6.211  38.933  12.002
17329W        W82314   8.498  35.513  13.810
17330W        W82315  29.134  31.594  11.669
17331W        W82316  16.574  38.426  11.629
17332W        W82317  29.542  25.738   2.375
17333W        W82318  17.147  17.537   2.126
17334W        W82319  30.290  28.136  11.198
17335W        W82320  33.596  37.443   3.161
17336W        W82321  30.584   3.205   4.659
17337W        W82322  40.577  36.535  14.836
17338W        W82323  32.709  10.361  14.703
17339W        W82324   1.372  18.077   4.894
17340W        W82325  44.037   0.438  11.641
17341W        W82326  18.603  11.056   1.414
17342W        W82327   5.939  44.078   3.862
17343W        W82328  27.902  44.851  11.606
17344W        W82329  33.188  37.476   0.542
17345W        W82330   4.400  10.267   0.722
17346W        W82331  43.636  17.849   5.446
17347W        W82332   6.605  27.665  10.785
17348W        W82333  40.099  24.617   3.873
17349W        W82334   7.815  27.701  13.234
17350W        W82335  43.446  18.130   1.884
17351W        W82336  43.746  28.208   3.301
17352W        W82337  20.634  26.186   4.598
17353W        W82338  11.178   8.143  10.773
17354W        W82339  28.460   9.202   2.614
17355W        W82340  33.361  37.281  13.838
17356W        W82341   9.860  44.897   2.905
17357W        W82342  42.931  33.079   1.043
17358W        W82343   3.299  44.519  10.499
17359W        W82344  36.973  42.144  12.795
17360W        W82345  33.775  15.640   4.824
17361W        W82346   1.456  15.121  11.140
17362W        W82347  13.763   2.676  10.882
17363W        W82348  14.539  37.622  14.627
17364W        W82349   9.747  32.646   4.802
17365W        W82350  38.512   2.014  13.370
17366W        W82351  15.836  24.691  11.141
17367W        W82352  32.211   2.944  14.861
17368W        W82353  40.977  42.819  12.281
17369W        W82354  32.531  42.815   2.437
17370W        W82355  39.336   1.390  14.218
17371W        W82356  31.849  28.263  12.850
17372W        W82357  17.224  18.540  12.475
17373W        W82358  27.564  19.435   1.858
17374W        W82359  13.729   5.837   5.192
17375W        W82360  12.035  26.947  12.483
17376W        W82361  20.224  43.548   3.186
17377W        W82362  11.836  43.254   3.125
17378W        W82363   1.147   8.145   1.880
17379W        W82364  34.841  38.087  11.622
17380W        W82365  16.616  28.618  11.698
17381W        W82366  27.656  23.183   4.823
17382W        W82367  20.315  44.525  12.106
17383W        W82368  43.979  13.261   3.214
17384W        W82369  16.318  21.304   4.130
17385W        W82370  12.058  38.530   3.270
17386W        W82371   7.814   1.469   3.670
17387W        W82372   1.475  41.513   3.174
17388W        W82373  37.906   8.948  13.028
17389W        W82374  34.419  29.392   3.683
17390W        W82375  42.874  40.290   3.112
17391W        W82376  23.689  15.372   3.685
17392W        W82377  12.057  36.003  10.696
17393W        W82378  25.116   9.814  14.894
17394W        W82379  29.594  23.948   3.611
17395W        W82380   3.268   0.724   0.274
17396W        W82381  26.146  44.403   4.346
17397W        W82382   5.650   1.483   4.227
17398W        W82383   8.238  43.420   1.310
17399W        W82384  26.217  42.068   3.621
17400W        W82385  33.446   6.770   4.734
17401W        W82386  30.508  13.397   4.308
17402W        W82387  35.197  24.034  12.567
17403W        W82388  10.602  13.323  13.794
17404W        W82389  33.398  30.294   4.160
17405W        W82390   7.297  39.515   0.831
17406W        W82391  16.308   4.747   0.872
17407W        W82392  15.325   0.984  11.856
17408W        W82393   9.788  16.670  12.386
17409W        W82394  38.836  26.720   3.670
17410W        W82395  10.750  38.828   3.624
17411W        W82396  10.685  22.960   4.410
17412W        W82397  14.531  27.178  12.503
17413W        W82398  29.445   1.303  10.986
17414W        W82399  30.693   9.632   1.126
17415W        W82400  20.698  34.825  13.541
17416W        W82401  25.978  12.851  13.829
17417W        W82402  17.674   6.864  10.374
17418W        W82403  17.238  41.082  12.436
17419W        W82404  34.870   9.193   2.722
17420W        W82405   2.344   0.551   4.364
17421W        W82406  30.712  37.571  10.783
17422W        W82407  19.824  28.949  14.891
17423W        W82408  25.441  33.354  13.548
17424W        W82409  13.325  10.467   0.796
17425W        W82410  24.006  31.128  12.065
17426W        W82411   9.843   2.682   3.104
17427W        W82412  36.155  23.616  14.283
17428W        W82413   7.640  35.683   4.539
17429W        W82414  24.330  29.218  12.228
17430W        W82415   1.671  43.074   2.685
17431W        W82416  12.190  37.816  14.952
17432W        W82417  31.604   4.769   4.582
17433W        W82418  22.198   3.985   2.688
17434W        W82419  18.253   2.590  14.823
17435W        W82420   2.824  13.235  14.292
17436W        W82421  28.298   4.275   1.617
17437W        W82422  26.639  36.291   1.542
17438W        W82423  30.090  31.881   1.784
17439W        W82424   5.851  42.986   2.242
17440W        W82425   7.810  19.775  10.761
17441W        W82426   3.172  28.952   1.628
17442W        W82427  16.901  31.138  13.816
17443W        W82428  18.575  29.016  12.836
17444W        W82429   9.237  41.404  12.207
17445W        W82430  22.947  12.675  12.149
17446W        W82431  20.451  11.180  11.279
17447W        W82432  17.093  31.373  11.528
17448W        W82433  25.263  25.220  14.979
17449W        W82434   6.174  25.541  14.801
17450W        W82435  27.997  35.623   0.481
17451W        W82436  19.166  34.944   3.997
17452W        W82437  35.633   6.655  14.844
17453W        W82438  12.888  14.278   4.642
17454W        W82439  26.564  11.821   3.826
17455W        W82440  13.712   3.946  11.931
17456W        W82441  16.588  12.711   1.857
17457W        W82442  27.436  18.727   2.881
17458W        W82443  22.390  20.435   2.185
17459W        W82444  21.884  40.825   2.638
17460W        W82445  32.131  21.672  13.461
17461W        W82446   0.896   5.208  13.380
17462W        W82447  42.354  12.359   0.363
17463W        W82448   6.472  32.975   2.771
17464W        W82449  22.495  27.072  14.049
17465W        W82450  19.440   5.181   1.751
17466W        W82451   5.283  42.315  14.483
17467W        W82452  34.816  15.744  11.582
17468W        W82453  11.493  11.329  10.522
17469W        W82454  39.820  17.634   1.743
17470W        W82455   2.185  20.349  14.406
17471W        W82456  44.444   4.335  13.020
17472W        W82457   1.472  12.222  13.660
17473W        W82458  34.665  44.586  13.865
17474W        W82459  17.026  38.858  14.010
17475W        W82460  26.679  27.575   0.729
17476W        W82461   8.887  16.774   2.703
17477W        W82462  38.377   9.940   4.187
17478W        W82463   4.459   1.947  12.089
17479W        W82464   4.883  30.608   2.212
17480W        W82465  33.626  11.703   0.556
17481W        W82466   9.449   4.674  13.213
17482W        W82467  24.703   1.308  12.442
17483W        W82468  18.355  30.520   1.351
17484W        W82469  16.845  42.504   0.043
17485W        W82470  18.753   9.183   3.582
17486W        W82471  41.344  38.424   4.055
17487W        W82472  35.984  35.380   3.699
17488W        W82473  20.769  14.673   0.471
17489W        W82474  24.993  22.798  14.966
17490W        W82475  25.832  32.112  12.411
17491W        W82476  28.764  23.991  14.888
17492W        W82477  13.317  39.071  14.313
17493W        W82478  19.627   9.106  11.720
17494W        W82479  20.028  26.771   4.144
17495W        W82480  27.796   1.244  14.860
17496W        W82481  14.579   9.148  11.521
17497W        W82482  29.681  14.862  10.682
17498W        W82483  30.947  10.196   4.171
17499W        W82484  11.378   2.262  13.557
17500W        W82485  33.580  12.842   1.344
17501W        W82486  14.866  25.396   4.108
17502W        W82487  27.111  13.009   2.781
17503W        W82488  15.991  33.973   2.209
17504W        W82489   8.838  30.525   1.493
17505W        W82490  39.463  15.395   0.450
17506W        W82491  29.181  36.917   0.047
17507W        W82492  20.181  29.906   0.497
17508W        W82493  37.902  34.764   4.636
17509W        W82494  42.002  15.706  10.672
17510W        W82495  14.751  17.524  12.448
17511W        W82496   1.571  39.885   1.409
17512W        W82497  20.354   4.442   3.653
17513W        W82498   0.790  15.144   3.277
17514W        W82499  27.567  34.202  12.120
17515W        W82500  14.841  40.684  13.801
17516W        W82501  14.399  38.763  12.542
17517W        W82502  15.882   1.850   3.919
17518W        W82503  27.576  23.628   0.683
17519W        W82504  38.602  42.131   4.446
17520W        W82505  14.747  12.662  11.610
17521W        W82506   1.825  15.264   0.503
17522W        W82507  30.164   2.910   4.559
17523W        W82508  18.117  13.188  10.549
17524W        W82509  26.631   7.856   3.656
17525W        W82510  13.261   3.034   3.149
17526W        W82511   1.254  26.417   0.937
17527W        W82512  12.817  34.312  11.687
17528W        W82513  41.308  40.439  11.517
17529W        W82514  37.270  11.888   3.225
17530W        W82515   5.843   5.431  12.537
17531W        W82516  22.766   0.012  13.903
17532W        W82517  34.264  15.939  13.125
17533W        W82518  14.354   4.719  14.901
17534W        W82519  43.016  16.525   3.329
17535W        W82520  23.351   2.201   2.614
17536W        W82521  34.576  11.363   0.948
17537W        W82522  33.470  40.047  12.590
17538W        W82523  39.278  14.117  12.174
17539W        W82524   7.157  13.672   4.411
17540W        W82525   8.806  16.570   4.034
17541W        W82526   0.393  10.670   4.610
17542W        W82527   9.136  35.651  14.312
17543W        W82528  35.119  13.706  11.824
17544W        W82529  29.185  25.732   3.521
17545W        W82530  33.449  38.820   0.284
17546W        W82531   5.499  13.344   4.214
17547W        W82532  31.013   5.227  14.785
17548W        W82533  31.193   5.760  10.686
17549W        W82534   6.283  29.448  10.520
17550W        W82535  19.389  34.108  12.937
17551W        W82536  10.341  41.984  12.901
17552W        W82537  38.438   7.276  14.267
17553W        W82538  40.054   5.990  11.060
17554W        W82539  40.980  10.894  10.856
17555W        W82540   7.691  33.778   3.148
17556W        W82541  33.153   3.947   0.263
17557W        W82542  24.040   2.764  11.561
17558W        W82543  44.436  36.298  11.576
17559W        W82544  22.271  11.240  14.107
17560W        W82545   8.358  30.042   4.130
17561W        W82546  28.062  41.585   0.798
17562W        W82547  37.634   3.867  13.387
17563W        W82548  10.921  14.330   1.820
17564W        W82549  42.787  38.831   0.461
17565W        W82550  30.750  33.864   3.766
17566W        W82551  25.710   6.541   4.012
17567W        W82552  16.830  32.684  12.903
17568W        W82553  18.551  38.515  14.917
17569W        W82554  30.416  44.748   2.928
17570W        W82555   1.647  10.720  13.971
17571W        W82556  17.500  13.212   0.357
17572W        W82557  27.474  38.402   1.037
17573W        W82558  14.358  24.610  10.722
17574W        W82559  28.560  42.898   1.957
17575W        W82560  22.559  12.317   0.748
17576W        W82561  13.908  20.090  11.757
17577W        W82562  11.939  10.652   0.141
17578W        W82563  42.282  44.902   2.813
17579W        W82564  33.349  42.135  12.455
17580W        W82565   8.444  23.119  11.938
17581W        W82566  44.341  10.679  10.729
17582W        W82567  39.922  29.413   0.943
17583W        W82568  17.630   3.137   4.541
17584W        W82569   3.458  23.670   0.222
17585W        W82570   4.158  21.261   2.016
17586W        W82571  16.792  34.735   0.372
17587W        W82572  21.936  16.204   1.352
17588W        W82573  28.932  11.633  14.018
17589W        W82574   4.434  11.287  12.907
17590W        W82575  43.087  16.688   2.425
17591W        W82576  18.048  39.599  14.965
17592W        W82577  22.903  31.083   2.104
17593W        W82578  18.292  36.462   2.449
17594W        W82579   7.137   4.408   3.426
17595W        W82580  44.298  20.383   4.468
17596W        W82581  14.356  19.877   0.330
17597W        W82582   1.324  28.475   4.184
17598W        W82583  13.374   2.237  12.914
17599W        W82584  42.861  38.499   0.055
17600W        W82585  24.503  14.102  13.453
17601W        W82586  30.501  31.962  11.055
17602W        W82587  16.121  31.799  14.883
17603W        W82588  41.881  18.259  12.022
17604W        W82589  24.230  38.693  10.288
17605W        W82590  22.075  26.180  12.600
17606W        W82591  10.368  13.779   1.328
17607W        W82592  35.536  23.227   4.180
17608W        W82593  12.399  17.800   3.183
17609W        W82594  13.861  12.641  12.511
17610W        W82595  10.396  29.072   2.124
17611W        W82596  42.459  37.348   0.466
17612W        W82597  36.950  23.664   4.321
17613W        W82598   8.288  35.639  14.794
17614W        W82599  21.309  41.220  12.049
17615W        W82600  27.746  26.086   3.293
17616W        W82601  12.818  24.481   1.901
17617W        W82602  26.705   2.766  14.986
17618W        W82603  33.491  13.948  14.937
17619W        W82604   2.604  29.045   0.933
17620W        W82605  25.578  19.027   1.699
17621W        W82606  15.577   3.703   0.285
17622W        W82607  29.659  11.957  10.269
17623W        W82608  29.961  42.039  12.571
17624W        W82609  15.725   1.238   4.735
17625W        W82610   0.409  37.666   1.010
17626W        W82611  18.989  35.028  10.612
17627W        W82612   8.648  33.680  13.505
17628W        W82613   3.468   5.209  12.495
17629W        W82614  16.216  22.956  12.370
17630W        W82615  16.557  27.346   1.235
17631W        W82616  40.610   0.917   4.620
17632W        W82617  22.916  36.404  12.906
17633W        W82618   7.138  26.490   3.792
17634W        W82619  30.680  39.735  14.009
17635W        W82620  14.598  13.584  11.175
17636W        W82621  35.551  28.302  13.413
17637W        W82622  26.649  41.078   4.634
17638W        W82623   8.667  26.602   3.558
17639W        W82624   6.088  43.228  13.338
17640W        W82625  14.054   5.785  10.127
17641W        W82626  44.875  39.306   2.427
17642W        W82627   6.927  35.047   3.665
17643W        W82628  43.539  36.417   1.248
17644W        W82629   4.434  16.266   3.353
17645W        W82630  23.725  29.100   1.893
17646W        W82631  43.765  24.169  11.070
17647W        W82632  37.216  39.053  10.137
17648W        W82633  37.266  29.514   2.231
17649W        W82634   8.014  35.332   4.670
17650W        W82635  13.148   5.627  12.097
17651W        W82636  14.073  18.240   2.781
17652W        W82637   0.076  20.561   2.484
17653W        W82638  32.067  17.876  13.360
17654W        W82639  12.659  25.593  10.558
17655W        W82640  44.814  30.698   3.056
17656W        W82641  20.202   1.281  14.784
17657W        W82642  39.256   0.795  11.605
17658W        W82643  31.916  36.880   1.406
17659W        W82644  42.558  17.763   1.662
17660W        W82645  14.793  30.074  14.815
17661W        W82646  27.543   7.165   2.362
17662W        W82647  15.743  18.573  13.091
17663W        W82648   4.169   8.823  12.522
17664W        W82649  19.480  27.992  13.038
17665W        W82650  19.116  14.427   0.301
17666W        W82651  20.797   7.680   5.606
17667W        W82652  18.701  40.612   0.033
17668W        W82653  22.833  29.182  13.585
17669W        W82654  39.578  29.182   4.683
17670W        W82655  41.389  27.891  11.434
17671W        W82656   0.298   5.110   4.647
17672W        W82657  23.467  28.989  12.362
17673W        W82658  16.281  26.198   4.936
17674W        W82659   8.747   0.343   0.859
17675W        W82660   2.920  33.529  10.654
17676W        W82661  12.888  18.496   2.212
17677W        W82662  21.114  26.547   1.976
17678W        W82663  17.357  29.075  13.390
17679W        W82664   6.977  15.980  13.982
17680W        W82665   4.375  39.542  13.601
17681W        W82666  31.112  31.371   1.293
17682W        W82667  31.413   2.717  12.381
17683W        W82668  35.193  29.107  13.485
17684W        W82669  11.147  15.970  11.059
17685W        W82670  35.557  32.358  12.115
17686W        W82671  22.181   5.327  12.966
17687W        W82672  21.586  22.526  14.322
17688W        W82673  16.155   1.507   4.715
17689W        W82674   1.252  39.693  12.879
17690W        W82675  33.936  44.418  14.433
17691W        W82676  32.161  38.756  12.568
17692W        W82677  21.251  18.184   9.982
17693W        W82678  42.035  15.139   2.281
17694W        W82679   5.594  20.797   4.332
17695W        W82680  26.211  26.520  11.517
17696W        W82681  23.624   4.706  13.896
17697W        W82682  36.061  20.662   1.743
17698W        W82683  20.785   1.436  14.625
17699W        W82684  12.206  28.543  11.462
17700W        W82685  32.013  22.324  10.624
17701W        W82686  24.268  36.962   4.254
17702W        W82687   3.403  38.736   0.940
17703W        W82688   5.270  36.796  12.891
17704W        W82689  15.924  21.543   3.792
17705W        W82690   3.589   6.805   1.887
17706W        W82691   5.812  22.725  11.150
17707W        W82692   3.202  11.235  14.864
17708W        W82693   3.409  42.000  11.720
17709W        W82694   1.627  31.479  11.050
17710W        W82695  42.519  17.731   2.191
17711W        W82696  39.841  21.635  12.573
17712W        W82697   0.459  20.725   4.962
17713W        W82698   8.630   2.675  14.893
17714W        W82699  12.166  13.111  14.335
17715W        W82700   9.872  43.770   0.856
17716W        W82701  18.720  10.622  10.579
17717W        W82702   4.750  11.472   1.016
17718W        W82703  42.549   0.762   3.693
17719W        W82704  35.459  22.687   0.149
17720W        W82705  19.402   9.808  14.370
17721W        W82706  42.810  39.939  13.341
17722W        W82707  24.054  44.362   2.771
17723W        W82708   1.010   6.003   4.997
17724W        W82709  31.067   2.416  10.425
17725W        W82710  39.374  27.310   0.894
17726W        W82711  24.767  26.994  13.311
17727W        W82712  34.150  11.386  10.739
17728W        W82713  40.577  40.470   1.362
17729W        W82714  42.798   7.263  11.068
17730W        W82715  28.077  18.003  12.885
17731W        W82716  17.415  14.588  12.026
17732W        W82717  44.808  19.217   3.895
17733W        W82718  17.849  31.041  14.903
17734W        W82719  33.481  14.146   2.655
17735W        W82720   1.755  27.366  11.165
17736W        W82721  15.112   1.875  11.836
17737W        W82722   1.213  17.989  10.716
17738W        W82723  28.775  44.498  11.630
17739W        W82724  39.244  30.677  11.610
17740W        W82725  40.771   0.036   2.604
17741W        W82726   7.859  26.899   3.393
17742W        W82727  36.861  15.868  11.535
17743W        W82728  31.643  19.097   2.268
17744W        W82729   6.993   4.182  12.625
17745W        W82730  13.705   0.432  10.814
17746W        W82731  14.325   1.403  14.209
17747W        W82732   0.997  13.597   2.347
17748W        W82733   2.735  18.896   3.752
17749W        W82734  28.468  40.369  14.201
17750W        W82735  36.544  33.900   1.230
17751W        W82736  26.777  37.289   0.800
17752W        W82737  13.992  20.575  12.501
17753W        W82738  36.047  28.486  13.803
17754W        W82739  44.036  17.145  14.420
17755W        W82740   7.223  15.866   4.255
17756W        W82741   0.493  15.420   1.347
17757W        W82742  41.900  43.006   0.537
17758W        W82743   3.770   7.355  10.680
17759W        W82744  15.779   3.494  12.584
17760W        W82745   8.829  23.482   3.423
17761W        W82746  22.623  26.354  14.939
17762W        W82747  30.484  36.349   1.408
17763W        W82748  21.127  17.559  12.318
17764W        W82749  24.131  42.822  11.463
17765W        W82750  11.324  18.368  14.870
17766W        W82751  25.688  30.009  11.663
17767W        W82752  14.047  24.287   2.765
17768W        W82753  28.485  20.202   0.017
17769W        W82754  28.962  34.659  11.356
17770W        W82755  31.713  31.519  14.591
17771W        W82756  30.424   5.633   3.602
17772W        W82757  38.793  30.877   2.721
17773W        W82758  37.428  10.092  14.956
17774W        W82759  35.865  28.960  13.941
17775W        W82760  11.396  27.457  13.811
17776W        W82761   8.917   9.227   2.859
17777W        W82762   1.015  40.815   2.757
17778W        W82763  28.392  38.833  13.346
17779W        W82764  19.014  36.517  10.902
17780W        W82765  25.530  22.449   0.743
17781W        W82766   4.222   4.281   4.755
17782W        W82767  27.907  36.365  14.001
17783W        W82768  41.850  17.830   3.835
17784W        W82769  42.966  44.031   3.249
17785W        W82770   4.172   4.880  14.537
17786W        W82771   3.629  12.566  13.844
17787W        W82772  24.500  10.396  12.004
17788W        W82773  39.356   3.459   4.041
17789W        W82774  22.208  41.394   1.368
17790W        W82775   5.391  12.664  12.963
17791W        W82776  11.823   0.293  12.127
17792W        W82777  31.405  14.208   1.651
17793W        W82778  44.400  16.527   3.162
17794W        W82779  16.191  22.204   2.130
17795W        W82780  44.300  30.590   4.377
17796W        W82781  38.443  40.500  11.166
17797W        W82782  17.581  18.838   1.343
17798W        W82783  27.692  27.711   4.322
17799W        W82784   7.383  16.213  14.909
17800W        W82785  26.014  37.846   0.426
17801W        W82786  29.640  34.222  14.259
17802W        W82787   4.619  16.682  14.808
17803W        W82788  25.476  37.119  11.062
17804W        W82789  42.778  44.586  13.394
17805W        W82790  27.202  30.516   0.270
17806W        W82791  22.103  13.708  14.873
17807W        W82792  25.040  14.535   2.697
17808W        W82793  32.989  38.097   2.070
17809W        W82794  38.618  32.612   1.860
17810W        W82795   6.184   5.201   0.489
17811W        W82796  40.375  14.199   4.077
17812W        W82797  36.405   7.428  14.510
17813W        W82798  42.483  43.519  14.870
17814W        W82799   6.768   1.771  14.297
17815W        W82800   6.346  22.520  14.460
17816W        W82801  10.279  19.296   2.171
17817W        W82802  39.566  21.350   3.685
17818W        W82803  20.329  41.758  10.783
17819W        W82804  41.341   4.180  13.779
17820W        W82805   9.117  36.983  12.866
17821W        W82806  20.752  44.281   4.583
17822W        W82807   3.135  40.897  14.888
17823W        W82808   9.700  13.692  12.882
17824W        W82809  34.754  42.550  12.535
17825W        W82810   9.389  35.328   2.673
17826W        W82811   5.797  44.388  13.999
17827W        W82812  44.997  16.327   1.210
17828W        W82813  24.786   1.445  14.892
17829W        W82814  16.262  26.926   2.782
17830W        W82815  22.487   3.348  12.425
17831W        W82816  29.151  11.205   2.775
17832W        W82817   6.480  40.942  13.324
17833W        W82818  23.257  43.863   4.226
17834W        W82819  38.516   6.827  12.531
17835W        W82820  24.843  31.029  13.994
17836W        W82821  22.720   9.863   1.076
17837W        W82822  36.886   8.359  13.409
17838W        W82823  41.204  39.465  14.028
17839W        W82824  39.953  28.334  13.579
17840W        W82825   2.204  15.348  10.800
17841W        W82826  12.796   4.247  13.813
17842W        W82827  24.135  34.776  11.572
17843W        W82828  43.181   3.997  12.210
17844W        W82829  19.283  18.256  12.935
17845W        W82830  10.300  26.669   9.819
17846W        W82831  44.458  27.202   3.121
17847W        W82832  33.031  35.404   1.008
17848W        W82833  36.510  24.448  14.578
17849W        W82834  39.776  19.609  12.558
17850W        W82835  16.615   7.424  11.952
17851W        W82836  41.460  21.151   4.104
17852W        W82837  42.954  16.048   1.282
17853W        W82838  17.811  38.873   2.129
17854W        W82839  43.904  41.209  11.474
17855W        W82840  16.226  17.713   2.384
17856W        W82841   8.784  41.132  14.657
17857W        W82842  16.723  41.282   0.750
17858W        W82843  14.184  21.303  14.427
17859W        W82844  27.101   0.389   3.152
17860W        W82845  23.193   5.707  11.158
17861W        W82846  38.833  18.995  14.242
17862W        W82847  15.904  21.647   0.283
17863W        W82848   0.036  36.559  14.040
17864W        W82849  43.125  39.612   1.849
17865W        W82850  12.307  31.567  11.180
17866W        W82851   6.877  38.554  11.560
17867W        W82852   2.470  29.121  12.523
17868W        W82853  11.511  13.026   4.075
17869W        W82854  19.237  23.819   3.596
17870W        W82855   6.376  11.856  11.244
17871W        W82856  17.165  22.182  14.577
17872W        W82857  22.482  10.512  10.906
17873W        W82858   3.889  26.249   2.450
17874W        W82859  32.462  16.484  12.492
17875W        W82860  20.612   1.387   4.515
17876W        W82861   8.310  18.405   3.140
17877W        W82862  35.355  39.532  13.586
17878W        W82863  19.808  36.773  14.468
17879W        W82864  32.916  35.195   0.144
17880W        W82865  13.494  35.111  13.113
17881W        W82866  27.953  14.006  14.810
17882W        W82867  28.966  32.545  14.437
17883W        W82868   7.450  34.881  10.839
17884W        W82869  11.284  20.033   3.572
17885W        W82870  13.683  18.654  10.399
17886W        W82871   0.413  29.139   4.599
17887W        W82872  36.023   4.445  10.697
17888W        W82873   3.323  36.007  13.485
17889W        W82874   8.623  38.517   3.631
17890W        W82875  30.412  15.250  14.856
17891W        W82876   4.360  29.642   0.949
17892W        W82877   3.910  38.036  10.516
17893W        W82878  32.528  36.995  13.367
17894W        W82879  22.697  17.750   4.100
17895W        W82880  23.979   2.759   4.121
17896W        W82881  41.450  34.753  11.007
17897W        W82882  35.818  39.632  14.412
17898W        W82883   7.597  19.179  13.849
17899W        W82884   2.310  40.577   4.934
17900W        W82885  27.914  34.462   1.276
17901W        W82886  44.756   4.864  11.213
17902W        W82887   1.817  35.335   4.573
17903W        W82888  36.887  42.399  13.248
17904W        W82889  22.986  11.729  13.500
17905W        W82890  28.501  20.143   2.218
17906W        W82891  17.295  41.597   2.598
17907W        W82892  40.245  27.025  11.530
17908W        W82893  37.533  15.036  14.447
17909W        W82894  26.073  32.903   3.169
17910W        W82895  22.941  14.022   3.834
17911W        W82896   6.419   3.799  14.781
17912W        W82897  11.602  37.445  11.608
17913W        W82898  36.096  13.221   1.877
17914W        W82899  20.589  44.278  14.442
17915W        W82900  13.632   6.884  13.000
17916W        W82901  43.464   4.218   4.851
17917W        W82902  22.806  17.027   5.165
17918W        W82903  18.685  39.931   1.779
17919W        W82904  36.516  10.265  14.811
17920W        W82905  27.051   3.404   4.765
17921W        W82906  20.651  13.989  14.929
17922W        W82907  25.249  22.685   2.012
17923W        W82908  22.117  32.480  14.867
17924W        W82909  27.671  34.162  10.854
17925W        W82910   7.410  41.438   0.959
17926W        W82911   4.309  29.180  13.929
17927W        W82912   8.297  39.736   3.786
17928W        W82913  36.052   7.821   5.300
17929W        W82914  29.729  38.798  13.122
17930W        W82915  34.211  23.790  12.471
17931W        W82916  12.632  44.568   4.083
17932W        W82917  31.998  23.548  13.601
17933W        W82918  32.905   1.519   1.347
17934W        W82919   1.330  32.566   3.179
17935W        W82920  21.460  36.311   1.194
17936W        W82921  36.115  19.621   3.120
17937W        W82922  13.707  22.155  12.221
17938W        W82923  31.500   1.710   3.213
17939W        W82924  33.113  27.652  13.375
17940W        W82925  36.382  13.601  11.134
17941W        W82926   7.165  17.248   0.515
17942W        W82927  19.823  22.054  13.287
17943W        W82928  26.265   9.894   3.709
17944W        W82929  35.779  24.431  11.482
17945W        W82930  15.824  20.841  14.932
17946W        W82931   3.135  12.611  11.212
17947W        W82932  18.462   5.692   3.590
17948W        W82933   7.736  31.087   3.408
17949W        W82934  35.118  17.552   1.458
17950W        W82935  35.965  44.852   2.206
17951W        W82936  31.676  25.849  14.024
17952W        W82937  21.341  39.787   3.051
17953W        W82938  25.520  41.489  12.929
17954W        W82939  34.181  37.603  14.513
17955W        W82940  20.091  18.948  11.420
17956W        W82941   7.324  36.408   3.613
17957W        W82942  19.216   6.680  14.041
17958W        W82943   4.570  18.566  12.021
17959W        W82944   9.697  15.465  14.750
17960W        W82945  29.862  14.371   3.493
17961W        W82946  31.085  11.330  12.896
17962W        W82947  11.190  23.254  14.777
17963W        W82948  29.155  15.692   2.480
17964W        W82949   9.795   2.110   4.866
17965W        W82950   8.487   1.777   0.416
17966W        W82951  22.486  14.387  11.498
17967W        W82952   5.396   1.924  10.704
17968W        W82953  23.255  22.176  13.380
17969W        W82954  20.975  21.064  12.538
17970W        W82955  13.884  39.823  12.314
17971W        W82956  38.225  11.050  14.425
17972W        W82957  16.790  44.177  14.014
17973W        W82958  35.562  15.243  14.242
17974W        W82959  13.196  27.608  14.056
17975W        W82960  26.002  37.648  13.327
17976W        W82961  26.028  23.400   0.749
17977W        W82962  38.609  23.542   4.556
17978W        W82963  41.131  42.950  14.889
17979W        W82964   4.366  22.265  14.035
17980W        W82965   2.277  44.672  12.492
17981W        W82966  17.812  19.244  12.619
17982W        W82967  18.526   1.882   0.974
17983W        W82968  28.682  14.836   3.663
17984W        W82969  34.315  42.895   2.492
17985W        W82970  39.368  15.764   1.404
17986W        W82971  30.073  20.179  13.046
17987W        W82972  33.564  15.829   0.379
17988W        W82973  25.900  41.572  11.467
17989W        W82974  38.808  31.714   3.194
17990W        W82975  10.901  39.715   0.833
17991W        W82976  31.380  42.427   0.674
17992W        W82977  28.769  20.708   4.032
17993W        W82978   4.110  28.121   4.654
17994W        W82979  10.713  13.703  10.565
17995W        W82980  28.564  42.246  13.796
17996W        W82981   8.907  20.570  12.602
17997W        W82982  22.679   5.966   0.152
17998W        W82983   9.434  44.812   4.321
17999W        W82984  17.326  34.253  11.156
18000W        W82985  11.574   5.402   4.144
18001W        W82986  18.997  26.680   0.694
18002W        W82987  32.823  15.646   4.806
18003W        W82988   9.378   4.769  13.729
18004W        W82989  34.340  10.722  13.799
18005W        W82990  11.709  26.571   4.517
18006W        W82991  21.130   8.279   1.281
18007W        W82992  22.848  41.077  12.986
18008W        W82993  18.573  26.129   4.172
18009W        W82994  32.275   8.277  14.523
18010W        W82995   8.859  30.588  14.579
18011W        W82996   3.643  20.000  14.691
18012W        W82997  42.798   5.430   1.481
18013W        W82998  34.390   4.400  11.944
18014W        W82999  26.508   2.478   0.841
18015W        W83000  24.065  25.702   3.784
18016W        W83001   6.409   2.611   1.218
18017W        W83002  11.800   3.060   2.206
18018W        W83003   4.181  36.371   3.090
18019W        W83004  40.077  22.228  13.861
18020W        W83005  32.241  40.114   0.632
18021W        W83006  13.099  22.732   1.397
18022W        W83007  37.625  44.272  10.563
18023W        W83008  36.150   3.218  12.129
18024W        W83009  30.185   4.219   1.774
18025W        W83010  23.226  24.415  10.641
18026W        W83011  28.696  10.979  11.410
18027W        W83012  14.142   4.770   1.396
18028W        W83013  24.878   5.170   0.265
18029W        W83014  41.658  29.258   5.375
18030W        W83015  22.581  16.322   4.249
18031W        W83016   6.416  37.026   1.863
18032W        W83017  22.372   7.748  11.490
18033W        W83018  21.776  27.325  11.472
18034W        W83019  40.887  11.049  11.498
18035W        W83020  19.225   6.305  12.295
18036W        W83021  26.937  16.274  14.458
18037W        W83022  38.051  44.887  14.958
18038W        W83023  31.327   0.890   5.044
18039W        W83024   5.760  36.612  11.513
18040W        W83025  38.062  17.579   3.600
18041W        W83026  31.522   3.194  11.504
18042W        W83027   3.226  38.269   3.386
18043W        W83028   3.920   6.865  14.778
18044W        W83029  28.118  18.734  12.484
18045W        W83030  29.815   1.847   4.913
18046W        W83031  11.938  36.405  14.479
18047W        W83032  15.085  15.181   2.672
18048W        W83033  44.210   8.416  14.257
18049W        W83034  26.528  15.625   4.675
18050W        W83035  41.498   1.089  14.430
18051W        W83036  21.859  25.172  11.077
18052W        W83037   5.610   1.443  12.049
18053W        W83038  30.202  14.290   0.396
18054W        W83039  13.727  25.270   0.459
18055W        W83040  20.488   8.673  14.446
18056W        W83041   5.315  13.331   1.879
18057W        W83042  35.595   0.497  12.880
18058W        W83043   3.600  15.530   2.728
18059W        W83044  11.348  20.754   0.266
18060W        W83045  30.510   4.373   1.366
18061W        W83046  36.086   4.170  11.120
18062W        W83047  16.626  26.798   2.430
18063W        W83048   6.769  34.960   1.212
18064W        W83049  14.053  35.981  13.083
18065W        W83050  20.160  36.852  10.711
18066W        W83051  44.033  37.993   0.179
18067W        W83052   5.178   4.553   4.530
18068W        W83053  11.809  22.192   4.537
18069W        W83054   5.718  12.529   1.441
18070W        W83055  10.422  38.373   4.021
18071W        W83056   0.304  32.796   3.315
18072W        W83057  35.362   0.977  13.772
18073W        W83058  30.449   3.370   4.203
18074W        W83059  23.706  22.183  14.962
18075W        W83060  34.040  15.600   0.422
18076W        W83061   2.139  13.693  10.483
18077W        W83062  21.651   2.927  13.782
18078W        W83063  39.284  18.822  14.446
18079W        W83064   0.257   4.820  13.922
18080W        W83065  19.777  14.251  12.552
18081W        W83066  33.632   5.504   2.258
18082W        W83067  32.926   5.458   0.370
18083W        W83068  38.961  14.280   3.582
18084W        W83069  23.027  37.977   1.537
18085W        W83070  40.738   7.233  12.576
18086W        W83071  42.455  41.285   4.742
18087W        W83072  29.379   5.698  13.644
18088W        W83073  27.207  43.374   0.262
18089W        W83074   6.629  24.902  14.272
18090W        W83075   0.473   4.995   1.252
18091W        W83076  14.463   5.725  13.022
18092W        W83077  34.799  39.530  11.415
18093W        W83078   6.652  11.087   1.883
18094W        W83079  12.875  35.447  14.978
18095W        W83080   9.754  42.995  11.916
18096W        W83081   4.897  28.665   1.676
18097W        W83082   7.848  19.581  12.947
18098W        W83083  40.753  30.613   1.919
18099W        W83084  21.558   2.435   4.580
18100W        W83085  36.316   2.924   1.919
18101W        W83086   9.302  14.570   4.161
18102W        W83087   8.742  18.608  11.608
18103W        W83088   6.395  30.962  10.916
18104W        W83089   0.125  14.843   4.261
18105W        W83090  27.103   9.642  11.648
18106W        W83091  10.690  16.717  12.899
18107W        W83092  33.695   9.117  13.467
18108W        W83093   1.314  38.916   3.761
18109W        W83094  14.187   4.163  11.955
18110W        W83095  28.053  20.534  11.038
18111W        W83096  23.370  15.909   2.913
18112W        W83097  39.326  37.808   2.371
18113W        W83098  29.679  25.590  13.535
18114W        W83099  27.667   7.769  12.619
18115W        W83100   8.685  12.796   0.724
18116W        W83101   9.392  44.535   2.297
18117W        W83102  44.582  10.617   2.318
18118W        W83103  36.486  34.793  12.684
18119W        W83104  41.764  25.263  14.774
18120W        W83105   2.446   8.216   2.770
18121W        W83106  32.041  31.108   3.278
18122W        W83107   5.213  42.855   1.229
18123W        W83108  15.409  37.522  12.127
18124W        W83109   4.138   4.506  14.892
18125W        W83110  10.253  39.017  13.807
18126W        W83111  43.390  14.764   1.450
18127W        W83112  37.991  31.372   2.228
18128W        W83113  43.460   2.098   0.897
18129W        W83114  14.583  16.633  13.942
18130W        W83115   2.864   6.537   4.616
18131W        W83116  22.246  25.971   2.813
18132W        W83117  43.904   9.363  11.430
18133W        W83118  39.421  27.155  11.487
18134W        W83119  18.765  14.155  14.432
18135W        W83120  42.036   4.182   0.316
18136W        W83121  21.939  27.901   1.820
18137W        W83122  25.001  31.264   2.639
18138W        W83123  12.671  26.950   0.320
18139W        W83124   4.342  32.805  10.432
18140W        W83125  26.697  11.578   3.166
18141W        W83126  31.993  30.351  14.071
18142W        W83127  20.309  37.533   0.355
18143W        W83128  42.218  40.584  11.276
18144W        W83129  35.396  30.194   2.462
18145W        W83130   3.218  23.918   2.797
18146W        W83131  16.859  17.729  10.709
18147W        W83132   9.827   4.897  12.866
18148W        W83133  15.788  15.502   4.539
18149W        W83134   2.180  30.351   0.781
18150W        W83135   9.763   3.490  11.735
18151W        W83136   5.794  40.023  12.918
18152W        W83137  41.847  22.776  13.359
18153W        W83138  40.444  13.853  12.504
18154W        W83139  38.365  30.746  12.066
18155W        W83140  39.885  42.851   1.869
18156W        W83141  21.693  43.523   0.773
18157W        W83142  35.052   6.140   0.819
18158W        W83143  36.468  34.220  11.968
18159W        W83144   5.911  23.331  12.530
18160W        W83145  43.428  16.325   1.316
18161W        W83146  36.296  27.543   0.793
18162W        W83147  42.364   5.374   0.516
18163W        W83148  41.563  14.678   4.290
18164W        W83149  16.201   2.646   0.516
18165W        W83150  22.432   1.613   1.250
18166W        W83151  44.335  11.391   4.392
18167W        W83152  18.899  38.384   2.609
18168W        W83153  30.983  15.298   4.572
18169W        W83154  14.232  39.528  12.088
18170W        W83155  43.143  23.072   4.465
18171W        W83156  13.813  27.429   3.232
18172W        W83157  40.204  10.653   1.527
18173W        W83158  10.344  36.675  14.350
18174W        W83159  29.139  11.424   1.029
18175W        W83160  33.587  43.375   4.649
18176W        W83161  23.731  12.197   3.275
18177W        W83162  24.786  44.971   3.244
18178W        W83163  38.717  23.194  14.105
18179W        W83164  14.103   6.771  11.111
18180W        W83165  14.766   2.877   0.447
18181W        W83166  31.796  23.103   4.577
18182W        W83167  29.180   2.085   0.308
18183W        W83168   5.945  40.876   4.893
18184W        W83169  14.056  42.228  11.688
18185W        W83170  21.585  31.518   2.411
18186W        W83171  16.417  29.379   4.469
18187W        W83172  27.604  22.591   2.412
18188W        W83173  34.956  25.014   1.544
18189W        W83174  39.913  32.357   2.795
18190W        W83175  26.758  14.699  13.289
18191W        W83176  14.430   6.925   4.213
18192W        W83177  28.369   6.004   0.368
18193W        W83178  41.015  25.584  12.554
18194W        W83179   5.784  30.159  10.369
18195W        W83180  16.489  19.259  14.301
18196W        W83181   4.858  17.307   4.176
18197W        W83182  17.173   4.076   4.598
18198W        W83183   3.911  42.678   4.579
18199W        W83184  26.142   6.373  14.521
18200W        W83185  38.137  32.537  14.822
18201W        W83186  10.908  27.941  14.961
18202W        W83187   9.191  13.254  12.533
18203W        W83188  40.505  33.962  10.766
18204W        W83189  16.560  14.199   1.399
18205W        W83190  12.714  39.832  13.584
18206W        W83191  19.989  40.419  12.897
18207W        W83192  14.084  37.434  13.067
18208W        W83193   6.459   9.702   3.182
18209W        W83194  10.854  32.314  11.974
18210W        W83195  18.241  24.132  11.963
18211W        W83196   7.099   8.768   4.894
18212W        W83197   6.325   3.690   2.279
18213W        W83198  42.308  14.249   2.286
18214W        W83199  15.099  28.931  13.606
18215W        W83200  23.112  18.754   2.233
18216W        W83201   4.757   7.347   2.665
18217W        W83202   8.508   5.138   1.789
18218W        W83203  38.021   5.194  11.548
18219W        W83204  17.807  37.207   2.084
18220W        W83205   6.117   4.485  12.458
18221W        W83206  16.548  22.271   3.759
18222W        W83207  33.781  44.187  12.308
18223W        W83208   8.110   9.281  13.908
18224W        W83209  32.477  16.641   4.082
18225W        W83210  43.490  40.503   0.267
18226W        W83211  39.534  39.526   0.453
18227W        W83212  15.068   5.847  14.402
18228W        W83213   1.197  40.993  12.110
18229W        W83214  22.256  16.287   5.081
18230W        W83215  37.811  19.643   0.386
18231W        W83216   5.167  17.611   0.276
18232W        W83217  32.372  26.035  11.961
18233W        W83218   0.992  21.629  13.248
18234W        W83219   6.641  44.664  11.578
18235W        W83220  11.783   1.162   3.221
18236W        W83221  37.139  22.585  13.880
18237W        W83222  20.119  25.227  11.246
18238W        W83223   9.469  12.238  13.007
18239W        W83224   0.984   8.875  12.626
18240W        W83225  12.855  28.265  12.849
18241W        W83226  21.484  39.842   0.807
18242W        W83227  32.881  34.034  12.533
18243W        W83228  29.123  22.283  14.024
18244W        W83229  19.128  23.836   1.762
18245W        W83230  40.446  33.903  14.585
18246W        W83231   3.699   7.738   1.222
18247W        W83232  21.610  28.122  11.478
18248W        W83233  14.095   9.636   4.167
18249W        W83234   5.180  22.958   4.357
18250W        W83235  35.624  21.591   2.890
18251W        W83236  17.857   4.734   1.773
18252W        W83237  35.010  15.728  10.812
18253W        W83238  44.373  31.507  11.254
18254W        W83239  37.667  23.464   1.612
18255W        W83240  22.476  22.406   1.484
18256W        W83241  33.875  19.872   0.441
18257W        W83242   1.725  37.512  13.971
18258W        W83243  43.337  19.587   2.643
18259W        W83244  30.618  11.178   1.492
18260W        W83245  26.158  29.052  12.306
18261W        W83246  43.591  26.562  10.663
18262W        W83247  38.289  42.405   4.148
18263W        W83248  34.904  11.772  14.247
18264W        W83249  40.971  16.068   3.640
18265W        W83250  35.960  18.707   4.722
18266W        W83251   0.756  14.045   2.217
18267W        W83252  41.491   9.282  12.835
18268W        W83253  21.589   9.793  11.656
18269W        W83254  41.540  36.527  13.488
18270W        W83255  44.775  29.187   3.152
18271W        W83256  17.266  20.688   5.615
18272W        W83257  25.966  39.319   3.696
18273W        W83258  34.936  40.564  12.513
18274W        W83259   7.135  31.381  13.901
18275W        W83260  26.083  18.573   1.339
18276W        W83261  11.579  12.768   4.509
18277W        W83262   2.234  39.808   0.664
18278W        W83263  34.328  36.772  14.443
18279W        W83264  27.215  20.524  12.034
18280W        W83265  29.639  13.073   3.652
18281W        W83266  33.252  41.125   0.851
18282W        W83267  34.326  41.807   3.601
18283W        W83268  37.766  17.060  12.073
18284W        W83269  30.652  42.284   1.388
18285W        W83270   2.328  37.527  14.760
18286W        W83271  15.593   2.515  12.792
18287W        W83272  12.729  18.242  14.895
18288W        W83273   5.303  31.559   2.161
18289W        W83274   1.867  32.388  14.542
18290W        W83275   9.716  32.527   4.272
18291W        W83276   1.557  32.279   2.576
18292W        W83277  40.272  24.746  12.639
18293W        W83278  20.003  43.909  12.800
18294W        W83279  30.829  18.114   4.720
18295W        W83280  35.422  16.434   2.208
18296W        W83281  23.611  23.665  12.111
18297W        W83282   3.230  29.114   4.125
18298W        W83283   2.419  36.912   3.264
18299W        W83284  15.287  32.184   0.264
18300W        W83285  11.492   1.076  12.599
18301W        W83286  23.230   6.516   0.458
18302W        W83287   1.794   8.170  14.505
18303W        W83288  28.379  43.395   4.337
18304W        W83289  18.133  34.042  11.591
18305W        W83290  21.207  33.151  12.165
18306W        W83291  44.726  44.397  11.138
18307W        W83292   7.412  20.261   0.427
18308W        W83293  23.998  28.071  14.056
18309W        W83294  25.552   0.351   3.049
18310W        W83295  42.055  27.920   1.310
18311W        W83296  15.228  44.427  13.381
18312W        W83297  39.547   9.547  12.616
18313W        W83298  22.610   6.804  10.449
18314W        W83299  41.211  28.995   2.636
18315W        W83300  43.450   3.424  13.823
18316W        W83301  32.474   1.430   1.841
18317W        W83302  13.088   0.935   0.552
18318W        W83303   6.363  16.057   0.293
18319W        W83304  27.075  40.834   4.431
18320W        W83305   5.443  25.591  10.686
18321W        W83306  10.750  16.294  11.210
18322W        W83307  36.979  10.921   1.252
18323W        W83308  11.346   6.808   4.169
18324W        W83309  25.974   9.224   4.458
18325W        W83310  27.158   1.617  13.104
18326W        W83311  13.696   0.496   2.223
18327W        W83312   1.325  42.559  14.846
18328W        W83313  29.813  22.938  12.028
18329W        W83314  15.176  11.579  12.089
18330W        W83315  20.225  32.175  12.458
18331W        W83316  40.241  26.572   3.270
18332W        W83317  10.806  21.971  11.041
18333W        W83318  12.385  42.114   2.637
18334W        W83319   3.486  12.054  13.871
18335W        W83320   6.356  29.396   3.438
18336W        W83321  10.673  25.720   4.249
18337W        W83322  21.495  44.432  13.179
18338W        W83323   6.499  19.478  13.010
18339W        W83324  40.319  23.510   3.749
18340W        W83325  22.515  11.694   1.858
18341W        W83326  42.004   1.515  13.532
18342W        W83327  11.484   0.579  12.489
18343W        W83328   2.332   0.480   1.381
18344W        W83329  14.493   6.769   2.258
18345W        W83330  39.361  18.100   0.059
18346W        W83331   8.293   9.357  13.418
18347W        W83332   8.486  37.343   0.371
18348W        W83333   3.529  26.361  13.944
18349W        W83334  26.509   6.165   1.307
18350W        W83335   2.304  28.008   2.805
18351W        W83336  25.027   4.991  14.202
18352W        W83337   1.386  39.600   4.307
18353W        W83338  16.373  22.621  10.508
18354W        W83339  22.094  32.286  12.954
18355W        W83340  23.892  40.330  10.514
18356W        W83341  21.460  35.832   1.402
18357W        W83342  13.247  35.963  14.739
18358W        W83343   5.481  29.527  13.843
18359W        W83344  20.148   5.023   5.363
18360W        W83345   8.433  37.643   4.157
18361W        W83346   0.407  24.618   1.196
18362W        W83347   8.749  27.444   0.361
18363W        W83348  42.485   1.231   2.996
18364W        W83349  31.278  11.191  13.492
18365W        W83350  29.359   7.308   1.188
18366W        W83351  44.443  32.380   1.200
18367W        W83352  33.376  13.119  10.563
18368W        W83353  30.211  34.568   4.729
18369W        W83354  42.929  20.094   1.151
18370W        W83355   8.789  25.234   2.740
18371W        W83356  28.431  17.205  13.470
18372W        W83357  11.474  38.107  11.132
18373W        W83358  31.119  34.682   1.616
18374W        W83359  39.294  21.214   4.142
18375W        W83360  44.862  21.745  12.995
18376W        W83361   7.293  33.898  12.131
18377W        W83362  25.558  35.418   4.326
18378W        W83363  38.949  30.520   4.643
18379W        W83364  25.514  42.888  12.003
18380W        W83365  40.974  19.126  14.849
18381W        W83366  10.229  20.842  11.971
18382W        W83367  26.876  42.426   4.073
18383W        W83368   1.223  23.562   4.150
18384W        W83369  29.535   9.459   4.584
18385W        W83370  44.428  22.238   2.768
18386W        W83371  12.944   6.112   4.608
18387W        W83372   4.724  22.105   1.338
18388W        W83373  19.550  30.449  13.175
18389W        W83374  40.787  12.118  11.452
18390W        W83375   2.681  23.986  13.363
18391W        W83376  31.170  37.829   4.060
18392W        W83377  35.532  33.652  14.351
18393W        W83378  38.831  11.382  14.442
18394W        W83379  27.015  10.317   3.744
18395W        W83380   4.908   9.739  12.555
18396W        W83381  30.822  19.847   5.105
18397W        W83382  40.991   6.477  13.407
18398W        W83383  35.492   3.746  13.187
18399W        W83384  11.631   9.383  14.136
18400W        W83385  19.083   3.930   4.666
18401W        W83386  18.766   7.176   3.049
18402W        W83387  19.388  35.058   1.876
18403W        W83388  32.052   6.297   2.589
18404W        W83389  42.628  33.973  12.470
18405W        W83390   5.773  11.612  12.640
18406W        W83391  40.066   7.537  13.388
18407W        W83392  32.172  38.471  12.120
18408W        W83393  16.331  37.075   0.128
18409W        W83394  30.289  23.578  11.093
18410W        W83395  24.114   5.884  12.433
18411W        W83396   5.943  32.733  11.152
18412W        W83397  15.620   4.307   4.581
18413W        W83398  15.016   8.779  13.843
18414W        W83399  24.682  29.414  13.430
18415W        W83400   8.275   3.408  14.931
18416W        W83401  41.823   3.458  12.439
18417W        W83402  19.433  15.562  11.593
18418W        W83403  16.181  22.480   1.264
18419W        W83404  16.079  12.600   3.586
18420W        W83405  44.166  32.442  11.416
18421W        W83406  19.169   4.736   0.020
18422W        W83407  14.807  37.984  14.863
18423W        W83408  39.924  29.110   0.507
18424W        W83409   2.423   0.541  13.339
18425W        W83410  36.370  26.188   3.378
18426W        W83411  25.949  40.819   3.176
18427W        W83412   4.180  16.145   0.393
18428W        W83413  21.069  40.833   3.199
18429W        W83414  44.378  25.178   3.673
18430W        W83415  32.531  38.329  10.908
18431W        W83416  40.679  10.751   1.340
18432W        W83417   5.942  41.442   0.775
18433W        W83418   5.421  22.110   2.836
18434W        W83419  42.840  38.226   9.859
18435W        W83420   3.936  33.160   3.884
18436W        W83421   6.381  32.433   2.794
18437W        W83422  30.673  14.620  11.129
18438W        W83423  19.539  20.314  11.063
18439W        W83424  26.451   2.922   2.403
18440W        W83425  15.858  42.811   3.129
18441W        W83426  15.603  30.575  14.754
18442W        W83427   2.275  25.991   2.231
18443W        W83428   2.369  25.150   1.069
18444W        W83429  39.605  30.734   4.962
18445W        W83430   5.950   7.379   4.501
18446W        W83431  10.312   5.732   3.140
18447W        W83432   3.930  29.352   1.009
18448W        W83433  30.572  22.105   4.188
18449W        W83434  28.573   4.163   2.395
18450W        W83435  35.215  34.450   3.823
18451W        W83436  30.708  28.160  11.501
18452W        W83437  33.127  25.549   4.631
18453W        W83438  15.188  33.225   0.202
18454W        W83439  44.758  12.275   1.367
18455W        W83440  29.235  42.670  14.920
18456W        W83441  22.153  32.868  14.369
18457W        W83442  38.512  27.139  14.836
18458W        W83443  30.055  26.296   4.732
18459W        W83444  15.889  36.375   4.069
18460W        W83445  32.568   5.271   4.166
18461W        W83446  11.789  24.607  11.053
18462W        W83447  18.195   7.838   4.244
18463W        W83448  26.690  30.770   1.343
18464W        W83449  23.147  14.568  14.768
18465W        W83450  35.406  10.167   4.586
18466W        W83451  31.350  15.870   2.244
18467W        W83452  28.246   4.829  11.080
18468W        W83453  24.597  22.174  14.062
18469W        W83454  31.010  25.698   3.312
18470W        W83455  16.044  25.990  14.539
18471W        W83456  15.209  33.210  10.720
18472W        W83457   7.100  12.320   1.374
18473W        W83458  41.249   2.482  13.949
18474W        W83459   4.287  16.759   1.114
18475W        W83460  37.453  17.280   2.847
18476W        W83461  33.150   1.260   2.919
18477W        W83462  12.743  15.362  12.892
18478W        W83463  21.097   9.338  13.885
18479W        W83464  30.957  28.054   1.788
18480W        W83465   9.068  39.559  10.795
18481W        W83466  12.571   8.419  12.643
18482W        W83467  21.559  43.423   3.324
18483W        W83468  10.676  32.023  14.036
18484W        W83469  11.372  34.838   4.289
18485W        W83470   5.258  17.902  11.062
18486W        W83471  35.200  12.190  10.584
18487W        W83472   2.151   1.407  10.393
18488W        W83473  19.723  26.168   0.430
18489W        W83474  25.527  32.439   1.715
18490W        W83475  39.954  32.540  10.196
18491W        W83476   2.779  41.841   3.565
18492W        W83477  35.511   4.957   4.514
18493W        W83478  26.696   3.783   3.677
18494W        W83479   4.574  21.792  13.870
18495W        W83480  32.502  38.563  11.360
18496W        W83481  21.640  35.556   2.673
18497W        W83482  33.820  16.326  14.535
18498W        W83483  26.078  32.954   1.262
18499W        W83484  35.245   7.320  11.676
18500W        W83485   4.408  25.995   1.229
18501W        W83486   2.649   9.753   0.727
18502W        W83487  25.127  15.510   4.049
18503W        W83488  12.673  24.630  11.693
18504W        W83489  13.326  10.329  10.849
18505W        W83490  35.431  18.704   3.890
18506W        W83491  29.093  40.409  11.059
18507W        W83492  42.287  13.866   2.837
18508W        W83493   5.798  19.993   4.667
18509W        W83494  34.014   4.501   1.227
18510W        W83495  20.552  12.662   4.051
18511W        W83496  39.453  29.956   2.046
18512W        W83497  28.493  39.081   1.774
18513W        W83498  10.287  26.195  13.658
18514W        W83499  37.924  38.672   2.288
18515W        W83500  24.517  29.573  14.717
18516W        W83501  25.728  11.846   2.182
18517W        W83502  37.488  18.064   1.593
18518W        W83503   3.199  30.572  13.133
18519W        W83504   3.726  36.081  12.921
18520W        W83505  35.492  18.804   3.372
18521W        W83506  16.849  19.648   2.847
18522W        W83507  22.941  34.965   4.241
18523W        W83508  42.030  38.501  12.021
18524W        W83509  15.375  26.014  11.241
18525W        W83510  38.102   8.676  13.473
18526W        W83511  24.311  22.900  10.455
18527W        W83512   5.172  30.687   3.473
18528W        W83513  15.279  33.104  11.215
18529W        W83514  27.033  43.425  13.368
18530W        W83515  34.790   4.713   3.805
18531W        W83516  18.196  20.179  12.850
18532W        W83517  10.295  31.083   4.862
18533W        W83518   0.063  34.832   4.028
18534W        W83519  39.066   6.896   3.591
18535W        W83520  26.899  34.870  12.161
18536W        W83521  32.642  19.268   0.633
18537W        W83522  14.356  25.542  14.403
18538W        W83523  13.444  43.765  13.446
18539W        W83524   5.499   0.703  13.835
18540W        W83525  34.875  13.727   2.442
18541W        W83526  10.505   8.433   1.453
18542W        W83527  36.059  34.665  12.398
18543W        W83528  30.444  10.794  12.351
18544W        W83529  32.103  41.453   4.095
18545W        W83530   0.350  43.827  13.485
18546W        W83531   8.690  20.389   0.781
18547W        W83532   4.831  32.135  10.285
18548W        W83533  43.909  18.669  13.053
18549W        W83534  42.035  25.079  13.821
18550W        W83535  37.326   9.561  12.215
18551W        W83536  38.410  13.865  12.625
18552W        W83537  36.867   8.281  11.570
18553W        W83538  11.766  19.301  11.538
18554W        W83539  26.669   0.063   1.628
18555W        W83540   0.032  13.769   4.387
18556W        W83541  14.522   8.227   3.258
18557W        W83542  44.709   2.204  14.303
18558W        W83543  16.539   4.402   3.171
18559W        W83544  27.748  33.671   3.631
18560W        W83545  22.783  15.412  10.388
18561W        W83546  10.301  21.969  14.355
18562W        W83547  31.558  43.294  10.718
18563W        W83548   3.988   8.376  11.036
18564W        W83549   9.316  39.910  10.489
18565W        W83550   0.291   1.998  13.855
18566W        W83551  43.880   1.319   4.292
18567W        W83552  42.420  12.390  14.460
18568W        W83553  11.495  32.430  14.495
18569W        W83554  16.387  31.396  10.704
18570W        W83555   6.944  39.975   3.614
18571W        W83556   9.288  39.987  10.991
18572W        W83557  28.689  38.071  11.463
18573W        W83558  40.003  40.337   0.532
18574W        W83559   6.927   1.229   3.593
18575W        W83560   8.497  33.273  14.456
18576W        W83561  32.151  24.635  14.397
18577W        W83562  34.358  43.316   2.193
18578W        W83563   1.890  11.588   0.482
18579W        W83564  32.501  18.171   2.701
18580W        W83565  44.399  27.366   1.373
18581W        W83566  16.549  10.365   0.531
18582W        W83567  15.847  41.084   1.309
18583W        W83568  24.188  29.134  13.445
18584W        W83569  26.152   9.927  13.516
18585W        W83570  25.533  19.695  12.791
18586W        W83571  27.574  39.919   0.109
18587W        W83572  38.581  28.822  11.550
18588W        W83573  12.745  34.809   0.331
18589W        W83574  22.054   8.274   1.999
18590W        W83575  23.942  43.991  14.143
18591W        W83576  29.601  32.566   2.730
18592W        W83577  26.076  28.999   0.974
18593W        W83578  15.127  17.791  14.595
18594W        W83579  10.811  16.459   1.257
18595W        W83580  43.813  36.380   3.022
18596W        W83581  43.520  16.254  13.267
18597W        W83582   3.883  28.530   0.896
18598W        W83583  28.434  18.049  11.536
18599W        W83584  31.197  31.100  11.030
18600W        W83585  44.432  11.689   1.621
18601W        W83586  36.045  21.213   1.738
18602W        W83587  44.448  30.479  14.040
18603W        W83588  29.105   5.159   4.271
18604W        W83589  30.197  37.431  10.769
18605W        W83590  19.088  21.488  12.452
18606W        W83591  19.788  27.404  10.218
18607W        W83592  28.986  25.839   2.290
18608W        W83593  22.152  37.866  12.427
18609W        W83594  44.252  19.172   2.461
18610W        W83595  35.567  15.861  11.471
18611W        W83596   2.922  19.569  10.758
18612W        W83597  17.638  25.662   1.999
18613W        W83598  19.295   0.920  12.395
18614W        W83599   2.906  33.049  12.826
18615W        W83600  38.723  35.403  11.177
18616W        W83601  32.582   3.430   3.546
18617W        W83602   7.739   6.443   1.170
18618W        W83603  19.775  13.161  11.902
18619W        W83604  20.558  30.527   2.006
18620W        W83605  34.899   6.366  12.484
18621W        W83606  16.209  40.350   4.511
18622W        W83607  15.001  22.847   2.411
18623W        W83608  21.270  17.652  11.844
18624W        W83609   2.592  38.478   3.820
18625W        W83610  13.278   8.431   3.687
18626W        W83611  42.492  30.124  10.320
18627W        W83612  37.423  33.388  13.396
18628W        W83613  38.086  20.020  10.283
18629W        W83614  27.633  28.087  12.618
18630W        W83615  42.475  23.002   4.162
18631W        W83616   0.285  36.126  13.919
18632W        W83617  35.902  40.685   2.486
18633W        W83618  32.104  19.172   3.925
18634W        W83619  27.882  38.794  13.366
18635W        W83620  42.771  13.364   3.210
18636W        W83621   8.345  38.578  13.078
18637W        W83622  38.292  28.064   3.206
18638W        W83623  13.828   8.887   3.164
18639W        W83624  30.726   9.356   2.739
18640W        W83625  13.236  11.004  12.796
18641W        W83626  38.980  18.807  10.011
18642W        W83627   3.728   8.199  14.415
18643W        W83628  25.953   9.915   2.271
18644W        W83629  29.060  24.052   3.912
18645W        W83630  42.944  15.051  14.297
18646W        W83631   7.954  17.058  14.907
18647W        W83632  36.290  14.351  12.866
18648W        W83633  27.408  15.158   1.799
18649W        W83634  36.890  14.270  14.767
18650W        W83635  37.726  18.260   1.191
18651W        W83636   4.108  22.510   1.001
18652W        W83637  32.809  13.016  12.551
18653W        W83638  19.189  22.325   3.774
18654W        W83639   7.872   8.923   4.290
18655W        W83640  10.431  37.082   2.689
18656W        W83641  40.070  10.434  11.595
18657W        W83642  43.523  34.532   2.424
18658W        W83643   4.978  20.233  12.405
18659W        W83644  37.130   0.258  13.559
18660W        W83645  26.284  13.725  14.807
18661W        W83646  18.128   7.825  14.972
18662W        W83647  42.840  12.392  14.766
18663W        W83648   9.811  33.050   1.015
18664W        W83649  35.042  10.865   5.246
18665W        W83650  36.503   0.696   4.989
18666W        W83651  35.991  32.125  11.613
18667W        W83652  30.917   3.254   1.611
18668W        W83653  22.711   0.760   3.198
18669W        W83654  44.736  29.993   4.143
18670W        W83655  19.710  17.559  12.535
18671W        W83656   2.924  10.848  12.336
18672W        W83657  14.765   8.914   1.885
18673W        W83658  29.569  35.635  14.330
18674W        W83659  35.449  13.700   2.859
18675W        W83660  37.988  26.426  11.161
18676W        W83661   3.606  39.073   3.343
18677W        W83662  19.846  13.206  13.948
18678W        W83663   5.958  25.476   4.153
18679W        W83664  42.561   9.687  13.764
18680W        W83665  10.799  36.289  11.960
18681W        W83666  11.608  28.886   3.805
18682W        W83667  18.294   5.907  12.109
18683W        W83668  23.613  14.328  13.614
18684W        W83669  44.445  44.362   4.486
18685W        W83670  33.515  43.532   3.303
18686W        W83671  37.913  35.412  11.577
18687W        W83672   7.745  17.426  10.511
18688W        W83673  10.340   0.396  10.927
18689W        W83674   2.394  38.304   4.245
18690W        W83675  44.336  26.457  12.518
18691W        W83676  10.778  39.194  11.509
18692W        W83677  15.557  20.130   0.996
18693W        W83678  29.021  40.362   3.158
18694W        W83679  18.300  30.908   5.028
18695W        W83680   3.023  27.737   3.259
18696W        W83681  22.394   2.199  11.251
18697W        W83682  16.737  36.562   0.715
18698W        W83683  42.233  22.086   0.395
18699W        W83684  37.966  41.873  13.009
18700W        W83685  13.596   0.988   0.411
18701W        W83686   8.654  41.477  13.387
18702W        W83687  37.046  16.553  13.178
18703W        W83688   1.845   7.431   2.613
18704W        W83689   4.651  24.592   3.353
18705W        W83690  28.865  32.072  14.241
18706W        W83691  23.141  19.532   1.789
18707W        W83692  29.937  14.410  10.689
18708W        W83693  15.914  16.225  12.567
18709W        W83694   6.768  19.732   4.242
18710W        W83695  24.266   3.787  14.115
18711W        W83696  20.192   7.574   4.108
18712W        W83697   7.793  12.684  11.548
18713W        W83698  11.636  12.779  12.804
18714W        W83699  40.385   2.015   0.845
18715W        W83700  11.167  42.830   0.886
18716W        W83701   7.896  15.177   1.133
18717W        W83702  33.065  27.576   5.068
18718W        W83703  29.475  23.732   1.801
18719W        W83704  42.054  37.409   2.232
18720W        W83705  40.514  28.171  10.426
18721W        W83706  38.762   4.236   0.129
18722W        W83707  39.302  31.129  12.622
18723W        W83708   1.364  24.437  14.412
18724W        W83709  26.653  24.566   1.702
18725W        W83710  19.704  29.664  10.719
18726W        W83711  31.921  18.644   3.268
18727W        W83712   1.733  21.177   4.563
18728W        W83713  30.572  24.671   0.368
18729W        W83714   0.929  20.560  10.489
18730W        W83715  35.921  34.024   0.659
18731W        W83716  14.252   2.810  11.016
18732W        W83717  13.499  30.235   1.090
18733W        W83718  11.131  19.641   4.235
18734W        W83719  10.885  31.846  13.066
18735W        W83720   7.309  20.074  12.652
18736W        W83721  42.828  18.777  12.501
18737W        W83722  23.945  15.277   1.377
18738W        W83723  37.318  34.182   3.291
18739W        W83724   4.586  28.179  11.146
18740W        W83725  15.612   0.171  10.734
18741W        W83726   3.966  34.092   2.664
18742W        W83727  29.456   7.308   0.214
18743W        W83728  32.456  28.694  11.939
18744W        W83729  12.611  36.660  12.995
18745W        W83730  42.795  20.596   0.498
18746W        W83731  15.617  31.512   1.955
18747W        W83732  13.822  37.115  14.228
18748W        W83733  43.011  15.104  10.897
18749W        W83734   9.910  33.120  10.646
18750W        W83735  12.952   7.788   3.717
18751W        W83736  19.661   8.319  12.860
18752W        W83737  11.259  24.071  10.676
18753W        W83738   9.448  31.440  14.366
18754W        W83739   2.594  25.016   1.534
18755W        W83740  21.734  39.948   1.265
18756W        W83741  33.580  10.254   0.334
18757W        W83742   4.831  32.654  10.385
18758W        W83743  33.631  20.979   1.265
18759W        W83744   1.426  28.872   4.521
18760W        W83745  32.446  39.702  12.059
18761W        W83746  35.522   1.287   1.747
18762W        W83747  26.957  34.441   3.704
18763W        W83748  24.282  17.285  13.399
18764W        W83749   5.810  21.578  14.861
18765W        W83750  13.816  21.310   1.827
18766W        W83751  43.924  24.494   0.609
18767W        W83752   5.705  28.543   4.086
18768W        W83753  29.999  37.534   4.252
18769W        W83754   2.210   7.095   1.841
18770W        W83755  25.618  24.230  12.324
18771W        W83756   5.034  41.554   4.102
18772W        W83757   2.058  34.940   3.125
18773W        W83758   4.793  15.844   4.126
18774W        W83759  21.199  42.950  10.307
18775W        W83760  39.848   7.877  13.013
18776W        W83761  40.339  22.113   3.805
18777W        W83762  44.747  35.839   9.773
18778W        W83763  22.255   8.208  12.126
18779W        W83764  21.234  37.630   1.130
18780W        W83765  17.785  33.866   1.208
18781W        W83766   9.474   9.729   2.854
18782W        W83767  19.140  12.850   1.357
18783W        W83768   2.290  25.786  13.085
18784W        W83769  29.045   1.860   0.748
18785W        W83770  23.693  10.982   1.308
18786W        W83771  35.353  35.044  12.494
18787W        W83772  13.664  12.044  13.437
18788W        W83773  24.108  11.623  10.433
18789W        W83774  11.450  29.273   5.003
18790W        W83775  28.013  34.449  12.020
18791W        W83776  42.469  15.811   2.797
18792W        W83777  20.323  33.002  14.449
18793W        W83778  16.337  44.846  10.605
18794W        W83779   4.326  14.077   4.892
18795W        W83780  14.625  31.917   2.164
18796W        W83781  11.453  38.039   0.560
18797W        W83782  10.359  43.695   0.607
18798W        W83783  18.631   5.500  12.065
18799W        W83784   3.538  43.515   3.542
18800W        W83785   0.351  27.194   0.403
18801W        W83786  15.898  21.188   0.495
18802W        W83787  14.901  37.474   1.820
18803W        W83788  19.554  34.191  10.740
18804W        W83789  44.347  35.379  11.787
18805W        W83790   5.981   6.580   4.587
18806W        W83791  28.746   4.355   0.208
18807W        W83792   2.157   4.866  10.341
18808W        W83793   9.214  34.628  14.390
18809W        W83794  23.647  18.730   4.023
18810W        W83795  28.038  10.756  14.486
18811W        W83796  24.462  17.776  14.501
18812W        W83797   1.846   3.803   1.706
18813W        W83798   0.922  15.575  14.813
18814W        W83799  20.545  30.993   2.249
18815W        W83800  13.691   3.860  10.191
18816W        W83801  38.174  39.916   2.232
18817W        W83802  31.835   3.869   2.177
18818W        W83803  41.917  39.924   4.311
18819W        W83804   0.919  27.014   4.663
18820W        W83805  43.293  25.349   3.640
18821W        W83806  13.117  22.284  12.479
18822W        W83807  42.638   5.569   4.108
18823W        W83808  30.137  38.105  13.388
18824W        W83809  40.482  36.556   4.507
18825W        W83810  16.079   9.672   3.789
18826W        W83811  18.295  27.540   0.516
18827W        W83812  29.626  44.431  13.998
18828W        W83813  12.869  35.487   0.885
18829W        W83814  38.946  20.258  11.109
18830W        W83815  34.575   1.945  12.458
18831W        W83816  21.794  39.590   3.153
18832W        W83817  43.470  38.811   3.970
18833W        W83818   7.940  27.203   4.399
18834W        W83819  25.490   4.783   3.125
18835W        W83820  26.715   8.101   4.102
18836W        W83821  11.651  22.106  12.570
18837W        W83822  39.537   6.210  13.375
18838W        W83823  14.682  33.581  12.064
18839W        W83824  28.691  15.238  14.352
18840W        W83825  12.308  23.195  13.954
18841W        W83826   1.404   0.868   3.764
18842W        W83827  34.287  25.520  12.867
18843W        W83828  24.449  13.592  12.106
18844W        W83829  34.141  38.268   3.608
18845W        W83830  42.936  33.690   2.855
18846W        W83831   4.071   6.533   3.172
18847W        W83832   5.707  24.598   0.055
18848W        W83833  23.071  10.839   2.208
18849W        W83834  17.315  39.549  13.512
18850W        W83835  38.557   8.186   1.649
18851W        W83836  18.594   7.405  11.511
18852W        W83837  44.545  11.056  12.946
18853W        W83838  10.278  32.377  12.637
18854W        W83839  19.041  39.831   2.727
18855W        W83840   5.696  10.720   1.221
18856W        W83841  40.802   9.697   3.937
18857W        W83842   6.645  12.823   4.444
18858W        W83843  42.345  27.551  14.901
18859W        W83844  34.490  43.945  10.831
18860W        W83845  17.561  19.368   9.804
18861W        W83846  35.515   7.700   3.239
18862W        W83847   3.304  38.829   4.119
18863W        W83848  19.824  37.439   1.249
18864W        W83849   7.342   0.713  11.594
18865W        W83850  21.518  26.932   4.428
18866W        W83851   4.333   4.702   0.794
18867W        W83852  25.069  25.637   2.793
18868W        W83853  39.874   9.727  14.008
18869W        W83854   8.340   9.593   2.899
18870W        W83855  41.344  26.951  14.974
18871W        W83856  33.665   6.383  13.016
18872W        W83857  42.818  39.002  10.472
18873W        W83858  12.408  22.795   1.856
18874W        W83859  16.275  33.185  13.379
18875W        W83860  26.001  35.853   2.844
18876W        W83861  11.849   9.259   4.403
18877W        W83862  27.945  37.197   3.626
18878W        W83863  36.493  19.596   2.146
18879W        W83864  12.260  29.052   2.562
18880W        W83865  17.637  10.021  10.480
18881W        W83866  42.304  10.368  13.374
18882W        W83867  16.774   0.458  13.471
18883W        W83868   6.322  39.807  14.725
18884W        W83869  39.910   5.755   0.033
18885W        W83870  21.185  24.581  10.759
18886W        W83871   5.985  24.655   1.088
18887W        W83872  20.680  14.009   4.410
18888W        W83873  25.535  36.080  12.380
18889W        W83874  29.066   0.291  13.429
18890W        W83875  11.272  25.549  14.568
18891W        W83876  13.102  29.047  12.321
18892W        W83877   2.198  13.592   4.505
18893W        W83878  27.309   8.871  10.350
18894W        W83879  43.211  43.041   2.380
18895W        W83880  10.461   7.622  11.588
18896W        W83881  23.080  41.943   4.740
18897W        W83882  22.658  18.974   1.105
18898W        W83883  15.799   1.383   3.116
18899W        W83884  37.628  10.727  11.499
18900W        W83885  31.139  29.861  12.493
18901W        W83886  27.236  31.665  10.263
18902W        W83887  27.199  25.439  13.103
18903W        W83888  11.683  34.071  14.821
18904W        W83889  12.161   5.248  11.147
18905W        W83890  26.226  31.130  13.866
18906W        W83891  27.565  28.596  12.775
18907W        W83892  44.908  23.760   0.687
18908W        W83893  26.992   0.841   9.812
18909W        W83894   8.271  39.754  13.787
18910W        W83895  10.848  11.611  12.123
18911W        W83896  33.094  21.250  13.728
18912W        W83897   6.458   0.274  10.497
18913W        W83898  26.671   0.202   0.810
18914W        W83899   2.764  12.896   0.916
18915W        W83900   2.465  10.467   2.419
18916W        W83901  33.222  28.638  14.834
18917W        W83902  37.968  43.198   3.810
18918W        W83903  11.164   8.653  12.496
18919W        W83904  10.636   6.245  11.581
18920W        W83905   9.272  36.016   2.319
18921W        W83906  13.392   5.067   4.901
18922W        W83907  37.370  10.800   0.448
18923W        W83908   7.410  33.763  12.620
18924W        W83909  13.280   5.582  14.498
18925W        W83910  16.309  14.834  13.538
18926W        W83911  31.697  15.468   2.240
18927W        W83912  43.260  41.681  11.581
18928W        W83913  23.054  23.701  10.783
18929W        W83914   5.697  10.278  14.240
18930W        W83915  16.965  29.015   3.695
18931W        W83916  15.591  14.357  14.616
18932W        W83917  23.630   4.742  12.045
18933W        W83918   5.850   4.801   3.316
18934W        W83919  34.142  31.174  14.821
18935W        W83920  37.368  23.051   1.755
18936W        W83921  37.842  42.307  11.458
18937W        W83922  28.672   4.021   1.315
18938W        W83923  18.680  10.711  12.378
18939W        W83924   4.650   6.279  11.385
18940W        W83925  29.899  36.578   3.129
18941W        W83926   8.374  11.401   1.947
18942W        W83927  42.490  29.333   3.758
18943W        W83928  38.788  17.747   4.335
18944W        W83929   6.705  29.950   4.780
18945W        W83930  23.491   2.886  10.918
18946W        W83931  32.953  28.202   1.969
18947W        W83932  17.820  30.859  13.898
18948W        W83933  11.851  17.612   3.644
18949W        W83934  14.174   9.862   2.824
18950W        W83935  20.450  10.239  10.584
18951W        W83936  18.755  10.213  14.814
18952W        W83937  40.269  26.624  11.927
18953W        W83938  43.940  12.115   1.057
18954W        W83939   0.484  18.981   9.735
18955W        W83940  14.522  20.242  13.954
18956W        W83941  24.429  29.856  13.504
18957W        W83942  27.808  42.810  13.292
18958W        W83943  33.946   7.582  10.723
18959W        W83944  39.898  18.809  13.072
18960W        W83945  37.542  33.896   4.662
18961W        W83946  15.114  10.884   1.713
18962W        W83947  11.185  33.543  10.951
18963W        W83948  40.486   3.895  12.961
18964W        W83949   0.728  26.087   4.340
18965W        W83950  13.112  32.905  14.020
18966W        W83951  41.876  22.527  12.422
18967W        W83952   0.673  43.480  14.481
18968W        W83953  38.700  44.658  12.888
18969W        W83954  18.502  32.620  12.580
18970W        W83955  16.327  29.612  12.635
18971W        W83956  18.608  25.034   0.320
18972W        W83957   6.456  29.771  14.368
18973W        W83958   2.325   9.712  11.511
18974W        W83959   4.622  29.688  11.940
18975W        W83960  33.543   6.872  13.654
18976W        W83961  39.354  16.468  10.831
18977W        W83962  37.622  42.606  11.077
18978W        W83963  11.623  25.580   4.491
18979W        W83964  25.055  15.093  11.474
18980W        W83965  10.612  41.476  11.691
18981W        W83966  42.371   9.258   2.430
18982W        W83967  30.200  21.572   4.806
18983W        W83968  15.614  33.440  11.659
18984W        W83969   3.234  41.365  13.449
18985W        W83970   7.969  38.316   2.654
18986W        W83971  24.863   7.248  13.632
18987W        W83972  32.782  27.843  12.096
18988W        W83973  15.311  12.304   0.710
18989W        W83974  39.606  40.334   0.124
18990W        W83975  29.462  34.067  13.783
18991W        W83976  44.946  26.810  14.469
18992W        W83977  29.488  30.861  10.127
18993W        W83978  11.067  21.169   0.521
18994W        W83979  24.003  37.800   1.215
18995W        W83980  22.493  42.519  13.057
18996W        W83981  18.644  20.079  13.117
18997W        W83982  26.157  16.122   4.223
18998W        W83983  27.531  40.051   4.894
18999W        W83984  27.671   7.110   4.350
19000W        W83985  22.145   4.833  14.271
19001W        W83986  37.001  23.652   1.435
19002W        W83987   0.760   9.724  14.371
19003W        W83988   9.186  32.000  10.038
19004W        W83989  28.210  43.630   0.353
19005W        W83990  44.996  36.736  12.212
19006W        W83991  20.329   7.758  14.378
19007W        W83992  26.449   3.194  14.792
19008W        W83993   1.965  14.818   1.253
19009W        W83994  24.430  14.809   2.779
19010W        W83995  35.595   8.291   2.367
19011W        W83996  41.964   7.612   2.850
19012W        W83997  39.771   5.211  12.563
19013W        W83998  30.184  22.149  14.106
19014W        W83999  30.377  43.906  13.845
19015W        W84000   4.375  31.764   1.401
19016W        W84001   6.248  10.706   2.785
19017W        W84002  20.756  36.248  12.087
19018W        W84003  24.470  37.753  14.899
19019W        W84004  16.052  39.839   4.769
19020W        W84005   2.887  36.297   0.648
19021W        W84006  37.141  34.645   3.104
19022W        W84007  26.008  44.286   2.388
19023W        W84008  35.962  35.578  13.970
19024W        W84009  38.098  41.705   0.296
19025W        W84010  38.585  41.407  13.967
19026W        W84011  15.389  26.505   0.958
19027W        W84012  10.109  12.308   0.845
19028W        W84013   2.274  24.972   3.862
19029W        W84014   8.098  29.545   2.406
19030W        W84015  42.184  12.513   2.429
19031W        W84016  21.750  31.133  14.790
19032W        W84017  26.553  34.220   3.331
19033W        W84018  20.062  28.787  11.090
19034W        W84019  16.553  33.150   0.328
19035W        W84020  44.703  10.662   1.781
19036W        W84021  35.848  37.363  13.422
19037W        W84022  39.559  40.109  13.360
19038W        W84023  39.501   7.659  12.088
19039W        W84024  44.132  42.007   1.268
19040W        W84025   5.348  23.570   0.396
19041W        W84026  13.323  41.481  14.373
19042W        W84027  44.870  29.897  13.444
19043W        W84028  40.196  42.503  10.647
19044W        W84029  16.735  26.138   3.091
19045W        W84030  22.497   3.645   2.968
19046W        W84031  29.322  18.113  14.343
19047W        W84032   0.469   6.877   1.616
19048W        W84033  10.522  18.263  12.100
19049W        W84034  36.003  13.114   0.416
19050W        W84035  44.545  43.381   2.283
19051W        W84036  32.870  34.611  10.726
19052W        W84037  33.417   9.204  14.789
19053W        W84038  41.289   2.755   1.143
19054W        W84039   6.428  30.257   0.310
19055W        W84040   2.199  12.154  12.023
19056W        W84041  38.965  32.911  13.379
19057W        W84042  22.793  29.548  11.037
19058W        W84043  16.260  25.047   4.291
19059W        W84044  13.837  40.103  10.768
19060W        W84045  39.288  36.663   3.375
19061W        W84046  41.986  21.562  10.108
19062W        W84047  34.985  35.110   4.210
19063W        W84048  20.715  32.210   4.322
19064W        W84049  23.058   9.649   2.898
19065W        W84050   0.857  43.687  13.616
19066W        W84051   5.443   9.849  10.563
19067W        W84052   4.939  23.459   2.350
19068W        W84053  15.629  37.767   3.813
19069W        W84054  19.142  19.460  13.951
19070W        W84055  36.968  33.460   4.458
19071W        W84056   4.374  16.475   4.592
19072W        W84057  31.357  29.779  12.043
19073W        W84058   4.715  38.332   3.291
19074W        W84059  26.341  44.782   5.173
19075W        W84060   6.580   1.317   4.811
19076W        W84061  40.692  41.852   0.324
19077W        W84062  33.404  21.783   4.028
19078W        W84063  40.511   7.631  10.407
19079W        W84064  30.845   4.819  10.596
19080W        W84065  13.419  22.322  10.820
19081W        W84066  37.313  15.578  12.999
19082W        W84067  33.456   4.857  12.837
19083W        W84068  21.790  18.797  14.870
19084W        W84069  25.036   8.516   1.685
19085W        W84070  37.093   0.241   4.274
19086W        W84071  19.732  39.959   1.989
19087W        W84072  23.433  32.343   1.802
19088W        W84073  16.107  32.068  14.441
19089W        W84074  42.895  39.322   1.291
19090W        W84075  27.997  37.095  10.759
19091W        W84076  16.775   2.311  13.527
19092W        W84077   1.986   7.690  11.618
19093W        W84078   4.244  32.809   3.684
19094W        W84079  17.992  23.478   3.676
19095W        W84080  36.171  37.440  12.215
19096W        W84081   0.204  43.933   1.730
19097W        W84082  15.657  23.919  12.217
19098W        W84083   2.800   4.633  14.288
19099W        W84084  43.457  39.828   1.418
19100W        W84085  38.356  16.569   2.371
19101W        W84086  41.524  27.551   3.621
19102W        W84087  14.817  43.967  11.723
19103W        W84088  38.974  26.655  11.573
19104W        W84089  32.910  33.856   4.516
19105W        W84090  39.349  19.886   0.389
19106W        W84091  23.682  20.109   3.486
19107W        W84092   4.810  42.885  12.567
19108W        W84093  14.728   6.314   2.008
19109W        W84094  21.181   1.734  10.706
19110W        W84095  41.736   3.169   4.103
19111W        W84096  38.885  14.676  12.602
19112W        W84097  29.443  30.146   2.282
19113W        W84098  38.020  31.581  11.651
19114W        W84099  29.689  31.939  13.311
19115W        W84100   4.170   5.100   2.317
19116W        W84101   4.302  10.619   1.427
19117W        W84102  32.406  31.151  13.950
19118W        W84103  19.577  37.923  11.471
19119W        W84104   3.531  42.282  12.527
19120W        W84105  19.223   5.950   2.824
19121W        W84106  20.824   9.575   2.589
19122W        W84107  26.057   4.385   0.222
19123W        W84108  14.833   2.376   1.330
19124W        W84109  28.400  12.272  10.844
19125W        W84110  28.061   2.165  13.377
19126W        W84111  26.673  42.280  12.177
19127W        W84112  15.009   9.401   2.751
19128W        W84113  43.869  43.798  10.654
19129W        W84114  25.613  11.617  11.516
19130W        W84115  16.861  41.803  13.006
19131W        W84116  35.531   5.485  14.809
19132W        W84117   5.209   7.221   2.383
19133W        W84118  36.228  36.423  11.368
19134W        W84119   6.848  27.085   4.827
19135W        W84120  10.944  31.108   2.597
19136W        W84121  42.003  37.923  12.517
19137W        W84122   6.263  43.683   1.454
19138W        W84123  30.973  32.616  12.008
19139W        W84124  12.343  26.455   1.100
19140W        W84125   9.300  42.279   1.160
19141W        W84126  42.623  29.256  13.323
19142W        W84127  12.763   2.883  11.250
19143W        W84128  33.193   1.668   1.748
19144W        W84129   2.190   1.204   0.895
19145W        W84130  22.538  10.758   3.384
19146W        W84131  40.091  21.227   3.681
19147W        W84132  14.354   8.234  13.029
19148W        W84133   2.915  15.782   0.308
19149W        W84134   3.948  11.148   0.414
19150W        W84135  23.101  11.679   3.705
19151W        W84136  42.928   2.933   2.469
19152W        W84137  31.176   2.336  11.422
19153W        W84138  44.057  33.917   1.838
19154W        W84139  32.003  17.143  12.145
19155W        W84140   4.244  33.903   3.760
19156W        W84141  17.052  43.380  14.172
19157W        W84142  36.845  13.709   2.206
19158W        W84143   3.950   0.462  11.117
19159W        W84144   2.810  33.226  11.065
19160W        W84145  28.098   7.495  11.171
19161W        W84146  31.378   8.915  11.083
19162W        W84147  22.252   5.747   3.497
19163W        W84148  18.814   2.327   3.218
19164W        W84149   9.226  12.634  10.793
19165W        W84150  32.069   7.098   4.374
19166W        W84151  42.233  16.126   4.460
19167W        W84152  40.256  12.631  11.931
19168W        W84153  14.098   6.916   4.644
19169W        W84154  11.689   4.997  12.587
19170W        W84155  20.093   0.209   0.263
19171W        W84156  10.187  27.603   4.665
19172W        W84157  25.089  16.343   3.333
19173W        W84158  24.331  17.142   0.280
19174W        W84159  13.251  20.980  12.074
19175W        W84160  38.560  36.421   1.795
19176W        W84161  24.868  41.854  14.991
19177W        W84162   5.102  41.065   4.417
19178W        W84163  26.993  37.917   1.412
19179W        W84164   3.862   1.945  12.606
19180W        W84165  43.576  12.329   3.676
19181W        W84166  44.023  15.355  13.914
19182W        W84167  42.711  36.062  12.658
19183W        W84168   4.909   1.259  11.655
19184W        W84169  22.603  44.079   2.962
19185W        W84170  22.815   9.371   4.303
19186W        W84171  39.001  24.168  14.305
19187W        W84172  14.981  16.021   0.297
19188W        W84173  29.984  14.633   2.174
19189W        W84174  22.613  19.042  14.311
19190W        W84175  15.188   1.818  13.296
19191W        W84176  35.857  11.668  14.196
19192W        W84177  13.644  38.819  12.507
19193W        W84178  14.538   3.891   0.233
19194W        W84179   2.910  40.843  14.390
19195W        W84180  37.742  29.253  11.833
19196W        W84181  13.637  36.546   4.140
19197W        W84182  37.008   4.210   3.620
19198W        W84183   7.729  43.390   1.466
19199W        W84184  36.828   9.827  14.462
19200W        W84185  31.222  12.459   2.307
19201W        W84186  11.307  19.814  12.902
19202W        W84187  15.745  25.986   2.322
19203W        W84188  16.254  37.660  11.878
19204W        W84189  40.494  38.032   4.261
19205W        W84190  25.668   5.404  11.149
19206W        W84191  24.734  20.170  13.096
19207W        W84192  29.168  21.820   1.932
19208W        W84193  42.701  40.557  11.509
19209W        W84194   2.465  43.497  14.248
19210W        W84195  39.268  34.569   2.263
19211W        W84196  38.116  44.276  13.401
19212W        W84197  31.529   6.996   2.687
19213W        W84198  34.547  24.549   0.028
19214W        W84199  14.367  12.981  14.746
19215W        W84200  17.669  24.523  11.033
19216W        W84201   9.939  27.505  11.206
19217W        W84202  27.253   1.288  14.629
19218W        W84203   4.292  34.324  14.411
19219W        W84204  15.913  32.152   0.843
19220W        W84205  12.324  17.544   0.695
19221W        W84206  34.888  18.090   9.881
19222W        W84207  24.624  43.353   1.767
19223W        W84208  19.810  20.271   0.252
19224W        W84209  25.838  38.451  11.349
19225W        W84210  18.999  29.451   4.097
19226W        W84211   3.202  37.105  12.857
19227W        W84212  30.594  13.290  13.843
19228W        W84213   6.960   6.683   2.888
19229W        W84214   2.170   5.238   0.744
19230W        W84215  10.476  25.584  10.381
19231W        W84216   3.484  38.032   2.373
19232W        W84217  29.760  17.055  13.087
19233W        W84218  23.826  39.921   0.798
19234W        W84219  16.437  20.109  14.521
19235W        W84220  18.054  15.386  11.921
19236W        W84221  28.675  41.208  13.986
19237W        W84222   0.681  29.631  11.369
19238W        W84223  44.825  30.338   2.246
19239W        W84224   3.741  42.212  14.377
19240W        W84225  11.391   1.267   0.344
19241W        W84226  35.412  35.402   2.758
19242W        W84227  20.548  23.115   3.590
19243W        W84228  14.158  17.772   1.685
19244W        W84229  19.728  21.983   3.120
19245W        W84230  27.174  34.709   0.862
19246W        W84231  20.261  27.540   0.713
19247W        W84232  41.875  41.397  12.877
19248W        W84233  27.004  38.022   2.877
19249W        W84234  44.349  31.931   0.274
19250W        W84235  27.509  14.360  13.920
19251W        W84236   1.760   2.248   0.044
19252W        W84237  18.180  10.255   4.727
19253W        W84238  23.461  39.983   4.378
19254W        W84239  10.834  27.887  13.375
19255W        W84240  40.451  31.692  13.350
19256W        W84241  25.509  10.826  14.391
19257W        W84242  15.105  40.442   4.253
19258W        W84243   2.459  16.371   1.040
19259W        W84244   7.143  12.746   0.406
19260W        W84245  33.355   9.759   1.922
19261W        W84246  18.373  26.173  12.335
19262W        W84247  16.706  39.742  12.544
19263W        W84248  11.357  34.679   0.243
19264W        W84249  40.789  35.013  14.783
19265W        W84250   4.689  27.228  11.496
19266W        W84251   4.943  41.900   2.670
19267W        W84252  16.192  38.406  11.133
19268W        W84253  12.333  18.687   3.224
19269W        W84254   3.714  37.093  13.035
19270W        W84255   5.754  37.887  14.223
19271W        W84256  23.192  28.515   0.769
19272W        W84257  13.297  33.352  13.827
19273W        W84258  19.743   9.708   1.262
19274W        W84259  41.534  22.111  10.673
19275W        W84260  26.471  15.404  14.164
19276W        W84261  21.152  37.844  14.386
19277W        W84262  24.735  34.605  14.861
19278W        W84263  19.149   3.471  13.734
19279W        W84264  40.460  17.036   1.342
19280W        W84265  29.577  29.552  13.430
19281W        W84266  39.554   1.489  12.024
19282W        W84267  10.534  42.288   0.333
19283W        W84268  13.352  37.441   4.058
19284W        W84269  34.293   4.372  12.467
19285W        W84270   4.977   1.789   2.222
19286W        W84271   0.627  14.748   2.774
19287W        W84272  14.425  37.496  11.921
19288W        W84273  39.527  37.953   2.921
19289W        W84274  10.270  29.115  12.079
19290W        W84275  31.148  28.644   3.267
19291W        W84276   8.568  37.836  12.565
19292W        W84277   2.923  21.191   1.933
19293W        W84278  29.597  33.718   4.641
19294W        W84279  33.558  21.092   3.282
19295W        W84280  24.597  42.314   1.676
19296W        W84281   6.914  28.874   2.656
19297W        W84282  10.870  10.308   1.010
19298W        W84283  26.654  19.568  10.306
19299W        W84284  25.550  28.491   4.683
19300W        W84285  10.571   0.123  12.260
19301W        W84286  34.172   1.335  14.421
19302W        W84287  36.922   1.337  12.884
19303W        W84288   0.419  33.590  12.798
19304W        W84289   6.074   0.453   2.156
19305W        W84290  12.589  35.434  14.560
19306W        W84291  30.648  36.137  13.108
19307W        W84292  12.664   6.366  11.109
19308W        W84293   0.005  18.677  13.618
19309W        W84294   7.600  25.127   3.700
19310W        W84295  39.001   7.428  12.088
19311W        W84296  35.522  37.896   0.007
19312W        W84297  33.358  39.045   0.779
19313W        W84298  23.995  39.925   2.697
19314W        W84299   3.670  40.456   4.534
19315W        W84300  29.586   2.349   2.698
19316W        W84301  20.336  36.095   2.382
19317W        W84302  25.981  40.786  14.858
19318W        W84303  29.422   5.403  12.657
19319W        W84304  36.053   4.307   3.175
19320W        W84305   5.149  21.628  12.401
19321W        W84306  42.282  13.172   3.185
19322W        W84307  25.873  26.511   4.558
19323W        W84308  38.075   3.754   1.856
19324W        W84309  13.746  32.109  13.231
19325W        W84310   5.224  30.728  11.788
19326W        W84311   3.067  26.004  11.177
19327W        W84312  36.527  13.856   0.463
19328W        W84313  10.251   0.050   2.559
19329W        W84314  18.374  32.160  12.404
19330W        W84315  38.196  26.305   2.770
19331W        W84316  13.663  10.839  12.563
19332W        W84317   1.484  12.397  14.579
19333W        W84318  32.912  30.844   3.778
19334W        W84319  25.836  40.094   0.903
19335W        W84320  39.953  33.852  13.940
19336W        W84321   6.749  32.485  11.610
19337W        W84322   3.188   6.502   4.200
19338W        W84323  28.367  20.238  14.013
19339W        W84324  43.116  19.783   9.942
19340W        W84325  31.409   8.249   1.263
19341W        W84326  36.355  43.480   1.422
19342W        W84327   9.635  11.308   2.368
19343W        W84328  41.024  25.206  12.993
19344W        W84329   0.308   5.862  12.538
19345W        W84330  25.215  17.313   4.933
19346W        W84331  25.485  14.196  13.858
19347W        W84332  18.358  13.625   1.245
19348W        W84333  34.909  19.967   0.440
19349W        W84334  25.484  26.422   3.629
19350W        W84335  31.563  14.686  13.316
19351W        W84336   7.102  17.983   3.778
19352W        W84337  18.364  41.533   4.692
19353W        W84338  26.602  27.625  10.286
19354W        W84339  12.256  37.329   0.719
19355W        W84340  29.106  42.322  12.928
19356W        W84341   9.755  26.677  14.853
19357W        W84342  22.878   0.320  10.851
19358W        W84343  29.522  37.178   1.863
19359W        W84344  17.805  17.132  12.198
19360W        W84345  13.825   9.173  11.903
19361W        W84346  21.959  21.049  12.425
19362W        W84347  29.480   9.208   1.291
19363W        W84348  18.090  23.795   2.197
19364W        W84349  30.928   0.556   4.220
19365W        W84350  22.291  44.530   4.689
19366W        W84351  21.659  26.622   3.136
19367W        W84352   5.458   0.052   4.151
19368W        W84353  42.423   7.006   4.262
19369W        W84354   5.830   0.238   1.752
19370W        W84355  10.179  24.727  13.754
19371W        W84356  22.537  30.012  13.913
19372W        W84357  38.268   9.392  12.936
19373W        W84358  14.797  20.025  10.807
19374W        W84359  41.824   4.348  13.938
19375W        W84360  26.868   5.435  12.143
19376W        W84361  40.286  21.533  12.824
19377W        W84362  28.627  38.466   4.783
19378W        W84363   7.278  28.440   1.695
19379W        W84364  16.267  41.022   0.504
19380W        W84365  38.711  35.329  14.266
19381W        W84366   4.925  26.952   4.583
19382W        W84367  31.682  16.071   0.265
19383W        W84368   4.848  28.329   1.264
19384W        W84369  36.886  21.798   0.040
19385W        W84370  14.806  42.818   9.900
19386W        W84371  32.507  26.640  11.266
19387W        W84372   6.373  29.574  14.862
19388W        W84373  28.096  40.448   1.511
19389W        W84374   0.956  39.889  11.652
19390W        W84375  18.697  37.029   1.767
19391W        W84376  24.248  11.215   3.355
19392W        W84377  32.975  28.960   2.371
19393W        W84378   6.735  18.968   1.427
19394W        W84379  26.870   3.562   1.845
19395W        W84380   6.847   4.120   4.933
19396W        W84381   8.629  11.970   4.486
19397W        W84382  24.018   1.829  14.002
19398W        W84383  35.822  15.835  11.906
19399W        W84384  22.302  37.347  11.570
19400W        W84385  12.642  43.955   1.120
19401W        W84386  20.832   6.755  11.091
19402W        W84387  33.018   0.847   4.588
19403W        W84388  44.918  39.308   1.451
19404W        W84389  26.146  43.923   5.122
19405W        W84390  18.986  26.921  11.582
19406W        W84391  39.905  31.829   2.740
19407W        W84392  17.694   8.776  14.764
19408W        W84393  40.564  36.541  10.444
19409W        W84394  16.507   8.677  13.762
19410W        W84395  20.815  17.636   0.552
19411W        W84396  38.951  23.007   2.222
19412W        W84397  29.269  37.340  12.002
19413W        W84398   6.875   9.522   2.817
19414W        W84399  25.960  18.582   0.828
19415W        W84400   6.175   1.002   4.697
19416W        W84401  17.444  24.132  12.857
19417W        W84402   6.503  33.428  14.301
19418W        W84403  35.930  33.026  11.742
19419W        W84404   4.646  27.233   0.305
19420W        W84405   8.592  30.295  13.805
19421W        W84406  11.719   6.683   3.181
19422W        W84407  15.951   7.730  13.932
19423W        W84408  18.649  42.909  12.489
19424W        W84409  36.498  14.834  11.457
19425W        W84410  29.265   8.753   0.296
19426W        W84411  29.492   3.855  14.463
19427W        W84412  15.731  16.684   0.200
19428W        W84413  41.548  19.730   4.909
19429W        W84414  27.040  25.041   4.682
19430W        W84415  24.572  44.341   3.755
19431W        W84416  18.783  24.469   4.326
19432W        W84417  22.278  22.067   1.878
19433W        W84418  25.569   8.247  14.880
19434W        W84419  35.348  41.541   1.434
19435W        W84420   0.799  24.339   4.129
19436W        W84421  17.689   3.304  14.931
19437W        W84422  20.704  33.459   2.706
19438W        W84423  38.508  13.557   3.024
19439W        W84424  17.975  42.882  10.696
19440W        W84425  21.487  20.680  14.443
19441W        W84426  37.843   5.978  11.970
19442W        W84427  36.212  12.084  14.965
19443W        W84428  12.655  13.871   4.156
19444W        W84429  39.020   2.519   0.892
19445W        W84430  16.196  34.824  14.807
19446W        W84431  25.273  41.796   1.202
19447W        W84432   9.854  17.466   4.639
19448W        W84433  20.181  31.625   4.856
19449W        W84434   1.791   2.169  14.524
19450W        W84435  18.505  14.679  12.599
19451W        W84436  40.056  12.629   1.411
19452W        W84437  14.749  43.042  14.494
19453W        W84438   5.215  30.812  12.927
19454W        W84439  11.678   5.892   2.804
19455W        W84440  43.985   3.610  14.527
19456W        W84441  26.511   4.680  13.773
19457W        W84442  35.650  34.911  11.514
19458W        W84443  38.815   7.377  10.386
19459W        W84444  40.904  38.954  14.378
19460W        W84445  16.528  32.841   0.752
19461W        W84446  17.319  28.493   2.224
19462W        W84447   5.926  17.274   0.779
19463W        W84448  16.863  28.746   0.419
19464W        W84449  39.826   4.238   3.162
19465W        W84450  15.943  33.024  10.009
19466W        W84451   2.834  37.033  13.382
19467W        W84452  42.394  30.803  10.614
19468W        W84453  11.670  12.131   3.917
19469W        W84454  24.599  18.515   2.142
19470W        W84455   0.812  41.823  10.650
19471W        W84456  37.499  17.279   4.374
19472W        W84457  31.545   9.129  11.920
19473W        W84458   4.233  17.724   2.735
19474W        W84459  11.284  35.563  14.908
19475W        W84460  19.240   9.184   2.691
19476W        W84461  10.212  33.709   1.847
19477W        W84462  42.708  19.678  12.452
19478W        W84463  32.687   5.250  12.829
19479W        W84464  26.575  37.106  14.923
19480W        W84465  43.237  15.359  12.593
19481W        W84466   7.929   2.489  12.659
19482W        W84467  24.427   6.191   1.423
19483W        W84468  43.350   0.657  11.130
19484W        W84469  41.541  41.781  11.040
19485W        W84470  35.470  13.338   0.743
19486W        W84471   9.959  11.327   0.391
19487W        W84472   0.929  18.340   1.859
19488W        W84473  20.789  42.799  14.492
19489W        W84474  29.287  44.527  10.756
19490W        W84475   9.233   9.205  13.555
19491W        W84476  12.032  14.692   4.787
19492W        W84477  32.697  21.253   1.371
19493W        W84478  33.651  18.758   1.169
19494W        W84479  34.283  36.918   1.760
19495W        W84480  16.650  23.079  10.913
19496W        W84481  14.246  34.804  14.470
19497W        W84482  20.876   8.760   4.101
19498W        W84483   7.550  40.134   4.554
19499W        W84484  33.547  19.321  13.106
19500W        W84485  41.697  34.081   2.322
19501W        W84486  34.576  34.917  12.067
19502W        W84487  10.970  18.648  10.597
19503W        W84488  44.272  25.740  12.007
19504W        W84489  44.794  16.171   3.240
19505W        W84490  36.738  29.636  13.301
19506W        W84491  39.464  28.135  13.574
19507W        W84492  36.990  32.392  10.716
19508W        W84493  19.290  25.993  12.375
19509W        W84494  32.022  21.109   2.723
19510W        W84495  10.165   1.676   1.740
19511W        W84496  17.554  24.612  10.538
19512W        W84497  20.360  39.823   1.989
19513W        W84498  13.288  25.935  14.976
19514W        W84499  39.279  42.989   2.246
19515W        W84500  35.624  22.241   3.241
19516W        W84501   7.333  15.812   0.740
19517W        W84502  10.145  27.576   0.720
19518W        W84503  42.093   4.336   4.326
19519W        W84504  17.260  21.667   0.262
19520W        W84505  36.643  36.840   3.821
19521W        W84506  12.937  43.879  12.796
19522W        W84507   7.477  11.823  14.293
19523W        W84508  44.246  36.489  10.070
19524W        W84509   1.865  22.356  13.810
19525W        W84510  40.293  16.010   1.194
19526W        W84511   6.682  10.822   4.057
19527W        W84512  23.195  25.921   2.101
19528W        W84513   2.032  37.919  13.877
19529W        W84514  22.674  11.198  14.431
19530W        W84515  31.946  30.758  11.260
19531W        W84516   9.422  11.775   1.223
19532W        W84517   4.604   4.411   2.123
19533W        W84518  27.600  43.777   0.821
19534W        W84519   1.068  36.929   2.778
19535W        W84520  13.021   6.151   1.439
19536W        W84521  31.147   6.268   3.548
19537W        W84522   3.404   3.253  12.390
19538W        W84523  13.656  43.724   4.121
19539W        W84524  29.148  25.028   0.680
19540W        W84525  20.125  16.181  11.541
19541W        W84526  31.930   7.312  12.519
19542W        W84527  22.176  27.727  12.418
19543W        W84528  29.597   4.195  11.811
19544W        W84529  42.914  16.873  14.990
19545W        W84530  43.373  41.207  11.700
19546W        W84531   9.283  18.728  11.575
19547W        W84532   7.159  24.204   3.618
19548W        W84533  34.468  13.033   4.253
19549W        W84534  17.400  17.616   4.557
19550W        W84535  20.452   5.067   1.786
19551W        W84536  28.520  33.829  14.657
19552W        W84537  11.234   9.115  13.544
19553W        W84538  30.129  43.382  10.892
19554W        W84539  20.095  36.441  14.195
19555W        W84540   5.688  12.710   4.895
19556W        W84541  12.972  42.537   3.172
19557W        W84542   8.742  25.518  12.764
19558W        W84543  29.925   1.470  13.549
19559W        W84544  33.197   6.773   2.816
19560W        W84545  23.127  15.209   3.554
19561W        W84546  10.353  20.032   2.737
19562W        W84547  24.239  32.022   2.762
19563W        W84548  10.086  19.273   4.727
19564W        W84549   6.117  42.069   3.038
19565W        W84550  20.088  25.731   0.468
19566W        W84551  19.856  31.381   1.361
19567W        W84552  37.980  38.986  10.675
19568W        W84553   1.019   9.782  12.504
19569W        W84554  18.070  28.600  12.465
19570W        W84555  31.103  14.792   4.567
19571W        W84556  35.356   5.852   2.724
19572W        W84557   7.084   7.721  11.619
19573W        W84558  38.575  44.452  12.434
19574W        W84559  44.749  35.664  11.979
19575W        W84560  40.834  24.684  14.327
19576W        W84561  44.873   1.632   3.000
19577W        W84562  18.096   4.449  11.996
19578W        W84563   7.396  33.862  10.730
19579W        W84564  22.035  38.587   1.231
19580W        W84565  14.986  11.358   2.786
19581W        W84566  38.842  34.030  13.762
19582W        W84567  12.443   1.236  12.563
19583W        W84568  30.231  33.081   9.601
19584W        W84569  23.713  35.486   1.722
19585W        W84570  18.620  13.110  11.752
19586W        W84571  15.992  25.151   1.144
19587W        W84572  16.206   9.807  14.559
19588W        W84573  30.169   4.949   2.215
19589W        W84574  26.920   2.302   2.557
19590W        W84575  15.175  34.805  11.921
19591W        W84576  15.400   3.981  11.426
19592W        W84577  40.251  10.280  12.432
19593W        W84578  25.235   8.847  14.943
19594W        W84579   5.037  22.498   4.080
19595W        W84580  22.135  21.811   3.272
19596W        W84581  13.831   0.648   0.746
19597W        W84582  32.456  33.893   3.340
19598W        W84583  18.541  22.983   0.260
19599W        W84584  30.596   4.047  11.234
19600W        W84585  25.406  43.842  13.959
19601W        W84586  22.802   4.318  14.386
19602W        W84587  36.576   6.303  11.357
19603W        W84588  44.426   0.802  13.853
19604W        W84589  20.257  40.468  13.344
19605W        W84590  15.311  14.279  13.310
19606W        W84591   6.579   3.585   5.406
19607W        W84592  27.697  36.919   3.287
19608W        W84593   4.635  27.700   0.009
19609W        W84594  37.423  23.025  12.525
19610W        W84595  11.201  11.557   4.581
19611W        W84596  43.254   3.773   4.689
19612W        W84597  17.998  37.491  13.822
19613W        W84598  43.559  43.394   2.259
19614W        W84599  26.941  31.580  12.109
19615W        W84600  21.524  32.678  11.136
19616W        W84601  44.502   0.702  11.580
19617W        W84602  32.603  43.347   2.583
19618W        W84603  20.034   8.602  13.091
19619W        W84604   7.000  29.124  11.885
19620W        W84605  31.928  39.017   1.798
19621W        W84606  15.900  24.463   1.857
19622W        W84607  44.752  37.176  12.357
19623W        W84608  14.765  30.896  11.690
19624W        W84609  41.379  10.092  10.754
19625W        W84610  17.167  34.909  14.491
19626W        W84611  37.877  25.952  14.464
19627W        W84612  26.112  24.465   0.923
19628W        W84613  44.028  38.055  11.191
19629W        W84614  38.853  25.700   1.790
19630W        W84615  44.500   8.404  13.805
19631W        W84616  30.068   1.946   1.374
19632W        W84617  44.712  21.678  12.497
19633W        W84618  16.962   3.384  13.022
19634W        W84619   6.693  12.358   2.274
19635W        W84620  16.156  29.258  11.080
19636W        W84621  11.857  11.702  13.037
19637W        W84622  18.568  39.065   3.822
19638W        W84623  31.162  27.637   0.661
19639W        W84624  41.805  18.581  12.539
19640W        W84625  24.733  36.451  12.304
19641W        W84626  11.399  11.693   1.776
19642W        W84627  31.034  28.570  13.057
19643W        W84628  22.670   9.694   0.182
19644W        W84629  21.662  38.547  12.584
19645W        W84630   0.735  27.353   5.030
19646W        W84631  31.410  28.959  12.507
19647W        W84632  21.359  25.238  11.159
19648W        W84633   9.921  26.214  14.032
19649W        W84634   3.536  13.313  10.615
19650W        W84635  18.932  41.738   4.523
19651W        W84636  12.822  29.034  14.926
19652W        W84637  20.509  11.760  13.266
19653W        W84638  22.575  42.910  14.931
19654W        W84639  15.186  34.321  14.498
19655W        W84640  21.292   8.501   4.653
19656W        W84641  43.449   0.163  11.230
19657W        W84642  43.993  28.134   5.462
19658W        W84643  14.965  40.311   1.635
19659W        W84644  35.428  38.405   4.691
19660W        W84645  29.313  32.489  13.518
19661W        W84646  28.971  34.683   3.382
19662W        W84647  29.580  40.855  12.930
19663W        W84648  32.171  10.241   0.409
19664W        W84649  37.953  32.990   0.042
19665W        W84650   7.231  19.428   3.982
19666W        W84651   4.448  37.863   0.021
19667W        W84652  36.677  40.214  14.552
19668W        W84653  23.158  39.350  14.679
19669W        W84654  15.106   8.901   2.695
19670W        W84655  15.091  35.882   4.187
19671W        W84656   7.112  30.733   4.136
19672W        W84657  21.078  23.991  13.891
19673W        W84658  23.295  43.858   3.713
19674W        W84659  25.339  21.322   4.276
19675W        W84660  19.785  16.433  10.719
19676W        W84661  20.227  26.052  12.537
19677W        W84662  42.153   8.209  10.828
19678W        W84663  41.454   5.963   2.629
19679W        W84664  41.516  44.894   2.182
19680W        W84665  37.908   9.893  13.918
19681W        W84666  38.990  28.530   0.699
19682W        W84667  11.804   6.222  10.271
19683W        W84668   3.327  17.284  13.042
19684W        W84669   2.210  29.934  12.922
19685W        W84670   0.953  31.083  11.684
19686W        W84671  18.735  36.480  13.309
19687W        W84672  18.809   1.239  10.969
19688W        W84673  28.116  20.286   4.990
19689W        W84674  41.199  43.747  13.894
19690W        W84675  28.171  38.427  12.071
19691W        W84676  19.934   9.906  12.287
19692W        W84677  39.355  39.020   3.281
19693W        W84678  24.111  15.849  12.614
19694W        W84679  32.562   1.493  11.553
19695W        W84680  22.072  23.763   1.918
19696W        W84681   7.284  41.397   3.735
19697W        W84682   1.309  24.998  10.739
19698W        W84683   5.059  20.708  14.397
19699W        W84684  25.444  19.564  13.823
19700W        W84685   9.006  17.947   3.385
19701W        W84686  23.213  21.235   3.832
19702W        W84687  28.594   6.927  10.764
19703W        W84688   3.012  32.937   3.543
19704W        W84689  40.291   1.822  13.439
19705W        W84690   0.375  35.843  12.054
19706W        W84691  28.528  10.179  12.665
19707W        W84692  25.576  10.098  14.894
19708W        W84693  27.329  28.921   3.630
19709W        W84694  31.418  25.237   4.672
19710W        W84695  16.369   8.229   0.005
19711W        W84696  29.011  42.188   4.413
19712W        W84697  11.951  18.352  11.593
19713W        W84698  13.786   7.096   0.496
19714W        W84699  41.778  22.568  10.674
19715W        W84700  38.966  41.547  10.176
19716W        W84701   2.314   7.316  14.539
19717W        W84702  18.702  24.383  11.105
19718W        W84703  20.704  34.818  14.699
19719W        W84704  37.419  43.985  14.888
19720W        W84705  43.734  22.899  10.705
19721W        W84706  39.667  35.842   5.659
19722W        W84707   1.929  12.229   3.595
19723W        W84708  20.501   4.804   4.138
19724W        W84709   6.817  16.725  12.815
19725W        W84710  39.396   6.229  12.049
19726W        W84711   5.842   8.993   2.320
19727W        W84712   8.819  43.880   1.759
19728W        W84713   8.484  36.702  11.930
19729W        W84714  35.567   1.260   4.047
19730W        W84715  29.201  20.759   0.420
19731W        W84716  20.036  32.300   1.400
19732W        W84717  19.953  32.104   0.929
19733W        W84718   3.100  43.660   2.175
19734W        W84719  44.284   3.914   3.847
19735W        W84720  30.923  11.584   3.569
19736W        W84721  21.612   7.722  14.887
19737W        W84722  36.049  36.392  14.450
19738W        W84723  21.522  15.523  11.647
19739W        W84724  30.006  33.862  11.039
19740W        W84725  22.640   9.593   2.595
19741W        W84726   5.714  42.438   4.801
19742W        W84727  35.260  38.135   2.202
19743W        W84728  29.481  21.801  10.990
19744W        W84729   4.984  26.859   0.216
19745W        W84730   3.497  29.331   1.766
19746W        W84731   6.749  15.642  11.743
19747W        W84732  36.112   6.949   3.152
19748W        W84733  32.559  27.939   9.854
19749W        W84734   6.659  36.794  11.820
19750W        W84735   3.523  38.150   3.828
19751W        W84736   7.723  33.864   1.285
19752W        W84737  26.530  11.229   0.913
19753W        W84738   5.131   3.777   0.322
19754W        W84739  34.949  39.894  11.734
19755W        W84740  22.038  26.441  12.166
19756W        W84741  39.326  41.952  12.593
19757W        W84742  38.405   2.652   2.643
19758W        W84743  40.302  32.466  12.032
19759W        W84744  12.732   9.260   1.290
19760W        W84745  29.206  23.618   4.135
19761W        W84746  26.333  23.029   0.968
19762W        W84747  36.358  25.867  11.223
19763W        W84748  42.468  16.689  12.305
19764W        W84749  42.120  16.292  13.656
19765W        W84750  15.495  10.073   4.958
19766W        W84751  24.656  24.735   3.775
19767W        W84752  21.257  34.986   2.044
19768W        W84753   7.620  43.542  13.457
19769W        W84754  32.358   4.326  10.536
19770W        W84755   9.693  24.952  14.503
19771W        W84756  22.858  43.661   2.787
19772W        W84757   0.322  31.940  11.059
19773W        W84758  29.970  31.367   1.735
19774W        W84759   6.281  27.391  12.944
19775W        W84760  31.134  16.772  14.212
19776W        W84761  36.068  38.298   4.232
19777W        W84762  38.069   4.141  14.654
19778W        W84763  31.850  18.479  11.561
19779W        W84764  14.315  16.662   0.381
19780W        W84765   0.253  33.483  10.956
19781W        W84766  43.862  31.173  11.174
19782W        W84767  14.653  25.031  10.792
19783W        W84768  41.022  43.419   0.190
19784W        W84769   1.129  37.563   5.023
19785W        W84770  41.044  17.583   2.345
19786W        W84771  42.932  43.732   1.483
19787W        W84772  27.155   1.327   0.492
19788W        W84773  30.088  40.360   1.726
19789W        W84774  20.776  43.360  10.712
19790W        W84775   7.419  23.496  10.748
19791W        W84776  21.286  28.489  14.341
19792W        W84777  18.077   2.923   0.336
19793W        W84778   4.567  12.966  14.059
19794W        W84779  18.637  38.452  13.949
19795W        W84780  36.104  16.815   0.889
19796W        W84781   5.224  18.637   1.871
19797W        W84782  19.307  16.843  11.477
19798W        W84783  18.395  18.109   4.023
19799W        W84784  37.817   2.249  10.755
19800W        W84785  33.498  15.262  12.205
19801W        W84786  38.950  13.273   2.718
19802W        W84787  17.587   5.360   2.904
19803W        W84788   1.269   7.581  10.829
19804W        W84789   9.812  28.627   4.131
19805W        W84790  39.514   8.632   1.687
19806W        W84791  29.443   1.747  11.737
19807W        W84792  33.419  44.457  10.926
19808W        W84793  43.469   5.028   3.660
19809W        W84794  28.508  20.557   3.599
19810W        W84795  30.183  41.568  12.408
19811W        W84796  39.807  27.073   4.027
19812W        W84797   1.372  11.110   1.204
19813W        W84798  10.683   6.348   0.822
19814W        W84799  41.957   2.880   1.469
19815W        W84800  36.337  34.378  13.857
19816W        W84801   7.057  31.940  14.587
19817W        W84802  32.894  23.008   0.284
19818W        W84803  25.202   3.844   1.033
19819W        W84804   7.060  10.337   4.976
19820W        W84805  21.790   8.665   2.235
19821W        W84806   8.285   6.993   3.112
19822W        W84807  16.280  32.866  13.966
19823W        W84808  12.936  20.891  11.423
19824W        W84809  20.910  13.161   4.664
19825W        W84810  41.430  33.041   1.777
19826W        W84811  11.773  35.354   3.359
19827W        W84812  30.921  40.489   4.558
19828W        W84813   4.772  30.223   1.858
19829W        W84814   5.632  27.562   0.222
19830W        W84815  32.328  32.892   3.154
19831W        W84816   5.923  28.774  11.904
19832W        W84817  41.521  14.324  14.082
19833W        W84818  35.924  27.086   0.009
19834W        W84819  19.630  34.942  12.711
19835W        W84820  23.622  24.944   0.487
19836W        W84821  42.318  15.241   2.718
19837W        W84822  16.439  19.658   1.893
19838W        W84823  18.257  18.698   0.775
19839W        W84824   6.087  15.632   2.706
19840W        W84825  42.756  12.557   1.624
19841W        W84826   6.245  16.105  10.671
19842W        W84827  25.965   4.485  11.542
19843W        W84828  23.495  40.747   2.619
19844W        W84829  22.074  24.195  13.844
19845W        W84830  18.651  40.625  13.872
19846W        W84831  11.120  19.799   1.697
19847W        W84832  16.620  38.419  14.752
19848W        W84833  23.617  43.576  13.448
19849W        W84834  36.417  24.449  11.352
19850W        W84835  18.976  44.244  13.819
19851W        W84836  37.983  20.306  14.879
19852W        W84837   2.296  39.455   3.126
19853W        W84838  25.453  34.545  12.749
19854W        W84839  21.615  25.725  10.716
19855W        W84840  44.722  39.464   4.058
19856W        W84841  18.816   0.811   3.128
19857W        W84842  38.926  10.309   3.206
19858W        W84843  10.333  38.958  10.455
19859W        W84844  25.311  11.682  14.985
19860W        W84845  43.805   2.703   0.316
19861W        W84846  31.085  12.055   2.639
19862W        W84847  20.260  41.888  11.697
19863W        W84848  32.009   1.550   1.227
19864W        W84849   1.575   7.712   2.239
19865W        W84850   7.384  35.690  11.167
19866W        W84851  13.692  40.964  13.781
19867W        W84852   1.324  19.627   2.964
19868W        W84853  28.439   3.878   4.289
19869W        W84854  34.417  44.471   1.432
19870W        W84855  28.718  18.962  13.875
19871W        W84856  34.448  30.190  10.674
19872W        W84857  44.082  10.715   3.774
19873W        W84858  29.694  15.731   3.215
19874W        W84859  11.228   2.856  12.373
19875W        W84860  43.667   4.011  14.674
19876W        W84861  41.792  14.560  11.109
19877W        W84862   8.242   1.403   0.134
19878W        W84863   2.507  37.314  10.198
19879W        W84864   9.463  11.932  12.418
19880W        W84865   6.683   2.791  14.053
19881W        W84866  23.727  38.463   2.203
19882W        W84867  30.418  10.316   2.638
19883W        W84868   1.969  43.028  12.585
19884W        W84869   8.130  11.333  11.619
19885W        W84870  23.356   0.717   0.931
19886W        W84871  29.994  29.953   3.009
19887W        W84872  21.881  26.383   5.041
19888W        W84873  43.566  25.048   5.690
19889W        W84874  35.963   7.737   1.769
19890W        W84875  35.271  12.040   5.189
19891W        W84876   2.225   9.839   4.323
19892W        W84877  38.388  39.964  10.442
19893W        W84878  15.358  44.287   0.413
19894W        W84879  30.725   0.161   1.270
19895W        W84880  24.259  13.165   4.723
19896W        W84881  39.648  20.013   3.364
19897W        W84882   5.715  41.235   4.605
19898W        W84883  44.468  23.837   2.898
19899W        W84884  14.591   5.299   4.758
19900W        W84885  37.997  36.351  14.510
19901W        W84886  41.959  20.591   0.957
19902W        W84887  19.441  10.253  10.844
19903W        W84888  36.545   2.772  14.904
19904W        W84889  14.528  26.996   1.796
19905W        W84890   1.997  11.539   5.063
19906W        W84891   8.397  13.185   1.460
19907W        W84892   0.806   7.591  14.350
19908W        W84893  39.892  10.296   1.283
19909W        W84894  15.785  25.514   3.132
19910W        W84895   6.821  13.364   4.645
19911W        W84896  36.678  36.603  11.156
19912W        W84897  12.306   7.940   4.501
19913W        W84898  39.444  44.521  13.388
19914W        W84899  26.575  37.880   2.254
19915W        W84900   9.390  43.222   1.608
19916W        W84901  31.144   1.082  12.037
19917W        W84902   1.044  13.307   2.801
19918W        W84903  33.417  44.424  14.415
19919W        W84904   9.204  43.637  12.917
19920W        W84905   4.376  33.467  11.594
19921W        W84906   7.273  35.396  11.630
19922W        W84907  21.422  23.890   4.316
19923W        W84908  28.688  31.619  10.262
19924W        W84909  41.867   7.923  11.153
19925W        W84910  38.067  41.386  14.878
19926W        W84911  27.471  43.434   5.389
19927W        W84912  42.441   0.752  13.549
19928W        W84913  16.508  23.131   2.404
19929W        W84914  31.370  21.228   2.380
19930W        W84915  35.891  32.857  14.296
19931W        W84916   4.321  31.991  12.691
19932W        W84917   0.558  26.998  14.980
19933W        W84918  35.555  36.465   1.739
19934W        W84919  23.091  17.740   4.623
19935W        W84920   3.808  13.589   1.793
19936W        W84921  38.246  22.129   1.001
19937W        W84922  11.691  12.456  12.055
19938W        W84923  39.108  18.068   4.046
19939W        W84924  15.251   5.234   2.353
19940W        W84925  15.104  10.353   1.336
19941W        W84926  16.250  38.868  14.025
19942W        W84927  42.937  26.532  13.524
19943W        W84928  13.851  39.905   3.713
19944W        W84929  15.925  29.307   0.755
19945W        W84930  33.478  31.811  10.551
19946W        W84931  30.686   8.036   1.125
19947W        W84932  42.552  35.373  13.439
19948W        W84933   1.950  34.313   4.441
19949W        W84934  13.178  36.626   0.397
19950W        W84935   7.871  39.676  11.616
19951W        W84936  36.395  31.751   3.303
19952W        W84937   6.775  41.246   3.870
19953W        W84938  16.803  38.784  12.513
19954W        W84939  12.417  31.955   3.988
19955W        W84940   2.465  43.042  13.436
19956W        W84941  11.819  33.583  11.620
19957W        W84942  13.233  30.433  13.016
19958W        W84943  19.647   3.164  11.561
19959W        W84944  39.117  38.287  12.196
19960W        W84945   2.836  40.360  10.603
19961W        W84946  39.346  14.685  11.587
19962W        W84947  12.923  10.233   0.006
19963W        W84948   6.113  21.978  14.987
19964W        W84949  10.178   5.418   3.632
19965W        W84950  11.616  28.869  12.967
19966W        W84951  24.951   6.191   2.907
19967W        W84952  13.521  11.862   2.674
19968W        W84953  36.878  40.147  11.554
19969W        W84954   9.216  19.791  12.433
19970W        W84955   2.792   3.536   2.740
19971W        W84956  15.650   0.051   1.003
19972W        W84957   0.391  30.078   2.134
19973W        W84958   3.997  18.793   3.636
19974W        W84959  22.507  27.727  12.018
19975W        W84960  30.853  14.558  12.482
19976W        W84961  18.178  41.726   3.631
19977W        W84962   4.152  23.536   1.268
19978W        W84963  25.098  44.090   2.859
19979W        W84964   7.813   5.154  13.963
19980W        W84965   1.431  17.285  12.930
19981W        W84966   4.870   6.328   2.857
19982W        W84967  32.692  26.353  12.201
19983W        W84968  17.553  30.418  13.845
19984W        W84969  36.621   3.387  12.891
19985W        W84970  25.903  41.521   1.831
19986W        W84971  12.059   3.549  11.543
19987W        W84972   0.407  13.368  14.504
19988W        W84973   4.551  14.695  14.460
19989W        W84974  22.139  18.555   1.626
19990W        W84975  12.343  43.043   4.193
19991W        W84976  14.036  18.714  12.660
19992W        W84977  36.818  10.762   3.239
19993W        W84978  38.643  10.678  10.958
19994W        W84979  24.362   3.097   2.868
19995W        W84980  36.068  28.985   2.451
19996W        W84981  31.621  20.229   1.252
19997W        W84982  44.746  27.584   9.682
19998W        W84983  14.431  34.836  13.404
19999W        W84984   2.474  41.922   1.985
20000W        W84985  18.036  23.548  12.588
20001W        W84986  40.003   9.334  12.426
20002W        W84987   3.206  33.556  14.006
20003W        W84988  31.586  11.582  11.622
20004W        W84989  35.787  41.842  13.936
20005W        W84990  11.475  17.140   1.436
20006W        W84991  28.428   2.194   0.000
20007W        W84992   7.076  44.692   3.798
20008W        W84993  13.861   3.649   0.747
20009W        W84994  19.036  28.708  12.579
20010W        W84995  28.245  43.933  11.187
20011W        W84996  32.626   3.193   3.104
20012W        W84997  35.016  31.912  13.398
20013W        W84998  36.772  31.860   1.659
20014W        W84999  20.423  39.881  12.569
20015W        W85000   8.427   1.925   2.272
20016W        W85001  23.621  16.562  10.698
20017W        W85002  25.133   1.816   2.649
20018W        W85003  36.205  14.281   4.694
20019W        W85004  13.646  37.976   5.079
20020W        W85005   6.690  17.099   4.467
20021W        W85006  26.476  41.848  14.318
20022W        W85007  17.574   0.492  12.956
20023W        W85008  16.864  21.957   1.936
20024W        W85009  41.455  42.330   4.020
20025W        W85010  40.279   8.502  10.797
20026W        W85011   1.752   7.238   0.686
20027W        W85012  17.724  41.363  13.289
20028W        W85013   4.232   5.372   1.857
20029W        W85014  18.001  22.742   0.219
20030W        W85015  37.548  13.648  12.383
20031W        W85016  35.098  35.061  12.040
20032W        W85017  34.145  22.729   0.496
20033W        W85018   3.498  34.327   4.308
20034W        W85019   4.861  36.881  14.376
20035W        W85020  21.110  24.254  13.271
20036W        W85021  29.372  25.052   0.209
20037W        W85022  38.944  41.438  11.774
20038W        W85023   8.528   6.478  10.995
20039W        W85024  18.212  40.241   1.222
20040W        W85025  27.006  29.658   1.705
20041W        W85026  41.788   7.840   0.296
20042W        W85027   9.153  35.318  12.575
20043W        W85028  31.575  38.245  13.552
20044W        W85029  41.861   3.401  11.729
20045W        W85030  13.546   8.255  14.258
20046W        W85031  23.237  41.295   2.356
20047W        W85032  25.203  31.278   0.831
20048W        W85033  22.018  19.982  13.466
20049W        W85034  21.567  18.707   3.129
20050W        W85035  35.043  27.501  10.764
20051W        W85036  31.042  12.663  10.614
20052W        W85037  43.351  15.904  11.118
20053W        W85038  24.642  24.226   3.641
20054W        W85039  22.089  35.855   1.401
20055W        W85040  28.603  25.615  12.163
20056W        W85041  44.528  38.904   0.386
20057W        W85042  31.413  43.640  11.101
20058W        W85043  18.119   7.630  12.364
20059W        W85044  22.098  36.489  12.658
20060W        W85045  36.096  21.953  12.926
20061W        W85046  16.758  41.260  12.561
20062W        W85047  12.213  15.493  10.965
20063W        W85048   2.368  10.902  12.579
20064W        W85049  36.971  43.212   0.307
20065W        W85050  27.065  15.984   4.224
20066W        W85051  32.639  41.995   1.413
20067W        W85052  13.244  13.716   1.241
20068W        W85053  15.065  39.689  14.018
20069W        W85054  22.619  27.018  14.550
20070W        W85055  26.115  11.530  12.391
20071W        W85056  19.352  18.943  12.635
20072W        W85057  22.061  24.912  12.010
20073W        W85058  44.714   4.218   3.067
20074W        W85059  30.074   6.744  11.000
20075W        W85060  25.256  25.959   0.272
20076W        W85061  39.870  42.856  14.211
20077W        W85062  28.394   7.666   0.557
20078W        W85063  41.572   4.351   2.497
20079W        W85064  30.965  35.816   4.215
20080W        W85065  40.390  17.298   1.807
20081W        W85066  17.691  10.402   4.617
20082W        W85067  40.492  36.372   0.694
20083W        W85068   8.736  35.108   2.846
20084W        W85069  43.197  22.524   4.181
20085W        W85070   5.950  25.597   1.688
20086W        W85071  15.056  23.200   4.241
20087W        W85072   0.230  43.460   4.150
20088W        W85073  33.979  41.798   3.196
20089W        W85074  10.262  38.850   3.889
20090W        W85075  19.714   2.891  11.002
20091W        W85076  42.512  19.690  11.983
20092W        W85077  38.352  43.894  13.846
20093W        W85078   1.937  27.188  14.049
20094W        W85079  29.582  25.752   2.888
20095W        W85080  37.726  25.176   9.741
20096W        W85081   1.407   8.979   2.675
20097W        W85082  35.456  11.696   4.851
20098W        W85083   4.475   8.859   4.648
20099W        W85084  26.315  30.123   2.759
20100W        W85085  17.374   8.138  11.528
20101W        W85086   2.422  25.781  11.979
20102W        W85087  14.430   0.434  14.322
20103W        W85088  12.608  10.282   1.476
20104W        W85089  44.971  32.818  13.326
20105W        W85090  40.385  30.963   4.559
20106W        W85091  14.874  17.798   2.203
20107W        W85092  41.857  32.481  12.986
20108W        W85093  10.206   9.249   3.579
20109W        W85094  25.056  20.321  12.410
20110W        W85095  36.958  21.216   1.813
20111W        W85096  37.222  11.318  14.578
20112W        W85097  14.845   0.518   0.995
20113W        W85098   7.345  20.154  14.929
20114W        W85099  31.574  24.497  10.525
20115W        W85100   0.342   3.715  11.236
20116W        W85101  25.495  12.662   4.629
20117W        W85102  29.466  20.083  10.935
20118W        W85103  41.394   2.319   1.831
20119W        W85104  28.574  29.528  13.533
20120W        W85105   5.403   8.230   0.514
20121W        W85106  42.170  29.125   5.494
20122W        W85107  44.454  24.186   2.524
20123W        W85108  35.924  31.520   3.268
20124W        W85109  33.979  26.777   4.296
20125W        W85110  12.157  13.646  11.198
20126W        W85111  26.966  10.609  11.466
20127W        W85112  33.811   9.321   1.243
20128W        W85113  34.472  17.651   0.315
20129W        W85114  37.895   3.273   2.028
20130W        W85115  30.583  15.976  10.400
20131W        W85116  32.900   4.215  13.017
20132W        W85117  31.111  36.638  11.510
20133W        W85118   9.344  40.820  14.792
20134W        W85119  42.504  21.282   1.815
20135W        W85120  44.350  33.281  12.808
20136W        W85121  12.656  27.619  12.634
20137W        W85122  12.157  24.011  14.404
20138W        W85123  28.199  37.935  14.806
20139W        W85124  17.640   8.959  12.871
20140W        W85125  30.512   9.320   0.284
20141W        W85126  44.182  12.040  13.082
20142W        W85127   5.305  40.397   2.142
20143W        W85128  29.992  28.585   2.462
20144W        W85129  23.623  41.289   0.042
20145W        W85130   7.795  17.108   0.766
20146W        W85131  37.054  18.167  14.260
20147W        W85132  37.098  17.767  10.658
20148W        W85133  23.708  39.990   1.292
20149W        W85134   2.886  23.143  11.975
20150W        W85135   9.718  10.346  11.556
20151W        W85136  11.559  28.560   4.704
20152W        W85137  14.046  10.785   4.736
20153W        W85138  11.328  16.113  11.519
20154W        W85139   2.796  29.831  11.951
20155W        W85140   0.451  22.584   0.267
20156W        W85141  28.943   1.832   3.703
20157W        W85142   2.913  43.974  12.485
20158W        W85143   5.813  44.902  12.931
20159W        W85144   4.915  34.077   1.011
20160W        W85145  39.756  40.594   1.734
20161W        W85146  23.118  42.050   0.034
20162W        W85147  25.649   1.758  14.977
20163W        W85148  27.947  13.102   3.233
20164W        W85149   1.159  27.229   2.670
20165W        W85150  30.867  19.021  12.191
20166W        W85151  21.545  41.730   1.883
20167W        W85152  31.389  18.678   2.421
20168W        W85153   4.717  13.219   0.770
20169W        W85154  25.571  26.255   2.292
20170W        W85155  14.113  31.633  10.539
20171W        W85156  17.203  35.050   0.514
20172W        W85157   2.269   7.162   3.307
20173W        W85158  18.640   7.325   4.484
20174W        W85159  38.747   8.307  11.893
20175W        W85160  36.867  12.557  12.015
20176W        W85161  26.226  32.611  14.850
20177W        W85162  42.493  21.712   4.591
20178W        W85163   7.455   8.449   3.636
20179W        W85164  22.649  27.873  12.536
20180W        W85165   2.737  29.930   2.317
20181W        W85166  15.629  43.656  13.241
20182W        W85167  43.983  33.006   4.748
20183W        W85168  19.041  39.212   4.033
20184W        W85169   6.894   3.877   0.498
20185W        W85170  25.472  38.428   2.683
20186W        W85171  21.632  14.653   0.690
20187W        W85172  13.874  38.952   2.436
20188W        W85173  27.004  11.772   4.609
20189W        W85174  37.629  36.942  14.823
20190W        W85175  41.020   9.623  11.175
20191W        W85176  27.106  10.784  11.922
20192W        W85177   9.791  14.706  12.429
20193W        W85178  27.562   5.197   0.917
20194W        W85179  41.668  31.708  12.569
20195W        W85180  15.343  14.666  10.625
20196W        W85181  26.220  38.060  12.372
20197W        W85182  17.028  40.484   4.099
20198W        W85183  26.797  29.537   0.391
20199W        W85184  42.480   4.937  12.895
20200W        W85185  11.640   0.950   4.092
20201W        W85186   6.459  17.135   1.242
20202W        W85187  28.643  34.469  13.480
20203W        W85188   8.233   7.556  11.569
20204W        W85189  43.861  39.782   2.359
20205W        W85190  41.804   5.743  10.655
20206W        W85191   7.430  19.582  13.557
20207W        W85192  44.968   7.762   2.463
20208W        W85193  10.631   1.267   3.141
20209W        W85194  13.768   6.025   3.570
20210W        W85195  28.961  26.873  11.168
20211W        W85196  23.282  14.060   0.838
20212W        W85197  12.677  23.993  14.287
20213W        W85198   6.625  30.186   2.336
20214W        W85199  43.998  33.537  13.109
20215W        W85200  19.592  21.236  12.448
20216W        W85201  25.042  11.055   3.564
20217W        W85202   4.298  42.772  11.361
20218W        W85203  40.357  17.219  14.865
20219W        W85204   7.192   2.370  12.195
20220W        W85205  35.146  17.378   4.163
20221W        W85206   7.103  10.639  10.887
20222W        W85207   6.671  15.764   3.381
20223W        W85208  33.399  42.947  12.094
20224W        W85209   3.763  24.122   3.411
20225W        W85210  44.209  33.366   3.517
20226W        W85211  41.948  18.798  14.371
20227W        W85212  16.495  17.527  11.059
20228W        W85213  41.406   8.158   1.439
20229W        W85214  13.393  22.525   3.122
20230W        W85215  26.633  36.971  11.459
20231W        W85216  33.104  17.085   2.472
20232W        W85217  21.048  22.313   4.012
20233W        W85218  25.428   9.777   3.178
20234W        W85219  37.240  26.045  13.753
20235W        W85220  28.170  15.031  12.425
20236W        W85221  33.778   5.417   4.158
20237W        W85222   5.426   6.486   4.530
20238W        W85223   0.283  18.151   3.539
20239W        W85224  31.032  17.290   2.356
20240W        W85225  27.283  34.594  12.770
20241W        W85226  44.377  44.921  13.397
20242W        W85227   8.205  40.572   1.382
20243W        W85228  36.093   5.887  10.758
20244W        W85229   1.959  19.691   0.328
20245W        W85230   0.385  23.863  13.545
20246W        W85231  21.079   2.757   2.155
20247W        W85232   0.850  22.667  12.591
20248W        W85233  29.954  34.375  14.665
20249W        W85234   5.729  13.725  11.874
20250W        W85235   7.838  42.935   3.005
20251W        W85236  25.033  43.888   4.223
20252W        W85237  30.187  12.837  14.317
20253W        W85238  10.469  39.522  13.504
20254W        W85239   8.222  26.898   0.873
20255W        W85240  21.483  43.844  11.240
20256W        W85241  16.353  25.208  14.504
20257W        W85242  12.884  33.568  14.981
20258W        W85243  36.997  43.644  13.481
20259W        W85244   7.956  24.786   0.638
20260W        W85245  25.013  21.459   2.184
20261W        W85246  37.127   2.675   2.616
20262W        W85247  28.846  23.056   1.486
20263W        W85248   3.979   1.906   5.257
20264W        W85249  24.519   5.969   4.422
20265W        W85250  24.861  33.111   0.585
20266W        W85251   9.907  11.352  11.533
20267W        W85252  17.742  22.606   3.064
20268W        W85253  22.085  15.161  11.002
20269W        W85254  43.272  21.329  12.251
20270W        W85255  34.876  33.345   2.384
20271W        W85256  27.185  28.630   4.212
20272W        W85257  33.933  13.818  11.912
20273W        W85258  19.751  31.419  14.068
20274W        W85259  16.287  24.895   2.763
20275W        W85260  14.759  13.578  11.981
20276W        W85261   1.309  15.342   0.403
20277W        W85262  12.705   7.303   4.777
20278W        W85263  41.070  41.638  13.374
20279W        W85264  43.869  15.521   1.569
20280W        W85265  22.842  16.638   1.768
20281W        W85266  23.077  40.464   4.945
20282W        W85267  19.756  38.572  10.784
20283W        W85268  36.381  41.124  14.334
20284W        W85269   3.939   8.491  13.701
20285W        W85270  17.330  10.267  13.195
20286W        W85271  12.835  24.316  13.846
20287W        W85272  30.609  44.182   3.780
20288W        W85273  34.782  14.805  12.335
20289W        W85274  39.090   1.268  13.782
20290W        W85275  22.699  42.578   0.342
20291W        W85276   3.442   8.320  11.032
20292W        W85277  37.789   8.168   0.989
20293W        W85278   8.136  10.336   2.395
20294W        W85279  23.609  25.070   0.991
20295W        W85280  38.536  31.583  13.471
20296W        W85281  36.290  23.224  13.756
20297W        W85282  19.042   8.921   1.320
20298W        W85283  42.954  19.315  11.226
20299W        W85284   2.697  27.601  11.950
20300W        W85285  36.041  31.679  12.552
20301W        W85286   0.594  18.226  14.422
20302W        W85287   3.323  25.550   2.849
20303W        W85288  21.135  33.914   1.670
20304W        W85289  23.584  34.896   2.828
20305W        W85290   5.756  11.958  14.834
20306W        W85291  28.656  32.478   3.704
20307W        W85292  32.004  33.973   4.682
20308W        W85293  44.645  37.813   3.884
20309W        W85294  30.850  18.548  12.345
20310W        W85295  31.789  36.504  14.926
20311W        W85296  33.085  32.517   4.537
20312W        W85297  31.505  42.040  13.431
20313W        W85298   2.484   4.478   3.701
20314W        W85299  43.002   3.814  10.851
20315W        W85300  31.632   3.186  12.402
20316W        W85301  16.793  15.898   2.172
20317W        W85302  44.422  38.614   2.772
20318W        W85303  27.456  15.117   3.215
20319W        W85304  12.059  25.514   4.782
20320W        W85305  35.375  35.562  10.695
20321W        W85306  30.082  26.010   1.995
20322W        W85307  30.204  19.723   4.042
20323W        W85308  17.712  38.140  12.826
20324W        W85309  26.368   4.869  14.236
20325W        W85310  34.460  35.518   2.637
20326W        W85311  30.005  28.640   1.936
20327W        W85312  28.185  16.437  11.964
20328W        W85313  35.908  34.713  14.551
20329W        W85314   1.379  29.510  13.183
20330W        W85315  19.402  10.825   2.878
20331W        W85316  28.134  27.138   3.519
20332W        W85317  21.667  35.597  13.869
20333W        W85318  44.434  28.511  11.462
20334W        W85319  23.103  19.697  13.372
20335W        W85320   4.622  34.706   2.807
20336W        W85321  11.587  16.890  12.548
20337W        W85322  27.640  10.733   3.335
20338W        W85323  12.702  15.726   2.255
20339W        W85324  20.481  35.032  10.793
20340W        W85325  29.408  40.250   1.250
20341W        W85326  20.534   5.334   0.404
20342W        W85327  12.162   2.341   2.889
20343W        W85328  34.887  33.177  14.045
20344W        W85329   0.957  39.389  11.533
20345W        W85330  28.329  17.446   0.493
20346W        W85331  34.469  29.175   3.199
20347W        W85332  43.117  36.498  12.035
20348W        W85333  35.287  11.761   5.622
20349W        W85334  21.163  30.399   0.856
20350W        W85335  39.145   8.295   0.877
20351W        W85336   0.683  32.062  12.015
20352W        W85337  11.545  39.392  10.706
20353W        W85338  41.950   7.041   4.584
20354W        W85339  23.192  35.831   4.379
20355W        W85340  28.064   8.039  11.065
20356W        W85341   3.406  12.788  11.631
20357W        W85342  33.457  10.768   4.498
20358W        W85343   2.290  11.640  10.748
20359W        W85344   2.321  29.952   0.084
20360W        W85345  31.049  11.159   3.028
20361W        W85346  36.508  27.602  11.908
20362W        W85347  32.145   8.747  12.859
20363W        W85348  40.799   3.463   1.326
20364W        W85349   6.738  41.109   0.230
20365W        W85350  34.955  19.599   3.696
20366W        W85351  39.854  25.534   0.815
20367W        W85352  24.006   1.651  10.476
20368W        W85353  16.391  41.328   2.780
20369W        W85354   1.721  12.812   4.158
20370W        W85355  17.169  10.898   3.499
20371W        W85356   6.214  43.521  12.548
20372W        W85357  24.926  23.942  13.077
20373W        W85358  44.473  36.588   1.885
20374W        W85359  32.807   0.364   3.324
20375W        W85360   7.018   7.487  12.870
20376W        W85361   8.792  36.368   4.234
20377W        W85362  20.731  23.695   2.755
20378W        W85363  41.014  42.875   4.704
20379W        W85364  40.273   3.930  10.656
20380W        W85365  44.975   1.983   0.569
20381W        W85366   2.321  11.909  13.989
20382W        W85367   9.325  39.051   3.739
20383W        W85368   9.179   1.277  11.181
20384W        W85369  21.666  38.363  12.099
20385W        W85370  36.050  38.331  12.132
20386W        W85371  35.973  12.187  11.511
20387W        W85372  40.413  39.333  13.352
20388W        W85373   2.939  24.070  14.225
20389W        W85374  12.851  14.558  11.571
20390W        W85375  18.687  11.417  13.797
20391W        W85376  41.069   4.417   0.587
20392W        W85377   4.152  17.204  12.089
20393W        W85378  17.611  44.085  14.047
20394W        W85379  43.972  37.396   2.361
20395W        W85380  41.282  40.411  14.462
20396W        W85381  27.529  41.010   4.612
20397W        W85382  34.193  14.056   0.240
20398W        W85383  19.750  19.250  12.626
20399W        W85384   4.960   9.802  14.386
20400W        W85385  11.663  18.004   5.013
20401W        W85386  43.093  14.779  13.840
20402W        W85387  15.469   8.166  11.455
20403W        W85388  24.515  18.194   3.312
20404W        W85389  29.670  11.272   2.788
20405W        W85390   8.078  32.458   0.927
20406W        W85391  38.860   2.953   0.345
20407W        W85392  19.807   1.608   3.645
20408W        W85393   5.566  21.226   3.820
20409W        W85394   2.734  36.877  14.271
20410W        W85395  27.746  31.829   5.422
20411W        W85396  26.580  29.571  14.933
20412W        W85397  26.040  19.475   1.197
20413W        W85398   1.785   3.939   4.930
20414W        W85399   3.404  44.497   2.357
20415W        W85400   9.321  24.490  12.909
20416W        W85401  21.015  40.867   0.386
20417W        W85402  43.288  42.860   2.844
20418W        W85403  20.998  25.080   0.412
20419W        W85404  33.146   0.006   0.051
20420W        W85405  39.389   6.327   1.150
20421W        W85406   8.249  17.489   3.533
20422W        W85407  26.156   1.243   1.363
20423W        W85408  30.051  39.573  11.117
20424W        W85409   7.300   3.284  10.587
20425W        W85410  15.263  23.562   0.994
20426W        W85411  37.890   7.295  12.496
20427W        W85412   1.015  40.934  10.913
20428W        W85413  28.383   0.742  10.801
20429W        W85414  41.979  11.885   2.648
20430W        W85415  44.894   3.468  11.009
20431W        W85416   3.455  17.549  13.465
20432W        W85417  15.099   8.518  11.575
20433W        W85418  35.571   4.364  13.884
20434W        W85419  34.793   7.284  12.687
20435W        W85420  25.330  22.122  11.857
20436W        W85421  10.649  41.319  13.051
20437W        W85422  16.690  20.936   1.749
20438W        W85423  37.859  26.078  12.311
20439W        W85424  19.218   6.977   2.778
20440W        W85425   0.247  23.133  14.178
20441W        W85426  28.882  29.045   1.344
20442W        W85427  31.019  21.090   3.434
20443W        W85428   7.225  13.218  11.975
20444W        W85429  35.438  12.406   0.765
20445W        W85430  32.570  22.203   2.354
20446W        W85431  36.618  11.425  10.280
20447W        W85432  36.539  24.377   4.147
20448W        W85433   1.140  18.743  13.786
20449W        W85434   3.987  15.734  11.617
20450W        W85435  24.517  12.556   0.191
20451W        W85436  42.196   3.241   2.825
20452W        W85437  43.277   5.971   0.012
20453W        W85438   6.906  21.603  14.105
20454W        W85439  28.104  19.307   0.408
20455W        W85440  44.877  18.111   9.496
20456W        W85441  29.408   4.226   3.449
20457W        W85442   3.260   8.698  11.406
20458W        W85443  40.105  22.701   1.033
20459W        W85444   0.529  44.423   5.039
20460W        W85445  16.726   1.908   1.273
20461W        W85446  20.242  35.722  13.698
20462W        W85447  11.711  31.396  11.580
20463W        W85448  39.469  25.547  12.388
20464W        W85449  27.013  42.458  12.516
20465W        W85450  14.163   4.047  12.591
20466W        W85451  26.348  28.076   5.048
20467W        W85452  13.565   4.070  14.377
20468W        W85453  12.111  44.280   4.839
20469W        W85454   4.500   5.165   5.062
20470W        W85455  34.905  10.301   1.255
20471W        W85456  22.327  15.019   0.980
20472W        W85457  40.820  28.150   2.383
20473W        W85458  10.937  31.854   3.691
20474W        W85459  21.621  35.988   4.936
20475W        W85460  25.039   7.607   2.711
20476W        W85461  23.838  29.207  12.073
20477W        W85462  36.684  44.950   4.413
20478W        W85463  19.260  40.667   4.444
20479W        W85464  36.545   4.840  11.342
20480W        W85465  33.945  39.886   1.911
20481W        W85466  44.185   1.350  11.060
20482W        W85467  35.104  22.785  12.519
20483W        W85468  19.148  28.968   0.394
20484W        W85469  30.490   0.811   4.612
20485W        W85470  41.707  23.244  13.566
20486W        W85471  40.960  41.110  13.385
20487W        W85472   2.265  42.663  11.159
20488W        W85473   9.894  16.758   1.168
20489W        W85474  23.427  31.824   2.543
20490W        W85475  10.453  23.798   0.164
20491W        W85476   2.073  11.677  14.991
20492W        W85477  24.395  34.806   4.055
20493W        W85478   5.760  43.611  14.537
20494W        W85479  37.944   9.953  10.260
20495W        W85480  21.130   7.178  12.349
20496W        W85481   3.921  28.621  11.436
20497W        W85482  39.244  34.794   3.608
20498W        W85483  35.612   1.210  14.419
20499W        W85484  31.172  13.590  14.024
20500W        W85485  43.744  24.922   0.869
20501W        W85486   9.269  12.206   1.908
20502W        W85487  25.725  29.358   9.702
20503W        W85488  40.649  34.556   0.949
20504W        W85489   2.445  24.054   2.260
20505W        W85490  40.099  10.735   3.524
20506W        W85491  40.063  18.819  14.937
20507W        W85492  26.694  30.334  12.935
20508W        W85493  35.228  16.808   3.610
20509W        W85494   8.161   7.929  13.018
20510W        W85495  11.095  17.031  12.514
20511W        W85496  39.062  13.697  12.433
20512W        W85497   1.860  16.001   0.856
20513W        W85498  10.967  28.052  11.362
20514W        W85499  38.066   4.180   2.247
20515W        W85500  39.978  13.022  13.395
20516W        W85501  14.733  18.450   4.590
20517W        W85502   8.111  36.949  13.828
20518W        W85503  20.643  37.381  13.456
20519W        W85504  30.920   0.820  11.655
20520W        W85505  39.356  17.184  10.181
20521W        W85506   9.120   1.464   0.997
20522W        W85507  15.411  31.536  10.609
20523W        W85508  37.901  41.560   5.017
20524W        W85509  43.955  37.420  12.939
20525W        W85510  29.927  35.043   0.980
20526W        W85511   3.295   0.672  12.786
20527W        W85512  19.465  10.409  12.066
20528W        W85513  13.994  41.910  12.349
20529W        W85514   2.401  28.878  10.256
20530W        W85515  31.110  33.868   1.835
20531W        W85516   2.513  29.279  13.934
20532W        W85517  15.511  16.766  11.469
20533W        W85518   6.155  39.669  11.545
20534W        W85519   1.733  36.890   0.919
20535W        W85520  32.069  30.269   4.493
20536W        W85521  35.932  10.781  11.938
20537W        W85522  30.405  40.387   1.313
20538W        W85523  13.085  29.146   1.496
20539W        W85524  12.569  21.617  13.957
20540W        W85525   0.863  26.093   4.849
20541W        W85526  34.879   5.134  13.951
20542W        W85527   6.948   7.938   4.113
20543W        W85528  14.532  43.976   2.735
20544W        W85529  11.140   1.266   2.415
20545W        W85530   3.914  11.309   3.764
20546W        W85531  40.877  26.912  13.911
20547W        W85532  38.076  33.372   1.657
20548W        W85533  30.468  22.514   0.331
20549W        W85534  39.796  39.403  11.533
20550W        W85535   1.560  33.533   3.182
20551W        W85536  41.911  10.247   3.892
20552W        W85537   9.241  35.980  13.911
20553W        W85538  28.153  23.194   3.764
20554W        W85539  43.362   1.484   0.320
20555W        W85540  21.267  19.790   0.344
20556W        W85541   3.616  38.808  11.137
20557W        W85542  44.407  19.899  13.968
20558W        W85543   2.438   6.583   1.781
20559W        W85544  30.054  15.734   3.768
20560W        W85545  33.740  42.503   1.901
20561W        W85546  17.262  29.115  12.516
20562W        W85547   6.420  17.924   4.248
20563W        W85548  10.448  20.240  13.328
20564W        W85549  44.319  29.662   1.239
20565W        W85550   3.394  42.808   5.401
20566W        W85551   5.208  20.732   4.700
20567W        W85552  27.043  24.686  10.626
20568W        W85553  21.090  34.000   4.203
20569W        W85554  34.604  10.650  12.048
20570W        W85555  26.567  28.168  11.907
20571W        W85556  22.526  33.903   4.672
20572W        W85557  20.740  25.037  12.958
20573W        W85558  21.007  22.661  13.343
20574W        W85559  13.675  14.582  12.555
20575W        W85560   0.411  16.249   3.649
20576W        W85561  10.635  20.575   4.905
20577W        W85562  13.690  41.112  13.262
20578W        W85563  25.125  20.022  12.813
20579W        W85564  13.101  22.621   4.071
20580W        W85565   7.057  39.991  13.443
20581W        W85566   6.564  25.764   0.308
20582W        W85567  23.210  16.535   0.000
20583W        W85568  14.867  42.874  13.467
20584W        W85569  35.445  33.410  13.867
20585W        W85570  37.931  33.120  13.389
20586W        W85571  13.203  36.405   4.490
20587W        W85572  27.153  24.166  10.591
20588W        W85573  44.263  30.494  13.499
20589W        W85574  13.898  27.140   5.506
20590W        W85575  32.894  26.634   0.336
20591W        W85576  37.490  23.028  11.670
20592W        W85577  41.919  39.546   3.817
20593W        W85578  38.850  36.811  11.227
20594W        W85579  19.982   7.261   2.392
20595W        W85580  21.193  13.095  13.078
20596W        W85581  13.069  40.658  14.507
20597W        W85582   4.973  32.363  11.990
20598W        W85583  13.387  26.992   3.689
20599W        W85584  10.390  25.038   3.322
20600W        W85585  26.178  25.722  12.176
20601W        W85586   7.113  42.854   0.929
20602W        W85587  16.543  37.692  11.280
20603W        W85588  43.945   2.830  11.511
20604W        W85589  18.714   3.409   4.798
20605W        W85590  36.851  15.818   0.440
20606W        W85591  13.476  23.264  12.158
20607W        W85592  31.124  39.452  10.309
20608W        W85593  27.716  11.103  11.562
20609W        W85594   6.552   0.736   1.392
20610W        W85595  22.575  39.810  11.393
20611W        W85596  24.417   7.932  11.134
20612W        W85597   9.891  39.437   4.429
20613W        W85598  16.483  28.473  14.809
20614W        W85599  11.306  11.052  11.025
20615W        W85600  11.390  37.825   3.246
20616W        W85601  22.452  41.295   3.233
20617W        W85602  43.016  19.280  13.154
20618W        W85603  38.734  44.293   2.316
20619W        W85604  44.971  11.075   2.072
20620W        W85605  26.674   2.878  14.455
20621W        W85606  28.959   4.754  14.290
20622W        W85607  11.458  44.101   4.129
20623W        W85608  19.669   6.717   2.747
20624W        W85609  44.428  30.275  11.365
20625W        W85610   9.249  12.243   1.346
20626W        W85611  31.555  20.777  11.639
20627W        W85612  12.131  23.469  14.408
20628W        W85613  34.185   5.829  12.960
20629W        W85614  42.293  27.370  12.471
20630W        W85615   2.820  12.754  10.784
20631W        W85616  42.068  31.146   3.018
20632W        W85617  12.890  19.727  12.642
20633W        W85618  17.542  37.963   1.452
20634W        W85619  37.880  31.083  13.435
20635W        W85620   1.429  21.636   2.573
20636W        W85621  43.762   1.005  11.152
20637W        W85622  26.743  21.773   1.309
20638W        W85623   6.045   0.181  13.309
20639W        W85624  43.333  14.725  12.136
20640W        W85625  14.278   4.057   2.634
20641W        W85626  16.978  26.346   4.683
20642W        W85627   5.952  39.089   3.152
20643W        W85628   6.779  35.265  14.797
20644W        W85629  28.708   6.771   1.475
20645W        W85630  14.892  34.690  12.336
20646W        W85631  34.013  19.538  12.990
20647W        W85632  31.150  15.778  13.524
20648W        W85633   3.290   3.628   4.355
20649W        W85634  22.315  12.760   3.212
20650W        W85635  38.478  13.781  14.978
20651W        W85636  18.701  27.240  11.902
20652W        W85637  26.565   7.992   1.785
20653W        W85638  18.761  40.147  13.140
20654W        W85639  41.355  13.690  11.211
20655W        W85640   1.399  30.119  12.497
20656W        W85641   5.211  22.121  11.232
20657W        W85642  42.909  27.478   1.281
20658W        W85643  33.989  39.048  13.880
20659W        W85644  33.920  38.575  11.692
20660W        W85645  22.494  31.101  11.692
20661W        W85646  29.719  44.344  14.503
20662W        W85647  10.277   6.211  10.231
20663W        W85648  12.138  39.996  13.741
20664W        W85649  30.834  34.589   2.841
20665W        W85650  39.558  41.518   1.318
20666W        W85651  17.153  13.829   4.452
20667W        W85652   9.439   5.217  10.012
20668W        W85653   0.161  12.799  10.864
20669W        W85654   8.569  19.580   5.028
20670W        W85655  36.106  19.118  14.481
20671W        W85656  14.852  35.022   4.825
20672W        W85657  43.310   2.492  13.092
20673W        W85658  22.622  15.308  14.416
20674W        W85659  13.513  24.757  12.873
20675W        W85660  15.589   4.235  14.441
20676W        W85661   3.929  31.236  12.370
20677W        W85662   8.413  35.599   0.767
20678W        W85663  25.828  34.405   2.859
20679W        W85664  40.695  22.507   3.688
20680W        W85665  12.469  29.888  13.361
20681W        W85666  36.822  16.659   4.883
20682W        W85667  23.075  44.603  14.080
20683W        W85668   2.159  34.000   3.668
20684W        W85669   5.348  26.586   3.271
20685W        W85670  41.796  18.103  11.537
20686W        W85671  15.309  25.757   3.189
20687W        W85672  38.535  14.802  10.981
20688W        W85673  21.729  33.538  14.214
20689W        W85674  32.394  25.009   0.515
20690W        W85675  11.602  32.070  12.605
20691W        W85676  39.239  11.706  13.869
20692W        W85677  39.570   3.358   4.920
20693W        W85678   8.838   3.520   1.767
20694W        W85679  17.654  12.208   4.244
20695W        W85680  17.571  34.354  13.848
20696W        W85681   0.340  30.062  14.346
20697W        W85682  16.368  35.111   4.573
20698W        W85683  22.256  41.298   2.248
20699W        W85684  20.487  11.414   3.822
20700W        W85685  16.610  19.203   2.667
20701W        W85686  14.700  17.071  13.708
20702W        W85687  22.103  43.278   4.151
20703W        W85688  23.715   2.089  10.386
20704W        W85689   9.311  12.826  13.957
20705W        W85690  24.941  36.004   1.843
20706W        W85691  19.996   3.912   1.440
20707W        W85692  26.078   9.864  14.858
20708W        W85693  27.466   7.331  11.411
20709W        W85694   0.432  14.794   0.503
20710W        W85695  18.047  37.765   4.978
20711W        W85696  37.185  39.735   1.991
20712W        W85697  37.400  29.113  10.567
20713W        W85698  23.249  23.260  12.482
20714W        W85699  23.696  36.144   3.203
20715W        W85700   1.873   5.814   0.272
20716W        W85701  15.370  20.651  11.463
20717W        W85702  43.028  31.386  14.328
20718W        W85703  18.691  34.963   3.331
20719W        W85704  39.190  35.268   9.860
20720W        W85705  43.919  34.436  14.506
20721W        W85706   4.423   6.204  12.365
20722W        W85707  17.250  38.360   0.902
20723W        W85708  44.048  39.426  11.196
20724W        W85709  19.612   5.211  12.429
20725W        W85710  39.312  12.671   3.758
20726W        W85711   0.981  28.569   3.742
20727W        W85712   1.952  18.349   4.141
20728W        W85713  43.245   2.147  11.281
20729W        W85714  32.636  33.443  11.849
20730W        W85715  39.360  31.860  13.472
20731W        W85716  40.274   4.792   1.805
20732W        W85717  34.192  11.791   2.317
20733W        W85718  25.085  40.986   3.817
20734W        W85719  14.056  37.595   4.595
20735W        W85720  41.375   8.144   0.114
20736W        W85721  41.039  43.846  11.498
20737W        W85722  13.849  33.628   4.697
20738W        W85723  26.001   6.250   2.010
20739W        W85724  44.245  43.313   3.720
20740W        W85725   5.937  11.170   1.200
20741W        W85726  24.497   9.417  12.026
20742W        W85727   9.309   6.350   2.160
20743W        W85728  14.875  28.063  12.095
20744W        W85729   3.260  42.779  14.999
20745W        W85730  30.454  12.343   0.072
20746W        W85731   9.630  38.287   0.226
20747W        W85732  42.313  31.917  14.513
20748W        W85733   5.464  36.551   2.966
20749W        W85734   5.732  12.095   3.406
20750W        W85735  42.887  17.490   2.953
20751W        W85736  29.532  43.834  11.437
20752W        W85737  33.411  29.600   3.628
20753W        W85738  16.416  34.552   0.711
20754W        W85739  11.927  17.230  13.764
20755W        W85740  12.104  11.821  11.463
20756W        W85741  20.218   0.568   4.842
20757W        W85742  21.183  43.322  11.594
20758W        W85743  15.224  36.719  12.521
20759W        W85744  31.155   9.206   3.001
20760W        W85745  33.947  38.477   3.180
20761W        W85746  14.880   5.233   1.066
20762W        W85747  21.252  22.615  12.105
20763W        W85748  33.101   1.255  10.659
20764W        W85749   1.200  24.244   0.414
20765W        W85750  24.819  29.637  11.019
20766W        W85751  11.724  14.746  11.099
20767W        W85752   9.238  11.314   2.005
20768W        W85753  20.607   2.528  12.121
20769W        W85754   2.364  44.147   5.168
20770W        W85755  39.893   0.988   2.444
20771W        W85756  26.546   9.338  10.429
20772W        W85757  16.477  41.382  13.944
20773W        W85758  27.205  35.006   4.347
20774W        W85759  17.690  12.737   0.434
20775W        W85760   8.112  35.540  11.953
20776W        W85761  42.207  34.991   2.214
20777W        W85762   8.330  17.897   3.221
20778W        W85763  30.567  39.266   4.976
20779W        W85764  13.367  38.491  11.061
20780W        W85765  39.340  41.719   2.398
20781W        W85766  40.594  39.478   1.895
20782W        W85767  44.730   6.388  14.469
20783W        W85768  21.511   1.771  11.141
20784W        W85769  24.004  15.432   3.266
20785W        W85770  11.559  24.044   1.717
20786W        W85771  42.559  42.391  11.414
20787W        W85772  41.336  19.565  13.347
20788W        W85773  42.076  32.548   3.339
20789W        W85774  37.443  19.680  12.626
20790W        W85775  13.536  39.684   0.960
20791W        W85776  13.591  35.406  13.947
20792W        W85777  42.877  16.354  14.838
20793W        W85778  26.687  11.086  11.513
20794W        W85779   8.957   6.841  12.370
20795W        W85780   4.405  17.766   4.728
20796W        W85781  35.531  23.030   2.826
20797W        W85782  38.898  32.481   0.412
20798W        W85783   2.832   8.662   2.359
20799W        W85784  12.157   0.921   4.014
20800W        W85785  22.108  40.042   4.171
20801W        W85786   7.944  40.424   1.795
20802W        W85787  44.665  30.622  14.518
20803W        W85788   9.987  33.226  12.789
20804W        W85789   4.377   0.966   3.090
20805W        W85790  32.011  26.682   0.973
20806W        W85791  39.740  15.253  14.273
20807W        W85792   2.204   4.680   4.122
20808W        W85793   7.114  30.689   0.854
20809W        W85794   3.332  31.380  12.438
20810W        W85795  22.133   9.150   4.457
20811W        W85796  17.987  43.833  13.095
20812W        W85797  10.373  30.371  12.238
20813W        W85798  34.607   8.187  13.447
20814W        W85799  28.960  37.518  10.187
20815W        W85800  34.849  28.184  14.416
20816W        W85801  24.514   5.491   4.622
20817W        W85802  16.103  18.475   4.070
20818W        W85803  11.659   1.325  13.312
20819W        W85804  15.570  34.096  14.218
20820W        W85805  39.816   9.798   2.328
20821W        W85806  29.139   3.376   0.685
20822W        W85807  21.579  29.646  11.657
20823W        W85808  29.740  16.145   3.697
20824W        W85809  40.397  34.540  12.199
20825W        W85810   9.884  35.454  12.941
20826W        W85811  26.158  44.389   4.869
20827W        W85812  11.387  17.498   0.920
20828W        W85813  20.416  19.363  11.624
20829W        W85814   1.529   5.469  13.861
20830W        W85815  31.051  15.559   3.619
20831W        W85816  23.453  33.886   1.864
20832W        W85817  34.971  32.957   0.461
20833W        W85818  41.513  36.029  10.506
20834W        W85819  34.470  20.226   2.669
20835W        W85820  31.427  34.325   0.797
20836W        W85821  42.351  23.162   3.318
20837W        W85822   3.767  24.106   2.458
20838W        W85823   0.944  30.916   3.638
20839W        W85824  44.792  19.500  11.624
20840W        W85825  22.347  32.564   1.215
20841W        W85826   2.298  25.472   4.759
20842W        W85827  34.087   9.219  13.076
20843W        W85828  10.629  27.018  14.811
20844W        W85829  11.232   9.958   0.437
20845W        W85830   4.231  31.494   0.270
20846W        W85831  20.921  23.862   4.174
20847W        W85832  25.346  43.981   3.821
20848W        W85833   6.300  23.186   3.598
20849W        W85834   3.385   6.352   4.658
20850W        W85835   9.502   8.119   0.543
20851W        W85836   3.336  32.169   3.670
20852W        W85837   2.233   0.224  11.454
20853W        W85838  12.800  21.620   2.016
20854W        W85839  16.240  27.753  12.092
20855W        W85840  32.959  42.389  12.686
20856W        W85841  18.878   7.116   1.163
20857W        W85842  35.132  41.438   2.770
20858W        W85843   0.403  31.267   4.183
20859W        W85844  12.905   5.895  14.153
20860W        W85845  28.505   3.775  13.959
20861W        W85846  21.473  39.995  10.581
20862W        W85847   1.895   9.077  14.295
20863W        W85848  17.664  19.166   3.619
20864W        W85849   6.451  37.569   1.732
20865W        W85850  41.473   2.551  11.911
20866W        W85851  43.317  24.040   1.662
20867W        W85852  11.688  24.555  12.559
20868W        W85853  41.548  37.586   2.669
20869W        W85854  32.478  39.581   4.300
20870W        W85855  27.099  10.073  12.949
20871W        W85856  26.716  41.755  10.812
20872W        W85857  37.435  16.329  13.445
20873W        W85858  14.320  40.408   3.293
20874W        W85859  23.235   4.383  14.097
20875W        W85860  23.215  22.678   1.696
20876W        W85861  36.507   7.101  11.166
20877W        W85862  17.582  23.552   4.420
20878W        W85863  29.465   3.339  10.508
20879W        W85864  32.892  26.690   2.867
20880W        W85865   7.755   0.284   3.530
20881W        W85866   2.853  22.589   2.256
20882W        W85867  20.946  24.204  14.371
20883W        W85868   1.353  14.925  12.039
20884W        W85869  39.548  18.620  12.320
20885W        W85870  11.905   8.464  12.098
20886W        W85871   8.930  40.871   0.095
20887W        W85872  15.044  11.588   4.413
20888W        W85873  29.210  18.322  10.486
20889W        W85874  28.001  40.091   4.558
20890W        W85875   5.117   4.473  12.916
20891W        W85876  40.212  36.822  13.451
20892W        W85877  28.181  10.980   1.467
20893W        W85878  23.293  10.397   0.404
20894W        W85879  39.982  38.932  11.619
20895W        W85880   7.272   8.798  14.835
20896W        W85881  14.082  40.982   2.778
20897W        W85882   6.776  41.212   4.430
20898W        W85883  23.344  13.059  11.535
20899W        W85884  17.625   6.910  13.845
20900W        W85885  13.984  34.325   3.812
20901W        W85886  36.090  31.411  11.031
20902W        W85887  30.324  12.828   1.491
20903W        W85888   9.141  33.546   2.753
20904W        W85889  38.018  29.986  12.317
20905W        W85890  43.792  27.988  14.888
20906W        W85891  29.235  41.534  11.482
20907W        W85892  33.807  16.472  14.005
20908W        W85893  19.178  28.541  12.108
20909W        W85894  37.034  14.705   2.224
20910W        W85895  24.081  14.333  11.614
20911W        W85896  23.783   3.338  14.336
20912W        W85897  21.456   2.984  11.703
20913W        W85898   6.837   1.006   4.081
20914W        W85899  22.915   7.970   3.132
20915W        W85900  23.967   3.061   3.710
20916W        W85901  22.464  36.278  11.976
20917W        W85902  25.557  29.595  13.802
20918W        W85903   9.576  27.083   1.917
20919W        W85904   7.621  20.260  10.705
20920W        W85905  17.551  39.609  14.862
20921W        W85906  20.265   8.886  12.620
20922W        W85907  20.100   3.222  11.885
20923W        W85908  11.632  16.839  13.557
20924W        W85909  26.607   8.715   4.663
20925W        W85910  16.186  19.380   5.408
20926W        W85911  17.282  33.076  13.792
20927W        W85912  35.790   1.961   2.360
20928W        W85913  11.527   1.675   3.775
20929W        W85914  30.234   2.748  11.465
20930W        W85915  34.680  21.048   4.583
20931W        W85916  27.487   7.410   1.888
20932W        W85917  16.592  24.554   4.375
20933W        W85918  44.495  39.431  12.799
20934W        W85919  35.678  27.938  12.082
20935W        W85920  44.196   2.923   3.288
20936W        W85921   6.441   1.681  12.092
20937W        W85922  39.829  15.240   0.795
20938W        W85923  32.569  25.011  12.109
20939W        W85924   0.410  19.618   3.412
20940W        W85925  12.201   7.304   4.130
20941W        W85926  16.778  37.409   3.858
20942W        W85927  35.092  35.838  10.313
20943W        W85928  10.842  15.613   0.030
20944W        W85929  34.565  39.056  14.992
20945W        W85930  43.218  21.589   4.070
20946W        W85931  28.922  19.392   1.308
20947W        W85932   7.405  25.282   2.297
20948W        W85933  25.141  42.761  12.428
20949W        W85934   5.965   7.277   0.403
20950W        W85935  13.830   3.192   1.022
20951W        W85936  36.726   2.956   2.837
20952W        W85937  42.045  37.756   2.641
20953W        W85938  40.050  27.077   3.198
20954W        W85939  32.017  24.172   1.949
20955W        W85940   7.454  44.988   0.318
20956W        W85941  17.189  44.359   0.324
20957W        W85942  18.816  12.688   1.760
20958W        W85943  39.296  39.172   4.880
20959W        W85944  33.340  19.483  10.455
20960W        W85945  28.201  24.687  11.137
20961W        W85946  33.382  34.082   4.469
20962W        W85947   6.252  33.270   3.721
20963W        W85948  11.695  16.723  12.081
20964W        W85949   3.300  13.716   1.837
20965W        W85950  18.030   0.974  11.594
20966W        W85951  15.083  41.398   1.349
20967W        W85952  13.135  21.210   3.676
20968W        W85953  36.598  37.544  11.960
20969W        W85954  12.999  40.813  14.991
20970W        W85955   2.734  25.013   4.119
20971W        W85956  20.632  14.590   3.095
20972W        W85957  40.927  22.029  10.803
20973W        W85958   9.044  44.752  11.124
20974W        W85959  10.159  35.592  13.377
20975W        W85960   9.077  35.527   4.536
20976W        W85961  14.779  40.826   4.520
20977W        W85962   9.016  20.936  12.932
20978W        W85963  15.636  15.228   3.768
20979W        W85964  10.918  15.691  13.396
20980W        W85965   0.695   5.240   0.730
20981W        W85966  10.301  22.470   1.252
20982W        W85967  24.692  20.012  13.809
20983W        W85968  30.099  34.612   1.256
20984W        W85969  17.777  31.480   0.446
20985W        W85970  12.128  12.052   4.584
20986W        W85971  30.212  23.271  12.038
20987W        W85972  38.958  26.813   1.271
20988W        W85973  23.554  31.436   4.950
20989W        W85974   4.402  37.309   0.872
20990W        W85975  43.597  22.438  14.897
20991W        W85976  41.163   3.247   1.645
20992W        W85977  42.297  36.588  14.106
20993W        W85978  12.664  19.068   1.394
20994W        W85979  11.893  12.926   3.130
20995W        W85980  39.921  31.544   4.562
20996W        W85981   0.324   4.605  13.438
20997W        W85982  25.605  18.602   3.940
20998W        W85983  24.567   2.980   3.328
20999W        W85984  38.796  17.976   2.592
21000W        W85985  42.423  22.938  11.150
21001W        W85986  19.154   2.839   4.558
21002W        W85987  30.447  13.934   1.814
21003W        W85988  27.066  43.518   4.616
21004W        W85989  35.122  23.049  10.563
21005W        W85990   8.423   3.864   1.787
21006W        W85991  25.050  15.761   2.271
21007W        W85992  14.819  22.584  10.497
21008W        W85993  41.728  17.848  11.068
21009W        W85994  17.050  28.044   2.958
21010W        W85995  25.077  11.261   2.354
21011W        W85996  35.134  20.641  10.702
21012W        W85997   8.171   8.540   4.081
21013W        W85998  16.069   9.327   4.746
21014W        W85999  23.251  18.619   4.972
21015W        W86000   4.731  39.030   3.827
21016W        W86001   3.298  23.616   4.565
21017W        W86002  27.073  22.964   2.720
21018W        W86003  29.998   1.694  12.990
21019W        W86004  26.776  33.207   0.738
21020W        W86005  34.161   6.578  10.790
21021W        W86006  36.186  23.949  10.697
21022W        W86007  41.265   2.296   0.355
21023W        W86008  12.754  19.534   3.190
21024W        W86009  12.843   8.768   3.629
21025W        W86010  19.037   7.366  13.563
21026W        W86011  24.645  39.792  13.368
21027W        W86012   3.746   1.289  13.632
21028W        W86013  29.682  27.349   2.125
21029W        W86014   1.242  16.116   2.447
21030W        W86015  36.788   8.310  14.798
21031W        W86016  24.152  31.525   1.682
21032W        W86017   1.401   0.123  12.130
21033W        W86018  21.831   7.835   5.119
21034W        W86019  30.643  32.422   0.251
21035W        W86020   7.415  13.361  13.893
21036W        W86021  26.430  12.608  13.890
21037W        W86022  37.480   3.768   1.008
21038W        W86023  39.550  42.295  14.461
21039W        W86024  27.155  25.550   2.293
21040W        W86025  28.982   2.139   2.007
21041W        W86026   7.867  11.224   1.840
21042W        W86027  33.163  23.955  14.056
21043W        W86028  35.608  35.723   3.155
21044W        W86029  13.605   9.394  12.599
21045W        W86030  41.056   8.774   3.119
21046W        W86031   1.800  31.918   2.862
21047W        W86032  28.509  26.935   2.893
21048W        W86033   9.779  24.450   1.421
21049W        W86034  24.243   9.247  13.481
21050W        W86035   4.314  16.454  13.432
21051W        W86036  19.596  13.830   2.690
21052W        W86037  41.283  40.315  14.998
21053W        W86038   1.742  21.029   1.379
21054W        W86039  32.580  31.521  10.767
21055W        W86040   5.824  39.079  12.331
21056W        W86041  21.781  43.834   3.712
21057W        W86042  35.639  42.865   0.084
21058W        W86043  26.362  42.035  12.503
21059W        W86044  15.234  38.076   3.698
21060W        W86045   7.262  42.962  14.522
21061W        W86046  20.266  33.210   2.590
21062W        W86047  13.005   7.466  11.789
21063W        W86048  22.008  31.054   0.240
21064W        W86049  42.940  29.658   4.579
21065W        W86050  26.145  15.746   2.233
21066W        W86051  21.694   4.839   2.644
21067W        W86052  15.358  21.347   4.046
21068W        W86053  30.480  44.582   0.620
21069W        W86054  20.659   9.792   1.572
21070W        W86055   9.926  38.459   4.039
21071W        W86056  31.091  29.396   0.250
21072W        W86057  28.730  12.827   4.568
21073W        W86058   6.807  24.498  13.988
21074W        W86059  30.688  20.871  11.768
21075W        W86060  33.116  17.812  14.960
21076W        W86061   3.545  15.164  11.210
21077W        W86062   9.854  41.928   2.749
21078W        W86063  44.277  26.791   2.175
21079W        W86064  44.934  41.241  11.140
21080W        W86065  31.477  29.646  14.024
21081W        W86066  35.407  38.478   3.823
21082W        W86067  37.136   4.843  14.394
21083W        W86068  18.813   3.165   4.333
21084W        W86069  38.399  34.349   2.861
21085W        W86070  11.143  27.056   4.126
21086W        W86071   6.382  36.511   1.906
21087W        W86072  10.633  27.069   1.866
21088W        W86073  36.303  25.153   3.302
21089W        W86074  30.351  30.560   1.904
21090W        W86075  43.835  25.146  12.357
21091W        W86076  32.154  15.486   3.142
21092W        W86077  11.572  35.435  12.583
21093W        W86078  23.106  24.769   2.136
21094W        W86079  31.584  13.306   1.377
21095W        W86080  27.033   0.412   4.034
21096W        W86081  15.622  14.186   2.773
21097W        W86082  15.158  12.435   4.698
21098W        W86083  18.275  23.423  10.739
21099W        W86084   1.117  41.300   5.106
21100W        W86085  21.603  44.341  11.387
21101W        W86086  25.608  26.075  13.052
21102W        W86087  21.256   0.779   0.946
21103W        W86088   3.954  42.343  13.857
21104W        W86089  27.055  11.193   3.873
21105W        W86090  22.583  10.805   3.880
21106W        W86091   8.805   1.222   3.015
21107W        W86092  32.511   2.870  11.933
21108W        W86093  34.827  32.044   0.430
21109W        W86094  23.263  41.518  12.063
21110W        W86095   2.913  15.335  13.644
21111W        W86096  22.005  11.575   0.924
21112W        W86097   9.243   4.918  12.449
21113W        W86098  30.891  32.037  14.388
21114W        W86099   4.504  44.392   0.432
21115W        W86100  38.413  14.701   3.720
21116W        W86101   8.910  13.681  12.437
21117W        W86102  34.798   4.715   0.638
21118W        W86103  42.942   2.761   0.034
21119W        W86104  41.205   2.176  12.129
21120W        W86105  11.543  31.121   3.914
21121W        W86106  37.238  22.590  11.632
21122W        W86107  14.315  16.135   3.328
21123W        W86108  13.313  36.438  14.542
21124W        W86109  31.129  35.015   2.796
21125W        W86110   5.822  10.302   3.761
21126W        W86111  44.618  13.643  12.414
21127W        W86112  35.572  14.914  12.926
21128W        W86113   6.610   4.923  13.007
21129W        W86114  26.583   3.981   3.228
21130W        W86115  15.664  31.592   4.663
21131W        W86116  42.749  11.793  12.119
21132W        W86117   2.751  21.073  10.639
21133W        W86118   4.834  25.519  12.111
21134W        W86119  39.700  18.059   2.838
21135W        W86120  43.809  14.413  13.407
21136W        W86121   5.688  15.184   2.826
21137W        W86122  19.666  16.241   0.433
21138W        W86123  43.783   3.357   2.242
21139W        W86124   3.221   6.353   3.368
21140W        W86125   9.633  12.134   0.743
21141W        W86126  43.890  43.435  14.970
21142W        W86127   7.400  37.129   1.836
21143W        W86128   9.827  19.986   1.219
21144W        W86129   8.802   5.690  13.863
21145W        W86130   0.924   7.813  11.220
21146W        W86131   3.936  11.107  11.571
21147W        W86132  13.640  33.683   0.363
21148W        W86133   8.125  11.281  12.523
21149W        W86134  27.759  13.680  14.230
21150W        W86135   6.082  35.321   1.390
21151W        W86136  42.382  40.466  13.551
21152W        W86137  13.263  40.154  14.428
21153W        W86138   5.996  28.054  13.814
21154W        W86139   5.874  14.162  12.465
21155W        W86140   5.262   7.308  12.788
21156W        W86141  22.647  20.048  14.605
21157W        W86142   3.501  13.931   0.486
21158W        W86143  41.297  22.754   4.089
21159W        W86144  16.403  25.147  11.426
21160W        W86145  40.272  28.405  14.817
21161W        W86146   0.780  14.424  13.101
21162W        W86147   4.905   7.001   1.181
21163W        W86148   5.381   0.215  12.914
21164W        W86149  26.679  36.831   3.252
21165W        W86150  44.893   5.835  10.720
21166W        W86151   7.936   7.184  11.875
21167W        W86152   3.164  15.071  11.972
21168W        W86153  21.799  34.110   0.967
21169W        W86154  14.635  44.925  11.137
21170W        W86155  20.795  19.581  14.478
21171W        W86156  15.450   8.875  11.748
21172W        W86157   1.509   4.194  12.496
21173W        W86158  42.629  34.676   5.355
21174W        W86159   5.939  10.828  12.960
21175W        W86160  21.857  35.971   3.938
21176W        W86161  35.825  14.902  14.983
21177W        W86162  43.063   0.490  10.679
21178W        W86163  21.577  28.032  10.973
21179W        W86164   7.439  22.581  11.594
21180W        W86165  11.886  11.007   3.121
21181W        W86166  26.096   0.175   4.929
21182W        W86167  43.243   5.473  12.046
21183W        W86168  11.181  18.221  12.911
21184W        W86169  20.760   7.865  13.860
21185W        W86170  16.628  32.703  11.803
21186W        W86171  40.189  43.411  14.970
21187W        W86172  12.881   1.386  13.918
21188W        W86173  25.129  19.698   5.137
21189W        W86174  41.067  35.082  14.337
21190W        W86175   6.413   2.408  12.513
21191W        W86176  41.454  43.964  13.486
21192W        W86177   8.299  22.203   1.810
21193W        W86178  33.945  35.899  13.363
21194W        W86179  44.471   3.783   0.924
21195W        W86180  16.620  18.621  12.845
21196W        W86181  19.139   2.705  13.052
21197W        W86182  16.086  10.458  14.034
21198W        W86183  28.480  34.967  13.524
21199W        W86184  22.690  41.446   2.799
21200W        W86185  32.044   0.895   0.589
21201W        W86186  23.487   5.263   0.032
21202W        W86187  36.637  29.066  11.172
21203W        W86188  18.738  35.349   3.900
21204W        W86189  41.738  41.607  11.488
21205W        W86190  27.055  17.142   1.188
21206W        W86191  34.656  22.526   2.403
21207W        W86192  40.283  40.475   4.120
21208W        W86193   7.759  43.791  14.873
21209W        W86194  38.022  40.113  13.404
21210W        W86195   4.755  13.737   0.899
21211W        W86196   9.194  31.975   3.344
21212W        W86197  26.436  39.564   3.656
21213W        W86198   8.767   9.589   3.222
21214W        W86199  28.632  18.167   0.862
21215W        W86200  35.951  32.936  11.249
21216W        W86201   0.809  32.020  14.981
21217W        W86202  16.014  37.940   3.491
21218W        W86203  33.470  39.588  13.510
21219W        W86204  10.902   2.883   4.257
21220W        W86205  26.585  15.279   2.915
21221W        W86206  38.145  18.281   4.150
21222W        W86207   7.188  30.438   4.551
21223W        W86208  43.757  21.435  13.363
21224W        W86209  20.614  15.041   2.241
21225W        W86210  34.592   2.163   2.876
21226W        W86211   5.282  40.481  13.668
21227W        W86212   9.301  42.647   9.890
21228W        W86213  35.488   9.770  12.790
21229W        W86214  34.972  10.737   0.991
21230W        W86215  19.299  40.379  12.031
21231W        W86216   4.248  40.017  13.867
21232W        W86217  31.843  20.296  11.907
21233W        W86218   2.908   6.549   1.946
21234W        W86219  38.023  25.435  12.940
21235W        W86220  20.951  33.862  12.689
21236W        W86221  40.350  29.298  13.417
21237W        W86222  23.632  40.462  12.014
21238W        W86223  14.791  13.376   3.489
21239W        W86224  37.950  19.682  10.660
21240W        W86225  27.932  20.243   0.080
21241W        W86226  35.038  16.885   4.100
21242W        W86227  11.759  17.098   0.028
21243W        W86228   6.724  13.235   2.199
21244W        W86229  21.075  15.828   1.240
21245W        W86230   4.150  14.994  11.960
21246W        W86231  38.333   0.415   0.376
21247W        W86232  19.275   1.569  11.653
21248W        W86233  11.258  38.543   3.731
21249W        W86234  20.763   2.358   2.090
21250W        W86235   5.731  14.273   4.633
21251W        W86236  16.732  37.356  10.554
21252W        W86237  42.793  28.146  12.367
21253W        W86238  37.556  29.418   1.363
21254W        W86239  29.929  18.039  12.607
21255W        W86240   0.104  29.531  13.761
21256W        W86241  11.271  42.389   0.620
21257W        W86242  24.454  14.064   0.004
21258W        W86243  33.863   6.805   5.006
21259W        W86244   4.855  21.085   0.483
21260W        W86245  11.068   2.248  11.461
21261W        W86246  24.011  23.952  14.614
21262W        W86247  39.497  19.184   3.488
21263W        W86248  28.197  13.886   2.294
21264W        W86249   4.740  42.992   0.991
21265W        W86250   4.068  40.431   3.167
21266W        W86251  30.464   4.211   3.169
21267W        W86252   5.267   7.733  13.576
21268W        W86253  15.238  37.077   2.730
21269W        W86254  33.283   2.439  13.568
21270W        W86255   7.226  44.054   9.946
21271W        W86256  35.303  21.123  10.765
21272W        W86257  38.990  12.696  12.768
21273W        W86258  42.009  31.335  12.407
21274W        W86259  28.412  23.035  14.004
21275W        W86260  42.503  28.586  11.155
21276W        W86261   0.276  23.258   2.572
21277W        W86262  28.365  22.961   0.275
21278W        W86263  38.330   6.647   0.299
21279W        W86264  16.858   1.327  12.506
21280W        W86265  42.977  37.562  14.213
21281W        W86266  20.322  38.460   1.135
21282W        W86267  37.513  14.575   0.370
21283W        W86268   4.458  39.017  10.582
21284W        W86269  32.408  42.813  10.706
21285W        W86270  14.745  33.706  14.996
21286W        W86271  32.825  32.734   3.177
21287W        W86272   8.002  29.685  11.922
21288W        W86273  44.450   6.178  12.069
21289W        W86274  37.868   0.228  14.612
21290W        W86275  29.275  43.588   0.451
21291W        W86276   5.148  20.522  11.054
21292W        W86277  12.988  42.800   2.296
21293W        W86278  28.257  12.419   1.265
21294W        W86279   7.723  15.205   1.604
21295W        W86280   3.042  14.222   3.336
21296W        W86281  20.057   1.320  13.320
21297W        W86282   4.058  31.127   2.246
21298W        W86283  26.928  16.320  13.014
21299W        W86284  21.007  24.434  11.679
21300W        W86285  31.695  16.566  14.985
21301W        W86286  37.309  38.839   5.222
21302W        W86287  29.561  18.533  14.537
21303W        W86288   4.817  15.484  12.514
21304W        W86289  20.847  23.703  10.788
21305W        W86290  22.743  43.322  13.367
21306W        W86291  23.052   9.246   2.587
21307W        W86292   2.292   5.122   4.834
21308W        W86293  41.280  33.871   4.099
21309W        W86294  24.665  24.910   4.400
21310W        W86295  25.266   0.101  14.466
21311W        W86296  20.538  41.111  11.227
21312W        W86297  25.675  16.254   2.816
21313W        W86298  37.852   6.749  12.372
21314W        W86299  38.310  17.081   2.415
21315W        W86300   4.701  36.620  13.930
21316W        W86301   7.853   3.450   0.205
21317W        W86302  27.214   4.297  14.281
21318W        W86303  33.434  29.656  11.060
21319W        W86304  25.939  11.776   1.708
21320W        W86305   5.371   3.027  11.615
21321W        W86306  10.199  44.027   4.728
21322W        W86307  31.960   8.755   4.854
21323W        W86308   5.838  21.564  11.402
21324W        W86309  36.345  30.399  11.921
21325W        W86310  40.248  16.724  13.430
21326W        W86311  43.415   3.977   3.789
21327W        W86312  19.263  30.019   0.460
21328W        W86313  20.829  41.265  10.820
21329W        W86314   6.710  11.218  14.078
21330W        W86315   9.798  26.114   3.217
21331W        W86316  25.146   7.063   3.194
21332W        W86317  35.649  39.468  13.128
21333W        W86318  43.254  14.694  10.718
21334W        W86319   6.895   7.926   1.083
21335W        W86320  35.509  33.292   1.259
21336W        W86321  15.062  10.146  10.892
21337W        W86322  35.471  20.257   1.286
21338W        W86323   0.962  29.112  12.042
21339W        W86324  23.755  24.684   0.057
21340W        W86325  24.076  41.931   5.032
21341W        W86326  19.724  33.474   3.813
21342W        W86327  13.545  18.598  11.920
21343W        W86328  11.837  30.497   3.256
21344W        W86329  40.708  38.347   0.792
21345W        W86330  41.326  21.687   2.768
21346W        W86331   1.530   8.900   4.108
21347W        W86332  39.426  36.007  12.085
21348W        W86333  42.787  14.251   4.056
21349W        W86334  39.278   0.344   0.291
21350W        W86335  41.348  26.723   5.299
21351W        W86336  16.378  30.124   0.310
21352W        W86337  27.766  30.650  12.840
21353W        W86338  44.325  34.984   3.583
21354W        W86339  15.291   2.414  10.684
21355W        W86340  10.029  26.477   0.396
21356W        W86341  37.101  31.087  12.003
21357W        W86342  42.835   7.312  14.109
21358W        W86343  18.708  37.491  14.531
21359W        W86344  14.101  37.949  13.788
21360W        W86345  40.819   0.776  10.743
21361W        W86346  19.640  27.553   1.986
21362W        W86347  16.963  32.197  11.045
21363W        W86348  35.667   5.634  13.042
21364W        W86349  42.529  23.611   3.105
21365W        W86350   1.019  25.107   4.604
21366W        W86351  23.135  39.399  11.477
21367W        W86352  36.594  37.769   1.194
21368W        W86353  29.941  31.487  13.348
21369W        W86354  11.147  26.999   1.876
21370W        W86355  31.104  34.372  13.326
21371W        W86356  14.686  18.286   3.274
21372W        W86357  22.463  33.830   2.883
21373W        W86358  20.669  30.846  11.923
21374W        W86359  16.109  39.000   1.980
21375W        W86360  15.655  23.737   1.360
21376W        W86361  32.788  34.910  12.434
21377W        W86362  34.495   1.183  14.797
21378W        W86363  13.266  26.884   4.162
21379W        W86364  10.580  29.023   1.427
21380W        W86365  33.563  42.290  11.600
21381W        W86366  17.749   3.193  13.625
21382W        W86367  39.799  26.297  12.497
21383W        W86368  15.083   9.723   3.981
21384W        W86369  22.664  31.516  11.995
21385W        W86370   0.919   9.433  11.944
21386W        W86371  39.356   4.936   9.965
21387W        W86372  10.793  38.870  14.400
21388W        W86373   0.847  16.781   4.759
21389W        W86374  20.362  42.045  11.216
21390W        W86375  31.612  40.644  11.246
21391W        W86376  41.976  44.945   2.400
21392W        W86377  28.763  30.512   3.727
21393W        W86378  27.079  26.984   2.875
21394W        W86379  14.443  28.267  11.168
21395W        W86380  30.394  42.382   4.133
21396W        W86381  30.580   3.348   2.805
21397W        W86382  11.460   8.406  13.823
21398W        W86383  25.423  23.070  11.563
21399W        W86384   8.642  12.301   2.501
21400W        W86385  40.557   2.991  14.903
21401W        W86386   3.205  37.480   4.661
21402W        W86387  18.147  37.959   1.456
21403W        W86388  44.204  39.996  12.183
21404W        W86389  32.584  39.334  10.711
21405W        W86390  10.919  17.933  11.151
21406W        W86391  15.174  20.100   2.668
21407W        W86392  44.335  37.284  11.600
21408W        W86393  41.307  29.957   2.638
21409W        W86394  19.392   6.855   4.506
21410W        W86395  42.508  14.778  11.636
21411W        W86396  28.517  11.290  13.896
21412W        W86397   3.340   8.670  10.101
21413W        W86398  23.078  23.003  14.910
21414W        W86399  38.762  11.059  13.547
21415W        W86400  30.201  29.431   2.276
21416W        W86401  33.482  32.954  10.481
21417W        W86402  38.813  22.561   3.628
21418W        W86403  35.045   4.052   1.259
21419W        W86404  34.164  42.266   3.330
21420W        W86405   4.280  20.017   2.644
21421W        W86406  41.278  42.760  11.876
21422W        W86407  33.136  32.692  13.475
21423W        W86408   1.334  15.344  10.679
21424W        W86409  14.938   6.895   4.438
21425W        W86410  19.268  30.361  10.266
21426W        W86411   9.785  38.471  11.574
21427W        W86412   5.662   5.282   0.695
21428W        W86413  22.300   9.878   0.524
21429W        W86414  29.685   8.061  12.918
21430W        W86415  36.031   9.475   5.430
21431W        W86416  28.430  34.103   3.108
21432W        W86417   2.892  18.545   1.778
21433W        W86418  34.133  30.427  13.070
21434W        W86419  26.539   7.355  12.351
21435W        W86420  34.601   3.906   0.190
21436W        W86421  38.959   7.962   2.862
21437W        W86422  16.618  30.429  13.943
21438W        W86423   2.976   4.539   2.756
21439W        W86424   3.707   2.785   2.287
21440W        W86425   2.218   0.392   3.257
21441W        W86426  14.390  44.479  11.062
21442W        W86427  32.621  26.585  11.760
21443W        W86428  26.149  25.661   2.479
21444W        W86429  21.537   5.357  11.354
21445W        W86430  17.270  33.422  14.257
21446W        W86431  30.454   1.468  13.428
21447W        W86432  15.571  42.314  13.006
21448W        W86433  36.565   1.261  12.441
21449W        W86434  36.138   4.714  11.642
21450W        W86435  13.454  27.998   4.651
21451W        W86436  10.325  25.693  11.882
21452W        W86437   2.378   1.493  13.336
21453W        W86438   6.795   5.732   1.777
21454W        W86439  33.327  12.419   4.171
21455W        W86440  18.457  21.199  14.454
21456W        W86441  10.914  27.623   2.791
21457W        W86442  44.293  44.022   0.821
21458W        W86443  36.015  21.731  12.422
21459W        W86444   5.290  18.833   2.721
21460W        W86445  30.535  22.654   1.197
21461W        W86446   6.526  32.224   2.332
21462W        W86447  30.152  20.200   3.764
21463W        W86448  37.263  44.521   2.303
21464W        W86449  25.061  22.490   3.664
21465W        W86450   1.807  22.694   3.793
21466W        W86451  10.792  10.248   2.897
21467W        W86452  33.930   6.837  13.321
21468W        W86453  23.766  19.588   1.388
21469W        W86454  31.912  13.781  14.720
21470W        W86455  25.111  40.328  11.191
21471W        W86456  25.732  37.497  12.919
21472W        W86457  18.212  19.642   0.715
21473W        W86458   1.478  40.786   3.579
21474W        W86459   6.324  17.979  12.916
21475W        W86460  12.136  16.995   2.613
21476W        W86461  28.978   5.473   9.988
21477W        W86462  11.711  30.760  11.633
21478W        W86463  14.177  10.190  12.251
21479W        W86464  19.686  25.121   4.532
21480W        W86465  18.356  23.216   2.765
21481W        W86466  16.546  18.989   5.119
21482W        W86467  40.126  39.962   4.296
21483W        W86468   6.263  25.773  11.161
21484W        W86469   0.305  10.981  10.779
21485W        W86470   1.789   2.652   1.743
21486W        W86471   5.213  13.101  11.923
21487W        W86472  33.952   0.442  13.833
21488W        W86473   1.266  41.454  13.269
21489W        W86474   1.766  11.745  11.588
21490W        W86475   3.242  44.883   0.369
21491W        W86476  41.851   2.685   4.806
21492W        W86477  40.299  34.211   1.856
21493W        W86478  26.955   4.311   0.723
21494W        W86479  27.123   8.872   3.686
21495W        W86480   6.366  12.129   3.202
21496W        W86481  29.137  20.576   4.386
21497W        W86482  19.613  21.930   4.447
21498W        W86483   8.351  22.284  11.558
21499W        W86484  36.503  25.892  14.486
21500W        W86485  28.863  22.051  11.430
21501W        W86486  18.235  23.170  12.249
21502W        W86487  40.951  34.603   0.043
21503W        W86488  36.780  42.035  11.574
21504W        W86489  35.971  30.552  13.811
21505W        W86490   5.873  11.824   4.393
21506W        W86491  36.463  30.836   0.849
21507W        W86492  33.853  28.062   4.355
21508W        W86493  25.817  23.167   1.246
21509W        W86494  41.322  30.115  14.920
21510W        W86495  25.830  11.961   9.948
21511W        W86496  39.197  32.944   0.366
21512W        W86497   6.390   1.678   2.903
21513W        W86498   5.908  14.859   3.683
21514W        W86499   2.300  35.860   5.082
21515W        W86500  13.752  10.169   2.620
21516W        W86501  27.637  29.542  10.335
21517W        W86502   1.457   8.606   4.546
21518W        W86503  44.412  26.767   4.632
21519W        W86504  26.235  10.119   4.834
21520W        W86505   3.351  12.889  10.837
21521W        W86506  12.289   5.199  12.529
21522W        W86507  39.494  10.727   4.291
21523W        W86508  12.911  39.320  14.511
21524W        W86509   5.460  42.824   0.314
21525W        W86510   6.755  16.581  12.326
21526W        W86511  20.746  38.980  11.282
21527W        W86512  15.761  11.456  13.754
21528W        W86513   9.158  18.230  11.627
21529W        W86514   3.442   3.144   4.266
21530W        W86515  14.051  15.488  13.785
21531W        W86516   5.037  24.318   4.175
21532W        W86517  39.364  16.088  14.076
21533W        W86518   2.135  20.004  11.603
21534W        W86519  30.035  22.036   2.313
21535W        W86520  38.673  14.782   2.013
21536W        W86521  29.586  27.579  12.058
21537W        W86522  36.604  23.081  10.717
21538W        W86523  21.701  23.692  10.825
21539W        W86524   0.405  19.389   4.571
21540W        W86525  15.592  32.618   4.003
21541W        W86526   6.391  17.486   0.857
21542W        W86527  10.586  35.344  14.421
21543W        W86528  41.887   4.484  12.039
21544W        W86529  33.965  25.156   0.446
21545W        W86530  24.466  13.210   0.726
21546W        W86531  28.194  39.215   0.301
21547W        W86532  38.308  12.216   2.893
21548W        W86533   7.919  42.767  10.166
21549W        W86534  35.555  22.030   3.705
21550W        W86535  24.206  21.649  13.410
21551W        W86536  35.137  14.113  11.063
21552W        W86537  43.022   6.215   1.843
21553W        W86538   3.389  43.003  10.333
21554W        W86539   0.388  13.239  12.082
21555W        W86540  25.474   6.320   4.965
21556W        W86541  11.341  18.131   2.584
21557W        W86542  25.333   5.449  12.003
21558W        W86543  14.524  16.032   2.814
21559W        W86544  28.915  23.229   3.286
21560W        W86545   6.393  43.623  11.505
21561W        W86546  40.102  21.973  11.189
21562W        W86547   6.381  18.123   2.040
21563W        W86548   4.590  43.568  10.779
21564W        W86549  13.182  24.450   4.117
21565W        W86550  17.581   3.688  11.106
21566W        W86551  30.133  41.146   0.626
21567W        W86552  37.473  35.938  12.960
21568W        W86553   6.123   5.221  12.153
21569W        W86554  38.208  42.032   1.784
21570W        W86555  42.740  29.650  14.958
21571W        W86556  25.660  12.181  12.646
21572W        W86557  14.235  19.450  13.028
21573W        W86558   4.045  19.200   0.835
21574W        W86559  16.494   5.420   3.055
21575W        W86560  36.024  18.026  11.533
21576W        W86561   1.161  31.409   3.703
21577W        W86562  32.252  23.716   1.821
21578W        W86563  17.439   9.441   3.607
21579W        W86564  20.143   0.493  13.877
21580W        W86565   4.297  32.901  12.270
21581W        W86566  27.164  21.693   2.495
21582W        W86567  44.713  15.649   3.222
21583W        W86568  32.255  26.179   2.336
21584W        W86569  26.214   0.825  14.483
21585W        W86570  30.109  38.877  13.886
21586W        W86571   1.072  31.198   1.217
21587W        W86572  36.170  21.017  11.890
21588W        W86573  33.674   4.324   0.837
21589W        W86574   6.479  13.579  13.913
21590W        W86575  33.085  44.488   3.805
21591W        W86576  36.400  29.819   4.110
21592W        W86577  24.190  31.990  13.667
21593W        W86578  24.450  38.045   1.841
21594W        W86579  28.038  40.584  10.174
21595W        W86580  28.122  19.987  14.657
21596W        W86581  43.320  41.748  13.205
21597W        W86582  34.348   5.686   3.756
21598W        W86583   0.333  32.172   1.685
21599W        W86584  11.586   7.249   1.141
21600W        W86585  31.568  37.800   2.269
21601W        W86586   4.175  29.117   0.390
21602W        W86587  13.891  28.605   0.318
21603W        W86588  19.423  34.940   0.523
21604W        W86589  22.022  21.443   0.404
21605W        W86590  24.220  22.191   1.304
21606W        W86591  26.433  17.559   0.263
21607W        W86592  25.435   9.193  14.617
21608W        W86593  11.518   4.671  13.936
21609W        W86594   5.645   8.699   0.355
21610W        W86595  43.862  43.797  12.395
21611W        W86596   6.915  21.093  12.067
21612W        W86597   6.401   9.292   2.870
21613W        W86598   9.811  26.392  12.028
21614W        W86599  10.483  25.052  14.018
21615W        W86600  37.782  10.082  12.450
21616W        W86601  14.111  22.572   0.312
21617W        W86602  29.387  33.618  12.999
21618W        W86603  27.967  41.506  12.212
21619W        W86604  35.871  15.072   1.346
21620W        W86605  32.852  20.473   4.547
21621W        W86606  34.955  30.075   2.143
21622W        W86607  32.406  41.312  14.965
21623W        W86608  34.974  11.682   0.783
21624W        W86609  26.457   1.907  14.428
21625W        W86610  38.080  44.561   1.353
21626W        W86611  29.950  42.708   3.859
21627W        W86612  42.035  11.599  10.614
21628W        W86613   4.791  10.915  14.934
21629W        W86614  24.082  37.356  14.844
21630W        W86615  17.680   2.952  12.646
21631W        W86616  15.488  31.532  12.652
21632W        W86617  33.544  39.087  14.843
21633W        W86618  19.631  42.652   0.569
21634W        W86619  12.013  29.996   3.257
21635W        W86620   2.318   8.864   4.553
21636W        W86621  38.602   3.938  12.425
21637W        W86622  43.994  33.398  11.711
21638W        W86623  24.039  22.617   0.020
21639W        W86624  36.624  24.884   4.117
21640W        W86625   1.215  41.498  11.471
21641W        W86626  44.006  11.395  13.914
21642W        W86627  43.849  44.795   0.035
21643W        W86628  26.121   1.410  12.370
21644W        W86629   9.399   6.433  14.587
21645W        W86630  21.248   3.919  11.189
21646W        W86631  24.832   1.453  13.449
21647W        W86632  36.402   6.667   1.304
21648W        W86633  44.439  31.879  14.015
21649W        W86634  25.490  15.509   0.433
21650W        W86635   4.225  31.564  11.466
21651W        W86636  36.487  18.085  10.790
21652W        W86637   5.413   3.439   2.637
21653W        W86638  26.452  29.008   5.492
21654W        W86639  38.711   0.766   4.466
21655W        W86640  30.127   3.435   2.144
21656W        W86641  43.241  38.944  12.040
21657W        W86642  14.108  40.518  13.600
21658W        W86643  43.498  19.740  13.831
21659W        W86644  26.107   3.815   0.472
21660W        W86645   9.929  43.826   1.372
21661W        W86646  27.992   3.357   2.753
21662W        W86647  22.236  28.487   2.800
21663W        W86648  32.570  41.441   0.434
21664W        W86649   1.413  33.088  13.861
21665W        W86650  18.371  13.779   4.037
21666W        W86651  24.521  41.829   3.026
21667W        W86652  12.870  27.695   2.935
21668W        W86653  41.808   8.326   1.028
21669W        W86654   6.229  18.155  11.619
21670W        W86655   4.605   8.377   1.606
21671W        W86656  33.016  39.107  13.980
21672W        W86657  25.913  44.012   0.761
21673W        W86658  43.082  26.044   4.955
21674W        W86659  39.440   5.318  10.830
21675W        W86660  24.738  15.115   4.836
21676W        W86661  14.660   5.344  13.860
21677W        W86662  11.802  29.023   2.297
21678W        W86663  35.399   3.167   3.186
21679W        W86664  27.423  13.041   3.237
21680W        W86665  18.064  37.479   1.689
21681W        W86666  18.547  32.588  14.515
21682W        W86667  25.097  17.226  14.036
21683W        W86668  14.468   4.865  13.950
21684W        W86669  26.052  26.585   1.718
21685W        W86670  30.956  37.918   0.307
21686W        W86671  39.526   4.577   2.257
21687W        W86672  41.405   4.868   0.014
21688W        W86673  43.444  36.432  13.875
21689W        W86674  24.014  35.103   0.829
21690W        W86675   5.921  38.035   1.200
21691W        W86676  32.801   1.557  14.372
21692W        W86677  34.615  40.015   0.063
21693W        W86678  41.294  21.665  10.679
21694W        W86679  13.782  33.522  14.745
21695W        W86680  38.876  10.746   1.868
21696W        W86681  26.510  43.446  13.385
21697W        W86682  40.922  25.661   2.299
21698W        W86683  40.129  43.672  11.502
21699W        W86684  16.431   2.901  14.770
21700W        W86685  31.202  25.045  12.814
21701W        W86686   2.962   8.847   3.290
21702W        W86687  30.942  21.153  13.859
21703W        W86688  28.135  29.741   2.770
21704W        W86689  23.452  24.140  11.964
21705W        W86690  35.873   4.683   2.694
21706W        W86691   4.312  13.666  11.199
21707W        W86692  41.363   5.887  12.220
21708W        W86693  19.653  35.199   0.925
21709W        W86694  36.020  17.380   3.460
21710W        W86695  39.947  21.205  11.564
21711W        W86696  43.895  31.702  12.461
21712W        W86697  40.359  19.123   2.182
21713W        W86698   6.978  22.427   2.163
21714W        W86699  27.932  13.307  13.932
21715W        W86700  42.891   4.653  13.035
21716W        W86701  19.373  15.665   2.731
21717W        W86702   7.294   7.689  14.046
21718W        W86703   7.425   3.756  13.496
21719W        W86704  18.737  26.221   2.335
21720W        W86705  23.145  10.255  11.136
21721W        W86706   5.576  30.212   4.868
21722W        W86707   3.541   0.461   2.251
21723W        W86708  16.380  37.746  10.475
21724W        W86709  23.655   1.658  10.090
21725W        W86710  37.375  38.069   3.856
21726W        W86711  40.447   0.607   1.257
21727W        W86712   7.310  41.415   2.725
21728W        W86713  28.379  24.195  11.098
21729W        W86714  20.187  37.523   3.396
21730W        W86715  30.741  23.307   0.341
21731W        W86716  30.042  22.514   1.314
21732W        W86717   8.914   4.186   2.652
21733W        W86718  22.929  36.843   2.775
21734W        W86719  35.103   9.854  14.908
21735W        W86720  18.763  37.755  11.177
21736W        W86721   3.792   4.673  11.597
21737W        W86722  21.129  16.107   0.217
21738W        W86723  21.204   9.817  11.011
21739W        W86724   2.085  22.082   3.774
21740W        W86725  21.289  26.207  10.055
21741W        W86726  18.494  14.276  14.881
21742W        W86727  39.036  10.920   4.022
21743W        W86728  14.613   6.958  11.119
21744W        W86729  38.576  33.617  11.782
21745W        W86730  26.620  36.667  12.670
21746W        W86731   0.387  40.483   1.061
21747W        W86732   2.566   1.995  14.781
21748W        W86733  20.516  29.367   4.550
21749W        W86734  12.642  12.207   3.545
21750W        W86735  18.595   0.004  14.195
21751W        W86736  33.582  27.868  13.477
21752W        W86737  37.076   3.339  14.525
21753W        W86738  12.399  21.268   0.868
21754W        W86739  38.568  28.229   2.783
21755W        W86740  20.133  41.751  12.190
21756W        W86741   3.996   9.753  10.770
21757W        W86742  37.931  24.353   3.400
21758W        W86743  11.345   6.888   5.095
21759W        W86744  37.417  19.962   1.746
21760W        W86745  20.799  18.379  10.638
21761W        W86746  19.028  13.149   3.804
21762W        W86747  34.246  42.991   4.965
21763W        W86748  17.262  38.954   4.215
21764W        W86749  31.085  17.077   3.643
21765W        W86750  10.238  16.297  11.204
21766W        W86751   2.007  22.100  13.345
21767W        W86752  36.508  34.485   1.909
21768W        W86753  31.729  26.164   3.627
21769W        W86754  24.703  36.105  12.957
21770W        W86755   7.657  11.538  12.583
21771W        W86756  40.573   8.779  14.482
21772W        W86757  28.030  24.404  13.926
21773W        W86758  33.418  21.503  14.040
21774W        W86759  22.564  33.670   0.983
21775W        W86760  26.984  19.458  10.692
21776W        W86761  35.067  28.219   1.300
21777W        W86762  12.099  39.725  12.850
21778W        W86763  21.649   6.394  13.277
21779W        W86764   4.058  28.654   1.395
21780W        W86765  17.994  41.939  11.653
21781W        W86766  20.639  15.897   0.921
21782W        W86767   4.682  43.734   3.013
21783W        W86768  11.440   1.075  11.743
21784W        W86769  39.553  10.091  13.831
21785W        W86770  37.891  20.272   2.879
21786W        W86771  12.280  29.006   3.974
21787W        W86772  20.762  42.872   0.397
21788W        W86773  25.488  24.014   1.372
21789W        W86774  37.629  43.360   2.620
21790W        W86775  23.249   7.372  11.210
21791W        W86776   5.624   8.267   1.638
21792W        W86777  11.128  22.568   2.307
21793W        W86778   3.497  17.587  10.910
21794W        W86779  37.344  18.392   2.946
21795W        W86780  43.921  21.298   4.329
21796W        W86781  17.243   1.700   2.342
21797W        W86782  17.003   6.252   3.807
21798W        W86783  24.738  27.112  12.389
21799W        W86784  37.633  38.871  11.520
21800W        W86785  39.564  19.283  12.917
21801W        W86786  40.753  42.433  12.515
21802W        W86787  17.814  23.938   3.944
21803W        W86788  33.355  26.963  11.998
21804W        W86789  34.997  30.262   1.650
21805W        W86790  22.477  31.823   0.355
21806W        W86791   6.893  13.115   0.653
21807W        W86792  36.566  29.508   1.715
21808W        W86793   2.135  19.801  11.130
21809W        W86794  20.168   1.003  13.917
21810W        W86795  35.966   2.181   0.966
21811W        W86796  36.975  21.135  11.515
21812W        W86797  11.175  14.030  12.880
21813W        W86798  43.880  15.914  13.450
21814W        W86799  24.138  12.078   3.588
21815W        W86800  14.409  38.842   2.488
21816W        W86801  26.667   3.925  13.257
21817W        W86802  17.773  31.689   3.127
21818W        W86803  21.244  14.647   1.755
21819W        W86804  35.571  38.929   4.680
21820W        W86805   9.947  15.808   2.678
21821W        W86806  16.235  44.391   1.402
21822W        W86807  36.083  24.177   4.227
21823W        W86808  29.115  24.458  13.526
21824W        W86809  42.061  28.424   4.596
21825W        W86810  24.164  15.868   4.141
21826W        W86811  34.497  35.915  14.617
21827W        W86812   2.427  13.253   0.742
21828W        W86813   4.758  40.007  13.741
21829W        W86814   6.791  35.932   0.443
21830W        W86815  14.738  31.690   1.453
21831W        W86816   4.919  36.909  10.637
21832W        W86817   9.807  42.360   0.959
21833W        W86818  14.181  19.259  14.495
21834W        W86819   5.438   0.870  14.853
21835W        W86820   5.993  27.855  12.961
21836W        W86821  26.584  40.273   2.282
21837W        W86822  16.331  28.321   4.456
21838W        W86823  11.818   5.858   0.105
21839W        W86824  30.430  13.192   0.736
21840W        W86825  33.294  13.305   3.653
21841W        W86826   7.457  37.048   2.835
21842W        W86827  30.967  31.846   3.783
21843W        W86828   5.787  29.655   4.208
21844W        W86829  29.166   4.457   0.485
21845W        W86830  16.259   0.829  12.907
21846W        W86831  31.087  22.739   2.213
21847W        W86832  44.413  28.068   2.792
21848W        W86833  43.515  44.794  10.878
21849W        W86834  24.578  30.309  11.664
21850W        W86835  33.549  24.150  13.773
21851W        W86836  20.001   0.306   4.431
21852W        W86837  19.150  16.225  12.205
21853W        W86838  20.996  25.730   2.006
21854W        W86839  12.588  39.461  14.908
21855W        W86840  43.048  34.264  12.539
21856W        W86841  22.793   4.179   4.382
21857W        W86842  23.275  33.739  10.581
21858W        W86843  12.550   0.404  13.811
21859W        W86844  25.012   7.939   3.125
21860W        W86845  19.698  38.317  14.520
21861W        W86846  18.123   0.490   0.722
21862W        W86847  12.819  15.177   3.259
21863W        W86848  40.506   8.765   0.861
21864W        W86849   6.901  35.578  10.391
21865W        W86850  39.797  39.505  12.538
21866W        W86851  22.344  27.065   3.244
21867W        W86852  39.551  26.941  12.397
21868W        W86853  30.535  34.459  12.339
21869W        W86854  14.235  16.793  11.975
21870W        W86855  11.718  13.419  12.076
21871W        W86856   4.974  10.541  13.016
21872W        W86857  43.697  28.916  14.086
21873W        W86858  33.841  25.982  11.585
21874W        W86859  16.157  17.029  11.040
21875W        W86860  11.761  27.520   4.607
21876W        W86861  44.347  25.122   2.289
21877W        W86862  23.004  36.105   1.667
21878W        W86863  24.866   1.372   2.673
21879W        W86864  19.623   3.864  14.611
21880W        W86865   9.096  12.029  10.165
21881W        W86866  40.045  37.462   2.652
21882W        W86867  19.140  20.435  14.126
21883W        W86868  34.440   6.275   4.247
21884W        W86869   7.778  10.507   4.642
21885W        W86870  21.191  25.688   4.177
21886W        W86871  22.260  43.517   4.576
21887W        W86872  29.075  21.197  12.973
21888W        W86873  19.887  13.192  13.084
21889W        W86874  16.847  29.668   2.625
21890W        W86875  38.887  19.503  14.307
21891W        W86876  24.012  27.575  11.493
21892W        W86877   8.216  15.822   3.312
21893W        W86878  19.758  13.638   3.146
21894W        W86879   9.566  31.554   1.951
21895W        W86880  27.129  20.741  12.507
21896W        W86881   6.732  43.857  12.374
21897W        W86882  15.286  14.052  10.653
21898W        W86883   2.539  30.564  10.947
21899W        W86884  10.819  32.202   4.574
21900W        W86885   9.870  18.608  11.208
21901W        W86886  15.136  12.313  11.188
21902W        W86887  23.149   4.456  11.274
21903W        W86888   2.273  14.095   4.643
21904W        W86889  30.659  18.533  13.499
21905W        W86890  41.117  37.876   4.767
21906W        W86891   2.909   9.689   1.259
21907W        W86892  19.983  17.692   4.438
21908W        W86893  29.990  41.504   2.355
21909W        W86894  13.531  27.456   1.241
21910W        W86895  34.459  11.320   0.054
21911W        W86896  40.895  30.070   5.505
21912W        W86897   0.356   6.422  11.556
21913W        W86898   9.677  33.883  13.061
21914W        W86899  15.491  34.233   0.901
21915W        W86900  35.989  22.117  14.330
21916W        W86901  15.601  15.639  12.039
21917W        W86902  41.969  22.902   4.194
21918W        W86903  13.787  33.815   3.787
21919W        W86904  14.221  43.755   1.334
21920W        W86905  26.413  19.754  13.029
21921W        W86906   1.920  26.574  10.872
21922W        W86907  32.204   4.500   4.018
21923W        W86908   4.868   3.415   1.874
21924W        W86909   6.434  32.572   0.255
21925W        W86910   3.482   3.945   2.334
21926W        W86911  22.659   1.371   3.886
21927W        W86912  39.340  13.118  12.082
21928W        W86913   1.892  19.984  13.499
21929W        W86914  23.533  18.109  11.433
21930W        W86915  24.514   5.975  11.561
21931W        W86916  27.792  21.141   2.257
21932W        W86917  34.920  32.038  10.756
21933W        W86918  29.109  26.505   1.842
21934W        W86919  15.813   4.905  13.421
21935W        W86920  28.692   1.630   5.389
21936W        W86921  22.539  31.648   3.308
21937W        W86922   6.207   5.171   1.365
21938W        W86923  31.922  27.117  13.500
21939W        W86924  24.164  35.476  11.051
21940W        W86925  19.326  19.328   1.638
21941W        W86926  20.668  18.509   2.735
21942W        W86927  41.340  28.945   3.523
21943W        W86928  29.746   2.339   5.125
21944W        W86929  17.633  16.254   2.284
21945W        W86930  40.191  27.484   1.283
21946W        W86931  41.405  38.423   3.050
21947W        W86932  31.276  30.823   2.828
21948W        W86933  12.063   0.535  13.617
21949W        W86934  20.055   4.931  12.344
21950W        W86935  31.381  23.033   3.795
21951W        W86936  24.246  11.063   4.706
21952W        W86937  26.487  20.138   1.725
21953W        W86938  43.768  24.735  11.036
21954W        W86939  29.898  33.259   1.640
21955W        W86940  31.680   3.571   1.039
21956W        W86941  38.439  13.413   1.095
21957W        W86942   4.084  15.680  10.157
21958W        W86943  10.134   1.360  14.978
21959W        W86944  41.040  22.327   5.003
21960W        W86945  29.680  21.096  10.531
21961W        W86946  17.121  14.824   4.630
21962W        W86947  39.864  19.273   2.208
21963W        W86948   4.016  20.220   1.171
21964W        W86949  28.142  42.388  14.097
21965W        W86950  38.636   1.322  12.833
21966W        W86951   4.807  30.464  11.634
21967W        W86952  42.053   5.386  12.405
21968W        W86953  16.262  29.858   3.580
21969W        W86954  44.783  23.053  14.421
21970W        W86955  39.205  36.352   0.219
21971W        W86956  42.506  23.253  13.023
21972W        W86957  39.342  36.498  14.363
21973W        W86958  14.328  42.861  13.543
21974W        W86959  14.330  29.615  11.995
21975W        W86960  43.665   7.873   1.970
21976W        W86961  29.498  23.588   0.241
21977W        W86962  39.789  31.092   1.279
21978W        W86963  31.956  15.982  12.064
21979W        W86964  33.006  15.094  12.665
21980W        W86965   7.723   5.781   2.745
21981W        W86966  43.736  41.307   4.662
21982W        W86967  35.439  40.824   2.290
21983W        W86968   1.753  30.621   0.811
21984W        W86969  23.561  32.431   4.122
21985W        W86970  32.141  25.222  10.779
21986W        W86971  34.094   2.380   4.476
21987W        W86972   5.863   8.373   0.722
21988W        W86973   4.873  21.736  13.136
21989W        W86974   1.173  32.031  12.156
21990W        W86975  41.559  10.360  10.250
21991W        W86976  27.878  13.552  12.882
21992W        W86977  29.452   5.158  11.659
21993W        W86978  42.825  33.471  12.472
21994W        W86979   5.730  13.767  14.328
21995W        W86980  31.988  27.141   4.570
21996W        W86981  33.036  21.443   3.909
21997W        W86982   0.219  31.698   0.940
21998W        W86983  35.589  43.051  13.561
21999W        W86984  21.548  10.952  12.021
22000W        W86985  39.911   7.756  11.162
22001W        W86986   4.299  27.676  12.175
22002W        W86987  21.455  20.994  14.041
22003W        W86988  35.941  42.470  13.074
22004W        W86989   9.789  11.129   3.223
22005W        W86990  26.090  37.934  11.858
22006W        W86991  42.956  29.956  14.016
22007W        W86992  41.148  24.385   4.880
22008W        W86993  39.959  27.418   3.628
22009W        W86994  37.388  20.788  13.519
22010W        W86995  25.201  14.845   1.729
22011W        W86996  24.108   5.705   3.674
22012W        W86997  38.351  16.836  13.199
22013W        W86998  10.932  29.442   0.681
22014W        W86999  28.756  14.164   0.159
22015W        W87000  20.439  10.151  12.234
22016W        W87001  23.944  14.129   1.350
22017W        W87002  18.268  12.105   2.521
22018W        W87003  21.219  20.025  14.869
22019W        W87004  40.080  40.300   1.432
22020W        W87005  18.152  37.835   0.934
22021W        W87006  21.505   2.965   1.899
22022W        W87007  40.626  31.496  12.919
22023W        W87008   8.291  12.316  13.532
22024W        W87009  26.721   5.805   2.822
22025W        W87010  20.355  37.319   2.938
22026W        W87011  14.806   6.431   0.534
22027W        W87012  18.171  11.443  13.861
22028W        W87013  11.341  31.000  12.461
22029W        W87014  26.203   5.929   0.848
22030W        W87015  18.928   6.636  11.244
22031W        W87016  40.167   8.256  12.793
22032W        W87017  41.990  28.565  10.949
22033W        W87018  37.822  19.559  13.571
22034W        W87019  16.181  10.365  10.702
22035W        W87020  26.697  34.685  11.673
22036W        W87021   8.361   3.765   4.632
22037W        W87022  10.170  16.320   2.364
22038W        W87023  31.368  20.604  13.604
22039W        W87024   6.846  16.181   3.129
22040W        W87025  29.543  25.102  14.726
22041W        W87026  27.884  41.963   4.806
22042W        W87027  23.019  44.200  10.138
22043W        W87028  26.673  36.664   1.930
22044W        W87029  36.799  37.429  13.790
22045W        W87030  28.326  27.575  10.613
22046W        W87031  35.125  30.615   9.975
22047W        W87032  27.321  43.960   1.273
22048W        W87033  36.454  20.554  11.160
22049W        W87034  43.768   6.859  13.321
22050W        W87035  32.629  44.832   1.397
22051W        W87036  10.358  23.259  13.203
22052W        W87037  40.400  30.961  11.515
22053W        W87038  42.554   7.409  13.470
22054W        W87039   7.648  36.137   0.284
22055W        W87040  39.151   0.645   2.795
22056W        W87041  22.971  24.781   2.686
22057W        W87042   5.148  13.124  13.019
22058W        W87043  28.073  15.798  12.986
22059W        W87044  36.466   4.177   1.376
22060W        W87045  41.545   6.893  12.334
22061W        W87046  12.116  18.176  14.042
22062W        W87047  25.982  10.122  13.049
22063W        W87048   1.022  40.024   4.368
22064W        W87049  12.258   8.546  13.043
22065W        W87050  26.641  23.073  10.958
22066W        W87051  40.980   1.471  13.821
22067W        W87052  29.738  41.881  12.081
22068W        W87053  12.910  43.965  13.781
22069W        W87054  22.726  20.329  13.789
22070W        W87055  35.445   3.721   2.747
22071W        W87056   2.795  40.169   0.482
22072W        W87057   4.714  30.411   1.227
22073W        W87058  18.786  44.348   2.767
22074W        W87059   1.849  19.424  13.855
22075W        W87060  34.956  33.691  14.895
22076W        W87061  34.492  36.337   0.809
22077W        W87062   8.701   2.124  13.398
22078W        W87063  35.213   0.015  11.133
22079W        W87064  32.331  31.466   1.804
22080W        W87065   3.050  11.357  10.643
22081W        W87066  28.550  12.188   4.170
22082W        W87067  41.506  19.695  14.209
22083W        W87068  14.817  33.938   5.170
22084W        W87069  30.404  15.720   1.638
22085W        W87070   5.909  28.376  12.920
22086W        W87071  39.951  37.638  11.379
22087W        W87072  21.082  11.561   2.217
22088W        W87073  36.035  36.650   2.793
22089W        W87074   1.682  14.981  11.597
22090W        W87075  25.499  32.941   1.869
22091W        W87076  32.962  39.074   3.599
22092W        W87077  44.791  39.990   3.999
22093W        W87078  22.094  39.016   2.211
22094W        W87079  27.711  39.222  12.556
22095W        W87080  32.636   7.228   0.882
22096W        W87081  26.460  24.704   4.872
22097W        W87082  21.015  11.309   4.782
22098W        W87083  19.748  15.612   4.126
22099W        W87084   0.199  16.313   4.105
22100W        W87085  10.199  26.202  11.212
22101W        W87086   6.256  33.852   1.468
22102W        W87087  21.045  26.740   4.213
22103W        W87088  28.186  38.802  13.814
22104W        W87089  30.606  23.489   3.643
22105W        W87090  42.830  20.906  13.346
22106W        W87091  34.904  43.417   3.279
22107W        W87092  27.467  11.730  12.048
22108W        W87093  21.256  22.652   5.092
22109W        W87094  23.479   7.778   3.195
22110W        W87095  21.172  10.813  10.901
22111W        W87096   3.543  19.881   4.882
22112W        W87097  32.635  12.685   0.819
22113W        W87098  43.939   8.297   1.931
22114W        W87099  39.781  43.094   2.324
22115W        W87100  15.281  15.134   0.703
22116W        W87101  11.760  39.344   0.321
22117W        W87102  29.443  13.336  12.784
22118W        W87103  14.391  31.405   4.029
22119W        W87104   7.338   4.786   3.137
22120W        W87105  34.785   5.915  11.646
22121W        W87106   3.194  17.091   4.505
22122W        W87107  40.501  36.944   4.177
22123W        W87108  13.399  37.615   0.393
22124W        W87109  13.657  28.589  14.846
22125W        W87110  19.870   6.569  12.032
22126W        W87111  24.593  44.979   0.305
22127W        W87112   3.841  17.729  14.900
22128W        W87113  40.773  35.463  12.071
22129W        W87114  28.868  22.937  13.553
22130W        W87115  29.623  23.715   2.308
22131W        W87116  38.483  19.239  14.526
22132W        W87117  20.491  27.967  13.091
22133W        W87118   2.649   5.534  12.914
22134W        W87119  21.551  27.632  13.338
22135W        W87120  17.671  27.490  13.847
22136W        W87121   1.857   6.832  12.848
22137W        W87122  26.795  28.690  11.076
22138W        W87123  13.843  43.222  11.438
22139W        W87124   0.546  39.804   2.762
22140W        W87125   7.621   2.899   2.127
22141W        W87126   1.481  41.366   4.143
22142W        W87127  13.800  23.918   0.372
22143W        W87128  41.902  18.808  13.436
22144W        W87129  32.501  11.357  13.955
22145W        W87130  23.531  21.612   3.663
22146W        W87131  22.111  12.561   0.800
22147W        W87132  28.111   7.432   4.218
22148W        W87133  14.296  23.818  11.193
22149W        W87134  33.865  37.344   4.601
22150W        W87135  31.183  21.510  13.561
22151W        W87136  43.793   3.019  12.121
22152W        W87137   9.673  25.768   2.665
22153W        W87138  35.926  27.558  13.008
22154W        W87139   7.664  32.027  12.426
22155W        W87140  25.096  19.572   2.337
22156W        W87141  32.540  30.682  12.028
22157W        W87142  18.344   7.775  13.475
22158W        W87143  10.838  27.509  12.616
22159W        W87144   4.270  39.424   0.071
22160W        W87145  30.296  15.848  10.922
22161W        W87146  17.890  16.683   2.138
22162W        W87147   9.777  25.448   0.429
22163W        W87148  22.294  18.525  13.933
22164W        W87149  28.033  25.648   4.230
22165W        W87150  43.783   2.327  13.891
22166W        W87151  42.348  28.119  12.061
22167W        W87152   2.826   5.120  14.471
22168W        W87153  16.637  36.499  13.526
22169W        W87154  10.055  28.891  12.648
22170W        W87155  39.032  23.251   0.073
22171W        W87156  40.493  21.512   0.533
22172W        W87157  40.546  29.011   0.406
22173W        W87158  36.578  33.131   3.171
22174W        W87159  24.833  16.308   2.871
22175W        W87160   7.951  17.734   4.322
22176W        W87161   7.766  32.395   1.362
22177W        W87162  41.264  19.087   1.627
22178W        W87163  43.240   4.681  13.407
22179W        W87164  35.075  14.577   0.774
22180W        W87165  32.406  42.424  13.508
22181W        W87166  27.675  33.193   0.516
22182W        W87167   3.293  22.761   2.462
22183W        W87168  27.700  35.994  10.748
22184W        W87169   7.748  39.067   3.876
22185W        W87170  20.524  12.199   4.314
22186W        W87171  40.853  11.795   4.103
22187W        W87172  41.143  44.985   1.808
22188W        W87173  20.207   3.200  14.324
22189W        W87174  22.536  43.791   0.950
22190W        W87175  12.636  37.571   3.637
22191W        W87176  17.710  26.932  12.182
22192W        W87177  28.181  19.019   2.716
22193W        W87178  26.197  34.118  11.573
22194W        W87179  31.977   6.367   4.528
22195W        W87180  44.277  44.500  12.476
22196W        W87181  26.496  30.654   0.024
22197W        W87182  32.653  31.688  14.458
22198W        W87183  21.988  29.063  13.122
22199W        W87184  10.218   2.159   3.598
22200W        W87185  28.842  18.328  14.337
22201W        W87186  31.530  43.314  13.849
22202W        W87187   1.227  44.574   1.491
22203W        W87188  42.855  19.027   5.133
22204W        W87189  10.061  39.778   3.634
22205W        W87190  26.050  21.693  12.452
22206W        W87191  34.979  21.095   2.095
22207W        W87192  10.726  16.528  12.414
22208W        W87193   7.435  12.312  13.156
22209W        W87194  28.108   4.526  12.863
22210W        W87195  26.673   6.490  12.944
22211W        W87196   1.735  27.496   0.250
22212W        W87197  37.314  21.510   0.934
22213W        W87198  31.358  26.528   3.859
22214W        W87199  44.237   0.835  11.154
22215W        W87200  33.522  24.147  13.259
22216W        W87201  41.856  28.431  14.959
22217W        W87202  25.603  28.620  13.815
22218W        W87203   2.456  29.074   3.737
22219W        W87204  30.682   1.910   2.823
22220W        W87205   6.580  11.123   2.684
22221W        W87206   5.225  17.942   3.052
22222W        W87207  22.734  43.845  11.552
22223W        W87208  44.236  24.603  13.174
22224W        W87209   0.135  43.870   3.218
22225W        W87210  10.735  20.771  12.456
22226W        W87211  21.733  21.730  11.696
22227W        W87212   8.659  40.076   0.638
22228W        W87213  12.769   7.852   3.241
22229W        W87214  43.285  37.981  12.005
22230W        W87215  18.033  13.808   4.426
22231W        W87216  41.717  23.087  11.860
22232W        W87217  19.346  33.536   4.217
22233W        W87218  21.104   3.632  10.406
22234W        W87219   5.186   0.649  12.083
22235W        W87220  14.215  30.577  11.837
22236W        W87221  38.444  24.043  11.819
22237W        W87222  43.250  25.157  11.570
22238W        W87223  19.574  33.667   3.349
22239W        W87224  34.645   6.034   3.449
22240W        W87225  20.585  19.269  12.551
22241W        W87226  15.128  26.816  12.432
22242W        W87227  10.744   9.628  13.990
22243W        W87228  22.167  31.423  14.329
22244W        W87229  34.281  34.403   2.735
22245W        W87230   1.282  22.985   1.275
22246W        W87231  15.034  13.678   1.909
22247W        W87232   4.487  41.365   3.287
22248W        W87233   9.993  13.436  14.543
22249W        W87234  22.908  20.058  12.992
22250W        W87235  20.581  33.870  13.377
22251W        W87236  36.055   9.774  14.954
22252W        W87237  21.107  10.532  14.730
22253W        W87238  11.162   4.762   1.865
22254W        W87239  39.404  34.089  12.166
22255W        W87240  24.768  33.945  13.094
22256W        W87241   7.634  43.396  10.884
22257W        W87242  34.559   4.348   4.137
22258W        W87243  24.751  14.069   0.931
22259W        W87244   2.035  37.981   4.430
22260W        W87245  22.963  38.815   3.337
22261W        W87246  10.786  17.971  13.753
22262W        W87247  41.150  19.630   3.520
22263W        W87248  24.131  26.206   2.014
22264W        W87249  37.108  10.195  14.116
22265W        W87250  20.860   1.245  12.601
22266W        W87251  25.598  39.267   1.160
22267W        W87252   3.872  10.225  11.067
22268W        W87253  24.607  10.570   0.327
22269W        W87254  41.680   3.283   2.865
22270W        W87255  24.899  42.838   1.114
22271W        W87256  17.714  11.200   0.895
22272W        W87257  36.377  11.706   0.376
22273W        W87258   4.662  44.881   4.828
22274W        W87259  33.312   9.994  10.314
22275W        W87260  11.203  24.388   0.927
22276W        W87261   4.649   0.985   4.730
22277W        W87262   9.207  38.275  14.883
22278W        W87263  30.370  40.420   2.701
22279W        W87264   9.115  14.813  10.709
22280W        W87265   6.217  34.999   2.362
22281W        W87266  41.804  12.876   3.773
22282W        W87267  27.560   5.952   1.850
22283W        W87268   4.937  44.912   3.113
22284W        W87269  35.879  34.129   4.217
22285W        W87270   6.750  38.769   2.381
22286W        W87271  23.078  31.912   2.178
22287W        W87272  14.064  29.015  13.600
22288W        W87273  30.076  25.885  13.425
22289W        W87274  37.618  32.921   0.479
22290W        W87275  24.082  31.543   3.508
22291W        W87276   6.673  42.026  12.028
22292W        W87277  17.476   3.419  12.975
22293W        W87278  44.612   4.849  13.120
22294W        W87279  19.357   3.531  14.245
22295W        W87280  22.315  30.439   1.867
22296W        W87281  12.641   1.442   4.913
22297W        W87282  41.259  13.327  12.888
22298W        W87283  12.343  42.755   0.996
22299W        W87284  13.405  34.929  11.939
22300W        W87285  31.461  37.879   0.362
22301W        W87286   5.276  39.962  13.631
22302W        W87287   8.735  18.114   2.951
22303W        W87288   5.596  12.394  13.921
22304W        W87289  30.911  16.368  14.399
22305W        W87290  23.751  43.359  14.913
22306W        W87291   6.763  13.340  10.743
22307W        W87292  24.554  38.998   1.959
22308W        W87293   7.794  33.702  12.013
22309W        W87294   2.905   6.960   4.307
22310W        W87295  22.156  38.005  10.696
22311W        W87296  42.947  26.713  14.952
22312W        W87297  16.246  26.089  13.574
22313W        W87298  43.731  17.108  12.379
22314W        W87299  35.615  12.554   3.653
22315W        W87300  24.479  17.011  12.976
22316W        W87301  12.144  39.686   1.732
22317W        W87302   8.383  10.881  11.502
22318W        W87303  11.339   3.374  12.643
22319W        W87304  35.644  32.640  10.439
22320W        W87305  39.911  13.353   4.868
22321W        W87306  36.456   2.771  13.516
22322W        W87307   6.402  37.442  13.686
22323W        W87308  25.061  15.285  14.390
22324W        W87309   0.965  15.538  11.494
22325W        W87310  20.639  42.994   5.130
22326W        W87311  22.219   6.730   4.595
22327W        W87312  28.073  27.392  13.027
22328W        W87313  11.877  11.701   3.321
22329W        W87314  34.025  37.060   0.439
22330W        W87315  43.496  44.811   2.304
22331W        W87316   9.889  44.978  12.119
22332W        W87317  15.274   8.415   2.711
22333W        W87318   1.777   0.463  10.689
22334W        W87319   7.023  15.251  12.020
22335W        W87320  21.616   7.759  13.266
22336W        W87321  15.257  41.492   0.865
22337W        W87322  26.189  28.881   3.040
22338W        W87323   7.314  36.627   1.772
22339W        W87324   1.301  11.715  14.099
22340W        W87325  16.623   1.995  11.407
22341W        W87326  36.385   0.859   3.273
22342W        W87327  27.662   6.662  14.769
22343W        W87328   6.423  28.046   1.702
22344W        W87329  44.002   4.386   2.215
22345W        W87330   5.757  40.155  13.547
22346W        W87331  13.684  41.812   4.303
22347W        W87332  36.924  15.714  10.680
22348W        W87333  39.847   8.510   1.186
22349W        W87334  12.231  38.883  14.940
22350W        W87335  30.618  18.085   4.211
22351W        W87336  35.581   1.305   3.120
22352W        W87337   5.248  25.803  14.807
22353W        W87338  38.998   2.947  10.796
22354W        W87339  16.838  43.854   4.773
22355W        W87340   2.227  17.700   1.466
22356W        W87341  36.945  31.089   0.917
22357W        W87342  30.154  41.660  11.880
22358W        W87343   4.997  10.792  14.466
22359W        W87344  17.694  24.932  14.532
22360W        W87345   3.880   2.443  12.452
22361W        W87346  24.002   7.268   3.632
22362W        W87347   4.934  19.518  10.985
22363W        W87348  11.193  18.718  12.684
22364W        W87349  13.016  15.677  12.346
22365W        W87350  21.378  43.209   2.299
22366W        W87351   8.871  31.494  10.982
22367W        W87352  31.526  19.976  10.666
22368W        W87353  18.022  11.235  10.669
22369W        W87354  30.512  28.113   3.762
22370W        W87355  35.917  32.357  14.354
22371W        W87356   7.861   0.644   1.317
22372W        W87357  21.822  29.882   2.914
22373W        W87358  41.013   1.393  11.532
22374W        W87359  40.308  38.011   2.513
22375W        W87360  11.116   3.744   1.982
22376W        W87361   6.241   6.743   1.637
22377W        W87362  37.663  33.265  11.882
22378W        W87363   3.722  43.131   1.694
22379W        W87364  42.589   6.489  12.693
22380W        W87365   0.632  41.956   1.301
22381W        W87366  14.012   7.174   2.946
22382W        W87367  24.255  28.042  11.621
22383W        W87368   6.401  27.962   3.211
22384W        W87369  17.654  43.827  13.594
22385W        W87370  24.697   8.986   1.479
22386W        W87371  43.816   2.443   0.785
22387W        W87372  30.344   2.885   4.056
22388W        W87373  44.695  18.611  12.602
22389W        W87374   7.903   7.577  12.773
22390W        W87375   0.056  18.806   4.135
22391W        W87376  25.220  17.659  10.730
22392W        W87377  42.076   2.395   2.296
22393W        W87378  12.461   6.423  13.439
22394W        W87379  32.835  11.412   2.936
22395W        W87380  29.157  14.884  13.494
22396W        W87381  41.853   9.769   2.905
22397W        W87382  28.136  39.329  14.426
22398W        W87383  18.150   2.904   2.913
22399W        W87384   6.291  13.805  13.449
22400W        W87385  26.139  40.293  14.076
22401W        W87386  30.444  29.525   4.120
22402W        W87387   6.940  39.469   4.205
22403W        W87388  11.154  11.487  11.264
22404W        W87389  15.103  42.713  14.741
22405W        W87390  40.790  12.155   0.725
22406W        W87391  26.995  44.488   4.564
22407W        W87392  33.554  19.656  14.580
22408W        W87393  32.852  18.603  14.417
22409W        W87394  44.262  20.998   3.149
22410W        W87395  22.262  31.991  11.693
22411W        W87396  15.759  14.629  11.152
22412W        W87397   5.370   8.838   5.052
22413W        W87398  34.053  35.384   3.749
22414W        W87399  36.498  44.863  11.508
22415W        W87400  22.918  14.705  13.860
22416W        W87401   4.269  38.580   3.230
22417W        W87402  25.558  20.437  14.255
22418W        W87403  39.330  26.577   3.454
22419W        W87404  42.520  36.497   1.181
22420W        W87405  40.028  14.384  14.446
22421W        W87406  29.088  35.515   3.545
22422W        W87407  41.242  18.824  11.698
22423W        W87408   8.989  27.149  11.138
22424W        W87409  29.584  35.642  11.513
22425W        W87410  16.204  37.602   3.163
22426W        W87411  18.196  23.062  13.571
22427W        W87412  15.211  11.839   3.365
22428W        W87413  43.883  29.645  11.560
22429W        W87414   5.613  21.294   0.751
22430W        W87415   3.493  41.670  11.127
22431W        W87416   9.316  42.840   2.379
22432W        W87417  36.122  22.218   2.090
22433W        W87418  19.704  25.091  14.707
22434W        W87419  32.373   0.504  11.514
22435W        W87420  12.725   1.733  10.723
22436W        W87421  37.956  33.843   4.321
22437W        W87422  22.621   9.625   1.544
22438W        W87423  10.751   8.476   1.905
22439W        W87424  20.195  17.038   1.206
22440W        W87425  38.074  38.004  13.767
22441W        W87426  36.958  22.768  11.201
22442W        W87427  33.004  40.748   2.989
22443W        W87428   3.886   2.966  12.356
22444W        W87429   1.386  32.694   1.326
22445W        W87430  41.354  18.617   1.401
22446W        W87431  41.817  36.065  13.237
22447W        W87432  15.988  42.133   2.386
22448W        W87433  30.957  30.818   3.744
22449W        W87434  41.989  19.131   2.735
22450W        W87435  34.290  21.220  12.390
22451W        W87436  21.014  16.085  10.936
22452W        W87437  26.342  23.648  12.936
22453W        W87438   3.090  44.763  11.211
22454W        W87439  40.353  26.899  13.900
22455W        W87440  14.709   0.355   3.221
22456W        W87441   3.403   9.956   1.167
22457W        W87442   6.234  13.303   2.404
22458W        W87443   9.896  17.174  14.411
22459W        W87444  41.092  33.078   4.663
22460W        W87445  34.773  26.851  14.379
22461W        W87446  12.310   1.382  12.074
22462W        W87447   3.555  29.461  14.925
22463W        W87448  22.299   9.958   2.731
22464W        W87449   8.237  19.092  14.250
22465W        W87450  36.020  21.170  10.155
22466W        W87451  22.966  36.284   4.288
22467W        W87452  43.565   1.975   3.785
22468W        W87453  17.581   9.205   2.618
22469W        W87454  18.363   9.155  13.773
22470W        W87455  17.062  27.607   2.665
22471W        W87456  28.832   2.499   0.257
22472W        W87457   9.218   0.961  12.381
22473W        W87458   8.535  30.615   0.427
22474W        W87459  40.424   8.235   0.401
22475W        W87460  14.113  12.034  11.247
22476W        W87461   0.355  35.342   4.692
22477W        W87462   2.417  35.146   3.521
22478W        W87463   2.786  19.240   2.379
22479W        W87464  40.980  12.731   3.697
22480W        W87465  21.626  36.815   2.010
22481W        W87466  34.476  13.629   1.640
22482W        W87467  15.115  24.502  12.429
22483W        W87468  28.799  20.222   1.767
22484W        W87469  28.084  22.230   4.578
22485W        W87470  16.571   0.071   0.739
22486W        W87471  14.278  22.003   2.275
22487W        W87472  17.276   8.093  14.949
22488W        W87473  40.011  25.154   1.499
22489W        W87474   9.009   7.734  13.376
22490W        W87475  22.825  44.763  11.591
22491W        W87476  25.751  38.423   3.113
22492W        W87477   5.609   5.696   1.499
22493W        W87478  36.080  17.288   3.956
22494W        W87479   0.209  25.497   4.659
22495W        W87480   0.521  30.022   4.528
22496W        W87481   7.376  16.804   0.693
22497W        W87482  20.507  12.192   4.876
22498W        W87483  32.677  17.711  13.906
22499W        W87484  22.563  40.249   1.583
22500W        W87485   1.473  20.777   0.140
22501W        W87486  28.100   6.347  14.786
22502W        W87487  22.201  26.954   1.816
22503W        W87488  43.916  37.257   4.207
22504W        W87489   7.190  32.169  10.856
22505W        W87490  31.463   2.181   2.129
22506W        W87491   6.677  36.291   4.262
22507W        W87492  36.621  10.754   2.759
22508W        W87493  25.976  41.543   4.427
22509W        W87494  29.503   7.811  14.548
22510W        W87495  38.381  36.809   4.282
22511W        W87496  13.109  33.226   1.905
22512W        W87497  15.257  44.163  12.937
22513W        W87498  21.190  26.471  11.548
22514W        W87499  30.185  13.726   2.297
22515W        W87500  23.000   4.832  13.356
22516W        W87501  26.865  39.835  14.484
22517W        W87502  36.955  11.983   1.545
22518W        W87503  15.167  44.721   3.738
22519W        W87504  25.915  20.134  12.207
22520W        W87505   3.901  13.199  12.230
22521W        W87506  33.125   3.362  12.486
22522W        W87507   9.995  14.754  10.401
22523W        W87508  23.672  13.918   2.586
22524W        W87509  29.693  12.976   0.069
22525W        W87510  10.418  44.177   2.437
22526W        W87511  39.941  44.991  14.719
22527W        W87512   4.814   4.833   0.414
22528W        W87513  10.157  33.482   0.351
22529W        W87514  38.865  18.848   1.213
22530W        W87515   1.853   6.661  11.561
22531W        W87516  21.019  36.108   1.407
22532W        W87517  16.774  10.310   2.297
22533W        W87518  29.777  28.843  11.608
22534W        W87519   8.043  25.793   4.606
22535W        W87520   1.861  44.253  10.838
22536W        W87521   3.005  14.059   4.361
22537W        W87522  29.722  19.043   1.218
22538W        W87523  33.480  23.609   2.605
22539W        W87524   7.386  37.421  12.709
22540W        W87525  10.634   6.773   4.582
22541W        W87526  33.692  25.197   0.959
22542W        W87527  20.551   6.812  10.629
22543W        W87528  30.596   3.844  13.359
22544W        W87529  33.485  34.002  14.730
22545W        W87530   6.557  17.146   1.737
22546W        W87531  29.789  44.428  10.780
22547W        W87532  42.223   4.317  11.675
22548W        W87533  22.950  26.850   4.045
22549W        W87534  16.532   5.834  14.243
22550W        W87535   5.196   4.977  10.402
22551W        W87536  13.334  28.188   0.882
22552W        W87537   3.008   0.870   3.349
22553W        W87538  43.017  13.921  11.970
22554W        W87539  22.626   1.934   0.871
22555W        W87540   7.858  32.590  13.104
22556W        W87541  36.855  29.240  11.601
22557W        W87542  17.622   8.379  10.044
22558W        W87543   3.867  14.288   4.217
22559W        W87544  18.245  41.774   1.581
22560W        W87545  27.493   7.458   0.329
22561W        W87546  30.285  33.455  14.344
22562W        W87547  19.094  42.767   4.300
22563W        W87548  18.815  16.701   2.270
22564W        W87549  29.642  30.726   3.349
22565W        W87550  10.828  20.796   0.950
22566W        W87551  43.801  41.335   2.194
22567W        W87552  16.798  39.543  13.504
22568W        W87553  27.070   3.059  14.164
22569W        W87554  23.404   6.207   2.363
22570W        W87555   5.131  34.492   3.664
22571W        W87556  29.062  25.553   4.024
22572W        W87557  44.808   4.978  14.329
22573W        W87558  32.994  32.922  11.185
22574W        W87559  11.912  20.754  13.114
22575W        W87560  32.753  33.363  12.898
22576W        W87561  13.131  44.865  11.137
22577W        W87562  39.795   6.646  12.920
22578W        W87563  37.623  16.874   5.134
22579W        W87564  15.267  39.796   0.841
22580W        W87565   2.798  15.051  12.744
22581W        W87566   5.156  34.553  11.041
22582W        W87567   5.397  21.451   3.301
22583W        W87568  37.392   7.340  11.107
22584W        W87569  23.514  44.790   2.137
22585W        W87570   2.449  12.651   3.602
22586W        W87571  35.556   0.421   3.347
22587W        W87572  44.864  44.298   1.685
22588W        W87573  16.983  34.935   1.929
22589W        W87574   7.902  37.828  11.099
22590W        W87575  20.295   2.977   0.491
22591W        W87576   6.695   2.529  12.114
22592W        W87577  22.721   4.355  10.968
22593W        W87578   4.058  13.533   1.333
22594W        W87579   7.942   2.414  13.653
22595W        W87580  43.839   2.627  13.046
22596W        W87581  13.200  41.265   2.919
22597W        W87582  26.502   7.698   3.159
22598W        W87583   0.397  39.444  11.384
22599W        W87584  29.172  35.670   1.760
22600W        W87585  17.606  44.356  13.593
22601W        W87586  27.559   5.741   3.433
22602W        W87587  30.291   5.051  11.385
22603W        W87588   5.901  28.268  12.057
22604W        W87589   2.606  15.729  12.217
22605W        W87590  15.776  18.104  13.921
22606W        W87591  42.462   3.394   0.315
22607W        W87592  23.972   6.271  11.472
22608W        W87593  36.450   2.418  10.849
22609W        W87594   4.819   8.718   1.964
22610W        W87595  10.771  35.438   4.810
22611W        W87596  37.656  16.089  10.707
22612W        W87597  11.891  28.234  13.526
22613W        W87598  15.285  36.810   4.374
22614W        W87599  35.961   6.499   2.150
22615W        W87600  25.449  19.933  14.210
22616W        W87601   8.867  26.647   3.080
22617W        W87602  24.084  41.399   1.011
22618W        W87603  26.788  23.435   2.706
22619W        W87604  17.870  41.463   1.413
22620W        W87605  34.330  15.820  11.406
22621W        W87606  19.358  20.648   1.944
22622W        W87607  31.364  36.286   2.536
22623W        W87608   2.479  10.768  12.094
22624W        W87609  12.803   0.269  12.458
22625W        W87610  42.209  19.616   3.282
22626W        W87611  37.747  27.617   0.129
22627W        W87612  20.189   3.421   4.270
22628W        W87613   0.045  37.528  10.272
22629W        W87614  30.456  16.670   3.705
22630W        W87615  22.984   9.245   3.835
22631W        W87616  24.265  17.580   1.200
22632W        W87617   5.904  17.237   3.355
22633W        W87618   9.275   5.349  12.161
22634W        W87619  23.035  38.958   1.133
22635W        W87620  12.327   2.266   3.736
22636W        W87621   4.431  42.394  13.088
22637W        W87622  28.616   1.287  12.622
22638W        W87623   9.117   4.715   5.414
22639W        W87624  13.518   0.252  13.814
22640W        W87625  42.560  29.535   4.241
22641W        W87626  41.335  32.775   2.734
22642W        W87627   0.479  35.359  14.785
22643W        W87628   6.875  20.533   0.501
22644W        W87629  29.030  44.012  11.310
22645W        W87630   2.015  30.198   1.260
22646W        W87631   9.174  44.632   2.817
22647W        W87632   4.229   2.264  14.532
22648W        W87633  31.101  13.326   3.160
22649W        W87634  11.815   9.316  12.591
22650W        W87635  24.155  15.133  13.822
22651W        W87636   4.628  33.735   4.100
22652W        W87637   4.767  22.573   4.515
22653W        W87638  10.709   4.341   5.077
22654W        W87639   5.440  19.391   4.875
22655W        W87640  11.218  26.616  13.108
22656W        W87641  41.358  37.517  10.396
22657W        W87642  12.195  20.082   3.645
22658W        W87643  24.516  44.689   4.139
22659W        W87644   0.928  13.256  11.016
22660W        W87645  18.611  29.176   2.156
22661W        W87646  16.140  42.020   0.982
22662W        W87647  34.073  31.951   4.123
22663W        W87648  27.893   8.356  14.330
22664W        W87649  38.545  27.992  14.863
22665W        W87650   3.640   2.921  14.760
22666W        W87651  39.927  32.068   4.933
22667W        W87652   7.388  26.949   0.559
22668W        W87653  13.081  37.287  12.857
22669W        W87654   0.602  10.047   3.196
22670W        W87655   4.960  23.669   3.715
22671W        W87656  34.570  32.403   2.163
22672W        W87657  26.703  32.891  14.809
22673W        W87658  20.184  33.986  14.255
22674W        W87659  34.355  28.970   1.387
22675W        W87660  41.341  33.941  14.897
22676W        W87661  36.081  32.709   2.384
22677W        W87662  17.205  16.339   3.740
22678W        W87663  23.509  44.929   3.107
22679W        W87664  14.826  10.323  13.461
22680W        W87665  21.301  28.207  14.800
22681W        W87666  25.541  24.618   0.694
22682W        W87667  12.373  13.778   2.033
22683W        W87668  15.736  44.313   1.347
22684W        W87669  26.914  41.937  12.500
22685W        W87670  27.392  18.369  14.464
22686W        W87671  17.859   4.460  10.753
22687W        W87672   5.075  22.051  11.693
22688W        W87673   7.251  24.192   3.116
22689W        W87674  35.903  29.983   1.714
22690W        W87675  27.410  26.137   0.054
22691W        W87676  44.921  28.460  11.260
22692W        W87677  12.755  43.456   1.288
22693W        W87678  22.738  34.810  10.002
22694W        W87679  44.119  24.434  12.084
22695W        W87680   9.031  30.168   3.351
22696W        W87681  20.503  26.404   4.120
22697W        W87682  33.116   7.361  11.099
22698W        W87683  23.762  12.560   1.295
22699W        W87684  26.582  17.300   2.465
22700W        W87685  26.866  22.534   0.269
22701W        W87686  25.490  28.934   9.878
22702W        W87687  28.350  17.282   3.168
22703W        W87688   8.832   3.449  13.123
22704W        W87689  21.312  34.118   0.749
22705W        W87690  12.710   4.811   2.596
22706W        W87691  17.731  18.787   0.833
22707W        W87692  19.177  27.210   2.452
22708W        W87693  35.034  27.581   2.208
22709W        W87694  29.076  24.511   4.158
22710W        W87695   4.889  30.119  11.293
22711W        W87696  25.550  41.400  11.120
22712W        W87697  36.947  19.711  12.432
22713W        W87698   3.367   7.536   0.819
22714W        W87699   7.678  40.211   5.104
22715W        W87700  33.500  18.441   2.700
22716W        W87701  23.761  16.179  12.049
22717W        W87702  39.801  40.391   1.015
22718W        W87703  37.420  11.043  12.407
22719W        W87704  41.664  37.472  14.422
22720W        W87705  19.216  27.391   1.756
22721W        W87706  43.341   3.750  11.219
22722W        W87707  42.499  31.639   3.246
22723W        W87708  32.399   3.356  13.160
22724W        W87709  37.330   9.203   3.702
22725W        W87710   4.396  36.845   1.296
22726W        W87711  38.025   5.111  14.492
22727W        W87712  35.423  34.397   0.566
22728W        W87713   9.186   7.897  13.895
22729W        W87714  42.973  31.574   1.864
22730W        W87715  27.203  11.064  11.497
22731W        W87716  12.817  23.219   2.062
22732W        W87717  10.609  20.738  14.933
22733W        W87718  32.553  31.937  12.555
22734W        W87719   0.237  34.461  14.311
22735W        W87720  26.494  23.328   0.533
22736W        W87721   5.016  10.934  12.617
22737W        W87722  43.471  38.285  14.373
22738W        W87723  40.536  19.769   0.841
22739W        W87724  14.629  26.526  10.674
22740W        W87725  20.548   0.333   1.766
22741W        W87726  35.827  19.951  12.090
22742W        W87727  41.060  42.755  10.622
22743W        W87728  42.926  42.248   1.765
22744W        W87729  29.341  10.340  13.772
22745W        W87730   9.314  13.874   1.284
22746W        W87731  10.080  15.330   2.318
22747W        W87732  20.081  17.730  10.725
22748W        W87733  10.497  33.832   2.284
22749W        W87734  12.733  40.775   4.056
22750W        W87735  24.111  42.927   2.677
22751W        W87736  22.546  43.200   2.738
22752W        W87737   6.907  29.858  11.496
22753W        W87738  11.163   2.562   0.736
22754W        W87739  12.041  21.577   4.889
22755W        W87740  41.029  12.608   3.207
22756W        W87741  19.991  26.172  14.564
22757W        W87742  21.317  16.707  13.340
22758W        W87743  41.075  15.073  12.050
22759W        W87744  23.094  31.460   1.405
22760W        W87745   4.321  13.367   1.751
22761W        W87746  27.680   1.279   0.458
22762W        W87747   0.285  10.837  12.504
22763W        W87748   1.352  37.557   4.387
22764W        W87749  31.501  44.766   0.395
22765W        W87750  14.820   7.841   1.876
22766W        W87751  19.091  44.910  11.590
22767W        W87752  43.788  35.833  13.352
22768W        W87753  37.217  42.403   1.931
22769W        W87754   0.379  11.186   3.845
22770W        W87755  21.990   5.341   1.204
22771W        W87756  37.464  36.893   4.189
22772W        W87757  34.675   6.416   1.878
22773W        W87758   0.405  36.559   4.229
22774W        W87759  20.951  26.796  14.021
22775W        W87760  29.212   2.627  14.918
22776W        W87761  10.198  41.597   3.789
22777W        W87762  37.353  37.613   0.800
22778W        W87763  11.315  13.292  13.473
22779W        W87764  37.800  39.412  13.780
22780W        W87765  41.897  21.067   0.386
22781W        W87766  41.214  30.537   0.534
22782W        W87767  28.118  17.247   3.648
22783W        W87768  32.452  10.829  10.944
22784W        W87769  14.606  35.944   0.891
22785W        W87770   3.685  32.090  13.944
22786W        W87771  31.494   9.670  14.866
22787W        W87772  20.654  14.566   0.956
22788W        W87773   2.595   5.805   2.703
22789W        W87774  42.331   9.253   2.954
22790W        W87775  18.056  22.949   3.352
22791W        W87776  31.527   0.933   3.708
22792W        W87777  21.896  40.311  12.003
22793W        W87778   0.811  23.716   1.293
22794W        W87779  14.575  26.630  10.163
22795W        W87780   4.203   1.194   2.663
22796W        W87781  31.310   2.812   4.342
22797W        W87782  44.260   2.509  14.963
22798W        W87783  15.789   3.163   2.750
22799W        W87784  23.124  36.230   2.161
22800W        W87785  14.137  39.106   1.205
22801W        W87786   2.881  25.182   2.518
22802W        W87787  23.329  30.929  13.954
22803W        W87788  39.504  17.304  11.512
22804W        W87789  13.542  39.918   1.494
22805W        W87790  18.198  20.133   5.195
22806W        W87791  38.089  37.736  14.887
22807W        W87792  44.880  23.661   1.707
22808W        W87793  23.334  38.367   1.752
22809W        W87794   2.772  20.643   0.801
22810W        W87795  13.269  25.497   2.662
22811W        W87796  27.985  25.155   0.314
22812W        W87797  33.904  42.047   2.093
22813W        W87798  19.619  35.839   0.394
22814W        W87799  27.698  27.567  14.810
22815W        W87800  10.812  15.277  14.141
22816W        W87801   4.834  28.514  10.869
22817W        W87802  29.297  38.997   1.911
22818W        W87803  29.164   9.154  12.639
22819W        W87804  21.739  42.658   1.740
22820W        W87805  19.757  25.283  13.775
22821W        W87806  27.125   5.512   2.718
22822W        W87807  16.276  21.364   2.332
22823W        W87808  42.011  15.111  14.334
22824W        W87809  38.670  26.454  12.421
22825W        W87810  24.547  34.791   1.809
22826W        W87811  22.540   6.287  13.027
22827W        W87812  37.629  16.660   3.643
22828W        W87813  41.395   6.880   2.689
22829W        W87814  28.481  28.139   0.125
22830W        W87815   8.283  21.986  13.898
22831W        W87816  15.502  27.777   2.176
22832W        W87817  11.115  17.497   1.398
22833W        W87818  35.397  15.480  11.860
22834W        W87819  38.973   4.300   2.519
22835W        W87820  11.749  26.885  10.639
22836W        W87821   8.811  21.645   2.187
22837W        W87822  24.766  43.558  12.380
22838W        W87823  21.297  18.299  10.488
22839W        W87824  39.880  32.822  12.901
22840W        W87825  36.938  42.151   2.282
22841W        W87826  11.767  30.864  14.011
22842W        W87827  44.819  21.249  12.170
22843W        W87828  31.521  26.140  10.536
22844W        W87829  43.288  31.972   3.896
22845W        W87830  20.085  27.877   1.481
22846W        W87831  44.795  19.536  12.422
22847W        W87832  26.017  13.340   3.388
22848W        W87833  20.516  24.562   2.340
22849W        W87834   0.211  26.684   4.095
22850W        W87835  26.031  12.190  10.790
22851W        W87836   1.478  35.782   3.083
22852W        W87837  23.536  35.305  13.046
22853W        W87838  41.311  34.585   4.549
22854W        W87839  31.310  24.996  12.332
22855W        W87840  18.518  24.553   1.360
22856W        W87841  37.108  21.971   1.386
22857W        W87842  29.673  12.081  14.627
22858W        W87843  10.401  28.100  14.860
22859W        W87844  27.412  10.477   1.394
22860W        W87845   1.891  11.604  12.776
22861W        W87846  25.229  22.574   4.455
22862W        W87847  14.275  20.195  13.500
22863W        W87848   4.612  16.157   0.685
22864W        W87849   4.528  10.282   3.173
22865W        W87850  26.276   7.200   4.214
22866W        W87851  26.497  38.553  13.101
22867W        W87852   0.775   1.804  13.990
22868W        W87853   9.242  37.910   1.950
22869W        W87854   2.382   9.652  12.807
22870W        W87855  29.788   7.833   2.216
22871W        W87856   3.518  40.783   1.724
22872W        W87857  26.437  10.058   3.186
22873W        W87858  19.921  23.715   4.166
22874W        W87859  17.719  19.878   0.559
22875W        W87860   6.850  42.510   3.265
22876W        W87861  24.736  29.353   2.714
22877W        W87862  15.802  26.471   5.463
22878W        W87863  31.561   8.332   2.278
22879W        W87864  39.436  32.598  13.878
22880W        W87865  36.591  32.671   4.065
22881W        W87866  18.289  16.972  11.527
22882W        W87867  35.351   3.320  13.528
22883W        W87868   9.462  13.783  13.318
22884W        W87869  22.816  25.728   3.265
22885W        W87870   3.012   5.262   3.623
22886W        W87871  36.960  12.308  11.176
22887W        W87872  24.060   4.276   3.767
22888W        W87873  42.572  44.900  10.653
22889W        W87874  28.430  26.904   4.782
22890W        W87875  25.301  17.124  13.571
22891W        W87876  31.096  44.879  13.280
22892W        W87877  37.587  30.383  14.364
22893W        W87878  33.806   2.273  12.654
22894W        W87879  34.542  21.032  11.994
22895W        W87880  10.695  15.302  10.635
22896W        W87881  27.852   8.874  14.945
22897W        W87882  38.852  35.059  13.835
22898W        W87883  15.872  20.647  10.710
22899W        W87884   3.385   8.387  12.367
22900W        W87885  42.275  13.469  11.574
22901W        W87886  14.202   8.103  13.505
22902W        W87887  10.776  16.357   4.103
22903W        W87888  34.880  33.679  10.224
22904W        W87889  21.476  28.807   0.330
22905W        W87890   8.882   8.912  14.491
22906W        W87891  32.185  29.571  12.348
22907W        W87892   8.820  11.145  14.370
22908W        W87893  19.617  27.399   0.929
22909W        W87894  26.858  43.540  13.835
22910W        W87895  38.001  27.150   4.095
22911W        W87896  18.358  28.625   1.318
22912W        W87897  41.261  22.252   1.866
22913W        W87898   7.172  28.529   2.234
22914W        W87899  32.180  41.834   1.213
22915W        W87900  33.031  20.129   0.546
22916W        W87901   3.815  24.498  14.980
22917W        W87902  42.968  10.416   0.912
22918W        W87903  14.315  24.913   4.504
22919W        W87904  28.476  35.532   0.678
22920W        W87905   8.209  38.985  11.371
22921W        W87906  21.345  39.401   0.117
22922W        W87907  14.656  44.535  12.579
22923W        W87908   5.728   9.597  14.826
22924W        W87909   2.246  27.195  10.707
22925W        W87910   6.781  27.626  11.259
22926W        W87911   4.725  13.336   3.739
22927W        W87912  32.303   0.073   3.633
22928W        W87913  29.898  30.633   2.906
22929W        W87914   8.404   2.676  12.484
22930W        W87915  13.198  25.523  12.411
22931W        W87916  39.462  26.602   4.920
22932W        W87917  24.375  30.421   4.022
22933W        W87918   3.197  14.210  12.422
22934W        W87919  19.882  10.940  13.390
22935W        W87920  15.296  40.629   0.254
22936W        W87921  25.243  14.604  14.907
22937W        W87922   3.719   6.374  11.574
22938W        W87923  41.821  42.908  13.207
22939W        W87924   1.662   1.855   4.075
22940W        W87925  11.141  34.909   1.188
22941W        W87926  44.869  44.405   3.907
22942W        W87927  36.011  29.421   2.773
22943W        W87928  17.062  20.783  11.682
22944W        W87929  28.517  19.104  12.463
22945W        W87930  17.639   1.710   2.709
22946W        W87931  41.853  32.188  12.428
22947W        W87932  27.384   1.521   1.929
22948W        W87933  30.945  35.741  13.306
22949W        W87934  18.893  31.633  13.633
22950W        W87935   0.830   4.259  14.447
22951W        W87936  28.239  31.929  10.196
22952W        W87937  37.413   2.613  10.581
22953W        W87938   6.929  20.599  14.023
22954W        W87939  42.560  35.801   0.309
22955W        W87940   2.473  12.363  10.721
22956W        W87941  34.562   6.249   0.832
22957W        W87942  21.104  24.583   3.621
22958W        W87943  28.972   0.912   0.704
22959W        W87944  40.073  33.074   0.999
22960W        W87945  44.362  36.923  10.868
22961W        W87946  20.124  31.410  12.975
22962W        W87947  19.396  26.911   3.842
22963W        W87948  17.299  28.528  13.051
22964W        W87949  17.327  13.355  12.819
22965W        W87950  44.700  42.295  13.296
22966W        W87951  39.904   5.319   4.206
22967W        W87952  17.194  18.759  14.517
22968W        W87953  34.823  30.681  10.998
22969W        W87954   6.965  39.577   0.320
22970W        W87955  30.585  30.822  13.852
22971W        W87956  23.414  20.358   3.854
22972W        W87957  25.188  41.915  14.602
22973W        W87958  31.934  29.861  13.913
22974W        W87959  38.531   2.500   1.693
22975W        W87960   3.878   4.915   0.634
22976W        W87961  20.185  21.656  10.665
22977W        W87962  10.906  33.455   2.401
22978W        W87963  11.281  39.906  12.508
22979W        W87964   9.361   1.877   3.200
22980W        W87965   7.538  33.934  14.897
22981W        W87966   5.372  32.332   4.200
22982W        W87967  26.808  26.141   2.851
22983W        W87968  38.242  21.509   3.070
22984W        W87969  30.857  14.546  10.078
22985W        W87970  24.131  20.085  11.282
22986W        W87971   9.749  39.988  14.511
22987W        W87972  29.184  15.673   4.164
22988W        W87973  36.989  29.654  14.995
22989W        W87974   6.630  27.363  11.667
22990W        W87975  23.901  31.270   1.171
22991W        W87976   3.712   5.446   5.584
22992W        W87977  11.263   2.892  10.657
22993W        W87978   7.976  25.130   1.446
22994W        W87979   6.584  37.399   1.267
22995W        W87980   5.809  10.363   0.446
22996W        W87981  10.941  42.583   3.146
22997W        W87982  26.508  42.513   0.495
22998W        W87983  16.140  31.138  11.138
22999W        W87984  26.233   0.811   1.056
23000W        W87985  21.525   3.317   4.159
23001W        W87986  31.698  13.683  14.242
23002W        W87987   2.642   2.298   1.945
23003W        W87988   0.395  37.911  11.256
23004W        W87989  27.187  36.291   0.850
23005W        W87990  40.138  43.284  11.185
23006W        W87991   6.831  23.053   1.933
23007W        W87992  23.529  17.555  12.153
23008W        W87993  23.562  10.919  11.973
23009W        W87994  42.519   5.771   3.144
23010W        W87995  40.668  44.496   1.078
23011W        W87996  42.404  23.529   4.088
23012W        W87997   1.708  27.663   1.867
23013W        W87998  19.186  17.712  12.509
23014W        W87999  33.939  42.399  11.254
23015W        W88000  16.705  34.684  11.504
23016W        W88001  27.902  28.448  11.996
23017W        W88002   2.225   1.277  14.619
23018W        W88003   6.397  22.832   0.313
23019W        W88004  21.012  19.473  14.009
23020W        W88005  31.042   1.661   2.091
23021W        W88006  22.661  11.976   1.432
23022W        W88007   7.872  23.491  12.441
23023W        W88008  42.885  37.254  14.655
23024W        W88009  30.651  10.112  12.169
23025W        W88010  21.873  34.108  11.563
23026W        W88011  26.624  26.025   0.447
23027W        W88012   7.670  34.384  14.511
23028W        W88013  25.491  19.823   1.368
23029W        W88014  16.710   2.579   3.827
23030W        W88015  20.586   2.914  13.952
23031W        W88016  29.978  35.671  14.758
23032W        W88017  41.604  41.673  14.670
23033W        W88018   1.856   0.260   4.145
23034W        W88019  40.832  31.568   5.061
23035W        W88020  18.473   7.818  12.993
23036W        W88021  27.060  12.435  12.563
23037W        W88022  34.939  13.739   1.902
23038W        W88023  17.871  39.362   0.395
23039W        W88024  30.630  40.329   5.019
23040W        W88025  37.290  38.484  11.488
23041W        W88026  24.758   5.179  11.195
23042W        W88027  17.131  13.748  12.462
23043W        W88028   0.346  18.372  10.828
23044W        W88029  15.693  34.067   3.828
23045W        W88030  32.928  33.061   0.570
23046W        W88031   0.669   6.526   2.010
23047W        W88032  33.833   5.961  13.353
23048W        W88033  30.972  32.601   3.234
23049W        W88034  33.605  15.789  11.998
23050W        W88035  13.236   8.207  12.077
23051W        W88036  44.829  43.489   1.362
23052W        W88037  40.346  20.224  12.935
23053W        W88038  30.133  25.754   1.238
23054W        W88039  43.100  13.702   3.381
23055W        W88040  34.336  14.092  12.885
23056W        W88041  36.537  26.170   1.809
23057W        W88042  24.708  18.308  12.488
23058W        W88043  13.573  15.006   4.165
23059W        W88044   5.031  43.973   2.135
23060W        W88045  38.597   8.334  13.844
23061W        W88046  41.800  12.730   2.151
23062W        W88047   4.745   4.415   0.740
23063W        W88048  34.477  28.782  10.616
23064W        W88049  39.671  30.845  11.903
23065W        W88050  22.227  29.184  11.035
23066W        W88051  42.842  31.508   0.791
23067W        W88052  22.966   8.725   1.778
23068W        W88053  44.183  14.056   0.329
23069W        W88054  36.870  25.267  10.962
23070W        W88055   1.329  34.236  11.737
23071W        W88056  26.885  44.726  11.587
23072W        W88057  12.088   5.698   4.576
23073W        W88058  29.651  12.574   4.808
23074W        W88059  22.262  42.045  12.851
23075W        W88060   1.248  36.883  11.033
23076W        W88061  35.995   0.016  14.837
23077W        W88062  20.700  28.176   1.356
23078W        W88063  30.644   4.723   0.746
23079W        W88064  20.550   9.601   3.057
23080W        W88065   9.157  23.283   1.277
23081W        W88066  29.644  29.933   4.975
23082W        W88067  24.860  44.962  12.879
23083W        W88068  15.685  43.547  14.575
23084W        W88069  27.336  24.274   3.282
23085W        W88070  28.717   4.815   2.315
23086W        W88071  15.690  13.728   1.279
23087W        W88072  29.655  26.626   2.719
23088W        W88073  36.565   7.582   3.645
23089W        W88074   7.036  34.559  13.789
23090W        W88075  43.830  16.563  12.411
23091W        W88076   5.462  37.417   0.478
23092W        W88077  36.337   6.973  14.241
23093W        W88078  39.847  15.491   2.746
23094W        W88079  28.796   3.451   0.300
23095W        W88080  35.914  31.567  14.807
23096W        W88081   9.525  37.011  13.187
23097W        W88082  31.855  33.285   0.759
23098W        W88083   9.428   4.001  12.046
23099W        W88084  38.015  10.084   1.965
23100W        W88085  36.386  33.067  10.514
23101W        W88086   4.941  27.219  14.302
23102W        W88087  13.077  38.053  11.148
23103W        W88088  14.365   7.669  12.117
23104W        W88089  20.506  23.036  12.107
23105W        W88090   7.826  18.329  14.363
23106W        W88091  38.382  19.467  10.863
23107W        W88092   0.506  26.870   4.948
23108W        W88093   6.902   9.697  10.227
23109W        W88094  44.996   6.692  11.185
23110W        W88095  38.619  40.904  13.843
23111W        W88096  23.147   1.480  13.534
23112W        W88097   3.878  16.635   4.704
23113W        W88098  10.187  17.177  13.970
23114W        W88099   6.495  17.430   4.109
23115W        W88100  27.687  21.510  12.917
23116W        W88101  39.074  24.812  13.050
23117W        W88102  30.902   2.051  11.748
23118W        W88103  20.630  22.366  11.531
23119W        W88104  28.176   5.840  14.923
23120W        W88105  14.848   0.428   0.478
23121W        W88106  34.777  27.919  12.956
23122W        W88107  26.926  22.628   3.086
23123W        W88108  28.640  42.952   4.221
23124W        W88109  20.818  42.122  12.011
23125W        W88110  12.922  38.514   1.424
23126W        W88111  17.890  26.666  10.542
23127W        W88112  26.412   6.756   4.430
23128W        W88113  40.080  28.842   9.699
23129W        W88114   0.375  33.006  13.592
23130W        W88115  19.077   9.641  13.436
23131W        W88116  14.714  13.081   3.078
23132W        W88117  38.789  27.363  14.441
23133W        W88118  36.361  33.001  12.019
23134W        W88119   1.972  15.669  12.962
23135W        W88120  22.076   8.280   1.494
23136W        W88121  43.842  42.012   2.759
23137W        W88122   8.876  11.320  12.066
23138W        W88123  35.931  37.556   1.755
23139W        W88124  11.548  38.361   0.947
23140W        W88125  33.908   8.807   2.816
23141W        W88126  17.683   4.662  14.464
23142W        W88127  10.674  44.379   3.676
23143W        W88128  43.799  10.601  14.326
23144W        W88129   1.780  32.175   0.017
23145W        W88130  40.929  20.805   1.052
23146W        W88131   0.422   0.515  14.766
23147W        W88132  26.557  13.692  11.617
23148W        W88133  39.385  28.118  14.445
23149W        W88134  41.620  43.082   2.318
23150W        W88135  24.944  13.276  14.893
23151W        W88136  32.026  21.824  12.110
23152W        W88137  22.171  40.574  14.018
23153W        W88138  28.987  28.566  10.865
23154W        W88139  23.980  10.663   3.152
23155W        W88140  27.192  13.373  12.328
23156W        W88141  22.844  38.505   0.923
23157W        W88142  11.636  41.404  10.717
23158W        W88143  18.161  40.415  11.525
23159W        W88144  16.464   2.900   4.160
23160W        W88145  17.620   9.315  11.697
23161W        W88146  26.564  36.958   4.541
23162W        W88147  21.406  25.556  14.077
23163W        W88148  10.080  10.332   2.275
23164W        W88149  31.208  21.996   0.669
23165W        W88150   2.505  26.554  14.293
23166W        W88151  28.910  17.653  13.110
23167W        W88152  16.149  23.338   2.737
23168W        W88153   9.635  24.954  11.172
23169W        W88154   8.650  10.973  11.060
23170W        W88155   0.490  13.725   0.390
23171W        W88156  19.645   6.954  14.015
23172W        W88157  42.482  39.300   4.588
23173W        W88158   5.231  28.861  14.816
23174W        W88159  43.091  37.044   4.331
23175W        W88160  39.022   4.017  11.473
23176W        W88161   9.792  25.460   2.264
23177W        W88162  17.836  26.679   4.933
23178W        W88163   9.532  25.452  11.244
23179W        W88164   5.880  34.883  13.240
23180W        W88165   7.108  12.068  13.987
23181W        W88166  40.977  44.254   2.331
23182W        W88167  36.241  16.435   3.444
23183W        W88168  25.661   1.542   2.268
23184W        W88169   3.237  39.099  10.964
23185W        W88170  36.487  43.760  11.952
23186W        W88171   8.151  18.785   1.447
23187W        W88172  36.400  39.349   2.943
23188W        W88173  12.177  32.368   1.454
23189W        W88174  40.721   7.555  12.974
23190W        W88175  42.661  18.355  14.802
23191W        W88176  14.350  17.825   0.173
23192W        W88177  40.104   5.577  11.680
23193W        W88178  12.725  42.657   2.719
23194W        W88179   9.223  30.954  14.348
23195W        W88180  28.361  18.214   3.076
23196W        W88181   9.988  15.604  10.147
23197W        W88182  43.235  37.886   1.380
23198W        W88183   3.944   7.331   3.798
23199W        W88184  26.649  10.219   2.738
23200W        W88185   8.950  20.507   0.370
23201W        W88186  13.837  32.181  11.126
23202W        W88187  25.163  43.931  11.667
23203W        W88188  23.521  17.679   9.556
23204W        W88189  11.916  34.667  14.336
23205W        W88190  34.617   1.007   0.314
23206W        W88191  16.641  29.338   1.669
23207W        W88192  15.725  28.309   0.675
23208W        W88193   6.791   7.207   3.232
23209W        W88194   0.228  28.370   0.751
23210W        W88195  10.885  30.922  13.762
23211W        W88196  43.950  24.235   3.836
23212W        W88197   5.975  42.732   0.187
23213W        W88198  31.854  30.555   1.835
23214W        W88199  28.177  28.042   3.412
23215W        W88200  28.097  31.028  12.639
23216W        W88201   8.195  30.385  13.000
23217W        W88202  36.613  16.101   1.261
23218W        W88203  17.796  31.948   1.744
23219W        W88204   8.748  39.595   0.840
23220W        W88205  33.025  34.260   2.182
23221W        W88206  29.749  11.588   4.920
23222W        W88207  33.852  30.906  12.118
23223W        W88208  43.034  36.061  11.746
23224W        W88209  32.351  11.504   1.627
23225W        W88210  18.977  31.899  14.507
23226W        W88211  24.638  29.126   3.201
23227W        W88212  43.366  26.519  12.981
23228W        W88213  39.877  33.694   2.426
23229W        W88214  15.102  20.358  11.100
23230W        W88215  32.816  37.400  13.575
23231W        W88216  16.744  31.894  11.983
23232W        W88217  44.995  38.168  12.586
23233W        W88218  37.084   0.536   1.447
23234W        W88219  30.190  17.893  11.575
23235W        W88220  10.690  39.277  13.951
23236W        W88221   5.826  10.753  13.974
23237W        W88222   8.859  30.113  14.361
23238W        W88223  19.515  21.083   1.717
23239W        W88224  23.425  39.535   3.593
23240W        W88225  18.103   3.372  10.793
23241W        W88226  16.594  32.452  13.990
23242W        W88227  15.828  36.341   1.725
23243W        W88228   1.548   9.676   0.503
23244W        W88229   5.347   4.858   1.186
23245W        W88230  36.572  37.107  11.026
23246W        W88231  29.979  11.153  11.908
23247W        W88232  35.354   4.185  14.504
23248W        W88233  25.699   4.381   2.301
23249W        W88234  14.823  40.485  11.596
23250W        W88235  21.279  29.481   1.919
23251W        W88236  44.484   8.707  11.529
23252W        W88237  17.921  15.104   4.702
23253W        W88238  17.782  42.863   2.098
23254W        W88239  41.547  10.105   4.277
23255W        W88240  41.850  33.560  12.432
23256W        W88241   4.245  13.804  13.923
23257W        W88242  25.672  26.280   1.395
23258W        W88243   9.017  14.335   5.027
23259W        W88244  27.614  35.290   0.322
23260W        W88245  41.360   9.430  14.300
23261W        W88246  37.116  14.096   2.416
23262W        W88247  36.856  39.041  13.401
23263W        W88248  32.638  27.546   2.355
23264W        W88249  21.067  41.610   2.649
23265W        W88250  37.124  28.771  11.589
23266W        W88251  37.213  18.057   3.330
23267W        W88252  35.256  10.138  13.304
23268W        W88253  38.134  36.295   1.223
23269W        W88254  29.403   5.482  14.115
23270W        W88255  20.545  26.903   4.119
23271W        W88256  31.655  41.021   1.667
23272W        W88257   7.946  32.989  11.470
23273W        W88258  14.358  17.923  12.994
23274W        W88259  41.066  19.280   2.848
23275W        W88260  27.508  16.773   4.573
23276W        W88261  34.613  28.390  12.914
23277W        W88262  42.176   0.209  10.569
23278W        W88263   4.179  36.303  12.793
23279W        W88264  19.237   4.675   2.896
23280W        W88265   9.064  36.868  13.895
23281W        W88266  44.278  34.889   1.258
23282W        W88267  39.340  27.423   2.278
23283W        W88268  10.949   2.784  11.504
23284W        W88269  21.389  40.293  10.155
23285W        W88270  29.838  36.585  14.517
23286W        W88271  12.078  10.565   4.560
23287W        W88272  42.934  27.140   2.726
23288W        W88273  27.957  37.070  13.408
23289W        W88274  43.901  12.725   3.625
23290W        W88275  24.031  30.242  12.023
23291W        W88276   8.165  26.629   3.703
23292W        W88277  33.623  19.686   3.039
23293W        W88278  42.893   1.679   0.126
23294W        W88279  20.574  27.920  13.600
23295W        W88280  40.752   2.593  13.988
23296W        W88281   1.531  28.993  13.687
23297W        W88282  37.369   8.151  12.100
23298W        W88283  16.738  23.967   0.373
23299W        W88284  39.018  36.618   1.185
23300W        W88285  41.448   1.443  12.496
23301W        W88286  34.977  19.960  14.524
23302W        W88287  19.744   3.453  11.124
23303W        W88288  12.475  34.806   2.249
23304W        W88289   8.822  20.267  13.755
23305W        W88290  38.126  31.548  14.792
23306W        W88291  43.153   4.093  14.775
23307W        W88292  32.838   1.287  12.425
23308W        W88293   1.910  41.813   4.298
23309W        W88294  12.591  40.404   4.369
23310W        W88295  18.970  28.130  14.498
23311W        W88296   1.488  17.494   3.183
23312W        W88297  11.863  40.749  12.549
23313W        W88298  35.640   0.756  13.370
23314W        W88299  33.221  32.766  14.862
23315W        W88300  40.378  27.666  13.630
23316W        W88301  21.206  25.170   1.276
23317W        W88302  42.976  15.135   4.062
23318W        W88303  21.336  41.676  10.407
23319W        W88304  20.046  44.391   1.215
23320W        W88305  34.179  26.471   1.328
23321W        W88306  41.597  39.532  13.067
23322W        W88307  29.728   6.819   2.721
23323W        W88308  38.393  29.145   4.540
23324W        W88309  38.372  35.234  12.805
23325W        W88310  12.507  17.628   4.167
23326W        W88311  22.522  25.154  12.018
23327W        W88312  30.957   6.148  14.227
23328W        W88313  36.987  24.570  14.776
23329W        W88314   2.435  27.481  12.417
23330W        W88315  16.242  41.431   1.921
23331W        W88316  16.151  26.464   1.284
23332W        W88317  32.828  20.392  14.324
23333W        W88318  12.863  21.072   0.811
23334W        W88319  23.099  34.361  11.021
23335W        W88320  31.799  19.355   4.317
23336W        W88321  23.012  39.795  14.911
23337W        W88322  13.423  36.534  12.120
23338W        W88323  13.183  18.495   0.808
23339W        W88324  11.442   1.935   5.130
23340W        W88325  11.128  10.578   4.559
23341W        W88326  20.551  19.807   0.999
23342W        W88327  39.012   9.336   1.074
23343W        W88328  27.189  28.738  10.725
23344W        W88329  28.193  40.393  10.679
23345W        W88330   4.917  38.082  12.004
23346W        W88331  43.380  37.286  14.446
23347W        W88332  29.500   0.821   2.497
23348W        W88333  19.839   5.392   3.061
23349W        W88334   1.787  43.916   1.885
23350W        W88335  27.096  40.278   3.767
23351W        W88336   8.295   5.499  13.947
23352W        W88337  35.143   1.261  14.671
23353W        W88338  23.894   1.185   5.524
23354W        W88339  33.607  20.668   4.283
23355W        W88340  23.308  10.168   2.725
23356W        W88341  11.712  13.286   4.475
23357W        W88342  13.238  37.905  13.676
23358W        W88343  18.731  16.647   3.178
23359W        W88344  28.517  22.055  12.989
23360W        W88345  19.027  44.840   3.485
23361W        W88346  31.435   5.857   3.300
23362W        W88347  12.888   8.861   0.789
23363W        W88348  20.216  44.293   4.608
23364W        W88349  27.821  25.295   1.046
23365W        W88350  33.476  20.598  12.493
23366W        W88351  19.810  19.497   1.449
23367W        W88352  20.564  28.995  11.832
23368W        W88353   8.343   5.416   3.182
23369W        W88354  20.212   1.307   4.153
23370W        W88355  39.740  10.323  12.505
23371W        W88356  21.533  42.340  14.033
23372W        W88357  10.290  29.921   3.575
23373W        W88358  18.268  11.343  11.123
23374W        W88359  44.019   3.335  13.044
23375W        W88360  22.630   5.292   3.243
23376W        W88361  25.546  33.161   3.880
23377W        W88362  13.717  13.665   4.386
23378W        W88363   0.692   2.846  13.774
23379W        W88364   6.368   7.465   2.646
23380W        W88365  30.229  13.854  14.518
23381W        W88366  35.371  43.573   1.302
23382W        W88367  32.966  33.932  14.007
23383W        W88368  15.846   7.907   2.477
23384W        W88369   3.653  28.955   0.684
23385W        W88370  20.708  20.269  14.923
23386W        W88371  22.748  17.524   1.350
23387W        W88372  29.321   1.482   3.800
23388W        W88373  26.963  18.724   0.740
23389W        W88374  18.756  16.030  13.518
23390W        W88375  17.067  18.888  12.944
23391W        W88376  13.766  16.044  11.515
23392W        W88377   5.675  31.560   4.749
23393W        W88378  44.835   9.791   1.849
23394W        W88379   3.412  34.293   1.500
23395W        W88380  36.344   8.161  11.574
23396W        W88381  42.938  29.907  14.552
23397W        W88382  30.503  20.727   3.270
23398W        W88383  36.261  40.344   3.751
23399W        W88384  34.145   3.796   0.438
23400W        W88385  41.368  15.822   2.776
23401W        W88386  14.137  43.834  11.559
23402W        W88387  18.616  28.216  11.062
23403W        W88388  40.317  16.242   1.711
23404W        W88389  21.719  24.672   4.922
23405W        W88390  37.835  16.044  14.854
23406W        W88391  12.395   9.723   2.890
23407W        W88392   4.441  28.603   4.926
23408W        W88393  13.241  37.737  13.173
23409W        W88394  22.030  22.204   4.092
23410W        W88395   9.337  19.780   0.366
23411W        W88396  43.781  18.319  12.092
23412W        W88397  41.499  39.816   1.334
23413W        W88398   7.339  23.468  11.263
23414W        W88399  37.373  44.768  13.422
23415W        W88400  16.519  42.006  13.356
23416W        W88401   5.274  39.448  13.726
23417W        W88402   5.340  23.375   3.440
23418W        W88403  43.795  18.177   2.304
23419W        W88404  38.621  40.575   0.575
23420W        W88405  26.670   3.723  12.396
23421W        W88406  41.817  18.167   1.113
23422W        W88407  30.926  20.005  13.093
23423W        W88408  35.093  11.387  11.955
23424W        W88409  24.770  31.805  10.756
23425W        W88410  23.645  36.555  13.365
23426W        W88411  15.660  19.601   0.782
23427W        W88412  34.492  38.901   2.741
23428W        W88413  42.439  20.663  13.587
23429W        W88414  24.166  19.842   0.767
23430W        W88415  21.744  29.043  13.568
23431W        W88416  28.197  16.043   0.358
23432W        W88417  22.420   6.363  12.536
23433W        W88418  11.937  31.672  12.459
23434W        W88419  44.850  14.154  12.061
23435W        W88420  35.708  21.235  12.020
23436W        W88421  10.923  27.556   1.837
23437W        W88422  29.645   1.425   3.296
23438W        W88423  13.715   0.098   0.366
23439W        W88424   8.468  17.637  11.629
23440W        W88425  20.517  23.689  14.889
23441W        W88426  13.659  26.082  11.024
23442W        W88427  41.033   1.572  12.836
23443W        W88428  44.205   6.918   0.478
23444W        W88429  27.542  15.986   1.126
23445W        W88430  14.621  26.583   0.098
23446W        W88431   9.482  21.151  12.847
23447W        W88432  21.060   0.463   1.773
23448W        W88433  31.364  34.507  12.899
23449W        W88434   6.339   1.809  13.926
23450W        W88435  34.134  44.793  10.895
23451W        W88436  38.486   2.329   0.659
23452W        W88437   2.152  32.539  14.988
23453W        W88438  29.238   1.691   2.856
23454W        W88439   5.888  12.649  13.194
23455W        W88440  11.252  39.184   1.872
23456W        W88441   6.626  39.140  10.179
23457W        W88442  22.606   5.655  13.095
23458W        W88443  16.193   7.222   3.075
23459W        W88444  22.244  11.896   4.130
23460W        W88445  18.174  33.108   1.313
23461W        W88446   5.806  32.612   0.765
23462W        W88447   4.443  40.353   2.174
23463W        W88448   4.035  36.950  11.172
23464W        W88449  24.633   1.272   2.237
23465W        W88450  16.236   0.637   9.912
23466W        W88451   4.447   3.071   1.892
23467W        W88452  14.150  28.275   1.867
23468W        W88453  19.316  21.996  13.281
23469W        W88454  11.591   6.395   1.340
23470W        W88455  29.171  24.861   2.168
23471W        W88456  18.745  35.895  11.929
23472W        W88457  23.735  12.132   0.005
23473W        W88458   6.844  32.703  11.162
23474W        W88459  30.702   3.441   0.359
23475W        W88460  44.372  17.819   0.310
23476W        W88461  17.995  11.839   3.354
23477W        W88462  27.609   5.209   1.465
23478W        W88463  19.646  27.152   0.440
23479W        W88464  30.943  14.234  10.636
23480W        W88465   4.790  40.469  13.527
23481W        W88466  29.332  17.364   0.719
23482W        W88467   4.802   9.268  14.385
23483W        W88468  15.108  20.100   1.267
23484W        W88469  44.057   0.904  12.556
23485W        W88470  34.527  25.947  14.296
23486W        W88471  12.236  27.344   4.995
23487W        W88472  13.210  43.446   3.377
23488W        W88473  22.951   7.228  12.489
23489W        W88474  35.103  34.639  12.833
23490W        W88475  26.694  35.805  14.715
23491W        W88476  12.148  22.768   4.169
23492W        W88477   6.370   9.764  10.217
23493W        W88478  15.197  37.002  14.835
23494W        W88479  26.735  40.032  10.649
23495W        W88480  27.293  30.080   1.496
23496W        W88481  29.434  22.617  14.361
23497W        W88482  20.096  43.827   0.071
23498W        W88483  29.182  30.902   0.805
23499W        W88484  44.489   8.094  13.001
23500W        W88485   6.866  38.039  12.925
23501W        W88486  41.621  10.400   2.724
23502W        W88487   1.252  12.760   1.933
23503W        W88488  30.638  33.453   3.479
23504W        W88489  27.724   2.264  12.502
23505W        W88490  33.328   9.153   1.113
23506W        W88491  40.535  12.720  13.137
23507W        W88492  29.886   7.384   1.294
23508W        W88493  35.026  25.492   3.712
23509W        W88494  16.314   6.274  13.005
23510W        W88495  41.418   8.636  11.478
23511W        W88496  13.183  40.443   1.343
23512W        W88497  36.643  43.267  11.887
23513W        W88498   5.737  27.079  12.537
23514W        W88499  36.514  41.915   0.801
23515W        W88500  13.399  33.104   1.291
23516W        W88501  34.903  36.178   3.200
23517W        W88502   4.736   4.735   3.005
23518W        W88503  43.800   9.157   1.009
23519W        W88504  28.673  23.793  14.399
23520W        W88505   4.529  43.267  14.725
23521W        W88506   2.723  11.305  12.521
23522W        W88507  42.527  24.782   0.885
23523W        W88508  28.499  30.054   1.660
23524W        W88509  26.248   1.876   1.421
23525W        W88510  24.062  30.589  12.802
23526W        W88511  26.387  31.483   2.687
23527W        W88512  21.353  20.552  11.979
23528W        W88513   0.854  20.284  14.808
23529W        W88514  44.890  33.065  13.800
23530W        W88515  33.771  30.070  13.011
23531W        W88516  39.392   6.384   2.219
23532W        W88517  42.923  20.764  12.857
23533W        W88518  31.373  44.148   4.723
23534W        W88519  38.488  40.300   4.865
23535W        W88520  36.773  28.061   3.272
23536W        W88521   3.970  23.692   0.230
23537W        W88522  23.746  43.887   4.042
23538W        W88523  40.551  44.733   1.522
23539W        W88524  22.593  22.273   4.099
23540W        W88525  28.573   9.331   1.612
23541W        W88526  17.536  19.202   2.631
23542W        W88527  34.814  42.280  11.670
23543W        W88528  32.579  32.605  14.234
23544W        W88529  28.504  10.686   1.183
23545W        W88530  21.169  25.975  10.647
23546W        W88531   5.973  34.419   3.038
23547W        W88532  13.491  34.242   3.772
23548W        W88533  18.031  14.292  12.927
23549W        W88534  43.927   3.759   1.151
23550W        W88535  31.850  39.985  12.873
23551W        W88536  12.749  14.160  12.346
23552W        W88537   5.134  36.572   3.368
23553W        W88538  26.037  19.118  14.986
23554W        W88539  27.677  18.775   1.337
23555W        W88540  37.110  14.938   0.336
23556W        W88541  32.900  14.087   1.757
23557W        W88542  31.471  30.324  12.059
23558W        W88543  35.593  20.195  14.625
23559W        W88544  28.082  14.129   3.670
23560W        W88545  35.329  25.447   1.801
23561W        W88546  38.973  10.301  12.996
23562W        W88547  41.780  36.515  14.094
23563W        W88548  17.388  38.816   3.289
23564W        W88549   4.039   1.826  13.089
23565W        W88550   7.752  42.540  13.447
23566W        W88551  30.080  31.533  12.494
23567W        W88552  35.355  30.089   2.971
23568W        W88553  23.507  16.539   2.746
23569W        W88554  26.077  38.770   4.592
23570W        W88555   7.830  17.495   3.834
23571W        W88556  18.176  12.291  13.012
23572W        W88557  15.401  31.066   1.801
23573W        W88558  22.117  26.673   3.722
23574W        W88559  26.864  24.400   4.092
23575W        W88560  29.212  22.623   0.770
23576W        W88561  38.411   8.498   1.181
23577W        W88562  29.525  36.184   4.151
23578W        W88563  14.590  41.805   2.238
23579W        W88564  34.352  16.023   1.898
23580W        W88565  35.180  27.906   5.091
23581W        W88566  41.764  16.718  11.142
23582W        W88567  27.931   1.757   2.301
23583W        W88568  44.509  22.946   0.716
23584W        W88569   0.800  22.843   2.413
23585W        W88570  20.763  13.781  12.952
23586W        W88571   2.578  43.769   4.835
23587W        W88572  35.082  19.134   3.898
23588W        W88573  41.761  33.109   2.853
23589W        W88574  36.033   2.743   4.573
23590W        W88575  15.774  15.131  11.182
23591W        W88576   2.233  23.176   0.500
23592W        W88577   9.784  16.665   2.498
23593W        W88578  25.443   0.269   0.319
23594W        W88579  31.649   1.317  13.053
23595W        W88580  41.867  16.203   3.512
23596W        W88581   3.750  10.309   4.206
23597W        W88582   6.948   6.429   0.460
23598W        W88583  17.115  35.998   3.999
23599W        W88584  22.110  21.962   0.370
23600W        W88585  24.057  37.807  13.289
23601W        W88586  29.659   4.251   1.758
23602W        W88587  18.780  26.133  14.481
23603W        W88588  16.732  14.750   0.740
23604W        W88589  27.771  38.371   4.896
23605W        W88590  40.236  18.305  14.855
23606W        W88591  22.143  28.621  12.437
23607W        W88592  20.289  33.627  10.297
23608W        W88593  44.580  29.244   4.989
23609W        W88594  36.427  29.206   2.116
23610W        W88595  35.512  11.022   4.520
23611W        W88596  37.274  41.509   3.710
23612W        W88597  37.933  37.816   3.539
23613W        W88598  14.667  20.740  13.987
23614W        W88599   9.438  29.539   3.712
23615W        W88600   9.696   4.317   3.053
23616W        W88601  16.281   7.198  13.059
23617W        W88602  22.892  25.520  11.924
23618W        W88603  35.877  36.249   0.430
23619W        W88604  21.751  12.352  13.538
23620W        W88605   9.195  21.612  14.086
23621W        W88606  31.452  36.834  10.659
23622W        W88607  13.622  24.523  13.332
23623W        W88608  21.310  38.138  12.407
23624W        W88609  12.122  32.376   3.929
23625W        W88610  26.820  27.052  12.606
23626W        W88611  23.146  25.871  12.886
23627W        W88612  29.611  10.357  12.855
23628W        W88613   9.868  25.863  12.083
23629W        W88614   0.408   3.453  12.965
23630W        W88615  42.154   9.153   0.185
23631W        W88616  38.939  36.715   4.694
23632W        W88617  36.431  41.987   2.271
23633W        W88618  13.865   2.075  13.523
23634W        W88619  31.570  39.661  11.920
23635W        W88620  19.854  32.904   2.643
23636W        W88621  32.044  31.939  13.943
23637W        W88622   8.656  15.192  13.757
23638W        W88623  27.355  15.225  14.042
23639W        W88624   2.423   0.896  13.739
23640W        W88625  37.737   0.833   1.800
23641W        W88626   5.243   6.898  11.093
23642W        W88627  42.978  44.544   0.305
23643W        W88628  16.775  38.107  13.010
23644W        W88629  24.677  27.165   4.404
23645W        W88630  31.038   7.317   1.451
23646W        W88631  42.294   1.265   2.170
23647W        W88632  13.324   1.645   1.735
23648W        W88633  31.935  27.524  12.547
23649W        W88634  33.987  33.412  12.603
23650W        W88635   9.284  35.456   2.193
23651W        W88636  43.237  12.078  14.899
23652W        W88637  26.724  39.486  14.865
23653W        W88638   6.755  12.777  12.410
23654W        W88639  32.614   8.953   1.224
23655W        W88640  41.012   7.211   2.868
23656W        W88641  34.772  31.222  14.037
23657W        W88642  30.569  33.970   1.214
23658W        W88643  10.930  32.099  14.877
23659W        W88644  40.558   0.257  12.690
23660W        W88645   9.460  24.748   0.174
23661W        W88646   8.239  23.806   0.840
23662W        W88647  39.384  12.632  14.322
23663W        W88648  41.291   3.698  13.614
23664W        W88649  19.819  32.025   1.792
23665W        W88650   6.278  14.574  13.826
23666W        W88651  25.485  17.572   3.254
23667W        W88652  43.835   8.630   0.876
23668W        W88653  34.592  43.478   1.756
23669W        W88654  32.663  13.222   3.189
23670W        W88655  23.695  42.482   2.241
23671W        W88656   3.719  20.742  12.460
23672W        W88657   5.760  39.812   1.776
23673W        W88658   1.717  35.331   3.251
23674W        W88659  25.288  15.569  10.962
23675W        W88660   4.253  30.830  14.020
23676W        W88661  25.510  12.016  10.635
23677W        W88662   1.915  20.672  10.653
23678W        W88663  14.259   4.157   1.973
23679W        W88664  35.328  13.621  10.969
23680W        W88665  32.543  43.012   4.778
23681W        W88666   9.624   0.731   3.681
23682W        W88667  40.964   3.906   0.360
23683W        W88668   6.000   0.560   4.506
23684W        W88669  34.371   1.985   4.166
23685W        W88670   8.905  38.029  12.240
23686W        W88671  22.926   6.301   2.477
23687W        W88672  28.838   4.503   1.449
23688W        W88673  11.859   4.787  12.118
23689W        W88674  40.310  41.064  11.523
23690W        W88675  24.223  21.574   4.743
23691W        W88676   0.901  41.435   9.736
23692W        W88677  23.008  27.134  12.648
23693W        W88678  11.245  17.056   2.878
23694W        W88679  12.582   5.988   3.696
23695W        W88680  12.893   0.409   3.459
23696W        W88681  33.213  12.816  14.455
23697W        W88682  21.722   1.346  14.794
23698W        W88683  39.559   3.831  12.472
23699W        W88684   3.913  16.524  11.210
23700W        W88685  10.833  29.923   4.466
23701W        W88686   0.878  26.416  12.348
23702W        W88687  29.546   6.363   2.919
23703W        W88688  24.966  34.900  12.538
23704W        W88689  28.930   1.710  12.551
23705W        W88690  36.338  44.838   4.008
23706W        W88691   0.373  13.179  13.463
23707W        W88692  29.231   2.446   2.307
23708W        W88693  18.645   8.431  13.826
23709W        W88694  31.488   4.445  11.001
23710W        W88695  19.714   9.386  14.365
23711W        W88696  36.853  30.427   1.718
23712W        W88697  34.717   5.719   1.678
23713W        W88698  20.074  28.122  14.505
23714W        W88699   8.687  29.840   0.808
23715W        W88700   2.345  15.315   3.713
23716W        W88701  13.999  12.405   1.049
23717W        W88702  11.347   1.573  11.908
23718W        W88703  15.568  31.614   2.872
23719W        W88704  30.168  16.666   4.207
23720W        W88705  32.279  25.456  14.838
23721W        W88706  37.453   7.770   0.878
23722W        W88707   0.338  19.317  11.226
23723W        W88708  15.775  24.614  12.823
23724W        W88709   3.476  10.257   2.844
23725W        W88710  18.778   1.838   0.298
23726W        W88711  33.411  23.218  14.516
23727W        W88712   8.812   3.857   2.169
23728W        W88713  23.375   6.936  12.439
23729W        W88714  19.458  21.484   4.263
23730W        W88715  35.351  10.655   2.391
23731W        W88716   0.764  31.999   2.735
23732W        W88717   6.387  28.195   1.216
23733W        W88718  41.465  22.208  14.827
23734W        W88719   9.323   7.035  11.633
23735W        W88720  14.882  10.549  10.117
23736W        W88721  41.834  36.666   5.028
23737W        W88722  18.477  38.979   4.666
23738W        W88723  36.789   5.329  10.618
23739W        W88724  29.279  17.270   2.834
23740W        W88725  22.469   3.575  12.896
23741W        W88726  39.867   2.854  14.401
23742W        W88727  37.300  31.925   2.310
23743W        W88728  44.112  26.807  12.011
23744W        W88729  10.354  27.587   4.154
23745W        W88730  18.274  21.754  11.521
23746W        W88731   2.043  30.600  11.350
23747W        W88732  19.221  20.308   1.124
23748W        W88733  38.802  32.628   2.357
23749W        W88734  40.549   2.463  14.767
23750W        W88735  40.347  13.335   0.919
23751W        W88736  10.404   0.973   0.290
23752W        W88737  37.077  13.423  12.527
23753W        W88738  17.099  14.644   3.294
23754W        W88739  42.081  35.579   2.240
23755W        W88740  36.516  33.633   3.211
23756W        W88741  41.921  12.233   0.636
23757W        W88742  44.722  19.042   0.325
23758W        W88743  40.162   0.777   2.841
23759W        W88744  41.267   3.169  10.716
23760W        W88745   0.848  14.635   3.216
23761W        W88746  21.546   4.799  12.226
23762W        W88747  23.107  31.419   2.466
23763W        W88748  37.960  28.690   1.896
23764W        W88749  26.363  31.904  10.239
23765W        W88750   1.732  11.386  11.162
23766W        W88751  28.848  20.026  13.950
23767W        W88752  43.574   1.432  13.910
23768W        W88753   3.346  17.125   5.015
23769W        W88754  39.166  38.647  11.817
23770W        W88755   4.420  14.340   3.297
23771W        W88756  28.683  40.812  11.909
23772W        W88757  25.656  29.561  12.418
23773W        W88758  38.089  26.625   3.226
23774W        W88759   0.136  16.192   1.763
23775W        W88760  19.073   5.756   1.456
23776W        W88761  18.713   9.391  14.080
23777W        W88762  43.969  25.142  13.260
23778W        W88763  12.944   3.657  12.018
23779W        W88764  26.761  27.834   2.256
23780W        W88765  11.866  25.641  14.713
23781W        W88766  15.596  33.061  14.929
23782W        W88767  35.791  38.453  12.561
23783W        W88768  32.086  12.794   0.764
23784W        W88769  34.470  20.254  12.510
23785W        W88770  33.975  17.448  11.562
23786W        W88771  38.323  29.429   1.489
23787W        W88772   6.704  10.728   1.380
23788W        W88773  37.686   0.982  11.104
23789W        W88774  39.966  15.083   1.795
23790W        W88775   3.814  35.175   1.859
23791W        W88776  35.321  41.787  11.601
23792W        W88777   7.934  25.659   2.644
23793W        W88778   8.125  36.026  11.610
23794W        W88779   1.233  41.935   2.241
23795W        W88780  20.099  13.189  14.996
23796W        W88781  30.598  10.867   4.242
23797W        W88782  22.157  31.499  11.698
23798W        W88783   5.356   6.497   2.860
23799W        W88784  33.787  32.820   3.356
23800W        W88785  10.818  13.279   3.583
23801W        W88786  26.646  43.296   3.582
23802W        W88787   0.028  42.234  12.093
23803W        W88788  18.669  24.118  14.675
23804W        W88789  38.040  19.843   0.799
23805W        W88790  28.990   0.430   3.317
23806W        W88791  12.671   3.170   1.419
23807W        W88792   2.537  43.424  13.751
23808W        W88793  23.107  24.160  11.066
23809W        W88794  41.454  33.155   1.276
23810W        W88795  29.935  12.385  14.258
23811W        W88796  37.916  40.377  12.656
23812W        W88797  22.171  41.916  14.843
23813W        W88798  31.907  44.285   1.214
23814W        W88799   3.043  31.847  11.633
23815W        W88800  17.722  30.603  13.396
23816W        W88801  30.107  28.019  13.284
23817W        W88802  36.390  11.973   4.080
23818W        W88803   3.577  44.976   3.196
23819W        W88804  31.496  26.598  10.809
23820W        W88805  44.249  27.508   2.744
23821W        W88806  13.841  21.068   4.194
23822W        W88807  35.082  43.534  11.249
23823W        W88808  37.341   6.322   4.223
23824W        W88809  23.606  32.374  14.373
23825W        W88810  40.378  26.418  13.017
23826W        W88811  36.628   0.960  13.589
23827W        W88812  28.123  24.065   1.709
23828W        W88813  29.107  42.308  11.268
23829W        W88814  26.474  38.528   0.053
23830W        W88815  10.396  27.658   2.705
23831W        W88816  40.523   8.748  11.178
23832W        W88817  38.540  22.340  12.917
23833W        W88818   3.914   5.358   9.764
23834W        W88819  21.613  37.806  14.894
23835W        W88820  10.440  19.713  12.926
23836W        W88821  26.603  37.679   1.785
23837W        W88822  40.414  23.192  11.614
23838W        W88823  27.166  11.333  14.248
23839W        W88824   1.483  40.358  12.445
23840W        W88825  13.274  14.313   5.057
23841W        W88826  30.687  26.670  10.811
23842W        W88827   7.253  18.231  12.015
23843W        W88828  41.197  42.092  11.950
23844W        W88829  36.491   4.732   1.806
23845W        W88830   5.250  26.113   4.372
23846W        W88831  14.303  22.621  10.610
23847W        W88832  29.574  39.789  11.186
23848W        W88833  43.176  34.506   4.143
23849W        W88834  18.315  12.194  11.594
23850W        W88835  21.102  38.797   3.154
23851W        W88836  30.617  24.427   2.141
23852W        W88837  11.676   8.440   1.730
23853W        W88838  33.920  24.074  11.158
23854W        W88839  10.014   7.094   2.683
23855W        W88840  12.938   6.964   0.801
23856W        W88841  44.875  37.871   2.227
23857W        W88842   2.765  14.601  11.156
23858W        W88843  32.986  10.770   2.209
23859W        W88844  10.226   0.306  14.989
23860W        W88845  27.205  32.926   0.688
23861W        W88846  19.412  40.471  13.768
23862W        W88847   6.788  17.140  12.491
23863W        W88848   8.818  30.289   3.814
23864W        W88849  37.129   7.980  11.182
23865W        W88850  43.042  29.122  14.826
23866W        W88851  26.228  37.810  10.922
23867W        W88852  31.911   5.734  11.960
23868W        W88853  14.755   4.437  13.840
23869W        W88854  39.950  20.544   0.865
23870W        W88855   1.949  33.942   1.706
23871W        W88856  27.199  36.931  12.935
23872W        W88857  14.349   7.746   3.590
23873W        W88858  13.686  36.546  11.639
23874W        W88859  39.389  34.635  14.007
23875W        W88860  33.975  18.337   0.378
23876W        W88861  27.805  25.966  11.906
23877W        W88862  18.463  30.709  13.652
23878W        W88863  37.564   5.509   0.274
23879W        W88864  21.702   1.213   3.343
23880W        W88865  39.911  11.860   3.711
23881W        W88866  33.980  14.500  12.539
23882W        W88867  10.831  23.500   0.527
23883W        W88868   4.999  16.538   2.404
23884W        W88869  35.620  26.775  13.406
23885W        W88870  14.895  26.214   3.627
23886W        W88871  19.982  42.433   0.272
23887W        W88872   7.311  40.375   0.384
23888W        W88873  35.043   1.655  12.442
23889W        W88874  44.241  21.288   1.281
23890W        W88875  20.949  22.790   2.531
23891W        W88876  43.043   7.374  13.609
23892W        W88877  24.899  24.135   1.969
23893W        W88878   2.110   3.197  10.025
23894W        W88879  26.030  23.848   2.220
23895W        W88880  29.957  15.839  11.345
23896W        W88881  15.315  39.132  12.934
23897W        W88882  34.525  24.450   1.042
23898W        W88883  39.935   6.152  14.673
23899W        W88884  15.906   2.064  12.051
23900W        W88885  27.619  27.627  12.865
23901W        W88886  10.484  25.663   1.709
23902W        W88887  23.165   4.242   1.620
23903W        W88888  33.318  10.097  13.323
23904W        W88889  22.976  28.205  14.951
23905W        W88890   9.682  26.616   3.409
23906W        W88891  32.267  10.453  14.386
23907W        W88892   9.369  12.363   0.333
23908W        W88893  40.793   6.211  13.784
23909W        W88894  12.122  34.397  13.920
23910W        W88895  15.193  25.454  11.776
23911W        W88896   1.740  13.389  13.432
23912W        W88897  27.638  31.333  10.217
23913W        W88898  37.421   7.958   1.952
23914W        W88899  17.754  40.531  13.532
23915W        W88900  11.363   1.373   4.243
23916W        W88901  33.581  31.114   1.869
23917W        W88902   7.307   4.753   5.437
23918W        W88903   4.484   8.457  14.513
23919W        W88904  41.291  36.002  10.044
23920W        W88905  32.572  26.691  12.590
23921W        W88906   7.579  32.309   2.269
23922W        W88907  27.522  16.365   4.913
23923W        W88908   3.209  34.622   3.392
23924W        W88909  30.848   1.397   0.300
23925W        W88910  21.102  24.271   4.552
23926W        W88911   3.191   9.455  13.449
23927W        W88912  17.744   9.814   3.400
23928W        W88913  28.333   6.932   0.487
23929W        W88914  38.387  29.946   1.463
23930W        W88915  31.182   3.797  13.931
23931W        W88916  32.437  42.491   2.810
23932W        W88917   5.846  30.177   1.530
23933W        W88918  33.123  15.547  12.004
23934W        W88919  21.888  42.316  11.863
23935W        W88920  12.622  30.880  11.677
23936W        W88921   1.151  18.007   0.296
23937W        W88922   7.951  38.325  14.495
23938W        W88923  27.899   7.294  12.406
23939W        W88924  27.570  17.701   3.253
23940W        W88925   1.139  19.678  13.432
23941W        W88926  17.774  42.355   2.468
23942W        W88927  36.380   0.311   3.785
23943W        W88928  15.276  37.991   1.148
23944W        W88929  28.543  38.796   1.321
23945W        W88930  33.048  31.731  11.530
23946W        W88931  28.191  41.828   3.838
23947W        W88932   9.188  40.372   0.004
23948W        W88933   0.125  25.345  14.452
23949W        W88934  25.890  23.815  11.115
23950W        W88935  39.494   6.727   3.158
23951W        W88936  30.108   9.196  10.763
23952W        W88937  44.100  25.527   5.017
23953W        W88938  24.234  32.006   3.716
23954W        W88939  17.111  12.872   3.116
23955W        W88940  38.415  35.392  13.852
23956W        W88941  37.254   0.821   3.684
23957W        W88942  22.109   5.147   2.450
23958W        W88943   3.879  12.517  10.725
23959W        W88944  11.291  29.551   3.849
23960W        W88945  18.665   2.166   4.135
23961W        W88946  39.967   6.435   4.294
23962W        W88947   0.256  29.616  12.169
23963W        W88948  26.101  33.414   0.303
23964W        W88949  43.189  38.992  12.993
23965W        W88950  18.138  17.044  11.048
23966W        W88951  22.725  38.143   3.047
23967W        W88952   9.649   3.245  12.182
23968W        W88953  20.973  22.071  12.244
23969W        W88954  20.112  22.513  14.455
23970W        W88955  37.795  37.106   0.855
23971W        W88956   0.435  18.327   9.742
23972W        W88957  22.571  21.058   4.642
23973W        W88958   9.691  39.808  13.472
23974W        W88959  27.941  23.031   4.193
23975W        W88960  25.542  26.520   1.850
23976W        W88961  28.626  34.548   0.837
23977W        W88962  13.526  16.225   3.781
23978W        W88963  22.096  20.270   3.104
23979W        W88964  10.616  17.233   0.214
23980W        W88965  11.120   2.405   4.322
23981W        W88966  30.095   4.132   0.481
23982W        W88967   7.755  42.074  10.969
23983W        W88968  40.835  13.130   2.225
23984W        W88969  34.896  37.536  12.969
23985W        W88970  17.196   4.325  12.381
23986W        W88971  39.911  44.795   3.145
23987W        W88972  32.096  33.081   3.581
23988W        W88973   1.467  17.717   4.115
23989W        W88974   5.167  33.575  12.839
23990W        W88975   6.712  34.923   4.207
23991W        W88976  35.071  28.679  14.812
23992W        W88977  44.835  32.588   3.916
23993W        W88978  11.258  36.506  12.960
23994W        W88979  24.164  23.643   0.391
23995W        W88980  26.774  22.769  13.143
23996W        W88981  14.252  23.255   1.817
23997W        W88982  10.383  43.009  10.565
23998W        W88983  17.788  40.847  13.965
23999W        W88984  42.080  23.456  11.917
24000W        W88985  41.357  38.803  13.523
24001W        W88986  31.599  41.804  12.941
24002W        W88987   8.712  24.971  14.467
24003W        W88988   8.615   2.419   2.279
24004W        W88989  29.319   8.659  10.881
24005W        W88990  31.075  35.906   3.299
24006W        W88991  33.363  28.924  14.419
24007W        W88992  40.501  40.682   2.262
24008W        W88993   1.908  18.565  14.031
24009W        W88994  33.152  41.332  11.429
24010W        W88995  34.731  36.275   4.908
24011W        W88996  37.777  32.561  11.171
24012W        W88997  20.956  37.286  10.596
24013W        W88998  35.712  40.819  13.906
24014W        W88999  44.068   9.836  11.164
24015W        W89000  23.728  27.682   1.673
24016W        W89001   6.232  41.414   4.642
24017W        W89002  19.983  18.070   2.190
24018W        W89003  32.589  24.997  10.594
24019W        W89004  32.913   2.045  14.566
24020W        W89005  31.079  13.627  12.634
24021W        W89006  39.737  23.996   3.191
24022W        W89007   5.923  38.560   1.181
24023W        W89008  11.745   2.384  14.022
24024W        W89009  23.936  22.508  12.861
24025W        W89010   9.265  42.542  13.481
24026W        W89011   6.422   4.234   0.345
24027W        W89012   5.863  31.953  10.683
24028W        W89013   2.160   5.440   1.535
24029W        W89014  16.146   1.270  14.438
24030W        W89015  23.072  10.059  11.594
24031W        W89016  11.855  17.860  12.508
24032W        W89017  25.213   8.170  11.022
24033W        W89018  21.278  17.269   4.268
24034W        W89019  19.675   2.461   0.867
24035W        W89020  31.352  30.791   0.709
24036W        W89021  17.127   0.694   2.150
24037W        W89022  38.092  16.082   0.945
24038W        W89023  14.799   0.997   3.826
24039W        W89024  44.923   8.430   3.788
24040W        W89025  20.561  20.282   3.246
24041W        W89026  28.563  23.406  11.603
24042W        W89027  19.630  24.948   0.686
24043W        W89028   2.242  15.611   1.537
24044W        W89029  32.556  38.515   4.405
24045W        W89030  38.473  18.530  11.240
24046W        W89031  34.159  20.093   0.051
24047W        W89032  44.089  13.497   2.752
24048W        W89033  25.021  38.619  11.940
24049W        W89034   6.392  35.466   2.173
24050W        W89035  41.913  30.995   3.971
24051W        W89036   8.306  30.600  10.402
24052W        W89037  35.070  25.218  12.111
24053W        W89038  14.728  14.411   3.539
24054W        W89039  10.013  22.244   0.331
24055W        W89040  40.918  11.236   2.874
24056W        W89041   0.941  22.790   4.255
24057W        W89042  10.387  16.863   3.743
24058W        W89043   1.802   2.819   2.243
24059W        W89044  14.774   1.279  14.455
24060W        W89045  11.888  36.515  13.519
24061W        W89046  12.757  19.290   1.882
24062W        W89047  21.144  27.914  10.714
24063W        W89048  31.726  42.275  11.558
24064W        W89049  11.326  17.387   3.269
24065W        W89050  11.245  27.067  10.458
24066W        W89051  20.083  13.813  11.967
24067W        W89052  44.116  35.591  13.007
24068W        W89053   7.208  22.943  11.923
24069W        W89054   3.149  43.452  10.512
24070W        W89055  25.111   5.840  14.652
24071W        W89056   7.918   6.406  14.540
24072W        W89057   0.816  40.540   0.369
24073W        W89058  33.638  25.420   4.511
24074W        W89059  23.998   2.404   0.714
24075W        W89060  38.529  19.294  11.985
24076W        W89061  10.317  22.760  11.184
24077W        W89062  12.113  22.939  14.383
24078W        W89063   3.983  43.492  12.996
24079W        W89064  22.613   5.765  11.294
24080W        W89065  25.196   4.829   0.496
24081W        W89066  26.933   0.739   2.263
24082W        W89067  31.512   6.125  10.491
24083W        W89068   1.777  14.620  13.908
24084W        W89069  34.980  39.746  12.200
24085W        W89070  19.773  28.420   1.812
24086W        W89071  13.785   1.300  12.808
24087W        W89072   1.734   0.243   1.969
24088W        W89073  42.769   5.912  13.830
24089W        W89074  25.258  20.271  14.645
24090W        W89075  11.581  31.685   4.603
24091W        W89076  21.559  38.551   4.641
24092W        W89077  43.006  10.760  11.816
24093W        W89078   1.233   8.688  13.557
24094W        W89079  40.726  21.979   4.638
24095W        W89080  13.336  39.534   0.347
24096W        W89081  19.767   7.222   0.038
24097W        W89082  28.629   6.241   0.811
24098W        W89083  29.943  37.002   2.840
24099W        W89084  19.440   0.361   3.118
24100W        W89085  15.561  39.839   3.511
24101W        W89086  10.723  28.556   1.189
24102W        W89087  43.255  27.149  14.912
24103W        W89088   0.540  32.470   2.778
24104W        W89089  27.110   9.861   3.946
24105W        W89090  16.823   3.555  10.266
24106W        W89091  23.331   4.924   2.327
24107W        W89092  38.406  36.966   1.852
24108W        W89093  34.795  36.932   1.881
24109W        W89094  20.665  21.851  10.681
24110W        W89095  36.451   8.360   0.903
24111W        W89096  25.988  14.172  14.797
24112W        W89097  35.789   2.391  14.536
24113W        W89098   9.729  44.653  12.549
24114W        W89099  28.802   3.399  11.581
24115W        W89100  37.402  32.697   2.233
24116W        W89101  15.904  26.048   3.762
24117W        W89102  34.626   3.521   4.620
24118W        W89103  28.533  18.324   2.314
24119W        W89104  14.073  14.471  11.992
24120W        W89105   3.007  31.437   3.104
24121W        W89106  25.731   4.719   3.586
24122W        W89107  29.695   1.302  11.488
24123W        W89108  21.152  20.303  13.016
24124W        W89109  35.938  28.265   0.450
24125W        W89110  11.155  37.496   0.952
24126W        W89111   2.709  42.566  12.009
24127W        W89112  42.530  29.173   1.037
24128W        W89113  14.857  41.509  13.573
24129W        W89114  39.103   6.576   4.560
24130W        W89115  22.210  41.166  10.602
24131W        W89116  44.520  34.072   0.990
24132W        W89117  28.676   4.410   1.958
24133W        W89118  36.904  18.315   2.390
24134W        W89119  38.879   1.782  13.059
24135W        W89120   5.241  41.858  10.481
24136W        W89121  44.805  23.819   4.169
24137W        W89122   5.227  24.297  11.554
24138W        W89123  10.690  16.658   2.302
24139W        W89124  32.345   7.400   0.129
24140W        W89125  35.895  36.569   1.352
24141W        W89126   5.550  32.103   2.395
24142W        W89127  43.318  11.850   3.634
24143W        W89128  27.952   7.154   1.623
24144W        W89129   9.133  15.366   3.414
24145W        W89130  18.747  32.380  10.332
24146W        W89131  16.831  22.793  11.293
24147W        W89132  27.175  28.748  13.917
24148W        W89133  39.520   2.981  10.920
24149W        W89134  18.584   4.214   0.273
24150W        W89135  16.747  28.928  13.963
24151W        W89136  42.948  35.197  12.458
24152W        W89137  36.831  24.269  11.070
24153W        W89138  15.323   9.630   3.099
24154W        W89139  38.546   8.988  13.443
24155W        W89140  41.789  44.401  13.796
24156W        W89141  40.280  34.025  12.068
24157W        W89142  12.350  34.607   3.949
24158W        W89143  34.274  18.305   2.268
24159W        W89144   4.841   7.759   3.955
24160W        W89145  41.817  20.782  11.282
24161W        W89146  39.635  11.473   1.669
24162W        W89147   6.526  21.712   1.871
24163W        W89148   9.359   4.928  10.449
24164W        W89149  39.334  23.050   0.423
24165W        W89150  30.280  37.080  12.471
24166W        W89151  11.866   5.184   1.290
24167W        W89152  11.778  15.849  14.441
24168W        W89153  19.305   5.548  10.630
24169W        W89154   7.597  20.194  11.683
24170W        W89155  15.073  39.016   0.337
24171W        W89156  10.894  35.801   1.489
24172W        W89157  18.077  40.787   2.461
24173W        W89158  17.042  27.633  12.458
24174W        W89159   3.477   1.771  11.321
24175W        W89160  35.118  42.877  13.616
24176W        W89161  42.097   1.883   2.479
24177W        W89162  23.173  12.459  10.388
24178W        W89163  34.924  43.064   0.820
24179W        W89164  28.022   5.634   2.316
24180W        W89165  10.778  25.449  11.677
24181W        W89166  30.084  32.685   4.075
24182W        W89167   0.768   4.954  13.832
24183W        W89168  41.531  24.526  12.962
24184W        W89169   8.658  13.166   2.317
24185W        W89170  14.042   5.924   3.137
24186W        W89171  17.044  40.538   5.027
24187W        W89172   0.332   3.893   2.665
24188W        W89173   7.606  14.697  10.584
24189W        W89174  40.740   9.206  11.112
24190W        W89175  33.863   6.868   1.231
24191W        W89176  40.922  43.759  14.357
24192W        W89177  24.220  18.645  13.925
24193W        W89178   1.912   5.770   3.304
24194W        W89179  38.820   5.751  13.076
24195W        W89180  35.067  18.623  12.212
24196W        W89181  12.363  20.030  13.413
24197W        W89182  13.904  21.034   3.279
24198W        W89183  44.978  28.957   0.394
24199W        W89184  30.088  42.769  11.065
24200W        W89185  41.568   1.305   4.285
24201W        W89186  29.814  14.307  11.519
24202W        W89187  15.653   2.020  12.511
24203W        W89188  44.248  34.020   4.679
24204W        W89189  13.642  43.356   0.253
24205W        W89190  24.663  23.285  14.352
24206W        W89191  16.029  11.586   2.302
24207W        W89192   8.622  20.852   3.819
24208W        W89193  34.912  29.398   4.641
24209W        W89194  43.974  21.686   4.709
24210W        W89195   2.910  25.904   4.061
24211W        W89196  39.903   4.262   2.642
24212W        W89197   1.984  39.886  11.666
24213W        W89198  36.429  32.428   0.843
24214W        W89199  18.714  21.120  12.002
24215W        W89200   1.977  19.391   4.252
24216W        W89201   8.329   7.500   3.159
24217W        W89202  20.984  15.446   4.035
24218W        W89203  15.644  19.610  14.382
24219W        W89204  11.226  14.605   0.270
24220W        W89205  26.836  17.019   3.367
24221W        W89206  22.582  44.834   3.051
24222W        W89207  27.105  35.970   0.450
24223W        W89208  43.186   6.099   4.707
24224W        W89209  16.318  39.314   4.032
24225W        W89210   7.390  23.752  13.930
24226W        W89211   3.344  39.322   4.283
24227W        W89212  31.885  24.091   3.816
24228W        W89213  22.609   1.860   4.598
24229W        W89214  39.925  21.770   1.339
24230W        W89215   0.592  20.268  13.127
24231W        W89216   9.895   7.608   4.154
24232W        W89217  12.814   1.557   4.063
24233W        W89218  10.131  12.685  13.293
24234W        W89219  40.882  17.810   0.832
24235W        W89220  10.142  37.806  13.957
24236W        W89221   2.692  12.225  12.880
24237W        W89222  13.862  14.372   1.920
24238W        W89223   7.707  12.846  13.104
24239W        W89224  19.707   5.214  10.586
24240W        W89225  29.873  16.993  14.909
24241W        W89226  21.053  39.247  10.948
24242W        W89227  31.413  28.443   3.672
24243W        W89228   8.598  13.253  13.450
24244W        W89229  43.273   2.098   2.536
24245W        W89230  42.000  43.131  12.326
24246W        W89231  35.546   7.402  14.620
24247W        W89232  21.260  14.869  11.133
24248W        W89233  17.284  35.918  13.456
24249W        W89234  18.169  38.391  12.496
24250W        W89235  15.792  17.076  14.449
24251W        W89236  31.657  37.891   4.033
24252W        W89237  13.829  15.160  14.845
24253W        W89238  41.015  38.623  11.505
24254W        W89239   7.464  26.542   1.438
24255W        W89240  10.167   3.941   2.400
24256W        W89241  38.488  36.428   0.849
24257W        W89242  39.696  37.337  11.045
24258W        W89243  17.046  14.844  10.897
24259W        W89244  28.201  31.897   4.156
24260W        W89245  42.318   1.352  12.860
24261W        W89246  42.320  25.804  13.474
24262W        W89247   5.131   7.178  14.492
24263W        W89248   0.264  15.356   4.127
24264W        W89249   3.063  19.668  11.536
24265W        W89250  12.188  11.235   2.669
24266W        W89251  36.068   0.695  12.178
24267W        W89252  20.811   5.442   1.672
24268W        W89253   3.882  44.593   4.497
24269W        W89254  39.314   6.067   2.660
24270W        W89255  36.885   0.981   1.281
24271W        W89256  34.550  25.489   4.428
24272W        W89257  29.623  43.690   2.893
24273W        W89258  18.319  24.106   0.377
24274W        W89259  33.820  23.137   4.868
24275W        W89260  39.619  33.885   0.350
24276W        W89261  13.632  37.932   4.490
24277W        W89262  37.367   7.950  13.520
24278W        W89263  28.936  37.789   0.365
24279W        W89264  28.521  17.172  12.097
24280W        W89265  27.768   2.247   2.257
24281W        W89266  27.782  41.106   0.221
24282W        W89267   0.211  26.163  11.851
24283W        W89268  10.290   3.415  13.534
24284W        W89269  44.456  13.246  14.133
24285W        W89270  11.687  42.081  10.554
24286W        W89271  38.878  29.191  11.317
24287W        W89272  15.366   1.237   1.426
24288W        W89273  17.024   2.305   1.034
24289W        W89274  29.268  17.265  13.056
24290W        W89275  10.373  11.802   3.618
24291W        W89276  43.207  28.098   1.325
24292W        W89277   1.767  28.887  11.924
24293W        W89278   1.122  17.416  14.060
24294W        W89279  13.829  40.582  10.989
24295W        W89280  17.805  40.415  12.225
24296W        W89281  29.237   1.362   1.415
24297W        W89282  40.361  43.312  13.880
24298W        W89283  32.404  12.530  10.248
24299W        W89284  29.223  13.756  12.567
24300W        W89285  16.145  10.259   0.969
24301W        W89286  10.191   1.959  12.470
24302W        W89287  29.569  40.843  11.971
24303W        W89288  25.656  23.734   3.262
24304W        W89289  11.910  28.050  14.851
24305W        W89290  40.980  26.645   2.243
24306W        W89291   6.759  14.152   3.615
24307W        W89292  11.644  13.289  13.068
24308W        W89293  12.723  40.394   0.265
24309W        W89294   2.297  13.364  12.846
24310W        W89295  27.813  27.586  10.686
24311W        W89296   6.724  17.788  10.755
24312W        W89297  26.995  43.404  12.449
24313W        W89298  28.127  14.933  13.573
24314W        W89299  41.370  33.802  14.387
24315W        W89300   0.309   6.249  12.950
24316W        W89301  29.208   8.195  13.870
24317W        W89302  10.156   6.457   9.803
24318W        W89303   5.115  36.759   2.235
24319W        W89304  24.684  21.415   0.033
24320W        W89305   5.751  30.824   0.024
24321W        W89306  10.211   2.012  13.359
24322W        W89307  27.312  13.788   2.484
24323W        W89308  43.412  38.590  12.759
24324W        W89309  40.005   9.850  13.509
24325W        W89310  34.830  39.282   2.732
24326W        W89311   6.968  21.813   4.641
24327W        W89312  26.172  41.531   3.595
24328W        W89313   5.157  21.288   1.754
24329W        W89314  37.292  33.416   2.743
24330W        W89315  41.869   3.704  12.936
24331W        W89316  27.949  31.592  14.246
24332W        W89317  40.274  36.071   2.659
24333W        W89318  43.725  27.585  14.200
24334W        W89319  33.627  23.191   4.350
24335W        W89320   2.677  11.817   4.647
24336W        W89321  21.806  14.007  11.195
24337W        W89322  43.454  13.214  13.974
24338W        W89323   1.996   8.264   1.007
24339W        W89324   7.006  29.482   4.148
24340W        W89325  35.571  15.720  14.023
24341W        W89326  34.929  44.015   2.444
24342W        W89327  12.084  42.433   0.685
24343W        W89328  16.124  30.050   5.058
24344W        W89329  36.826  38.074   0.311
24345W        W89330  44.130  21.262  13.057
24346W        W89331  20.028  19.862  12.823
24347W        W89332  25.642   5.788   2.791
24348W        W89333  36.437   2.996  10.042
24349W        W89334  40.054  26.000   3.356
24350W        W89335  20.241  16.949  11.125
24351W        W89336  18.481  13.994  11.493
24352W        W89337  29.930  20.475  14.880
24353W        W89338  42.465  13.354   4.491
24354W        W89339   6.847   1.285  14.481
24355W        W89340  23.959  38.122  11.173
24356W        W89341  36.524  14.325   0.172
24357W        W89342  33.605  37.836  14.892
24358W        W89343  37.239  28.911   3.345
24359W        W89344  31.139  18.601   2.864
24360W        W89345  10.435  39.790   1.647
24361W        W89346  11.288  21.706  10.737
24362W        W89347  25.482   5.682  10.649
24363W        W89348   4.365  16.897   0.201
24364W        W89349  34.561  16.679  11.266
24365W        W89350  23.954   1.374  13.792
24366W        W89351   4.430  16.692  13.894
24367W        W89352   4.501  33.054   2.794
24368W        W89353  19.150  29.598  13.762
24369W        W89354  26.186  36.800   4.176
24370W        W89355  17.926  15.669   3.684
24371W        W89356  38.360   3.789   1.377
24372W        W89357  27.904   4.997  12.876
24373W        W89358   0.918   5.692  14.282
24374W        W89359  31.637   5.301   4.561
24375W        W89360  41.417  15.141  10.277
24376W        W89361  23.247  19.997  11.530
24377W        W89362  33.829  21.937   1.582
24378W        W89363  11.129  44.445  13.830
24379W        W89364   4.658  30.454   4.652
24380W        W89365   6.435  40.442   2.866
24381W        W89366  40.432  24.173   1.453
24382W        W89367  16.385  29.923  13.436
24383W        W89368  15.706  32.478  13.608
24384W        W89369  23.962  44.875   2.830
24385W        W89370   0.239   2.984   2.196
24386W        W89371   9.627  31.122   1.305
24387W        W89372  33.573   7.137  12.271
24388W        W89373  13.007   0.956  13.366
24389W        W89374  24.415  10.673   2.278
24390W        W89375  14.616  22.754   0.271
24391W        W89376  31.894  26.940   2.755
24392W        W89377   0.330  18.846  11.028
24393W        W89378   9.870   3.802  13.766
24394W        W89379  11.432  24.774   2.832
24395W        W89380  25.623   6.374  14.641
24396W        W89381  10.435  15.530   0.825
24397W        W89382  32.584  21.702   0.352
24398W        W89383  16.323   1.869  10.497
24399W        W89384   7.434   3.265  13.855
24400W        W89385   5.264  39.376  10.801
24401W        W89386  26.894  10.726   2.194
24402W        W89387  43.870  11.149  13.445
24403W        W89388  33.135  24.507   3.564
24404W        W89389  18.350   8.417  11.552
24405W        W89390  32.089  27.584   1.104
24406W        W89391  40.904   9.995   4.365
24407W        W89392  10.353  10.225  11.175
24408W        W89393   3.669  35.886  11.119
24409W        W89394  44.681  31.390   3.833
24410W        W89395  40.311  19.553   0.332
24411W        W89396  33.722   2.730   1.258
24412W        W89397  43.678  18.053  10.284
24413W        W89398  35.991  27.843   4.690
24414W        W89399  32.030   5.822  13.379
24415W        W89400   1.651  33.007  11.673
24416W        W89401   3.682   9.759   0.707
24417W        W89402  42.248  13.051  13.028
24418W        W89403  17.226  25.565   1.116
24419W        W89404  11.820   2.169   3.637
24420W        W89405   5.507  22.695   4.041
24421W        W89406  27.407  33.565   0.839
24422W        W89407  14.811   4.978   3.674
24423W        W89408  34.439   3.625  10.838
24424W        W89409  21.886  22.228  12.469
24425W        W89410  18.992   5.712   4.774
24426W        W89411  36.405   5.339   1.887
24427W        W89412  17.573  14.329   2.266
24428W        W89413  11.916  17.449   0.999
24429W        W89414   3.697  18.015   0.546
24430W        W89415  28.661  41.306   4.536
24431W        W89416  27.675   2.876   1.821
24432W        W89417  16.544   3.664   4.956
24433W        W89418  22.936  38.878  12.471
24434W        W89419  18.596  38.370   4.101
24435W        W89420  31.594  44.358  10.758
24436W        W89421  21.208  27.015   5.231
24437W        W89422  31.356  25.024  14.586
24438W        W89423   3.948   5.882   2.578
24439W        W89424  39.804  35.434  12.052
24440W        W89425  17.578  20.971   2.229
24441W        W89426  31.505  17.120  11.900
24442W        W89427   1.164  34.349   3.730
24443W        W89428  24.083  29.219   0.890
24444W        W89429  19.835  18.276  12.951
24445W        W89430  14.788  18.959   4.521
24446W        W89431  22.831  16.133   1.792
24447W        W89432  27.684   3.614   3.733
24448W        W89433  12.350   8.288  14.994
24449W        W89434  26.487  15.078   3.379
24450W        W89435  12.802  28.058  11.355
24451W        W89436  10.962  34.441  11.710
24452W        W89437   0.731  13.649  14.912
24453W        W89438  33.252   5.918  11.122
24454W        W89439  26.220  22.967   3.403
24455W        W89440  29.540  32.052   3.479
24456W        W89441  14.846  15.711  13.461
24457W        W89442  25.934  26.243   3.778
24458W        W89443  13.166  44.925   1.059
24459W        W89444  13.655  41.065  10.944
24460W        W89445  28.951  18.954  13.412
24461W        W89446  39.109   9.106   2.573
24462W        W89447  25.449   2.717   1.187
24463W        W89448  10.647  43.060   3.264
24464W        W89449   2.787  14.456   0.733
24465W        W89450  23.627  33.654   3.976
24466W        W89451  27.652  37.736  11.025
24467W        W89452  25.669   5.247  14.363
24468W        W89453  29.229   9.961  12.946
24469W        W89454  44.304  18.734  14.638
24470W        W89455  43.884  20.793   1.818
24471W        W89456  42.546  40.950   0.194
24472W        W89457  22.172  41.055   4.602
24473W        W89458   1.688  11.876  12.371
24474W        W89459  31.301  40.967  11.555
24475W        W89460  39.826  21.492  13.097
24476W        W89461  38.841   4.621  14.803
24477W        W89462  36.355  30.878   1.711
24478W        W89463   8.095  38.954   4.251
24479W        W89464  39.705  43.091   1.278
24480W        W89465  28.812  37.959   4.705
24481W        W89466   8.710  38.924  14.581
24482W        W89467  42.273  35.510  12.986
24483W        W89468   2.054  10.284   4.123
24484W        W89469   1.702  28.124  10.698
24485W        W89470  19.224  20.759  12.074
24486W        W89471  40.797  16.595  12.512
24487W        W89472   3.186  38.848   4.635
24488W        W89473  30.369  42.488   3.301
24489W        W89474  42.335  38.903  10.666
24490W        W89475   5.483  27.100   0.420
24491W        W89476  24.578  25.973  13.932
24492W        W89477  10.900  29.651  12.510
24493W        W89478  38.415  24.181  13.138
24494W        W89479  34.374  20.756   1.773
24495W        W89480  40.235   5.873   0.421
24496W        W89481  17.729  16.235   3.290
24497W        W89482   1.009  44.437   0.961
24498W        W89483  27.351   3.297   1.821
24499W        W89484   2.758  20.793   2.269
24500W        W89485  43.916  13.976   5.303
24501W        W89486   6.380  17.808  12.432
24502W        W89487  25.495  40.375   0.436
24503W        W89488  25.275  12.096   3.638
24504W        W89489  33.099  28.268  10.889
24505W        W89490  40.837  13.583   4.714
24506W        W89491  19.691  39.990   2.824
24507W        W89492  33.664   4.471  13.104
24508W        W89493  31.866  13.277   1.860
24509W        W89494   8.143  21.871  11.791
24510W        W89495  21.674  20.185   2.732
24511W        W89496  35.254   8.169   3.147
24512W        W89497  22.130  41.004  14.313
24513W        W89498  10.540  11.243  14.467
24514W        W89499  36.573  21.438   4.537
24515W        W89500  17.889  19.069  14.928
24516W        W89501  44.058   0.208   0.256
24517W        W89502   4.705   2.032   1.845
24518W        W89503  30.414  10.451   0.072
24519W        W89504  11.402  38.030   3.738
24520W        W89505  41.949  22.026   4.148
24521W        W89506   8.628  20.153  10.402
24522W        W89507  17.726  38.941   1.615
24523W        W89508  38.103  29.147   2.750
24524W        W89509  21.751   1.508  10.715
24525W        W89510  17.919  24.955  11.203
24526W        W89511  13.802   3.366  12.973
24527W        W89512  39.038   2.799   3.583
24528W        W89513   1.920  20.651   3.350
24529W        W89514  40.272   7.144  12.399
24530W        W89515  38.048  13.519  13.504
24531W        W89516  37.980  26.782   2.758
24532W        W89517  30.011  44.005   3.037
24533W        W89518  25.945  20.534  10.861
24534W        W89519   3.347   9.111   1.627
24535W        W89520  22.045  33.485   4.705
24536W        W89521   9.208  31.193  11.643
24537W        W89522   3.318  41.869   0.909
24538W        W89523  41.689  37.329  12.593
24539W        W89524   7.490  42.748   5.168
24540W        W89525   4.365   8.860   2.205
24541W        W89526   6.252  34.600   0.206
24542W        W89527   6.233  42.530   4.799
24543W        W89528  17.489  37.233  12.632
24544W        W89529  20.509  13.882  10.702
24545W        W89530  36.543  41.905  11.127
24546W        W89531  28.448  25.531   4.500
24547W        W89532   9.740  39.391   1.208
24548W        W89533  15.805  19.292   4.132
24549W        W89534  44.926  41.941  14.706
24550W        W89535  35.983  33.853  13.509
24551W        W89536  20.949  18.978  13.874
24552W        W89537   5.609   7.775   3.267
24553W        W89538   9.446  21.488   1.760
24554W        W89539  28.445  39.756   0.372
24555W        W89540  35.663  27.443   4.670
24556W        W89541  27.009  11.740  13.812
24557W        W89542  15.169  12.838  11.216
24558W        W89543  26.965  32.670  14.413
24559W        W89544  23.219  35.974   0.014
24560W        W89545   8.877  10.203  12.847
24561W        W89546  11.439  11.162   0.817
24562W        W89547  24.725   4.056  12.418
24563W        W89548  23.137  13.880   2.420
24564W        W89549  31.340  14.176  11.558
24565W        W89550  29.498  25.586  11.583
24566W        W89551  28.450  17.936   0.353
24567W        W89552  42.392   7.319   3.693
24568W        W89553  31.236  38.990   2.340
24569W        W89554   2.239  28.446   2.284
24570W        W89555  41.036  43.813   4.376
24571W        W89556  21.214  19.017  11.962
24572W        W89557  19.663  30.807   3.471
24573W        W89558   0.788  41.222   2.381
24574W        W89559  34.828  24.053   0.815
24575W        W89560  34.841  34.614   0.932
24576W        W89561  16.651  39.387   2.597
24577W        W89562   7.264  25.411   0.995
24578W        W89563  18.657  26.579   1.950
24579W        W89564  22.280  21.741   4.165
24580W        W89565  38.099  27.058   2.337
24581W        W89566  27.552  39.996   4.348
24582W        W89567  30.125  11.349  14.317
24583W        W89568   2.940  43.212   1.231
24584W        W89569  17.704  41.588  11.377
24585W        W89570   7.215   5.261   2.233
24586W        W89571   1.535  13.419   2.618
24587W        W89572  36.056  11.488  13.745
24588W        W89573  22.265  10.738   0.798
24589W        W89574  35.929  25.426  12.026
24590W        W89575  30.116  31.096   0.677
24591W        W89576  37.359  13.785   0.807
24592W        W89577  29.456  10.793  13.122
24593W        W89578  22.601  44.879  13.423
24594W        W89579  18.233  16.269   1.450
24595W        W89580  35.289  26.001   4.346
24596W        W89581   9.002  39.841   4.548
24597W        W89582  25.350  23.995   4.849
24598W        W89583  40.793   0.183   1.446
24599W        W89584  41.060   6.332  12.494
24600W        W89585  25.570  21.114   3.465
24601W        W89586  30.666  15.489  10.123
24602W        W89587  43.101  23.094   2.761
24603W        W89588  29.203  40.013  12.236
24604W        W89589  39.283  27.137  12.866
24605W        W89590  40.587   7.420   4.157
24606W        W89591  11.157   1.765  13.605
24607W        W89592  43.482  30.358   3.714
24608W        W89593  21.064   9.971  11.488
24609W        W89594  10.827  35.580  14.025
24610W        W89595   3.889  38.479   0.888
24611W        W89596  16.561  18.210  14.416
24612W        W89597  24.430  19.287  12.978
24613W        W89598  40.828  42.863  11.492
24614W        W89599  23.730  26.073  15.000
24615W        W89600   4.193   7.858  11.533
24616W        W89601  23.705  42.235   0.867
24617W        W89602   5.144  25.667   2.096
24618W        W89603  40.557  33.856  13.617
24619W        W89604  41.076  10.764   3.187
24620W        W89605  42.933   0.764  13.874
24621W        W89606  39.261  28.582  12.448
24622W        W89607  25.564   3.371   2.014
24623W        W89608   8.450   1.545  14.199
24624W        W89609  40.022  27.977   1.325
24625W        W89610  38.244   2.961   3.816
24626W        W89611  28.985  39.319   3.267
24627W        W89612  15.126  26.102   0.762
24628W        W89613  23.198   7.892  12.990
24629W        W89614  35.448  15.060   4.092
24630W        W89615  36.356  37.327  12.683
24631W        W89616  25.675  43.598  10.897
24632W        W89617   7.074  25.745   0.149
24633W        W89618  42.940  44.053  14.329
24634W        W89619  13.796  23.524  13.469
24635W        W89620  13.604  34.592   4.676
24636W        W89621  40.948   6.261   4.570
24637W        W89622  38.044  33.941   2.262
24638W        W89623   5.099   4.323   3.027
24639W        W89624   5.345  43.333   0.378
24640W        W89625  20.328  32.409   3.781
24641W        W89626  41.460   1.409   0.458
24642W        W89627  35.580  44.723  14.930
24643W        W89628   0.288  15.108  11.984
24644W        W89629  23.884   0.953  13.548
24645W        W89630   8.971  14.100  11.884
24646W        W89631  12.452  21.649   1.202
24647W        W89632   6.801  44.514   4.210
24648W        W89633  40.074   6.336   1.690
24649W        W89634  21.146  17.175  10.949
24650W        W89635  21.039  28.754  13.926
24651W        W89636  17.737   4.813   2.727
24652W        W89637  38.835  25.055   2.224
24653W        W89638   7.319  14.165  11.953
24654W        W89639  24.239  13.719   1.137
24655W        W89640  34.148  14.545  13.029
24656W        W89641   9.172  19.820  14.408
24657W        W89642  18.782  32.682  11.593
24658W        W89643  44.536  11.746   4.068
24659W        W89644  39.422  22.653   2.398
24660W        W89645  10.335  38.183   3.169
24661W        W89646  36.553  26.726   4.917
24662W        W89647  11.354  12.725  13.990
24663W        W89648  16.092   3.562   0.262
24664W        W89649   1.347  14.505   3.283
24665W        W89650   1.812  30.925   2.817
24666W        W89651   7.945   1.221  10.959
24667W        W89652  17.212  31.078  12.827
24668W        W89653  42.283  14.819   0.905
24669W        W89654  27.499   9.886   4.285
24670W        W89655  20.644  27.324   0.995
24671W        W89656  25.943  10.907   2.359
24672W        W89657  19.292  10.715  14.273
24673W        W89658  10.263  21.524   4.566
24674W        W89659  12.940   7.596  10.760
24675W        W89660  28.179  43.563   1.264
24676W        W89661   5.174  43.311   4.509
24677W        W89662   4.402  42.250  14.164
24678W        W89663  28.856  40.485  13.824
24679W        W89664  44.415  11.373   0.709
24680W        W89665  21.133  36.291   3.342
24681W        W89666   9.842  37.516   3.863
24682W        W89667  44.788  11.881  13.855
24683W        W89668  39.606  23.554   1.341
24684W        W89669  26.271   7.916  14.982
24685W        W89670  35.854  37.705  10.583
24686W        W89671  42.715   0.810   2.002
24687W        W89672   2.963  20.588  10.725
24688W        W89673  30.983  30.599  14.925
24689W        W89674  42.294  21.580   0.250
24690W        W89675  35.086  12.054   4.709
24691W        W89676  23.196  19.175  12.636
24692W        W89677  25.159  24.746   4.314
24693W        W89678  23.999  44.463   1.454
24694W        W89679  44.230  24.026   3.307
24695W        W89680  26.450  23.128   2.415
24696W        W89681  29.459  10.774   2.732
24697W        W89682  29.575   7.206  11.584
24698W        W89683  42.901  15.138  11.687
24699W        W89684  28.046  22.484  10.050
24700W        W89685  14.052   8.829  14.915
24701W        W89686  14.452  27.915   0.135
24702W        W89687  43.912  29.346   1.458
24703W        W89688  41.861   3.152  11.273
24704W        W89689  28.248  14.111   3.183
24705W        W89690   1.833  13.230  11.190
24706W        W89691  28.728  21.003   3.410
24707W        W89692  14.307  29.799   1.470
24708W        W89693  16.043  35.928   2.319
24709W        W89694  38.398  34.412  14.003
24710W        W89695  20.169  15.759   0.688
24711W        W89696  42.510  14.328  12.531
24712W        W89697   7.366  29.577  10.613
24713W        W89698  15.574  29.777  11.549
24714W        W89699  44.353  44.083  10.726
24715W        W89700   2.110  14.913  11.877
24716W        W89701  17.954  21.279  12.689
24717W        W89702  41.109  33.115  14.915
24718W        W89703  23.915  18.862   0.769
24719W        W89704  33.179  30.647  14.940
24720W        W89705  38.027  32.196   3.820
24721W        W89706  11.377  38.011  12.468
24722W        W89707  10.609   5.249   3.861
24723W        W89708  12.984   4.252   3.402
24724W        W89709  43.698  35.629   3.429
24725W        W89710  25.655  18.836   1.220
24726W        W89711   5.306  27.654   3.394
24727W        W89712   7.866  33.910   4.877
24728W        W89713  11.352  32.851  11.621
24729W        W89714  19.316  24.832   3.108
24730W        W89715  19.795  32.457  11.581
24731W        W89716   3.205   4.429  11.344
24732W        W89717   5.981  37.716   4.953
24733W        W89718  25.147  26.898  12.947
24734W        W89719  12.817  42.780  12.497
24735W        W89720  23.197  18.981   2.696
24736W        W89721  30.895  31.011  11.494
24737W        W89722  23.633  19.104  14.328
24738W        W89723   9.666  31.461   4.222
24739W        W89724   2.728  37.293  10.683
24740W        W89725  29.381  40.952   0.811
24741W        W89726  21.601  25.516  14.569
24742W        W89727  31.670  39.223   4.511
24743W        W89728  11.660  41.913   3.176
24744W        W89729  34.899  33.015   1.451
24745W        W89730  36.597   8.446   5.503
24746W        W89731  11.898  16.082  10.363
24747W        W89732  35.141   7.126   1.955
24748W        W89733  18.112  35.120  13.548
24749W        W89734  28.944  17.551   2.065
24750W        W89735  27.966  20.024  13.767
24751W        W89736  20.570  44.846   2.454
24752W        W89737  28.479  44.044  10.730
24753W        W89738  27.148  19.648   1.170
24754W        W89739  24.475  28.455  12.323
24755W        W89740   0.201  20.535   1.173
24756W        W89741  10.673  42.110   3.170
24757W        W89742   6.802  29.697  13.688
24758W        W89743  28.994   5.253   3.772
24759W        W89744  35.344  38.017  14.528
24760W        W89745  11.795  33.042  12.578
24761W        W89746   9.423  43.890  14.483
24762W        W89747   9.444  30.479   0.888
24763W        W89748  15.225  21.183   2.131
24764W        W89749  23.005  10.099   0.007
24765W        W89750  23.776   8.175  12.198
24766W        W89751   9.315  33.360  10.319
24767W        W89752  12.393  40.880  13.468
24768W        W89753  39.562  14.304   1.933
24769W        W89754  31.090   7.818   1.342
24770W        W89755  44.044  26.476   2.520
24771W        W89756  39.006  26.610   4.633
24772W        W89757   9.119  43.920  12.472
24773W        W89758  11.913  31.672  12.963
24774W        W89759  21.641   4.940  14.033
24775W        W89760   2.014  35.477   3.675
24776W        W89761  25.026   7.130  11.508
24777W        W89762  40.926  42.465  14.732
24778W        W89763  38.466  33.030   3.869
24779W        W89764  32.588  23.141   4.233
24780W        W89765  24.673  44.293   0.844
24781W        W89766  42.517  25.288   2.389
24782W        W89767  44.274   9.502   3.203
24783W        W89768  30.903  39.064   1.952
24784W        W89769  33.638  22.748   1.339
24785W        W89770  12.859   9.763  13.881
24786W        W89771  23.515  19.510   2.295
24787W        W89772  40.828  12.249  13.397
24788W        W89773   5.846  33.636  13.849
24789W        W89774  40.632   1.275  14.130
24790W        W89775  24.551  41.418   4.248
24791W        W89776  32.059  29.442  13.302
24792W        W89777  16.663  29.531  12.191
24793W        W89778   5.870   3.590  12.588
24794W        W89779  22.992  43.916  12.027
24795W        W89780  34.115  43.541  14.032
24796W        W89781   9.295  26.515  11.995
24797W        W89782   2.452  10.779   1.933
24798W        W89783  14.370  32.217   4.446
24799W        W89784  32.887   4.678   0.766
24800W        W89785  26.049  14.214  11.171
24801W        W89786  25.434  39.136   1.936
24802W        W89787  38.904  27.184   3.462
24803W        W89788  38.580  26.601  10.711
24804W        W89789  39.506  30.789  12.945
24805W        W89790  44.046  37.013  11.267
24806W        W89791  15.287  42.481   0.931
24807W        W89792  15.319  21.709  11.715
24808W        W89793  37.479   1.503   4.374
24809W        W89794   2.697  39.977   4.892
24810W        W89795  30.897  20.950   4.689
24811W        W89796  10.020   7.360  14.922
24812W        W89797  11.185  32.437  12.538
24813W        W89798  30.720  41.858   2.763
24814W        W89799  18.044   7.266   0.821
24815W        W89800  19.278   8.867   5.091
24816W        W89801  27.494  17.087   1.950
24817W        W89802  26.465  25.121   3.589
24818W        W89803  15.304  35.995   4.666
24819W        W89804  36.518  39.917  13.242
24820W        W89805  20.337  13.829   2.102
24821W        W89806  44.527  23.486  12.537
24822W        W89807  27.112  17.827   0.906
24823W        W89808  13.700  22.172   1.900
24824W        W89809   5.304  17.101   4.042
24825W        W89810   0.176   5.317   0.729
24826W        W89811  42.105  13.714   2.369
24827W        W89812  34.672  41.794  12.909
24828W        W89813  14.571   1.864   4.170
24829W        W89814  23.179   3.463  11.048
24830W        W89815  10.350  14.077   2.690
24831W        W89816   7.977  44.561  12.888
24832W        W89817  24.509  27.966   3.637
24833W        W89818   1.251  24.197   3.088
24834W        W89819  12.127  29.494   3.291
24835W        W89820  35.145  44.813   4.779
24836W        W89821  43.991  20.342   0.823
24837W        W89822  10.536   0.332   3.741
24838W        W89823  41.364  43.911   2.614
24839W        W89824  10.568  14.626  11.915
24840W        W89825  29.944  33.965  11.831
24841W        W89826  11.786  22.762   4.538
24842W        W89827  40.441   7.198   2.150
24843W        W89828  19.534  15.508  13.965
24844W        W89829  26.681  22.558   4.543
24845W        W89830  43.006  12.358  13.844
24846W        W89831  28.103  36.953  11.506
24847W        W89832   9.004  12.787   2.172
24848W        W89833  14.824   2.300  13.548
24849W        W89834  19.330   0.925  11.527
24850W        W89835  26.054   8.604   3.392
24851W        W89836  26.154  38.015   4.211
24852W        W89837   4.710  27.571   2.737
24853W        W89838  20.261  31.475  14.114
24854W        W89839  33.623  27.899  14.361
24855W        W89840   6.779  19.550   3.753
24856W        W89841  42.898  36.171   2.607
24857W        W89842  36.104  23.958   2.787
24858W        W89843  17.137  29.594  12.355
24859W        W89844  23.423  31.350   1.010
24860W        W89845  25.436  32.855  13.488
24861W        W89846   8.338   0.407   1.326
24862W        W89847  25.676  16.073   4.907
24863W        W89848   4.137   0.990   4.845
24864W        W89849  33.889  38.055   1.787
24865W        W89850  44.821  33.094   1.764
24866W        W89851   5.099  15.193  14.631
24867W        W89852  16.263  39.873   4.275
24868W        W89853  11.999   4.117   4.457
24869W        W89854  27.717   0.422  10.236
24870W        W89855  15.616  43.287   3.125
24871W        W89856   1.854  39.558   0.946
24872W        W89857  10.462   4.873   4.619
24873W        W89858  17.777  21.723   0.311
24874W        W89859  23.990  41.666   4.154
24875W        W89860  26.367  33.964   5.050
24876W        W89861  32.455   0.813  12.177
24877W        W89862  39.407  29.561  11.580
24878W        W89863  20.486   1.467   1.137
24879W        W89864  25.956   0.320   1.206
24880W        W89865  23.544   4.216   1.248
24881W        W89866  33.315  32.012  14.473
24882W        W89867  19.673  39.664  10.678
24883W        W89868   1.306  38.441  11.557
24884W        W89869  13.567  29.106   1.289
24885W        W89870  41.266  16.842   0.531
24886W        W89871   6.646  22.583   2.996
24887W        W89872  24.742  29.920   1.832
24888W        W89873  18.676  21.655   1.845
24889W        W89874  34.567  33.623  12.434
24890W        W89875  40.847  32.536  13.941
24891W        W89876   6.677  14.181  13.481
24892W        W89877   0.469   0.028   2.023
24893W        W89878  19.024  33.218  13.019
24894W        W89879   1.141   0.905  11.094
24895W        W89880   1.860  15.443  11.187
24896W        W89881  13.799  18.202  13.849
24897W        W89882  35.994  14.345   5.144
24898W        W89883   3.267  11.310  12.506
24899W        W89884  35.284  32.595  13.490
24900W        W89885  38.007  12.298   1.362
24901W        W89886  34.164  23.043  14.368
24902W        W89887  38.390   0.701   4.873
24903W        W89888  31.957  16.276   0.989
24904W        W89889  15.350  30.020   0.491
24905W        W89890  30.522   2.310  12.004
24906W        W89891  21.420  25.458   2.842
24907W        W89892  18.781  11.156  14.938
24908W        W89893  23.518  34.934   3.566
24909W        W89894  41.885   0.999   2.388
24910W        W89895  17.842  18.714   5.244
24911W        W89896  33.525  13.784  12.783
24912W        W89897  13.166  12.416  12.126
24913W        W89898   1.411  23.555  11.603
24914W        W89899   2.864  38.840   1.503
24915W        W89900   3.819  13.778   0.902
24916W        W89901   9.896  33.625   4.566
24917W        W89902  19.303  44.025   1.458
24918W        W89903  40.468   9.225  13.162
24919W        W89904  32.963  38.597  14.078
24920W        W89905  37.896  44.957  12.316
24921W        W89906   0.397   1.930  10.710
24922W        W89907  21.769   5.358  13.329
24923W        W89908   6.081  40.503  14.062
24924W        W89909  24.227  11.068   0.451
24925W        W89910  31.463  37.503   4.365
24926W        W89911   4.037   2.749   1.852
24927W        W89912  29.704  28.343  13.957
24928W        W89913  29.636  17.749   0.931
24929W        W89914  12.375  38.111  12.152
24930W        W89915  43.417  42.586   4.354
24931W        W89916  40.724  33.082  11.066
24932W        W89917  44.912  43.102  11.497
24933W        W89918  44.259  32.381   4.190
24934W        W89919  30.476  29.557   4.981
24935W        W89920   1.662  23.303   1.409
24936W        W89921  41.286  40.916  10.818
24937W        W89922  37.051   4.667  13.914
24938W        W89923  37.431  15.496   2.177
24939W        W89924   3.955   7.459  11.176
24940W        W89925  36.335  42.885  12.041
24941W        W89926   5.923  13.874  11.002
24942W        W89927  16.682  33.672   2.695
24943W        W89928  20.719  33.042   0.448
24944W        W89929   1.891  22.514   0.264
24945W        W89930   0.058  25.952   0.253
24946W        W89931  12.328   9.735  13.916
24947W        W89932  39.964  12.853  10.673
24948W        W89933   2.488  31.149  13.394
24949W        W89934  35.259  43.490  14.528
24950W        W89935  33.873  42.764  12.858
24951W        W89936  44.557  18.879   4.176
24952W        W89937   5.286   9.786   4.358
24953W        W89938   4.903   8.264  12.549
24954W        W89939  27.900  32.013   4.572
24955W        W89940  27.444  15.274  13.030
24956W        W89941  13.410   1.282  12.457
24957W        W89942  42.498   8.168   0.254
24958W        W89943   8.080   0.023   2.291
24959W        W89944  18.794  21.785   3.231
24960W        W89945  10.131  25.407   1.419
24961W        W89946  38.528  44.345  11.924
24962W        W89947  43.504  24.634  14.666
24963W        W89948  44.274   4.398   2.781
24964W        W89949  15.547  39.388  11.564
24965W        W89950  41.477   0.761   1.623
24966W        W89951  27.223  26.551  11.548
24967W        W89952  35.585   5.189  14.371
24968W        W89953   8.304  16.642   2.831
24969W        W89954  17.652  31.186  10.939
24970W        W89955  26.545  24.229   3.500
24971W        W89956   7.240   5.432  12.439
24972W        W89957  13.439  41.950  14.183
24973W        W89958  21.859  13.252   0.833
24974W        W89959  34.526  27.033   2.658
24975W        W89960   1.831   8.917  13.405
24976W        W89961  26.160  44.056  10.745
24977W        W89962  33.010  23.987  11.202
24978W        W89963  12.236  30.916   1.332
24979W        W89964  21.614   8.024  14.148
24980W        W89965  23.216  40.856   3.165
24981W        W89966  19.149   6.511  10.477
24982W        W89967   9.894  37.874   4.758
24983W        W89968   6.904  15.471   4.202
24984W        W89969   1.732  40.563   1.793
24985W        W89970  18.585  31.031  11.027
24986W        W89971   1.113  11.583   2.264
24987W        W89972   3.299  10.906   4.470
24988W        W89973  37.627  25.948   1.868
24989W        W89974   0.617  36.963  13.489
24990W        W89975   4.902  35.151   2.692
24991W        W89976  14.507  12.566   4.283
24992W        W89977   6.409  21.699   0.911
24993W        W89978  30.927   9.886  13.418
24994W        W89979  36.895   1.500   2.771
24995W        W89980   3.921  34.948   0.421
24996W        W89981  22.776  42.011  12.933
24997W        W89982  34.370  44.533   3.467
24998W        W89983  16.001  44.079   2.908
24999W        W89984  23.588   8.644  12.618
25000W        W89985  13.700  26.668  12.175
25001W        W89986  26.190  19.769  12.469
25002W        W89987  19.985  20.657   2.569
25003W        W89988  41.602  42.496   3.128
25004W        W89989  40.634  39.360  11.116
25005W        W89990   2.454  33.831  11.132
25006W        W89991   9.102  26.353  11.132
25007W        W89992  30.637  31.125  11.056
25008W        W89993  34.213  13.881  10.917
25009W        W89994  11.241  36.276  11.211
25010W        W89995  27.594   5.124  12.415
25011W        W89996  11.142  15.173   0.182
25012W        W89997  33.816  34.906   2.224
25013W        W89998  38.039  35.893  14.254
25014W        W89999  24.135  41.331   2.402
25015W        W90000   7.652  29.946   3.633
25016W        W90001  16.350  37.397  10.917
25017W        W90002  11.169  26.568   2.156
25018W        W90003  16.011  26.164  11.981
25019W        W90004  25.402   5.820   2.291
25020W        W90005  42.903  41.903   3.663
25021W        W90006   2.508   7.617  11.654
25022W        W90007  43.045   2.072  10.819
25023W        W90008  30.690  37.955   4.155
25024W        W90009  10.230  25.138  10.666
25025W        W90010  43.457  18.627   1.667
25026W        W90011  21.904  19.076  12.590
25027W        W90012  44.786  10.087   0.886
25028W        W90013  39.752  41.526   1.791
25029W        W90014  10.472  22.865   3.304
25030W        W90015  23.678  27.651  10.703
25031W        W90016  14.283  31.697   4.484
25032W        W90017  24.756  29.220   1.404
25033W        W90018   9.261  33.869   1.641
25034W        W90019  38.765  16.871   2.216
25035W        W90020  11.146  20.693   2.898
25036W        W90021  41.731  16.050   3.048
25037W        W90022   4.620  33.600  13.937
25038W        W90023   1.697  34.211   3.674
25039W        W90024  10.923  17.172   3.742
25040W        W90025  28.575  20.706   1.693
25041W        W90026   8.258  34.616   1.290
25042W        W90027   1.947  31.816  10.830
25043W        W90028   9.282  20.488   1.607
25044W        W90029  14.344  17.014   1.284
25045W        W90030  20.590  38.872   3.097
25046W        W90031  10.136  33.517   4.117
25047W        W90032   5.131  33.912  11.614
25048W        W90033  24.917   0.285  11.913
25049W        W90034  14.827  34.185  14.099
25050W        W90035  23.272  34.358  13.665
25051W        W90036  13.936  27.846   2.038
25052W        W90037  34.307  27.715   3.241
25053W        W90038  20.266  13.254  12.687
25054W        W90039   4.658  43.090  10.601
25055W        W90040  24.503  31.962  14.815
25056W        W90041  18.570  24.509   0.570
25057W        W90042   3.808  31.045   1.296
25058W        W90043  12.097  26.446  10.695
25059W        W90044  35.498  17.684   1.821
25060W        W90045  27.637  11.656   0.928
25061W        W90046   4.518  33.853  14.401
25062W        W90047   8.527  11.536   0.339
25063W        W90048  16.598  10.876  12.198
25064W        W90049  23.201  13.024   4.556
25065W        W90050  13.111  25.305   2.098
25066W        W90051  26.138  32.579   0.879
25067W        W90052  27.489   1.032   1.839
25068W        W90053   6.794  39.016  12.507
25069W        W90054  34.900   4.646  11.503
25070W        W90055  28.138  14.552  10.640
25071W        W90056  35.332  29.729   2.261
25072W        W90057  40.534  19.267   0.706
25073W        W90058  26.150   8.603   1.404
25074W        W90059   2.422  39.672  10.771
25075W        W90060   6.871  17.196  13.022
25076W        W90061  16.015  40.014  11.089
25077W        W90062  38.469  36.576  12.888
25078W        W90063  26.108  15.531   0.675
25079W        W90064  23.449  42.911   2.137
25080W        W90065   4.416  33.389   3.714
25081W        W90066  38.882  18.496  14.379
25082W        W90067  23.688  40.589  12.975
25083W        W90068  23.650  30.088   4.536
25084W        W90069  35.952  12.617   3.029
25085W        W90070   7.715  23.427   9.841
25086W        W90071  14.310   8.255   3.805
25087W        W90072  32.477  19.121  12.465
25088W        W90073   1.359  27.915  13.281
25089W        W90074   1.718   2.664   0.451
25090W        W90075  28.899   2.519   3.213
25091W        W90076  13.569  31.963  13.851
25092W        W90077   3.272   8.871  12.228
25093W        W90078   2.410  19.227  14.415
25094W        W90079  22.368  15.630  12.048
25095W        W90080  22.603  16.852   4.430
25096W        W90081   7.172  37.789  12.422
25097W        W90082  18.422  35.120   1.744
25098W        W90083  14.199  41.353  14.448
25099W        W90084  19.763  42.059  12.032
25100W        W90085   2.363  31.421  14.883
25101W        W90086  40.158   7.440  12.866
25102W        W90087   6.923  23.560   1.940
25103W        W90088  30.061  18.572   3.652
25104W        W90089  32.159  25.425   3.645
25105W        W90090  27.207  34.077  14.282
25106W        W90091  15.716  30.220  10.259
25107W        W90092   6.865   4.807   3.617
25108W        W90093  12.010  21.561   3.184
25109W        W90094  38.381  25.208   2.465
25110W        W90095  13.300  19.766  10.988
25111W        W90096  20.983  38.231   2.365
25112W        W90097  15.818  33.121   1.421
25113W        W90098  10.520  26.578   3.767
25114W        W90099  10.920  19.405   4.952
25115W        W90100  32.959   7.913   3.206
25116W        W90101  35.909  33.342  13.486
25117W        W90102  43.032   8.723   2.873
25118W        W90103  21.785  28.848   2.801
25119W        W90104  31.453  10.154   0.888
25120W        W90105  36.305   7.274  12.970
25121W        W90106  42.005  11.091   3.711
25122W        W90107  22.026  27.967  13.152
25123W        W90108  32.460  11.388  11.626
25124W        W90109  11.061   5.283   1.848
25125W        W90110  30.348  17.200  14.872
25126W        W90111   2.355  17.636   0.452
25127W        W90112  31.160  33.559   3.579
25128W        W90113  25.506  10.326   3.603
25129W        W90114  18.042   6.455   2.383
25130W        W90115  24.274  28.593  14.656
25131W        W90116  14.051  31.912   0.787
25132W        W90117  30.091  31.004  12.482
25133W        W90118  13.644  27.964   1.247
25134W        W90119  18.522  44.542  14.996
25135W        W90120   1.330  43.020   4.535
25136W        W90121  27.482   6.684   3.674
25137W        W90122  29.159  21.744   3.603
25138W        W90123  42.294  11.152   0.267
25139W        W90124  17.052  29.193   1.337
25140W        W90125  37.184  26.589   2.197
25141W        W90126   6.495  39.839   0.211
25142W        W90127  33.568   3.882   2.905
25143W        W90128  30.572  11.591   4.653
25144W        W90129  32.598  13.687   0.897
25145W        W90130  12.165  32.379  11.242
25146W        W90131   4.700  38.670  14.873
25147W        W90132  33.536  15.884  14.508
25148W        W90133  42.772   7.725   0.116
25149W        W90134  11.654  25.723   2.736
25150W        W90135  19.494   4.535   4.036
25151W        W90136  20.953  26.961   0.719
25152W        W90137  30.660   6.139  12.087
25153W        W90138  36.532  25.959   2.717
25154W        W90139   2.065  17.119   1.745
25155W        W90140  22.587  37.870   4.079
25156W        W90141  37.113  13.324   0.929
25157W        W90142  22.790  27.881   3.576
25158W        W90143  10.831  38.980  10.611
25159W        W90144  40.528   8.360  13.140
25160W        W90145  32.516  13.865  13.012
25161W        W90146  42.897  25.682   3.759
25162W        W90147   4.197   8.842  11.121
25163W        W90148  17.738  29.553   2.133
25164W        W90149   9.743   2.213   3.324
25165W        W90150  25.505  21.660  13.866
25166W        W90151  37.255  38.789  10.595
25167W        W90152  25.516  14.518  12.803
25168W        W90153  19.967  13.483   0.428
25169W        W90154  42.908  13.798   2.886
25170W        W90155  25.095  24.330   1.267
25171W        W90156  16.261  10.434  13.541
25172W        W90157  31.394  34.843   0.823
25173W        W90158   5.091   2.421   0.758
25174W        W90159  11.736  44.487  10.749
25175W        W90160  14.808  15.599   2.768
25176W        W90161  13.052  15.665   4.483
25177W        W90162  19.237  20.725   1.433
25178W        W90163  44.929  22.963   3.396
25179W        W90164  18.156  35.295  10.639
25180W        W90165  28.379  14.832   2.741
25181W        W90166   0.713  42.531   4.212
25182W        W90167  39.207   4.887  12.015
25183W        W90168  11.107  35.517   4.437
25184W        W90169  22.627   8.837   1.388
25185W        W90170  19.124  17.216   0.794
25186W        W90171   4.717   6.727  14.343
25187W        W90172  41.763   2.410  13.888
25188W        W90173  18.604  16.134   3.176
25189W        W90174   8.808  26.696  12.054
25190W        W90175  44.504   9.774   4.633
25191W        W90176  14.174  34.873   1.444
25192W        W90177  17.339  20.981  14.023
25193W        W90178  21.433  26.455   0.332
25194W        W90179  25.652  32.195  12.906
25195W        W90180   9.420  30.362  13.518
25196W        W90181  38.410  18.526  10.203
25197W        W90182   9.841  33.437  11.063
25198W        W90183   0.513  14.547   4.120
25199W        W90184  16.203   2.645   4.542
25200W        W90185  25.012  10.414  10.770
25201W        W90186  20.978   1.328  13.468
25202W        W90187   5.095  16.541  14.913
25203W        W90188   2.642   5.735  11.150
25204W        W90189  18.582  34.497  12.573
25205W        W90190  16.843  28.655  14.448
25206W        W90191  34.432  21.330   4.959
25207W        W90192   0.380  37.099   0.595
25208W        W90193   2.012  14.682  14.373
25209W        W90194  35.066  13.185  12.534
25210W        W90195   2.384  27.791  11.545
25211W        W90196  44.235  13.282  12.394
25212W        W90197  40.466  34.917   2.297
25213W        W90198  39.131  26.446   2.164
25214W        W90199  28.626   6.311   2.698
25215W        W90200  31.961  11.801   2.275
25216W        W90201   3.412  10.234   0.722
25217W        W90202  19.445  35.414  11.606
25218W        W90203  29.458  27.715   3.593
25219W        W90204  33.825  15.243  13.655
25220W        W90205  19.978   8.721   2.879
25221W        W90206  32.058   0.547   1.015
25222W        W90207  18.768  37.929   2.795
25223W        W90208   6.156  11.191   1.703
25224W        W90209   5.518  39.835  10.740
25225W        W90210  41.438  28.189   1.888
25226W        W90211  11.026   6.730  10.124
25227W        W90212   8.427   9.307   4.735
25228W        W90213   5.024  27.194   0.634
25229W        W90214   3.723  42.659   3.276
25230W        W90215  31.159   1.820   0.307
25231W        W90216  44.241  10.800   1.975
25232W        W90217  18.815   5.134   3.992
25233W        W90218  19.993   6.729   2.324
25234W        W90219   3.992   8.534   3.207
25235W        W90220   4.715   4.543  13.988
25236W        W90221  40.669  14.679   5.246
25237W        W90222  38.145  40.395   3.259
25238W        W90223  14.261  28.886  12.233
25239W        W90224  16.620   9.199  12.559
25240W        W90225  43.843  30.989  14.592
25241W        W90226   8.143  12.823   0.307
25242W        W90227  41.684   2.755   2.915
25243W        W90228   0.767  29.550   3.717
25244W        W90229  25.228   4.370   0.253
25245W        W90230  35.571  28.631  11.562
25246W        W90231  29.428  33.153  10.039
25247W        W90232   1.932  40.943  13.448
25248W        W90233  41.924   4.130  14.425
25249W        W90234  12.988  17.466   4.225
25250W        W90235  33.798   0.701   3.201
25251W        W90236  26.304  16.530  11.641
25252W        W90237   6.709  44.719  14.501
25253W        W90238  31.342  22.938   1.201
25254W        W90239  20.791   4.555   0.013
25255W        W90240  18.649  24.085   3.186
25256W        W90241  15.899  23.823   3.418
25257W        W90242  37.382  11.673  13.824
25258W        W90243   3.637  38.565   1.369
25259W        W90244  23.120  20.925  11.950
25260W        W90245  13.158  12.519  13.043
25261W        W90246   6.848  35.772  14.943
25262W        W90247   5.935  21.960  11.996
25263W        W90248  15.140  43.464   3.229
25264W        W90249  13.475  37.894   2.928
25265W        W90250  42.047  11.104  10.783
25266W        W90251  14.842  39.552   0.253
25267W        W90252  15.383  36.136  13.356
25268W        W90253  10.906  12.847   3.073
25269W        W90254   0.849   3.039  14.211
25270W        W90255  12.087  25.177  14.727
25271W        W90256  21.190  14.132   4.539
25272W        W90257   1.578   2.762   1.257
25273W        W90258  13.636  41.316   2.220
25274W        W90259  15.832  27.889  13.895
25275W        W90260  35.479  26.160  13.449
25276W        W90261  13.104  15.057  13.107
25277W        W90262  17.091  37.335  12.034
25278W        W90263  18.795  39.120  13.059
25279W        W90264  38.923  27.531   0.777
25280W        W90265  36.104  22.114   0.435
25281W        W90266  23.138  33.959  13.344
25282W        W90267  37.578  32.550   1.746
25283W        W90268  22.481   1.779   2.514
25284W        W90269  25.168  34.395  12.354
25285W        W90270  15.550  42.421   1.810
25286W        W90271  27.673   0.727   0.461
25287W        W90272  12.485   2.998   0.943
25288W        W90273  30.635  37.910   0.752
25289W        W90274  35.511  25.920  11.129
25290W        W90275   9.420  29.707  13.965
25291W        W90276  30.994  19.026   4.040
25292W        W90277  38.045  17.364  11.089
25293W        W90278   8.439  30.538   1.178
25294W        W90279  38.510  22.251  11.140
25295W        W90280   8.745  16.550   0.419
25296W        W90281  19.039  43.327   0.244
25297W        W90282  38.503  34.950   0.658
25298W        W90283  10.702  40.831  12.905
25299W        W90284  39.937  28.330   0.237
25300W        W90285   6.669  31.027   2.730
25301W        W90286  10.182  10.316  14.815
25302W        W90287  25.551  15.593  12.173
25303W        W90288  13.950  33.096  12.331
25304W        W90289  22.916  12.758  11.650
25305W        W90290   6.334  38.885   1.278
25306W        W90291  16.677  26.453  11.140
25307W        W90292  29.981  33.323  13.960
25308W        W90293   6.770  41.844  13.541
25309W        W90294  38.300   0.925   0.895
25310W        W90295  23.598  14.547   4.052
25311W        W90296  40.328   1.018  11.589
25312W        W90297  35.856   2.159   1.463
25313W        W90298  28.462  39.571   3.607
25314W        W90299  30.338   9.126   3.689
25315W        W90300  27.249  16.159  14.868
25316W        W90301  21.564  36.405   1.685
25317W        W90302  35.640  34.017   4.659
25318W        W90303  26.289  25.342   0.841
25319W        W90304  39.603  30.533   1.087
25320W        W90305  12.143  38.891   3.674
25321W        W90306  41.222   1.911  11.258
25322W        W90307  11.982  22.128   0.462
25323W        W90308  10.385  11.317  13.828
25324W        W90309   3.767  31.395   4.669
25325W        W90310  43.130  36.113  10.594
25326W        W90311  41.460   3.784   2.130
25327W        W90312  17.263   0.197  10.544
25328W        W90313  42.054   1.790  10.518
25329W        W90314  14.167   5.492   4.539
25330W        W90315   0.215   7.340  13.393
25331W        W90316  29.217  33.633  10.122
25332W        W90317  15.824  42.169  11.193
25333W        W90318   3.227  39.445   0.354
25334W        W90319  17.090  14.151  12.087
25335W        W90320  28.632  18.866   2.487
25336W        W90321  30.987  21.748   4.219
25337W        W90322  41.913  28.257   5.442
25338W        W90323   4.417  31.247   3.518
25339W        W90324  25.236  40.677  14.201
25340W        W90325  13.499  25.983   0.942
25341W        W90326  40.100   0.890   4.774
25342W        W90327  44.337   9.572   0.289
25343W        W90328  19.362  17.961  13.813
25344W        W90329   4.783  43.829   1.362
25345W        W90330   1.843  30.491   4.575
25346W        W90331  25.008  28.209  11.162
25347W        W90332  21.103  33.993   4.718
25348W        W90333  44.382  12.644   2.742
25349W        W90334  43.661  37.357   0.313
25350W        W90335  40.488  30.447   4.516
25351W        W90336  10.201  12.695  14.811
25352W        W90337  18.231  12.080   3.750
25353W        W90338  13.584  14.246   3.282
25354W        W90339  34.021  18.065   2.701
25355W        W90340   9.248   1.400   4.363
25356W        W90341  15.162   0.483  13.504
25357W        W90342  43.561  27.996   2.784
25358W        W90343  20.213  22.526   4.710
25359W        W90344  21.991  15.700   2.272
25360W        W90345  34.063  34.550   0.509
25361W        W90346  19.508   2.900   3.276
25362W        W90347  44.572  43.239  13.486
25363W        W90348  40.040  23.017   4.611
25364W        W90349  26.181   3.068   4.931
25365W        W90350   4.378  21.706  14.876
25366W        W90351  22.228  24.132  14.364
25367W        W90352  30.098  10.825   3.366
25368W        W90353  18.299  37.326  11.573
25369W        W90354   2.395  12.654   1.859
25370W        W90355  43.821  34.698  11.175
25371W        W90356  22.534  23.703  10.836
25372W        W90357   3.403   1.946  14.735
25373W        W90358  41.417  37.055   2.621
25374W        W90359  22.190  16.221  10.784
25375W        W90360   1.179  34.173  12.651
25376W        W90361  40.509  28.453   0.336
25377W        W90362  35.917  36.480  14.950
25378W        W90363  42.474   4.532  11.247
25379W        W90364  41.749  33.113  11.548
25380W        W90365   6.170  26.563  12.705
25381W        W90366   8.825  41.776  11.248
25382W        W90367  10.293  40.042  12.764
25383W        W90368  43.426  22.604   0.914
25384W        W90369  38.964   1.481   0.941
25385W        W90370  34.637  40.466  10.781
25386W        W90371   3.881  11.173  13.007
25387W        W90372  32.504  10.693   0.409
25388W        W90373  25.106  29.211  11.144
25389W        W90374  43.833   1.350   2.294
25390W        W90375   3.346  24.132   1.691
25391W        W90376  15.192  33.495   0.785
25392W        W90377  12.410  28.113  14.833
25393W        W90378   1.773  28.096   2.869
25394W        W90379  43.194   7.761  14.774
25395W        W90380   1.435  41.224  11.105
25396W        W90381  33.953  11.147   2.323
25397W        W90382  40.378  18.778   1.270
25398W        W90383  15.353  35.217   0.762
25399W        W90384  16.945   6.696   4.575
25400W        W90385  30.419  27.423  12.260
25401W        W90386   6.857   8.522  14.059
25402W        W90387  13.906  19.509   4.788
25403W        W90388  31.468  20.074  13.294
25404W        W90389  25.757  27.361   0.771
25405W        W90390  35.190  39.164  10.680
25406W        W90391   9.612   8.626  14.760
25407W        W90392  31.028   5.445   1.830
25408W        W90393  41.537  30.857   2.225
25409W        W90394  30.399   6.885   3.286
25410W        W90395  25.983  37.927  10.474
25411W        W90396  33.078  38.633   4.503
25412W        W90397  18.251  11.710  10.739
25413W        W90398  17.787   2.056  10.655
25414W        W90399  11.252  35.665   4.929
25415W        W90400  19.642  12.607   1.399
25416W        W90401  33.504  28.047   2.586
25417W        W90402  19.695   1.197  12.528
25418W        W90403  27.583  33.699  12.015
25419W        W90404  16.380  43.461   4.477
25420W        W90405  30.192   7.268   3.822
25421W        W90406  31.093  41.272   3.216
25422W        W90407   5.353  12.268  11.615
25423W        W90408   7.917  41.959   2.621
25424W        W90409   2.478  41.759   1.491
25425W        W90410   8.203   8.482  10.173
25426W        W90411   8.303  43.761   2.236
25427W        W90412  14.424  27.046   5.491
25428W        W90413   3.978  16.106   4.723
25429W        W90414   9.882  26.986  13.547
25430W        W90415  17.554   3.393  14.049
25431W        W90416  41.384  30.134  12.000
25432W        W90417  16.113   0.437   1.889
25433W        W90418  41.359  27.974   4.876
25434W        W90419  26.059   7.845  13.972
25435W        W90420  43.032  43.505  10.665
25436W        W90421  26.282  41.761  13.845
25437W        W90422  35.744  37.620  13.873
25438W        W90423  12.205  19.923   2.592
25439W        W90424  44.731  33.402  12.469
25440W        W90425  36.458  28.802  14.946
25441W        W90426   7.631  20.630  13.444
25442W        W90427  43.708  11.970  10.881
25443W        W90428  17.127  36.906  11.052
25444W        W90429  30.878  17.082  13.890
25445W        W90430  34.082  17.238  10.574
25446W        W90431  34.372  22.185   2.849
25447W        W90432  24.920  21.091  11.860
25448W        W90433  31.364  30.419   4.569
25449W        W90434  39.043  38.721   4.948
25450W        W90435  16.690  12.120   3.231
25451W        W90436   9.214   3.455  13.639
25452W        W90437  19.818  24.255  13.850
25453W        W90438  31.649  17.724   4.098
25454W        W90439  15.729  13.421  14.364
25455W        W90440  15.406  25.630   1.698
25456W        W90441  40.567   6.739  12.495
25457W        W90442  37.449  25.281  10.183
25458W        W90443   6.922  25.140   1.375
25459W        W90444  38.835  18.259  13.905
25460W        W90445  27.000   4.645  12.955
25461W        W90446  33.547  35.636   1.873
25462W        W90447  31.918  24.569   0.804
25463W        W90448  19.327  21.685  10.462
25464W        W90449   0.960   1.035   3.219
25465W        W90450  17.051  31.180  10.131
25466W        W90451  12.704  19.670  11.618
25467W        W90452  31.065  20.785  12.430
25468W        W90453  28.376  24.479   1.143
25469W        W90454  15.166  36.598  13.381
25470W        W90455  39.620  21.205   0.138
25471W        W90456  15.759  33.498   2.323
25472W        W90457  29.947  38.208  10.690
25473W        W90458   5.838   5.278   1.730
25474W        W90459  13.222  23.527   4.585
25475W        W90460  27.543   7.903   1.833
25476W        W90461   0.538  12.994  11.199
25477W        W90462  12.641  33.848  11.856
25478W        W90463  33.641   4.933   2.262
25479W        W90464   0.725  41.052   3.156
25480W        W90465  37.436  39.294   1.832
25481W        W90466  36.161  39.775  14.041
25482W        W90467  44.880  22.548  14.484
25483W        W90468  24.529  22.034   3.048
25484W        W90469   7.136   6.783  14.009
25485W        W90470   6.911  34.440  11.614
25486W        W90471  12.652  32.719   2.254
25487W        W90472  22.120  30.939  10.639
25488W        W90473   1.326   5.286   4.511
25489W        W90474  25.740  27.407  10.247
25490W        W90475  31.435  34.550   1.983
25491W        W90476  22.118  24.659  13.598
25492W        W90477  38.446  30.519   1.343
25493W        W90478  18.354  27.228   1.754
25494W        W90479  25.608  38.374  14.439
25495W        W90480   3.718   2.149  11.589
25496W        W90481  25.405   0.879  14.219
25497W        W90482  34.963  42.298   1.269
25498W        W90483  12.724   4.462  14.297
25499W        W90484  42.402  29.523   5.268
25500W        W90485  23.644  10.363  11.119
25501W        W90486  18.477  11.894  12.923
25502W        W90487  19.705  23.023  13.642
25503W        W90488  25.944  37.330   4.997
25504W        W90489  24.611   0.909  14.858
25505W        W90490  35.410  30.997   2.302
25506W        W90491   4.877   1.073   0.883
25507W        W90492   7.143  41.374   0.052
25508W        W90493  10.689  21.198   0.127
25509W        W90494  25.556  29.055   0.949
25510W        W90495  21.165  21.297   1.352
25511W        W90496  31.780  11.200  13.499
25512W        W90497  39.159   1.394  12.859
25513W        W90498  34.911  23.459   0.002
25514W        W90499  20.214   3.231  10.517
25515W        W90500  44.878   5.320   4.142
25516W        W90501  20.266  25.705  13.475
25517W        W90502  41.204  10.278   4.854
25518W        W90503  18.268  37.631   0.454
25519W        W90504  35.568   0.850   3.719
25520W        W90505  16.487  43.022   1.285
25521W        W90506  40.385   2.847  14.437
25522W        W90507   5.362  29.682  11.542
25523W        W90508  13.071  41.011  11.998
25524W        W90509   7.285   2.670   3.585
25525W        W90510  23.653   8.625   1.237
25526W        W90511   5.130   1.474   4.151
25527W        W90512  43.448   8.751  14.698
25528W        W90513  14.459  21.674  10.679
25529W        W90514  42.050  31.697  14.925
25530W        W90515  18.328   6.782  12.082
25531W        W90516  26.223   6.688   1.823
25532W        W90517  15.387  20.732  10.847
25533W        W90518  27.623   2.501   3.071
25534W        W90519   6.636  39.055   4.255
25535W        W90520  20.292  13.103   2.693
25536W        W90521   9.993  10.916  13.191
25537W        W90522  30.776  32.176  12.652
25538W        W90523  35.230  41.379   0.944
25539W        W90524  19.201  23.985  14.903
25540W        W90525  32.863  19.432   4.511
25541W        W90526  43.881   9.620  13.828
25542W        W90527  40.823  31.029  12.994
25543W        W90528  24.707  10.617   1.309
25544W        W90529  10.145  15.131   1.523
25545W        W90530  39.370   9.434  12.115
25546W        W90531  25.830   7.757   3.180
25547W        W90532  23.040  32.033   4.463
25548W        W90533  28.991   1.787   1.249
25549W        W90534  11.426   3.989   1.451
25550W        W90535  24.903  28.766   0.311
25551W        W90536   2.190  23.921  13.429
25552W        W90537  13.514  33.593  10.717
25553W        W90538  40.370   0.558   3.266
25554W        W90539  14.698  32.596  12.404
25555W        W90540  26.313  44.702   1.773
25556W        W90541  20.338  34.087  13.761
25557W        W90542  28.134  23.986  14.293
25558W        W90543  34.319  17.799   2.383
25559W        W90544  20.184  33.215  11.511
25560W        W90545  26.719  26.525  11.535
25561W        W90546  29.460  34.141  12.912
25562W        W90547   5.086  29.988   9.932
25563W        W90548  28.981  32.443  12.251
25564W        W90549  29.881  39.222  12.857
25565W        W90550   7.162  38.325  12.425
25566W        W90551  31.764   8.092   9.945
25567W        W90552  18.500  34.528   1.797
25568W        W90553  31.771   1.157   5.000
25569W        W90554  36.031   1.619   0.154
25570W        W90555  13.331   5.394   4.507
25571W        W90556   2.431  10.925   4.018
25572W        W90557  27.268  40.938   2.344
25573W        W90558  28.141  35.639   3.749
25574W        W90559   9.157  41.301   3.684
25575W        W90560  20.693  35.419   3.165
25576W        W90561  14.751  35.365   2.754
25577W        W90562  29.580  21.141  13.460
25578W        W90563  41.741  11.820   0.382
25579W        W90564  30.027  32.201   5.072
25580W        W90565  44.409  29.621   0.716
25581W        W90566  13.874   8.708  11.187
25582W        W90567   6.311  25.637  12.449
25583W        W90568  20.654   5.638   3.442
25584W        W90569   0.301   6.731  13.165
25585W        W90570  35.509  44.261  13.276
25586W        W90571  29.723  25.184  14.244
25587W        W90572  37.048  12.603  13.906
25588W        W90573  23.246  17.687   2.530
25589W        W90574  14.918  12.190   4.289
25590W        W90575   2.061   6.552   2.713
25591W        W90576  36.476  35.506   3.924
25592W        W90577  20.165  32.889   3.980
25593W        W90578  18.285  10.098   5.287
25594W        W90579   4.912  20.482   5.079
25595W        W90580  24.030  35.920  14.740
25596W        W90581  30.483  42.884  11.611
25597W        W90582   1.045  32.086  14.514
25598W        W90583  10.410   6.120  10.718
25599W        W90584  33.945   9.271  12.138
25600W        W90585  14.210   7.472  10.664
25601W        W90586   2.266  24.637  13.949
25602W        W90587   5.923  44.711   0.393
25603W        W90588  42.948  10.745   4.587
25604W        W90589  16.306  17.110   4.140
25605W        W90590  13.379   2.300   3.668
25606W        W90591  41.279  37.985  13.960
25607W        W90592  35.897  12.182   2.743
25608W        W90593   8.155  24.147   3.368
25609W        W90594  24.933  40.518   3.658
25610W        W90595   4.069  39.253  12.869
25611W        W90596   9.643  18.555  10.742
25612W        W90597  24.044   9.802   1.132
25613W        W90598  15.675   7.033  13.962
25614W        W90599  23.210  10.263   4.572
25615W        W90600  38.996  31.974   3.651
25616W        W90601  42.388  33.522   4.415
25617W        W90602  38.642   8.983   1.228
25618W        W90603   4.564  29.520  14.745
25619W        W90604   8.355  20.966  13.867
25620W        W90605   3.422  14.160   4.696
25621W        W90606  43.473  38.513  14.862
25622W        W90607  35.020   9.579   2.393
25623W        W90608   5.662   6.868  10.790
25624W        W90609  13.996   8.083   3.431
25625W        W90610  27.210  14.653   4.138
25626W        W90611  30.876  30.236   4.132
25627W        W90612  32.545  44.018   3.579
25628W        W90613  15.745  40.665   4.508
25629W        W90614  27.189   1.197  11.524
25630W        W90615  11.348  26.047   3.761
25631W        W90616  17.020  24.494  12.538
25632W        W90617  26.982  15.312   0.428
25633W        W90618   9.246  39.178   2.339
25634W        W90619  31.631   1.671  10.658
25635W        W90620  38.055  13.286  13.978
25636W        W90621  39.777   4.763   3.177
25637W        W90622  35.283   8.091   0.925
25638W        W90623  20.069   1.839  14.577
25639W        W90624  25.177  28.485  14.464
25640W        W90625  23.531   6.847  11.950
25641W        W90626  35.111  25.495  12.582
25642W        W90627  31.375   6.236   2.128
25643W        W90628  16.713  42.487  11.894
25644W        W90629  22.966  33.354  11.084
25645W        W90630  41.959  34.669   0.267
25646W        W90631  10.283  30.634   4.621
25647W        W90632  42.909  25.049   2.149
25648W        W90633  31.784  35.045   3.136
25649W        W90634   5.331  40.939   0.386
25650W        W90635  44.949   1.927  11.448
25651W        W90636   9.359  30.670  12.554
25652W        W90637  19.246  23.790  13.160
25653W        W90638   1.926  10.820  10.843
25654W        W90639  21.512  36.340   2.193
25655W        W90640  23.424  14.027   4.075
25656W        W90641  14.131  12.473   9.889
25657W        W90642   6.738   2.645   2.863
25658W        W90643   1.766  24.976   1.800
25659W        W90644  44.800  10.129   2.247
25660W        W90645   7.483  40.242  12.422
25661W        W90646  37.863  36.277   4.643
25662W        W90647  12.651  14.068  13.947
25663W        W90648  10.148   2.419   1.311
25664W        W90649  15.911  36.445   2.259
25665W        W90650  20.937   2.753  14.312
25666W        W90651  11.633  35.275  10.593
25667W        W90652   0.345  16.819   3.285
25668W        W90653  21.220  42.709   1.403
25669W        W90654   8.216  10.615   1.339
25670W        W90655  25.443  36.631   3.538
25671W        W90656  18.026  22.158  11.260
25672W        W90657   3.308  22.085   0.019
25673W        W90658   9.307  39.100   0.442
25674W        W90659  21.816  13.129   1.380
25675W        W90660  21.839  14.384  14.142
25676W        W90661  21.949   4.254  12.151
25677W        W90662  33.434   1.480   1.338
25678W        W90663  15.540   3.798  13.461
25679W        W90664  15.175  29.696  14.759
25680W        W90665  25.677  32.546  14.720
25681W        W90666  25.068  40.741   3.206
25682W        W90667  24.940  22.032   4.871
25683W        W90668  35.788  29.727  13.291
25684W        W90669   1.746  32.928   3.160
25685W        W90670  23.017  18.763  12.099
25686W        W90671  25.491  22.149   4.624
25687W        W90672  35.541   1.840  12.532
25688W        W90673  27.694  24.766   1.840
25689W        W90674  30.729   9.679   4.202
25690W        W90675   9.643   7.690  14.745
25691W        W90676  15.330  30.969  13.874
25692W        W90677  10.919  33.103   1.434
25693W        W90678   0.926  15.739   2.629
25694W        W90679  44.201  22.056   0.158
25695W        W90680  12.169  38.997  14.045
25696W        W90681  33.441   9.266   2.165
25697W        W90682  39.088  17.026  10.787
25698W        W90683  30.868  17.264   0.804
25699W        W90684  22.994  25.418  10.643
25700W        W90685  35.150  28.893  12.002
25701W        W90686  35.803  30.539  11.209
25702W        W90687  39.316  23.494   4.382
25703W        W90688  38.877  43.891  14.933
25704W        W90689  24.195  33.518  13.930
25705W        W90690  12.881  25.974  13.558
25706W        W90691  14.382  37.230   2.800
25707W        W90692  36.431  13.406   0.223
25708W        W90693  33.560  15.759   4.099
25709W        W90694  43.339  15.196  13.980
25710W        W90695  11.768  29.685  12.564
25711W        W90696   7.292  13.917   1.324
25712W        W90697  43.625  15.835   1.897
25713W        W90698  41.319  22.303  12.469
25714W        W90699  19.688  33.637  12.132
25715W        W90700  38.384  38.943   4.556
25716W        W90701  17.173  10.144  10.727
25717W        W90702   3.722  17.844  12.500
25718W        W90703  19.745  13.549  14.887
25719W        W90704  11.642  16.621   2.327
25720W        W90705  24.224  12.250  11.926
25721W        W90706  16.115   0.869  10.456
25722W        W90707  44.706  29.061   0.852
25723W        W90708   1.629  26.166  13.855
25724W        W90709   4.346   3.911  11.639
25725W        W90710  16.879  41.608   1.385
25726W        W90711  13.858  43.788   1.863
25727W        W90712  37.289  41.839  10.725
25728W        W90713  16.059  10.668   2.297
25729W        W90714  44.769   9.791  14.416
25730W        W90715   0.175  20.297   0.281
25731W        W90716  16.224  32.423   4.545
25732W        W90717  28.933  29.891  14.299
25733W        W90718  36.874  10.401  11.179
25734W        W90719  20.562  26.486  10.910
25735W        W90720  38.434  20.823   4.580
25736W        W90721  26.208  14.625   2.238
25737W        W90722  29.882  24.545  12.838
25738W        W90723   3.813  17.000  14.072
25739W        W90724  27.528  25.515  10.918
25740W        W90725  27.084  26.203  13.758
25741W        W90726  29.050  41.535   2.342
25742W        W90727  24.646   8.159   1.769
25743W        W90728   7.872   8.673  14.552
25744W        W90729   6.429  44.345  11.911
25745W        W90730  29.460  21.515   0.284
25746W        W90731  18.872  24.869  11.134
25747W        W90732   9.965  20.929  14.394
25748W        W90733  43.363  29.490  12.396
25749W        W90734  17.639  40.774   1.755
25750W        W90735  29.445  32.654  11.525
25751W        W90736  13.049  24.828  10.706
25752W        W90737  24.354   0.981  13.794
25753W        W90738  20.204  30.168   4.527
25754W        W90739  13.000  28.436  10.992
25755W        W90740  15.076  15.784   1.399
25756W        W90741  13.544  25.647  14.117
25757W        W90742  28.041  22.278  10.780
25758W        W90743  24.815  37.543  12.993
25759W        W90744  30.178  23.947   4.691
25760W        W90745  42.278  37.924  13.856
25761W        W90746   8.137  42.294   2.300
25762W        W90747  24.472   5.828  13.939
25763W        W90748  35.182  22.452  13.424
25764W        W90749   5.661   2.248   3.087
25765W        W90750  34.243  31.397   1.852
25766W        W90751   3.421   5.553  11.466
25767W        W90752   2.682  27.607   0.722
25768W        W90753  21.999   8.577  11.867
25769W        W90754  16.340   5.320  11.972
25770W        W90755  24.224  41.964   2.613
25771W        W90756  33.315   5.506   9.949
25772W        W90757   5.803   4.947  11.793
25773W        W90758  10.176  10.720  11.059
25774W        W90759  41.030   8.285  11.494
25775W        W90760  32.366  15.128   2.782
25776W        W90761  16.369  21.431   0.477
25777W        W90762  25.615   5.162  11.620
25778W        W90763   2.318  31.609   2.450
25779W        W90764  15.757  13.830  10.811
25780W        W90765  24.584   8.509   1.296
25781W        W90766  44.751  11.062   4.453
25782W        W90767  11.465  13.644   9.999
25783W        W90768  23.778  43.269  12.523
25784W        W90769  36.534  26.143  12.098
25785W        W90770  32.466   8.122  12.010
25786W        W90771   6.002  35.918  14.784
25787W        W90772  43.459  35.369   9.898
25788W        W90773  17.213  27.458  13.396
25789W        W90774  43.260   9.252  11.158
25790W        W90775  38.471  17.451  10.144
25791W        W90776  32.745  35.786   0.822
25792W        W90777   2.495  41.449   4.288
25793W        W90778  13.329  38.246   2.571
25794W        W90779  43.409  27.014  10.530
25795W        W90780  33.042  18.252   0.249
25796W        W90781   2.314  33.392  14.049
25797W        W90782   5.655  39.035   1.242
25798W        W90783  33.466  11.946   4.022
25799W        W90784  42.842  38.539   3.603
25800W        W90785  32.092  17.802  13.887
25801W        W90786  29.462  38.980   4.496
25802W        W90787   6.895  13.262  14.669
25803W        W90788  26.727  12.704  12.257
25804W        W90789  43.528  16.701   2.657
25805W        W90790  17.511  39.949   3.625
25806W        W90791  32.425  13.702  12.083
25807W        W90792  28.721  20.848   2.664
25808W        W90793   3.456   9.897  13.532
25809W        W90794  43.019  10.549   2.671
25810W        W90795  31.917  24.360  11.960
25811W        W90796  11.551  41.407   1.957
25812W        W90797  25.738   2.887   1.914
25813W        W90798  27.776  20.035   2.668
25814W        W90799  42.280  35.969  10.876
25815W        W90800  28.337  33.055   3.659
25816W        W90801  14.132  31.625  14.419
25817W        W90802  34.634   0.994  11.151
25818W        W90803  12.823  20.270  13.508
25819W        W90804   9.106  36.940   3.647
25820W        W90805  35.064  28.361   4.465
25821W        W90806  34.090  14.843  13.900
25822W        W90807  42.954  25.374  11.917
25823W        W90808  15.817   9.324  12.854
25824W        W90809  29.255  26.972  13.535
25825W        W90810  20.817   0.834   4.290
25826W        W90811  42.823  20.348  14.684
25827W        W90812  24.704  23.146   1.349
25828W        W90813  42.902   7.346  12.393
25829W        W90814  14.215  15.188   3.689
25830W        W90815  10.211  33.686   3.644
25831W        W90816  19.627   3.278  13.874
25832W        W90817  33.609  10.656   3.620
25833W        W90818  12.366  13.832   0.510
25834W        W90819  14.364  22.171  11.880
25835W        W90820  15.322  10.726  13.977
25836W        W90821   7.310  25.471   4.320
25837W        W90822  43.588  33.813   1.052
25838W        W90823  16.497  42.017   2.276
25839W        W90824  20.483  30.162  10.658
25840W        W90825   1.417   1.380   0.278
25841W        W90826  44.864  40.813   0.273
25842W        W90827  42.980   2.007   1.739
25843W        W90828  44.546  11.627  14.347
25844W        W90829  15.647  14.539   1.746
25845W        W90830  14.337   6.862   5.094
25846W        W90831  13.804   7.089  11.384
25847W        W90832  15.737  14.781  12.692
25848W        W90833  38.842   7.862  13.810
25849W        W90834   1.893  31.116   0.828
25850W        W90835  13.863  37.673   3.250
25851W        W90836  30.035  21.470   1.419
25852W        W90837  29.901  27.091   2.938
25853W        W90838  10.005   4.398   1.304
25854W        W90839  16.278  38.825   3.817
25855W        W90840  28.239  10.740   0.516
25856W        W90841  12.772  26.727   1.206
25857W        W90842  15.078  39.756   2.350
25858W        W90843  13.595  28.638   0.748
25859W        W90844  16.049  28.069   1.639
25860W        W90845   2.922   8.108  11.086
25861W        W90846  33.527   1.960  14.949
25862W        W90847  37.368  31.006  13.544
25863W        W90848  23.205  29.867   3.629
25864W        W90849  23.139   6.352  14.097
25865W        W90850  42.608  18.900   4.560
25866W        W90851  42.803  29.486   1.946
25867W        W90852  12.257   4.451   4.756
25868W        W90853  32.726  37.892  11.104
25869W        W90854  27.661   8.332  13.021
25870W        W90855  11.543  29.367  13.853
25871W        W90856  20.705  33.643   4.201
25872W        W90857   9.459  16.302  10.731
25873W        W90858  40.114  18.571   0.882
25874W        W90859  42.215   4.877   0.499
25875W        W90860  30.306  33.565  13.141
25876W        W90861  38.141   8.125  14.372
25877W        W90862  19.137  39.431  10.668
25878W        W90863  31.532  28.682  12.954
25879W        W90864  15.118  13.976   5.169
25880W        W90865  31.597  36.082  12.026
25881W        W90866  25.121  22.140  10.826
25882W        W90867  18.063   2.656  11.240
25883W        W90868   5.412  16.588  12.241
25884W        W90869   2.737  10.440  14.839
25885W        W90870  22.500   6.278  14.796
25886W        W90871  44.334  31.176   1.799
25887W        W90872  19.658  11.439  11.174
25888W        W90873  10.388  43.537   3.343
25889W        W90874  24.461  27.420  11.148
25890W        W90875  42.022  11.214  11.925
25891W        W90876   4.712  22.490  14.942
25892W        W90877  10.114  39.503   2.958
25893W        W90878  10.835  38.097   2.732
25894W        W90879  31.502   7.646   3.669
25895W        W90880  37.735  23.603  12.947
25896W        W90881  21.838  30.548  14.888
25897W        W90882  33.861  34.030  14.343
25898W        W90883  41.480  39.837   0.020
25899W        W90884  11.926  42.605   2.202
25900W        W90885  21.755   0.966   4.063
25901W        W90886  24.900  16.836  13.750
25902W        W90887  20.439  13.309   0.437
25903W        W90888  32.721  11.841   1.356
25904W        W90889  32.845  38.822  13.586
25905W        W90890  33.982  15.589  11.708
25906W        W90891  15.605  12.840   4.989
25907W        W90892  29.150   1.437  14.386
25908W        W90893   8.326   1.415   2.263
25909W        W90894   5.495  41.448  12.328
25910W        W90895  20.011   4.912  14.283
25911W        W90896  12.586  41.299   1.129
25912W        W90897  23.761  18.134  13.393
25913W        W90898  33.390   0.259   0.973
25914W        W90899   5.097  41.341   1.749
25915W        W90900   9.687  34.623   4.582
25916W        W90901  25.609  17.285  14.922
25917W        W90902  22.431  11.448   0.028
25918W        W90903  10.956  20.172   3.186
25919W        W90904  22.384  24.678  12.341
25920W        W90905  30.307  36.373  13.627
25921W        W90906  32.594  19.725   2.771
25922W        W90907  10.918  35.134  13.800
25923W        W90908   2.627   1.926   5.092
25924W        W90909  21.175   9.470   4.482
25925W        W90910   3.782  42.082  12.117
25926W        W90911  17.145  38.287   1.985
25927W        W90912  29.614  35.192  12.813
25928W        W90913  30.675  23.926  11.841
25929W        W90914  35.852   3.876   2.427
25930W        W90915  44.721  26.133   0.609
25931W        W90916  29.028   5.716  14.492
25932W        W90917   4.568  37.366   4.365
25933W        W90918   4.079  11.804   2.935
25934W        W90919  14.295   0.600   2.657
25935W        W90920   5.948  30.531   1.168
25936W        W90921  27.881   4.552   4.672
25937W        W90922  21.930  33.866   3.614
25938W        W90923  20.350  15.291   1.604
25939W        W90924  25.424  29.179  12.079
25940W        W90925  18.504  23.938  10.957
25941W        W90926  41.135  27.885  13.948
25942W        W90927  14.132  32.764   1.005
25943W        W90928  33.108  32.190  11.247
25944W        W90929  22.171  37.759   1.888
25945W        W90930   6.199   7.647  11.999
25946W        W90931  35.428  36.365   3.868
25947W        W90932  11.225  22.295   0.871
25948W        W90933  39.017   4.464   0.521
25949W        W90934  41.797  26.552  12.067
25950W        W90935   2.679  29.129  11.078
25951W        W90936   1.579  34.947  10.776
25952W        W90937  26.557  15.618  12.860
25953W        W90938   7.686  36.608   2.723
25954W        W90939  29.508  14.361   1.748
25955W        W90940  41.363  20.878   5.467
25956W        W90941  43.363  13.291   0.467
25957W        W90942  39.595  42.067  13.156
25958W        W90943  30.673  16.180  12.490
25959W        W90944   3.249  27.613  11.112
25960W        W90945   7.926  30.902  11.966
25961W        W90946   7.957  37.733   1.262
25962W        W90947  39.817   7.654  11.697
25963W        W90948  31.143   5.300   2.308
25964W        W90949  39.105   0.860   4.141
25965W        W90950  39.733  15.792   2.317
25966W        W90951  11.902  41.975   2.731
25967W        W90952  38.062  23.015  14.211
25968W        W90953   0.717  37.548  11.490
25969W        W90954  21.038  35.396  14.645
25970W        W90955  23.053  18.133   3.294
25971W        W90956  10.675  29.518   1.675
25972W        W90957  28.210  35.002  12.017
25973W        W90958  36.320  41.013   2.447
25974W        W90959  19.144  42.923  10.709
25975W        W90960  34.507   1.678  12.962
25976W        W90961  32.174  35.188   4.075
25977W        W90962  36.613  22.324   0.431
25978W        W90963  19.639  12.130   0.369
25979W        W90964   8.874  12.380   4.247
25980W        W90965  10.386  22.056   4.525
25981W        W90966  36.446  29.526  11.403
25982W        W90967  31.163  20.106   1.485
25983W        W90968  11.185  34.092  11.062
25984W        W90969   5.232  37.123  14.707
25985W        W90970   3.184  26.243   0.759
25986W        W90971  28.599  21.462   4.576
25987W        W90972   6.747   6.898   0.519
25988W        W90973  39.365  43.554   4.252
25989W        W90974  34.476   9.762  10.655
25990W        W90975   9.256  13.816   2.139
25991W        W90976  36.517  21.121  10.586
25992W        W90977  35.945  10.614  13.823
25993W        W90978  39.245  44.265   3.675
25994W        W90979  29.094   1.316  12.853
25995W        W90980   8.294  43.936   1.741
25996W        W90981  21.814  35.446   0.687
25997W        W90982  44.794  42.597   2.792
25998W        W90983  40.386  37.103  13.975
25999W        W90984  35.560  20.699   0.403
26000W        W90985  21.724  11.428   0.506
26001W        W90986  32.096  32.672   4.384
26002W        W90987  10.384  41.920   1.290
26003W        W90988   1.244   4.051   2.331
26004W        W90989  13.126   3.575  10.815
26005W        W90990  30.142   0.306  11.601
26006W        W90991  33.457  21.853  10.692
26007W        W90992   3.950  31.742   9.944
26008W        W90993  12.755  22.447   0.119
26009W        W90994  30.973   6.389   0.774
26010W        W90995  21.146  26.258  14.727
26011W        W90996   9.204  15.868  10.669
26012W        W90997  21.959  36.962  11.564
26013W        W90998  12.652  24.132  12.457
26014W        W90999  11.830  33.233   0.789
26015W        W91000   4.515  27.266   4.676
26016W        W91001  23.575  28.132   4.079
26017W        W91002  43.861  14.918   3.975
26018W        W91003  24.167  41.037   2.831
26019W        W91004  18.558  29.002   1.624
26020W        W91005  22.400   6.208   3.356
26021W        W91006   7.741  26.161   4.236
26022W        W91007   9.558   8.035  12.837
26023W        W91008  38.002  11.464  12.478
26024W        W91009  39.102  37.372  14.873
26025W        W91010   7.918  33.159   2.572
26026W        W91011  34.601  44.777   3.854
26027W        W91012  37.574   0.025   4.270
26028W        W91013  22.572  23.933   1.904
26029W        W91014  19.301  11.833   4.532
26030W        W91015  27.435  31.450  13.385
26031W        W91016   9.039   2.979  11.048
26032W        W91017  36.373  29.189   4.789
26033W        W91018  29.992  12.327  10.448
26034W        W91019  30.838   9.136  14.912
26035W        W91020   9.221  21.898  13.212
26036W        W91021  37.153  17.620   0.680
26037W        W91022  22.662  42.073  13.861
26038W        W91023  39.466  15.930  11.593
26039W        W91024  16.161  15.226  14.399
26040W        W91025   5.688   4.117  12.382
26041W        W91026   3.197  32.411   1.223
26042W        W91027  16.549  12.203  13.630
26043W        W91028  14.384  44.476  14.446
26044W        W91029  40.159  17.436  11.877
26045W        W91030  23.038   5.553  12.804
26046W        W91031  28.008  32.321   0.572
26047W        W91032   2.668  31.414   0.462
26048W        W91033  26.710  29.129   2.785
26049W        W91034  34.021  30.895   0.626
26050W        W91035  13.993   4.748  13.782
26051W        W91036  17.353   7.852  11.971
26052W        W91037  33.735  35.423   2.325
26053W        W91038  28.050  10.382   2.801
26054W        W91039  38.488   3.751   0.883
26055W        W91040  36.312  12.779  10.976
26056W        W91041  28.215  11.816  13.592
26057W        W91042   5.109  25.212   1.730
26058W        W91043  19.529  25.682  10.649
26059W        W91044  12.250  37.872   3.791
26060W        W91045  38.943  28.135  13.510
26061W        W91046  15.159  44.340  11.588
26062W        W91047   3.728  17.781  14.391
26063W        W91048  26.113  10.896   3.233
26064W        W91049  12.528  35.990  13.326
26065W        W91050  36.440  31.856  12.300
26066W        W91051  17.500  19.175  13.032
26067W        W91052  25.290  28.454  10.776
26068W        W91053   0.576  33.555   0.275
26069W        W91054  41.308  27.564  12.117
26070W        W91055  16.853  39.448   0.343
26071W        W91056  31.870  27.075   0.257
26072W        W91057   5.442  30.318  12.868
26073W        W91058   7.930  40.059  12.615
26074W        W91059  25.955  18.176  13.734
26075W        W91060   1.204  29.151  14.539
26076W        W91061  34.161  27.421  14.007
26077W        W91062  44.625   5.626  13.819
26078W        W91063  28.578  14.568  13.356
26079W        W91064  43.474  31.994  11.152
26080W        W91065  14.419  33.054   1.335
26081W        W91066  34.509   3.706  14.733
26082W        W91067  24.156  16.308  14.245
26083W        W91068  15.174   4.267  11.069
26084W        W91069  19.295  12.607  10.330
26085W        W91070  24.082  16.904  12.496
26086W        W91071  18.348  24.720   4.254
26087W        W91072  44.176  36.580  14.357
26088W        W91073  41.968  15.725   3.706
26089W        W91074  10.195  44.366  13.847
26090W        W91075  30.451  44.896  11.452
26091W        W91076   1.454  41.970  13.089
26092W        W91077  28.648   5.713   3.862
26093W        W91078  27.220   8.220   3.131
26094W        W91079  17.552  11.318  14.317
26095W        W91080  30.490  32.083   2.133
26096W        W91081  16.561  40.275   0.956
26097W        W91082  14.160  39.896   3.263
26098W        W91083  11.833  37.165   0.431
26099W        W91084  39.800  41.134  10.743
26100W        W91085  37.978  31.591  10.641
26101W        W91086  33.017  20.741  13.950
26102W        W91087  10.665  34.864   4.028
26103W        W91088  28.549   6.484   3.189
26104W        W91089  21.622  12.043   2.434
26105W        W91090  17.363  22.069  12.994
26106W        W91091   5.990   0.820  13.858
26107W        W91092  43.330  37.999   3.421
26108W        W91093  14.907  25.967  13.401
26109W        W91094  17.231  23.173  13.198
26110W        W91095  31.464  15.325  10.586
26111W        W91096  12.619  25.997   0.425
26112W        W91097  37.260  16.180  12.415
26113W        W91098   3.659  28.159   1.765
26114W        W91099  25.568  22.154   2.124
26115W        W91100   3.857  26.859   0.861
26116W        W91101   3.328  21.586   3.802
26117W        W91102  14.752  24.290  11.943
26118W        W91103  11.587  34.814  13.354
26119W        W91104   0.905  21.338   0.053
26120W        W91105  16.720  24.614  14.737
26121W        W91106  15.625  38.301   1.390
26122W        W91107  27.385   3.489  12.830
26123W        W91108  15.156  26.067   4.584
26124W        W91109  13.320  11.078   0.113
26125W        W91110  44.285  22.797  14.458
26126W        W91111  14.795  35.579   3.253
26127W        W91112  42.915   7.147   4.148
26128W        W91113  13.742  41.909  10.595
26129W        W91114  20.037  26.450   2.404
26130W        W91115   2.592  34.886  11.631
26131W        W91116  12.601   5.558   3.384
26132W        W91117  24.648  41.823   1.777
26133W        W91118  42.369  31.111  13.855
26134W        W91119  26.605  27.946   0.352
26135W        W91120  31.633  28.968  12.007
26136W        W91121  23.870  43.130   5.199
26137W        W91122   7.058  17.426  11.581
26138W        W91123  41.461  10.912  12.840
26139W        W91124  11.786  26.148  11.982
26140W        W91125  23.262  21.451   9.949
26141W        W91126  39.460   8.093  12.459
26142W        W91127  44.874  39.392   0.944
26143W        W91128  38.824  40.155  10.240
26144W        W91129  39.384  40.962  13.497
26145W        W91130  32.061  27.451  11.564
26146W        W91131   7.743  20.580  12.011
26147W        W91132  26.034  19.738   2.068
26148W        W91133  18.156  30.931   2.275
26149W        W91134  12.406  38.665  12.917
26150W        W91135  15.095   0.036  12.177
26151W        W91136  34.064  32.054  12.205
26152W        W91137   3.637  16.238  11.561
26153W        W91138  17.279  37.775  12.906
26154W        W91139  32.951  22.464   3.835
26155W        W91140   1.323   0.453  10.913
26156W        W91141  17.372  19.095  14.887
26157W        W91142  29.590  41.157  11.574
26158W        W91143   8.885   6.683   2.876
26159W        W91144  24.781  17.523  11.657
26160W        W91145  35.951   9.153  12.869
26161W        W91146  36.001  39.601   3.196
26162W        W91147  13.721  23.271   3.352
26163W        W91148  13.582  26.014   1.872
26164W        W91149  31.563  14.522   3.779
26165W        W91150  16.561  20.031  13.074
26166W        W91151  14.051  12.831  14.318
26167W        W91152  40.844  23.526  11.629
26168W        W91153   9.679  19.627   0.033
26169W        W91154  29.497   6.197  11.550
26170W        W91155  18.678  19.747  14.057
26171W        W91156  29.162  25.540  13.464
26172W        W91157   6.748  31.783  12.036
26173W        W91158  24.402   5.438  14.799
26174W        W91159  27.126   1.219  12.409
26175W        W91160  31.485  35.849   0.673
26176W        W91161   5.934  22.442   2.316
26177W        W91162   5.229  18.629  13.408
26178W        W91163   9.387   9.927   0.010
26179W        W91164  38.908   0.292   4.273
26180W        W91165  42.052  26.686  14.605
26181W        W91166   2.179  30.148  13.816
26182W        W91167  26.599  44.607  10.163
26183W        W91168  42.849  20.044   2.164
26184W        W91169  16.423   5.709   2.617
26185W        W91170  19.610  30.053   3.671
26186W        W91171  27.909   8.631   2.693
26187W        W91172  16.295  17.053  12.561
26188W        W91173  26.078  42.531  10.580
26189W        W91174  17.788   1.074   3.878
26190W        W91175  29.684  25.607  14.562
26191W        W91176  25.177  31.540  14.974
26192W        W91177  32.869  42.087   0.480
26193W        W91178  44.995  11.928  10.761
26194W        W91179  11.550  12.281   2.511
26195W        W91180  27.618  28.588  14.523
26196W        W91181   6.357  44.425  12.399
26197W        W91182  13.096   5.435   4.060
26198W        W91183  21.926  39.512  10.882
26199W        W91184  20.966   6.548   2.472
26200W        W91185  10.643  43.955  14.877
26201W        W91186  16.529  36.901  10.375
26202W        W91187  16.614  31.603   3.894
26203W        W91188  32.391  42.250   0.708
26204W        W91189  43.934  16.763   1.904
26205W        W91190  31.443  30.875  13.344
26206W        W91191   3.688  23.749   3.043
26207W        W91192  12.253  16.199  10.754
26208W        W91193  16.547  18.723  11.481
26209W        W91194  15.111  31.356  14.885
26210W        W91195  18.644   5.231  12.496
26211W        W91196   0.956  34.978   3.617
26212W        W91197   0.353  12.697  10.391
26213W        W91198   1.767   9.752  11.558
26214W        W91199   4.148   4.679  11.070
26215W        W91200   7.826  30.765  13.862
26216W        W91201   6.320  34.354  14.220
26217W        W91202  30.466  11.585  13.464
26218W        W91203  22.187  32.334  14.378
26219W        W91204   0.286  42.036  14.335
26220W        W91205  33.556  34.147  10.969
26221W        W91206  14.152   9.345   2.682
26222W        W91207   4.475  40.492   0.792
26223W        W91208  16.183  32.073  13.061
26224W        W91209  18.970  22.679   4.100
26225W        W91210   0.877  32.440  11.251
26226W        W91211  17.225  42.904   3.397
26227W        W91212   2.372  44.940   1.483
26228W        W91213  26.252  43.439  11.497
26229W        W91214   2.414  43.149  11.204
26230W        W91215  44.845  11.593   4.452
26231W        W91216  42.244  34.594   3.262
26232W        W91217  13.007  44.489   0.395
26233W        W91218  40.136  36.907  12.487
26234W        W91219   8.868  25.813  13.201
26235W        W91220  34.763  23.725  10.699
26236W        W91221  17.059   1.366  12.997
26237W        W91222  42.908  28.630   2.951
26238W        W91223  13.159  24.450  13.072
26239W        W91224  20.734  38.140   1.284
26240W        W91225  30.652  34.615  14.292
26241W        W91226  31.890   4.630  11.547
26242W        W91227   3.918   0.548   4.204
26243W        W91228  33.615  13.826   1.049
26244W        W91229  17.617  11.403  11.531
26245W        W91230  15.826  41.198   4.502
26246W        W91231  36.166  26.225   0.358
26247W        W91232  35.871  41.562   4.929
26248W        W91233  14.857  25.637   0.769
26249W        W91234  26.869  12.200  11.265
26250W        W91235  43.288   8.679  12.539
26251W        W91236  11.332  10.160   3.728
26252W        W91237  41.261  26.249   9.836
26253W        W91238   8.891  18.008   4.282
26254W        W91239   0.548   9.130   4.281
26255W        W91240   7.554  13.659  11.971
26256W        W91241   7.166  15.039  14.330
26257W        W91242  34.549  15.130  14.335
26258W        W91243   7.700   2.913   3.751
26259W        W91244  25.476  18.031  11.614
26260W        W91245  12.351   1.997  12.272
26261W        W91246  16.401  25.938   3.677
26262W        W91247   5.699  19.683   3.667
26263W        W91248   3.096  13.589   0.458
26264W        W91249  41.322  40.258   2.758
26265W        W91250   4.690   1.450   0.070
26266W        W91251   9.242  13.718  14.758
26267W        W91252  29.715   4.015  12.266
26268W        W91253  19.719  17.229   3.591
26269W        W91254  39.807  15.230  11.077
26270W        W91255   0.745   2.690   0.364
26271W        W91256  30.462  33.972   4.195
26272W        W91257  25.123  16.474   2.488
26273W        W91258  42.805  10.628   0.460
26274W        W91259  12.515   0.487   0.839
26275W        W91260  27.611   9.226   1.515
26276W        W91261  38.237  22.808  14.952
26277W        W91262  28.071   5.874   1.874
26278W        W91263   7.320  27.114  10.751
26279W        W91264  38.549  22.267  12.035
26280W        W91265  32.931  38.104  14.284
26281W        W91266  12.615   3.744   0.421
26282W        W91267   0.685  38.344   4.175
26283W        W91268  12.346   0.343  12.148
26284W        W91269  34.940  42.316   4.199
26285W        W91270   3.816  15.693   2.272
26286W        W91271  16.011  32.923  14.635
26287W        W91272  26.231  43.456   3.887
26288W        W91273  36.074   0.527  13.587
26289W        W91274  32.944  28.526  14.387
26290W        W91275  29.258  20.287   0.209
26291W        W91276  38.051  41.898  12.074
26292W        W91277  18.694  22.761   4.551
26293W        W91278  16.065   1.313  12.928
26294W        W91279  19.751  26.541   3.757
26295W        W91280  25.709  29.433  13.308
26296W        W91281  27.138  40.958   1.846
26297W        W91282  22.937  17.200  12.903
26298W        W91283  24.027  25.325   9.773
26299W        W91284  20.338   9.591  12.182
26300W        W91285  26.930  39.030   2.654
26301W        W91286  40.455  23.457  13.559
26302W        W91287   7.090   2.409   3.189
26303W        W91288  34.369  37.046   3.102
26304W        W91289  36.937  36.028  13.636
26305W        W91290   9.243  44.063   4.947
26306W        W91291  21.229  24.557   2.568
26307W        W91292  13.054  44.408   4.371
26308W        W91293  10.382  31.545   1.314
26309W        W91294  14.171  34.432   3.357
26310W        W91295  24.029   6.956   3.195
26311W        W91296  27.891   3.352   1.786
26312W        W91297   7.827   4.758  13.616
26313W        W91298  22.534  13.630   2.143
26314W        W91299  33.326   8.983  13.841
26315W        W91300   3.331  44.999  13.372
26316W        W91301   3.737  13.608  13.959
26317W        W91302  35.503  41.262   3.080
26318W        W91303   4.751  17.778   2.785
26319W        W91304  11.934  26.548  14.779
26320W        W91305  41.065  30.349   3.669
26321W        W91306  37.484  13.624  12.884
26322W        W91307  24.485  30.353   3.520
26323W        W91308  44.670   0.520   4.257
26324W        W91309  18.459  42.708  10.443
26325W        W91310  15.123   3.417   1.943
26326W        W91311  37.872  33.004  11.440
26327W        W91312  43.814  10.623  10.700
26328W        W91313   3.651  14.679  13.354
26329W        W91314   8.763  12.327   1.995
26330W        W91315  25.337   8.862   2.871
26331W        W91316  26.309  30.366  10.269
26332W        W91317  30.736  41.973   4.110
26333W        W91318  21.567  18.740   0.333
26334W        W91319   5.162  38.920   1.129
26335W        W91320   4.470   6.912   2.430
26336W        W91321  21.605   7.840   2.687
26337W        W91322  21.976  15.274   2.866
26338W        W91323  15.815  38.033  12.573
26339W        W91324  40.318  20.708   5.000
26340W        W91325  44.144  41.390   3.886
26341W        W91326  32.005  38.608   1.450
26342W        W91327  44.827  43.557  10.935
26343W        W91328  42.592   5.338   1.934
26344W        W91329  43.345  13.753  12.934
26345W        W91330   0.001   1.487   0.369
26346W        W91331   0.875  15.533   1.745
26347W        W91332  38.459  14.948   3.269
26348W        W91333  25.658  28.092   0.435
26349W        W91334  10.386  22.816   0.845
26350W        W91335  39.411  34.362   1.297
26351W        W91336  33.022  32.649  11.611
26352W        W91337  41.431  41.047   2.368
26353W        W91338   2.260  15.635   2.055
26354W        W91339  12.804   8.635   2.696
26355W        W91340  36.864   9.357  13.075
26356W        W91341  25.853  42.060  11.586
26357W        W91342  36.833  33.612   2.297
26358W        W91343  19.664  17.876   0.800
26359W        W91344  28.124  25.684  14.445
26360W        W91345  14.282   7.796  14.488
26361W        W91346  19.147  22.689  10.666
26362W        W91347  31.054  14.792  12.084
26363W        W91348   5.803   0.997   4.307
26364W        W91349  37.860  35.943  11.389
26365W        W91350  33.074  18.752  14.951
26366W        W91351  22.462   4.485  14.731
26367W        W91352   1.491  36.725  11.968
26368W        W91353  33.414  26.908  13.997
26369W        W91354  13.099  20.778  12.554
26370W        W91355  10.849  39.943   0.354
26371W        W91356  39.889  21.888  12.113
26372W        W91357  13.689  40.272  12.946
26373W        W91358   7.667   9.369  12.978
26374W        W91359  37.011  39.751   4.112
26375W        W91360  32.915  34.532   0.756
26376W        W91361  44.423  37.037   4.280
26377W        W91362  11.007   8.165  13.782
26378W        W91363  36.166  35.295   1.378
26379W        W91364   5.160   5.468   2.982
26380W        W91365  22.740  22.229  10.225
26381W        W91366   6.125  19.845  12.115
26382W        W91367   9.761  15.635   4.929
26383W        W91368  26.536  35.289  10.609
26384W        W91369  27.545  34.823   1.229
26385W        W91370  43.832   6.804  14.509
26386W        W91371  33.683  18.940   2.691
26387W        W91372   8.332  41.528  11.563
26388W        W91373  23.972   0.910   1.803
26389W        W91374  22.680  24.980   4.188
26390W        W91375  29.134  44.335  12.623
26391W        W91376  36.830  12.825   1.955
26392W        W91377  42.916   5.416   0.449
26393W        W91378  22.301  39.982   2.542
26394W        W91379   7.424  21.533  10.547
26395W        W91380   6.328  34.860  10.756
26396W        W91381  41.835  11.077  11.406
26397W        W91382   9.953  18.577  13.835
26398W        W91383  11.912   0.954  10.650
26399W        W91384   3.323  23.241   2.751
26400W        W91385  18.535  22.764  10.246
26401W        W91386   9.671   0.289   0.202
26402W        W91387  43.509   7.668   3.240
26403W        W91388   1.444  43.966  12.872
26404W        W91389  22.752  34.955   1.395
26405W        W91390   8.834  39.902  13.119
26406W        W91391   9.878   8.336   0.093
26407W        W91392  42.727  43.343   1.211
26408W        W91393   8.866   8.346   2.592
26409W        W91394  13.738  24.777  11.367
26410W        W91395   2.837  41.817   1.093
26411W        W91396   5.145  31.958   3.278
26412W        W91397  27.394  43.323   0.759
26413W        W91398   4.851  29.554  12.377
26414W        W91399  11.443  19.878  13.382
26415W        W91400  22.478  12.760   2.714
26416W        W91401  34.567  31.543  14.469
26417W        W91402  43.190   8.292   2.341
26418W        W91403  17.560  12.183   3.354
26419W        W91404   6.643   1.386  13.984
26420W        W91405  33.899  12.955  11.159
26421W        W91406  25.926  33.927  13.809
26422W        W91407  32.191  11.110   0.264
26423W        W91408  17.315  39.396  10.763
26424W        W91409  29.897  26.718  12.982
26425W        W91410  10.228  38.966   1.631
26426W        W91411  23.154   0.420   4.507
26427W        W91412  29.235   9.245  12.088
26428W        W91413  22.064  14.889   0.518
26429W        W91414  13.686   6.235   2.079
26430W        W91415   1.487   4.281  14.543
26431W        W91416  32.467  22.222   0.298
26432W        W91417  30.700  14.702  10.590
26433W        W91418  20.742  38.435   0.812
26434W        W91419  25.972  19.641  13.814
26435W        W91420   1.132  25.220  13.111
26436W        W91421  42.281   4.724   3.951
26437W        W91422  34.094  15.497   2.289
26438W        W91423   7.594   7.700  13.161
26439W        W91424  26.985  19.188  13.009
26440W        W91425   8.963  43.219  11.135
26441W        W91426  27.270  12.339  11.660
26442W        W91427  21.188  37.284  14.479
26443W        W91428  36.120   1.555  13.329
26444W        W91429  36.588   1.787  11.528
26445W        W91430  23.731   4.813   0.340
26446W        W91431  44.999   1.823  12.485
26447W        W91432  33.734   2.500  13.878
26448W        W91433  31.899  21.542  14.887
26449W        W91434  39.918  15.845  12.019
26450W        W91435   8.620  41.696  14.642
26451W        W91436  25.386  17.197  14.453
26452W        W91437   6.573  14.739  11.631
26453W        W91438  20.482  13.183   4.983
26454W        W91439  25.701   1.395  12.828
26455W        W91440  33.550  30.087   2.766
26456W        W91441  29.801  28.045  11.032
26457W        W91442  43.478  32.852   2.369
26458W        W91443   6.422  19.803  10.518
26459W        W91444  38.725  33.982   3.644
26460W        W91445  31.551  44.370   4.301
26461W        W91446  12.930   1.979   2.784
26462W        W91447   7.978  44.621   1.377
26463W        W91448  41.730   5.693   0.270
26464W        W91449  27.847  23.381  14.748
26465W        W91450  18.365  15.674  10.516
26466W        W91451  30.409  38.882   4.638
26467W        W91452  38.977  15.691   3.215
26468W        W91453   9.326  13.116   4.061
26469W        W91454  29.108  12.603  11.878
26470W        W91455  23.389  34.058   3.690
26471W        W91456  28.891  11.174  10.515
26472W        W91457  26.581  41.037  11.721
26473W        W91458  27.048  15.604   4.688
26474W        W91459  39.019   1.304  14.614
26475W        W91460   4.753   8.889  11.971
26476W        W91461  32.568   3.516   9.959
26477W        W91462  20.052  23.012  11.879
26478W        W91463  33.370  10.195   1.347
26479W        W91464  19.597  34.927  11.322
26480W        W91465  39.256  40.252  12.941
26481W        W91466  11.773  21.258  14.403
26482W        W91467  31.222  19.177   3.567
26483W        W91468  17.811   4.879  14.911
26484W        W91469  20.416  38.601  13.367
26485W        W91470  32.567  44.249  11.063
26486W        W91471  29.735   1.740   2.754
26487W        W91472   9.891  21.259   1.715
26488W        W91473   8.631  12.617  12.863
26489W        W91474   9.839  41.701  13.516
26490W        W91475  26.392   9.660   0.224
26491W        W91476   8.371  36.575  10.640
26492W        W91477  24.495   7.439   5.146
26493W        W91478  31.708  38.687   3.606
26494W        W91479  18.824  29.507  11.961
26495W        W91480  32.945  18.577   1.538
26496W        W91481  35.309  19.616   0.346
26497W        W91482  25.859  40.547   2.708
26498W        W91483  40.376   5.352  13.015
26499W        W91484  40.343  32.626   4.920
26500W        W91485  40.003  36.357  13.597
26501W        W91486  27.079   2.048   4.493
26502W        W91487  44.974   0.557  11.403
26503W        W91488  41.975  15.610  14.958
26504W        W91489   2.709  28.046  13.505
26505W        W91490  24.600  12.705   3.109
26506W        W91491   8.817   1.289  10.770
26507W        W91492  29.002  17.206  13.494
26508W        W91493  37.194   0.854   4.655
26509W        W91494  22.004  15.737  11.693
26510W        W91495  28.464  36.592  11.612
26511W        W91496  41.888  40.849   2.161
26512W        W91497   6.732  18.307   3.564
26513W        W91498  14.093  31.250   1.931
26514W        W91499  13.761   8.639  14.536
26515W        W91500   2.448  33.028   4.274
26516W        W91501  23.239  44.970  12.823
26517W        W91502  40.023   3.786   4.081
26518W        W91503  10.577  37.486  13.251
26519W        W91504  26.907   3.896  14.325
26520W        W91505  41.763  36.932   2.271
26521W        W91506  36.186  40.002   1.328
26522W        W91507  11.138  20.107  12.531
26523W        W91508  13.297   9.340   4.163
26524W        W91509   7.962  36.376  13.972
26525W        W91510  10.660  28.971   3.945
26526W        W91511  36.906  29.920   4.824
26527W        W91512  32.222  30.300   2.359
26528W        W91513  31.911  18.841  13.246
26529W        W91514  33.486   0.518   2.814
26530W        W91515  38.426  43.198   2.120
26531W        W91516  23.751  21.472   2.909
26532W        W91517  41.430  25.335  14.276
26533W        W91518  41.551  40.590  13.838
26534W        W91519  25.596  29.363   3.676
26535W        W91520  28.438  11.411  13.397
26536W        W91521  33.659  19.789   4.122
26537W        W91522  13.622  28.174   0.453
26538W        W91523  21.564  31.522   3.839
26539W        W91524   5.891  38.024   4.082
26540W        W91525  25.610   2.724  12.930
26541W        W91526  31.525  35.818  11.061
26542W        W91527  23.692  17.653  13.159
26543W        W91528  38.717  38.973  14.486
26544W        W91529   1.201  10.240   1.884
26545W        W91530  10.165  39.407   1.914
26546W        W91531   0.305  24.996  11.499
26547W        W91532  22.117  26.139   4.623
26548W        W91533  10.329  34.510  10.348
26549W        W91534  26.140  19.163  13.943
26550W        W91535  28.879   3.934  12.454
26551W        W91536  36.831  19.525   1.478
26552W        W91537  22.001   5.467   2.871
26553W        W91538  40.326  11.857   3.416
26554W        W91539  31.882   3.314  14.668
26555W        W91540  38.039  13.204  10.707
26556W        W91541  25.980  10.772   4.113
26557W        W91542  10.093  12.465   1.773
26558W        W91543  31.503  37.773  12.003
26559W        W91544  28.645  30.042   0.669
26560W        W91545  31.875  41.827  11.767
26561W        W91546  28.619  27.433  12.399
26562W        W91547  39.940   0.296   2.978
26563W        W91548  37.997  13.290   1.315
26564W        W91549  30.197  32.183   0.413
26565W        W91550  36.356   3.025   0.316
26566W        W91551  32.567  40.779   2.268
26567W        W91552  34.443  42.777   0.018
26568W        W91553  24.637  33.139  11.140
26569W        W91554  42.233  38.982  11.951
26570W        W91555  28.577   0.831  10.334
26571W        W91556   2.008  26.597  12.514
26572W        W91557  14.900  43.983   3.193
26573W        W91558  27.976  16.669   4.839
26574W        W91559  34.902  28.376  13.906
26575W        W91560   0.095   9.104   0.849
26576W        W91561  21.265  23.794  14.350
26577W        W91562  28.064   2.092   1.528
26578W        W91563  31.987  40.947   0.005
26579W        W91564   6.295  20.776   3.784
26580W        W91565  40.167  10.675  12.039
26581W        W91566   5.235   4.819   3.099
26582W        W91567  22.643  29.530  12.611
26583W        W91568  12.790  34.591   3.678
26584W        W91569  40.049  15.977   2.686
26585W        W91570   3.679  39.321  11.425
26586W        W91571  16.726   6.756  14.903
26587W        W91572  28.352  27.904  14.123
26588W        W91573  16.427  44.581  10.116
26589W        W91574  20.216  17.280   3.757
26590W        W91575   9.834  29.297  12.839
26591W        W91576  23.768  29.978  11.681
26592W        W91577  37.803   0.451  12.399
26593W        W91578  31.836  22.383   1.798
26594W        W91579  23.656  10.006   3.613
26595W        W91580  24.639  31.175   2.286
26596W        W91581  24.409   9.858  11.680
26597W        W91582  19.864   6.666   0.826
26598W        W91583  32.967  31.926  13.014
26599W        W91584  22.241  11.905   2.638
26600W        W91585  35.377  25.108   0.276
26601W        W91586   0.713   1.331   2.454
26602W        W91587  16.981  12.197   0.216
26603W        W91588   8.737  41.313  11.976
26604W        W91589   0.124  38.887  12.927
26605W        W91590   7.205  12.304   2.279
26606W        W91591  31.092  14.007   2.359
26607W        W91592  21.024  23.534  11.721
26608W        W91593  13.086  15.661  13.984
26609W        W91594  11.361   7.626  11.615
26610W        W91595  30.056  14.149   0.872
26611W        W91596   7.325  35.550  13.124
26612W        W91597  21.169  21.691  11.568
26613W        W91598  17.196  26.615   2.472
26614W        W91599  38.864   3.427  13.289
26615W        W91600  39.294  23.529  11.398
26616W        W91601  19.143  44.928  10.633
26617W        W91602  25.766  19.170  13.588
26618W        W91603   5.375  14.983   0.471
26619W        W91604   7.238   2.806   2.789
26620W        W91605  14.061  30.202   4.169
26621W        W91606  29.006   6.456   3.563
26622W        W91607  11.445  21.502  14.713
26623W        W91608  22.811  32.345  11.374
26624W        W91609   2.726  11.940   0.942
26625W        W91610  21.961  24.595  11.632
26626W        W91611   5.342  36.658   4.663
26627W        W91612  37.248  33.828   0.129
26628W        W91613  34.333  19.794   1.735
26629W        W91614   2.296  27.993   1.280
26630W        W91615  19.489  41.226   3.774
26631W        W91616  29.082  14.263   4.774
26632W        W91617  42.520  32.986  14.824
26633W        W91618  44.948   1.678  10.422
26634W        W91619  11.375  43.004   2.752
26635W        W91620  32.039  36.452   0.810
26636W        W91621  24.584  40.777  10.738
26637W        W91622  13.293  41.356  11.682
26638W        W91623  24.456  42.622   1.297
26639W        W91624  22.210  24.622  14.115
26640W        W91625  29.495  23.618  10.837
26641W        W91626  24.281  23.714  11.662
26642W        W91627  38.197  33.530   2.801
26643W        W91628  43.376  21.708   1.696
26644W        W91629  23.745  31.066   4.587
26645W        W91630  27.646  42.312  13.371
26646W        W91631   9.664  28.015  13.972
26647W        W91632  41.472  35.648   4.454
26648W        W91633   8.407  34.696   2.927
26649W        W91634  11.877  27.976   3.810
26650W        W91635  16.869   4.681  12.069
26651W        W91636  30.481  38.401  13.098
26652W        W91637  38.361  17.124   5.202
26653W        W91638  12.963  12.697  11.289
26654W        W91639  21.745  11.220   1.854
26655W        W91640   2.902   7.190  10.458
26656W        W91641  35.973  29.985   4.351
26657W        W91642   8.060   7.384   1.415
26658W        W91643  28.926   7.776   3.219
26659W        W91644  38.839   0.333  12.164
26660W        W91645  10.749   1.223   4.334
26661W        W91646  23.643  21.215  12.705
26662W        W91647  44.747  37.620   4.424
26663W        W91648   9.506  22.197   3.712
26664W        W91649   3.705  35.390   0.210
26665W        W91650  41.421  27.002  12.444
26666W        W91651   6.472  20.647  11.547
26667W        W91652  36.431  38.771   0.695
26668W        W91653  18.594   9.202  14.543
26669W        W91654  26.057   9.116  14.047
26670W        W91655   1.354   9.707  13.622
26671W        W91656  34.656  13.348  14.852
26672W        W91657  38.959  16.328  11.151
26673W        W91658  37.385  29.625  10.454
26674W        W91659  20.702  24.589   2.822
26675W        W91660  38.967   6.780   0.431
26676W        W91661   4.115   9.980   3.286
26677W        W91662  30.147   0.423   4.584
26678W        W91663  39.363  10.273   3.991
26679W        W91664  35.041   8.389  12.612
26680W        W91665  15.483  23.555  11.909
26681W        W91666   7.236  28.686  11.679
26682W        W91667  12.256  19.558   4.328
26683W        W91668  43.325  41.096   2.018
26684W        W91669  26.968  38.365  14.955
26685W        W91670  14.376  34.068  13.858
26686W        W91671  44.386  26.136  10.735
26687W        W91672   0.891  44.564  11.551
26688W        W91673  42.890  14.121  13.302
26689W        W91674  25.069  37.397   3.368
26690W        W91675  23.679  37.459   1.949
26691W        W91676  41.858  20.577   4.280
26692W        W91677   6.691   1.336  14.992
26693W        W91678  16.711   5.145   0.797
26694W        W91679  34.116  14.280   1.626
26695W        W91680  38.749  30.321   1.711
26696W        W91681  23.557   6.702  14.253
26697W        W91682  43.876  10.608  13.435
26698W        W91683  31.331  25.471   1.020
26699W        W91684   4.871  43.813  11.646
26700W        W91685  44.523  25.918  13.456
26701W        W91686  39.964  42.747  11.428
26702W        W91687  24.544   7.309   4.627
26703W        W91688  35.530  18.333  14.596
26704W        W91689  42.936  24.187   3.650
26705W        W91690  26.136  34.001   3.063
26706W        W91691  33.541  16.124  10.855
26707W        W91692  36.083  19.539  11.030
26708W        W91693  12.309  26.552  10.239
26709W        W91694  17.230  37.852   0.935
26710W        W91695  20.698   3.957  12.119
26711W        W91696  15.308  20.242   2.160
26712W        W91697   2.962  28.730   2.997
26713W        W91698   9.997  37.063  13.039
26714W        W91699  40.095  26.167   1.958
26715W        W91700  12.226   7.229   4.938
26716W        W91701  34.607  11.636  11.141
26717W        W91702  22.705  38.492  14.962
26718W        W91703   2.489  21.544  10.702
26719W        W91704  28.360  19.254   4.827
26720W        W91705  13.553   1.835   3.844
26721W        W91706   7.198  38.453   3.465
26722W        W91707  30.684  19.531  13.355
26723W        W91708  16.604  37.889  14.387
26724W        W91709  32.844  25.995  11.199
26725W        W91710  26.453  15.956  11.878
26726W        W91711  32.931  23.545   3.257
26727W        W91712   3.701  10.923   1.340
26728W        W91713  27.622  34.906  10.937
26729W        W91714   3.851   2.917   0.244
26730W        W91715  30.894  10.071   2.615
26731W        W91716   6.330  37.294   4.126
26732W        W91717  12.382  43.568  12.543
26733W        W91718  43.400  26.210   4.253
26734W        W91719  30.913  20.075   1.928
26735W        W91720   3.214  39.526  11.266
26736W        W91721  36.489  32.493  10.521
26737W        W91722  28.271   4.699  13.558
26738W        W91723  27.828  21.588   9.665
26739W        W91724   8.217  17.898   2.293
26740W        W91725  31.876  13.643  12.141
26741W        W91726   9.130  32.629  12.965
26742W        W91727  30.923   3.795   2.683
26743W        W91728  17.309  37.565  11.205
26744W        W91729   6.459  18.952   2.018
26745W        W91730  37.382  43.051  11.227
26746W        W91731  25.012   8.534   3.619
26747W        W91732  37.388  31.110   1.675
26748W        W91733  24.207  30.686  11.804
26749W        W91734  22.190  39.306   0.718
26750W        W91735   2.352   0.049   4.246
26751W        W91736  18.484  14.466  13.449
26752W        W91737  14.254  10.008   0.706
26753W        W91738  21.783  34.844   1.341
26754W        W91739  34.119  17.599  14.942
26755W        W91740  26.980  37.585  11.282
26756W        W91741  30.993   9.161  13.947
26757W        W91742  24.604  42.746  13.077
26758W        W91743  25.413  23.996  11.377
26759W        W91744  41.598  31.926  14.921
26760W        W91745  35.671  44.462  13.739
26761W        W91746  17.371  42.505   2.104
26762W        W91747  39.159  43.627   1.882
26763W        W91748  27.959   8.343   3.744
26764W        W91749  10.227   2.392  14.328
26765W        W91750  30.324  34.629   2.776
26766W        W91751  42.538  10.153  14.443
26767W        W91752  30.338  19.059   2.767
26768W        W91753  43.779  21.010   2.314
26769W        W91754   7.991  29.667   3.944
26770W        W91755  13.813  12.433   1.880
26771W        W91756   0.953  13.221   1.027
26772W        W91757   2.673  36.068   3.714
26773W        W91758  13.286  28.438   3.244
26774W        W91759  43.945  42.884  13.984
26775W        W91760  39.472   4.774  12.451
26776W        W91761  33.446  27.914  12.455
26777W        W91762  33.964  14.111   2.470
26778W        W91763  35.300  21.513  13.992
26779W        W91764  24.519  30.660   0.482
26780W        W91765  17.778  39.152  14.876
26781W        W91766  10.745  26.475  14.941
26782W        W91767  29.584  29.840  12.080
26783W        W91768  14.208  40.267  13.139
26784W        W91769  31.474  25.585   4.288
26785W        W91770  35.654  34.877   4.041
26786W        W91771  12.257  44.796  14.346
26787W        W91772  38.038  15.559   1.821
26788W        W91773   0.333  42.827  13.872
26789W        W91774  25.287  15.230  10.526
26790W        W91775  21.284  31.345   1.748
26791W        W91776  13.153  17.274  14.598
26792W        W91777  18.165  19.715   2.171
26793W        W91778   4.650  41.953   1.249
26794W        W91779  22.273  34.974   1.233
26795W        W91780  33.654  30.097   0.280
26796W        W91781  37.362  30.124   4.209
26797W        W91782  28.919   9.970  11.050
26798W        W91783  39.839  39.585   4.117
26799W        W91784   6.259  34.626  10.269
26800W        W91785  14.763  35.047  10.688
26801W        W91786  20.874  28.714   2.658
26802W        W91787  15.696  33.620   1.487
26803W        W91788  36.163  26.665   2.166
26804W        W91789  27.646  21.294   0.935
26805W        W91790  24.821   0.864   3.340
26806W        W91791  19.536  40.921  13.553
26807W        W91792  38.822   0.933   1.017
26808W        W91793  35.363  19.726  12.948
26809W        W91794   8.922  12.129  14.382
26810W        W91795  38.901  11.399   4.258
26811W        W91796  19.304  13.888   3.195
26812W        W91797  32.973   3.946  13.459
26813W        W91798   6.710  11.869  10.488
26814W        W91799  38.548  18.742   2.171
26815W        W91800  19.097  11.595  14.915
26816W        W91801  27.047  35.428  10.665
26817W        W91802  20.396  31.383   1.496
26818W        W91803  38.984  11.551   0.562
26819W        W91804  43.833  20.046   5.544
26820W        W91805  30.709   1.462   5.601
26821W        W91806  13.066  37.803   3.799
26822W        W91807  19.435  26.528   2.922
26823W        W91808   7.946  33.005  10.551
26824W        W91809  43.369  36.607  14.945
26825W        W91810  28.919  16.630   0.235
26826W        W91811   9.791  44.818  11.646
26827W        W91812  10.821  36.940  14.447
26828W        W91813   2.484  27.663  10.725
26829W        W91814  28.655  22.188  12.378
26830W        W91815  29.563  35.713   4.335
26831W        W91816  21.321   1.867   1.849
26832W        W91817  24.085  32.522  14.232
26833W        W91818  16.014  25.193   2.441
26834W        W91819  16.693  13.348  12.015
26835W        W91820  24.023   3.969  13.202
26836W        W91821   6.186  38.312   2.079
26837W        W91822  14.773  44.474  14.095
26838W        W91823  10.216   9.276   0.735
26839W        W91824  16.764  16.836   1.224
26840W        W91825  38.168  24.933   2.833
26841W        W91826  25.699   0.232  12.906
26842W        W91827  30.897  20.414   4.044
26843W        W91828  30.620  15.103   2.926
26844W        W91829  28.877  16.136   1.900
26845W        W91830   1.763  38.646   3.029
26846W        W91831  23.100  22.150  11.566
26847W        W91832  35.206  22.422   2.395
26848W        W91833  11.215  42.364   3.534
26849W        W91834  12.273  29.632  12.021
26850W        W91835  29.148  18.152  13.866
26851W        W91836  26.428  17.121  14.486
26852W        W91837  18.635  11.759   3.742
26853W        W91838   9.626  18.425   1.772
26854W        W91839  26.697  16.714  14.311
26855W        W91840  42.504  39.504  12.424
26856W        W91841  15.574  39.650   2.695
26857W        W91842  28.787   0.325  11.965
26858W        W91843   6.356  25.472  13.445
26859W        W91844  32.567  19.159  11.593
26860W        W91845  32.449   4.665   1.032
26861W        W91846  18.068  33.017   4.198
26862W        W91847  22.968  11.220  11.048
26863W        W91848  21.049   0.692  10.586
26864W        W91849  35.570   4.227  10.837
26865W        W91850  38.520  12.095  12.060
26866W        W91851  41.903  36.837   0.935
26867W        W91852  41.431  16.943  13.373
26868W        W91853  43.038   3.743  13.843
26869W        W91854  43.774  14.112   1.907
26870W        W91855  18.957  15.710   3.038
26871W        W91856  41.328   6.707   0.383
26872W        W91857   9.735  20.117  10.304
26873W        W91858   9.643  19.134  13.642
26874W        W91859   8.928   8.887   3.837
26875W        W91860  43.752  37.476  14.783
26876W        W91861  30.737   6.923   1.303
26877W        W91862  40.051  32.667   2.342
26878W        W91863  43.991  24.108   2.329
26879W        W91864   6.246  33.113  14.637
26880W        W91865  37.568   5.848   3.188
26881W        W91866  30.858  12.835   2.435
26882W        W91867   8.733   6.773   4.484
26883W        W91868  21.010  42.836   4.544
26884W        W91869  42.374   6.101   3.562
26885W        W91870  13.546   5.402   1.977
26886W        W91871   4.347  20.642  10.653
26887W        W91872   0.875  25.457   3.295
26888W        W91873   9.396  38.578  14.524
26889W        W91874   6.670  12.803  14.455
26890W        W91875   7.389  10.295   3.208
26891W        W91876  43.415   8.312   1.196
26892W        W91877  23.144  36.620  14.361
26893W        W91878  37.529  19.242  11.867
26894W        W91879  29.071  20.675   3.617
26895W        W91880  31.048  14.528   3.682
26896W        W91881  11.874   9.586   4.837
26897W        W91882   0.410  28.523   1.214
26898W        W91883  28.367  15.406   4.527
26899W        W91884   0.380  24.043  14.856
26900W        W91885  25.002  20.344   2.943
26901W        W91886   0.747  31.022  11.169
26902W        W91887  34.210  25.759   1.008
26903W        W91888  30.649  24.075   1.180
26904W        W91889  22.718  11.481  13.865
26905W        W91890  44.267  25.441  12.471
26906W        W91891   5.918   3.049   3.228
26907W        W91892  41.902   8.325   0.102
26908W        W91893   9.778   8.902  10.660
26909W        W91894  44.905  26.699   0.966
26910W        W91895  28.272   5.627  11.477
26911W        W91896  31.037  41.969   3.666
26912W        W91897  39.013  25.009   1.254
26913W        W91898  24.416  24.975   1.707
26914W        W91899  41.930  28.485  13.038
26915W        W91900  34.908  23.097  11.400
26916W        W91901  30.023   5.636   1.745
26917W        W91902  41.797  29.012   0.739
26918W        W91903  39.343  31.313   2.286
26919W        W91904  12.359  26.974   2.344
26920W        W91905  37.496  40.296   0.360
26921W        W91906   4.739  14.285   4.669
26922W        W91907   9.185  27.233   3.691
26923W        W91908  33.770  37.369   3.647
26924W        W91909   2.858  11.051   4.271
26925W        W91910  37.172   2.343   4.585
26926W        W91911  11.262  43.796   1.447
26927W        W91912  18.539   0.966   4.921
26928W        W91913   9.312  12.699   4.389
26929W        W91914  12.773  17.100  14.293
26930W        W91915  38.332  22.618   1.853
26931W        W91916   6.286   4.414   1.925
26932W        W91917  20.817   4.621   4.965
26933W        W91918  30.497  25.655   2.777
26934W        W91919   4.031  38.868   1.219
26935W        W91920   5.986   3.102  12.426
26936W        W91921   9.649  43.043   2.028
26937W        W91922  27.651   4.742   1.233
26938W        W91923  32.056  11.398  12.050
26939W        W91924   0.471  29.973   3.526
26940W        W91925  37.678  13.302  11.070
26941W        W91926  40.832  25.412  11.698
26942W        W91927  10.271  21.807  11.020
26943W        W91928  10.664  23.636   1.501
26944W        W91929  30.809  18.729  13.954
26945W        W91930  35.290  16.074  11.066
26946W        W91931  43.793   7.185   3.313
26947W        W91932  25.878  29.878  13.012
26948W        W91933  12.389  12.803   4.155
26949W        W91934  30.362  40.952   1.892
26950W        W91935  16.847  12.777   1.381
26951W        W91936  40.398  36.592  12.153
26952W        W91937   1.919  40.421  10.541
26953W        W91938  28.079  42.019  13.379
26954W        W91939   9.213  27.596   1.181
26955W        W91940  30.458   9.408  13.959
26956W        W91941  15.890  25.083  11.478
26957W        W91942   6.202  10.553   3.284
26958W        W91943  37.546  18.999   2.278
26959W        W91944   1.941  24.868   0.300
26960W        W91945   3.320  21.404  11.225
26961W        W91946   1.174  14.288   2.470
26962W        W91947  15.874   9.704  12.443
26963W        W91948  26.965  32.987   3.408
26964W        W91949   9.660   4.630   3.778
26965W        W91950  20.813  15.057   1.756
26966W        W91951  34.573  26.171   2.696
26967W        W91952   5.926  19.827   4.198
26968W        W91953  41.486   8.493   1.821
26969W        W91954  36.662  10.637  10.750
26970W        W91955  27.545  10.672  10.674
26971W        W91956  16.556  29.439   0.015
26972W        W91957   6.146  34.584   4.629
26973W        W91958  30.672   6.556  11.132
26974W        W91959  42.854  33.603   0.339
26975W        W91960   7.458  39.429   2.156
26976W        W91961  41.961  41.438   4.666
26977W        W91962  12.284   3.154  13.000
26978W        W91963   4.525  42.510   0.132
26979W        W91964  43.715  23.399  10.695
26980W        W91965   2.998   7.887  14.899
26981W        W91966  25.576  29.915   2.777
26982W        W91967   0.897  32.570   1.318
26983W        W91968  32.664  43.957  11.475
26984W        W91969  44.377  26.516   4.204
26985W        W91970  14.849  30.975  14.028
26986W        W91971  37.360  35.426  10.223
26987W        W91972  41.617  42.448  11.595
26988W        W91973  11.333  30.481  12.500
26989W        W91974  15.855   3.774  14.427
26990W        W91975  10.863  20.985  12.912
26991W        W91976  42.064  20.132   0.757
26992W        W91977   0.301   9.259   4.817
26993W        W91978   8.901   4.735  14.956
26994W        W91979   0.068  37.212   1.684
26995W        W91980   4.855   3.921   3.651
26996W        W91981   0.393  26.866   0.803
26997W        W91982  42.000  11.884   4.043
26998W        W91983  39.128   7.385  13.762
26999W        W91984   0.344  12.205  13.059
27000W        W91985  17.403  40.565   1.341
27001W        W91986   4.221  30.979  12.866
27002W        W91987  20.119   8.091  13.054
27003W        W91988   1.776   0.854  14.362
27004W        W91989   5.190  33.439   2.134
27005W        W91990  27.471  12.868   0.446
27006W        W91991   9.242  13.816   4.836
27007W        W91992  27.020  43.243  14.254
27008W        W91993  33.542  11.593   0.058
27009W        W91994  43.838   7.660   1.175
27010W        W91995  26.555  28.987  11.588
27011W        W91996  20.136  13.271   1.728
27012W        W91997  20.711  27.606   5.098
27013W        W91998  24.223  18.115   1.863
27014W        W91999   9.811  33.360   1.443
27015W        W92000  37.483  11.204   3.668
27016W        W92001  19.243  24.165   1.342
27017W        W92002  20.962  36.193   0.577
27018W        W92003  16.695  15.051   1.861
27019W        W92004  42.631  33.813  11.981
27020W        W92005  18.709   9.130   4.089
27021W        W92006  11.333  40.027   0.799
27022W        W92007  25.896  43.038   4.588
27023W        W92008   3.227  41.242   4.937
27024W        W92009   9.973  29.511   0.899
27025W        W92010  20.637   1.194  11.204
27026W        W92011   8.784  21.351   3.740
27027W        W92012  28.128  30.994   2.170
27028W        W92013  19.308  12.607   1.779
27029W        W92014  12.788  25.503   1.730
27030W        W92015   4.312  35.054   2.563
27031W        W92016  41.641   1.716  11.047
27032W        W92017  22.905  37.483  10.700
27033W        W92018  44.636  28.486  10.121
27034W        W92019   8.420  30.931  12.215
27035W        W92020  15.658  28.690   1.251
27036W        W92021   6.233  42.834  11.908
27037W        W92022  10.884   4.815   3.687
27038W        W92023  37.020  27.961  13.295
27039W        W92024  25.730  33.410   1.287
27040W        W92025   2.584   3.440   3.699
27041W        W92026   7.512  18.083   2.855
27042W        W92027  29.499   6.360   0.291
27043W        W92028  13.356  24.187   0.372
27044W        W92029  20.086  12.367   1.313
27045W        W92030  28.102  25.461   1.850
27046W        W92031  36.760  28.752   4.000
27047W        W92032  28.104  14.187  12.897
27048W        W92033  24.158  31.662  14.541
27049W        W92034   6.153  44.486  11.503
27050W        W92035  16.798  34.345  10.666
27051W        W92036   7.103  17.048   3.426
27052W        W92037  43.409   3.415   0.695
27053W        W92038  40.825   4.845  14.792
27054W        W92039  27.789   4.721  13.314
27055W        W92040  20.041  40.939  13.495
27056W        W92041  18.053  13.295   0.475
27057W        W92042  42.267  22.116   1.980
27058W        W92043   6.959  13.619  12.805
27059W        W92044   7.198  44.576  12.468
27060W        W92045  30.538  39.087   1.548
27061W        W92046  34.857  24.477   2.314
27062W        W92047  43.529  37.964   0.323
27063W        W92048   7.786  12.898   5.185
27064W        W92049  36.167  30.907  11.147
27065W        W92050  18.894  15.882   4.013
27066W        W92051  34.966  24.801   0.209
27067W        W92052  33.907   1.698   3.369
27068W        W92053  30.026  20.717   0.758
27069W        W92054  40.321  37.387   3.592
27070W        W92055  24.108  26.175  12.729
27071W        W92056   3.606   0.501   3.166
27072W        W92057  31.584  38.271  14.549
27073W        W92058  20.004  15.953  11.976
27074W        W92059  25.805  28.196  14.959
27075W        W92060   5.797  20.242  12.069
27076W        W92061  27.344  10.329  11.975
27077W        W92062  17.154  42.037   2.812
27078W        W92063  14.383   5.695   0.320
27079W        W92064  43.222  13.515  14.870
27080W        W92065  29.879  20.624   2.676
27081W        W92066  23.459  16.202   1.731
27082W        W92067  21.477   4.970  13.117
27083W        W92068  39.486  16.185   0.078
27084W        W92069  17.363  20.255   0.387
27085W        W92070  11.923  36.494   4.105
27086W        W92071  35.481  12.836  12.635
27087W        W92072  13.803  40.262   3.357
27088W        W92073  15.154   0.050   0.722
27089W        W92074  26.717   4.931   4.166
27090W        W92075  43.727   7.719   0.557
27091W        W92076  27.085  38.864   3.108
27092W        W92077   5.364  35.778  12.409
27093W        W92078  30.110   3.427   4.598
27094W        W92079   2.016  14.554   2.104
27095W        W92080  23.269   0.525  11.135
27096W        W92081  13.600  11.330   2.679
27097W        W92082  36.794  24.140  13.872
27098W        W92083  41.905   3.439  14.801
27099W        W92084  41.032  26.548  10.211
27100W        W92085  10.280  14.079  14.196
27101W        W92086   0.130  35.400   1.131
27102W        W92087  34.459  24.455   3.148
27103W        W92088  14.643  34.046   2.177
27104W        W92089  27.473  19.213   2.361
27105W        W92090  12.164  21.080   4.787
27106W        W92091  42.804   6.867   0.269
27107W        W92092  36.063  34.908  11.915
27108W        W92093  41.102  22.640   2.235
27109W        W92094  33.721   2.949  10.529
27110W        W92095   6.505   6.778   3.157
27111W        W92096  41.861  27.404  12.806
27112W        W92097  20.069  29.648  14.842
27113W        W92098   5.589   2.282   0.851
27114W        W92099  43.227  22.130   0.146
27115W        W92100  37.145  14.054   4.978
27116W        W92101  14.174  19.775   3.725
27117W        W92102  37.466   1.009   2.282
27118W        W92103  15.914   3.610   4.247
27119W        W92104  22.672  16.288   4.739
27120W        W92105   7.249  14.686   4.037
27121W        W92106  36.725  42.396  14.127
27122W        W92107  28.691  21.544  11.623
27123W        W92108   5.639  34.656  13.990
27124W        W92109  41.453  20.246   3.154
27125W        W92110  20.584   9.839  13.046
27126W        W92111  16.077  26.647  12.533
27127W        W92112  42.519  17.024  14.644
27128W        W92113  24.531  44.892  12.482
27129W        W92114  13.230   9.844   3.327
27130W        W92115  21.616  38.005  10.704
27131W        W92116  12.544  16.650  13.440
27132W        W92117  17.140  24.780  10.814
27133W        W92118  15.359   7.640   3.099
27134W        W92119  35.929  39.307  14.011
27135W        W92120  29.819  33.365  13.124
27136W        W92121  20.032   1.405  11.775
27137W        W92122  14.867  14.249   1.586
27138W        W92123  26.153  28.913   4.088
27139W        W92124  25.778  12.844  12.460
27140W        W92125   3.570  24.064   4.519
27141W        W92126  29.439  26.539  15.000
27142W        W92127  23.521  25.686   3.727
27143W        W92128   1.181  30.351  14.303
27144W        W92129  15.165  21.668  11.228
27145W        W92130  39.416  44.834  12.403
27146W        W92131   2.300  24.784  10.576
27147W        W92132  19.531  44.756   2.791
27148W        W92133   2.440   9.881  14.397
27149W        W92134  22.771  14.743  12.584
27150W        W92135  14.433  40.029   1.218
27151W        W92136  32.334  20.969   0.561
27152W        W92137  35.103  29.909   4.657
27153W        W92138  33.174  41.468   4.201
27154W        W92139  14.289  33.543  14.836
27155W        W92140  41.492  36.780  12.564
27156W        W92141  44.891  32.626   1.274
27157W        W92142   7.896   1.966   3.816
27158W        W92143  38.369  25.441  11.886
27159W        W92144  41.499  19.767   1.309
27160W        W92145  18.639  15.693   0.272
27161W        W92146   9.115  40.863  14.312
27162W        W92147  11.759  32.685   0.775
27163W        W92148  20.434   3.665  14.378
27164W        W92149  11.948  35.016  10.909
27165W        W92150  38.942  20.448  14.262
27166W        W92151   5.677   1.678   0.293
27167W        W92152  32.557  22.689   0.532
27168W        W92153  41.870   2.656  12.897
27169W        W92154  35.580   5.186   3.645
27170W        W92155   4.484  35.992   3.256
27171W        W92156  16.363   5.935   1.328
27172W        W92157  18.947  22.370   4.764
27173W        W92158  11.078  44.779   1.166
27174W        W92159  20.457  31.923   0.934
27175W        W92160  36.299  34.068   1.674
27176W        W92161  27.649  39.250   3.268
27177W        W92162  38.100  44.572  12.580
27178W        W92163   6.762  26.989   1.325
27179W        W92164   4.669  25.144  11.483
27180W        W92165   6.440   9.854   1.776
27181W        W92166  12.956  30.596  12.610
27182W        W92167  44.543  25.078   1.394
27183W        W92168  39.463  12.169   3.664
27184W        W92169  32.832  11.319   1.464
27185W        W92170   8.183   7.975  10.745
27186W        W92171  31.073   3.863  12.564
27187W        W92172  42.800  37.598  13.367
27188W        W92173  27.868   4.912  14.433
27189W        W92174   8.995  10.293  14.206
27190W        W92175   2.359  42.003   1.037
27191W        W92176   0.064  23.145  11.887
27192W        W92177  40.663   4.700  12.498
27193W        W92178   0.235  39.846  10.562
27194W        W92179  32.665  33.473  11.359
27195W        W92180  15.714   0.732   1.002
27196W        W92181  10.734  22.459   4.290
27197W        W92182   8.700   3.724  14.942
27198W        W92183  26.833  17.252  12.120
27199W        W92184   8.733  25.445   2.251
27200W        W92185  19.196  31.241   4.095
27201W        W92186  17.213   0.582   4.181
27202W        W92187   5.817  32.949  12.507
27203W        W92188  42.538   8.828  10.831
27204W        W92189  16.131  18.236   1.982
27205W        W92190  26.975   3.188   1.447
27206W        W92191  42.966   8.857   0.944
27207W        W92192  18.813   9.730  10.468
27208W        W92193  33.887   6.280   3.720
27209W        W92194  25.964  13.922   4.535
27210W        W92195  30.173   0.992  14.376
27211W        W92196  33.672   2.322   0.902
27212W        W92197  20.789  18.060   4.089
27213W        W92198  24.967   2.736   5.052
27214W        W92199  39.583  24.619   3.751
27215W        W92200  23.296  18.040   5.050
27216W        W92201  18.161  11.598  11.590
27217W        W92202  19.392  23.738   4.085
27218W        W92203  29.620  15.750  10.371
27219W        W92204  16.081  19.347  12.974
27220W        W92205  29.040  27.705  13.276
27221W        W92206  33.576  44.823  14.701
27222W        W92207  23.613  39.820  10.764
27223W        W92208  29.097  17.190  10.572
27224W        W92209  12.273  36.842  13.369
27225W        W92210   3.833  34.356  13.751
27226W        W92211  20.845   7.381   2.961
27227W        W92212  12.154  30.490  12.390
27228W        W92213   1.448   6.798   0.624
27229W        W92214  27.047   7.326   2.908
27230W        W92215  39.127  10.799  12.989
27231W        W92216   1.697  34.790   1.790
27232W        W92217  13.996   4.131   3.057
27233W        W92218  14.623  28.398   1.641
27234W        W92219  27.935   0.075  14.210
27235W        W92220  27.225  27.968   3.092
27236W        W92221  25.551   9.890   4.290
27237W        W92222  32.054  10.662   1.455
27238W        W92223  19.622   0.295  11.334
27239W        W92224   1.059  30.640   4.086
27240W        W92225   7.305  11.071  12.025
27241W        W92226  41.540  31.386  13.580
27242W        W92227  34.613  29.989   1.450
27243W        W92228  17.691  35.805   1.254
27244W        W92229  32.176  36.442   0.291
27245W        W92230  41.941  37.902  14.278
27246W        W92231  13.099  19.989  13.070
27247W        W92232   3.785  16.999   2.758
27248W        W92233   7.233   0.322   2.321
27249W        W92234  26.403  36.880   3.692
27250W        W92235  27.951  36.106   1.434
27251W        W92236  31.642  18.283  11.975
27252W        W92237  16.785  17.216  10.720
27253W        W92238  12.347  31.150   3.601
27254W        W92239  44.553  24.109  10.735
27255W        W92240  16.319  35.636  12.593
27256W        W92241  17.241  31.976   5.239
27257W        W92242  42.887  32.562   1.211
27258W        W92243  18.588  32.219   2.059
27259W        W92244  25.528   3.907  14.243
27260W        W92245  18.347  12.866   4.193
27261W        W92246  14.345  16.654  12.520
27262W        W92247  44.741   0.572   1.493
27263W        W92248  38.541  26.908  11.666
27264W        W92249  43.933   5.304   3.654
27265W        W92250  16.346  31.053   2.214
27266W        W92251   8.679  34.816   3.341
27267W        W92252  24.987  42.995   4.775
27268W        W92253  41.400   8.391  11.936
27269W        W92254  40.979  34.106   3.732
27270W        W92255  21.103  13.340  11.111
27271W        W92256   4.351  26.262   1.680
27272W        W92257  32.130  24.986   2.900
27273W        W92258  34.057  17.201  14.160
27274W        W92259  22.152  23.668   1.408
27275W        W92260   5.805  16.240  10.435
27276W        W92261  34.165  21.544  14.546
27277W        W92262  31.020  24.885  11.640
27278W        W92263   0.407  41.517  12.860
27279W        W92264  34.410   8.768   4.013
27280W        W92265  13.105  33.102  13.411
27281W        W92266  30.186  37.892  12.889
27282W        W92267  40.367  23.385  13.061
27283W        W92268   5.616  28.556   2.456
27284W        W92269   6.698  24.004  11.230
27285W        W92270  38.817  35.693  13.025
27286W        W92271  42.811  41.818   2.739
27287W        W92272  13.224   9.113   2.179
27288W        W92273  36.203  28.684   3.718
27289W        W92274  35.718   5.959  14.777
27290W        W92275   1.285  44.039  10.673
27291W        W92276   7.357  37.669   1.786
27292W        W92277  42.280  29.661  14.037
27293W        W92278  38.433  30.108  14.062
27294W        W92279   9.702  33.096   2.982
27295W        W92280  40.047  16.659  12.952
27296W        W92281  43.459   0.880  10.678
27297W        W92282   1.742  34.452  14.474
27298W        W92283   7.134  36.529   4.284
27299W        W92284  25.285   1.451  13.177
27300W        W92285  26.699  38.026  13.811
27301W        W92286  26.248   5.486  10.614
27302W        W92287  22.844  22.952  14.463
27303W        W92288  14.957  42.915  12.971
27304W        W92289  41.857   7.886   4.322
27305W        W92290   3.317  26.725   0.923
27306W        W92291  18.250   5.747   1.424
27307W        W92292  36.071  17.739   1.153
27308W        W92293  41.305  39.953  13.044
27309W        W92294  14.828  32.862   0.301
27310W        W92295  39.769  22.213   1.643
27311W        W92296   2.506  21.013   4.325
27312W        W92297  24.793  13.325   3.657
27313W        W92298  12.836  32.954  12.973
27314W        W92299  13.005  34.690  11.394
27315W        W92300  34.850  39.126  12.609
27316W        W92301   4.909  22.043  10.223
27317W        W92302  36.154   3.928  13.358
27318W        W92303  22.727   2.655  14.740
27319W        W92304  16.650  44.533  13.637
27320W        W92305  30.573  10.388   3.235
27321W        W92306  20.216  16.176   9.996
27322W        W92307  24.422  14.671   0.274
27323W        W92308  11.417  42.028  13.704
27324W        W92309  21.855   5.769   0.831
27325W        W92310  32.489  34.076  14.817
27326W        W92311   2.440  42.292  11.638
27327W        W92312  12.269  37.914   4.665
27328W        W92313   2.538  13.606   1.377
27329W        W92314  36.583  31.911   0.802
27330W        W92315  33.046  30.239  11.540
27331W        W92316  24.565  32.359  14.435
27332W        W92317  33.335  22.614  11.499
27333W        W92318  23.899  28.907   0.505
27334W        W92319  10.275  21.939   1.409
27335W        W92320  44.969  43.223   0.933
27336W        W92321   3.529  10.687   3.250
27337W        W92322  18.346  33.709  10.186
27338W        W92323   4.513  18.170  11.697
27339W        W92324  11.303   0.555   1.748
27340W        W92325  15.201  11.165   4.137
27341W        W92326  15.286  12.828   0.695
27342W        W92327   7.249   5.453   1.757
27343W        W92328  27.436  24.512  12.222
27344W        W92329   4.448  42.792   4.582
27345W        W92330  38.358  29.624  12.479
27346W        W92331   8.769   7.517  11.096
27347W        W92332   3.468   3.268   3.745
27348W        W92333   4.911  21.695   3.455
27349W        W92334  11.443   3.419   3.315
27350W        W92335  38.768  38.540  14.033
27351W        W92336  10.328  16.667   2.716
27352W        W92337  18.054  24.610   4.658
27353W        W92338  37.928  39.009  13.436
27354W        W92339   7.606  21.729   0.307
27355W        W92340  30.018  25.362  13.865
27356W        W92341  11.530   6.307  13.106
27357W        W92342  22.826  38.036   3.615
27358W        W92343  25.183   2.437   3.400
27359W        W92344   7.296  28.522   2.744
27360W        W92345  36.805  22.615  10.715
27361W        W92346  16.157  34.089   4.052
27362W        W92347  26.661   1.811  13.055
27363W        W92348  37.695   0.847   4.499
27364W        W92349  39.179  21.125  14.910
27365W        W92350  13.823   3.423   1.908
27366W        W92351  25.119  13.139   2.335
27367W        W92352  22.583  33.212  13.387
27368W        W92353  21.253   9.758  10.478
27369W        W92354  35.427  30.613  13.557
27370W        W92355   7.378  44.799   3.217
27371W        W92356  37.856  11.591  11.604
27372W        W92357  23.258   4.357   3.448
27373W        W92358  39.456  37.754  14.935
27374W        W92359   1.428  11.416  12.885
27375W        W92360  11.315  21.878  11.713
27376W        W92361  22.792  26.561   1.375
27377W        W92362  27.278   0.405   0.349
27378W        W92363  27.468   9.809  11.982
27379W        W92364  37.505   3.266   0.840
27380W        W92365  19.364  24.270  10.634
27381W        W92366   9.608   6.223   0.926
27382W        W92367   1.052  15.734   0.713
27383W        W92368  20.585  16.229   2.308
27384W        W92369  28.608  38.566   4.270
27385W        W92370  22.680   5.846   1.057
27386W        W92371  37.839  36.141  11.864
27387W        W92372  32.222  13.608  11.268
27388W        W92373  10.275   4.218  10.687
27389W        W92374  32.532   8.561   2.787
27390W        W92375  17.675  38.285  13.700
27391W        W92376  28.956  23.007  11.880
27392W        W92377  22.216   9.367   1.765
27393W        W92378   7.120   8.368   0.410
27394W        W92379  26.097  11.726   3.631
27395W        W92380  29.639  35.889   1.664
27396W        W92381   4.516  28.128  12.029
27397W        W92382  23.523  23.188  14.754
27398W        W92383   9.382  30.140  12.576
27399W        W92384  44.574  19.383  12.979
27400W        W92385   5.224  19.379   1.349
27401W        W92386   9.210  44.952  10.651
27402W        W92387  36.056  31.466  10.513
27403W        W92388   6.300  38.908   0.329
27404W        W92389  43.858  19.305   0.868
27405W        W92390  43.509  13.436  10.749
27406W        W92391   6.238  30.514  11.161
27407W        W92392  35.871  17.717  12.617
27408W        W92393  39.989  14.551   1.729
27409W        W92394  37.935  23.508  11.184
27410W        W92395  14.700  43.534   2.975
27411W        W92396  42.454  16.638  14.992
27412W        W92397  40.819  30.781  13.443
27413W        W92398  23.155   1.250  12.541
27414W        W92399  32.980  37.089   3.209
27415W        W92400  25.899  24.070   4.035
27416W        W92401  42.281  33.198  11.646
27417W        W92402  35.555  36.476  14.319
27418W        W92403  18.570  37.082   0.830
27419W        W92404  33.480  20.670  11.219
27420W        W92405  30.982  21.648  14.758
27421W        W92406  26.137  36.214   1.378
27422W        W92407  44.719  15.233  14.370
27423W        W92408  14.228  37.508  13.558
27424W        W92409  32.991  30.894   0.357
27425W        W92410  33.001  42.774   1.918
27426W        W92411  12.081  42.863  14.866
27427W        W92412  28.979  10.653   1.399
27428W        W92413   8.290  24.229   1.974
27429W        W92414  28.916   0.744  14.862
27430W        W92415  39.350  33.172  11.158
27431W        W92416  39.959  11.023   0.755
27432W        W92417  23.557  43.745  12.513
27433W        W92418  23.272  26.124   3.740
27434W        W92419   6.728  31.042   3.262
27435W        W92420  22.084  37.588  11.166
27436W        W92421  15.256  43.791   0.366
27437W        W92422  35.449  18.426  12.779
27438W        W92423   1.730   0.820  11.885
27439W        W92424   6.070  29.237   2.940
27440W        W92425  19.309  15.616   3.831
27441W        W92426  25.002  43.114   2.706
27442W        W92427  19.536  12.673   3.057
27443W        W92428   0.090  20.537   4.139
27444W        W92429   4.120  42.813  12.937
27445W        W92430  44.883  34.938  14.306
27446W        W92431  21.575  43.438   0.283
27447W        W92432  36.445  24.911  14.345
27448W        W92433  40.214  42.338  12.008
27449W        W92434  42.921  39.463  13.048
27450W        W92435  37.153  27.017   1.907
27451W        W92436  31.411  23.472  11.814
27452W        W92437   1.213   0.574  11.885
27453W        W92438  15.544  20.806   1.353
27454W        W92439   8.627  17.248   2.720
27455W        W92440  26.476  24.021  10.609
27456W        W92441  35.865  25.471   3.779
27457W        W92442  12.200  40.840   4.767
27458W        W92443  36.255  28.515   2.690
27459W        W92444   9.686  11.615   3.271
27460W        W92445  24.772   4.495  12.707
27461W        W92446  44.594  24.108  13.753
27462W        W92447  31.531   5.894   1.189
27463W        W92448  29.204  23.695  14.372
27464W        W92449   0.213   8.826   3.526
27465W        W92450  31.685  15.667  12.982
27466W        W92451  18.822  10.366   3.785
27467W        W92452  19.067  14.353  13.022
27468W        W92453  17.941  28.930   4.153
27469W        W92454  22.561  30.485  14.093
27470W        W92455  19.700  19.944  12.009
27471W        W92456  32.914  29.156  10.568
27472W        W92457  28.982  43.806  11.772
27473W        W92458  17.680  20.303  10.636
27474W        W92459  13.375  35.039   4.777
27475W        W92460  20.658  26.074  13.929
27476W        W92461  28.982  11.446   2.358
27477W        W92462  31.616  34.921  10.766
27478W        W92463   7.631  14.772  12.379
27479W        W92464  42.368  11.379  14.288
27480W        W92465  26.921  29.892  13.062
27481W        W92466   1.145  36.533   3.144
27482W        W92467  44.288  30.534  10.942
27483W        W92468   3.909  39.854  13.505
27484W        W92469  22.108  43.027  13.325
27485W        W92470  15.232  19.897  12.769
27486W        W92471  17.083  24.107  14.859
27487W        W92472   2.257  14.364   4.191
27488W        W92473  17.085  40.043  14.357
27489W        W92474   2.926  23.797  12.521
27490W        W92475  18.299  30.442  11.888
27491W        W92476  43.878  13.646   1.684
27492W        W92477   2.948  39.878  10.746
27493W        W92478  41.090  25.724  14.453
27494W        W92479  17.421  12.777  14.946
27495W        W92480   2.399   2.642  11.176
27496W        W92481  14.421  14.197  11.616
27497W        W92482  17.178   3.372  12.547
27498W        W92483   7.849  14.318  10.293
27499W        W92484  34.623  14.465  11.961
27500W        W92485  34.606   8.949  11.723
27501W        W92486  26.200  34.012   2.545
27502W        W92487  10.056  29.872   0.473
27503W        W92488  20.100   5.669  10.276
27504W        W92489  30.039  24.703   0.238
27505W        W92490  29.441   6.915  11.181
27506W        W92491  22.558  30.327   4.156
27507W        W92492   9.595  30.577   1.752
27508W        W92493  41.848  20.021  12.535
27509W        W92494   1.741  39.625  11.224
27510W        W92495  10.271   8.535  12.598
27511W        W92496  25.039  30.510  14.753
27512W        W92497  23.686   6.486   0.766
27513W        W92498  20.591  29.669  11.564
27514W        W92499  35.235  19.550   4.155
27515W        W92500   1.962  22.994   0.000
27516W        W92501  31.565  42.077   1.822
27517W        W92502  30.932   7.789   0.337
27518W        W92503  32.090  22.308  14.143
27519W        W92504   1.467  30.026   3.690
27520W        W92505   0.968  27.334   3.410
27521W        W92506   5.397   9.331   4.615
27522W        W92507  12.266  33.849  13.928
27523W        W92508  32.831  40.016  11.885
27524W        W92509  11.641  35.130   1.196
27525W        W92510  40.441  40.819   2.772
27526W        W92511  17.796  31.852   4.718
27527W        W92512  21.705   5.268  10.466
27528W        W92513   3.670   7.838  11.513
27529W        W92514   8.169   4.709  13.060
27530W        W92515  32.768   2.938   4.158
27531W        W92516  43.539   2.292   1.521
27532W        W92517  35.348  15.995  12.008
27533W        W92518  32.814  11.888  10.650
27534W        W92519   1.911  44.932  11.928
27535W        W92520   1.764  32.454   4.720
27536W        W92521  32.216  30.219  11.233
27537W        W92522  39.367  43.371   4.916
27538W        W92523  14.140  26.788  14.931
27539W        W92524  44.421  10.288   3.752
27540W        W92525  10.905  43.770  13.849
27541W        W92526  24.242   1.754   3.894
27542W        W92527  12.361  20.516   3.428
27543W        W92528  41.590   3.724  14.484
27544W        W92529  32.957  13.332   4.215
27545W        W92530  36.518  23.683   4.604
27546W        W92531  30.888  30.687  11.096
27547W        W92532  11.884  15.851  10.822
27548W        W92533  37.027   5.406  14.456
27549W        W92534  41.810  17.157   2.134
27550W        W92535  39.314  16.732   5.015
27551W        W92536  17.671  24.925   0.059
27552W        W92537  26.970  32.467   4.244
27553W        W92538  21.943  19.603  12.551
27554W        W92539   0.374  15.781   3.848
27555W        W92540   8.849   0.292  10.371
27556W        W92541  36.792  44.195   0.734
27557W        W92542  41.092  34.347  11.623
27558W        W92543   9.651  37.679  13.866
27559W        W92544   9.084   6.544  11.100
27560W        W92545   2.447  18.124   4.119
27561W        W92546   8.901  18.542  13.846
27562W        W92547   8.254  38.850   3.788
27563W        W92548   6.630  26.634  14.825
27564W        W92549  25.319   3.384  14.316
27565W        W92550  26.496  31.233   0.754
27566W        W92551  20.043  24.041  13.430
27567W        W92552  34.467  31.047   2.393
27568W        W92553  43.813  23.654  11.130
27569W        W92554  24.654  39.098   0.284
27570W        W92555  17.175  36.379  10.971
27571W        W92556  30.301  31.622   2.506
27572W        W92557  31.490  22.634   4.130
27573W        W92558  34.902  27.149   1.164
27574W        W92559   9.368  35.005   4.638
27575W        W92560  18.096  15.652  10.948
27576W        W92561  23.487  33.051   3.318
27577W        W92562  15.215  44.973  13.438
27578W        W92563  24.164  10.374  12.408
27579W        W92564  23.756   3.637  13.484
27580W        W92565   7.052   9.044   2.889
27581W        W92566   2.777  32.858   2.261
27582W        W92567  38.999   9.394   4.590
27583W        W92568   1.416  25.187   2.826
27584W        W92569  21.652  34.495  14.215
27585W        W92570  37.071  31.030  13.077
27586W        W92571  26.469   5.696   3.692
27587W        W92572  34.958  10.106   3.223
27588W        W92573  20.626  38.592  12.902
27589W        W92574  22.591  33.131  10.780
27590W        W92575   9.348  44.182  11.092
27591W        W92576  32.432   4.525   0.476
27592W        W92577  19.244  16.609  14.241
27593W        W92578  17.335   0.508  14.926
27594W        W92579  28.737  17.161  13.064
27595W        W92580  44.251  34.589   0.232
27596W        W92581  39.799  28.999   1.756
27597W        W92582  14.430   4.825  10.313
27598W        W92583   9.770  36.367  11.941
27599W        W92584  37.612  33.402  14.856
27600W        W92585  35.321  28.367  11.204
27601W        W92586  17.233  14.796  13.108
27602W        W92587   6.964  15.766  13.101
27603W        W92588  37.140   6.665  13.863
27604W        W92589  16.144  18.086   1.462
27605W        W92590   4.740  17.260   0.240
27606W        W92591  16.235   6.153  13.942
27607W        W92592   4.838  33.617   0.717
27608W        W92593  43.278   9.239   1.078
27609W        W92594   5.279  44.863  14.435
27610W        W92595   0.847  25.029   5.081
27611W        W92596  21.073  40.776   0.931
27612W        W92597  32.825  38.282  12.942
27613W        W92598   5.723  42.343  13.814
27614W        W92599  28.544   5.210  14.900
27615W        W92600  35.025  31.323  12.575
27616W        W92601  13.014  33.652  10.983
27617W        W92602  13.111  11.771   4.632
27618W        W92603   2.325  27.503   2.178
27619W        W92604  15.254  24.548  12.944
27620W        W92605  17.282  38.567   3.851
27621W        W92606  25.080  12.903  14.051
27622W        W92607  31.048  11.912   1.633
27623W        W92608   7.184  17.712   4.662
27624W        W92609   1.965   0.488  12.605
27625W        W92610   7.898   1.547  14.606
27626W        W92611  26.167  36.396  11.176
27627W        W92612  33.551  44.933  12.711
27628W        W92613  42.776   9.437  12.375
27629W        W92614  43.244  43.783  13.025
27630W        W92615   3.318  15.973  12.351
27631W        W92616   2.363  20.115   3.880
27632W        W92617  30.063  16.700   3.230
27633W        W92618   3.822  41.084  13.027
27634W        W92619  37.089  13.696   3.201
27635W        W92620   9.554  12.270   3.784
27636W        W92621  15.161  43.694  14.021
27637W        W92622  36.727  24.076  13.019
27638W        W92623  26.253  44.823  10.448
27639W        W92624   8.401  37.359  13.651
27640W        W92625  11.082   7.686   0.789
27641W        W92626   3.926  44.246  11.674
27642W        W92627  41.593  13.805   4.212
27643W        W92628  11.104  30.241   2.336
27644W        W92629  34.873  24.995   2.513
27645W        W92630  17.065  12.171   4.640
27646W        W92631   5.902   2.929  11.597
27647W        W92632  32.411  44.547  14.488
27648W        W92633  29.399  43.100  10.408
27649W        W92634  38.699  25.970  12.559
27650W        W92635  37.949   1.327   4.542
27651W        W92636  34.485  34.456  11.595
27652W        W92637   4.301  37.323   1.453
27653W        W92638  33.113  17.632   3.661
27654W        W92639  10.388  29.980  13.425
27655W        W92640  26.597  24.212  14.374
27656W        W92641  31.667  25.302  10.982
27657W        W92642  30.975  20.460   2.625
27658W        W92643  18.620  27.763  13.452
27659W        W92644   4.293  19.517  12.133
27660W        W92645  43.340  32.426   2.111
27661W        W92646  14.877   9.262  13.326
27662W        W92647  16.264   3.763   5.656
27663W        W92648   4.455  44.720  11.065
27664W        W92649  37.169   5.394  14.956
27665W        W92650  20.834  29.071   4.111
27666W        W92651  11.224  32.805   1.844
27667W        W92652  22.693  36.915   0.973
27668W        W92653   9.227   6.359  10.215
27669W        W92654  12.179   5.378   2.237
27670W        W92655  43.550   1.686  11.971
27671W        W92656   4.641  20.757   4.735
27672W        W92657   1.229  13.678  14.053
27673W        W92658  39.734  43.883  12.330
27674W        W92659  16.168  14.490  10.879
27675W        W92660  35.350   5.319   5.103
27676W        W92661   4.459  24.110  12.941
27677W        W92662  12.867  17.257  13.298
27678W        W92663   3.381  12.561   0.749
27679W        W92664  20.195  43.498  11.431
27680W        W92665  21.532   6.754   1.699
27681W        W92666  18.190   0.420  14.298
27682W        W92667  13.571   7.866  13.029
27683W        W92668  31.959  37.460  13.945
27684W        W92669  13.601  29.111  14.521
27685W        W92670  32.626   8.064   1.929
27686W        W92671  26.281  11.537  12.870
27687W        W92672  15.056  17.808  11.146
27688W        W92673  22.354  34.850  11.065
27689W        W92674  37.105   2.682  12.998
27690W        W92675  33.993  42.331   3.830
27691W        W92676  37.368  22.547   0.933
27692W        W92677   7.156  18.063  12.510
27693W        W92678   4.426   3.130   3.442
27694W        W92679  44.849  29.547   1.577
27695W        W92680  31.507  26.378  14.791
27696W        W92681  42.213  24.701  14.148
27697W        W92682   7.085  44.238  11.564
27698W        W92683  11.557  29.209  14.348
27699W        W92684   3.044   6.379  13.884
27700W        W92685  32.060   2.969  13.572
27701W        W92686   0.003  11.935  13.368
27702W        W92687   9.719   0.909  10.628
27703W        W92688  28.432  23.248   4.206
27704W        W92689   6.913  17.737   2.248
27705W        W92690  20.226   8.644   2.005
27706W        W92691  37.375   6.762  12.130
27707W        W92692  38.049  22.546   1.385
27708W        W92693  30.257  15.069  12.883
27709W        W92694   4.242   3.407   4.388
27710W        W92695  29.196  19.309   3.817
27711W        W92696   8.217  18.644  14.495
27712W        W92697   3.197   3.718  10.913
27713W        W92698  18.628  24.976  13.868
27714W        W92699  35.370  29.709   3.359
27715W        W92700  33.277  35.671  12.503
27716W        W92701  13.372  31.996   0.507
27717W        W92702   4.698   0.684   1.335
27718W        W92703  42.577  36.312   0.349
27719W        W92704   4.010  31.467  12.818
27720W        W92705  37.810  23.052   0.138
27721W        W92706  21.547  24.277  13.852
27722W        W92707  13.377  12.349   2.126
27723W        W92708  30.962  22.127  12.982
27724W        W92709   0.392  24.135   2.810
27725W        W92710  29.163  14.818  10.816
27726W        W92711  17.655  25.670  11.703
27727W        W92712  37.351  34.342  13.836
27728W        W92713  28.111  35.662  11.608
27729W        W92714  17.857  31.599   4.035
27730W        W92715  13.258  17.973   4.208
27731W        W92716  36.922  37.488   1.756
27732W        W92717   5.201  38.403  11.696
27733W        W92718  27.690  12.627  11.893
27734W        W92719  37.978  35.343   1.807
27735W        W92720  37.564   1.523   2.353
27736W        W92721  41.619  23.496  12.171
27737W        W92722  33.108  30.843   4.649
27738W        W92723  26.552  40.774   4.223
27739W        W92724  20.334  20.674   1.595
27740W        W92725  19.507  38.511   4.646
27741W        W92726   6.778  26.642  10.156
27742W        W92727  30.929  44.400   2.979
27743W        W92728  13.836   1.725  11.306
27744W        W92729  39.574  20.538   3.344
27745W        W92730  30.135  10.688  13.809
27746W        W92731  29.633   8.223  10.833
27747W        W92732  44.776  15.387  13.597
27748W        W92733   4.974  19.580  12.788
27749W        W92734  11.655  33.324   2.674
27750W        W92735   3.685  12.033   4.215
27751W        W92736  19.628  12.274  13.393
27752W        W92737  15.554  32.057  13.337
27753W        W92738  31.372   8.764  11.584
27754W        W92739   1.522  22.614  14.301
27755W        W92740  14.915  22.709  14.289
27756W        W92741  35.556   7.491   4.466
27757W        W92742  20.118  32.929  13.977
27758W        W92743  21.763  20.631   5.034
27759W        W92744  19.641   9.873  13.881
27760W        W92745  34.935  19.251  13.423
27761W        W92746  35.524  12.661  10.546
27762W        W92747  16.173  34.018  10.671
27763W        W92748  25.923   5.704   3.771
27764W        W92749  41.778  26.590   0.956
27765W        W92750   8.585  26.811  13.079
27766W        W92751  29.554  25.186   2.368
27767W        W92752  20.803  24.325   3.300
27768W        W92753  27.049   9.390   3.733
27769W        W92754  12.485  28.622   3.665
27770W        W92755  16.096  42.452   1.387
27771W        W92756  10.253  18.810   3.143
27772W        W92757  22.506  19.032   4.605
27773W        W92758  27.271  10.876   2.597
27774W        W92759  37.564  36.883  12.526
27775W        W92760  25.010  16.506  12.474
27776W        W92761  22.714  42.735   1.727
27777W        W92762  36.058  20.132  13.347
27778W        W92763   0.694  35.451   3.391
27779W        W92764   9.556  34.269  13.424
27780W        W92765   2.794  44.096  11.967
27781W        W92766  24.180  11.405  13.804
27782W        W92767  24.195  24.478   3.706
27783W        W92768  44.692  36.814  10.460
27784W        W92769  38.273   7.912  12.982
27785W        W92770   2.875  27.196   2.127
27786W        W92771  26.911  16.700  10.669
27787W        W92772  24.646  35.780   4.076
27788W        W92773  25.065   3.182   3.335
27789W        W92774  37.590  41.571   0.147
27790W        W92775  26.003  32.425  13.271
27791W        W92776  33.066  10.128   4.071
27792W        W92777  36.513  13.376  12.543
27793W        W92778  33.435  16.633   3.959
27794W        W92779  25.812  33.879   0.219
27795W        W92780  17.048  24.435  14.043
27796W        W92781   7.902  20.739  13.887
27797W        W92782  27.165   4.745   0.996
27798W        W92783  35.658   1.944  14.984
27799W        W92784  17.440  20.258  13.548
27800W        W92785  34.461  12.836  14.841
27801W        W92786  13.912  36.327  12.042
27802W        W92787  25.487  25.033   3.521
27803W        W92788  27.711  38.424  14.487
27804W        W92789  24.026   0.475  14.347
27805W        W92790  16.882  15.784  12.561
27806W        W92791  42.253  41.297  10.737
27807W        W92792  38.529   5.412   1.894
27808W        W92793  12.980  36.725  11.073
27809W        W92794   9.226   7.097   0.381
27810W        W92795  40.329  18.911  12.478
27811W        W92796  18.240  38.243  11.605
27812W        W92797   3.876   2.065  14.921
27813W        W92798  36.207   5.639  10.307
27814W        W92799  30.677  38.299  14.512
27815W        W92800  14.280  19.708   0.831
27816W        W92801  30.015  30.115  12.207
27817W        W92802   9.818  18.508   3.167
27818W        W92803  30.987  41.933  11.747
27819W        W92804  15.696   2.704   3.656
27820W        W92805  38.491  40.847   1.623
27821W        W92806  37.905   4.963  14.983
27822W        W92807   8.697  15.639   3.391
27823W        W92808  14.171   1.789   2.058
27824W        W92809  24.708   3.987  11.535
27825W        W92810   2.019  12.699  11.229
27826W        W92811  43.579  28.638  11.105
27827W        W92812   5.853  13.643   3.091
27828W        W92813  35.562  38.434   3.342
27829W        W92814  13.337  34.592  10.995
27830W        W92815  21.332   8.543   3.144
27831W        W92816  34.430  44.305  13.373
27832W        W92817  32.107  29.431  14.213
27833W        W92818  35.961   8.861  11.732
27834W        W92819  21.613  33.901  12.991
27835W        W92820   3.640  28.777   1.750
27836W        W92821  22.098  24.967  14.487
27837W        W92822   6.229   0.519   3.841
27838W        W92823  21.275   5.090   4.572
27839W        W92824  40.098  38.381   1.176
27840W        W92825  31.161  10.120  13.820
27841W        W92826  30.291  37.042  13.375
27842W        W92827  41.617  18.446   5.037
27843W        W92828  21.572  25.247  13.654
27844W        W92829  15.593  43.877  13.727
27845W        W92830  28.648   3.862  10.926
27846W        W92831  11.731   4.926  11.201
27847W        W92832  40.332   5.473  14.819
27848W        W92833  28.261  10.881   3.928
27849W        W92834  35.877  26.464   1.723
27850W        W92835   6.594  17.046   5.199
27851W        W92836  32.564  39.744   2.489
27852W        W92837  44.235  28.896   0.512
27853W        W92838  15.342  27.229  12.205
27854W        W92839  43.631  39.226   3.691
27855W        W92840   1.905  23.484   0.241
27856W        W92841  32.430  37.556   2.691
27857W        W92842  40.808   3.728  14.894
27858W        W92843  25.556  23.087   4.619
27859W        W92844  18.171  43.506   4.312
27860W        W92845  35.453  24.755  12.990
27861W        W92846  35.674  21.995  11.186
27862W        W92847  17.657  27.905   0.407
27863W        W92848   8.767  40.802  13.084
27864W        W92849  38.570  18.961  11.574
27865W        W92850  32.422  44.334  10.453
27866W        W92851  21.732   8.730   0.851
27867W        W92852  24.469  23.562   2.835
27868W        W92853  12.817   0.523  11.170
27869W        W92854  14.776  22.309  12.574
27870W        W92855  17.131  37.429  14.999
27871W        W92856   2.138   3.524  14.003
27872W        W92857  33.550  42.954   1.766
27873W        W92858  17.489  21.725   0.745
27874W        W92859  42.802  37.036   2.799
27875W        W92860   3.210   0.629  14.094
27876W        W92861  11.330  22.108   1.740
27877W        W92862   7.684  14.235   1.237
27878W        W92863   5.378  31.500  14.470
27879W        W92864   0.445   3.342   3.333
27880W        W92865  23.490  20.709  14.356
27881W        W92866   9.895   0.229  11.162
27882W        W92867  43.709  34.575   1.946
27883W        W92868  29.328  35.924   0.284
27884W        W92869  37.170  38.098  14.903
27885W        W92870  32.490   6.618  12.899
27886W        W92871   9.285   0.324   0.932
27887W        W92872  27.026   4.295   1.747
27888W        W92873  28.469  12.652  13.632
27889W        W92874   9.676  37.870  11.035
27890W        W92875  36.435  12.220  12.812
27891W        W92876  12.981   8.649   4.913
27892W        W92877   9.682   0.346   3.102
27893W        W92878  12.244  19.804   0.704
27894W        W92879  11.641  32.198   4.592
27895W        W92880  30.912  37.578  13.000
27896W        W92881  13.271  33.622  13.381
27897W        W92882  12.715  30.229  12.944
27898W        W92883   4.006   0.753  10.694
27899W        W92884  43.509  29.969  11.366
27900W        W92885  10.236  43.421   0.178
27901W        W92886  23.251  14.510  11.141
27902W        W92887   9.982   7.336   0.873
27903W        W92888  39.371  34.090  14.929
27904W        W92889  15.754  12.571   0.725
27905W        W92890  30.011  20.182  14.459
27906W        W92891  34.861  35.519  10.706
27907W        W92892  27.961   7.908   3.418
27908W        W92893  42.163  42.844   4.696
27909W        W92894  40.929   2.596  11.963
27910W        W92895  39.016  11.963   2.454
27911W        W92896  12.586  26.076  14.409
27912W        W92897   6.511  19.903   5.102
27913W        W92898  44.272   8.903  14.459
27914W        W92899  11.357  40.814  13.372
27915W        W92900  22.099   0.006  13.433
27916W        W92901  29.702   6.164   4.651
27917W        W92902   3.906  43.177  11.536
27918W        W92903  17.287  12.312  11.532
27919W        W92904  16.513   0.843   0.045
27920W        W92905  18.862  14.885   0.761
27921W        W92906  38.585  26.037   3.610
27922W        W92907  31.447  11.718   1.895
27923W        W92908  15.988  39.925  10.102
27924W        W92909  10.570   6.844   2.296
27925W        W92910  10.782  35.823   2.369
27926W        W92911  12.482  31.030   0.406
27927W        W92912  30.573  21.889   2.410
27928W        W92913  44.413  38.592   0.769
27929W        W92914   5.338  28.483  12.898
27930W        W92915  22.271  36.098  10.626
27931W        W92916  44.476  44.570  10.702
27932W        W92917  26.891   7.425  12.709
27933W        W92918  43.159  15.679  13.891
27934W        W92919  21.792  27.984   1.263
27935W        W92920  32.916  22.963  12.406
27936W        W92921  11.125   0.605   3.387
27937W        W92922  36.073   8.957   0.278
27938W        W92923  44.958  18.300  14.843
27939W        W92924  11.093  43.440  12.127
27940W        W92925  20.993  30.386   1.745
27941W        W92926  18.819  21.150  14.812
27942W        W92927  14.769  36.659   1.423
27943W        W92928  35.163  24.582  13.470
27944W        W92929  22.101   9.230  12.626
27945W        W92930  26.313  28.914  11.137
27946W        W92931  15.671  10.669   1.974
27947W        W92932  15.171  17.611   4.073
27948W        W92933  13.646  21.620  14.825
27949W        W92934  15.880  13.649  13.363
27950W        W92935   3.958   4.309   3.410
27951W        W92936  10.365  40.148   3.425
27952W        W92937  29.588  10.421  10.072
27953W        W92938  12.852  14.316  10.945
27954W        W92939   4.242  21.993  13.507
27955W        W92940  20.032  40.200  10.817
27956W        W92941  26.128  21.998   0.296
27957W        W92942  22.737  42.231   1.710
27958W        W92943  33.914  18.726  14.303
27959W        W92944  30.443  44.932   1.694
27960W        W92945   2.503  10.826   0.498
27961W        W92946  37.878  34.080   3.831
27962W        W92947  42.528  26.055   0.312
27963W        W92948  25.899  16.686  13.862
27964W        W92949  27.252   3.425  14.538
27965W        W92950  33.647  12.511   1.752
27966W        W92951  35.021   4.225  14.915
27967W        W92952  10.483  14.754  10.576
27968W        W92953  14.119  14.738   4.620
27969W        W92954   5.658  41.947   0.487
27970W        W92955  18.513   9.322  10.616
27971W        W92956  32.539  38.572  14.933
27972W        W92957  17.031   9.849  13.463
27973W        W92958  32.601   4.680  14.948
27974W        W92959  43.930  41.758   4.471
27975W        W92960   7.781   3.963   2.889
27976W        W92961  17.279  20.394  11.991
27977W        W92962   1.521   1.898  12.637
27978W        W92963  10.149  16.527   0.707
27979W        W92964  20.185  38.021   1.371
27980W        W92965  40.400  29.338  11.632
27981W        W92966  11.551  20.392  12.380
27982W        W92967  10.666  10.314  14.546
27983W        W92968  30.841  21.260   4.285
27984W        W92969  43.792  37.983  12.074
27985W        W92970  19.756   9.737   1.786
27986W        W92971  29.144  11.125  12.062
27987W        W92972  13.241  31.918  12.503
27988W        W92973  33.938   2.275  10.726
27989W        W92974  28.491  25.178  13.390
27990W        W92975   9.445   3.942  14.396
27991W        W92976  25.205  27.521   1.778
27992W        W92977   9.088   0.254   1.824
27993W        W92978  37.720  42.880  13.427
27994W        W92979  42.072   0.506  13.854
27995W        W92980  15.176   8.658  14.792
27996W        W92981  35.027  37.370   1.614
27997W        W92982  25.562  42.522   1.781
27998W        W92983  27.627   9.404   0.055
27999W        W92984   1.046   1.775   1.176
28000W        W92985  21.171  31.820  11.095
28001W        W92986  35.359  38.590  13.910
28002W        W92987  43.935  16.320  14.962
28003W        W92988   8.055  32.064  10.565
28004W        W92989  26.460  20.293   0.299
28005W        W92990   6.637   8.346  13.565
28006W        W92991  42.408  28.141  14.192
28007W        W92992   7.728  11.595  13.374
28008W        W92993   6.444  38.305  10.345
28009W        W92994  18.303  44.244   0.367
28010W        W92995  44.277   7.637  13.149
28011W        W92996  34.478  35.910   4.080
28012W        W92997  26.796   5.830   4.116
28013W        W92998  40.904  30.936   0.340
28014W        W92999   9.644  13.131   0.854
28015W        W93000  38.713  35.240   9.641
28016W        W93001  15.229   2.358   2.843
28017W        W93002   5.270   8.747   1.672
28018W        W93003  10.273   8.703  13.927
28019W        W93004   8.731  43.387   1.204
28020W        W93005  15.295  42.346   0.056
28021W        W93006  30.877  27.511   3.640
28022W        W93007   3.518  15.046   1.842
28023W        W93008   0.696  12.576  12.881
28024W        W93009  13.738   5.038   4.515
28025W        W93010  20.833  38.353  12.491
28026W        W93011  33.363   2.726   0.786
28027W        W93012  14.963  40.196  13.965
28028W        W93013  10.252  30.545  10.277
28029W        W93014  17.996  25.201   1.885
28030W        W93015  35.045   1.230   1.901
28031W        W93016  11.426  12.888   2.923
28032W        W93017  19.015  42.886  13.912
28033W        W93018  14.817  10.327  11.983
28034W        W93019   1.061   9.765   0.357
28035W        W93020  19.705  32.147  10.744
28036W        W93021   8.877   2.388   2.715
28037W        W93022  36.586  16.651  13.429
28038W        W93023  41.908   4.897  14.795
28039W        W93024  34.520  11.393  11.594
28040W        W93025  38.497  15.143   0.469
28041W        W93026   8.311  29.745  14.984
28042W        W93027  12.770   2.759  10.750
28043W        W93028  25.690  28.332   2.690
28044W        W93029   2.313  11.292  12.911
28045W        W93030   8.416  18.818   4.715
28046W        W93031  22.585   4.307  13.448
28047W        W93032  29.540  21.223   1.264
28048W        W93033  43.627  13.424   4.230
28049W        W93034  18.787  38.361   3.102
28050W        W93035   6.412  20.978  10.061
28051W        W93036  32.338  44.486   0.314
28052W        W93037  37.650   6.271   3.772
28053W        W93038  30.484  43.386   0.018
28054W        W93039  17.752  20.114  12.084
28055W        W93040  11.637  39.297   2.696
28056W        W93041   8.816  13.620  14.443
28057W        W93042   3.638  33.073  11.550
28058W        W93043  43.372  25.089  10.620
28059W        W93044   0.928  19.107  10.055
28060W        W93045  42.983  19.331   9.711
28061W        W93046  36.100  20.746  14.464
28062W        W93047  44.991  25.039   3.506
28063W        W93048  27.398  34.708  12.266
28064W        W93049  10.432  24.270  11.183
28065W        W93050   4.096  19.768  11.120
28066W        W93051  35.857  12.764   1.900
28067W        W93052  10.007  21.687  14.774
28068W        W93053  37.714  37.023   9.754
28069W        W93054  10.658  39.270   1.766
28070W        W93055  22.102  13.858   0.408
28071W        W93056  37.485  17.179   3.853
28072W        W93057  14.872   2.225   2.126
28073W        W93058  25.141  25.020   2.183
28074W        W93059  13.213  27.135   2.418
28075W        W93060  10.239  35.714   3.154
28076W        W93061  36.346  36.231   1.193
28077W        W93062  16.874  26.626   2.014
28078W        W93063  38.058  40.992   2.772
28079W        W93064  43.275   5.613   4.521
28080W        W93065  44.995  24.501  12.911
28081W        W93066  37.822  26.929  11.072
28082W        W93067  13.844  44.066  14.184
28083W        W93068  13.958   7.705   1.350
28084W        W93069   7.183  31.503   1.376
28085W        W93070  36.900  29.660   3.234
28086W        W93071  44.600  12.774   1.340
28087W        W93072  17.531  21.975  14.922
28088W        W93073  43.353  42.531  12.494
28089W        W93074  27.552  38.225   2.011
28090W        W93075   2.472  44.178   4.543
28091W        W93076  41.047  21.790   3.208
28092W        W93077  13.185  32.500   2.364
28093W        W93078  19.515  43.984   0.974
28094W        W93079  31.976  10.801  11.152
28095W        W93080  41.834  29.065   3.699
28096W        W93081  36.386  20.025   2.933
28097W        W93082  11.858  12.786  13.827
28098W        W93083  25.264  12.148  14.675
28099W        W93084   5.502   8.042   2.816
28100W        W93085  15.129  37.074   0.917
28101W        W93086  28.031  15.380  13.300
28102W        W93087  25.118   5.728   1.840
28103W        W93088  10.621   8.618   3.262
28104W        W93089  15.583  10.150  12.475
28105W        W93090   8.866  22.066  14.072
28106W        W93091  11.327   0.937  14.030
28107W        W93092  31.215  20.955  12.890
28108W        W93093  22.660  38.463  11.618
28109W        W93094  26.140   1.359   2.242
28110W        W93095  12.135  18.611  13.712
28111W        W93096  30.077   9.706  10.552
28112W        W93097  15.374  13.266  12.077
28113W        W93098  30.649  31.231   2.356
28114W        W93099  27.606  16.498  11.146
28115W        W93100   3.319  37.983  14.338
28116W        W93101  29.504  34.267   9.850
28117W        W93102  15.818  20.427  11.593
28118W        W93103  21.245  38.387  12.883
28119W        W93104  35.360  40.273   1.706
28120W        W93105  10.856  17.789   3.087
28121W        W93106  25.372   1.349   2.658
28122W        W93107  12.910  22.711   5.275
28123W        W93108  36.397  44.756  12.146
28124W        W93109  24.406  30.143   2.353
28125W        W93110  19.069  28.967  11.137
28126W        W93111  11.952  43.266  12.623
28127W        W93112  28.454  20.017   0.512
28128W        W93113   2.573  19.323  10.425
28129W        W93114  41.433   1.527   3.128
28130W        W93115   1.269  22.826  13.870
28131W        W93116  37.022  28.808   0.675
28132W        W93117  13.304  11.834   0.824
28133W        W93118  34.507  43.985  12.890
28134W        W93119  44.722   1.370   2.169
28135W        W93120  21.655  31.695  14.771
28136W        W93121  43.826  20.240  11.933
28137W        W93122  14.727  21.663   4.600
28138W        W93123  17.341  11.973  13.059
28139W        W93124  21.739  37.317   1.848
28140W        W93125  11.560  27.375  10.738
28141W        W93126  31.969  38.039  10.692
28142W        W93127  15.596  27.928  13.169
28143W        W93128  23.248  36.632   0.851
28144W        W93129  14.036  29.034   3.223
28145W        W93130   3.447  15.348   2.268
28146W        W93131  25.561  21.257   0.367
28147W        W93132  42.449  21.784  10.651
28148W        W93133  26.281  41.473  11.808
28149W        W93134  42.963  14.615   1.732
28150W        W93135  14.205   7.424  11.672
28151W        W93136  40.828  22.131  11.306
28152W        W93137  38.203   7.678   2.809
28153W        W93138  31.475  37.959  12.470
28154W        W93139  14.346  10.314  11.786
28155W        W93140  32.096  14.375   3.730
28156W        W93141   3.665  18.728   2.746
28157W        W93142  31.367  41.833   0.359
28158W        W93143   5.042  28.954  10.647
28159W        W93144   8.971  34.060   2.940
28160W        W93145   1.507  25.200   0.026
28161W        W93146  27.499  28.218  14.146
28162W        W93147  11.519  38.703  14.246
28163W        W93148   8.618  20.142  10.919
28164W        W93149  19.609  13.766   3.635
28165W        W93150  22.017  37.433  14.803
28166W        W93151  10.951  36.637  14.857
28167W        W93152  21.523   6.356  12.754
28168W        W93153   4.186  37.775   0.744
28169W        W93154  12.056   3.384  10.572
28170W        W93155  11.726  18.956  13.894
28171W        W93156  18.598  38.336   2.189
28172W        W93157  27.605   0.789  11.624
28173W        W93158  25.158  27.971  12.919
28174W        W93159  31.946  14.589  11.996
28175W        W93160  27.020  13.865  11.498
28176W        W93161  22.750  32.131  12.644
28177W        W93162  39.100   8.926  12.180
28178W        W93163  36.782  33.445   2.801
28179W        W93164  40.731   5.361   3.154
28180W        W93165   5.894  37.793  13.731
28181W        W93166  32.563  19.418   2.344
28182W        W93167  27.255  25.541   4.914
28183W        W93168  17.199  24.032  12.411
28184W        W93169  21.225   0.139  13.963
28185W        W93170   4.857   3.738  12.390
28186W        W93171  42.834  32.853  13.087
28187W        W93172  10.703  19.753  13.439
28188W        W93173   6.211   6.024   2.667
28189W        W93174  22.781  35.400   0.450
28190W        W93175  43.359  23.966   3.436
28191W        W93176  24.835  34.398   1.616
28192W        W93177   2.063  42.304  13.838
28193W        W93178  17.174  42.474  10.164
28194W        W93179  36.402   1.373   4.481
28195W        W93180  16.017   5.235   3.099
28196W        W93181  29.299  20.184   0.722
28197W        W93182  23.288  43.535  11.162
28198W        W93183  29.073   2.222   2.792
28199W        W93184   8.840  35.989   0.084
28200W        W93185  34.315   1.343   3.545
28201W        W93186  28.685  31.825   0.152
28202W        W93187  40.528  42.822   2.570
28203W        W93188  15.538  33.365   5.114
28204W        W93189   9.682  24.765  12.618
28205W        W93190   7.364  10.247  11.108
28206W        W93191  31.187  22.044  13.829
28207W        W93192  32.111   2.390   1.878
28208W        W93193  37.013  16.363  11.423
28209W        W93194  42.446   1.748  13.149
28210W        W93195  11.843  35.352   2.845
28211W        W93196  21.567   4.965   0.418
28212W        W93197   8.808  27.079   3.369
28213W        W93198  42.818  11.253  12.491
28214W        W93199  40.547  21.043  11.936
28215W        W93200   4.653  18.630   4.581
28216W        W93201  33.948  20.526   4.659
28217W        W93202  23.325  37.308  11.500
28218W        W93203   1.653  40.953   0.895
28219W        W93204   9.817  41.463  14.462
28220W        W93205  44.874  31.506  12.905
28221W        W93206   0.309  30.190   0.763
28222W        W93207  42.758  27.610   2.618
28223W        W93208  29.557   5.143   3.554
28224W        W93209   2.867  35.163  12.086
28225W        W93210  14.001   2.694   1.463
28226W        W93211   9.026  10.152   1.342
28227W        W93212  13.365  43.192  11.714
28228W        W93213   6.896   1.986   1.322
28229W        W93214  24.031  40.097  14.872
28230W        W93215  38.432  35.187   3.218
28231W        W93216   2.687  44.841   0.380
28232W        W93217  13.976  31.369   9.917
28233W        W93218  42.557   6.472  14.822
28234W        W93219  19.603  29.698  13.472
28235W        W93220   3.816   6.835  11.844
28236W        W93221  34.951  35.424   0.239
28237W        W93222  36.702  18.262   1.264
28238W        W93223   9.195  39.458  12.705
28239W        W93224  40.100  43.846  11.971
28240W        W93225  16.130   1.338   0.810
28241W        W93226  14.138  17.401   3.127
28242W        W93227  42.806   5.037  11.198
28243W        W93228  26.740  44.496  12.034
28244W        W93229   8.279   6.686  14.850
28245W        W93230  32.083  15.604  11.143
28246W        W93231  39.272  29.386  10.790
28247W        W93232  24.242   8.278   0.308
28248W        W93233  22.783  32.269   5.310
28249W        W93234  31.861  15.107  14.053
28250W        W93235  10.593   3.694   2.202
28251W        W93236   7.214  42.285   2.940
28252W        W93237  30.813  35.008   1.365
28253W        W93238   3.175  12.701   2.211
28254W        W93239  32.558  13.844  11.601
28255W        W93240  32.984  22.756   4.273
28256W        W93241  32.596  21.314  14.379
28257W        W93242  15.307  13.578  12.990
28258W        W93243  34.233  42.332   1.799
28259W        W93244  16.102   4.846  11.905
28260W        W93245  16.154   7.466  14.364
28261W        W93246  31.452  39.491  13.733
28262W        W93247  39.389  37.775   4.264
28263W        W93248  40.585  13.332   1.805
28264W        W93249  12.817   8.110  10.737
28265W        W93250  42.566  29.119  10.280
28266W        W93251   7.279  21.112  12.460
28267W        W93252  38.099  21.540  14.417
28268W        W93253   3.352  43.090   3.828
28269W        W93254  12.951   2.019  12.062
28270W        W93255  31.650  41.509  11.134
28271W        W93256   5.665   3.489   3.089
28272W        W93257   7.926  10.384  12.976
28273W        W93258  41.282  44.951   2.656
28274W        W93259  13.167  30.898   4.570
28275W        W93260   4.671   2.810  12.452
28276W        W93261  41.592  44.841  13.361
28277W        W93262   3.721  24.680  13.906
28278W        W93263  27.029  15.693  10.441
28279W        W93264  30.435  38.963   0.111
28280W        W93265   6.640  28.557   2.362
28281W        W93266  34.373  42.311   4.218
28282W        W93267  39.808   8.765  14.113
28283W        W93268   9.758  14.255   3.736
28284W        W93269  38.840  30.253  12.842
28285W        W93270  44.384  28.194   1.701
28286W        W93271  36.035  44.795   2.704
28287W        W93272   5.951   0.251   0.549
28288W        W93273  38.478   0.513   4.068
28289W        W93274  30.900  39.170  13.531
28290W        W93275  11.956  19.717   1.505
28291W        W93276   5.336  27.148   1.912
28292W        W93277  14.802   8.295  14.858
28293W        W93278  40.271  21.242  13.880
28294W        W93279  20.585  24.507  11.983
28295W        W93280  22.928  10.484   3.167
28296W        W93281  33.561  17.322  14.350
28297W        W93282  41.396  37.803   1.844
28298W        W93283  22.768  27.387  14.912
28299W        W93284  12.686  35.707  12.928
28300W        W93285   1.815   8.226  11.645
28301W        W93286  19.313  38.271  10.762
28302W        W93287  19.958   2.799  11.449
28303W        W93288  13.846   7.622   3.599
28304W        W93289  27.804   9.946   2.893
28305W        W93290  12.814  12.100   0.305
28306W        W93291  32.799  33.784   1.461
28307W        W93292  41.771  11.568  11.551
28308W        W93293  24.894  21.133  14.254
28309W        W93294  44.752  19.176   3.392
28310W        W93295   9.814  20.187  10.863
28311W        W93296  14.288  16.252   2.390
28312W        W93297  27.899  39.215  13.051
28313W        W93298  44.035  37.522  12.063
28314W        W93299  23.998   4.867   3.130
28315W        W93300   9.399  40.923   2.191
28316W        W93301  27.133   3.893   4.570
28317W        W93302  43.165  42.852  11.301
28318W        W93303  40.873  13.113   4.005
28319W        W93304   5.848  12.287  11.872
28320W        W93305  37.043  33.882   2.673
28321W        W93306  27.568  17.983  12.767
28322W        W93307  20.707  27.788   0.436
28323W        W93308  31.489  16.245   2.768
28324W        W93309  21.085  27.976   3.727
28325W        W93310  16.971  14.651  11.389
28326W        W93311  44.860  14.831   1.253
28327W        W93312   2.027  36.413   0.953
28328W        W93313  37.018   1.008   2.816
28329W        W93314   3.882  32.639  14.360
28330W        W93315  21.227  39.491   1.654
28331W        W93316  43.389  43.227  14.413
28332W        W93317  15.216  15.604  12.415
28333W        W93318  17.443  33.542   1.714
28334W        W93319  22.592  31.578  11.489
28335W        W93320   9.818  20.083   2.212
28336W        W93321  22.660  43.284   0.907
28337W        W93322  20.264  32.622  10.770
28338W        W93323  30.945   5.681   3.549
28339W        W93324  37.658   0.450   3.627
28340W        W93325  41.455  10.697   0.825
28341W        W93326  21.548  30.231  13.059
28342W        W93327  11.384  19.886   0.473
28343W        W93328  18.467   9.456   1.495
28344W        W93329  40.832  19.479   0.234
28345W        W93330  21.661  40.463  11.581
28346W        W93331   1.005  17.709   4.872
28347W        W93332  22.117  43.171  13.878
28348W        W93333   9.305  41.365  12.718
28349W        W93334  18.853  19.886  14.530
28350W        W93335  36.586  35.829   2.470
28351W        W93336   6.244  19.108  12.746
28352W        W93337  12.282   6.708  12.965
28353W        W93338  14.266  39.247   2.214
28354W        W93339   3.745   9.375  11.946
28355W        W93340  29.593  11.733   0.174
28356W        W93341  36.558  20.567  10.669
28357W        W93342  12.724  20.207   1.889
28358W        W93343  32.425   4.538  10.063
28359W        W93344  36.814  43.593   0.650
28360W        W93345   7.774  37.877  12.987
28361W        W93346  30.869  15.697   2.329
28362W        W93347  24.396  21.882  14.444
28363W        W93348   4.223  41.507   3.706
28364W        W93349  44.356  19.044   1.001
28365W        W93350   6.166  23.184  10.473
28366W        W93351   7.246   0.913   3.307
28367W        W93352  40.592  26.205  11.974
28368W        W93353  26.693  39.792  13.515
28369W        W93354  21.736  27.562   2.135
28370W        W93355   0.429   2.398   1.260
28371W        W93356   6.305   3.976  14.288
28372W        W93357  26.930  27.193  14.881
28373W        W93358  44.583  17.036  11.431
28374W        W93359   6.878  16.951   2.914
28375W        W93360  23.611  32.642  13.481
28376W        W93361  35.636  16.944  13.720
28377W        W93362  21.231  32.458  14.715
28378W        W93363  30.164  35.009  14.016
28379W        W93364  10.919   7.455  11.220
28380W        W93365   8.691  10.100  13.835
28381W        W93366  24.149  21.773   1.829
28382W        W93367  27.607  14.383   3.660
28383W        W93368  31.245  26.740   1.429
28384W        W93369  25.151  37.905  13.866
28385W        W93370  27.186   3.193  12.455
28386W        W93371  36.535   2.229  11.816
28387W        W93372  10.131  25.146   2.903
28388W        W93373   1.826  37.137   1.373
28389W        W93374  31.711   9.805   2.881
28390W        W93375  18.285  36.548  14.406
28391W        W93376   3.312   0.348  11.481
28392W        W93377   9.298  11.276   3.407
28393W        W93378  19.688   5.014   4.026
28394W        W93379  17.376  44.694  10.722
28395W        W93380  40.617  12.217   4.300
28396W        W93381  43.231  29.197  12.859
28397W        W93382   9.065   3.878  11.633
28398W        W93383  17.338  43.914   3.227
28399W        W93384   3.908  40.404  10.740
28400W        W93385   5.825  18.720   1.280
28401W        W93386   4.670  23.336   0.314
28402W        W93387   7.141   2.326  11.235
28403W        W93388  10.433   5.307  13.874
28404W        W93389  29.151   9.834  11.498
28405W        W93390  25.768  27.110  12.589
28406W        W93391  40.856  38.588  14.776
28407W        W93392   2.405  16.362   2.620
28408W        W93393  25.488   6.060  13.929
28409W        W93394  40.532  26.099   3.837
28410W        W93395   3.117  16.643   1.267
28411W        W93396  32.975  10.854  11.039
28412W        W93397  36.587  37.601   2.158
28413W        W93398  32.521   4.230  11.054
28414W        W93399  24.102   1.983  10.067
28415W        W93400  34.183  35.434   1.414
28416W        W93401   6.133  24.503  12.099
28417W        W93402   4.473   3.857   4.540
28418W        W93403  43.184  10.195  11.091
28419W        W93404   3.237  35.819   1.484
28420W        W93405   1.809  38.361  11.586
28421W        W93406  42.292  33.447   1.822
28422W        W93407  25.492   4.264   3.684
28423W        W93408  11.143  38.502  12.474
28424W        W93409  42.800  11.041   0.161
28425W        W93410  30.068  34.598   0.731
28426W        W93411   1.549  24.478  12.061
28427W        W93412  33.105  41.456  10.405
28428W        W93413  17.846  20.122   1.259
28429W        W93414  12.782  42.020   0.492
28430W        W93415  28.171  13.658   0.436
28431W        W93416  11.861  13.744  13.458
28432W        W93417  19.990  24.634   1.455
28433W        W93418  39.490  17.300   1.996
28434W        W93419  44.213   6.682   4.123
28435W        W93420  39.005  28.602   1.593
28436W        W93421  29.233  21.839  12.252
28437W        W93422  38.372  15.290  11.718
28438W        W93423  25.512  20.118  12.497
28439W        W93424  28.190   0.688  11.281
28440W        W93425  42.543  19.839   2.956
28441W        W93426  43.431  34.931   3.730
28442W        W93427  29.728  36.910  11.005
28443W        W93428  11.185  22.303   4.067
28444W        W93429  16.896  12.091   5.110
28445W        W93430   1.077  33.020  14.305
28446W        W93431   0.395  19.269  10.715
28447W        W93432  28.092   2.875   1.523
28448W        W93433   4.982  27.636  11.426
28449W        W93434  22.767  15.848   3.511
28450W        W93435  34.788  44.670  12.212
28451W        W93436  18.093  36.478  12.053
28452W        W93437  36.105   7.922  11.167
28453W        W93438  19.221  23.071  13.868
28454W        W93439  39.938  26.092  12.941
28455W        W93440   7.602  22.714  12.886
28456W        W93441  17.188   5.320  13.578
28457W        W93442  26.957  15.213   1.402
28458W        W93443   6.837   4.590  13.899
28459W        W93444  40.221   3.386  14.265
28460W        W93445  43.435  12.149   1.195
28461W        W93446   5.772  16.009  14.527
28462W        W93447  24.789   0.279   2.661
28463W        W93448  34.124  35.844   2.848
28464W        W93449  37.291  12.531   0.282
28465W        W93450  18.868  16.202  13.998
28466W        W93451  28.452  35.046  14.406
28467W        W93452   3.763   5.111  14.326
28468W        W93453  41.873  39.429  11.902
28469W        W93454  22.180  32.028   3.414
28470W        W93455  34.848  30.465   0.754
28471W        W93456  41.995  14.329  12.445
28472W        W93457  37.452  10.270  12.824
28473W        W93458   3.905  29.464  12.870
28474W        W93459  11.688  43.199  10.363
28475W        W93460  44.092  12.241   3.710
28476W        W93461  37.302  25.555   1.746
28477W        W93462   0.695  15.067   4.181
28478W        W93463  31.073  13.337  11.704
28479W        W93464  33.857  27.452   3.237
28480W        W93465  22.532   9.120   2.426
28481W        W93466  10.722   8.388  10.782
28482W        W93467  24.144  13.220  14.339
28483W        W93468  13.161  32.247   1.870
28484W        W93469   4.441  34.445  12.780
28485W        W93470  44.032  12.187  11.961
28486W        W93471   2.897  31.786   2.699
28487W        W93472  10.814  20.044   1.357
28488W        W93473  21.378  40.264  11.956
28489W        W93474  20.490  37.141  10.422
28490W        W93475  11.619   0.846  13.573
28491W        W93476  27.429  32.392  13.424
28492W        W93477   5.149  10.279   3.042
28493W        W93478   5.964   1.817  14.681
28494W        W93479  34.571  13.796   4.946
28495W        W93480   5.143  27.072   4.113
28496W        W93481  37.897  27.548   2.314
28497W        W93482   4.484  12.900   3.572
28498W        W93483   4.216   7.545  10.066
28499W        W93484  42.760   2.937  11.253
28500W        W93485  24.292  42.917   1.722
28501W        W93486  35.017  39.866   1.773
28502W        W93487  22.002  39.324  10.396
28503W        W93488  38.645  39.329  14.929
28504W        W93489  43.814  24.224  14.484
28505W        W93490   2.409   0.235  14.240
28506W        W93491  29.091   0.927  11.680
28507W        W93492  44.274   0.462  14.838
28508W        W93493  19.624  22.779  11.613
28509W        W93494   2.934   1.528  14.064
28510W        W93495  37.258  32.707   1.364
28511W        W93496   8.382  38.870  14.049
28512W        W93497  28.737  16.764  13.461
28513W        W93498  19.777   6.199  12.391
28514W        W93499  40.928  44.978  14.876
28515W        W93500  18.349  11.653   4.637
28516W        W93501  15.685  43.750  11.870
28517W        W93502  43.561  22.899   3.639
28518W        W93503  23.502  22.120   2.321
28519W        W93504  21.241  11.216   3.464
28520W        W93505   7.356  21.441   4.572
28521W        W93506  23.495  38.387   4.037
28522W        W93507  32.194  31.123   2.759
28523W        W93508  14.768  17.105  12.743
28524W        W93509  26.834  18.506  13.630
28525W        W93510   8.883  28.047  14.593
28526W        W93511   5.294  37.776   2.436
28527W        W93512  16.164  33.442   3.393
28528W        W93513  28.682  34.156  11.320
28529W        W93514  16.528  40.015  13.585
28530W        W93515  21.029   8.868  12.129
28531W        W93516  31.437  28.236   1.687
28532W        W93517  36.552  34.815  14.018
28533W        W93518  34.935  29.872   0.680
28534W        W93519  12.004  41.260   3.825
28535W        W93520  15.824  38.562   1.826
28536W        W93521  26.060  35.427  11.417
28537W        W93522  12.353  11.547  12.974
28538W        W93523  38.213   6.288   1.460
28539W        W93524   5.252  43.663  14.040
28540W        W93525   0.941  40.274  10.326
28541W        W93526   3.792  18.681  14.970
28542W        W93527  12.702  24.234   4.126
28543W        W93528  38.345  16.897   3.349
28544W        W93529  10.514  28.672  13.403
28545W        W93530  11.864  25.597   1.837
28546W        W93531  24.476   1.200   0.864
28547W        W93532  42.957  18.192   5.014
28548W        W93533  44.727  25.939   2.286
28549W        W93534   9.558  21.490  13.258
28550W        W93535   8.120  13.049  10.859
28551W        W93536  29.913   5.269  12.876
28552W        W93537  33.654  14.264   5.060
28553W        W93538  14.762  13.298   1.723
28554W        W93539   4.348  32.466   2.375
28555W        W93540  40.853   6.215  14.932
28556W        W93541  11.628  31.969  11.698
28557W        W93542   0.400  15.560   2.568
28558W        W93543  30.564   0.547  11.407
28559W        W93544  29.839  10.723   3.814
28560W        W93545  41.840  30.372  14.222
28561W        W93546  31.115  41.308   4.077
28562W        W93547  34.676  20.184   0.002
28563W        W93548  23.002  31.320   3.347
28564W        W93549  36.813  41.997   4.213
28565W        W93550  44.016   2.341   1.292
28566W        W93551  37.520  32.840   4.858
28567W        W93552  39.911   1.373   4.480
28568W        W93553   9.361   4.454   2.629
28569W        W93554  13.717  31.661  14.803
28570W        W93555  28.658  16.283  14.948
28571W        W93556  41.886  19.629   0.464
28572W        W93557   6.831  21.089   4.581
28573W        W93558  14.949  40.750   0.711
28574W        W93559   0.306   2.872  14.122
28575W        W93560   9.215  44.424  12.445
28576W        W93561  28.917  22.736  14.411
28577W        W93562  17.309  34.430  14.290
28578W        W93563  23.021   2.994  10.763
28579W        W93564  22.208  29.403  11.859
28580W        W93565  15.327  10.642   4.335
28581W        W93566  21.488  26.706   0.788
28582W        W93567   5.280   4.921   9.904
28583W        W93568  19.192  40.559   3.082
28584W        W93569  25.010  40.365  12.068
28585W        W93570   9.198  31.982   0.247
28586W        W93571  15.784  32.941  13.397
28587W        W93572   9.389   0.623   2.733
28588W        W93573  21.396   3.166  10.658
28589W        W93574  40.608   6.229   1.296
28590W        W93575  29.652  11.794   1.648
28591W        W93576  27.364  37.816   1.757
28592W        W93577  30.854  35.203  12.644
28593W        W93578   6.625  30.842   0.965
28594W        W93579  32.020  16.720   4.364
28595W        W93580  12.117  42.532  13.784
28596W        W93581   4.707   8.803   0.350
28597W        W93582   9.133  14.361  12.558
28598W        W93583  18.585  24.068  13.712
28599W        W93584  36.582   7.864  12.489
28600W        W93585  24.065  38.985   0.984
28601W        W93586  26.134  42.012  14.660
28602W        W93587  11.410  15.855  13.473
28603W        W93588  13.033  17.974   0.318
28604W        W93589  18.960  23.510  14.027
28605W        W93590  44.667  13.199  12.673
28606W        W93591  34.583  39.344  12.195
28607W        W93592  34.937  21.627  12.544
28608W        W93593  14.624  19.801   4.184
28609W        W93594  27.387  43.810   0.081
28610W        W93595   0.879  40.339   0.845
28611W        W93596  33.997  22.390   1.404
28612W        W93597  26.682  35.030  13.915
28613W        W93598   0.757  42.018   4.096
28614W        W93599  34.062   1.318   4.785
28615W        W93600  15.851  29.589   2.256
28616W        W93601  12.170  15.603   4.401
28617W        W93602  24.114   3.815   4.194
28618W        W93603  10.270  24.066   4.613
28619W        W93604  38.384   7.736   4.619
28620W        W93605  36.797  11.580  14.373
28621W        W93606  30.987  30.417  14.033
28622W        W93607  34.614  13.467  10.131
28623W        W93608  23.983  41.229  14.302
28624W        W93609  15.641  33.005   4.340
28625W        W93610  35.757  13.110  13.018
28626W        W93611  10.330  37.920   1.743
28627W        W93612  29.241  15.761  10.743
28628W        W93613  38.901  38.135   0.383
28629W        W93614   7.842   6.801   0.813
28630W        W93615  40.823  30.853   2.753
28631W        W93616  38.398  43.965  14.387
28632W        W93617  44.695   9.225  10.789
28633W        W93618  31.661  29.626  14.495
28634W        W93619  36.359  36.765   1.216
28635W        W93620  27.909  15.609   4.956
28636W        W93621  11.155  25.458  10.354
28637W        W93622   0.337   7.336  10.677
28638W        W93623  29.485  40.530   2.956
28639W        W93624  34.389   3.662  13.930
28640W        W93625  41.071  36.535  12.837
28641W        W93626  17.138  35.552   4.715
28642W        W93627  29.177   4.981  13.425
28643W        W93628  23.243  36.317   0.416
28644W        W93629  10.374  38.121  12.120
28645W        W93630  30.022  13.625   0.928
28646W        W93631  34.053   7.349   0.381
28647W        W93632  32.906  27.145  13.353
28648W        W93633   9.203  27.638  10.762
28649W        W93634  18.672  33.438   2.656
28650W        W93635  22.835  17.733  13.486
28651W        W93636   6.262  23.660  13.974
28652W        W93637   2.847  15.498  13.012
28653W        W93638   5.186   1.195   3.518
28654W        W93639  10.265  42.911  12.791
28655W        W93640  12.348  16.097   4.440
28656W        W93641   6.917   3.241  13.828
28657W        W93642  17.469   6.205   0.923
28658W        W93643  11.620   7.198  14.755
28659W        W93644  16.806   7.375   4.095
28660W        W93645  17.727  20.186  12.606
28661W        W93646  33.178  38.085  14.763
28662W        W93647  34.586  23.134   4.267
28663W        W93648  29.984  17.811   1.800
28664W        W93649   8.809  16.209   1.607
28665W        W93650  28.017  25.407  14.044
28666W        W93651  21.696  19.030   2.716
28667W        W93652   5.898   4.332   1.613
28668W        W93653  29.870  36.786   1.880
28669W        W93654  18.548  39.870  13.522
28670W        W93655  37.939  34.992  14.437
28671W        W93656   5.256  19.816  12.428
28672W        W93657  33.385   4.218  11.336
28673W        W93658  18.285  14.692   4.547
28674W        W93659   9.979  44.411   3.158
28675W        W93660  32.417  42.046  12.498
28676W        W93661  12.138  30.639  11.904
28677W        W93662   4.666  35.270  13.339
28678W        W93663  41.522  18.986   0.709
28679W        W93664   4.484  43.323   1.350
28680W        W93665  34.574  14.120   1.392
28681W        W93666  35.761  11.414  13.146
28682W        W93667  21.268  33.629  10.639
28683W        W93668   7.848  33.953  12.819
28684W        W93669  19.184  31.634  13.142
28685W        W93670  18.803  13.747   3.124
28686W        W93671  31.075  17.511   2.833
28687W        W93672  31.972  30.333   3.995
28688W        W93673   6.248  24.207   1.832
28689W        W93674   3.912   5.370  11.572
28690W        W93675  18.616   1.192   2.820
28691W        W93676  10.657  36.799   2.331
28692W        W93677  34.162  40.545  11.627
28693W        W93678  17.176  20.665  11.106
28694W        W93679  37.814  35.658   0.868
28695W        W93680  31.628  43.783   3.254
28696W        W93681   7.638   8.844  13.977
28697W        W93682  13.137  23.465  13.046
28698W        W93683  18.364  30.021  12.540
28699W        W93684  38.665  32.940   0.429
28700W        W93685  21.960  30.337  12.258
28701W        W93686  14.285  12.635   1.445
28702W        W93687  15.971  17.385   2.723
28703W        W93688  16.904   5.299   3.943
28704W        W93689  11.342   0.471  12.007
28705W        W93690   5.646  20.170  13.842
28706W        W93691   6.870  15.310  10.525
28707W        W93692  36.551  25.494  12.850
28708W        W93693   7.193   8.299   4.553
28709W        W93694  31.675  28.682  11.511
28710W        W93695  37.076  18.536  11.073
28711W        W93696  33.589  36.517  10.721
28712W        W93697  37.314  28.575  14.792
28713W        W93698  18.958   5.230   5.016
28714W        W93699  26.158  42.046   4.482
28715W        W93700  34.100  22.931   1.478
28716W        W93701  22.215  35.857  13.100
28717W        W93702   7.517   7.273   1.505
28718W        W93703  24.022  22.294   1.769
28719W        W93704   5.791  12.029  11.435
28720W        W93705   1.905   1.192  11.538
28721W        W93706  32.834  31.524   3.569
28722W        W93707  20.254   1.369   2.660
28723W        W93708  31.033  43.555   2.310
28724W        W93709  27.736  13.084   4.580
28725W        W93710  26.403   7.311  12.855
28726W        W93711  34.442  27.008   4.246
28727W        W93712   4.141  13.041   1.141
28728W        W93713  25.677  17.631  14.508
28729W        W93714  10.527   6.186   4.219
28730W        W93715   6.272  29.066   4.730
28731W        W93716  35.520  24.246  12.927
28732W        W93717   3.305  17.360   2.926
28733W        W93718  22.434  31.887  13.045
28734W        W93719  42.792   2.521   0.465
28735W        W93720  27.127  23.035   3.828
28736W        W93721  19.635  16.974   1.853
28737W        W93722  36.207  32.446   0.237
28738W        W93723  36.357  43.760  12.870
28739W        W93724  40.401  23.893  13.052
28740W        W93725  19.737  38.385   2.712
28741W        W93726  17.552   2.928   0.343
28742W        W93727   6.496  40.586   0.919
28743W        W93728  30.840  44.000   2.130
28744W        W93729   1.157  22.956   3.140
28745W        W93730  23.411  28.053  10.536
28746W        W93731  32.692   6.321   3.377
28747W        W93732  36.784  23.568  11.701
28748W        W93733  10.726  32.533   2.728
28749W        W93734  38.997  14.790  10.773
28750W        W93735  13.344  16.999   0.447
28751W        W93736  44.757  23.038  11.465
28752W        W93737  42.331  14.542   3.934
28753W        W93738  32.829  16.588  13.441
28754W        W93739  25.485  39.589   2.802
28755W        W93740  24.667  28.563   0.744
28756W        W93741  34.424  25.743  11.933
28757W        W93742  30.476  28.138   0.358
28758W        W93743  36.601  34.881   0.649
28759W        W93744   1.700  17.729  11.276
28760W        W93745  22.146   1.447   3.139
28761W        W93746   0.297  44.232   3.698
28762W        W93747  19.957  23.080  14.964
28763W        W93748  22.132   6.862   3.097
28764W        W93749  20.718  19.885   0.464
28765W        W93750  20.643  35.556   0.303
28766W        W93751  43.805  30.008   4.404
28767W        W93752  42.019  32.224  14.908
28768W        W93753   2.424  11.141   4.515
28769W        W93754  12.653   4.471   1.792
28770W        W93755  39.677   5.673   2.773
28771W        W93756  27.524  17.643   3.930
28772W        W93757  23.225  32.178   3.634
28773W        W93758   7.349  23.268   3.867
28774W        W93759  41.359  23.588   5.235
28775W        W93760   0.823  36.871   0.466
28776W        W93761  18.915  20.668  14.928
28777W        W93762   5.934   4.245   0.216
28778W        W93763  10.705  14.220   2.280
28779W        W93764  10.920   4.776   1.411
28780W        W93765  20.713   2.771   4.902
28781W        W93766  28.996   0.356  12.451
28782W        W93767  32.654  28.611   1.244
28783W        W93768  15.785  44.976   0.251
28784W        W93769   7.318  20.594  12.616
28785W        W93770  37.800   5.877  14.934
28786W        W93771  21.821   0.286   0.257
28787W        W93772  40.768   2.051  10.983
28788W        W93773  16.066  36.018  10.702
28789W        W93774   3.891   9.754   1.199
28790W        W93775   7.344  29.592  11.510
28791W        W93776  12.401   4.291   0.406
28792W        W93777  35.070  10.872  12.019
28793W        W93778  19.263  17.754  11.623
28794W        W93779  16.861  15.566  12.075
28795W        W93780  15.512  11.355   0.171
28796W        W93781  26.451  40.500  13.113
28797W        W93782   4.909  34.167  11.234
28798W        W93783  36.970  25.028   4.475
28799W        W93784  41.473  28.144  12.937
28800W        W93785  33.418  23.625   3.115
28801W        W93786  38.999  43.111   1.800
28802W        W93787  44.929  41.721  12.872
28803W        W93788  17.050  23.303   4.092
28804W        W93789  43.983  39.872  11.430
28805W        W93790  26.323  36.901  11.077
28806W        W93791  21.168  13.638  13.763
28807W        W93792  13.334  39.405   1.328
28808W        W93793   8.694  13.001   5.120
28809W        W93794  32.813  15.088   4.086
28810W        W93795   3.904  28.440  14.389
28811W        W93796  30.759   1.050   4.238
28812W        W93797   0.807  24.551  12.971
28813W        W93798  12.929   8.614  10.829
28814W        W93799  38.799  10.808  11.944
28815W        W93800  25.221   1.378  14.232
28816W        W93801  30.902  27.918  14.458
28817W        W93802  26.684  34.642   4.153
28818W        W93803  25.585   4.310  13.924
28819W        W93804  13.933  40.884   0.973
28820W        W93805  16.177  33.554   2.884
28821W        W93806  31.951  25.763  12.111
28822W        W93807  22.079  17.029   4.677
28823W        W93808  38.254   6.743   1.706
28824W        W93809  20.950  22.487  12.520
28825W        W93810   4.442   5.198  13.253
28826W        W93811   5.965  41.435   4.192
28827W        W93812  42.283   3.405  10.673
28828W        W93813  42.921  18.931   2.860
28829W        W93814  29.669  11.602  14.412
28830W        W93815  41.969  34.480  12.346
28831W        W93816  44.463   7.181  12.281
28832W        W93817  33.968  32.940  10.720
28833W        W93818  33.948  35.907   1.506
28834W        W93819   4.668   6.219  10.068
28835W        W93820  26.729  11.545   0.529
28836W        W93821  26.797  23.554   4.581
28837W        W93822  15.667  31.463   4.162
28838W        W93823   6.958  38.591  13.646
28839W        W93824   7.812  10.403  14.478
28840W        W93825  34.007   6.755   3.550
28841W        W93826  11.324  29.098   4.546
28842W        W93827  22.451  20.563   4.548
28843W        W93828   6.313  13.154   1.909
28844W        W93829  13.802  20.057   4.033
28845W        W93830   7.730  17.746   2.391
28846W        W93831  34.816  39.356   0.449
28847W        W93832  26.626  23.604   2.186
28848W        W93833  22.684  16.753  10.477
28849W        W93834  16.859  25.768  12.948
28850W        W93835   0.984  15.013   1.889
28851W        W93836  42.342   6.951   1.441
28852W        W93837  22.326  41.083  11.642
28853W        W93838   4.981  13.396   4.169
28854W        W93839   7.722  37.029  13.467
28855W        W93840  21.611  18.601  10.798
28856W        W93841  37.111   0.986  13.823
28857W        W93842  13.655   9.210  10.417
28858W        W93843  11.113   3.364  13.977
28859W        W93844  18.642  43.015  14.789
28860W        W93845  34.526  22.921  12.763
28861W        W93846  12.691  34.522   1.767
28862W        W93847   0.707   0.718  10.908
28863W        W93848  40.733   7.797   0.462
28864W        W93849  10.291  11.089   2.711
28865W        W93850   9.424  16.827   3.725
28866W        W93851  16.254  10.839   3.246
28867W        W93852  23.033   8.299   0.687
28868W        W93853  13.770  29.915   3.082
28869W        W93854  10.377   0.085  11.323
28870W        W93855  19.111  31.956   3.123
28871W        W93856  44.763  14.754   3.446
28872W        W93857  14.223  11.230   3.290
28873W        W93858  17.803   0.101   1.579
28874W        W93859  26.278  16.619   1.304
28875W        W93860   6.927  10.651   1.840
28876W        W93861  13.863  13.269  10.700
28877W        W93862  42.342  35.126   0.901
28878W        W93863  17.529   6.242   2.389
28879W        W93864  38.582   4.429  11.590
28880W        W93865   9.970  11.665   4.124
28881W        W93866  16.478  17.370   2.689
28882W        W93867  13.632   3.479  13.562
28883W        W93868  26.121  30.673   3.570
28884W        W93869  14.587   8.743   4.116
28885W        W93870  34.085  17.991  11.562
28886W        W93871  25.091  24.071  12.214
28887W        W93872  38.603   3.652  12.868
28888W        W93873  23.942  28.506   3.566
28889W        W93874  30.021   0.888   2.632
28890W        W93875  44.694  29.652   4.636
28891W        W93876  17.103   9.174   1.830
28892W        W93877  41.409  24.035  13.310
28893W        W93878  30.366   5.492   0.356
28894W        W93879  28.456  17.539  12.822
28895W        W93880  34.630   8.108  12.471
28896W        W93881  20.810   1.890   1.830
28897W        W93882  10.690  30.165   1.435
28898W        W93883  16.831   8.103  10.211
28899W        W93884  30.620  16.171   4.963
28900W        W93885  24.688  10.274  11.550
28901W        W93886  28.389  17.180   0.922
28902W        W93887  24.728  17.956  12.088
28903W        W93888   3.873  26.706  11.845
28904W        W93889   7.756  15.713   5.004
28905W        W93890  28.506  15.547  13.098
28906W        W93891  18.103  42.026   0.086
28907W        W93892  14.822  35.061   0.681
28908W        W93893   8.430  36.359  13.526
28909W        W93894  17.936  39.159  13.440
28910W        W93895   6.753  39.406   0.917
28911W        W93896  33.575  29.728   2.259
28912W        W93897  32.373  24.979   0.003
28913W        W93898   0.382  41.871   1.759
28914W        W93899  29.850  12.366  11.913
28915W        W93900  23.304  29.093   4.575
28916W        W93901  12.643  15.478   4.197
28917W        W93902   7.456  15.138  10.347
28918W        W93903  35.273  23.562  10.741
28919W        W93904  41.530   0.261  13.845
28920W        W93905  23.737   1.854   2.659
28921W        W93906  31.706   2.188   4.972
28922W        W93907  29.023  44.738  14.870
28923W        W93908  35.584   3.266   2.244
28924W        W93909  16.419   4.372  14.818
28925W        W93910  29.430  31.183   3.267
28926W        W93911  37.568  29.718   1.811
28927W        W93912  41.728   2.131  12.115
28928W        W93913   8.500  28.712  11.184
28929W        W93914  36.083   8.751   1.229
28930W        W93915  18.570  35.827  13.922
28931W        W93916  23.491  42.557   1.330
28932W        W93917  15.633  20.393  10.163
28933W        W93918  41.380  17.743  13.560
28934W        W93919  33.969  17.320   3.404
28935W        W93920  42.557  32.007  12.058
28936W        W93921  13.777  14.095  10.984
28937W        W93922   0.734  21.999  10.469
28938W        W93923  29.591  24.431   3.437
28939W        W93924  19.154  25.727  12.865
28940W        W93925  22.692  42.456  12.074
28941W        W93926  12.434   6.838  11.898
28942W        W93927  31.450   0.529  13.549
28943W        W93928  12.393   4.913   1.984
28944W        W93929   6.187  21.279  10.435
28945W        W93930  33.437  36.825  11.417
28946W        W93931  12.128  41.283  11.523
28947W        W93932  24.923  15.022   2.732
28948W        W93933  16.107  19.614   9.798
28949W        W93934   8.397  18.295   0.216
28950W        W93935  10.843  23.428   4.555
28951W        W93936   1.458   0.902  10.688
28952W        W93937  34.699  34.675  11.138
28953W        W93938  35.005  17.715  14.998
28954W        W93939  35.006  27.157  11.129
28955W        W93940  34.099  43.878  12.091
28956W        W93941  35.713  42.851  11.026
28957W        W93942  25.531  27.700   4.883
28958W        W93943  11.923  40.992  14.856
28959W        W93944  10.658  44.746  12.623
28960W        W93945  33.115  39.853  12.281
28961W        W93946  14.727  30.101   1.370
28962W        W93947  25.946  13.253  13.110
28963W        W93948   2.161   6.255  11.532
28964W        W93949  41.382   1.727   1.293
28965W        W93950  26.523   3.706   2.800
28966W        W93951  13.793   8.661   0.384
28967W        W93952  14.527  26.677   5.073
28968W        W93953  26.763  10.159   1.519
28969W        W93954  23.566   5.628   4.524
28970W        W93955  41.675  16.182  12.529
28971W        W93956  17.755   2.614   3.786
28972W        W93957  11.445  42.831   2.280
28973W        W93958  30.786   8.735  14.562
28974W        W93959  23.685  17.080  14.474
28975W        W93960  16.034  32.072  13.565
28976W        W93961  22.014  11.704  14.063
28977W        W93962  20.288  15.298  13.171
28978W        W93963  44.321  40.050   2.359
28979W        W93964  36.823  39.755  10.824
28980W        W93965  41.956  22.789   2.463
28981W        W93966  32.770   7.548   2.173
28982W        W93967   3.363   9.948  14.406
28983W        W93968   0.261  31.768  12.715
28984W        W93969  13.240   1.901   2.342
28985W        W93970  28.707  44.869  11.178
28986W        W93971  29.065  21.097   0.986
28987W        W93972  23.128   9.059  13.393
28988W        W93973  28.082  34.906   3.234
28989W        W93974  14.106  25.559   1.275
28990W        W93975  22.925  16.173  13.174
28991W        W93976  28.947  31.105  11.692
28992W        W93977   2.856  13.438   0.937
28993W        W93978  19.255  29.822  14.467
28994W        W93979   6.454  43.361   0.624
28995W        W93980  20.481  43.946  12.429
28996W        W93981   7.427   1.101  12.335
28997W        W93982   6.933  31.030   3.748
28998W        W93983   0.815  31.522  12.038
28999W        W93984  16.236  28.654  12.475
29000W        W93985  15.007  33.050  12.975
29001W        W93986  24.982  44.833   4.304
29002W        W93987   7.190  36.088   4.572
29003W        W93988  17.811  34.546  12.620
29004W        W93989  24.534  16.317   1.800
29005W        W93990  12.691  33.935  11.346
29006W        W93991  34.428   9.655  13.302
29007W        W93992  33.633  28.252   1.250
29008W        W93993  26.810   4.440   2.440
29009W        W93994  38.248  27.656   1.921
29010W        W93995   6.082   5.378   2.169
29011W        W93996  39.534  40.665  12.025
29012W        W93997  43.744  40.021   4.064
29013W        W93998   4.698  12.949   3.055
29014W        W93999  41.404   2.875  14.272
29015W        W94000  13.714   5.418  10.281
29016W        W94001  41.454   4.053   1.266
29017W        W94002  21.775   0.179   1.285
29018W        W94003  22.268   0.849  11.679
29019W        W94004  17.915  34.075   0.756
29020W        W94005  15.374  25.020  11.524
29021W        W94006  30.742   2.722  14.760
29022W        W94007  15.890  31.008   1.960
29023W        W94008  29.053  38.060   0.837
29024W        W94009  38.458  19.961   1.516
29025W        W94010   1.921  13.381  14.552
29026W        W94011  39.377  24.034  11.560
29027W        W94012  28.530  28.160   2.177
29028W        W94013  15.662  25.546   2.625
29029W        W94014  42.694  35.775  10.607
29030W        W94015  27.176  10.262   4.802
29031W        W94016  26.201  31.505  12.999
29032W        W94017  28.340  29.273  11.991
29033W        W94018  42.331  32.879  13.442
29034W        W94019  42.344  40.798   4.676
29035W        W94020  35.617  32.461  13.883
29036W        W94021  43.616  12.527   9.732
29037W        W94022  26.911  17.164  11.181
29038W        W94023  36.053  24.660   3.314
29039W        W94024  11.688  29.426   1.975
29040W        W94025  35.567  34.870  12.935
29041W        W94026   3.727  24.084  11.584
29042W        W94027  29.222  24.066   4.408
29043W        W94028  18.967  11.638   2.409
29044W        W94029  31.199  37.338  14.481
29045W        W94030  35.980  11.742   1.751
29046W        W94031  40.596   9.330   0.418
29047W        W94032  12.962  21.998   0.210
29048W        W94033  24.764   2.814   4.583
29049W        W94034  35.428  35.521  13.889
29050W        W94035  12.863   4.498   4.122
29051W        W94036   2.769  25.552  11.144
29052W        W94037   1.077  37.297   2.036
29053W        W94038  15.567  31.407  14.042
29054W        W94039  41.458  23.222   1.807
29055W        W94040  43.798   2.830   2.288
29056W        W94041  16.548  32.038  10.698
29057W        W94042  42.887  26.959   0.400
29058W        W94043  21.472   7.007   3.840
29059W        W94044  17.197  29.197  13.860
29060W        W94045  22.790   1.951   0.348
29061W        W94046  38.332   7.342  10.579
29062W        W94047  31.628  29.649  12.478
29063W        W94048  37.105  42.557   1.007
29064W        W94049  40.791  36.090  14.173
29065W        W94050  31.361  14.323   3.308
29066W        W94051  36.503  27.659   4.559
29067W        W94052  37.483   4.823   2.757
29068W        W94053  22.121  18.814  13.000
29069W        W94054  19.011  22.059   0.194
29070W        W94055   8.652   3.397   1.287
29071W        W94056  36.940  32.089  14.916
29072W        W94057  23.554  36.347   3.688
29073W        W94058  29.972  40.830   4.250
29074W        W94059  38.837  39.148   0.437
29075W        W94060  32.419  21.208  10.795
29076W        W94061  22.761   5.296  13.481
29077W        W94062  36.641  21.071  14.906
29078W        W94063  33.137  12.885   4.424
29079W        W94064  41.337  37.061  14.414
29080W        W94065  17.241   3.090  10.319
29081W        W94066  13.413  15.446   1.069
29082W        W94067  30.650  12.125   2.880
29083W        W94068  10.249   4.676  11.016
29084W        W94069  28.046  25.396  14.867
29085W        W94070  20.305   5.333  12.543
29086W        W94071  20.315  10.876  12.581
29087W        W94072  42.774  29.902   2.433
29088W        W94073  20.597   8.044   5.117
29089W        W94074   1.940  34.537  10.768
29090W        W94075  27.139  44.675  14.380
29091W        W94076  27.096  35.472  14.720
29092W        W94077  20.055   2.784  14.065
29093W        W94078   9.917   5.182   9.779
29094W        W94079  11.848   3.493   4.157
29095W        W94080  42.089   6.544   4.682
29096W        W94081  28.483  16.751  14.885
29097W        W94082   7.587  25.952  12.354
29098W        W94083   6.734  11.857  12.481
29099W        W94084  24.591  16.572  14.426
29100W        W94085  22.699  21.175  12.051
29101W        W94086  20.059  25.567  11.669
29102W        W94087   6.885  37.782  11.971
29103W        W94088   6.891   4.408   0.396
29104W        W94089  28.115  19.063  14.528
29105W        W94090  25.377  39.516  12.233
29106W        W94091  10.116  41.320  11.226
29107W        W94092  26.616  20.608   3.762
29108W        W94093   6.725  41.224  13.687
29109W        W94094  10.817  30.658  12.384
29110W        W94095  21.941  31.051   2.449
29111W        W94096  31.781   4.232   1.826
29112W        W94097  41.162  13.800  12.125
29113W        W94098  11.235  27.558  13.332
29114W        W94099   9.269  25.165   1.952
29115W        W94100  17.830   3.127   3.916
29116W        W94101  24.936   8.794   5.011
29117W        W94102  18.677  12.431   3.104
29118W        W94103  22.938   2.007   3.299
29119W        W94104   0.697  30.471   3.615
29120W        W94105  27.939  15.019   0.384
29121W        W94106  37.112  41.972  13.376
29122W        W94107   2.713  17.195   2.313
29123W        W94108  33.122  32.121   3.768
29124W        W94109  31.451  18.221   3.867
29125W        W94110  23.370  36.839   3.064
29126W        W94111  44.341   3.879   1.415
29127W        W94112  18.658  27.337   1.305
29128W        W94113  16.222  30.138  10.923
29129W        W94114  44.829   0.006  13.095
29130W        W94115   8.488  30.704  12.682
29131W        W94116   6.762  40.288   4.287
29132W        W94117   9.866   6.439  11.134
29133W        W94118  42.588  22.275   2.956
29134W        W94119  36.010  32.608  12.080
29135W        W94120  16.098  24.617  11.578
29136W        W94121  43.459  27.167   4.708
29137W        W94122  23.099  28.919  11.988
29138W        W94123   2.410  20.553   1.453
29139W        W94124  24.104  40.862   0.962
29140W        W94125  14.081   2.380  14.277
29141W        W94126  41.548  37.100  12.146
29142W        W94127  22.455  15.075   2.919
29143W        W94128   9.281   6.890  10.756
29144W        W94129  39.520  18.672   1.580
29145W        W94130   8.664  15.038  12.965
29146W        W94131  28.937   5.713  13.967
29147W        W94132   6.724  22.916  12.105
29148W        W94133  42.559  18.607   2.193
29149W        W94134   8.118   2.600   2.323
29150W        W94135   6.400  35.018  13.966
29151W        W94136  18.375   8.697  12.401
29152W        W94137  42.330  34.481  13.193
29153W        W94138  26.724   6.421  10.868
29154W        W94139  38.064  23.020   2.286
29155W        W94140  35.783  12.625  14.289
29156W        W94141  35.022  27.661   1.284
29157W        W94142  33.140   2.239   2.705
29158W        W94143  29.273  31.259   9.843
29159W        W94144  11.406  43.925  14.908
29160W        W94145  21.606   3.995  11.557
29161W        W94146   6.238  31.427  12.960
29162W        W94147   6.362  44.428  13.836
29163W        W94148  17.309   5.377  14.080
29164W        W94149  20.639  42.285   3.839
29165W        W94150  27.049  26.484   2.171
29166W        W94151  18.175   0.214   0.282
29167W        W94152  33.566   4.479   4.121
29168W        W94153  22.545  22.156   3.187
29169W        W94154  38.281  38.310  12.485
29170W        W94155  25.549  38.645  12.089
29171W        W94156  28.443   8.646  11.677
29172W        W94157  35.865   7.728  12.037
29173W        W94158  24.772  11.710   4.130
29174W        W94159  15.702  19.869  12.532
29175W        W94160   8.179  36.339   4.607
29176W        W94161   2.750   2.285  12.235
29177W        W94162  10.126  24.124  14.890
29178W        W94163  21.712  20.580   3.574
29179W        W94164  26.970  18.103  11.430
29180W        W94165  34.915   4.413   3.378
29181W        W94166  24.126  20.742  12.053
29182W        W94167   1.571   4.625   2.849
29183W        W94168  38.853   3.280   2.194
29184W        W94169   3.363  21.301   0.738
29185W        W94170  23.778  17.186   2.260
29186W        W94171  38.961  22.682   2.625
29187W        W94172  11.404   1.995  14.012
29188W        W94173  32.857  36.255   1.934
29189W        W94174  10.557   7.097  12.036
29190W        W94175  15.198  38.986   3.066
29191W        W94176  26.641  24.740  14.337
29192W        W94177  20.531  37.446   2.456
29193W        W94178  18.723  13.290   3.377
29194W        W94179   9.902  18.175  13.375
29195W        W94180  44.523   7.927  13.517
29196W        W94181  43.326  28.198  11.072
29197W        W94182   6.718  43.827   2.666
29198W        W94183  32.946  15.285   1.921
29199W        W94184  31.476   5.339   0.018
29200W        W94185  32.420  18.082  14.621
29201W        W94186  30.160   8.642  10.742
29202W        W94187  43.282  34.957  13.355
29203W        W94188   2.408  32.949   1.914
29204W        W94189  43.917  21.064  14.936
29205W        W94190  21.431  35.924   2.972
29206W        W94191  17.348  12.892  13.072
29207W        W94192  40.853  44.122  13.622
29208W        W94193  19.659  16.758  11.090
29209W        W94194   9.102   6.019   1.745
29210W        W94195  25.309   8.986   3.746
29211W        W94196  14.342  18.043  10.741
29212W        W94197  32.673  27.092  14.777
29213W        W94198   0.040  37.495  12.074
29214W        W94199  38.448  31.426  10.443
29215W        W94200  20.091  15.253   2.610
29216W        W94201  24.518   2.676  11.766
29217W        W94202  41.603   5.192   4.121
29218W        W94203  11.447   5.469   1.226
29219W        W94204   2.731  39.676  11.179
29220W        W94205  28.913  37.379   0.026
29221W        W94206   0.803  26.892  12.133
29222W        W94207  25.699   8.744  14.744
29223W        W94208   4.853  25.665   4.934
29224W        W94209  34.540  37.167  10.664
29225W        W94210   2.155  14.165  10.707
29226W        W94211  26.629   7.406  14.106
29227W        W94212   3.692  36.423  11.150
29228W        W94213  22.172  37.269   3.153
29229W        W94214  25.649  43.679  11.925
29230W        W94215  24.084  17.762  12.838
29231W        W94216  20.217   1.678  10.771
29232W        W94217   2.497  15.035  11.079
29233W        W94218  28.626   7.162  14.705
29234W        W94219  40.355  25.319  14.795
29235W        W94220  26.428   5.797   2.103
29236W        W94221   4.780  22.469   2.239
29237W        W94222  37.531  10.883   1.804
29238W        W94223  18.612  43.539   1.989
29239W        W94224  13.789  29.476   3.337
29240W        W94225  30.063  11.125  11.013
29241W        W94226  35.371  34.490  10.504
29242W        W94227  32.643  34.341   0.285
29243W        W94228   1.960  32.649  11.901
29244W        W94229  21.558  32.167  11.012
29245W        W94230   2.176  14.903   2.799
29246W        W94231  16.827   9.098  13.059
29247W        W94232  17.227   2.931  12.942
29248W        W94233  40.550  16.565   2.244
29249W        W94234  32.631  12.149   3.931
29250W        W94235   5.496  35.318  11.182
29251W        W94236  30.125  24.109   4.206
29252W        W94237  43.584  16.375  11.213
29253W        W94238   6.328  21.505  11.302
29254W        W94239   3.264  25.185   0.946
29255W        W94240  38.910   5.289  12.119
29256W        W94241  18.723  13.277  14.738
29257W        W94242   6.132  15.741  13.355
29258W        W94243   6.551  16.548   4.366
29259W        W94244  12.332  38.351   2.258
29260W        W94245  17.363  22.170  14.081
29261W        W94246  13.669  37.045   2.221
29262W        W94247  15.623  20.709  14.102
29263W        W94248  31.108  29.494   2.426
29264W        W94249  44.942  21.395   3.580
29265W        W94250  30.788  44.288  11.835
29266W        W94251  27.944  36.418   2.076
29267W        W94252  13.656   2.175   0.772
29268W        W94253  14.218  42.389  14.477
29269W        W94254  23.741  17.389   3.731
29270W        W94255  14.752  43.807  13.224
29271W        W94256  11.781  14.559   5.268
29272W        W94257  29.152   4.924   1.365
29273W        W94258   6.134  30.701   0.358
29274W        W94259  37.454  13.522   0.171
29275W        W94260  33.805  18.103  10.416
29276W        W94261  11.777  42.007   3.686
29277W        W94262   6.708   2.463  14.939
29278W        W94263  30.083  31.623   5.691
29279W        W94264  23.778  16.279  13.058
29280W        W94265  14.981  27.274  14.857
29281W        W94266  18.887   1.259  14.697
29282W        W94267  43.478  37.289  13.925
29283W        W94268  14.922  43.234   1.191
29284W        W94269  41.458  18.368   1.863
29285W        W94270  21.266  14.794  12.018
29286W        W94271  39.477  42.069  11.054
29287W        W94272  35.914  33.009   1.459
29288W        W94273  15.773  41.185  13.377
29289W        W94274  23.641  12.105  12.596
29290W        W94275  15.052  38.867   2.589
29291W        W94276   4.958  30.639   0.299
29292W        W94277   4.097  26.287  12.082
29293W        W94278  23.275  27.857   1.267
29294W        W94279  20.749  27.673  11.944
29295W        W94280   4.490   0.179   2.933
29296W        W94281   1.659  35.064  14.181
29297W        W94282  37.143  17.548   4.947
29298W        W94283  38.383  32.465  13.941
29299W        W94284  18.184  17.495  14.788
29300W        W94285  30.462  29.651  11.425
29301W        W94286   8.382  18.148   4.131
29302W        W94287  20.843  40.415   0.643
29303W        W94288  35.852   6.903   0.284
29304W        W94289  22.058   8.701   4.183
29305W        W94290  29.425  34.681   3.628
29306W        W94291  37.063   8.216  13.877
29307W        W94292  43.271  30.834   3.665
29308W        W94293  31.387  33.108   1.369
29309W        W94294  44.951   6.815   2.395
29310W        W94295  12.288  39.910  10.711
29311W        W94296  15.763  34.042  11.904
29312W        W94297  36.094   8.203   0.543
29313W        W94298  18.636   7.841   2.298
29314W        W94299  11.355  38.064  14.736
29315W        W94300   4.797  40.902  13.888
29316W        W94301  33.321  25.621  12.829
29317W        W94302  11.124  36.449   2.817
29318W        W94303  33.156  18.833   2.749
29319W        W94304   3.807  35.686   1.750
29320W        W94305  38.026  19.796  14.929
29321W        W94306  29.018   5.835   2.913
29322W        W94307  10.926  19.603  12.013
29323W        W94308  26.567   8.673   3.270
29324W        W94309  18.515   3.919   4.790
29325W        W94310  14.584  14.307  14.903
29326W        W94311  11.701  30.503  12.133
29327W        W94312  28.403   5.457  12.298
29328W        W94313   2.511  35.541  13.999
29329W        W94314  30.669   7.812  14.813
29330W        W94315  19.507   0.085  11.801
29331W        W94316  34.706  35.377   4.581
29332W        W94317   6.410   9.739  13.326
29333W        W94318   0.501  42.954   0.717
29334W        W94319  43.472  13.770  11.143
29335W        W94320  14.710  22.013   0.803
29336W        W94321  20.328  13.230  14.197
29337W        W94322  12.175  41.906   4.536
29338W        W94323  40.514  32.400   2.311
29339W        W94324  27.682  10.141   1.055
29340W        W94325   4.285  26.177   3.334
29341W        W94326  21.631  41.039  14.434
29342W        W94327  33.887  16.962   1.232
29343W        W94328  10.922   7.768  10.050
29344W        W94329  12.864   2.742  11.735
29345W        W94330  39.254  32.973   1.331
29346W        W94331   7.266  42.515  13.627
29347W        W94332   6.309  26.134   1.552
29348W        W94333  26.448   1.047  11.091
29349W        W94334  10.124  36.899  12.576
29350W        W94335  38.732  34.904   3.612
29351W        W94336   3.971   8.252   3.667
29352W        W94337  20.020  28.490   3.720
29353W        W94338  37.112   3.232   1.412
29354W        W94339  33.906  42.153   2.617
29355W        W94340  14.782  41.259   4.170
29356W        W94341  40.953  44.746  14.355
29357W        W94342  16.331   4.279  13.939
29358W        W94343  22.230  22.687   4.129
29359W        W94344   7.756  14.127  13.940
29360W        W94345  34.007  34.135  11.219
29361W        W94346  14.841  20.229  12.656
29362W        W94347  42.295  42.201   0.174
29363W        W94348  33.097  41.947  13.922
29364W        W94349   3.452  22.796   2.953
29365W        W94350  14.629  21.779  13.841
29366W        W94351  40.559  16.829   2.680
29367W        W94352  28.732   2.876  13.692
29368W        W94353   0.124   8.905   3.019
29369W        W94354  24.490   6.718  11.990
29370W        W94355   3.219  15.127  14.534
29371W        W94356  33.240   0.867   4.099
29372W        W94357  31.495  15.094   1.895
29373W        W94358  16.342  29.162  12.387
29374W        W94359  36.263  20.504  11.623
29375W        W94360  37.658  30.004  11.287
29376W        W94361  35.089  41.069  11.149
29377W        W94362  42.216  33.384   2.681
29378W        W94363   9.238  44.471  13.332
29379W        W94364  32.286  36.535   1.292
29380W        W94365  10.684   4.470   1.778
29381W        W94366  37.669   5.788   0.925
29382W        W94367  12.338   3.521   1.644
29383W        W94368  41.214  12.731  12.182
29384W        W94369  22.760   5.272   0.855
29385W        W94370  11.676  29.997  10.825
29386W        W94371  36.890   1.955   0.690
29387W        W94372  24.189  38.294   1.292
29388W        W94373  34.494  15.111   1.711
29389W        W94374  13.845  10.401   0.812
29390W        W94375  10.543  16.715   0.399
29391W        W94376  32.477  15.552   0.648
29392W        W94377  21.455  27.742   4.147
29393W        W94378  40.807  18.146   0.053
29394W        W94379  39.857  37.157   1.523
29395W        W94380  25.037  27.843   0.499
29396W        W94381  24.127  14.628   1.327
29397W        W94382  41.469  41.282  13.383
29398W        W94383  17.263  40.041  10.733
29399W        W94384  18.897  29.451   2.779
29400W        W94385  40.528  15.785   0.783
29401W        W94386  13.055  16.386   4.062
29402W        W94387  36.683  11.712   1.189
29403W        W94388   1.262  17.450  10.699
29404W        W94389   3.981  29.009  11.964
29405W        W94390  32.528  21.543   4.606
29406W        W94391  40.053   4.383   0.262
29407W        W94392  39.945  41.633  10.632
29408W        W94393  41.692  30.630  11.377
29409W        W94394   7.322  23.164   0.767
29410W        W94395  27.660  18.302  11.950
29411W        W94396  20.497  22.761  12.547
29412W        W94397  22.081   3.053  14.518
29413W        W94398  25.606  26.802   1.432
29414W        W94399   4.345   7.122  14.931
29415W        W94400   3.126  14.880   0.747
29416W        W94401  41.301  35.946   2.621
29417W        W94402  20.705   2.826   1.298
29418W        W94403  10.335   0.003   3.069
29419W        W94404  28.646  10.599  14.750
29420W        W94405  14.185  30.654  12.938
29421W        W94406  19.027   5.869  14.468
29422W        W94407   2.989  33.951  13.065
29423W        W94408  14.217   2.620   4.801
29424W        W94409   1.014   5.487   0.382
29425W        W94410  25.757  33.667  13.010
29426W        W94411   6.468  25.869  13.143
29427W        W94412  16.783   0.910  12.848
29428W        W94413  29.596  23.105  12.668
29429W        W94414  38.959   0.642  10.120
29430W        W94415   5.851  25.590   3.636
29431W        W94416  12.055  10.383   1.679
29432W        W94417   3.202  36.581  11.170
29433W        W94418  26.144  10.248  14.494
29434W        W94419   3.410  34.235  12.903
29435W        W94420  37.907  25.755  11.907
29436W        W94421  12.154  10.725   2.711
29437W        W94422   3.376  29.940  14.919
29438W        W94423  41.902  20.830   1.407
29439W        W94424  41.025  18.770  14.497
29440W        W94425  31.172  34.859  11.075
29441W        W94426  21.983  17.768  14.455
29442W        W94427  35.085  14.130   1.160
29443W        W94428  34.606  34.412   1.376
29444W        W94429   4.258  16.388  12.078
29445W        W94430   9.141  44.832   0.864
29446W        W94431  30.535  22.117   0.003
29447W        W94432  30.931   0.773   2.464
29448W        W94433  10.776  37.278  12.817
29449W        W94434  25.990  27.890  12.090
29450W        W94435  33.223   5.331  14.962
29451W        W94436  17.667  25.382  12.129
29452W        W94437   3.235  11.846   3.316
29453W        W94438   1.948  18.024   2.338
29454W        W94439   5.669  21.702  12.392
29455W        W94440   1.792  14.120  12.839
29456W        W94441  21.074  41.917   1.954
29457W        W94442  31.956  14.917   1.576
29458W        W94443  40.272  27.006   3.660
29459W        W94444  38.901  26.768  13.605
29460W        W94445  39.409  29.163   0.686
29461W        W94446   6.746  37.018   0.487
29462W        W94447  34.559  34.567  14.296
29463W        W94448  24.318  36.866   2.976
29464W        W94449   1.639  15.105   0.959
29465W        W94450   0.567  44.695   3.701
29466W        W94451  42.151   4.992   2.352
29467W        W94452  10.508  10.367  13.330
29468W        W94453  27.980  12.099   4.804
29469W        W94454  30.137  44.618   2.132
29470W        W94455   6.239  31.804  12.121
29471W        W94456  27.146  32.476  13.964
29472W        W94457  34.987  26.411  12.890
29473W        W94458  39.188  33.472   2.889
29474W        W94459  36.166  26.541  10.671
29475W        W94460  13.069  16.665  13.946
29476W        W94461  23.107  31.559   4.267
29477W        W94462  31.800  29.460  11.991
29478W        W94463   2.974  44.562   4.490
29479W        W94464   5.737  16.596   3.395
29480W        W94465   0.459  19.300   0.323
29481W        W94466  29.951  20.767  13.398
29482W        W94467  24.586  27.484  14.690
29483W        W94468  37.971  13.812  13.057
29484W        W94469  42.101  26.443  10.398
29485W        W94470  24.624  21.238   0.509
29486W        W94471  37.789  26.208   0.859
29487W        W94472  31.353  38.762   4.452
29488W        W94473  39.226  32.258  14.223
29489W        W94474  26.120  31.574  11.726
29490W        W94475  17.137   7.130   5.413
29491W        W94476   3.217   0.409   3.895
29492W        W94477  37.869   1.840   5.186
29493W        W94478  33.406   4.227  14.343
29494W        W94479  31.220  25.147  10.707
29495W        W94480  42.795   9.864  10.046
29496W        W94481  18.741  32.123  13.766
29497W        W94482  28.069  30.627   1.164
29498W        W94483  19.499   5.565  14.421
29499W        W94484  21.785  12.072  10.726
29500W        W94485   7.278   0.085  12.426
29501W        W94486  34.416   9.589   2.733
29502W        W94487  35.008  24.977  11.636
29503W        W94488  15.321   1.460  11.620
29504W        W94489  10.926  26.266  10.638
29505W        W94490   6.160  33.017   4.154
29506W        W94491  28.436   6.939   1.900
29507W        W94492  20.287  38.907   0.317
29508W        W94493   4.346  16.882  10.874
29509W        W94494  37.167  12.732  10.669
29510W        W94495   6.425  26.105  12.678
29511W        W94496   1.768  14.621   0.806
29512W        W94497  28.891  31.600  14.518
29513W        W94498   2.544  34.018  13.422
29514W        W94499  21.135  11.543   5.432
29515W        W94500   2.427   4.215  14.997
29516W        W94501  31.861  25.771  14.962
29517W        W94502  30.186  33.461  10.345
29518W        W94503  10.169   1.959   2.573
29519W        W94504  31.172  40.612   3.256
29520W        W94505  34.825  24.772   2.992
29521W        W94506  39.818   4.718  12.831
29522W        W94507  10.667  37.221   0.854
29523W        W94508   1.480  33.982   2.826
29524W        W94509  13.431  43.713   0.858
29525W        W94510  12.882  27.686   3.844
29526W        W94511  11.106   7.103  14.455
29527W        W94512  12.419  33.594  12.834
29528W        W94513  23.782  25.426   0.249
29529W        W94514  30.009  20.156   2.835
29530W        W94515   6.616   4.229   0.841
29531W        W94516  43.434  31.590   4.218
29532W        W94517  34.858   9.895   0.953
29533W        W94518  28.933   0.217   4.277
29534W        W94519  27.471  24.085  11.910
29535W        W94520   9.208  25.475   3.790
29536W        W94521  16.787  36.000  13.470
29537W        W94522   1.945  13.245  10.685
29538W        W94523  29.760  37.841   2.540
29539W        W94524  36.391  19.722  11.994
29540W        W94525   5.880  38.503   4.333
29541W        W94526  43.126  27.002   1.264
29542W        W94527  16.298  23.429  11.054
29543W        W94528  29.817  43.298   3.199
29544W        W94529  32.141   3.715   1.210
29545W        W94530   6.574   8.432   0.418
29546W        W94531  41.737  36.501  12.187
29547W        W94532   7.152   4.418   1.785
29548W        W94533  32.600  25.981   4.080
29549W        W94534  10.857   6.862  12.822
29550W        W94535  21.726  35.066   1.813
29551W        W94536   8.712  44.780   4.621
29552W        W94537  42.850  25.923   3.309
29553W        W94538  24.208   2.149  10.566
29554W        W94539  40.002  34.093  14.397
29555W        W94540   5.431  24.134   2.930
29556W        W94541  28.177  44.785  13.880
29557W        W94542  27.392  27.617   3.938
29558W        W94543  17.232  19.538  14.024
29559W        W94544   8.411   2.715  11.568
29560W        W94545  36.268   5.808   0.591
29561W        W94546  39.377  35.146  13.858
29562W        W94547  30.584   6.257   2.783
29563W        W94548  34.804  17.321  11.651
29564W        W94549  27.732  42.321  10.819
29565W        W94550   6.480   0.834  12.584
29566W        W94551   5.017  41.370  14.033
29567W        W94552  21.555  11.858   0.816
29568W        W94553  22.572  24.627   3.687
29569W        W94554  25.813   8.191  13.335
29570W        W94555  33.617   0.434  13.443
29571W        W94556   9.650  17.678  10.767
29572W        W94557  41.533  42.867  12.370
29573W        W94558  29.857  44.973   4.577
29574W        W94559  26.127  34.073  11.070
29575W        W94560  24.094   6.933   2.325
29576W        W94561  21.210  27.122  13.079
29577W        W94562  25.221  20.722   3.230
29578W        W94563  34.594  27.467  13.730
29579W        W94564  13.240  34.130  10.742
29580W        W94565  22.138  15.778   2.788
29581W        W94566   3.226  31.609   1.891
29582W        W94567  10.488   2.229  14.763
29583W        W94568  18.143  32.472  11.031
29584W        W94569   0.919  37.138   1.496
29585W        W94570   3.517   6.172   3.794
29586W        W94571   2.343   1.456   1.346
29587W        W94572  27.222  10.008   1.294
29588W        W94573   9.774  36.461   2.704
29589W        W94574  24.011  16.180   0.312
29590W        W94575  29.575  31.584  13.709
29591W        W94576  14.112  30.634   1.936
29592W        W94577   0.363  15.957   2.213
29593W        W94578  37.247  29.648  13.405
29594W        W94579  28.975   6.675  11.056
29595W        W94580  30.875   3.513  14.241
29596W        W94581  32.542   4.327  12.659
29597W        W94582  21.617  32.441  12.118
29598W        W94583  41.343  10.320   3.293
29599W        W94584  44.504  10.554  13.001
29600W        W94585  23.752  30.049   3.649
29601W        W94586  23.902  32.673  14.721
29602W        W94587  31.047  29.930   2.771
29603W        W94588  39.793   2.811   0.283
29604W        W94589  39.291  21.564   2.777
29605W        W94590  14.148  37.075   3.695
29606W        W94591   8.835  24.859   4.565
29607W        W94592  11.798   0.815  11.170
29608W        W94593  39.513  33.925   3.794
29609W        W94594  31.903   0.333   2.934
29610W        W94595  31.725  23.519   0.354
29611W        W94596  26.421   1.904  13.513
29612W        W94597   7.710  39.572   3.699
29613W        W94598   1.394  14.439   4.213
29614W        W94599   8.175  32.167   1.847
29615W        W94600   2.401  31.430   3.982
29616W        W94601  16.034  26.183  13.112
29617W        W94602  32.506  44.993  12.890
29618W        W94603  24.494   4.810   3.058
29619W        W94604  21.952  13.976   3.540
29620W        W94605  31.482   0.028  13.577
29621W        W94606  23.730  17.538   1.316
29622W        W94607  30.058  28.283   3.997
29623W        W94608  12.536   8.371  13.436
29624W        W94609  20.651  22.665   3.379
29625W        W94610  27.210   6.793  11.431
29626W        W94611   7.091  12.735   4.196
29627W        W94612   4.235   1.390   4.477
29628W        W94613  17.195   6.385  12.567
29629W        W94614  40.440  41.346  12.015
29630W        W94615   9.876   2.545   0.888
29631W        W94616  21.499   2.659   1.481
29632W        W94617  35.599  34.564   1.473
29633W        W94618  25.202  23.076  12.101
29634W        W94619  23.835  26.779   4.797
29635W        W94620  27.598  19.671   1.413
29636W        W94621  13.319  15.752   1.506
29637W        W94622   9.327   4.456  14.925
29638W        W94623  39.957   8.420  14.922
29639W        W94624   4.917  24.749   5.018
29640W        W94625  16.549  33.850  12.569
29641W        W94626  12.219  18.132  13.526
29642W        W94627  29.659  20.709  12.513
29643W        W94628  35.465  43.889  11.193
29644W        W94629   2.114  26.753   0.780
29645W        W94630  38.058   8.918  11.046
29646W        W94631  42.033  43.465   3.654
29647W        W94632  24.823  22.207  13.585
29648W        W94633   9.017  15.763   1.791
29649W        W94634  18.397   7.682  11.926
29650W        W94635   2.364  41.511   5.264
29651W        W94636   6.933  11.543  12.863
29652W        W94637  18.307  27.706   1.546
29653W        W94638  24.482  14.174   2.268
29654W        W94639  13.088   2.864   1.573
29655W        W94640  22.605   7.780  13.343
29656W        W94641  12.480  39.328  11.581
29657W        W94642  12.866  35.078   4.673
29658W        W94643  18.228  12.286   0.394
29659W        W94644  20.284  14.217  14.242
29660W        W94645   8.321   6.605   0.787
29661W        W94646  34.524   1.146  13.033
29662W        W94647   4.997  36.132  13.775
29663W        W94648  15.835  41.049   3.205
29664W        W94649   0.627   8.119   4.095
29665W        W94650  34.540  15.541  10.609
29666W        W94651   1.865  32.555   1.244
29667W        W94652  19.036   1.841   2.768
29668W        W94653  44.683  35.845   2.665
29669W        W94654  13.769   8.838  12.611
29670W        W94655  34.441  42.289  11.027
29671W        W94656  15.841  10.923  13.814
29672W        W94657  18.719  24.945   0.825
29673W        W94658  10.254   5.748   4.072
29674W        W94659  20.357   6.706   5.034
29675W        W94660  38.620  31.714  14.831
29676W        W94661  14.367  28.619   2.331
29677W        W94662  35.836   7.608  12.951
29678W        W94663  15.323  40.754   2.347
29679W        W94664  22.341  19.888   5.009
29680W        W94665  39.370  23.677   3.371
29681W        W94666   7.585  39.878   2.384
29682W        W94667  27.562  22.486   3.400
29683W        W94668  10.673   8.791  12.352
29684W        W94669  28.969  40.450   4.941
29685W        W94670  21.627  10.766   2.803
29686W        W94671  16.221  32.626   0.329
29687W        W94672  28.034   8.468  11.356
29688W        W94673  40.362  41.466   0.354
29689W        W94674  40.940   7.193  12.096
29690W        W94675   8.197   2.021  13.481
29691W        W94676  43.804  21.185   3.285
29692W        W94677  44.918  23.921  11.765
29693W        W94678   4.400  29.114   1.355
29694W        W94679  34.688  41.737   2.687
29695W        W94680  13.293  42.320   2.633
29696W        W94681  42.551  16.181   4.054
29697W        W94682  29.926  35.473  14.004
29698W        W94683   4.702  34.483  13.720
29699W        W94684   7.250  24.120  12.556
29700W        W94685  23.009  17.554  14.773
29701W        W94686   3.440  41.829   1.829
29702W        W94687  39.310  36.849  12.000
29703W        W94688  27.094  37.152  11.578
29704W        W94689   8.173   9.448   2.107
29705W        W94690  38.909  25.476   0.960
29706W        W94691  14.178  40.492   4.300
29707W        W94692   2.884  23.125   0.951
29708W        W94693  44.424  18.001   0.811
29709W        W94694  20.932  12.998   4.163
29710W        W94695  10.729   4.415   4.565
29711W        W94696  39.403   3.658  11.573
29712W        W94697  31.097   3.184   0.184
29713W        W94698  15.159  37.811   0.226
29714W        W94699  37.937  21.103  13.027
29715W        W94700   2.449  13.922   2.781
29716W        W94701  10.941  28.408   2.528
29717W        W94702  40.515  24.974   0.261
29718W        W94703  31.057  19.037   0.056
29719W        W94704  11.175   2.977   5.023
29720W        W94705  43.987  19.601  14.007
29721W        W94706  23.410  42.324  10.856
29722W        W94707  16.106  43.388  14.275
29723W        W94708  36.868  13.171   4.318
29724W        W94709   5.780  21.028  10.604
29725W        W94710  42.697  29.012   0.196
29726W        W94711   6.421   5.685   0.678
29727W        W94712   2.319  31.947   2.845
29728W        W94713  16.663  16.871   2.593
29729W        W94714  41.845  30.544  14.962
29730W        W94715  43.478   9.019  13.833
29731W        W94716  19.975  39.900  12.212
29732W        W94717  14.354  33.077  14.530
29733W        W94718  10.769   0.706   4.381
29734W        W94719  41.431   9.336   3.765
29735W        W94720  29.425   1.477  13.517
29736W        W94721  23.463  13.899  14.528
29737W        W94722  19.997  36.146   0.673
29738W        W94723  12.772   5.698   1.436
29739W        W94724   6.253   2.869  13.756
29740W        W94725  16.054  14.798  13.089
29741W        W94726  39.342  13.568  12.926
29742W        W94727   1.111  17.213   5.117
29743W        W94728  22.176  20.291  11.429
29744W        W94729  12.932   1.303   1.654
29745W        W94730  12.376   5.148  13.843
29746W        W94731   8.547  43.819  13.426
29747W        W94732  11.802  12.934  10.658
29748W        W94733  29.364  25.012  12.914
29749W        W94734  22.965  26.522   2.783
29750W        W94735  44.804   8.960   3.803
29751W        W94736  42.848   3.325  12.522
29752W        W94737  22.169  35.014   2.160
29753W        W94738   8.277  19.864  12.937
29754W        W94739   5.863  30.277  13.755
29755W        W94740  24.115  30.976   0.308
29756W        W94741  21.284  30.284  13.512
29757W        W94742  11.846   9.041   0.286
29758W        W94743  11.741   4.409  10.697
29759W        W94744  20.221  21.812   3.098
29760W        W94745   5.812  29.754   4.761
29761W        W94746  33.880   3.368   1.764
29762W        W94747  11.832  17.006  10.748
29763W        W94748  12.777  22.138   2.063
29764W        W94749  24.036  19.526   2.700
29765W        W94750   7.814  41.581  12.298
29766W        W94751  37.441  37.724   1.985
29767W        W94752  41.876  32.128   2.668
29768W        W94753   7.068  19.079  11.504
29769W        W94754  21.753  41.945  10.615
29770W        W94755  11.693  36.143  13.019
29771W        W94756  40.334  14.743  14.816
29772W        W94757  30.627  39.748  14.952
29773W        W94758  10.953  21.628  14.869
29774W        W94759  23.112  34.144  11.482
29775W        W94760  15.701   0.500  14.038
29776W        W94761  39.742   6.328  13.843
29777W        W94762  15.303   7.218  12.643
29778W        W94763  43.426  39.020  12.511
29779W        W94764  17.059   3.673  11.159
29780W        W94765  26.115   6.703  11.957
29781W        W94766  42.727  13.536   5.548
29782W        W94767   7.350  23.536   4.320
29783W        W94768  19.598   2.454  13.101
29784W        W94769  24.562  16.059  14.525
29785W        W94770  17.737  40.232  13.944
29786W        W94771  18.272  31.070  14.012
29787W        W94772  26.535  44.668   0.197
29788W        W94773  26.614  41.687   0.833
29789W        W94774   7.941   2.413  11.433
29790W        W94775  37.112   2.204   3.929
29791W        W94776  14.132  11.076   4.213
29792W        W94777  35.520  22.301  13.062
29793W        W94778   0.625  30.070  13.039
29794W        W94779   8.892  24.919   0.295
29795W        W94780  23.538  37.335  12.928
29796W        W94781  42.138  37.994  14.743
29797W        W94782  12.130   1.338   1.074
29798W        W94783  23.193  26.584  11.390
29799W        W94784  41.200  21.236   0.902
29800W        W94785  21.672  38.615   0.402
29801W        W94786  16.104  29.382   3.659
29802W        W94787  23.069  35.518   2.876
29803W        W94788  37.408   3.797  13.876
29804W        W94789  32.011  23.278   1.103
29805W        W94790   3.410  31.701   2.891
29806W        W94791  38.784   5.802  11.002
29807W        W94792  34.451  19.046  11.100
29808W        W94793  23.694   9.355   3.347
29809W        W94794  43.806  24.179  13.428
29810W        W94795   9.091  22.552  10.719
29811W        W94796  35.981  40.779  12.517
29812W        W94797  41.003  41.880  13.851
29813W        W94798  30.478  10.398  14.551
29814W        W94799  19.702  31.622   0.927
29815W        W94800   7.451  19.045   2.396
29816W        W94801  10.287  10.539   4.512
29817W        W94802  14.417  20.067   5.084
29818W        W94803  19.531   2.014   3.840
29819W        W94804  36.970  39.470  13.118
29820W        W94805  28.148  34.460  12.904
29821W        W94806  33.442  43.952  14.211
29822W        W94807  36.630  15.654  11.136
29823W        W94808  42.292  19.703  13.215
29824W        W94809  23.648  17.061   2.751
29825W        W94810  34.176  41.007  13.831
29826W        W94811  40.760  11.323  11.074
29827W        W94812   8.143  11.077  11.000
29828W        W94813  37.779  39.677   2.434
29829W        W94814  37.024   6.166  13.050
29830W        W94815  23.193  10.434  12.003
29831W        W94816  13.260  16.146  10.634
29832W        W94817   1.469  27.933  11.579
29833W        W94818   2.637  27.926  14.017
29834W        W94819  17.944  31.621   0.953
29835W        W94820  34.542  31.872  12.057
29836W        W94821  17.610   3.419   1.415
29837W        W94822   8.266  38.692  13.580
29838W        W94823  42.451   1.406  14.334
29839W        W94824  42.463  40.520  12.598
29840W        W94825   4.301  20.643   3.707
29841W        W94826   3.972  30.032  10.742
29842W        W94827   2.680   2.179  11.248
29843W        W94828  10.789   3.959  14.960
29844W        W94829  36.402  41.575  14.573
29845W        W94830  16.121  44.780  11.830
29846W        W94831   1.821  18.569   4.610
29847W        W94832  42.494  44.026  14.828
29848W        W94833   6.276   3.367   1.860
29849W        W94834  43.866   6.119   1.414
29850W        W94835  36.940   8.458   2.192
29851W        W94836  20.049  14.138  10.747
29852W        W94837  10.833   8.177   1.106
29853W        W94838   5.809  21.832  14.280
29854W        W94839  14.096  23.032  14.329
29855W        W94840  11.237  23.493  14.332
29856W        W94841  41.289  32.531  13.001
29857W        W94842  38.073  15.332  12.969
29858W        W94843  17.285  32.865  14.283
29859W        W94844  22.312  25.666   0.378
29860W        W94845  13.379   5.509   1.127
29861W        W94846   7.815   6.586   4.496
29862W        W94847  19.070  31.869  11.158
29863W        W94848  16.653  41.781  12.528
29864W        W94849  12.758   6.355  12.507
29865W        W94850   3.039  30.149  12.825
29866W        W94851  31.253  37.139  11.322
29867W        W94852  42.837  42.379  14.413
29868W        W94853  40.030  18.126   3.270
29869W        W94854  12.327   4.934  12.976
29870W        W94855  29.622  17.675  12.364
29871W        W94856   0.918  14.085   0.194
29872W        W94857  26.867  38.820  14.345
29873W        W94858  35.593  32.663  10.965
29874W        W94859  14.709  14.697   1.789
29875W        W94860   6.229  16.429   0.703
29876W        W94861   8.896  40.444   0.936
29877W        W94862  33.710   3.794  11.416
29878W        W94863   7.762  44.995  14.490
29879W        W94864  23.083   4.858   0.744
29880W        W94865   8.590   5.034  13.007
29881W        W94866  29.388   2.931   3.983
29882W        W94867  14.691  28.091   2.696
29883W        W94868  24.576  30.356  13.552
29884W        W94869   2.845  22.528  13.433
29885W        W94870  32.476   2.160   3.144
29886W        W94871  35.458  30.109   1.435
29887W        W94872  23.029   4.217   0.352
29888W        W94873  21.960  23.659  12.545
29889W        W94874  24.181   2.676  13.370
29890W        W94875  23.273  36.925   4.931
29891W        W94876  23.172   7.015   4.639
29892W        W94877   2.048  19.198  10.479
29893W        W94878  12.673   5.529  10.221
29894W        W94879  12.755  41.761   2.505
29895W        W94880  36.568  11.697   3.676
29896W        W94881  29.086  33.069   0.289
29897W        W94882  24.651   2.885  13.178
29898W        W94883  29.682  20.827  13.919
29899W        W94884  36.371  18.247  11.257
29900W        W94885  14.679   5.165  11.050
29901W        W94886  44.029  20.680   4.820
29902W        W94887  18.111  31.933  13.982
29903W        W94888  23.349  18.410  13.877
29904W        W94889  22.563  25.252   4.624
29905W        W94890  18.653  29.701  14.843
29906W        W94891  28.557  43.697   1.751
29907W        W94892  44.134  31.112   2.383
29908W        W94893  10.762   0.228   3.265
29909W        W94894   4.037  42.320  12.631
29910W        W94895  12.081   0.446   1.237
29911W        W94896  43.908  34.501  10.384
29912W        W94897  36.504  29.305   0.718
29913W        W94898  24.541  21.522   0.924
29914W        W94899  23.978  36.555   4.123
29915W        W94900  44.337   2.420  13.063
29916W        W94901  17.665   7.990   4.239
29917W        W94902  44.606  11.310  12.089
29918W        W94903  32.050  14.113  12.924
29919W        W94904  14.178   2.908   2.396
29920W        W94905  29.040  40.354  12.596
29921W        W94906  23.467  23.694   1.795
29922W        W94907   2.838  22.757  13.891
29923W        W94908  15.366  16.655   1.272
29924W        W94909  34.355   9.740   0.136
29925W        W94910  26.156  18.810  12.716
29926W        W94911  21.151  38.105   0.953
29927W        W94912  15.106  43.981  11.080
29928W        W94913  20.220  43.710  10.910
29929W        W94914  12.108  44.395  13.945
29930W        W94915  35.602  13.218   2.302
29931W        W94916  31.669  30.369  14.999
29932W        W94917  30.110  43.291   3.779
29933W        W94918  20.285  14.962   4.477
29934W        W94919  32.603  26.042  13.101
29935W        W94920   7.818  32.123  14.853
29936W        W94921   1.477   2.837  13.500
29937W        W94922  23.332  25.050   3.735
29938W        W94923   9.818  26.626   1.816
29939W        W94924  36.455  41.774  10.027
29940W        W94925  23.705  26.258  10.249
29941W        W94926  41.512  15.419   0.236
29942W        W94927  31.967   6.773   2.821
29943W        W94928   8.827  40.726  11.536
29944W        W94929  27.502  12.672  14.409
29945W        W94930  40.977  15.464   4.423
29946W        W94931   4.697  43.319   2.742
29947W        W94932   6.258  12.074  10.797
29948W        W94933  15.771  19.870   0.306
29949W        W94934  14.837  35.940   1.946
29950W        W94935   4.320   7.630  14.943
29951W        W94936  40.858  11.835  11.887
29952W        W94937   6.669  30.193  11.208
29953W        W94938  37.109  33.689   4.912
29954W        W94939  11.659  22.256  13.063
29955W        W94940  16.403  20.523  12.390
29956W        W94941   2.701  35.187  11.240
29957W        W94942  43.964   9.455   3.630
29958W        W94943  10.881  13.320   0.306
29959W        W94944  18.890  33.725  13.051
29960W        W94945   4.754  38.619   4.176
29961W        W94946  32.098   3.847   1.711
29962W        W94947  43.473  23.824  14.420
29963W        W94948  17.566  35.736   2.872
29964W        W94949  10.300  37.628   1.285
29965W        W94950  39.964   3.333  11.527
29966W        W94951  25.047  10.542   0.589
29967W        W94952  37.962  34.386   4.235
29968W        W94953  40.593  23.278   3.354
29969W        W94954   5.747  29.745   1.798
29970W        W94955   5.455  16.366  14.157
29971W        W94956  24.595  12.199  13.892
29972W        W94957  27.522  31.617   0.958
29973W        W94958  42.431  26.199   1.261
29974W        W94959  32.641  39.012  13.115
29975W        W94960  11.790  24.205  10.716
29976W        W94961   0.722  40.730   2.300
29977W        W94962  40.940   0.352  11.760
29978W        W94963   3.449  25.151  13.891
29979W        W94964  35.580  25.646  13.639
29980W        W94965  15.242  16.965  11.859
29981W        W94966   9.515   7.479  11.833
29982W        W94967  20.189  11.162   1.904
29983W        W94968  23.496   5.728  12.108
29984W        W94969  38.359  19.110   2.500
29985W        W94970  23.295  33.654  12.958
29986W        W94971   1.271  37.780   0.910
29987W        W94972   4.068  30.343   2.658
29988W        W94973  38.432  43.052  12.665
29989W        W94974  35.483  23.003   1.971
29990W        W94975  29.231   7.955  12.531
29991W        W94976  22.223  42.376  12.249
29992W        W94977  18.277  37.901  12.030
29993W        W94978  41.575  36.517  11.696
29994W        W94979  37.608   6.750  10.612
29995W        W94980  23.412  37.745   0.389
29996W        W94981  39.787   0.216  12.435
29997W        W94982  17.011  12.116  12.475
29998W        W94983  41.542  15.354   3.729
29999W        W94984  25.428  31.664   2.172
30000W        W94985  27.941  18.727  13.261
30001W        W94986  23.282  12.386   3.102
30002W        W94987  28.662  41.793   3.105
30003W        W94988  11.246  44.529  12.911
30004W        W94989  21.682  34.337   2.341
30005W        W94990  11.910  15.392   1.843
30006W        W94991   1.823  37.284   3.122
30007W        W94992  39.413  22.741  14.285
30008W        W94993  22.434  25.094  14.107
30009W        W94994   6.807  15.677  11.250
30010W        W94995  26.496   4.668  14.694
30011W        W94996  35.896  33.369  10.480
30012W        W94997   9.885  25.413  11.663
30013W        W94998  37.160  31.535  11.716
30014W        W94999   0.584   1.892  14.864
30015W        W95000  22.653  40.812   4.976
30016W        W95001  34.790  25.731   0.404
30017W        W95002  11.257  37.794   0.165
30018W        W95003  18.832  41.334   1.380
30019W        W95004  42.479  11.145  13.811
30020W        W95005  13.215  32.716   0.941
30021W        W95006  20.105  43.444  13.545
30022W        W95007  43.732  31.021  13.082
30023W        W95008  44.820  41.095  14.791
30024W        W95009  14.796  27.358   3.223
30025W        W95010  19.641  19.492   0.008
30026W        W95011  10.382  15.560   1.350
30027W        W95012  23.641  14.213   0.470
30028W        W95013  26.751  27.101   5.084
30029W        W95014  20.825  17.603   0.044
30030W        W95015  44.482  27.013  14.383
30031W        W95016  12.183  18.194   4.507
30032W        W95017  44.034  23.201   3.708
30033W        W95018  36.821   0.671   0.849
30034W        W95019   5.444  34.403   4.133
30035W        W95020  32.468   1.172  14.975
30036W        W95021  24.764   8.894   4.463
30037W        W95022  25.916  43.962  13.800
30038W        W95023   2.285  24.731  13.036
30039W        W95024  37.036  27.712   1.434
30040W        W95025   4.943  17.549   3.222
30041W        W95026   7.768  17.268   4.297
30042W        W95027  40.769  14.337  12.947
30043W        W95028  20.257  15.995   3.666
30044W        W95029   0.266  22.583   1.717
30045W        W95030  35.324  27.012   4.372
30046W        W95031  30.595  18.602   3.699
30047W        W95032   8.358  28.102  11.581
30048W        W95033  42.009  29.542   3.718
30049W        W95034  37.873  25.910   2.799
30050W        W95035  11.300  21.992  12.213
30051W        W95036  28.480  16.092   3.232
30052W        W95037  30.113  29.927   2.172
30053W        W95038  11.740   7.250   3.195
30054W        W95039  30.269   9.893   4.268
30055W        W95040  14.326   8.882  12.538
30056W        W95041   4.282  27.593   0.390
30057W        W95042  16.323  31.958  11.668
30058W        W95043  22.574  40.872  13.364
30059W        W95044  39.020   4.289   4.022
30060W        W95045  42.181  21.883   2.850
30061W        W95046  43.949  11.663  14.369
30062W        W95047   8.592  41.114   1.869
30063W        W95048  41.215  13.235   3.168
30064W        W95049  10.783  27.964  12.383
30065W        W95050  40.384  38.755  14.697
30066W        W95051  17.060  36.882   2.243
30067W        W95052   6.868  34.894   3.129
30068W        W95053  35.460  15.883   2.302
30069W        W95054   6.436  15.665   1.907
30070W        W95055  10.326  32.666   1.750
30071W        W95056  22.082  28.008  11.715
30072W        W95057  27.467  19.641   0.041
30073W        W95058  20.344  20.813  12.860
30074W        W95059  30.037  30.234  13.082
30075W        W95060  36.991  21.205   2.724
30076W        W95061  36.623   8.204   1.391
30077W        W95062  15.744  37.297   1.514
30078W        W95063  23.113  32.851  13.353
30079W        W95064  12.689   6.909  13.255
30080W        W95065  40.365  38.528   0.171
30081W        W95066   2.300  15.289   4.858
30082W        W95067  28.875  39.547  13.092
30083W        W95068  33.630  32.440  14.354
30084W        W95069   0.017  22.476  14.993
30085W        W95070  28.610   0.960  14.478
30086W        W95071  35.053  34.079   2.651
30087W        W95072  32.092  32.166  14.965
30088W        W95073  16.294  29.616   1.927
30089W        W95074  43.525  43.961  12.007
30090W        W95075  37.394  41.254  14.309
30091W        W95076  23.652   5.956   0.884
30092W        W95077   9.802  43.940  12.059
30093W        W95078  36.307  15.336  13.308
30094W        W95079  14.400  16.700  11.036
30095W        W95080  20.043  11.946  13.431
30096W        W95081  33.400   4.612   1.263
30097W        W95082   3.282  43.490   0.756
30098W        W95083  13.412  31.112   0.843
30099W        W95084  10.740  29.964  13.803
30100W        W95085  41.772  26.041  12.655
30101W        W95086  36.548  11.430   1.746
30102W        W95087  10.434  42.533   2.026
30103W        W95088  16.718  15.586  14.420
30104W        W95089  19.921   9.885  14.334
30105W        W95090   5.939  41.057  11.588
30106W        W95091   1.901  37.339   1.849
30107W        W95092  15.222  32.328   3.403
30108W        W95093  16.130  35.168  12.562
30109W        W95094   8.143   7.907  13.935
30110W        W95095  30.479  34.622   0.387
30111W        W95096  11.178  12.169   3.694
30112W        W95097  21.990  15.256   0.144
30113W        W95098  27.878  40.215   1.942
30114W        W95099  20.641  32.501   3.145
30115W        W95100  13.031  30.558  11.573
30116W        W95101  38.633  18.702  14.822
30117W        W95102   5.464   5.797  14.004
30118W        W95103  28.579  21.301   0.894
30119W        W95104   7.782  36.678   3.612
30120W        W95105   3.598   9.768   3.862
30121W        W95106   2.327  15.840   2.539
30122W        W95107  42.102   0.180  14.730
30123W        W95108   1.963   2.416   4.476
30124W        W95109  24.656  33.021  14.772
30125W        W95110  28.894  26.068   2.745
30126W        W95111  39.461  29.544   2.891
30127W        W95112   2.375   8.842   3.625
30128W        W95113  32.650  14.790   4.476
30129W        W95114  42.169   1.840  11.010
30130W        W95115  14.269   0.770  13.079
30131W        W95116  19.296   3.200   4.136
30132W        W95117   4.778  25.239   0.991
30133W        W95118   4.460  36.808  11.413
30134W        W95119  41.401  41.992  11.480
30135W        W95120   0.101  27.380  11.828
30136W        W95121  22.214   6.243   3.867
30137W        W95122  44.721  38.905   1.727
30138W        W95123  12.139  31.596   2.717
30139W        W95124   7.935   4.327  14.455
30140W        W95125   8.195  28.478   1.865
30141W        W95126  25.696  39.701  13.006
30142W        W95127  12.376  16.108   1.082
30143W        W95128  23.510  30.149   2.652
30144W        W95129  25.026  20.923   2.213
30145W        W95130  36.331   2.015  12.878
30146W        W95131  19.042  33.425  14.426
30147W        W95132   5.191  21.452   4.183
30148W        W95133  19.609  20.765  14.235
30149W        W95134  12.147   5.346  14.974
30150W        W95135  33.408  19.008  11.191
30151W        W95136  33.128  23.476   2.260
30152W        W95137  15.593  40.309  12.301
30153W        W95138  27.543  43.328  10.729
30154W        W95139  12.377   7.809  12.059
30155W        W95140  29.489  43.481  14.295
30156W        W95141   1.976  18.572  11.160
30157W        W95142   1.299  25.045  12.583
30158W        W95143  23.205  25.061  12.605
30159W        W95144  43.148  16.920  13.045
30160W        W95145   7.302   8.663  14.336
30161W        W95146  10.723  33.559  11.190
30162W        W95147  16.957   4.116   2.306
30163W        W95148  42.576  40.910  11.107
30164W        W95149  10.295  31.193   3.342
30165W        W95150  36.160  37.031   3.890
30166W        W95151  10.862  13.481  11.030
30167W        W95152  38.283  20.236   1.898
30168W        W95153  14.548  18.732  13.751
30169W        W95154  16.348  34.922   2.461
30170W        W95155  29.062  43.324  12.543
30171W        W95156  32.067  44.370   4.100
30172W        W95157   0.039  17.157  12.859
30173W        W95158  27.609  44.771   0.911
30174W        W95159  10.339  41.023  14.857
30175W        W95160  41.010  35.506   0.637
30176W        W95161  11.630  29.137   2.789
30177W        W95162  30.245  24.871  12.621
30178W        W95163  32.405   0.453  12.574
30179W        W95164  18.801  33.199  11.406
30180W        W95165  22.297  16.845   3.155
30181W        W95166  37.795   6.615   0.281
30182W        W95167   9.586  13.798   1.735
30183W        W95168  41.756  10.208   2.230
30184W        W95169  20.639  27.156   4.862
30185W        W95170   0.828  22.225  11.454
30186W        W95171  38.268  29.687   3.700
30187W        W95172   1.875  26.059   0.303
30188W        W95173  28.181  22.020  13.453
30189W        W95174  38.467  15.336   1.437
30190W        W95175  12.604   7.887  12.576
30191W        W95176  21.170  35.477  13.751
30192W        W95177  24.583  36.513   2.262
30193W        W95178  34.181  15.366  14.005
30194W        W95179  15.817   4.709   3.626
30195W        W95180  20.635  28.210   3.599
30196W        W95181  18.640  33.400   3.261
30197W        W95182  30.576  32.358   4.401
30198W        W95183  23.998  27.877   4.914
30199W        W95184  19.112  42.712   4.829
30200W        W95185  29.107  16.653  10.666
30201W        W95186   0.811  37.555   0.178
30202W        W95187  14.272  30.775  10.969
30203W        W95188  23.537  25.517   0.729
30204W        W95189  15.175  23.593   0.457
30205W        W95190  43.851  44.283   0.185
30206W        W95191  42.760  15.223   4.522
30207W        W95192  31.481  33.937   4.609
30208W        W95193  17.522  27.782  14.249
30209W        W95194  14.200  23.529  12.084
30210W        W95195  12.596   1.751  12.785
30211W        W95196  37.382  24.058  12.420
30212W        W95197   7.163  11.093  13.684
30213W        W95198  29.545  10.587  11.474
30214W        W95199  20.335  39.306   4.598
30215W        W95200  12.653  39.985  14.938
30216W        W95201  41.440  28.676   4.301
30217W        W95202  43.732  14.269   0.404
30218W        W95203  12.785  40.837   2.243
30219W        W95204  41.384  38.923   0.728
30220W        W95205  15.356  14.602   2.573
30221W        W95206  33.798  17.339  12.955
30222W        W95207  14.672  25.764  11.977
30223W        W95208  29.714  23.247   2.854
30224W        W95209   7.620  10.674  10.943
30225W        W95210  31.159   7.420   0.960
30226W        W95211  23.427   6.614  13.749
30227W        W95212  26.982  36.714   2.845
30228W        W95213  22.284  30.092   3.618
30229W        W95214  28.510  39.772  12.806
30230W        W95215  42.571  34.997   3.150
30231W        W95216   6.955  37.102   4.104
30232W        W95217  11.628  29.946  13.000
30233W        W95218   9.341  42.333  14.290
30234W        W95219  43.280  39.932   3.240
30235W        W95220  39.529  38.890  14.728
30236W        W95221  35.358   5.265  11.047
30237W        W95222   1.783  39.127  11.183
30238W        W95223  10.389  21.149  12.781
30239W        W95224  23.756  32.454   0.487
30240W        W95225  29.141  29.953   0.847
30241W        W95226  44.469  25.393   1.804
30242W        W95227  17.063  30.421   1.191
30243W        W95228  37.561  31.857  11.693
30244W        W95229  41.074  30.627   2.361
30245W        W95230   5.369  13.309  12.617
30246W        W95231  23.925  20.285  14.846
30247W        W95232  10.630  32.778  11.960
30248W        W95233  34.046  15.697  12.734
30249W        W95234  27.160  19.272  11.143
30250W        W95235  14.313  17.145   4.551
30251W        W95236   5.172   4.984  12.971
30252W        W95237  39.002  31.033   4.552
30253W        W95238  27.991  39.061  11.073
30254W        W95239  25.037   7.744  13.656
30255W        W95240   5.789  27.708   4.622
30256W        W95241  41.822  25.814  13.291
30257W        W95242  18.840  21.027   1.212
30258W        W95243  22.635  26.766   4.864
30259W        W95244  26.609  14.427  12.116
30260W        W95245  24.138  13.214   0.255
30261W        W95246  18.668   5.909  11.744
30262W        W95247   9.461   5.858   2.115
30263W        W95248  41.509   2.029  11.667
30264W        W95249  37.995  32.674  14.219
30265W        W95250  23.380  32.618   2.679
30266W        W95251  31.464  20.117  13.816
30267W        W95252  34.305  29.706  10.500
30268W        W95253  25.629  23.531   3.736
30269W        W95254   9.138  42.097  13.846
30270W        W95255  36.833  21.205   0.835
30271W        W95256  34.034  26.145   0.705
30272W        W95257  30.518  17.231   4.437
30273W        W95258  27.720  28.024   3.201
30274W        W95259   5.889  35.591  11.404
30275W        W95260  18.136  37.503  11.132
30276W        W95261   0.754  34.566  13.447
30277W        W95262   4.087   2.765   3.204
30278W        W95263  29.145   4.466   2.210
30279W        W95264  21.018  16.040   3.151
30280W        W95265  31.170   0.162   0.478
30281W        W95266  29.229   6.932  14.889
30282W        W95267  34.329  39.391   2.781
30283W        W95268  21.945  27.690  11.143
30284W        W95269  20.935   9.289   0.780
30285W        W95270  41.435  36.618   4.037
30286W        W95271  27.579  27.176   4.886
30287W        W95272   7.201  30.096  12.461
30288W        W95273  42.000  33.111   2.194
30289W        W95274  32.968  12.270  12.591
30290W        W95275   3.378  16.581   4.560
30291W        W95276  15.866  43.445  12.795
30292W        W95277  38.547  30.089  12.373
30293W        W95278  18.126   6.830  11.126
30294W        W95279  23.019  22.513  14.716
30295W        W95280  43.038  24.678  14.430
30296W        W95281  18.095   8.887   0.982
30297W        W95282  22.167  13.228  12.105
30298W        W95283  32.617   7.315  14.241
30299W        W95284  25.980  13.318  11.142
30300W        W95285  12.622   5.692   4.511
30301W        W95286  42.079  28.455  14.471
30302W        W95287  44.548  26.736  14.817
30303W        W95288   7.643  28.545  10.144
30304W        W95289   9.954  41.960  14.370
30305W        W95290   6.774   2.388   2.397
30306W        W95291  44.335   4.817   4.094
30307W        W95292  21.176  27.627  12.992
30308W        W95293  13.969  37.289  12.585
30309W        W95294  37.402  23.789   4.101
30310W        W95295   9.254  10.322   1.802
30311W        W95296  34.009   0.725   2.677
30312W        W95297   3.325  43.172   2.784
30313W        W95298  27.692  11.613  13.507
30314W        W95299  32.517  21.272  13.456
30315W        W95300  44.323  11.552   2.109
30316W        W95301   9.235  13.993  10.522
30317W        W95302   5.011  14.621   0.386
30318W        W95303  26.305  32.131   5.043
30319W        W95304  34.457  40.822  12.945
30320W        W95305  13.793  20.562   0.680
30321W        W95306  40.238  21.204   2.339
30322W        W95307  28.172  21.255   4.765
30323W        W95308  19.660  23.549  10.412
30324W        W95309  42.112  10.717  11.675
30325W        W95310   8.643  22.709  13.049
30326W        W95311  21.212  31.369  13.021
30327W        W95312  44.895   9.721  10.721
30328W        W95313  30.662  24.084   4.510
30329W        W95314  30.942  15.033   3.665
30330W        W95315   0.028  27.265  14.221
30331W        W95316  15.186  10.439  14.441
30332W        W95317  23.007  28.691  10.646
30333W        W95318  31.525  19.865   4.166
30334W        W95319  31.860  19.926  11.528
30335W        W95320   9.371   9.812   1.900
30336W        W95321  22.745  16.767  14.890
30337W        W95322  17.566  24.489   4.595
30338W        W95323  16.328  13.957   3.357
30339W        W95324  29.394  30.320  11.986
30340W        W95325  44.885  33.123   2.271
30341W        W95326  10.054  41.824  12.525
30342W        W95327   9.872  15.672   1.355
30343W        W95328  29.840  17.556  12.861
30344W        W95329  17.597   8.473  11.157
30345W        W95330  24.337  44.927  12.977
30346W        W95331  43.728  35.533   1.289
30347W        W95332  43.785  40.794  12.357
30348W        W95333   0.543  34.989   3.285
30349W        W95334  30.984  27.202  12.846
30350W        W95335  38.103  23.739  12.045
30351W        W95336   5.966   9.589   3.024
30352W        W95337  17.011  23.993  11.126
30353W        W95338   6.413   3.821  11.992
30354W        W95339  34.027  42.640  12.245
30355W        W95340  28.279  42.870  12.405
30356W        W95341   8.957  39.373   4.051
30357W        W95342  27.105  14.822  14.986
30358W        W95343  10.433  21.657  12.590
30359W        W95344  11.222  13.812   0.969
30360W        W95345  29.140  25.478   1.328
30361W        W95346   4.666  38.741   2.962
30362W        W95347  15.477  16.114   3.687
30363W        W95348  20.219  43.493   1.360
30364W        W95349  44.720   0.662   3.298
30365W        W95350  34.697   3.812  13.555
30366W        W95351  22.122   4.975   3.775
30367W        W95352   5.188   6.961   3.597
30368W        W95353  24.596   5.706  11.123
30369W        W95354   8.183  20.395  12.866
30370W        W95355  28.406  10.894  13.338
30371W        W95356   8.903  18.160  13.457
30372W        W95357  19.441  32.134  14.562
30373W        W95358  31.928   8.915   2.782
30374W        W95359  20.902  32.085   1.353
30375W        W95360  14.491  28.675   4.734
30376W        W95361  10.868  17.933   2.592
30377W        W95362  22.040  40.146  14.937
30378W        W95363  13.066   2.301  14.916
30379W        W95364  26.364  43.317   4.367
30380W        W95365  10.180  34.365  12.632
30381W        W95366  17.262   1.698   0.318
30382W        W95367  37.393  12.163  10.956
30383W        W95368  30.498   1.876  12.991
30384W        W95369  30.716   1.193   2.254
30385W        W95370  30.110  38.164   1.210
30386W        W95371   8.667  32.131   1.699
30387W        W95372   4.856  15.564  11.143
30388W        W95373  18.372  43.460   2.461
30389W        W95374   0.092  33.607   2.341
30390W        W95375  11.607  18.016   2.169
30391W        W95376   9.961   2.612   3.612
30392W        W95377   0.980  43.808  12.609
30393W        W95378  10.783  23.926   4.696
30394W        W95379  10.094  36.996   1.721
30395W        W95380   4.443  22.793   0.347
30396W        W95381   8.718  11.035   0.304
30397W        W95382  42.198  31.904   1.846
30398W        W95383  26.680   8.595  14.290
30399W        W95384  32.597  17.211  10.710
30400W        W95385  39.339  22.127   0.235
30401W        W95386  32.095  33.045  13.853
30402W        W95387  31.725  21.755   2.478
30403W        W95388  10.605  18.831   0.938
30404W        W95389   6.328  14.663   1.447
30405W        W95390  19.814   2.915   1.719
30406W        W95391  36.445   4.002   0.543
30407W        W95392  29.503  36.480  12.563
30408W        W95393   2.358   2.525  12.073
30409W        W95394  43.906   4.871   2.359
30410W        W95395   3.313  21.060   1.245
30411W        W95396  42.417  24.284   0.836
30412W        W95397  26.395  39.758   1.597
30413W        W95398  36.869  27.115  10.890
30414W        W95399  44.776   7.327   9.924
30415W        W95400  20.210  34.480   0.491
30416W        W95401  39.711  22.911   4.996
30417W        W95402  28.141  24.214  12.687
30418W        W95403   5.013  15.629   4.551
30419W        W95404  20.279  35.382  13.015
30420W        W95405  27.628   4.970   0.258
30421W        W95406  41.880  27.123  14.293
30422W        W95407  38.868   0.378  14.040
30423W        W95408   4.368  38.766   4.548
30424W        W95409   8.838  25.899   1.398
30425W        W95410  16.077  34.495   1.403
30426W        W95411  31.061   5.739   1.397
30427W        W95412  26.238  14.635   3.956
30428W        W95413  13.092  19.522  13.857
30429W        W95414  36.831  36.803  10.695
30430W        W95415  15.803   8.169  13.111
30431W        W95416   7.244   0.985  13.458
30432W        W95417   4.239  40.949   0.773
30433W        W95418   6.758  29.689   3.313
30434W        W95419  43.479  36.153   4.805
30435W        W95420   4.969  43.354   3.225
30436W        W95421  18.029  16.301  14.201
30437W        W95422  44.969  37.665  11.106
30438W        W95423  30.674  23.545   3.127
30439W        W95424  33.274  13.188   2.262
30440W        W95425  23.594  44.705   0.330
30441W        W95426  29.220  13.888  13.964
30442W        W95427   2.962  39.874   2.762
30443W        W95428   5.224  25.608  11.151
30444W        W95429  22.545  38.888   0.710
30445W        W95430  34.148  32.309   3.776
30446W        W95431  38.008  22.913  13.349
30447W        W95432   3.238  14.555  11.978
30448W        W95433  13.215  41.591  12.632
30449W        W95434   1.723  25.167  14.467
30450W        W95435  26.641   1.650   3.068
30451W        W95436  32.648  26.775  14.333
30452W        W95437   5.921  12.765  12.140
30453W        W95438  32.458  21.406   0.803
30454W        W95439   8.616   3.092   0.820
30455W        W95440  17.233  42.260   0.341
30456W        W95441  23.934   5.320   0.275
30457W        W95442   2.684  41.892  11.394
30458W        W95443  24.511  30.639  14.029
30459W        W95444  13.737  32.828   3.503
30460W        W95445  44.469  16.741  13.731
30461W        W95446   0.511  14.503   2.333
30462W        W95447  39.305  33.349  13.358
30463W        W95448  43.066  13.882   2.284
30464W        W95449  44.749   4.958   3.809
30465W        W95450  42.998  11.729  13.452
30466W        W95451  16.744  12.652  13.849
30467W        W95452  15.071  17.791   1.707
30468W        W95453  42.214  10.923   1.296
30469W        W95454  40.994  31.398  13.363
30470W        W95455  40.350  23.344   1.313
30471W        W95456  31.219  40.158  12.524
30472W        W95457  21.199  36.682  11.933
30473W        W95458  40.315   3.276   1.466
30474W        W95459  22.577  29.630  10.585
30475W        W95460  23.702   1.953   0.830
30476W        W95461   9.088  41.262   1.871
30477W        W95462  20.271  34.837   2.270
30478W        W95463  43.716   8.340  13.432
30479W        W95464  38.434  31.147  11.725
30480W        W95465   1.932  36.313   1.812
30481W        W95466  26.301   7.796   0.907
30482W        W95467  35.460  30.509  13.024
30483W        W95468  42.994  11.343  10.772
30484W        W95469  23.142  17.349  13.357
30485W        W95470  26.742   4.790   0.662
30486W        W95471  37.031  20.206  12.507
30487W        W95472  23.059   3.980  11.055
30488W        W95473  20.096  32.220   0.436
30489W        W95474   2.908   5.791   4.238
30490W        W95475  31.663   5.231   3.608
30491W        W95476  10.107  33.395  12.317
30492W        W95477  29.585   8.832  13.943
30493W        W95478  14.884  39.539   1.180
30494W        W95479  10.650  38.327   3.573
30495W        W95480   4.877   4.516  12.137
30496W        W95481  38.799  23.676  14.875
30497W        W95482  34.075  21.561   3.873
30498W        W95483  41.889  11.372   4.649
30499W        W95484  38.395  42.297  11.411
30500W        W95485  32.127  42.062  14.862
30501W        W95486  12.550  30.086  14.543
30502W        W95487  36.132  12.633  13.916
30503W        W95488   7.618  37.508   2.700
30504W        W95489  16.145  36.524  14.490
30505W        W95490  16.988   2.324  11.551
30506W        W95491  20.245   1.054   0.828
30507W        W95492  42.481  11.708   2.668
30508W        W95493  19.769  23.041   3.100
30509W        W95494   2.185  12.696  14.005
30510W        W95495  27.591  32.154  12.048
30511W        W95496   6.270  43.767   2.450
30512W        W95497  14.349  41.583  11.192
30513W        W95498  44.128  33.635  13.594
30514W        W95499  36.775  43.963   4.062
30515W        W95500  42.416  35.381  14.390
30516W        W95501  31.138  24.147  14.990
30517W        W95502   4.997  41.665   2.212
30518W        W95503  25.742  41.958  13.018
30519W        W95504   9.907  31.909  12.987
30520W        W95505  27.574   4.636   3.727
30521W        W95506  18.976  39.500   1.668
30522W        W95507  26.670  38.113   4.044
30523W        W95508   8.190   8.450   2.338
30524W        W95509  36.260   6.552   3.593
30525W        W95510  32.538   7.716  10.572
30526W        W95511   9.771  27.040  11.401
30527W        W95512  42.350  25.270  13.426
30528W        W95513  20.268  25.157   5.002
30529W        W95514  24.786  32.437   0.917
30530W        W95515   4.784  16.365  12.143
30531W        W95516  44.218   7.882   0.716
30532W        W95517  42.441  36.053   1.450
30533W        W95518  16.268  31.021  12.511
30534W        W95519  27.392  40.488   4.144
30535W        W95520  28.767  18.493  13.137
30536W        W95521  20.823  18.688  14.983
30537W        W95522  36.871  13.549  11.230
30538W        W95523  12.941  33.775   4.151
30539W        W95524   4.189   9.318   2.429
30540W        W95525   6.299  33.391  13.806
30541W        W95526  27.347  37.970  13.417
30542W        W95527   6.605  37.928  10.690
30543W        W95528   2.721  11.821  12.564
30544W        W95529  39.060  24.764   4.630
30545W        W95530  34.439   4.839  12.729
30546W        W95531  44.544  23.597  13.511
30547W        W95532  27.108  28.767   2.714
30548W        W95533  13.672  44.603  11.356
30549W        W95534  35.522   9.772   3.202
30550W        W95535  40.571  30.552  13.021
30551W        W95536  29.687   9.390  12.909
30552W        W95537   6.219  34.645  12.848
30553W        W95538   9.290   3.773   1.868
30554W        W95539  33.452  11.208   0.506
30555W        W95540  16.844   7.785  13.427
30556W        W95541  41.754  21.449   0.759
30557W        W95542  22.179  16.613  12.957
30558W        W95543  26.600  35.313  14.839
30559W        W95544  26.923  28.194   4.157
30560W        W95545  20.738  32.405  10.771
30561W        W95546  43.901   5.817   2.270
30562W        W95547  24.574  24.966  12.098
30563W        W95548  42.001  29.703   0.421
30564W        W95549  40.787  18.234   0.549
30565W        W95550  16.802  24.804  13.276
30566W        W95551  11.651   4.691   0.774
30567W        W95552  25.764  24.606  13.827
30568W        W95553   7.728  19.348  14.315
30569W        W95554  41.214  40.307   1.974
30570W        W95555  37.107   6.620   3.371
30571W        W95556   7.892   4.319  12.578
30572W        W95557  11.807  29.592   1.515
30573W        W95558   8.798  34.521  14.687
30574W        W95559  37.535  40.792  11.552
30575W        W95560  38.253   1.162   3.574
30576W        W95561  29.473  27.523  13.060
30577W        W95562  35.177  27.485   4.808
30578W        W95563  12.217  31.505  13.811
30579W        W95564  40.370   7.166  10.596
30580W        W95565  31.680  13.550  11.313
30581W        W95566  16.240  24.293  14.381
30582W        W95567  17.362   7.822   0.745
30583W        W95568   3.241  30.074   3.465
30584W        W95569  40.898  21.638   0.225
30585W        W95570   0.550  37.081   4.520
30586W        W95571  41.949  16.151   4.021
30587W        W95572  43.490  37.824   3.873
30588W        W95573  18.709  39.643  13.057
30589W        W95574  19.525   0.503   4.468
30590W        W95575   0.221  16.855  12.472
30591W        W95576  40.945   4.601  11.154
30592W        W95577  27.961   5.617  13.919
30593W        W95578  38.444   6.267   3.104
30594W        W95579  39.418   7.214   3.305
30595W        W95580  38.376  42.570  14.479
30596W        W95581  13.238  40.204  13.599
30597W        W95582  28.917  12.864   3.108
30598W        W95583  19.770   2.302  11.375
30599W        W95584  40.363  25.679  13.498
30600W        W95585  33.602  13.458  14.829
30601W        W95586  34.030   8.629   0.716
30602W        W95587  27.706  40.149   2.783
30603W        W95588  43.087  21.699  14.367
30604W        W95589   8.687  10.492   1.144
30605W        W95590   5.894  22.475   3.790
30606W        W95591   3.162  24.078   0.149
30607W        W95592  27.749  18.294  10.621
30608W        W95593  41.464  40.929   1.382
30609W        W95594   1.035  31.773   2.363
30610W        W95595  19.221  20.830  14.545
30611W        W95596  15.937  22.363   3.380
30612W        W95597  37.939  17.089  12.981
30613W        W95598  14.438  11.292  13.379
30614W        W95599  28.753  16.023   0.370
30615W        W95600   4.916  16.129   3.201
30616W        W95601  22.623  25.236   3.274
30617W        W95602   4.133  16.043  14.493
30618W        W95603  13.131  20.028  13.877
30619W        W95604  44.015  42.782   0.297
30620W        W95605  38.302  37.378  12.484
30621W        W95606   2.749  38.051   3.319
30622W        W95607  13.183  24.311  10.644
30623W        W95608  22.204  11.673   0.441
30624W        W95609  37.971  24.488   4.303
30625W        W95610  31.528  16.225   1.267
30626W        W95611  15.204  20.181  13.467
30627W        W95612  32.832  13.328  12.966
30628W        W95613  30.500  23.970   3.488
30629W        W95614  38.089  23.974  10.675
30630W        W95615  20.205  17.310  13.853
30631W        W95616   4.865   0.997   0.293
30632W        W95617  30.266  17.362   2.552
30633W        W95618  10.972   3.683  11.699
30634W        W95619  44.880  24.425   3.397
30635W        W95620  38.622   9.213   0.747
30636W        W95621  27.873  32.969  13.860
30637W        W95622  40.026  29.114   4.940
30638W        W95623  20.474   0.858   3.893
30639W        W95624  16.570  41.583   3.865
30640W        W95625  44.631  18.675  12.045
30641W        W95626  33.047  25.266   2.818
30642W        W95627   8.962  43.020  13.611
30643W        W95628  38.026  30.562   2.652
30644W        W95629  26.914  33.798  10.763
30645W        W95630   7.319  13.620   1.748
30646W        W95631   4.472   9.895   0.340
30647W        W95632  36.638  16.537   2.046
30648W        W95633  26.328  29.008   1.467
30649W        W95634  24.999  32.158  11.950
30650W        W95635  31.917  32.192  12.067
30651W        W95636   3.300   4.928  11.184
30652W        W95637  19.827   7.729   1.877
30653W        W95638  13.259  28.052   2.909
30654W        W95639  11.222  33.407  14.367
30655W        W95640  24.964  31.597   0.460
30656W        W95641  26.114  12.847  12.852
30657W        W95642  28.714  40.479   4.124
30658W        W95643   3.099  14.991   3.378
30659W        W95644  10.258  38.540  14.025
30660W        W95645  26.971  24.510   3.577
30661W        W95646  19.279  38.438   2.270
30662W        W95647  33.438  10.400   3.205
30663W        W95648  15.371   1.872   2.758
30664W        W95649  25.391  26.013   1.865
30665W        W95650  44.306  22.219   3.660
30666W        W95651  16.958  41.290  11.204
30667W        W95652   6.065  10.492   0.010
30668W        W95653  39.135  14.434   4.043
30669W        W95654  22.317  15.817   0.748
30670W        W95655  22.749  12.201  12.215
30671W        W95656  44.416  33.568   1.162
30672W        W95657  20.698  41.965   0.451
30673W        W95658  42.614  22.932  14.983
30674W        W95659  42.297  38.840   2.017
30675W        W95660  29.220  11.783  14.827
30676W        W95661   7.901  23.051   0.415
30677W        W95662  27.638   1.293  13.810
30678W        W95663  15.715  34.036  13.691
30679W        W95664   2.471  11.452  13.379
30680W        W95665  33.406   8.056  12.135
30681W        W95666  21.879  24.500  14.495
30682W        W95667   1.545  26.560   3.894
30683W        W95668  15.587  26.043   2.813
30684W        W95669  36.321  30.264   1.510
30685W        W95670  16.158  39.112   3.353
30686W        W95671  23.244  38.356  13.838
30687W        W95672  30.607  28.662  11.348
30688W        W95673  40.400  38.922   2.643
30689W        W95674  41.191  29.626   0.119
30690W        W95675  23.312   2.072  11.250
30691W        W95676  32.007   7.168   1.426
30692W        W95677  30.248  10.013  13.006
30693W        W95678  14.266  31.685   3.134
30694W        W95679  33.679  37.909   1.276
30695W        W95680  18.119  26.601  12.198
30696W        W95681   6.142  23.925   4.932
30697W        W95682   9.093   1.743  13.910
30698W        W95683   5.717   3.808  11.598
30699W        W95684  12.395  33.770  12.347
30700W        W95685   6.592  21.221  14.313
30701W        W95686  25.133  11.724  13.585
30702W        W95687  32.783  24.302   1.193
30703W        W95688  30.575  23.112   2.586
30704W        W95689  34.869  20.986   3.611
30705W        W95690  39.491  18.136   1.522
30706W        W95691  35.317   0.465  11.561
30707W        W95692  33.391  18.035   3.801
30708W        W95693  19.773  22.561   1.881
30709W        W95694   7.445  22.221   2.871
30710W        W95695   8.471  14.252  11.430
30711W        W95696  18.989  30.616  11.552
30712W        W95697   6.500  10.882   4.538
30713W        W95698  37.114  18.486  12.932
30714W        W95699  37.556  22.767   1.371
30715W        W95700  18.767  37.502   3.071
30716W        W95701  38.368   2.805   0.301
30717W        W95702  24.212  26.036   2.510
30718W        W95703  38.901   4.941  11.546
30719W        W95704   7.771   2.847  10.073
30720W        W95705  29.168  40.413   2.579
30721W        W95706  44.991  41.597   2.904
30722W        W95707  44.475   7.815   2.291
30723W        W95708  30.594   7.603   4.153
30724W        W95709  12.428   4.800  11.555
30725W        W95710  37.603  32.529  12.466
30726W        W95711  44.700  16.828  10.185
30727W        W95712   4.600  30.484  14.934
30728W        W95713   2.085  34.012  14.474
30729W        W95714  35.554  30.649   3.204
30730W        W95715  43.740  11.786  13.003
30731W        W95716   4.444   1.030  11.636
30732W        W95717   3.747  31.020  13.066
30733W        W95718  32.190  10.363  10.923
30734W        W95719  10.034  31.931   1.269
30735W        W95720  15.444   5.938  12.664
30736W        W95721  21.740  10.387  14.232
30737W        W95722   2.985  18.452   3.680
30738W        W95723  38.879  40.460  11.643
30739W        W95724  30.121  22.984  14.253
30740W        W95725  26.678  18.643  12.787
30741W        W95726  19.889  34.814   0.282
30742W        W95727   0.380   5.287   3.155
30743W        W95728  26.480  19.280  10.716
30744W        W95729  14.300  19.099   3.614
30745W        W95730  24.614  18.092   0.445
30746W        W95731  41.544  37.871   3.198
30747W        W95732  14.674   5.213   3.240
30748W        W95733  35.513  23.137  10.888
30749W        W95734   5.528  44.854  13.988
30750W        W95735  23.730  18.531  10.609
30751W        W95736  14.431   6.693  13.430
30752W        W95737  27.508  13.061   2.375
30753W        W95738  41.907  16.008  12.087
30754W        W95739  42.109  19.070  10.261
30755W        W95740  40.863  35.931   3.250
30756W        W95741   4.638  27.833   3.950
30757W        W95742  43.424  32.478   4.731
30758W        W95743  44.890  13.362  14.384
30759W        W95744   1.006  13.879  14.475
30760W        W95745  34.435   9.874   0.633
30761W        W95746  27.501  35.381  13.392
30762W        W95747  26.649  36.609   0.021
30763W        W95748  15.679  14.454  10.096
30764W        W95749  42.552  35.877   2.890
30765W        W95750   8.216  10.380  13.430
30766W        W95751  31.348  36.167   4.211
30767W        W95752  28.157  27.356   2.294
30768W        W95753  29.991  24.412  13.332
30769W        W95754   8.049  14.507  12.181
30770W        W95755  26.770  29.178  11.179
30771W        W95756  38.945   5.499  14.461
30772W        W95757  39.054  14.435   2.110
30773W        W95758  29.352  38.074   1.674
30774W        W95759  31.070  18.583   4.618
30775W        W95760  22.021  25.619   2.007
30776W        W95761  17.516  13.240   4.124
30777W        W95762   9.530  26.577   3.901
30778W        W95763  28.429  13.232   1.831
30779W        W95764  16.393  23.818  14.537
30780W        W95765   6.301   8.855   2.585
30781W        W95766  34.983  41.344  14.738
30782W        W95767  35.475   2.214  10.770
30783W        W95768   7.467  14.869   1.197
30784W        W95769  35.091  31.137  10.917
30785W        W95770  30.015  29.349   5.054
30786W        W95771  31.706  27.033  11.016
30787W        W95772  20.617  11.756   2.128
30788W        W95773  27.270   5.793  11.065
30789W        W95774  38.542   2.239   2.150
30790W        W95775  24.772  25.033  14.062
30791W        W95776  21.240  24.313   4.057
30792W        W95777   5.784  35.587   4.615
30793W        W95778  17.999   9.250  10.012
30794W        W95779   2.748  41.890   4.099
30795W        W95780  34.580  24.563   1.549
30796W        W95781  37.897  39.015   1.886
30797W        W95782  20.124  24.956  10.766
30798W        W95783  33.002  40.654   4.859
30799W        W95784   7.777  12.133  11.495
30800W        W95785   1.470  33.154   0.181
30801W        W95786   5.174  36.439   0.524
30802W        W95787  30.830  18.557   4.158
30803W        W95788   8.003  13.574   2.478
30804W        W95789  38.410  18.604  10.736
30805W        W95790   6.665  43.941   1.641
30806W        W95791  23.431  43.590   1.390
30807W        W95792  12.711  11.325   3.752
30808W        W95793  44.104  38.880   2.474
30809W        W95794  20.280  14.476   4.928
30810W        W95795  30.124  15.293   3.492
30811W        W95796  26.409  20.764  13.497
30812W        W95797  32.865   9.891   1.995
30813W        W95798  24.638  36.012   3.188
30814W        W95799   7.814   3.607  13.947
30815W        W95800  25.990  24.717   4.580
30816W        W95801   9.291   6.595   0.541
30817W        W95802  30.699  19.118   3.632
30818W        W95803  24.558  31.641   1.345
30819W        W95804  14.880   2.205  12.136
30820W        W95805   1.352  27.656   4.905
30821W        W95806   2.053  44.664   2.544
30822W        W95807   1.261  14.076   1.467
30823W        W95808  15.153  18.582  11.568
30824W        W95809  31.655  29.141   3.763
30825W        W95810   8.341  11.691   3.664
30826W        W95811  44.339  16.164  13.540
30827W        W95812   4.633  37.848  11.154
30828W        W95813  26.788  41.528   5.031
30829W        W95814  32.966   3.714   3.750
30830W        W95815  29.593  12.787  12.089
30831W        W95816  23.093  44.941   4.330
30832W        W95817  40.967  11.627  12.874
30833W        W95818  11.315  15.908   3.628
30834W        W95819   1.469  10.679  11.159
30835W        W95820  22.218  39.603  12.916
30836W        W95821  27.780   5.312   3.201
30837W        W95822  12.499   9.333  13.161
30838W        W95823  19.612  24.092  14.582
30839W        W95824  15.775  22.132   4.236
30840W        W95825  34.482  42.055   1.422
30841W        W95826  28.933  23.802  11.626
30842W        W95827  26.660   0.634   3.216
30843W        W95828  17.762  13.387  11.615
30844W        W95829  19.856  32.561  12.475
30845W        W95830  21.531  33.066  12.934
30846W        W95831  32.837   4.452  13.479
30847W        W95832  29.732  22.713   5.030
30848W        W95833  23.674  37.178   4.749
30849W        W95834  43.698  28.863   2.774
30850W        W95835   8.389   9.280   1.232
30851W        W95836   2.227  10.694   3.391
30852W        W95837  41.871   6.700   3.077
30853W        W95838   2.505   4.660  12.007
30854W        W95839  15.195  13.560   4.894
30855W        W95840  27.460  22.172  14.807
30856W        W95841   5.373  10.381   2.578
30857W        W95842  25.518  32.232   4.827
30858W        W95843  26.535  37.771   3.126
30859W        W95844  32.514  23.539  11.949
30860W        W95845  44.064  35.845   3.709
30861W        W95846  25.745  20.655   3.246
30862W        W95847  11.682  19.790   3.827
30863W        W95848  30.463  10.433  10.656
30864W        W95849  24.198  24.233   5.088
30865W        W95850  34.095  24.082   4.246
30866W        W95851   6.447  23.445   1.244
30867W        W95852  12.725   8.358   0.934
30868W        W95853   8.616  44.802   3.683
30869W        W95854  14.353  28.720  12.724
30870W        W95855  26.908  18.732   2.681
30871W        W95856  35.409  16.676  10.768
30872W        W95857  22.874  32.750   2.719
30873W        W95858  40.363   8.010   1.363
30874W        W95859  21.509   2.455   0.997
30875W        W95860  20.894  39.992   3.234
30876W        W95861  41.994  37.542   4.890
30877W        W95862  42.575  41.774  11.979
30878W        W95863  26.613   5.266  13.794
30879W        W95864   1.416  18.724   0.981
30880W        W95865  28.037  37.325  10.259
30881W        W95866  29.873   5.693   0.374
30882W        W95867   4.981  22.938  12.406
30883W        W95868  17.672  18.629   3.989
30884W        W95869  34.810  23.639  12.993
30885W        W95870   5.942  34.009  11.198
30886W        W95871   2.007  41.068   2.756
30887W        W95872   2.795  31.997  12.445
30888W        W95873   2.910  44.681   2.323
30889W        W95874  11.649  39.260  12.668
30890W        W95875  11.049  39.206  13.194
30891W        W95876  29.516  20.784   0.826
30892W        W95877  24.998  42.421   1.367
30893W        W95878   8.835  23.224  14.323
30894W        W95879  20.154   5.034  10.337
30895W        W95880  31.471  18.108  14.279
30896W        W95881  11.783   2.924  10.555
30897W        W95882  17.955  37.393   2.615
30898W        W95883  17.222  36.425   3.707
30899W        W95884  42.018  16.709   1.912
30900W        W95885  43.979   0.469   0.729
30901W        W95886   8.242  38.708   1.261
30902W        W95887  22.044  36.578  12.086
30903W        W95888  41.853  30.833   2.636
30904W        W95889  12.162  30.355   4.686
30905W        W95890  19.592  10.664  12.502
30906W        W95891  35.556  35.840   0.483
30907W        W95892  44.545  25.397  10.256
30908W        W95893  16.191  26.948  10.785
30909W        W95894   2.895  10.792  11.780
30910W        W95895  24.564  36.940  12.504
30911W        W95896  35.810  37.930  14.304
30912W        W95897  15.555  26.182  12.894
30913W        W95898   0.471  34.050   1.468
30914W        W95899  16.606  24.709  11.615
30915W        W95900  38.879  30.986  13.550
30916W        W95901  26.802  20.110   4.523
30917W        W95902  25.079  43.917  13.496
30918W        W95903   6.631   0.095  11.270
30919W        W95904   5.159  19.908   1.328
30920W        W95905  13.365  16.406   2.324
30921W        W95906  24.595  23.475  11.986
30922W        W95907   4.741  33.071   1.040
30923W        W95908  32.780  14.196   0.804
30924W        W95909   5.301  11.403   2.298
30925W        W95910  35.487  35.642   2.220
30926W        W95911  15.800  21.529  14.407
30927W        W95912  37.053  19.813  10.863
30928W        W95913   0.034   2.164   1.521
30929W        W95914  20.653  29.795   3.646
30930W        W95915  41.465  17.215  14.283
30931W        W95916   3.734  36.185  10.689
30932W        W95917   3.911  15.426   1.787
30933W        W95918   9.805  19.239  12.682
30934W        W95919   9.013  26.535   3.978
30935W        W95920   6.392  25.139   0.099
30936W        W95921  18.611  17.448   0.077
30937W        W95922  42.557  42.815  14.366
30938W        W95923  42.328  15.758  11.909
30939W        W95924   7.239  36.580  12.917
30940W        W95925   4.905  44.458   2.256
30941W        W95926  38.664  42.569  11.058
30942W        W95927  12.291  19.739   2.024
30943W        W95928  30.886   6.819  10.741
30944W        W95929  10.213   2.924   1.270
30945W        W95930  41.832  18.074   1.620
30946W        W95931  35.414  44.416   4.478
30947W        W95932  24.515   4.641   1.304
30948W        W95933  35.253  22.144  11.527
30949W        W95934  39.573  32.072  13.889
30950W        W95935  10.360  28.560  12.883
30951W        W95936  37.368  34.486  12.347
30952W        W95937  14.157  24.214   0.998
30953W        W95938   2.749   8.849  12.329
30954W        W95939  44.507  42.334   3.187
30955W        W95940  41.535  43.506   1.904
30956W        W95941  15.141  20.063  12.284
30957W        W95942   0.344   0.705   4.418
30958W        W95943  11.066  40.737   4.138
30959W        W95944  41.255  21.795  12.498
30960W        W95945  31.807  23.701   0.843
30961W        W95946  20.237  34.026   0.700
30962W        W95947  27.972  18.562   3.735
30963W        W95948  29.959   3.728   1.740
30964W        W95949  40.971   9.168  10.650
30965W        W95950  44.904   3.631  14.188
30966W        W95951  27.855  15.163  14.022
30967W        W95952  16.154  13.813   4.630
30968W        W95953   5.214  37.222  12.446
30969W        W95954  30.995  26.784   2.274
30970W        W95955  14.636  39.732   3.493
30971W        W95956  40.050  17.851   5.436
30972W        W95957   5.366  21.199  12.145
30973W        W95958  23.206  44.007   4.726
30974W        W95959  22.986  39.999   4.161
30975W        W95960  17.101  35.367   2.780
30976W        W95961  44.240  15.082  14.428
30977W        W95962   9.352  11.671  13.785
30978W        W95963  34.623  13.252   1.286
30979W        W95964  17.554  18.188  12.759
30980W        W95965  28.659  35.523   1.152
30981W        W95966  16.160  13.877   1.407
30982W        W95967  41.344  41.272   3.769
30983W        W95968  44.513  37.402  13.800
30984W        W95969  23.699  35.413   2.725
30985W        W95970  43.202  41.204   0.795
30986W        W95971  38.386  36.786  10.700
30987W        W95972   3.979  31.385  14.843
30988W        W95973   3.325  23.668  13.482
30989W        W95974  17.961  26.495   0.349
30990W        W95975  18.561  14.288  12.950
30991W        W95976  32.602   9.590   2.678
30992W        W95977   4.450  24.508  13.475
30993W        W95978  21.137  10.147   3.877
30994W        W95979  16.704  37.394   1.776
30995W        W95980   3.402  22.677  11.936
30996W        W95981  38.099  44.384  11.608
30997W        W95982  18.664   0.373  11.614
30998W        W95983  11.310  37.508   3.665
30999W        W95984  43.060  10.750  13.251
31000W        W95985   4.818  24.793   2.910
31001W        W95986  41.411  36.879  13.084
31002W        W95987  19.897  44.741  11.854
31003W        W95988  24.549  38.124   3.084
31004W        W95989  36.980  19.701   1.938
31005W        W95990   4.379  21.669  10.674
31006W        W95991  12.557  43.788   4.887
31007W        W95992  16.097  33.686   4.928
31008W        W95993  34.417  28.183  10.604
31009W        W95994   1.526  38.387  13.302
31010W        W95995  16.469  31.543   4.902
31011W        W95996   3.315   7.508  13.504
31012W        W95997  35.407  35.788   0.999
31013W        W95998  26.062  38.247   4.664
31014W        W95999  15.272   5.231   1.396
31015W        W96000  19.597  11.631   4.926
31016W        W96001  27.389  30.987  12.531
31017W        W96002  37.261  11.644   0.164
31018W        W96003  10.864  29.898   3.911
31019W        W96004  38.584  43.474   2.674
31020W        W96005  21.875  39.895   5.118
31021W        W96006  17.157  30.460  12.508
31022W        W96007  16.245  25.690   4.989
31023W        W96008  13.309  22.627  14.356
31024W        W96009   4.464  41.838  10.405
31025W        W96010   6.936  10.965  11.586
31026W        W96011  18.359   3.023  12.481
31027W        W96012   6.479  41.925   1.781
31028W        W96013  25.350  24.705   3.116
31029W        W96014  16.123   6.184   2.921
31030W        W96015  21.599  27.320   2.602
31031W        W96016  20.285   9.448   4.566
31032W        W96017  43.370  21.382  14.063
31033W        W96018  20.717  20.028  13.019
31034W        W96019  13.254  23.072   1.779
31035W        W96020  30.923   8.793   4.501
31036W        W96021  43.259  22.231  10.150
31037W        W96022  35.429  39.843  11.571
31038W        W96023  21.672  20.674   4.083
31039W        W96024  18.769  43.903   0.432
31040W        W96025  10.144  21.223  10.206
31041W        W96026  16.308  22.390   3.017
31042W        W96027  29.092   3.140  13.956
31043W        W96028   9.477   9.814  13.957
31044W        W96029  22.254  27.575  12.901
31045W        W96030  11.714  32.170   1.232
31046W        W96031  36.644  32.669  13.849
31047W        W96032   4.575  32.462   0.370
31048W        W96033  17.829  18.039   3.243
31049W        W96034   9.639  37.964  11.610
31050W        W96035  11.823  31.891  13.940
31051W        W96036  30.995  33.583   4.126
31052W        W96037  28.998   1.336   1.876
31053W        W96038  30.538  24.680  11.574
31054W        W96039  14.260  41.803  10.733
31055W        W96040  24.594  32.843   1.860
31056W        W96041  20.816  10.613  10.580
31057W        W96042  17.591  14.768  11.563
31058W        W96043  29.504  44.027  10.596
31059W        W96044  16.081  29.150  12.823
31060W        W96045  36.998  10.251  10.670
31061W        W96046   3.975  22.021   2.594
31062W        W96047   8.709   0.478  14.888
31063W        W96048  26.888  37.678  13.467
31064W        W96049  33.502  33.899   3.527
31065W        W96050  36.850  34.705   0.164
31066W        W96051  20.513  17.300  14.721
31067W        W96052   2.516   2.027   0.747
31068W        W96053  43.718   0.182  12.891
31069W        W96054  36.597  12.256   2.192
31070W        W96055  39.315  30.901   2.621
31071W        W96056  29.373  26.597   3.209
31072W        W96057   5.788   5.897  14.473
31073W        W96058  36.095  40.091   4.196
31074W        W96059  38.101   3.429  12.902
31075W        W96060  26.659  25.334  14.919
31076W        W96061  15.696  44.268  11.810
31077W        W96062  21.221  44.261   3.776
31078W        W96063  43.765  33.570   1.491
31079W        W96064   5.904   1.787  12.308
31080W        W96065  22.122   2.638  11.175
31081W        W96066  27.105  33.312   1.165
31082W        W96067  21.924  31.787  12.997
31083W        W96068  43.995  26.495  11.570
31084W        W96069  15.800  12.243   1.694
31085W        W96070  43.450  22.964  14.739
31086W        W96071  44.595  41.782   1.241
31087W        W96072  34.550  29.404  11.367
31088W        W96073  37.476  36.629   0.889
31089W        W96074   6.316  32.167  10.854
31090W        W96075  18.793  15.855   4.508
31091W        W96076   7.183  43.243  11.109
31092W        W96077  24.618   0.412   1.755
31093W        W96078  41.842  34.309  13.338
31094W        W96079  37.338  31.824  14.143
31095W        W96080   0.525  13.171  14.961
31096W        W96081   7.878  15.513  12.151
31097W        W96082  23.767  23.774   3.046
31098W        W96083   6.988  31.150  11.163
31099W        W96084   0.423  32.187  12.467
31100W        W96085   4.192  37.342   4.706
31101W        W96086   7.773  28.988   0.006
31102W        W96087  37.848  11.883   1.598
31103W        W96088   5.194  34.439  14.676
31104W        W96089  24.105  40.815   1.475
31105W        W96090   3.326   3.558  11.985
31106W        W96091   1.924  20.720   4.394
31107W        W96092   6.709   1.890   0.228
31108W        W96093  43.674  18.827   3.081
31109W        W96094  19.182  36.853   1.080
31110W        W96095  40.154  27.515  14.354
31111W        W96096  20.254   7.176   0.226
31112W        W96097  10.887  23.043   3.041
31113W        W96098  34.554  13.294   2.971
31114W        W96099   6.202  31.976  12.602
31115W        W96100  21.703   3.099   1.330
31116W        W96101   7.868  24.986   3.270
31117W        W96102  43.010  42.299  11.210
31118W        W96103  16.612  13.078  12.529
31119W        W96104  10.319   9.610   0.273
31120W        W96105   7.730  31.732  13.009
31121W        W96106  35.915  35.997   0.890
31122W        W96107  15.671  12.096  10.673
31123W        W96108   0.315  10.249   0.189
31124W        W96109   0.929  18.836  13.311
31125W        W96110  31.113  38.167  11.998
31126W        W96111  40.525  42.857  14.077
31127W        W96112   3.490  44.447   3.238
31128W        W96113  44.065   5.338  11.541
31129W        W96114  38.979  22.474  13.939
31130W        W96115  22.142  17.699   3.179
31131W        W96116   9.751  37.018  10.647
31132W        W96117  10.551  33.661  12.244
31133W        W96118   3.278  12.486   4.823
31134W        W96119  26.557  24.128   2.256
31135W        W96120  17.475  27.642   2.317
31136W        W96121  40.879  21.148   0.497
31137W        W96122  22.029  26.443  13.036
31138W        W96123  13.026   8.815   0.278
31139W        W96124   5.596  31.674  13.991
31140W        W96125  36.401  16.152  13.800
31141W        W96126  44.601  10.177   4.991
31142W        W96127   2.835  30.404   3.657
31143W        W96128  35.258  34.126  13.932
31144W        W96129  25.860  24.740   3.213
31145W        W96130  44.909  22.995   2.883
31146W        W96131  23.009  39.537  14.199
31147W        W96132  20.469  24.669   1.328
31148W        W96133  13.749  12.105  12.038
31149W        W96134  27.776  40.557   3.114
31150W        W96135   0.001   8.964  12.538
31151W        W96136  17.735  29.594   2.650
31152W        W96137   3.595  19.494   2.810
31153W        W96138  20.985  16.751   1.764
31154W        W96139   6.879  22.673  11.629
31155W        W96140  12.311   2.511  12.404
31156W        W96141  28.355  24.142   3.135
31157W        W96142   4.702  12.702   4.486
31158W        W96143  18.833  15.769  10.733
31159W        W96144  28.855   0.484  14.364
31160W        W96145   7.324   6.215  13.424
31161W        W96146  27.937  41.402   3.085
31162W        W96147   2.414  32.365   3.603
31163W        W96148  34.157  17.559   3.821
31164W        W96149  10.624   3.061   4.887
31165W        W96150   2.926  10.237  13.918
31166W        W96151  25.952  37.537  13.820
31167W        W96152  38.061   8.429   0.503
31168W        W96153  25.738   9.539   1.386
31169W        W96154  22.796  39.246   2.293
31170W        W96155  41.899  33.236  14.730
31171W        W96156  26.193   0.385  11.111
31172W        W96157   3.055   1.180   0.368
31173W        W96158   7.093  39.344   1.309
31174W        W96159  35.058   7.762   2.893
31175W        W96160  20.698  38.885  12.493
31176W        W96161  39.462   4.262   1.828
31177W        W96162  28.063   9.809  14.852
31178W        W96163   0.342   1.516   0.779
31179W        W96164  23.599   7.263   3.224
31180W        W96165  32.268  31.420  12.624
31181W        W96166  13.628  36.590  10.764
31182W        W96167  11.097  31.951  12.594
31183W        W96168   1.688  22.952   3.315
31184W        W96169  25.688  37.340  10.648
31185W        W96170  28.568   8.161  14.788
31186W        W96171  12.733   0.233  13.328
31187W        W96172  14.633  13.203  11.646
31188W        W96173  11.660  24.744  13.502
31189W        W96174  18.242  42.769   1.856
31190W        W96175  28.108  36.801   4.157
31191W        W96176   9.724  35.593  10.800
31192W        W96177  34.598  37.529  11.083
31193W        W96178   1.225  40.307  11.086
31194W        W96179  42.724  32.083  12.535
31195W        W96180   9.455  12.866   1.294
31196W        W96181  44.207  21.596  12.432
31197W        W96182  33.699  37.544  11.062
31198W        W96183   9.878   4.229  13.500
31199W        W96184  16.981  43.947   2.809
31200W        W96185   4.804  22.986  11.536
31201W        W96186  28.977   3.590   1.655
31202W        W96187  32.977   0.305   0.616
31203W        W96188  20.293  41.418  13.538
31204W        W96189  12.444  30.694  12.755
31205W        W96190  31.871   7.307  13.369
31206W        W96191  23.678  19.821   0.950
31207W        W96192  26.121  32.426   1.391
31208W        W96193  42.477  34.220   3.605
31209W        W96194  14.183  11.827  12.092
31210W        W96195   6.648   8.337   4.013
31211W        W96196  15.049  15.009  14.703
31212W        W96197  26.268   4.836   0.451
31213W        W96198  25.604   5.764   3.312
31214W        W96199  37.305  18.908   2.752
31215W        W96200  23.048   6.585  10.644
31216W        W96201  23.212  40.092   0.269
31217W        W96202  22.080  34.389   1.991
31218W        W96203  30.225   1.957  10.844
31219W        W96204   9.236  10.903   0.670
31220W        W96205   4.387   6.364   1.516
31221W        W96206   4.649  12.047  14.002
31222W        W96207  28.467   1.607  11.827
31223W        W96208  36.478  34.607   3.315
31224W        W96209  13.791  12.382  14.345
31225W        W96210  11.651  23.486  14.825
31226W        W96211  24.797  34.313   2.739
31227W        W96212   0.851  44.234  14.927
31228W        W96213  22.669  26.361  14.008
31229W        W96214  36.379   3.387   1.684
31230W        W96215  40.133  35.895   2.194
31231W        W96216  28.451  41.022   3.661
31232W        W96217   6.926  24.754  10.833
31233W        W96218  16.202  29.809   4.627
31234W        W96219   7.985  38.902   3.288
31235W        W96220  32.509  32.180  13.883
31236W        W96221  21.242  35.979  13.827
31237W        W96222  43.552  39.421  10.367
31238W        W96223   5.726  37.005   4.914
31239W        W96224  25.186   8.225  13.888
31240W        W96225  25.711   9.004   2.561
31241W        W96226  10.592  17.018  12.478
31242W        W96227  34.933  21.385   3.948
31243W        W96228  34.934  11.606   1.763
31244W        W96229  17.306  39.116  11.228
31245W        W96230  39.978  34.080   2.759
31246W        W96231  43.051  32.114  12.094
31247W        W96232  29.068  42.890  11.664
31248W        W96233   5.209  16.600   2.867
31249W        W96234  31.460  34.652   0.353
31250W        W96235  19.866   7.942  14.247
31251W        W96236  14.242  21.687   3.609
31252W        W96237  21.431  44.980   0.407
31253W        W96238   3.832   5.129   2.772
31254W        W96239  35.796  32.747   0.241
31255W        W96240  21.168  42.409  14.416
31256W        W96241  14.478  39.773  13.032
31257W        W96242  42.725  41.911   0.130
31258W        W96243  37.466  38.075   0.994
31259W        W96244  35.090  25.749  13.478
31260W        W96245  28.099  10.644   4.770
31261W        W96246  13.162  22.779   0.043
31262W        W96247  29.724  28.051  10.228
31263W        W96248  10.937   3.971   4.794
31264W        W96249  26.382  44.887  10.931
31265W        W96250   6.609  31.439  13.936
31266W        W96251   7.491  39.057  13.484
31267W        W96252  33.432  38.787  13.934
31268W        W96253  11.190  23.090   2.183
31269W        W96254  17.160   2.739   2.437
31270W        W96255  37.357  43.768  12.395
31271W        W96256   5.756  26.417  11.165
31272W        W96257  11.711  13.836   2.612
31273W        W96258  23.621  28.626   3.958
31274W        W96259  36.789  41.482   4.428
31275W        W96260  17.779  12.642  12.943
31276W        W96261  37.535  15.117   2.994
31277W        W96262  21.549  37.816   3.538
31278W        W96263  20.785  38.071  12.020
31279W        W96264   5.894   2.510  13.537
31280W        W96265   4.955  17.758   0.935
31281W        W96266   0.489  11.687   3.720
31282W        W96267  31.028  19.275  13.664
31283W        W96268  33.940  23.252   1.843
31284W        W96269  10.091  25.174   0.007
31285W        W96270  11.825  12.309   0.413
31286W        W96271  23.088  30.499   2.946
31287W        W96272  14.084  39.137   1.718
31288W        W96273   1.889  17.964   3.279
31289W        W96274  27.434  43.935  12.908
31290W        W96275  36.036  43.320   4.804
31291W        W96276   5.606  32.101   1.880
31292W        W96277  36.845  23.061  12.967
31293W        W96278   1.349   9.193  11.844
31294W        W96279   4.682  26.554  12.798
31295W        W96280  19.203  35.718  11.205
31296W        W96281   1.234  19.475  14.740
31297W        W96282   6.099   3.919   0.628
31298W        W96283  33.042  29.841  14.488
31299W        W96284  23.950  42.843   3.694
31300W        W96285   7.857  10.133  12.203
31301W        W96286   3.424  17.866   2.990
31302W        W96287  40.788   7.704   2.867
31303W        W96288  41.070  24.247  12.055
31304W        W96289   9.877   5.820   0.740
31305W        W96290   8.816  21.650   4.893
31306W        W96291  29.156   4.954  11.271
31307W        W96292  19.775  42.229  13.580
31308W        W96293   5.693   3.347  11.355
31309W        W96294   0.559   6.894   2.388
31310W        W96295   0.668   0.885   0.745
31311W        W96296  21.468  12.749   2.882
31312W        W96297  36.384  30.578  10.499
31313W        W96298  12.919  38.936   4.135
31314W        W96299  37.829  42.445  14.799
31315W        W96300   8.932  18.816  11.192
31316W        W96301  27.483  12.348   0.364
31317W        W96302   6.215  21.352   4.994
31318W        W96303  17.305  11.111  12.689
31319W        W96304  12.114  43.327  10.656
31320W        W96305  28.589   0.373   2.384
31321W        W96306   5.982   0.183   4.162
31322W        W96307   3.550   2.084  12.059
31323W        W96308  43.975  34.442   4.558
31324W        W96309  13.066  13.362  11.905
31325W        W96310  13.328  16.823   3.201
31326W        W96311  33.275  13.556   0.229
31327W        W96312  41.868  12.353   2.894
31328W        W96313  27.657   2.478  10.711
31329W        W96314   7.920  17.819  12.606
31330W        W96315  13.765   1.152   0.894
31331W        W96316   9.424  40.253  13.398
31332W        W96317  29.958  18.344  10.733
31333W        W96318   8.449  17.748   2.727
31334W        W96319  13.210  34.423   1.918
31335W        W96320  27.746  42.021  14.961
31336W        W96321  40.573  28.402  11.453
31337W        W96322  44.214  24.704   3.921
31338W        W96323  28.849  37.258  11.033
31339W        W96324  17.050  33.486  10.691
31340W        W96325   8.253  21.614  13.460
31341W        W96326   4.483  25.396  13.482
31342W        W96327  26.469   2.912  10.726
31343W        W96328  39.125   1.692  14.927
31344W        W96329  29.625   7.323   2.166
31345W        W96330  15.017  37.500  14.832
31346W        W96331  33.539   3.426   2.651
31347W        W96332  43.431  39.902  10.556
31348W        W96333  36.821  23.566  12.988
31349W        W96334  23.663  42.754   0.895
31350W        W96335  41.994  44.245  10.208
31351W        W96336  29.790  15.041   0.456
31352W        W96337  26.988  16.684  14.760
31353W        W96338  21.379  26.374  12.948
31354W        W96339   9.011   2.829   2.994
31355W        W96340  21.978  32.457  10.997
31356W        W96341   8.645   7.968   9.817
31357W        W96342  16.094  43.886  13.456
31358W        W96343  36.357  35.372   2.386
31359W        W96344  38.145  33.003   0.548
31360W        W96345  31.127  22.382  13.399
31361W        W96346  44.989  17.587   2.822
31362W        W96347  18.835  32.397   3.266
31363W        W96348   5.678  30.627  12.022
31364W        W96349  35.584  20.266  10.773
31365W        W96350  31.028  35.019  14.300
31366W        W96351  24.086  25.719  14.912
31367W        W96352  15.806  14.055   1.760
31368W        W96353  32.592   3.103  13.578
31369W        W96354  32.944  25.887   1.518
31370W        W96355  26.561  28.122  10.259
31371W        W96356  43.273  39.288   4.053
31372W        W96357   8.145  21.703  14.365
31373W        W96358  29.032   4.687   2.685
31374W        W96359  25.601  16.325  13.535
31375W        W96360   7.883  38.059  14.937
31376W        W96361  43.737  39.037  12.082
31377W        W96362  41.968   3.357   1.104
31378W        W96363   2.829  38.323  11.507
31379W        W96364  37.565  13.047   1.074
31380W        W96365  17.767  38.486   3.693
31381W        W96366  33.878  35.355  14.902
31382W        W96367  44.600  14.630   4.961
31383W        W96368   5.706  44.677  12.420
31384W        W96369   6.987   2.933   3.249
31385W        W96370  10.742  43.322   2.372
31386W        W96371  28.053  23.305  10.409
31387W        W96372  27.584   9.478   2.953
31388W        W96373  42.183   3.607  12.083
31389W        W96374  19.355  35.811  14.536
31390W        W96375  44.412  32.392   2.739
31391W        W96376  43.799  20.050   1.245
31392W        W96377  35.822   0.890   0.788
31393W        W96378  11.742  21.657   0.550
31394W        W96379  10.815  29.375   2.269
31395W        W96380  25.729  36.976  12.905
31396W        W96381   5.409  30.561  14.261
31397W        W96382  42.510  41.972  14.429
31398W        W96383  11.264  20.376   0.640
31399W        W96384  19.291  22.829   3.692
31400W        W96385  31.994  27.601   0.097
31401W        W96386  31.869   9.337   3.690
31402W        W96387  41.022  28.060  12.670
31403W        W96388  36.863  38.390   3.140
31404W        W96389  19.657  29.965  12.996
31405W        W96390  20.250  31.356   0.978
31406W        W96391  16.002   9.025   2.683
31407W        W96392  17.073  44.384  14.827
31408W        W96393  16.527  19.732   3.257
31409W        W96394  28.646   4.952   1.240
31410W        W96395  38.329  31.806  13.061
31411W        W96396  28.139  26.478  14.852
31412W        W96397   3.531  18.302   0.933
31413W        W96398  28.447  21.077   3.845
31414W        W96399  37.548  43.516  11.081
31415W        W96400  27.685  12.043  11.536
31416W        W96401  13.052   3.447  12.530
31417W        W96402  15.219  42.792  11.270
31418W        W96403  22.016   0.239   0.751
31419W        W96404  22.199  35.038   2.683
31420W        W96405  26.192   2.930  12.103
31421W        W96406  17.116  25.624  12.520
31422W        W96407  21.712   4.451  10.305
31423W        W96408  30.496  37.327   4.256
31424W        W96409  13.400  20.748  10.661
31425W        W96410  44.675  32.676  11.238
31426W        W96411  28.547  32.142   3.250
31427W        W96412   5.266  38.922   1.683
31428W        W96413  19.048  22.727   0.862
31429W        W96414  22.772  34.784  11.862
31430W        W96415  37.009  25.260  12.976
31431W        W96416  34.536  30.165   4.324
31432W        W96417  35.351  12.600  14.575
31433W        W96418  40.822  41.823   0.956
31434W        W96419  12.141  34.284  14.736
31435W        W96420  32.070  26.038  12.951
31436W        W96421  35.379  21.541   3.702
31437W        W96422  39.879  36.010  14.477
31438W        W96423   6.382  23.494   4.744
31439W        W96424  42.438  14.237   5.031
31440W        W96425  16.874  18.300   4.029
31441W        W96426   7.865  31.925   0.334
31442W        W96427  12.457  10.899   2.337
31443W        W96428   1.864  31.106   3.332
31444W        W96429   8.225   8.600   0.868
31445W        W96430  15.056  24.051  13.016
31446W        W96431  42.804  44.036   0.258
31447W        W96432  26.545  24.021  13.893
31448W        W96433  32.835  25.751   2.789
31449W        W96434   1.925  41.843   0.810
31450W        W96435  38.390   2.907  10.787
31451W        W96436   6.323   3.246  12.803
31452W        W96437  41.459  43.323  13.432
31453W        W96438  29.446  29.906  14.257
31454W        W96439  10.836   3.375   4.128
31455W        W96440   0.002   6.667  12.769
31456W        W96441  13.419   7.257   0.832
31457W        W96442  38.828  21.121  10.095
31458W        W96443  26.212   6.816   1.301
31459W        W96444  44.269  30.026   3.213
31460W        W96445  12.022  30.962   3.977
31461W        W96446   0.305   0.507  10.698
31462W        W96447  22.052  41.420  14.970
31463W        W96448  22.479  43.972  11.130
31464W        W96449  12.817  20.713  11.913
31465W        W96450  30.565  11.908  10.665
31466W        W96451  43.281   8.780   1.377
31467W        W96452  14.597  26.739   2.292
31468W        W96453  42.866  44.564  14.412
31469W        W96454  39.097  12.728  10.398
31470W        W96455  34.885  44.128  14.006
31471W        W96456  44.747  21.718  11.978
31472W        W96457  22.127   5.750  13.294
31473W        W96458   8.637  23.998   3.585
31474W        W96459  44.439   3.239   1.729
31475W        W96460  43.699  32.959  13.383
31476W        W96461  32.508  11.173   0.676
31477W        W96462  28.999  10.323  11.453
31478W        W96463  31.624  38.247   1.368
31479W        W96464  29.686  23.489  14.217
31480W        W96465  16.791   3.906   3.260
31481W        W96466  22.674  14.750  13.097
31482W        W96467  35.060  13.169   3.279
31483W        W96468  37.490  34.145   4.171
31484W        W96469  33.174   2.244   4.657
31485W        W96470  42.590  16.642   2.348
31486W        W96471  43.787   5.765  11.549
31487W        W96472  17.976  21.037   1.380
31488W        W96473   4.943  34.044  12.500
31489W        W96474   4.058  13.169  11.340
31490W        W96475  22.581   1.017   4.227
31491W        W96476  13.671  39.416  12.956
31492W        W96477  15.088  16.161   1.789
31493W        W96478  44.814  12.987   2.686
31494W        W96479  27.607   6.437  10.622
31495W        W96480  21.277  31.594  10.637
31496W        W96481  25.213  44.218  14.731
31497W        W96482   1.292  20.170   4.380
31498W        W96483  23.905  33.967   2.773
31499W        W96484  18.055  35.485   1.429
31500W        W96485   0.642  36.232  11.142
31501W        W96486  21.046   5.035   4.080
31502W        W96487  25.183  18.385   3.722
31503W        W96488  26.985  18.193   1.345
31504W        W96489  17.663  26.455  12.397
31505W        W96490   5.890  11.243   3.748
31506W        W96491  20.547  31.613   3.711
31507W        W96492  25.605  42.272   0.522
31508W        W96493  20.550  33.583   0.491
31509W        W96494   1.625  25.011  13.300
31510W        W96495  37.479  20.573   2.432
31511W        W96496  20.769  38.825   1.778
31512W        W96497   4.711  11.712  11.617
31513W        W96498  24.034  37.593   0.742
31514W        W96499  13.678  26.963   5.080
31515W        W96500  21.038  18.640   3.323
31516W        W96501  38.781   2.793   4.158
31517W        W96502  14.812   9.742   4.670
31518W        W96503  40.966   7.051   3.361
31519W        W96504  12.727  28.026  11.867
31520W        W96505  39.024  25.066   0.214
31521W        W96506  37.460  30.496   3.781
31522W        W96507   9.205  44.590   1.684
31523W        W96508  34.150  24.760  11.962
31524W        W96509  35.482  19.651  13.857
31525W        W96510  43.744  41.092   4.137
31526W        W96511  31.710   1.242   2.376
31527W        W96512  12.337  13.833   3.389
31528W        W96513  32.201  13.813  14.290
31529W        W96514  21.396  14.279  14.950
31530W        W96515  21.692  33.144   0.928
31531W        W96516  44.779   6.717  10.698
31532W        W96517   9.677  34.652   0.033
31533W        W96518  39.434  21.039   3.297
31534W        W96519  31.605  26.505   2.874
31535W        W96520  16.952  44.332  12.687
31536W        W96521  35.855  22.969  13.892
31537W        W96522  41.808  20.656   3.125
31538W        W96523  16.614  34.180  11.574
31539W        W96524   0.736  33.156   4.214
31540W        W96525  34.174  41.896  14.233
31541W        W96526  25.669  22.479  14.250
31542W        W96527  11.889  38.743   0.880
31543W        W96528  15.254  41.892  12.906
31544W        W96529   1.270  26.587  13.119
31545W        W96530   4.231   2.735  12.680
31546W        W96531   9.610  18.028   2.304
31547W        W96532   5.908  25.758  14.363
31548W        W96533  11.520  23.307  10.231
31549W        W96534  10.209  34.633   1.710
31550W        W96535   5.826  16.737   0.852
31551W        W96536  37.500  14.057   1.438
31552W        W96537  31.838   0.976  14.317
31553W        W96538  39.476  36.804   2.909
31554W        W96539  33.343  28.196  13.118
31555W        W96540  15.759  14.760  12.187
31556W        W96541  39.584   7.215   1.929
31557W        W96542  40.084  27.883  12.322
31558W        W96543  40.807  26.162  14.402
31559W        W96544   5.336  35.285   2.224
31560W        W96545   3.989   9.421  13.954
31561W        W96546   1.912   3.173  14.327
31562W        W96547  20.728  22.665   4.862
31563W        W96548   2.309  20.778  12.584
31564W        W96549  42.680  23.442  14.744
31565W        W96550  39.545  40.307   3.690
31566W        W96551  18.066   6.359  12.251
31567W        W96552  41.482  44.135  11.772
31568W        W96553   4.370  26.475  11.484
31569W        W96554  10.474  12.670   0.777
31570W        W96555  34.507  42.565  10.583
31571W        W96556  25.070   2.875  13.482
31572W        W96557  18.070  10.408   4.231
31573W        W96558  23.072   0.391   3.204
31574W        W96559   8.722  35.565   2.066
31575W        W96560   7.864  19.638  13.878
31576W        W96561  30.447  37.507  10.326
31577W        W96562  18.936  11.815   4.165
31578W        W96563  25.754  14.618  14.972
31579W        W96564  16.792   2.702   2.832
31580W        W96565  44.268  26.629   1.652
31581W        W96566  23.053  44.684  12.443
31582W        W96567  25.037  19.213  13.906
31583W        W96568  29.125  21.517   2.363
31584W        W96569  18.017  43.460  13.599
31585W        W96570  41.548  23.111   3.775
31586W        W96571  17.877  43.317   2.409
31587W        W96572  32.451  44.684  13.337
31588W        W96573  31.315  24.460   3.368
31589W        W96574  22.395  27.195   2.446
31590W        W96575  38.264  27.132   4.532
31591W        W96576  13.873  36.203   3.831
31592W        W96577  18.609  11.722  14.897
31593W        W96578  43.057  20.661   0.002
31594W        W96579  19.199  24.443  11.253
31595W        W96580  31.879  34.458  10.613
31596W        W96581  44.508  23.046   1.600
31597W        W96582  34.534  11.162   2.760
31598W        W96583  42.572   2.233   3.649
31599W        W96584  24.659  18.538  12.968
31600W        W96585  11.693  25.449   2.301
31601W        W96586   8.151  15.857   0.321
31602W        W96587  10.248   7.455   1.302
31603W        W96588  27.054  12.795   2.304
31604W        W96589  37.858  30.986   3.153
31605W        W96590   8.069  42.835   1.896
31606W        W96591  39.778   9.150  11.981
31607W        W96592  21.662  10.784   4.330
31608W        W96593  33.968  29.469   4.842
31609W        W96594   9.894   9.204  12.277
31610W        W96595  23.516  37.448   0.795
31611W        W96596  25.894  40.062   4.241
31612W        W96597  13.073  23.446   3.123
31613W        W96598   2.783   8.481  11.461
31614W        W96599  34.927  30.889   2.599
31615W        W96600  33.379  17.868  14.527
31616W        W96601   8.078   2.098  10.921
31617W        W96602  23.143  21.584   4.592
31618W        W96603  27.447  15.353   3.680
31619W        W96604  33.962  40.125   0.487
31620W        W96605  28.472  41.433  14.401
31621W        W96606  33.126  26.739  13.572
31622W        W96607  29.399  36.589   1.012
31623W        W96608  16.560  18.816   2.274
31624W        W96609  44.257  14.029  12.495
31625W        W96610  44.544   1.977   4.179
31626W        W96611  24.082  37.464  11.108
31627W        W96612  30.958  22.206  12.462
31628W        W96613  26.058   8.163   1.850
31629W        W96614  21.283  22.176   0.287
31630W        W96615  21.162   5.133  12.156
31631W        W96616   0.563  20.215  10.335
31632W        W96617  14.533  30.523  14.774
31633W        W96618  29.906  22.208   0.091
31634W        W96619   5.342  10.527  13.918
31635W        W96620  18.274  40.425   0.213
31636W        W96621  43.934   5.683  13.017
31637W        W96622  10.290  36.400  10.802
31638W        W96623  27.856  43.877   3.077
31639W        W96624  22.645  42.174   4.584
31640W        W96625   1.294  38.778   0.491
31641W        W96626  26.065  16.334   3.169
31642W        W96627   7.652  40.431  12.935
31643W        W96628  20.681   6.481   4.617
31644W        W96629  35.977  40.469   1.491
31645W        W96630  31.966   2.899   1.903
31646W        W96631   3.773  30.035  13.553
31647W        W96632  42.377  21.154   0.544
31648W        W96633  25.010   9.843  12.972
31649W        W96634  37.367   8.389  11.626
31650W        W96635   9.218  41.391  11.205
31651W        W96636  25.811  39.583  12.504
31652W        W96637  16.608   7.381  11.022
31653W        W96638   8.722  38.429  14.812
31654W        W96639  20.996  16.418  14.800
31655W        W96640  34.576   0.463  13.389
31656W        W96641  35.376   8.823  12.023
31657W        W96642  11.351   8.528   4.370
31658W        W96643  37.640   5.253   4.593
31659W        W96644   2.165  41.952   0.002
31660W        W96645  40.493  25.356   2.276
31661W        W96646  16.305  39.787  10.712
31662W        W96647  35.502   6.307   0.985
31663W        W96648  27.163  41.203   3.672
31664W        W96649  43.342  24.239   1.174
31665W        W96650  39.402  39.483   2.394
31666W        W96651   4.485  10.090  12.404
31667W        W96652  20.652   1.400  13.877
31668W        W96653  44.700   7.424  13.478
31669W        W96654  42.890  31.001   1.069
31670W        W96655  32.585  34.449  12.590
31671W        W96656  31.549  31.372   4.888
31672W        W96657  35.974  22.263  14.831
31673W        W96658  41.052  16.799  12.974
31674W        W96659  17.823   5.408  14.859
31675W        W96660  20.415   3.493   1.423
31676W        W96661  40.586  39.864  10.051
31677W        W96662  30.663   4.935  11.056
31678W        W96663  31.156  34.789  11.962
31679W        W96664  40.174   6.314   2.589
31680W        W96665  34.456  10.456   1.458
31681W        W96666  36.037  34.282  14.273
31682W        W96667  38.243  16.765  14.236
31683W        W96668   6.594  34.314  12.017
31684W        W96669   3.408  36.514  11.657
31685W        W96670  40.444  10.215  14.907
31686W        W96671  24.234  15.780   2.751
31687W        W96672  12.197  17.489   2.798
31688W        W96673  34.284  20.422  11.625
31689W        W96674   8.780  21.002   3.350
31690W        W96675  42.220   3.693   4.621
31691W        W96676  18.715  27.142   2.715
31692W        W96677  29.154  20.518  12.514
31693W        W96678  13.589  21.017   2.301
31694W        W96679  38.910  29.528  12.503
31695W        W96680  29.866  36.119  12.501
31696W        W96681  31.967   1.912  14.466
31697W        W96682  26.656  13.098   1.782
31698W        W96683  32.534  21.193   3.359
31699W        W96684  27.465  11.162   3.065
31700W        W96685   4.275   9.281  14.879
31701W        W96686   4.408  43.771   4.466
31702W        W96687   0.989  14.682   4.048
31703W        W96688  27.131  39.568  10.925
31704W        W96689  29.647  14.715  13.417
31705W        W96690  29.378  26.168   2.635
31706W        W96691   3.686  28.589  13.909
31707W        W96692   7.240  10.778  13.254
31708W        W96693   3.904  18.578  10.540
31709W        W96694   3.281  16.624  10.690
31710W        W96695  43.731  37.372  13.408
31711W        W96696  31.662   8.674   3.638
31712W        W96697  43.734   6.379  14.202
31713W        W96698  26.995  26.382  11.106
31714W        W96699  37.971  42.175   1.286
31715W        W96700  39.582  33.812  14.553
31716W        W96701  32.931  11.770  12.377
31717W        W96702  43.771  19.577   0.376
31718W        W96703   6.874  41.198  12.372
31719W        W96704   6.773  23.264   2.401
31720W        W96705  30.342  40.560  12.691
31721W        W96706  34.666  42.743   4.084
31722W        W96707  16.027  36.653   0.053
31723W        W96708   6.959  33.543  12.500
31724W        W96709  35.562  17.515  13.945
31725W        W96710  38.227  44.783  13.023
31726W        W96711  12.849   1.391   0.453
31727W        W96712  39.048  16.455   1.199
31728W        W96713  20.154  31.964  12.958
31729W        W96714   7.438   2.367  13.621
31730W        W96715   8.977  11.639   2.699
31731W        W96716  20.055  18.285   0.721
31732W        W96717  20.638  30.556   4.351
31733W        W96718   0.103  11.386  12.122
31734W        W96719  28.893  30.495  12.090
31735W        W96720  23.975  37.839  14.765
31736W        W96721  36.620  41.949   2.921
31737W        W96722  19.949  40.847  12.589
31738W        W96723   5.988  38.645  11.568
31739W        W96724  28.221  38.851   4.114
31740W        W96725  10.811  26.538   1.197
31741W        W96726  40.182   1.201  12.806
31742W        W96727   4.531  27.206  12.032
31743W        W96728  37.000   5.380   4.288
31744W        W96729  15.955  29.182   4.557
31745W        W96730  30.631  28.467  13.981
31746W        W96731  38.408  32.144   1.001
31747W        W96732  30.626  28.445   4.638
31748W        W96733  13.255  40.251   0.841
31749W        W96734  16.327  10.227  14.995
31750W        W96735  30.740  33.949  12.392
31751W        W96736  27.655  34.987   4.600
31752W        W96737   2.875  21.576  11.522
31753W        W96738  39.896   8.598   0.445
31754W        W96739  18.527  39.838   2.655
31755W        W96740  31.550  20.976  10.555
31756W        W96741  41.816  26.838   5.118
31757W        W96742  44.708  24.170   0.959
31758W        W96743  44.928   7.277   4.169
31759W        W96744  38.385  19.497   2.828
31760W        W96745  30.464  44.921  12.410
31761W        W96746  25.498  42.546   3.200
31762W        W96747  15.707   0.692   4.772
31763W        W96748  36.336  43.863  10.611
31764W        W96749   7.862  33.182  11.940
31765W        W96750   9.361  42.912  11.525
31766W        W96751   0.496  37.810  14.445
31767W        W96752   1.891   4.620  10.729
31768W        W96753   0.074  20.020   0.700
31769W        W96754  36.465  36.071  14.740
31770W        W96755  41.304  30.533  12.372
31771W        W96756  36.374  22.774  13.017
31772W        W96757  43.595  25.541   3.231
31773W        W96758   9.423  14.826   0.453
31774W        W96759  22.251  44.982  14.305
31775W        W96760  21.609  26.798   2.652
31776W        W96761  11.981  31.959   5.238
31777W        W96762   8.688  44.427   3.327
31778W        W96763   2.311  33.533  14.563
31779W        W96764   2.431  34.464   0.824
31780W        W96765  25.385  44.361   1.312
31781W        W96766   0.482  12.905   1.399
31782W        W96767  35.187  40.881  14.851
31783W        W96768  16.068  16.372   1.900
31784W        W96769  23.565  13.683   1.299
31785W        W96770  14.702  21.185  12.602
31786W        W96771  44.873   4.039  12.691
31787W        W96772   9.450  19.853   4.553
31788W        W96773  21.273  25.472  11.605
31789W        W96774  43.123   5.582  14.695
31790W        W96775  34.727  17.995   3.167
31791W        W96776  21.185  12.702   4.636
31792W        W96777  29.047  32.080   3.208
31793W        W96778  37.911  26.479  14.482
31794W        W96779  17.984  17.463  13.035
31795W        W96780  34.602   2.470   4.369
31796W        W96781   7.178  20.517   3.262
31797W        W96782  13.119  27.733   0.077
31798W        W96783   7.331  38.955  10.376
31799W        W96784  41.714  32.505   2.977
31800W        W96785  40.805  10.290  13.519
31801W        W96786  41.255   7.717   0.393
31802W        W96787  30.478  34.909   1.769
31803W        W96788  38.029  26.220  14.033
31804W        W96789  24.240  32.984   3.724
31805W        W96790  17.514  14.708   4.161
31806W        W96791  13.395  27.394  11.143
31807W        W96792  22.628  16.616  14.390
31808W        W96793  36.422  37.857  12.404
31809W        W96794  13.816  43.884   0.058
31810W        W96795  32.856   7.479  11.576
31811W        W96796   5.989  32.830   2.868
31812W        W96797  22.250  21.267   3.338
31813W        W96798  35.863   9.021  13.770
31814W        W96799   9.812  36.139   0.783
31815W        W96800  34.089   9.558   3.243
31816W        W96801   3.590  29.632  13.263
31817W        W96802  39.890   8.989   2.462
31818W        W96803   5.290  14.859   4.152
31819W        W96804  39.321  32.134  12.119
31820W        W96805  22.285   1.382  10.783
31821W        W96806  16.693   1.682   4.957
31822W        W96807  16.542  32.868  10.383
31823W        W96808  29.661  31.047   0.900
31824W        W96809  19.004  26.393   4.203
31825W        W96810   8.802  26.988   4.374
31826W        W96811  43.824   7.943   3.770
31827W        W96812   9.662  24.952   2.252
31828W        W96813  30.653  36.046  14.028
31829W        W96814  40.370  17.229   3.528
31830W        W96815   8.649  39.591  13.467
31831W        W96816   8.383  40.480  11.556
31832W        W96817  39.971  28.360   4.130
31833W        W96818  19.640  23.694  14.911
31834W        W96819   7.838  23.470  11.068
31835W        W96820  13.165   1.480   3.174
31836W        W96821   9.291  39.897  14.817
31837W        W96822  33.501  40.373   1.276
31838W        W96823  19.375  19.834   2.654
31839W        W96824  37.082  30.577   4.122
31840W        W96825  35.167  13.095  14.795
31841W        W96826  12.666   2.267  13.005
31842W        W96827  35.399  14.334   3.134
31843W        W96828  28.635  15.240  10.744
31844W        W96829  25.542  33.485  12.115
31845W        W96830   1.958  17.712  13.523
31846W        W96831  34.792  20.780  13.535
31847W        W96832  41.515  28.897   0.315
31848W        W96833  43.970  36.274   4.945
31849W        W96834   2.788  35.498  10.820
31850W        W96835  10.915  43.479   4.233
31851W        W96836  10.502  10.910  12.525
31852W        W96837  33.991  24.931   3.765
31853W        W96838  17.328  28.028   1.976
31854W        W96839  37.949  13.790   1.484
31855W        W96840  38.752  27.013   4.427
31856W        W96841  39.833  22.243   0.274
31857W        W96842  14.723  37.570   4.524
31858W        W96843  30.673  36.859  14.507
31859W        W96844  21.121  39.919   4.850
31860W        W96845  11.946  24.924   2.776
31861W        W96846  17.271  21.546   3.702
31862W        W96847  44.330  32.174   9.928
31863W        W96848  30.933  29.626   3.310
31864W        W96849  16.642  25.915  10.096
31865W        W96850  21.467  32.009  11.483
31866W        W96851  36.517  34.693  12.158
31867W        W96852  19.046  11.093   1.169
31868W        W96853  32.445   9.730  12.443
31869W        W96854   7.207  28.455   4.129
31870W        W96855  14.188   0.217  13.051
31871W        W96856  16.079   8.717  12.972
31872W        W96857  35.455  10.581   0.886
31873W        W96858  34.485  37.328  12.214
31874W        W96859   6.853  20.670   1.904
31875W        W96860  19.782   7.590  14.654
31876W        W96861   2.877  12.362  14.998
31877W        W96862  20.479  43.741  12.887
31878W        W96863  10.308  17.622   4.900
31879W        W96864  15.652  40.336  10.907
31880W        W96865  11.328   3.361  14.459
31881W        W96866  18.815  34.567  10.214
31882W        W96867  20.293  22.542   1.894
31883W        W96868   3.475   3.204  12.900
31884W        W96869  35.934  28.329  12.378
31885W        W96870  37.438  14.293  13.558
31886W        W96871   2.864   5.746   0.276
31887W        W96872  28.144  40.882  13.364
31888W        W96873  30.403  39.306  12.866
31889W        W96874  43.890   7.243  10.632
31890W        W96875  16.288  29.218  13.977
31891W        W96876  16.560  13.385   0.770
31892W        W96877   9.506  24.648   5.081
31893W        W96878   9.706  10.637   1.785
31894W        W96879   3.187  27.638  12.975
31895W        W96880   5.946  11.662  11.078
31896W        W96881   1.682  26.848  11.260
31897W        W96882  36.815  29.155   3.132
31898W        W96883  23.960  34.369  13.065
31899W        W96884   7.419  16.346  12.365
31900W        W96885  21.221  10.095   0.488
31901W        W96886  28.179  27.487   0.032
31902W        W96887   7.849  43.520  12.985
31903W        W96888  26.614  44.642   4.208
31904W        W96889  35.095  28.392   0.282
31905W        W96890  40.517  44.545   9.726
31906W        W96891  26.806  12.584  11.678
31907W        W96892  33.595  42.421  12.092
31908W        W96893  34.944  22.021   2.172
31909W        W96894  19.341   6.532  10.950
31910W        W96895  32.625   0.915   2.735
31911W        W96896  14.639  43.515   1.523
31912W        W96897  17.597  31.886   1.263
31913W        W96898   7.199  25.032   4.053
31914W        W96899  30.237   1.677   2.612
31915W        W96900  27.710  12.624   0.842
31916W        W96901  25.984  29.892   3.138
31917W        W96902   0.743   3.733   4.491
31918W        W96903  38.813   1.033   2.807
31919W        W96904  25.021  43.538   0.431
31920W        W96905  34.542   1.214   2.529
31921W        W96906  19.075  24.519  14.922
31922W        W96907  11.160  16.057   1.213
31923W        W96908  25.541  23.513   1.516
31924W        W96909  16.850  34.034   1.479
31925W        W96910  14.048  11.211  13.902
31926W        W96911  38.037   0.243   2.314
31927W        W96912  43.751  22.175   4.547
31928W        W96913  14.884   8.992   3.686
31929W        W96914   8.667  17.347  14.405
31930W        W96915  44.200   0.305   4.154
31931W        W96916  39.859  11.345   1.163
31932W        W96917  39.555  36.296  14.830
31933W        W96918  17.589  44.277  12.056
31934W        W96919  39.828   6.112   0.945
31935W        W96920  10.857   7.413   3.843
31936W        W96921  35.120  21.551  14.498
31937W        W96922   2.406  43.949  12.906
31938W        W96923  39.699   9.807  13.069
31939W        W96924  15.298  19.586  12.376
31940W        W96925  10.591  40.318  13.717
31941W        W96926  27.492  26.775   0.942
31942W        W96927   2.351  43.892  14.576
31943W        W96928  43.833  39.083   2.859
31944W        W96929   3.283   9.376   0.442
31945W        W96930   8.723  31.889  11.763
31946W        W96931  21.690  26.400   3.593
31947W        W96932  17.822  21.123   2.675
31948W        W96933  27.231   2.724  13.791
31949W        W96934   0.330  32.051   4.677
31950W        W96935  26.103  27.744  10.473
31951W        W96936   3.758  14.668   2.307
31952W        W96937  34.819  27.949  10.821
31953W        W96938  28.725  36.989  14.766
31954W        W96939  21.902   3.348   1.824
31955W        W96940  25.748  10.293   1.705
31956W        W96941   1.128  36.399  11.140
31957W        W96942  36.967  41.153   0.733
31958W        W96943  41.721  35.987   2.942
31959W        W96944   9.279  34.096   4.205
31960W        W96945  12.298  11.072  10.756
31961W        W96946   1.589   7.190  14.403
31962W        W96947  16.523  12.269   2.505
31963W        W96948  21.407   8.729   4.115
31964W        W96949  23.948  38.898  14.143
31965W        W96950  27.147   7.532   2.406
31966W        W96951  21.887  44.314   3.974
31967W        W96952  18.519  29.359   3.150
31968W        W96953  10.204  10.055   4.638
31969W        W96954  26.732  41.286   1.148
31970W        W96955   0.208  26.327   0.688
31971W        W96956   2.838  44.297  10.545
31972W        W96957   7.277   3.198  14.816
31973W        W96958   0.923  10.466  12.006
31974W        W96959  13.182  44.985   3.519
31975W        W96960  20.587  40.923   4.494
31976W        W96961  38.468  30.604   3.815
31977W        W96962  24.517  25.574   2.549
31978W        W96963  43.342  43.124   4.288
31979W        W96964  38.912   3.237   3.097
31980W        W96965  11.552   8.959   4.106
31981W        W96966  38.519  18.622   4.081
31982W        W96967  25.646   4.515   0.539
31983W        W96968  35.089  33.552   4.123
31984W        W96969  41.325  27.007   4.415
31985W        W96970  33.978  20.432  11.194
31986W        W96971  31.069  20.725   0.433
31987W        W96972  41.741  37.895  11.262
31988W        W96973  11.551  30.995  14.495
31989W        W96974  26.614  21.463   3.766
31990W        W96975  42.761  39.843  12.014
31991W        W96976  27.300  18.327   0.907
31992W        W96977  18.511  18.180  10.366
31993W        W96978  39.121  22.730   1.182
31994W        W96979  41.822  21.356   5.055
31995W        W96980  20.141   3.399   0.215
31996W        W96981  11.294  18.712   1.442
31997W        W96982  11.693  16.811   2.816
31998W        W96983  12.061  39.406  10.746
31999W        W96984  38.135  25.432   0.355
32000W        W96985  42.976   4.865   3.627
32001W        W96986   0.543   1.036   4.085
32002W        W96987   0.177  27.979  10.588
32003W        W96988  28.999  10.594  14.106
32004W        W96989  19.619  33.971  12.501
32005W        W96990  16.972  29.614   5.103
32006W        W96991  31.635  12.662  12.967
32007W        W96992   7.643   6.927  13.980
32008W        W96993  44.242  38.935   3.158
32009W        W96994  39.717  19.609   3.672
32010W        W96995  21.962  27.425   0.230
32011W        W96996  29.850  14.826  11.592
32012W        W96997   4.475  37.927   2.705
32013W        W96998   9.477   3.017  13.796
32014W        W96999   3.359  37.574  13.578
32015W        W97000  30.903  29.126   3.180
32016W        W97001  22.569  23.783  13.904
32017W        W97002  31.024   2.804  11.204
32018W        W97003   7.335  13.839  14.113
32019W        W97004   0.342   2.960  10.764
32020W        W97005  41.461  32.877   2.258
32021W        W97006   2.907   9.658  14.391
32022W        W97007  18.575   7.948  11.501
32023W        W97008  28.001   7.350   0.697
32024W        W97009  19.105  30.460   4.489
32025W        W97010  17.714  42.183  13.873
32026W        W97011   7.905  28.236   3.346
32027W        W97012  16.230   5.818   3.768
32028W        W97013  32.944  11.694  14.871
32029W        W97014  22.533  10.213  12.580
32030W        W97015  19.259   3.001   0.491
32031W        W97016  19.727  19.750   4.364
32032W        W97017   4.157  34.042  11.534
32033W        W97018  38.529  23.587  13.362
32034W        W97019  42.573  33.851  14.390
32035W        W97020  30.374  20.097   1.885
32036W        W97021  19.666  26.042  14.179
32037W        W97022  30.137  31.970   0.879
32038W        W97023  14.335  40.272  10.779
32039W        W97024  11.406   7.516  14.388
32040W        W97025  16.243  24.615  14.893
32041W        W97026  29.481  20.040  10.417
32042W        W97027   2.736  39.944  14.526
32043W        W97028  43.743  38.262   4.721
32044W        W97029  26.552  41.572  12.617
32045W        W97030  41.781  27.107   1.009
32046W        W97031  10.735  42.509   1.330
32047W        W97032  26.159   0.191   1.693
32048W        W97033  44.947  33.896   0.703
32049W        W97034  31.990   3.064  13.041
32050W        W97035  41.949   3.058   3.251
32051W        W97036  28.601   9.844  13.456
32052W        W97037  38.830   0.369   4.791
32053W        W97038   8.797   9.901   2.262
32054W        W97039   1.509  28.605  10.705
32055W        W97040  15.618  21.805   2.772
32056W        W97041  16.630  24.562   0.252
32057W        W97042  16.048  39.841   2.095
32058W        W97043   9.576  29.067   0.338
32059W        W97044  12.673  28.510   1.269
32060W        W97045  14.392  23.490   2.313
32061W        W97046  32.985  25.634   3.287
32062W        W97047   2.454  30.919   1.689
32063W        W97048  29.352  31.594   2.380
32064W        W97049  44.609  27.400  10.153
32065W        W97050  29.558  44.969  14.121
32066W        W97051  29.522  30.320  10.163
32067W        W97052  29.661   1.363  12.014
32068W        W97053  37.438  15.618  10.724
32069W        W97054  31.425  35.434   2.879
32070W        W97055  43.826  18.551   0.407
32071W        W97056  17.226  11.229   2.346
32072W        W97057  38.572  42.822   0.344
32073W        W97058   0.825   4.161   2.749
32074W        W97059  15.313   4.795   2.622
32075W        W97060  10.524   1.287   1.775
32076W        W97061  33.578  26.192   1.754
32077W        W97062   4.945  11.917  14.859
32078W        W97063  44.830  26.454   4.511
32079W        W97064  35.598  17.347   2.202
32080W        W97065   8.335  10.730   3.698
32081W        W97066  23.699  43.513   3.708
32082W        W97067   0.237  34.361  13.419
32083W        W97068  10.604  41.142  14.415
32084W        W97069  28.546  34.985   3.999
32085W        W97070  16.732   4.484  12.517
32086W        W97071   9.445  36.960  11.072
32087W        W97072  11.213  16.583  12.226
32088W        W97073  43.245  15.074   1.804
32089W        W97074  12.092  12.124   3.595
32090W        W97075  37.567  34.719   4.117
32091W        W97076  28.296  32.135  12.493
32092W        W97077   6.696  15.333   1.333
32093W        W97078  37.341  37.238   3.236
32094W        W97079  21.953  23.104   1.333
32095W        W97080   6.487  37.470  11.026
32096W        W97081  32.086  22.455  14.644
32097W        W97082  18.841  21.623  12.011
32098W        W97083  10.610   5.206  12.338
32099W        W97084   5.765  14.673   4.296
32100W        W97085  30.576  43.840   4.767
32101W        W97086  44.883  38.448  11.808
32102W        W97087   0.404  16.581  11.131
32103W        W97088  16.148  22.463  13.287
32104W        W97089  39.436   4.345  13.665
32105W        W97090  32.829  14.965  13.663
32106W        W97091  29.207  13.811   2.372
32107W        W97092  28.232  31.604  13.811
32108W        W97093   1.839   0.970   4.618
32109W        W97094  27.513  24.065   2.460
32110W        W97095  13.297  39.339   3.242
32111W        W97096  30.468  12.832  14.951
32112W        W97097  17.703  32.125  11.423
32113W        W97098   2.488  30.629  13.729
32114W        W97099  24.462  17.512  12.075
32115W        W97100  17.776  15.063   1.257
32116W        W97101   8.222  10.676  14.210
32117W        W97102  23.686  15.248  10.944
32118W        W97103  17.694   7.849   1.931
32119W        W97104   0.170  15.574   0.904
32120W        W97105   2.406  44.598   2.905
32121W        W97106  41.056   2.663   0.686
32122W        W97107   2.747  15.241   1.630
32123W        W97108  33.373  34.440  12.147
32124W        W97109   9.408  28.098  14.433
32125W        W97110  44.023  30.039  10.611
32126W        W97111  13.277  14.135   1.671
32127W        W97112  10.388  30.665  11.137
32128W        W97113   8.502   9.724  13.056
32129W        W97114  14.398   1.980   2.807
32130W        W97115  41.930  16.041  12.965
32131W        W97116  16.336  34.525   2.856
32132W        W97117  35.666   5.697  11.071
32133W        W97118  44.423   7.401  10.304
32134W        W97119  10.494   8.499  14.340
32135W        W97120  19.088  14.307   1.415
32136W        W97121  22.227   4.217  10.901
32137W        W97122   4.597  30.864   4.327
32138W        W97123  21.579  15.812  13.438
32139W        W97124  34.796  41.173   0.724
32140W        W97125  33.533  22.927   1.811
32141W        W97126   0.304  25.581   2.870
32142W        W97127  28.237   3.787   1.459
32143W        W97128   4.853   7.210  11.234
32144W        W97129  28.514  38.455   1.731
32145W        W97130  15.894  42.565   4.442
32146W        W97131  38.911  14.130   3.085
32147W        W97132  21.056  16.872   4.602
32148W        W97133   1.149  29.971   0.872
32149W        W97134  30.433  25.359   4.497
32150W        W97135  13.834  35.494   2.644
32151W        W97136  38.965  12.392   0.974
32152W        W97137  22.978  11.490   3.230
32153W        W97138  16.749  12.427  10.731
32154W        W97139   1.942  25.033   0.816
32155W        W97140  31.522  41.969  12.458
32156W        W97141  38.023  26.894   3.657
32157W        W97142  34.728   5.024   1.356
32158W        W97143   0.866  23.543  10.731
32159W        W97144  44.325  25.379   0.184
32160W        W97145  18.218  21.511   1.214
32161W        W97146  36.038  16.004  14.156
32162W        W97147   5.841  43.477  11.149
32163W        W97148  37.408   7.549   3.639
32164W        W97149  14.011   4.675  11.569
32165W        W97150   1.677  19.235   2.854
32166W        W97151  44.481  41.781   0.752
32167W        W97152  18.156  25.190  13.851
32168W        W97153  28.613  32.905  14.520
32169W        W97154  28.985  21.826  10.822
32170W        W97155  21.007  41.473  14.848
32171W        W97156  21.383  44.537   3.352
32172W        W97157   5.194  38.546  14.835
32173W        W97158   5.392  28.416  12.041
32174W        W97159  25.787  19.514  10.084
32175W        W97160  34.390   7.670  11.562
32176W        W97161  10.472  28.059  11.207
32177W        W97162  20.383  29.127  12.306
32178W        W97163  13.691   5.273  14.494
32179W        W97164  27.098  41.365  14.915
32180W        W97165  40.023  33.527   0.271
32181W        W97166  39.583  20.647  13.921
32182W        W97167  15.778  36.189  11.116
32183W        W97168   5.869  29.509  14.864
32184W        W97169  37.309  27.433  11.145
32185W        W97170   2.133   9.769  13.817
32186W        W97171  20.142  12.361  13.111
32187W        W97172  39.021  44.411  11.705
32188W        W97173   9.645  35.347  13.384
32189W        W97174  10.595  36.536   0.220
32190W        W97175   2.215  27.413  14.537
32191W        W97176   0.239  15.161   1.819
32192W        W97177   1.862  30.118   1.797
32193W        W97178   7.734  40.069   2.875
32194W        W97179  32.983  22.131  14.025
32195W        W97180  40.309  31.878   0.549
32196W        W97181  21.047  22.531  14.384
32197W        W97182   1.959   8.827  10.382
32198W        W97183  32.572   0.623  13.054
32199W        W97184  43.067  35.966   5.066
32200W        W97185  13.116  41.934  14.642
32201W        W97186   8.765   8.689  12.011
32202W        W97187  33.515  34.853   3.201
32203W        W97188  32.441  30.614  13.907
32204W        W97189   5.398  23.053   2.615
32205W        W97190  19.051  22.226   2.430
32206W        W97191  37.958   0.469   4.770
32207W        W97192  10.299  44.713  11.689
32208W        W97193  15.871  22.229  13.996
32209W        W97194  43.348  10.008  11.554
32210W        W97195  28.499   9.150   1.090
32211W        W97196  42.412  37.381   2.634
32212W        W97197  20.138   2.325  12.192
32213W        W97198   6.590  41.427   0.630
32214W        W97199  11.057  10.293   1.948
32215W        W97200   0.292  44.388  11.504
32216W        W97201  26.936   3.168  12.904
32217W        W97202  27.934  35.778   4.195
32218W        W97203   4.958  22.510  14.450
32219W        W97204   9.182  22.073  14.992
32220W        W97205  17.190   0.371   0.432
32221W        W97206  31.862  14.428  12.490
32222W        W97207   4.647  39.519   3.724
32223W        W97208  31.621  17.636   1.153
32224W        W97209  14.085  14.237   0.062
32225W        W97210  34.806  41.771  11.597
32226W        W97211  37.873   1.728  10.683
32227W        W97212   1.101   5.806  12.923
32228W        W97213   6.784  24.531   4.578
32229W        W97214  21.294  15.016   0.899
32230W        W97215  38.526  27.444  11.647
32231W        W97216  26.870  38.253  13.347
32232W        W97217   1.308  17.147  14.478
32233W        W97218  32.585   3.295   4.557
32234W        W97219   1.205   0.230   3.437
32235W        W97220  40.432  44.360  12.919
32236W        W97221   2.855  35.593   4.124
32237W        W97222  20.035  41.826  13.364
32238W        W97223  31.681  39.690  13.336
32239W        W97224  40.844  23.255  13.265
32240W        W97225  14.151   1.383  13.284
32241W        W97226   0.045  35.868   1.721
32242W        W97227  43.546   4.171  11.478
32243W        W97228  22.493  27.042  12.794
32244W        W97229   6.459   9.178   0.421
32245W        W97230  28.088  27.207   0.463
32246W        W97231  11.712  41.313   4.240
32247W        W97232  15.020   4.282   3.360
32248W        W97233  28.330  16.859   2.127
32249W        W97234  12.933  41.684   4.722
32250W        W97235  42.031  26.506  12.564
32251W        W97236  44.383  42.273   2.660
32252W        W97237   7.217   9.637  11.487
32253W        W97238  21.023   7.543  10.387
32254W        W97239  28.105  13.486  14.946
32255W        W97240   8.202   9.697  11.325
32256W        W97241  21.835  44.767  12.085
32257W        W97242  19.606   1.986  12.849
32258W        W97243   9.026  18.695   0.947
32259W        W97244  36.443  21.488  12.585
32260W        W97245   9.144  21.517  13.576
32261W        W97246  16.896   0.298  11.776
32262W        W97247  18.234   4.037   4.370
32263W        W97248  17.769   2.256  11.125
32264W        W97249  38.997  33.535  12.954
32265W        W97250  24.236  10.219   1.995
32266W        W97251  30.645  31.810  13.968
32267W        W97252   8.833   7.791   1.286
32268W        W97253  32.684  24.049   4.803
32269W        W97254  43.771  12.620  12.165
32270W        W97255  41.463  20.003   0.506
32271W        W97256  23.227  41.543   3.706
32272W        W97257  37.647  43.398  14.650
32273W        W97258   3.743  31.997  11.895
32274W        W97259   0.908  14.374   3.654
32275W        W97260   3.646  23.730  12.946
32276W        W97261  11.376  33.512   0.973
32277W        W97262   6.297  12.134  12.483
32278W        W97263   5.199  17.033  13.488
32279W        W97264   6.096  17.678  14.211
32280W        W97265  29.845  10.636  14.240
32281W        W97266  39.837  32.942  11.367
32282W        W97267  31.150  33.468   4.621
32283W        W97268  27.984  30.099   2.422
32284W        W97269  17.362   6.187  13.016
32285W        W97270  44.029  37.311  10.735
32286W        W97271   4.053  13.149   0.648
32287W        W97272   5.453   3.822  14.920
32288W        W97273  32.176  11.101   3.585
32289W        W97274  41.319  10.346  13.320
32290W        W97275  32.519  24.863  12.610
32291W        W97276   4.651   3.764  14.386
32292W        W97277  33.035  29.560   1.873
32293W        W97278   6.972  20.827  11.604
32294W        W97279  12.130  38.254  13.562
32295W        W97280  16.290  21.020   0.814
32296W        W97281  30.966  11.114  10.741
32297W        W97282   5.773  38.255   1.661
32298W        W97283   9.355  24.141   2.907
32299W        W97284  26.068   8.620   3.898
32300W        W97285  15.966  18.305  13.473
32301W        W97286  39.029  21.654   0.693
32302W        W97287  44.089  18.363  14.962
32303W        W97288  25.395  26.777   2.286
32304W        W97289  23.238  13.555   0.881
32305W        W97290  23.054   0.175  14.798
32306W        W97291  12.277  13.296  10.832
32307W        W97292  43.337   5.304   0.761
32308W        W97293  32.530  10.761  13.448
32309W        W97294  21.202   5.720   3.310
32310W        W97295  30.205  44.286  13.038
32311W        W97296  13.732  28.170  13.647
32312W        W97297  12.256  40.799   2.349
32313W        W97298  44.175  12.166   0.261
32314W        W97299  10.483   1.939  12.920
32315W        W97300   2.651  15.173  14.062
32316W        W97301  39.011  28.714   4.129
32317W        W97302   4.873   9.894  11.871
32318W        W97303  12.279  42.960  11.892
32319W        W97304   1.852  15.609  14.398
32320W        W97305  34.745  42.079   0.398
32321W        W97306  37.159  16.557   4.505
32322W        W97307  33.571  23.181   3.335
32323W        W97308  33.535  36.387  12.071
32324W        W97309  14.192  16.627  10.555
32325W        W97310  41.850  19.165  10.693
32326W        W97311  36.034  18.700   4.199
32327W        W97312  24.738  38.061  10.799
32328W        W97313  44.419  25.989  14.382
32329W        W97314  35.416  29.487  11.324
32330W        W97315   8.445  14.682   2.615
32331W        W97316   2.205   2.485   0.308
32332W        W97317  13.260  26.737  11.935
32333W        W97318  21.179  34.035  14.195
32334W        W97319  20.659  29.601  13.544
32335W        W97320  21.379  21.830  13.800
32336W        W97321  10.248   2.176   0.854
32337W        W97322   7.873  26.665  12.924
32338W        W97323   5.225  18.372  13.866
32339W        W97324   8.683   4.329   0.865
32340W        W97325  23.805  11.871  13.116
32341W        W97326  24.516  13.214   1.295
32342W        W97327  34.666  15.534  11.125
32343W        W97328  43.033   4.881   0.923
32344W        W97329  37.027  21.331  10.607
32345W        W97330  31.918  26.485   1.895
32346W        W97331   2.443  38.833   0.684
32347W        W97332  43.928  44.894  11.205
32348W        W97333   2.808  35.625   1.942
32349W        W97334   5.891  34.099   4.561
32350W        W97335  36.911   3.545  14.995
32351W        W97336  21.112  19.930   9.958
32352W        W97337  40.052  39.854  14.285
32353W        W97338  24.036  42.982   0.145
32354W        W97339  11.926  11.430  10.879
32355W        W97340  22.091  20.610   0.029
32356W        W97341  33.998   4.593   2.408
32357W        W97342   3.203   3.231   2.966
32358W        W97343   1.558   7.535  13.457
32359W        W97344  27.461  43.860  11.410
32360W        W97345  38.094  29.934  14.606
32361W        W97346   0.888  42.348  10.709
32362W        W97347  44.241  26.252  13.956
32363W        W97348  13.174  15.689  14.511
32364W        W97349  30.508   6.771   0.866
32365W        W97350  36.300  31.774   4.179
32366W        W97351  33.134  29.435  14.179
32367W        W97352  28.191  38.830  12.863
32368W        W97353  33.886  19.652  14.966
32369W        W97354   0.021  13.268   4.149
32370W        W97355  19.038  41.767  13.385
32371W        W97356  13.650  20.177  13.030
32372W        W97357  44.996  17.628  11.998
32373W        W97358  41.038  42.029   1.974
32374W        W97359  18.333   1.313   1.953
32375W        W97360   7.741  31.980  13.467
32376W        W97361  29.972   6.205   2.567
32377W        W97362   3.481  41.400  12.444
32378W        W97363   3.389  34.363  11.979
32379W        W97364  32.879   2.013   4.078
32380W        W97365  32.564  30.355  10.279
32381W        W97366  12.344  37.505  14.010
32382W        W97367  12.993  26.923   3.351
32383W        W97368  22.847   8.903  11.498
32384W        W97369  43.538  38.875   0.237
32385W        W97370  33.099  22.726   2.821
32386W        W97371  41.711  15.134  13.877
32387W        W97372  27.608  31.698   3.164
32388W        W97373  37.119  11.354  11.204
32389W        W97374   3.393  41.368  12.953
32390W        W97375   2.899  32.473  14.456
32391W        W97376  44.342   6.205  13.118
32392W        W97377  14.403  11.372  10.170
32393W        W97378  29.480   6.451   1.265
32394W        W97379  40.518  25.254   3.214
32395W        W97380  43.765  37.365  12.465
32396W        W97381  31.176  24.684   3.823
32397W        W97382  11.918  21.536   1.734
32398W        W97383  28.051  28.335  13.932
32399W        W97384  42.241  27.676   2.630
32400W        W97385  35.034   0.876  11.979
32401W        W97386  24.464  17.239   4.186
32402W        W97387  13.074  34.671  14.944
32403W        W97388   5.865  35.868  13.313
32404W        W97389  26.254  36.230  14.919
32405W        W97390   7.972  40.217  14.521
32406W        W97391  39.355   2.264  13.863
32407W        W97392   0.817  32.960  11.384
32408W        W97393   1.976  38.603  13.446
32409W        W97394  10.331  16.038  13.945
32410W        W97395  16.081  17.944   9.607
32411W        W97396  32.125  30.621   0.066
32412W        W97397   8.739  17.751  12.057
32413W        W97398   1.990  16.165  12.778
32414W        W97399  23.033  18.364   0.289
32415W        W97400  12.382   8.369   1.342
32416W        W97401  29.917  16.538   1.264
32417W        W97402  29.821  40.749   3.337
32418W        W97403   0.283  37.775  11.724
32419W        W97404  18.044  36.330  14.831
32420W        W97405  12.789  24.031  10.408
32421W        W97406  14.230  34.473   4.252
32422W        W97407  22.994  36.877  11.667
32423W        W97408   4.075  21.538   3.311
32424W        W97409   5.879  40.406   4.682
32425W        W97410  18.253  41.979  13.920
32426W        W97411  42.981  34.642  10.781
32427W        W97412  20.618   7.853   2.675
32428W        W97413   7.710  27.544   4.085
32429W        W97414  21.753   8.365  10.637
32430W        W97415   8.790  11.620  12.966
32431W        W97416   0.309   9.438  11.589
32432W        W97417  37.500  26.116  11.899
32433W        W97418   9.401  13.095  12.070
32434W        W97419   3.954  24.156  12.072
32435W        W97420  30.112  22.580   3.194
32436W        W97421  26.533  39.074   3.637
32437W        W97422  31.138  30.453   1.244
32438W        W97423   9.033  20.620   3.999
32439W        W97424  36.429   8.783   2.629
32440W        W97425  30.073  39.376   4.085
32441W        W97426  17.328  10.786   3.015
32442W        W97427   1.138  40.684  14.338
32443W        W97428  43.727   1.490   3.804
32444W        W97429  28.686  11.527   3.754
32445W        W97430  38.532  39.779   0.857
32446W        W97431   3.385  32.288  13.535
32447W        W97432  20.052  41.351  13.991
32448W        W97433  31.545  14.049   4.088
32449W        W97434  40.219   3.257   0.508
32450W        W97435  41.403  10.224   3.792
32451W        W97436  34.303   9.136   3.542
32452W        W97437   6.385   8.849  10.984
32453W        W97438  32.865  12.619  13.508
32454W        W97439  43.837  43.799   0.743
32455W        W97440   7.764   1.558   2.309
32456W        W97441  36.850  34.230  14.926
32457W        W97442  36.084  16.068   4.707
32458W        W97443   7.309   5.945  12.464
32459W        W97444  33.865  21.542  10.670
32460W        W97445  42.396  30.907   0.878
32461W        W97446  42.817  25.917  13.642
32462W        W97447  40.771   1.266   0.696
32463W        W97448  23.670  23.988  13.651
32464W        W97449  40.847  29.654   2.128
32465W        W97450  12.623  39.469   1.884
32466W        W97451   5.290   7.215  10.690
32467W        W97452  42.687   5.945  11.083
32468W        W97453  24.627  11.292  11.507
32469W        W97454  28.861   0.053   3.703
32470W        W97455  43.454  20.928   3.560
32471W        W97456  27.665  36.299  11.182
32472W        W97457   7.330  10.197  14.449
32473W        W97458  25.526  32.011  12.001
32474W        W97459  29.562   0.773  11.573
32475W        W97460  36.332  29.215   0.218
32476W        W97461   3.544  30.164   5.013
32477W        W97462  34.445  19.966   3.123
32478W        W97463   3.990  27.190  12.907
32479W        W97464   1.488  34.940  14.702
32480W        W97465  34.025   1.761   4.481
32481W        W97466  41.423  14.131   0.119
32482W        W97467  34.298  31.908   2.685
32483W        W97468   4.782  44.780  11.461
32484W        W97469   9.565   6.900   2.488
32485W        W97470  36.674  29.929   1.359
32486W        W97471  35.964  14.379  10.682
32487W        W97472  28.048   8.965   4.211
32488W        W97473  25.625   3.519  10.727
32489W        W97474   1.821  40.459   4.009
32490W        W97475  28.721  21.742  12.110
32491W        W97476  30.725  41.477  12.468
32492W        W97477  16.102   6.727  13.973
32493W        W97478  29.552  12.652  11.600
32494W        W97479  23.787  13.423   2.651
32495W        W97480   0.935   0.941   2.716
32496W        W97481  13.118  35.528   0.416
32497W        W97482  16.830  19.126  13.499
32498W        W97483   3.277  39.002  11.471
32499W        W97484  25.767   5.247   3.465
32500W        W97485   4.725  31.011  11.976
32501W        W97486   6.949  21.150   4.087
32502W        W97487  29.764  27.485  11.565
32503W        W97488  20.056  11.899   0.623
32504W        W97489   8.291  23.010   1.236
32505W        W97490  22.308  35.941   4.277
32506W        W97491   5.907  20.312  13.385
32507W        W97492  44.712  25.410  13.253
32508W        W97493  29.564   2.380  14.540
32509W        W97494  33.402  26.553  10.997
32510W        W97495  33.207  26.909   3.663
32511W        W97496  26.952  40.831  11.174
32512W        W97497  40.494  13.848  11.582
32513W        W97498  28.855  21.929   3.212
32514W        W97499  20.118  13.220   0.859
32515W        W97500  25.215  12.592   3.793
32516W        W97501  26.693  39.864   0.748
32517W        W97502  36.834  15.601   4.610
32518W        W97503  21.786  15.672  13.903
32519W        W97504  24.550  35.611   2.124
32520W        W97505  19.973  38.129   0.912
32521W        W97506  30.104  39.735   0.057
32522W        W97507   4.303   2.272   3.849
32523W        W97508  38.432   4.856  12.744
32524W        W97509  39.928  18.192  10.526
32525W        W97510  26.545  10.160   0.393
32526W        W97511   8.704  44.893   2.720
32527W        W97512  15.189  22.694   0.993
32528W        W97513  40.576  39.304   4.612
32529W        W97514  24.544  12.449   1.778
32530W        W97515   2.401  28.195   3.682
32531W        W97516  13.170   7.495  12.488
32532W        W97517  39.954  11.871   2.784
32533W        W97518  42.925  44.888  12.358
32534W        W97519  20.639  31.478   2.008
32535W        W97520  11.350  35.208  12.179
32536W        W97521  30.607  15.104  10.922
32537W        W97522  20.613  39.130   1.329
32538W        W97523  22.706  12.914  12.526
32539W        W97524  21.843   1.948   1.862
32540W        W97525  43.427  16.777  12.093
32541W        W97526  31.347   9.909  10.746
32542W        W97527  18.979  30.999   3.173
32543W        W97528  24.012   7.245  14.888
32544W        W97529  26.970  19.197   0.020
32545W        W97530  20.097   4.704   1.935
32546W        W97531  10.985  12.341   1.298
32547W        W97532  23.178  34.883  12.202
32548W        W97533  22.887   4.881  11.490
32549W        W97534  42.622  14.864  14.933
32550W        W97535  13.562   4.396  14.753
32551W        W97536  44.333   0.063   0.812
32552W        W97537  19.537  38.068   1.796
32553W        W97538   6.160  36.295   4.220
32554W        W97539  12.344  16.274  11.638
32555W        W97540   2.676  43.817   0.791
32556W        W97541   3.818  26.024   3.534
32557W        W97542  44.440  10.817  12.104
32558W        W97543  25.474  18.791  13.325
32559W        W97544   5.745   7.808  13.439
32560W        W97545  31.661  22.271   2.619
32561W        W97546  15.333  39.882  11.558
32562W        W97547  28.107  19.612  13.408
32563W        W97548  15.131  38.023  12.509
32564W        W97549  19.312   7.415  10.586
32565W        W97550  32.978  30.180   3.293
32566W        W97551  33.535  30.926   9.827
32567W        W97552  26.933  38.263   0.451
32568W        W97553  21.472  26.071   3.257
32569W        W97554  35.416  23.874  12.080
32570W        W97555  17.344  31.528   9.830
32571W        W97556  35.818  19.141  11.233
32572W        W97557  13.134  19.392  10.224
32573W        W97558  24.601   3.892   3.344
32574W        W97559  20.483  16.718  12.976
32575W        W97560  21.669  16.881  14.401
32576W        W97561   7.698  11.874   0.466
32577W        W97562  34.396  11.092  10.058
32578W        W97563  24.929  40.376  10.625
32579W        W97564  41.794  27.590  14.557
32580W        W97565  21.830  38.856  10.210
32581W        W97566  38.497  32.643  11.396
32582W        W97567  15.139  43.490   2.164
32583W        W97568   0.689  14.842  12.814
32584W        W97569   5.290  25.736  13.890
32585W        W97570  16.564  25.379  10.981
32586W        W97571  25.758  16.616   1.302
32587W        W97572   6.782  11.346  10.767
32588W        W97573   2.928  23.558  14.308
32589W        W97574  39.896  29.047   2.277
32590W        W97575   2.693  12.804  13.529
32591W        W97576  20.062  28.596  10.191
32592W        W97577  12.212  39.569   0.852
32593W        W97578   6.909  32.424   3.552
32594W        W97579   1.080  24.144   4.520
32595W        W97580  20.790  21.200   0.914
32596W        W97581  26.587  22.623  14.791
32597W        W97582  12.201  41.104   2.759
32598W        W97583  21.197   2.372  12.832
32599W        W97584   9.455   2.518   3.650
32600W        W97585  37.000  35.946   4.190
32601W        W97586  38.262  38.615   3.208
32602W        W97587  33.974  39.575   0.521
32603W        W97588  25.249   3.385   2.900
32604W        W97589   6.849  40.387  14.761
32605W        W97590  25.220  11.867   0.916
32606W        W97591  44.541  18.740   2.395
32607W        W97592  14.684  41.622   1.738
32608W        W97593  27.577  44.524   3.762
32609W        W97594   6.455  32.301  12.217
32610W        W97595  13.203  19.732  11.494
32611W        W97596  10.681  34.471  11.272
32612W        W97597  41.340  34.328  10.694
32613W        W97598  34.029  31.493   4.403
32614W        W97599  27.436   5.942   0.364
32615W        W97600  21.050  26.456   0.870
32616W        W97601   2.942   4.781   4.146
32617W        W97602   2.250  19.491  11.539
32618W        W97603   9.707  22.510   2.776
32619W        W97604  40.037  43.323  13.461
32620W        W97605  39.229  42.876  13.312
32621W        W97606  13.025   0.817  12.517
32622W        W97607  35.571  34.517   4.806
32623W        W97608   3.964  12.374  13.450
32624W        W97609  38.877   4.908  13.940
32625W        W97610  37.531  44.275  14.444
32626W        W97611  33.377  19.171  14.566
32627W        W97612  31.078  38.439  11.536
32628W        W97613   3.331  36.455   1.727
32629W        W97614   8.253  23.840  14.933
32630W        W97615   1.855  35.545  14.142
32631W        W97616  41.568  17.648  14.011
32632W        W97617   7.078  40.753   1.856
32633W        W97618  27.513  12.224  12.695
32634W        W97619  39.291   6.740   4.084
32635W        W97620  10.736   7.294   2.778
32636W        W97621   7.887  44.997   3.114
32637W        W97622  32.846  43.755  12.513
32638W        W97623  38.344  44.008  12.296
32639W        W97624  16.360  42.575   4.680
32640W        W97625   4.185  22.304  13.062
32641W        W97626  39.510  23.512   0.177
32642W        W97627   1.735  18.179  13.395
32643W        W97628  32.968   6.886   0.693
32644W        W97629  20.717  29.020   1.842
32645W        W97630   3.524  19.201   1.702
32646W        W97631  41.515   4.851   4.643
32647W        W97632  44.495   1.731   3.710
32648W        W97633  20.726  44.383  12.444
32649W        W97634   6.524   6.414   2.797
32650W        W97635   8.680  39.592   1.786
32651W        W97636   6.427  38.582   4.496
32652W        W97637  18.693  15.277  10.599
32653W        W97638  34.957   1.138  12.434
32654W        W97639  36.424  36.408   1.668
32655W        W97640   6.459  38.325  14.223
32656W        W97641  23.620  39.408  11.157
32657W        W97642  15.731  14.342   3.812
32658W        W97643   0.826  12.910  13.451
32659W        W97644  33.906  13.785   2.854
32660W        W97645  17.710  39.259  12.473
32661W        W97646   2.343  22.227   0.316
32662W        W97647  25.733  43.937   1.249
32663W        W97648   6.398  40.783   3.243
32664W        W97649  10.069  23.615   4.396
32665W        W97650  20.789   5.468  14.929
32666W        W97651  10.884   3.006   3.745
32667W        W97652  20.740  37.382  12.603
32668W        W97653   4.242  16.795   3.205
32669W        W97654   9.517  26.506  12.452
32670W        W97655   0.519  43.306   0.333
32671W        W97656  19.317  32.917   4.655
32672W        W97657   6.577  11.611   1.843
32673W        W97658  41.581  19.248   1.220
32674W        W97659  17.283  28.836   2.598
32675W        W97660  41.864  42.117  10.780
32676W        W97661  35.681  32.295   0.440
32677W        W97662  40.037  13.595   2.166
32678W        W97663   3.535  35.190  11.638
32679W        W97664  19.023  43.886   2.838
32680W        W97665   5.452  35.420  11.666
32681W        W97666   4.152   7.728  12.105
32682W        W97667  32.903  34.467   2.651
32683W        W97668  18.698  40.306   0.473
32684W        W97669  26.082  38.038   2.221
32685W        W97670  27.083  42.318  11.053
32686W        W97671   3.380  28.620   3.577
32687W        W97672   4.141  27.167   4.332
32688W        W97673  41.859  19.231   3.226
32689W        W97674  43.627  19.006  14.513
32690W        W97675  10.703  17.594  10.803
32691W        W97676  44.841  43.046   5.090
32692W        W97677  21.746  10.387   4.654
32693W        W97678  19.508   9.631   0.252
32694W        W97679  10.723   7.358   2.220
32695W        W97680   5.324  16.843  12.700
32696W        W97681   0.778  33.663  12.430
32697W        W97682  31.010  12.164  10.670
32698W        W97683  34.233  36.017  11.172
32699W        W97684  32.538  33.979   4.878
32700W        W97685  30.268  32.114  12.536
32701W        W97686  13.257  34.428   2.901
32702W        W97687  16.559  28.328   1.701
32703W        W97688  12.740  42.011  12.059
32704W        W97689  34.745  34.111  13.844
32705W        W97690  40.452   0.724  12.892
32706W        W97691  39.579  39.453   4.560
32707W        W97692   5.922  10.110  14.682
32708W        W97693   5.848   1.857   3.860
32709W        W97694  14.311  18.737   4.488
32710W        W97695  22.058  39.986   3.626
32711W        W97696   4.979  11.694   3.203
32712W        W97697  38.574  36.942  12.519
32713W        W97698   9.408  18.884   2.155
32714W        W97699  13.685  17.648   4.231
32715W        W97700  20.307  29.616  14.381
32716W        W97701  20.680  16.000   1.861
32717W        W97702  13.625  34.818  13.959
32718W        W97703   0.167  33.076   1.413
32719W        W97704  23.006  41.559  12.947
32720W        W97705  22.627  28.366  12.433
32721W        W97706   6.153  27.159  11.660
32722W        W97707  42.387  18.399   4.529
32723W        W97708  23.010  15.290   1.682
32724W        W97709  44.481  30.732  11.562
32725W        W97710   0.249   5.258  12.023
32726W        W97711  13.329  32.384  13.334
32727W        W97712  35.604   9.494  14.052
32728W        W97713   3.883  39.987   2.842
32729W        W97714  34.467  38.579   3.867
32730W        W97715  35.154   1.942  11.090
32731W        W97716  40.510   5.952   0.860
32732W        W97717   3.758  41.282   3.615
32733W        W97718   5.113  25.250   5.108
32734W        W97719  15.249  23.093  12.558
32735W        W97720  12.325  19.381   1.629
32736W        W97721  24.582  10.791  11.562
32737W        W97722  34.029  26.461  11.626
32738W        W97723   3.270   3.862   1.496
32739W        W97724  20.004  18.883  13.536
32740W        W97725  10.028   5.426   1.205
32741W        W97726   2.683  38.808  11.476
32742W        W97727  39.441  20.683  14.867
32743W        W97728  37.514  20.198  12.863
32744W        W97729  14.415  42.906  13.026
32745W        W97730  10.800  12.210   2.288
32746W        W97731  34.124  26.126   3.868
32747W        W97732   4.457   0.331  13.325
32748W        W97733  37.433  26.700  12.930
32749W        W97734  30.596   0.764  10.943
32750W        W97735  11.547  24.715   4.795
32751W        W97736  31.827   0.422  11.437
32752W        W97737   2.329  37.624  12.462
32753W        W97738  39.786  40.514   4.119
32754W        W97739  20.184  12.718   0.909
32755W        W97740  21.463  13.098   3.712
32756W        W97741   3.681  24.008  12.500
32757W        W97742  24.136  19.131   2.366
32758W        W97743   6.755  12.211   1.766
32759W        W97744  28.611   0.725   1.675
32760W        W97745   7.474  41.846   2.948
32761W        W97746  31.455  24.467   2.207
32762W        W97747  17.731  40.757   4.561
32763W        W97748  16.217   8.447  10.779
32764W        W97749   7.398  34.794   3.649
32765W        W97750  40.988  25.953  10.818
32766W        W97751  22.717   3.919   1.650
32767W        W97752   6.281  41.850  13.791
32768W        W97753  37.363  12.641  11.137
32769W        W97754  16.209   9.200   0.338
32770W        W97755  19.690   4.406  13.825
32771W        W97756  33.286  21.081   0.465
32772W        W97757  25.216  39.009   4.048
32773W        W97758  10.311  13.287  12.084
32774W        W97759  21.940  28.433   4.589
32775W        W97760   0.433   1.484  10.432
32776W        W97761  33.360   0.824  10.782
32777W        W97762  37.011   9.849  12.948
32778W        W97763   3.938  43.067  12.053
32779W        W97764  41.253  19.756   2.515
32780W        W97765   4.422  18.285   0.434
32781W        W97766  12.355  31.090  13.495
32782W        W97767  25.920  11.412  13.241
32783W        W97768  13.393  21.621  14.338
32784W        W97769  33.702  23.698  12.510
32785W        W97770  35.429  22.635  10.679
32786W        W97771   4.922  14.226  14.312
32787W        W97772  12.650  25.751  13.066
32788W        W97773  16.497  41.091  14.435
32789W        W97774  18.723  15.123  12.422
32790W        W97775  12.354  43.036  12.389
32791W        W97776  10.358   4.823  14.918
32792W        W97777  40.083  11.670   1.490
32793W        W97778  26.458  27.599  14.306
32794W        W97779  10.455  18.558  14.009
32795W        W97780  41.042  43.684  13.359
32796W        W97781   5.457  14.277  11.678
32797W        W97782   9.142  28.295   4.589
32798W        W97783  35.882  20.697   4.723
32799W        W97784  36.252  10.659  11.059
32800W        W97785  36.781  26.079   4.324
32801W        W97786   1.224  12.667  10.743
32802W        W97787  16.715   7.855  14.915
32803W        W97788  17.115  11.431   0.822
32804W        W97789  30.574  19.765  14.918
32805W        W97790  24.109   9.937  12.892
32806W        W97791  41.943  22.112  14.366
32807W        W97792   0.863  44.726  12.959
32808W        W97793  34.475  43.150  14.123
32809W        W97794  24.626  42.768   2.563
32810W        W97795  41.770  27.121   4.693
32811W        W97796   5.034  38.580   2.649
32812W        W97797   1.387  31.221   2.382
32813W        W97798  31.728  19.618   1.659
32814W        W97799   3.586  43.368   4.586
32815W        W97800  17.843  17.984   1.823
32816W        W97801  38.875   8.675  14.152
32817W        W97802  40.271  44.995   2.357
32818W        W97803  24.433  26.616   0.503
32819W        W97804  24.100  31.457  12.934
32820W        W97805  11.599   2.443   0.486
32821W        W97806  15.794  10.572  11.621
32822W        W97807  24.538  21.236  13.375
32823W        W97808  34.579   2.142  13.834
32824W        W97809   6.329  38.299   4.059
32825W        W97810  20.054  36.868   4.112
32826W        W97811  27.328  41.164  11.138
32827W        W97812  11.678   1.728   4.568
32828W        W97813  20.584  44.834  11.770
32829W        W97814  30.735  25.296  10.837
32830W        W97815  13.643   8.471   0.870
32831W        W97816  25.529  17.761   4.697
32832W        W97817   1.698   0.730   0.289
32833W        W97818  28.018  14.860  14.498
32834W        W97819   9.299  27.707  11.477
32835W        W97820  41.320  13.435   0.227
32836W        W97821  36.824  17.633  14.266
32837W        W97822  36.113  29.793   4.818
32838W        W97823  31.567  42.718  12.008
32839W        W97824  31.048  12.076   0.090
32840W        W97825  12.686  15.993   4.054
32841W        W97826  35.363  34.811   1.866
32842W        W97827  11.563   3.212   4.752
32843W        W97828   0.176  12.918  14.310
32844W        W97829  44.194  11.342  11.281
32845W        W97830   8.662  14.315   1.674
32846W        W97831  22.475  14.356  12.399
32847W        W97832  38.429  36.619  14.445
32848W        W97833  44.202  41.089   2.446
32849W        W97834  24.437  42.551  10.717
32850W        W97835  40.262  12.819   5.018
32851W        W97836  32.414  15.971  12.310
32852W        W97837   9.942  10.424   0.511
32853W        W97838  44.520   1.703  11.210
32854W        W97839  16.716  11.366  13.344
32855W        W97840  43.879   4.484  14.384
32856W        W97841  32.029   4.729   1.355
32857W        W97842   9.385  42.379   0.652
32858W        W97843  14.399  22.308  13.530
32859W        W97844   0.587   5.822  12.998
32860W        W97845   2.248  25.469  11.167
32861W        W97846  18.221   0.552  11.393
32862W        W97847  25.850  35.861   5.075
32863W        W97848   3.702  21.050   1.865
32864W        W97849  12.318  31.897   2.332
32865W        W97850   0.382  40.882   0.280
32866W        W97851  43.279  31.304  10.589
32867W        W97852  36.733  13.687   0.909
32868W        W97853   2.095  38.349   3.809
32869W        W97854   3.949   5.751   1.558
32870W        W97855  12.807  14.083   3.701
32871W        W97856   2.894  33.436  11.541
32872W        W97857  22.118  13.582  11.201
32873W        W97858   2.020  12.579   1.341
32874W        W97859  39.288  20.016   2.977
32875W        W97860  36.068  31.937  11.099
32876W        W97861  20.583  24.197  14.843
32877W        W97862  11.564  38.922   4.534
32878W        W97863   1.003  28.308  13.366
32879W        W97864  38.431  14.643  13.127
32880W        W97865  31.832  35.345  11.015
32881W        W97866  23.025  35.420   3.399
32882W        W97867  20.830  17.741  14.562
32883W        W97868  33.508  25.486  13.322
32884W        W97869  38.379  18.000   5.146
32885W        W97870  41.772  13.728   0.191
32886W        W97871   7.359   0.018  13.313
32887W        W97872  13.361  24.488   3.622
32888W        W97873  36.993  23.848  13.403
32889W        W97874  16.007  40.399  12.608
32890W        W97875  22.007  30.575   2.261
32891W        W97876  28.127  41.255   2.620
32892W        W97877  13.260  42.731  10.085
32893W        W97878  44.303  41.379  11.762
32894W        W97879  29.669   6.329  12.874
32895W        W97880  27.508  38.764   3.405
32896W        W97881  37.466  18.952  10.428
32897W        W97882   4.857  34.551   2.328
32898W        W97883   4.152  36.195   5.062
32899W        W97884  40.535  38.243  13.241
32900W        W97885   7.787  33.967  13.320
32901W        W97886   8.249  17.886  12.064
32902W        W97887  16.058  31.290  14.884
32903W        W97888  11.412   9.680   3.152
32904W        W97889   3.076   9.322  11.579
32905W        W97890  33.100  26.393   3.817
32906W        W97891  43.755   4.263  10.647
32907W        W97892  27.730  24.133   0.722
32908W        W97893  38.343  44.781  10.706
32909W        W97894  18.752  13.723  10.590
32910W        W97895  30.143  18.959  14.957
32911W        W97896  44.552  42.834   0.170
32912W        W97897  42.544  36.208  11.624
32913W        W97898  41.915  42.793  12.705
32914W        W97899  13.310  26.391   3.122
32915W        W97900  24.155  20.481  11.620
32916W        W97901  10.297  25.779  12.385
32917W        W97902  37.268  21.850  11.059
32918W        W97903  14.580  25.758   0.331
32919W        W97904  40.335  20.514  14.335
32920W        W97905   7.756  39.274  10.410
32921W        W97906  35.337  11.876   4.138
32922W        W97907   4.337  40.008  12.425
32923W        W97908  15.207   9.645   4.987
32924W        W97909  15.642  30.196   1.421
32925W        W97910  35.648  30.550   1.246
32926W        W97911  26.876  44.722   5.033
32927W        W97912  26.711  33.820  14.913
32928W        W97913  16.530   6.208  12.074
32929W        W97914  15.627   8.312   2.230
32930W        W97915  43.397  44.525   1.845
32931W        W97916   6.635  25.106   3.730
32932W        W97917   0.959  39.452   3.606
32933W        W97918  37.153  44.727   4.229
32934W        W97919  36.071  38.229   2.364
32935W        W97920  28.657  22.293  14.361
32936W        W97921  43.376  39.788  14.508
32937W        W97922  26.511   4.218  14.964
32938W        W97923  33.786  43.486  11.988
32939W        W97924  41.982  28.669   0.391
32940W        W97925  23.920  36.840   2.322
32941W        W97926  41.773  34.065  14.588
32942W        W97927  32.867   0.768  10.637
32943W        W97928   5.863  42.004   2.588
32944W        W97929  16.412   7.003  14.303
32945W        W97930   2.246  42.713  10.290
32946W        W97931   3.914  35.935  13.835
32947W        W97932  23.656  17.300   0.857
32948W        W97933  20.108  31.720   0.612
32949W        W97934  19.808  14.807  11.036
32950W        W97935  27.256  22.281  10.694
32951W        W97936   3.973  37.082  11.659
32952W        W97937  12.260   8.231   3.958
32953W        W97938  11.731   7.972  11.334
32954W        W97939  31.826  43.928   4.175
32955W        W97940  30.056  27.777   4.126
32956W        W97941  26.666  40.938  10.766
32957W        W97942   5.677  11.603  14.358
32958W        W97943  21.537  23.070   4.409
32959W        W97944   9.801  42.900   1.550
32960W        W97945  28.293  33.084  13.593
32961W        W97946  30.423   4.966   0.352
32962W        W97947  20.668  26.674  14.690
32963W        W97948   9.222  23.685   3.685
32964W        W97949  18.694  28.063   2.448
32965W        W97950   5.594  16.606  13.093
32966W        W97951   2.787   9.985   3.215
32967W        W97952  35.529  15.768   0.938
32968W        W97953   8.989  29.979   4.232
32969W        W97954  41.750  28.934  14.859
32970W        W97955  44.563   8.688   9.994
32971W        W97956  31.635  44.289  12.065
32972W        W97957  14.851  42.247   2.368
32973W        W97958  36.119  22.168   3.100
32974W        W97959  24.510  25.710  11.713
32975W        W97960  18.558   9.648   0.373
32976W        W97961  36.620   7.223   4.035
32977W        W97962  31.700  18.141  13.821
32978W        W97963  22.402  20.370   3.701
32979W        W97964  12.746  17.446   4.695
32980W        W97965   7.259   1.909  12.414
32981W        W97966  27.311  42.305  14.418
32982W        W97967  28.506   3.418  12.059
32983W        W97968   3.366  37.293   3.292
32984W        W97969  38.731  28.394  13.900
32985W        W97970   5.223  14.103   4.625
32986W        W97971  25.431  43.457  10.465
32987W        W97972  32.906  16.597   1.244
32988W        W97973  15.456  33.197  13.887
32989W        W97974   5.762  15.764   3.494
32990W        W97975  37.481  41.348   2.174
32991W        W97976  35.409  41.540   4.603
32992W        W97977  24.505   6.411   4.126
32993W        W97978   5.672  36.817  13.835
32994W        W97979  29.413  37.462  12.514
32995W        W97980  21.997   4.361  11.634
32996W        W97981  21.187  20.501   1.136
32997W        W97982   2.326  31.086   2.549
32998W        W97983  43.373  36.059  14.927
32999W        W97984   8.931  17.658   1.795
33000W        W97985  11.703   3.233  11.338
33001W        W97986  13.782  13.616  14.020
33002W        W97987  18.329  44.602  12.504
33003W        W97988  44.578  37.168   0.552
33004W        W97989  36.732   2.481   3.673
33005W        W97990   5.301   9.371  14.512
33006W        W97991  38.295  38.364   2.732
33007W        W97992  27.198   3.718  12.402
33008W        W97993  29.184   1.239   2.410
33009W        W97994  13.436  11.961  11.612
33010W        W97995   9.094  34.344  12.262
33011W        W97996  38.819  21.760  12.063
33012W        W97997  32.398   9.762   0.319
33013W        W97998   2.072   7.652   4.197
33014W        W97999  28.371   1.285  14.857
33015W        W98000  41.244  35.279  11.118
33016W        W98001  11.654   7.337   2.578
33017W        W98002  33.275   9.385  14.317
33018W        W98003  44.251  42.725   3.408
33019W        W98004  38.612  16.203  11.991
33020W        W98005  15.264  32.362   1.416
33021W        W98006   3.375   3.996  13.304
33022W        W98007  43.761  32.664   0.048
33023W        W98008   7.410  32.136   0.470
33024W        W98009  33.134   7.115   2.246
33025W        W98010   0.847   9.885   4.526
33026W        W98011  16.676  43.960   3.793
33027W        W98012   7.831  34.117  10.893
33028W        W98013  30.209  17.885   2.340
33029W        W98014  20.824   5.215  12.537
33030W        W98015  32.014  34.742   1.654
33031W        W98016  41.925  21.014   1.886
33032W        W98017  26.751  12.655  13.444
33033W        W98018  37.586  44.198  12.254
33034W        W98019   0.480   4.182   4.608
33035W        W98020  29.650   0.916   0.256
33036W        W98021  29.278   2.460   5.333
33037W        W98022  14.005   4.453  12.331
33038W        W98023  34.454  29.693  13.903
33039W        W98024   9.958  37.312  14.045
33040W        W98025  30.154   2.476   2.207
33041W        W98026  42.302  18.729  12.496
33042W        W98027   0.798  31.823  12.460
33043W        W98028  11.779  25.454  12.952
33044W        W98029  17.972  33.929   2.264
33045W        W98030  27.546  15.409   2.790
33046W        W98031   5.880  44.049   2.272
33047W        W98032  36.076  32.480   2.901
33048W        W98033  14.214  41.046   1.776
33049W        W98034  33.646   9.948  11.908
33050W        W98035   5.535  36.987  13.342
33051W        W98036  20.106  41.966   2.655
33052W        W98037   4.525  35.188   3.039
33053W        W98038  26.097  35.418   4.242
33054W        W98039  34.168   7.274   2.206
33055W        W98040  23.267  24.743  14.310
33056W        W98041   2.870  13.700  14.072
33057W        W98042   7.438  37.892   1.298
33058W        W98043  39.889   0.444  11.149
33059W        W98044  23.244  29.263   1.970
33060W        W98045  33.885  39.264  13.436
33061W        W98046   0.674  27.938  10.712
33062W        W98047  39.938  38.804   1.453
33063W        W98048  33.623  14.497   1.801
33064W        W98049   4.121  38.263   2.859
33065W        W98050  32.824  31.530   1.712
33066W        W98051   4.136  37.559  11.573
33067W        W98052  35.161  15.712   1.913
33068W        W98053  43.998   5.651   3.278
33069W        W98054  23.671  38.799   0.468
33070W        W98055   0.401  34.819   4.829
33071W        W98056  13.624  18.627   2.812
33072W        W98057  40.912  29.937  11.186
33073W        W98058  32.506  39.900   2.016
33074W        W98059  36.422  28.404   0.261
33075W        W98060  26.104   3.735  12.374
33076W        W98061   6.810   8.356  13.060
33077W        W98062   0.749  26.539   4.084
33078W        W98063  15.298  11.757   2.845
33079W        W98064  28.165  16.614   2.587
33080W        W98065  39.739  37.541   2.111
33081W        W98066   3.847   1.448  14.112
33082W        W98067  13.982  13.459  11.166
33083W        W98068   8.651  44.333   0.979
33084W        W98069  28.957  38.893   4.590
33085W        W98070  13.766  30.133  12.084
33086W        W98071  13.615  29.525  14.846
33087W        W98072  34.565  36.467   1.804
33088W        W98073   7.390  19.840  13.109
33089W        W98074  30.197  43.400   0.447
33090W        W98075   4.887   4.446   1.242
33091W        W98076  23.696  11.755   0.890
33092W        W98077   8.745  26.200  14.660
33093W        W98078  39.037  41.444  12.271
33094W        W98079  28.010   6.435  11.180
33095W        W98080  41.136  31.503  12.876
33096W        W98081  44.774  23.928   3.301
33097W        W98082  20.533  18.093  14.301
33098W        W98083  25.628  33.666   4.630
33099W        W98084  26.537  28.856   2.364
33100W        W98085  30.442  42.781   3.761
33101W        W98086  39.813  10.831   1.232
33102W        W98087   3.861  12.154   1.283
33103W        W98088  42.444  35.598   1.186
33104W        W98089  41.695  34.423  13.845
33105W        W98090  34.451  28.112  11.612
33106W        W98091  10.860  13.886  13.439
33107W        W98092  40.645  14.866   0.220
33108W        W98093  43.462  32.870  10.843
33109W        W98094  24.130   0.349  11.322
33110W        W98095  42.949  23.403   4.116
33111W        W98096  28.238  24.240   0.699
33112W        W98097  14.617  14.039   1.153
33113W        W98098  33.144  43.694  13.341
33114W        W98099  22.090   3.927   3.685
33115W        W98100   4.939  31.904  11.539
33116W        W98101  24.968   3.314   4.609
33117W        W98102  28.205  21.537   2.285
33118W        W98103  11.776  28.481  11.180
33119W        W98104  10.244  18.544  11.635
33120W        W98105  44.967   6.970   3.736
33121W        W98106  25.066  12.148   0.146
33122W        W98107  19.993  26.265   4.131
33123W        W98108  30.254   1.341   4.632
33124W        W98109  28.697   9.176   4.548
33125W        W98110  22.856   0.505   4.946
33126W        W98111   3.054  38.663   5.141
33127W        W98112  38.039  18.691  11.439
33128W        W98113  44.841  37.884  12.983
33129W        W98114  41.905  27.970  14.247
33130W        W98115  35.370   0.319  10.686
33131W        W98116  33.653  38.394   3.665
33132W        W98117  22.785  35.766  14.761
33133W        W98118  44.280   4.915   3.583
33134W        W98119  28.789  34.478   2.724
33135W        W98120  25.485  37.015   1.586
33136W        W98121  26.493  32.956  13.120
33137W        W98122   9.305   2.979  11.903
33138W        W98123   0.969  20.195   3.380
33139W        W98124  34.322   6.453  11.421
33140W        W98125  28.495  28.385  10.734
33141W        W98126  26.037   3.831   1.488
33142W        W98127  27.594   4.762  13.840
33143W        W98128  36.099   0.809   3.718
33144W        W98129  18.470  21.534  14.839
33145W        W98130  11.214  24.729   0.252
33146W        W98131  11.838  11.574  14.023
33147W        W98132  44.416   9.768   3.647
33148W        W98133  43.318  22.624  13.333
33149W        W98134  21.049  44.112   3.301
33150W        W98135  11.649  35.983   2.307
33151W        W98136  30.110  37.956   0.723
33152W        W98137  26.272  43.931   4.123
33153W        W98138  34.466  27.102  12.964
33154W        W98139  39.779  34.547  14.333
33155W        W98140  35.927  44.301  12.470
33156W        W98141  36.800  23.000  13.849
33157W        W98142  41.067  14.715  10.646
33158W        W98143  16.486  20.529  13.870
33159W        W98144  33.475  24.988  13.626
33160W        W98145  15.821  43.029  14.514
33161W        W98146   3.897  41.455  14.804
33162W        W98147  40.489   4.748  14.391
33163W        W98148  35.831  44.513  12.942
33164W        W98149  27.454   5.848  14.419
33165W        W98150  37.362  13.756   9.792
33166W        W98151  40.962  17.177   2.673
33167W        W98152  43.439  22.647   4.620
33168W        W98153  28.613  14.052  11.144
33169W        W98154  15.609  42.956  14.029
33170W        W98155  20.546  29.945  12.023
33171W        W98156   5.232   9.824  14.825
33172W        W98157  11.628  38.061   1.383
33173W        W98158   3.408  25.426  13.427
33174W        W98159  12.772  28.081   2.076
33175W        W98160  34.917  34.056  12.477
33176W        W98161  30.227  41.689  14.945
33177W        W98162  11.158   5.562  10.507
33178W        W98163  25.967  38.086  13.608
33179W        W98164   5.896  36.434   3.793
33180W        W98165  16.617  33.105  11.414
33181W        W98166  39.937  20.793   2.304
33182W        W98167  31.038  22.739   4.517
33183W        W98168  24.674  22.417  14.815
33184W        W98169  15.862  39.068   4.012
33185W        W98170  11.970  12.272  11.673
33186W        W98171  22.534  29.633   1.391
33187W        W98172   5.961  39.164  11.457
33188W        W98173  15.080  19.566   4.063
33189W        W98174  27.473  43.954  11.920
33190W        W98175  44.933  32.852   4.740
33191W        W98176  33.487  24.434   0.717
33192W        W98177  13.155  21.502  12.133
33193W        W98178  28.869  43.027   1.239
33194W        W98179   4.451  10.700  12.979
33195W        W98180  18.946  25.205   1.845
33196W        W98181   5.830   6.644   1.334
33197W        W98182  42.691  14.692   5.154
33198W        W98183   9.991   3.289  12.572
33199W        W98184  37.782  29.996   0.835
33200W        W98185  42.117  37.306  14.633
33201W        W98186  24.114  40.298  14.310
33202W        W98187  42.034   1.032  13.692
33203W        W98188  26.678  20.475  12.592
33204W        W98189  41.175  18.602  13.294
33205W        W98190  40.348  24.498  14.201
33206W        W98191   7.379  43.158  13.733
33207W        W98192   4.353   9.388   3.341
33208W        W98193  24.792   9.487   1.373
33209W        W98194   3.306  29.182   3.601
33210W        W98195   4.796  16.754  11.614
33211W        W98196   3.465  18.443  11.126
33212W        W98197  38.399  43.992   1.768
33213W        W98198   4.997  13.804  14.027
33214W        W98199  35.004  15.328   0.060
33215W        W98200   0.745   0.180  13.858
33216W        W98201  23.554  20.651   1.825
33217W        W98202  34.091  41.329   3.375
33218W        W98203  15.652   7.472   2.327
33219W        W98204  36.002  39.858  13.010
33220W        W98205  44.514  33.584   3.140
33221W        W98206  21.311   7.382  13.471
33222W        W98207   1.732  43.735  10.742
33223W        W98208   9.187   5.947  13.377
33224W        W98209  13.621  14.804  13.951
33225W        W98210  38.684  19.116   0.603
33226W        W98211  17.142  34.431  14.778
33227W        W98212  25.667  19.010   3.632
33228W        W98213   9.131  44.853  13.820
33229W        W98214   4.404   1.426  12.934
33230W        W98215  12.411  17.281   1.175
33231W        W98216  20.546  42.164  12.438
33232W        W98217  36.924  25.925   0.809
33233W        W98218  13.307  37.119   0.271
33234W        W98219  33.966  21.448   3.387
33235W        W98220  23.637   1.491  11.478
33236W        W98221  29.641   0.999   1.507
33237W        W98222  29.831   5.017  12.037
33238W        W98223   3.203  32.117   1.678
33239W        W98224   0.381  36.587   0.463
33240W        W98225  12.816  15.706  13.322
33241W        W98226  32.738  37.478  10.817
33242W        W98227  16.172  18.597   1.232
33243W        W98228  23.781  30.103   1.772
33244W        W98229   1.389  26.799   4.726
33245W        W98230  31.070  10.728  13.625
33246W        W98231  11.571  10.789   0.491
33247W        W98232   6.356  41.477   1.074
33248W        W98233   7.214  12.449  14.983
33249W        W98234  33.182  18.531   3.716
33250W        W98235   6.438  13.209   3.314
33251W        W98236  11.447   0.245  14.255
33252W        W98237  42.820  18.073  12.146
33253W        W98238  41.896  38.981   4.569
33254W        W98239  44.283  39.812   4.071
33255W        W98240  31.594  39.323  14.678
33256W        W98241  17.057   0.498  13.023
33257W        W98242  24.495   6.674  10.969
33258W        W98243  19.662  27.113   2.265
33259W        W98244   2.509  15.810   3.780
33260W        W98245   3.779  21.551   2.442
33261W        W98246  25.274  20.483   1.423
33262W        W98247   3.210  40.474   1.372
33263W        W98248  41.084  41.870   1.426
33264W        W98249  15.115  16.472  12.014
33265W        W98250  25.011  19.170   4.950
33266W        W98251  18.060  37.162   0.309
33267W        W98252  34.326  34.545   0.955
33268W        W98253   0.220   2.297  12.510
33269W        W98254  44.628   1.087   0.736
33270W        W98255  21.065  21.692   9.940
33271W        W98256  27.180  34.270   5.060
33272W        W98257  32.162  23.663  10.245
33273W        W98258   1.027  29.578  14.795
33274W        W98259  34.352   9.276   1.777
33275W        W98260  36.090   6.157  11.195
33276W        W98261  24.907   6.296   4.464
33277W        W98262  15.817  24.156   4.636
33278W        W98263  44.005   6.249   5.279
33279W        W98264  14.197  40.852  14.574
33280W        W98265  11.933   7.309   0.750
33281W        W98266  20.018   1.894  10.306
33282W        W98267  30.427  27.238  13.561
33283W        W98268  12.388  33.625  13.369
33284W        W98269  29.678   7.583  10.552
33285W        W98270  29.953  18.700  11.901
33286W        W98271  30.668   9.566  12.196
33287W        W98272   9.861  11.532  11.998
33288W        W98273   2.948  13.218   3.235
33289W        W98274  32.494  28.154   4.046
33290W        W98275  40.272  31.395   3.627
33291W        W98276  18.719  33.450  12.666
33292W        W98277  35.748  39.794   3.634
33293W        W98278  32.455  15.143  14.002
33294W        W98279  26.416  36.497   2.359
33295W        W98280  35.400  12.028   2.848
33296W        W98281  38.926  15.164  12.785
33297W        W98282  36.595  16.694   2.669
33298W        W98283  19.225  44.752  14.894
33299W        W98284  42.855  41.007  14.328
33300W        W98285   3.456  29.875  11.620
33301W        W98286  15.251  40.241  11.918
33302W        W98287  39.016  17.124  13.354
33303W        W98288  20.880  10.291  10.965
33304W        W98289   8.250  15.847   0.905
33305W        W98290  43.491  25.230   4.136
33306W        W98291  32.443  19.252   4.967
33307W        W98292  32.067  17.899   4.350
33308W        W98293  33.899  23.220  14.782
33309W        W98294  23.202   9.696   0.880
33310W        W98295   7.407   2.843  14.262
33311W        W98296   2.036  13.978  11.579
33312W        W98297  10.783   0.819   1.666
33313W        W98298   7.501  38.841   4.276
33314W        W98299  13.932  22.581   1.661
33315W        W98300   5.683   2.177   1.651
33316W        W98301  12.170  10.540  11.969
33317W        W98302  31.954   6.717   0.511
33318W        W98303  10.604  25.379  13.494
33319W        W98304  30.919  35.481   0.068
33320W        W98305   9.358  36.001  11.999
33321W        W98306  18.980  28.629   3.700
33322W        W98307   9.766  30.097   2.630
33323W        W98308  38.711   2.616  11.110
33324W        W98309  18.927   0.107   3.919
33325W        W98310  36.987  18.802   4.204
33326W        W98311   7.903  44.240  12.090
33327W        W98312  27.671  15.246   2.313
33328W        W98313  22.969   0.982  13.587
33329W        W98314   5.628   9.291  13.859
33330W        W98315   0.787  24.428   3.169
33331W        W98316   2.790  42.507  12.954
33332W        W98317  26.670  11.800  13.092
33333W        W98318  16.681  11.278   4.287
33334W        W98319  21.994  22.632   3.670
33335W        W98320   6.674  33.019  13.823
33336W        W98321  41.822   8.914  12.735
33337W        W98322   2.833  28.144  14.945
33338W        W98323  39.405   0.827   0.433
33339W        W98324   4.406  37.925  11.848
33340W        W98325  35.913  18.138  12.929
33341W        W98326   5.155   6.815  11.932
33342W        W98327  30.418  26.621   4.541
33343W        W98328  41.541  38.049  14.985
33344W        W98329  14.073  31.080   4.257
33345W        W98330   5.500  25.938   2.375
33346W        W98331  41.292  27.872   3.282
33347W        W98332  16.584   8.554   0.326
33348W        W98333  38.263  16.917  10.950
33349W        W98334   3.183  33.729  13.485
33350W        W98335   5.279  39.092  10.173
33351W        W98336  31.682   0.217   1.271
33352W        W98337  15.281   0.969   4.759
33353W        W98338  26.205  39.190  11.176
33354W        W98339  36.039  27.568  12.131
33355W        W98340  20.590  33.506  11.673
33356W        W98341  25.594  31.545  11.778
33357W        W98342  33.102  19.800  12.010
33358W        W98343  29.098   5.000   3.079
33359W        W98344  14.314   2.496   2.804
33360W        W98345  12.564  27.228   3.047
33361W        W98346  33.475   2.975   3.085
33362W        W98347  22.621   0.289  12.411
33363W        W98348  35.437  12.698  13.128
33364W        W98349  34.812   9.762  13.978
33365W        W98350   4.722   5.489   5.386
33366W        W98351  35.890  18.276  14.958
33367W        W98352  40.539  14.489  14.424
33368W        W98353  43.580  16.936  14.402
33369W        W98354  41.009  32.307  13.450
33370W        W98355  31.156  23.925   3.272
33371W        W98356  28.676   5.687  11.143
33372W        W98357  20.513  40.921   2.566
33373W        W98358   3.862  18.647   2.211
33374W        W98359   1.059  30.944   4.517
33375W        W98360  11.391  33.914   1.693
33376W        W98361  31.037   4.361   2.348
33377W        W98362  25.169  35.549  13.485
33378W        W98363  33.925   8.736  12.199
33379W        W98364  36.270  20.621  13.439
33380W        W98365   0.837  23.206   1.358
33381W        W98366  44.803  21.165   4.755
33382W        W98367  22.618  32.606  14.804
33383W        W98368  42.780   6.934  13.543
33384W        W98369  21.803  25.160  14.881
33385W        W98370   1.847  26.521   3.049
33386W        W98371  38.468  39.501  10.719
33387W        W98372   0.221   2.454   2.195
33388W        W98373  15.796  38.952   4.503
33389W        W98374  18.887  42.266   4.280
33390W        W98375  40.369  29.733  14.915
33391W        W98376  36.506  20.941  11.521
33392W        W98377  36.110  35.013   0.729
33393W        W98378  41.520  35.707  14.651
33394W        W98379   4.487   0.002  12.866
33395W        W98380  10.191  22.107  12.528
33396W        W98381  10.715  18.180   0.819
33397W        W98382  34.961  43.217  13.972
33398W        W98383   7.620  38.623   1.881
33399W        W98384  35.405  26.464   3.677
33400W        W98385   3.735   1.445   2.680
33401W        W98386  40.742  22.992   1.325
33402W        W98387  11.786  41.768  13.465
33403W        W98388   2.224  32.703  12.508
33404W        W98389  25.047  10.301   2.385
33405W        W98390   0.519  24.766   4.168
33406W        W98391  19.203  14.113   3.695
33407W        W98392  25.074  33.912   1.529
33408W        W98393  36.884  13.861  14.039
33409W        W98394   8.722  25.721  14.066
33410W        W98395  26.747   2.953   4.908
33411W        W98396  27.444  24.662  12.740
33412W        W98397  19.371  30.519   1.439
33413W        W98398  40.556  41.341   2.815
33414W        W98399  34.443  23.467  12.102
33415W        W98400  28.341  22.124  14.931
33416W        W98401  35.449  13.523   1.859
33417W        W98402  36.314  39.123   0.308
33418W        W98403  38.825  12.204   2.896
33419W        W98404   6.712  32.628  13.471
33420W        W98405  19.645   6.285  13.090
33421W        W98406  29.033   9.489   3.297
33422W        W98407  19.829   8.737   1.702
33423W        W98408  42.074  19.065   1.269
33424W        W98409  24.225  36.812   3.474
33425W        W98410   9.387  24.689   1.665
33426W        W98411   8.852  16.719  11.154
33427W        W98412   0.360  22.953   2.129
33428W        W98413  11.203  27.047  13.546
33429W        W98414  41.959  18.011  10.163
33430W        W98415  41.128  40.695  12.022
33431W        W98416  40.837  15.119   2.129
33432W        W98417  29.335  30.046   4.574
33433W        W98418  33.825  30.940   0.165
33434W        W98419   5.045  15.308   1.013
33435W        W98420  44.432  42.678  14.321
33436W        W98421  29.950  43.351  13.748
33437W        W98422  32.342  39.097   0.749
33438W        W98423  17.784  21.985  12.134
33439W        W98424   4.657   3.394  13.546
33440W        W98425   8.709  28.403   2.757
33441W        W98426   3.841  20.990  13.546
33442W        W98427   0.074  13.640   1.885
33443W        W98428  19.137  36.413   1.388
33444W        W98429  12.094   0.439  11.712
33445W        W98430  36.520  23.863   4.101
33446W        W98431   6.335   3.926   4.473
33447W        W98432  41.225  21.960   4.693
33448W        W98433  10.090  13.837   1.764
33449W        W98434  34.420  43.246  14.635
33450W        W98435  18.603  21.727  12.461
33451W        W98436   2.725   4.360   3.175
33452W        W98437  22.545  36.140  14.476
33453W        W98438  34.420  26.944   1.281
33454W        W98439   4.263  19.098  10.488
33455W        W98440  18.948  44.027  12.514
33456W        W98441  16.904  31.381  10.615
33457W        W98442  26.007  32.121   2.371
33458W        W98443  28.193  38.821   2.839
33459W        W98444   3.923  22.075  10.636
33460W        W98445   6.238  41.235   0.295
33461W        W98446  44.582  28.522   4.276
33462W        W98447  31.537  16.101  12.703
33463W        W98448   9.352   5.072   5.098
33464W        W98449  31.639  31.176   2.639
33465W        W98450  11.438  18.761  10.792
33466W        W98451  35.835  17.774   3.174
33467W        W98452  37.362  27.636   4.614
33468W        W98453   7.177  12.337  12.544
33469W        W98454  24.767   8.711  14.811
33470W        W98455   9.920  26.189  10.786
33471W        W98456   3.150  42.024  11.264
33472W        W98457  41.047  22.526  12.099
33473W        W98458  31.455  28.619  14.333
33474W        W98459  26.206   1.901   2.909
33475W        W98460  42.312  17.364   1.900
33476W        W98461  16.843  12.147  12.980
33477W        W98462  36.646  25.989   0.381
33478W        W98463  26.626   7.443  14.958
33479W        W98464  27.580  33.362  13.977
33480W        W98465  40.022  12.713   0.124
33481W        W98466  25.761  40.866   0.402
33482W        W98467   0.660  11.164   4.708
33483W        W98468  27.176  23.852  11.298
33484W        W98469  41.280  14.535   4.696
33485W        W98470   1.328  26.209   2.334
33486W        W98471  15.826  17.232  12.670
33487W        W98472  27.221  20.064  11.792
33488W        W98473   0.822  34.857  11.976
33489W        W98474  18.272  10.599   3.720
33490W        W98475   5.297  28.498  10.664
33491W        W98476  37.346  32.474  12.936
33492W        W98477  37.077  22.804  13.421
33493W        W98478  13.151  41.453  14.895
33494W        W98479  36.723  23.588   0.036
33495W        W98480   0.736   0.475   1.293
33496W        W98481  26.763  33.412  13.121
33497W        W98482   3.370  43.463  14.317
33498W        W98483  25.785  11.192  12.148
33499W        W98484   3.500  38.419   0.526
33500W        W98485  33.539  44.342   1.495
33501W        W98486  34.889  12.616   4.629
33502W        W98487  27.388  33.471   1.792
33503W        W98488   3.966  18.530  14.108
33504W        W98489  38.485   3.677  12.005
33505W        W98490  22.053  35.014   4.204
33506W        W98491   9.426  11.242  10.799
33507W        W98492  40.612   1.288  13.066
33508W        W98493   6.524  31.237   2.266
33509W        W98494  37.102   0.925  11.967
33510W        W98495  41.844  18.905   5.040
33511W        W98496  39.104  41.940   0.319
33512W        W98497  26.272  14.652  14.852
33513W        W98498  42.536  39.827  14.977
33514W        W98499   9.397  22.298   1.395
33515W        W98500  31.082  33.141  11.976
33516W        W98501  19.990   9.761   4.275
33517W        W98502  28.082  17.618   0.939
33518W        W98503  27.129  14.080   4.738
33519W        W98504  43.057  15.371   2.167
33520W        W98505  25.006  32.964   1.589
33521W        W98506  11.728  39.436   4.607
33522W        W98507  28.661  18.651  12.663
33523W        W98508   8.538  16.781  14.497
33524W        W98509  13.944  13.232   3.761
33525W        W98510  17.137  34.663   4.501
33526W        W98511  12.732  20.585   3.091
33527W        W98512  10.366  41.040   2.436
33528W        W98513  11.969   7.670   3.468
33529W        W98514  17.669  32.577  11.703
33530W        W98515  40.409  16.569   0.385
33531W        W98516  30.435  37.856  14.356
33532W        W98517  39.813  39.058   4.798
33533W        W98518  16.271  40.523  14.809
33534W        W98519  26.502  19.781   0.328
33535W        W98520  41.486   4.259  12.801
33536W        W98521  28.569  39.060  12.467
33537W        W98522  30.050  38.296  14.911
33538W        W98523  33.083  22.801  11.925
33539W        W98524  14.794  36.594  14.588
33540W        W98525  30.024  21.345  13.647
33541W        W98526  42.833  18.792  14.543
33542W        W98527  25.953  40.655   1.326
33543W        W98528  24.211  27.533  12.460
33544W        W98529  16.874  24.210   2.578
33545W        W98530  13.135  12.188   2.889
33546W        W98531  19.270  30.018   1.330
33547W        W98532  28.834  14.633  11.674
33548W        W98533  27.178  28.269   2.675
33549W        W98534  18.689  16.304   4.903
33550W        W98535   1.640  26.322  11.216
33551W        W98536  17.009  42.501  14.367
33552W        W98537  35.554  27.166   2.693
33553W        W98538   2.852  18.961  14.517
33554W        W98539  43.792  19.822   2.627
33555W        W98540  35.595  14.779  14.488
33556W        W98541  28.892  41.916  11.548
33557W        W98542  24.024   4.436   1.240
33558W        W98543  39.880  27.410  11.477
33559W        W98544  16.066  26.656   3.216
33560W        W98545  28.110  31.880   3.153
33561W        W98546  31.371  39.411   2.649
33562W        W98547   5.821  30.571   4.133
33563W        W98548  10.315  31.026  11.972
33564W        W98549  34.734   1.574  12.029
33565W        W98550  10.390  31.420  14.569
33566W        W98551   4.760  15.636   1.929
33567W        W98552  37.650  37.308   2.478
33568W        W98553   6.441  27.519   1.740
33569W        W98554   8.728  42.399  10.603
33570W        W98555   4.802  27.180  14.812
33571W        W98556  26.792   1.945  11.270
33572W        W98557  15.425   2.730   9.732
33573W        W98558  34.798   1.027   3.277
33574W        W98559  25.718  19.661  10.767
33575W        W98560  23.472  14.164  14.975
33576W        W98561   7.361  39.061   1.691
33577W        W98562  11.018  42.258   0.183
33578W        W98563   4.538   1.515   2.319
33579W        W98564  11.247   0.971  14.910
33580W        W98565  21.704  17.727  14.015
33581W        W98566  27.656  23.903   1.539
33582W        W98567  43.450   6.002  12.926
33583W        W98568  32.552  38.709  11.845
33584W        W98569  33.356  24.084   3.744
33585W        W98570   6.818  21.567   0.033
33586W        W98571  24.965  39.844  12.269
33587W        W98572   3.694  24.141   0.362
33588W        W98573  22.198   0.502  14.391
33589W        W98574  27.140  18.322   0.401
33590W        W98575   9.030  42.593  13.932
33591W        W98576   6.312  27.118  14.341
33592W        W98577  41.254  11.634  13.891
33593W        W98578  20.051   4.198  13.076
33594W        W98579   4.964  28.972   3.788
33595W        W98580  14.310  12.697  13.432
33596W        W98581   7.410   0.762  14.919
33597W        W98582  31.934   9.702   2.403
33598W        W98583  25.889  33.743   5.053
33599W        W98584  24.010  42.823  10.974
33600W        W98585  27.115  41.129   4.905
33601W        W98586  13.873  18.237  10.666
33602W        W98587  17.835   9.773   0.870
33603W        W98588  30.702  23.281  11.201
33604W        W98589   9.771  44.893  13.006
33605W        W98590  12.281   3.684   4.468
33606W        W98591  14.946  30.901  12.701
33607W        W98592  14.595  15.035   2.729
33608W        W98593   9.111   5.413  12.643
33609W        W98594   6.934  42.905  13.550
33610W        W98595   0.039  10.700  12.963
33611W        W98596  23.183  29.096   3.565
33612W        W98597  44.416  26.716   0.713
33613W        W98598  21.081  30.707   1.338
33614W        W98599   8.068  27.035  13.216
33615W        W98600  36.821  25.908   3.414
33616W        W98601  15.821  30.644  13.429
33617W        W98602   3.373  36.247   3.703
33618W        W98603   8.556   3.148  12.681
33619W        W98604  13.281  17.731   1.957
33620W        W98605  34.996  16.649   4.556
33621W        W98606  41.235   5.284   3.212
33622W        W98607   0.741  11.778  12.459
33623W        W98608  32.919  23.800   4.219
33624W        W98609  13.566  25.589   2.219
33625W        W98610  27.185   9.419  11.171
33626W        W98611   7.648  44.922   4.724
33627W        W98612   6.812  27.469   4.105
33628W        W98613  31.514   2.826   1.504
33629W        W98614   5.763  39.456  12.950
33630W        W98615   6.882  31.485  11.622
33631W        W98616  23.520   5.182  12.278
33632W        W98617   7.708  13.614  13.492
33633W        W98618  26.307   1.396  14.349
33634W        W98619  24.266  14.083  12.059
33635W        W98620   6.175   0.823  13.010
33636W        W98621  40.635  24.001   5.475
33637W        W98622  32.126  11.190  12.535
33638W        W98623  17.169  34.157  12.156
33639W        W98624  32.909   3.712  13.921
33640W        W98625   7.611  21.281  11.378
33641W        W98626  40.142  17.793  12.988
33642W        W98627   3.463  26.089   2.144
33643W        W98628  31.088  36.344  11.925
33644W        W98629  17.794  29.460  11.242
33645W        W98630  40.401   8.005  14.916
33646W        W98631   1.778  21.009   2.123
33647W        W98632   6.910  43.092   0.492
33648W        W98633  23.310  21.226  13.534
33649W        W98634  41.021   7.148   4.200
33650W        W98635   8.433  22.874   2.396
33651W        W98636  40.481  16.077   4.453
33652W        W98637  14.304  44.216  13.975
33653W        W98638  23.286  15.351   2.729
33654W        W98639  31.513  11.946   1.403
33655W        W98640  19.985  35.795   2.166
33656W        W98641  34.323  32.864  12.002
33657W        W98642  23.050  34.670  14.406
33658W        W98643  31.365  32.983   4.605
33659W        W98644  22.239  14.382   5.128
33660W        W98645  24.930   3.460  14.844
33661W        W98646  25.198  40.056   3.732
33662W        W98647  28.399  43.798  12.943
33663W        W98648  41.497  27.648  13.123
33664W        W98649  30.112  15.897   2.807
33665W        W98650   7.687  27.651  14.367
33666W        W98651   7.629  37.968  13.488
33667W        W98652  22.391   5.435  10.964
33668W        W98653  43.008  17.747  12.527
33669W        W98654  27.986  34.659  11.540
33670W        W98655  21.921  15.517  12.296
33671W        W98656   0.558  26.573  14.311
33672W        W98657  34.269  26.604   2.768
33673W        W98658  40.670  30.111   1.791
33674W        W98659  30.118  23.380   1.560
33675W        W98660  33.946  38.643   0.302
33676W        W98661   0.847  35.419   3.868
33677W        W98662  28.103   7.646  14.018
33678W        W98663  26.657   6.678   3.928
33679W        W98664  39.263  10.120  14.278
33680W        W98665  28.791   7.883   4.618
33681W        W98666  20.209  28.692   1.069
33682W        W98667  43.048  21.641  11.313
33683W        W98668  44.406  17.571  14.774
33684W        W98669  31.141  22.692  12.416
33685W        W98670  24.570   5.918   3.909
33686W        W98671   2.689   6.702  11.998
33687W        W98672  43.304  10.322   4.113
33688W        W98673  17.623  23.688   3.399
33689W        W98674  44.051  21.795   1.029
33690W        W98675  10.135  24.785  11.153
33691W        W98676  31.096   6.917  12.525
33692W        W98677   3.477   4.726   2.789
33693W        W98678  13.100  43.279  12.155
33694W        W98679   7.933  20.170   0.369
33695W        W98680  18.152   4.036   2.977
33696W        W98681  13.640  38.279  12.630
33697W        W98682  12.170  32.062  10.440
33698W        W98683  23.549  28.392  12.486
33699W        W98684  39.687  29.580   0.411
33700W        W98685  10.557   0.891   3.939
33701W        W98686   6.650  24.171   3.712
33702W        W98687   5.758  29.236   4.735
33703W        W98688   2.274  11.961   0.522
33704W        W98689  25.244   8.714   4.608
33705W        W98690   8.444  42.018  14.261
33706W        W98691  32.006  27.103  12.010
33707W        W98692  38.625   1.473   1.708
33708W        W98693  20.707  41.815   4.036
33709W        W98694  36.021  19.182   1.929
33710W        W98695  44.774   2.763   2.321
33711W        W98696  18.858   4.732  11.599
33712W        W98697  23.836   1.000  13.015
33713W        W98698   4.738   3.405  11.102
33714W        W98699  20.747   4.888  13.992
33715W        W98700   3.933  24.512  13.423
33716W        W98701  36.944  39.389   1.682
33717W        W98702  29.030   8.349  11.198
33718W        W98703  13.120  10.170   1.425
33719W        W98704  37.658  23.629  10.763
33720W        W98705   7.894  36.015  12.052
33721W        W98706   1.947   6.242   0.960
33722W        W98707  33.438  42.773   2.255
33723W        W98708   1.832  15.546   2.375
33724W        W98709   5.940  41.605   3.231
33725W        W98710  41.940  20.345   3.813
33726W        W98711  17.961  24.870   2.285
33727W        W98712  19.091  41.537  11.558
33728W        W98713  26.033  24.689  12.925
33729W        W98714  28.186  29.707  12.368
33730W        W98715  21.685  14.185  12.665
33731W        W98716   2.784  31.536   2.216
33732W        W98717  21.644  17.499   2.765
33733W        W98718  10.357  22.803   4.066
33734W        W98719  10.801  43.882   3.597
33735W        W98720  33.547  23.001  13.137
33736W        W98721  31.879  34.012   1.276
33737W        W98722   0.579  34.513   4.418
33738W        W98723  43.904  11.143   4.547
33739W        W98724  18.272   3.001  11.566
33740W        W98725  27.278  37.654   2.667
33741W        W98726   2.944  15.536  11.897
33742W        W98727  26.099  33.989   2.039
33743W        W98728  42.534  15.154   3.287
33744W        W98729  14.611  26.097   2.795
33745W        W98730  23.042  35.176  14.334
33746W        W98731  22.175  22.848   2.399
33747W        W98732   6.329  22.203   3.746
33748W        W98733   8.852   7.870   0.411
33749W        W98734  26.296  12.862  14.825
33750W        W98735   5.227  32.037   4.596
33751W        W98736  12.034  14.897  10.367
33752W        W98737   9.649  28.666  12.439
33753W        W98738  11.055  32.621   2.333
33754W        W98739  35.986  41.753   0.727
33755W        W98740  32.925   8.743  13.527
33756W        W98741  22.196   7.396   0.339
33757W        W98742  30.215  41.900   4.092
33758W        W98743  40.786  26.432  13.796
33759W        W98744  37.983  30.661  11.203
33760W        W98745  25.643  37.311   0.828
33761W        W98746  18.285  41.968  12.981
33762W        W98747  28.887  21.115   1.485
33763W        W98748  18.616   6.568   4.139
33764W        W98749  37.589  20.703  13.049
33765W        W98750  37.474  42.355  13.413
33766W        W98751   1.050  43.033   1.468
33767W        W98752  37.912  33.671   1.271
33768W        W98753  16.674  15.201  10.736
33769W        W98754  11.632  14.072   4.192
33770W        W98755  19.711  24.505  11.359
33771W        W98756  28.056  11.773   2.555
33772W        W98757  29.986   8.507  14.235
33773W        W98758  31.461  38.549   0.854
33774W        W98759  15.640  16.036   2.801
33775W        W98760  33.135  44.912   3.467
33776W        W98761  18.691  41.840   1.255
33777W        W98762  16.772  26.434  14.945
33778W        W98763  36.079  19.528   1.202
33779W        W98764  14.288  33.864   1.837
33780W        W98765   3.791  17.245  14.534
33781W        W98766  38.053  25.899  11.149
33782W        W98767  24.980  41.357   4.560
33783W        W98768  21.974  18.250   3.763
33784W        W98769   0.901  25.169   2.839
33785W        W98770  19.251  43.774  11.687
33786W        W98771   0.796  38.985   3.726
33787W        W98772  28.085  34.961   1.343
33788W        W98773  22.237   3.420   4.887
33789W        W98774  24.220  14.868   1.820
33790W        W98775  26.983  25.572   1.296
33791W        W98776  15.679  31.968   4.296
33792W        W98777  41.019  11.384  14.815
33793W        W98778   9.100  31.371   1.847
33794W        W98779  28.236  11.127  11.653
33795W        W98780  41.091  17.819  12.067
33796W        W98781  39.660  17.217   2.998
33797W        W98782  11.553   6.992   2.177
33798W        W98783  29.511  18.179   1.208
33799W        W98784   2.737   3.741  10.638
33800W        W98785  12.780  19.799  14.367
33801W        W98786  20.758  24.091   2.405
33802W        W98787  13.725  17.402  13.460
33803W        W98788  25.720  12.993   2.745
33804W        W98789  26.472  25.072   1.761
33805W        W98790   6.200  14.794   3.246
33806W        W98791  37.047   1.284   2.328
33807W        W98792   3.320  35.493  10.742
33808W        W98793  32.493  37.907  10.620
33809W        W98794   0.085  27.973   0.391
33810W        W98795   4.761  42.153   2.163
33811W        W98796  36.769   6.221   2.156
33812W        W98797   7.332  36.308  13.791
33813W        W98798  42.094  32.979  11.183
33814W        W98799  10.279  44.658  12.201
33815W        W98800  32.310  41.999   4.544
33816W        W98801  14.739  31.747  14.992
33817W        W98802  15.432  25.496   5.432
33818W        W98803  14.246  17.451  14.811
33819W        W98804  19.329  41.863  12.932
33820W        W98805  28.540   7.875  13.891
33821W        W98806   9.500  13.321  14.497
33822W        W98807  39.013  37.891  12.518
33823W        W98808  11.162  43.015   1.879
33824W        W98809  24.994  32.471   1.818
33825W        W98810  32.946   1.747  10.650
33826W        W98811   7.002  44.222   2.372
33827W        W98812  40.707  36.925  13.574
33828W        W98813   4.380  32.284  10.510
33829W        W98814  18.788  38.825   4.261
33830W        W98815   4.386   6.351  10.939
33831W        W98816   2.336  42.162  11.147
33832W        W98817  10.402  32.951  10.646
33833W        W98818   9.762  11.615   0.797
33834W        W98819  43.042  23.661   4.708
33835W        W98820   4.830  14.663   3.402
33836W        W98821   8.166  14.341   0.977
33837W        W98822  27.360  35.003  13.075
33838W        W98823  16.749   5.469   2.290
33839W        W98824  16.888   3.826  11.641
33840W        W98825  34.642   2.804   0.977
33841W        W98826   0.814   9.558   4.108
33842W        W98827  37.567  38.102  13.603
33843W        W98828  39.569  41.081  13.034
33844W        W98829  40.228  12.241   3.095
33845W        W98830  41.462  21.027  11.889
33846W        W98831  15.084  41.090   2.766
33847W        W98832  11.830  21.227  13.372
33848W        W98833   6.271   7.344   4.061
33849W        W98834  20.496  22.824  11.642
33850W        W98835   7.170  19.096  10.745
33851W        W98836   9.881  40.867  13.935
33852W        W98837  36.837  11.125   4.059
33853W        W98838  38.949  39.841   1.643
33854W        W98839  23.595  17.640   2.105
33855W        W98840   5.768   7.354  12.693
33856W        W98841  29.992  20.971   2.326
33857W        W98842  27.389   8.482   2.721
33858W        W98843   2.443  23.475  11.659
33859W        W98844  32.922  37.773   2.668
33860W        W98845  37.871  32.692   2.657
33861W        W98846  28.534  15.742   2.009
33862W        W98847  24.692  19.735  12.805
33863W        W98848  40.207  27.082   2.666
33864W        W98849  29.844   7.312   4.180
33865W        W98850   2.270  35.291  14.362
33866W        W98851  35.064  22.468   3.655
33867W        W98852  18.438  35.370  11.597
33868W        W98853  35.481  15.306  10.658
33869W        W98854  28.351  20.125   4.546
33870W        W98855   0.394  32.087  13.824
33871W        W98856  36.245  19.449  12.776
33872W        W98857  33.486   8.162  14.743
33873W        W98858  33.495  33.060   2.424
33874W        W98859  29.377   0.196   0.739
33875W        W98860  11.150  11.583  13.443
33876W        W98861  26.058  36.723   1.214
33877W        W98862  26.196   7.961   2.326
33878W        W98863  30.698  36.725   3.825
33879W        W98864  44.469  19.707  10.819
33880W        W98865  38.920  16.228  13.760
33881W        W98866  14.909  15.950   3.710
33882W        W98867  26.783   5.452   4.615
33883W        W98868   4.543  37.335  14.434
33884W        W98869  14.552   5.336  13.364
33885W        W98870  32.578   8.345   2.343
33886W        W98871  22.562  42.298  11.140
33887W        W98872   1.275  28.772   3.325
33888W        W98873  12.246   2.727  14.379
33889W        W98874  25.095  30.510   3.146
33890W        W98875  17.790  43.063  13.334
33891W        W98876  22.246  39.427  11.281
33892W        W98877  14.277  24.032   2.320
33893W        W98878   6.717  41.717   4.594
33894W        W98879  31.280   6.647   4.837
33895W        W98880  21.022  12.962  11.451
33896W        W98881  37.200  41.159  13.012
33897W        W98882  36.044  35.079  12.766
33898W        W98883  10.085  18.689  14.331
33899W        W98884  27.885  19.256   1.306
33900W        W98885  24.232  40.039   1.867
33901W        W98886   2.958  34.895  14.253
33902W        W98887   7.618  25.714  14.729
33903W        W98888  11.648  37.059   2.270
33904W        W98889   5.134  42.917   3.642
33905W        W98890   5.776  37.778   0.760
33906W        W98891  23.234  34.201   4.584
33907W        W98892  33.378  34.130  14.230
33908W        W98893  21.852  42.351  14.950
33909W        W98894   1.897  10.282  13.842
33910W        W98895  43.029  26.912   4.568
33911W        W98896   5.809  27.196   2.200
33912W        W98897  34.542  19.354  12.585
33913W        W98898  42.499   3.256   4.435
33914W        W98899   8.670  22.171   0.045
33915W        W98900  16.184  12.286   4.517
33916W        W98901  14.139  35.835  12.085
33917W        W98902  44.901  43.112  13.876
33918W        W98903   2.933  23.650   1.879
33919W        W98904  29.937  30.852   3.774
33920W        W98905   0.682  11.842   2.417
33921W        W98906   9.281   2.064   2.736
33922W        W98907  39.528   3.647   0.462
33923W        W98908   5.122   8.854   9.864
33924W        W98909  17.674  12.737  13.446
33925W        W98910  12.223  14.037  14.239
33926W        W98911  12.264  21.974  11.420
33927W        W98912  14.177   9.943  11.455
33928W        W98913  24.726  36.068  10.549
33929W        W98914  40.621  16.766  14.879
33930W        W98915  31.122  16.809   0.735
33931W        W98916  35.618  17.700  11.602
33932W        W98917  44.952  14.377   3.160
33933W        W98918  21.288  40.295   0.982
33934W        W98919   0.358  13.314   3.352
33935W        W98920  41.673  43.202   1.472
33936W        W98921  16.146  30.620   3.123
33937W        W98922  31.639  39.741  14.956
33938W        W98923   3.960   7.420  11.695
33939W        W98924  14.326  10.214  13.587
33940W        W98925  39.572  23.597  13.379
33941W        W98926  23.702   3.841   0.897
33942W        W98927  41.498  31.880   3.087
33943W        W98928  32.617  15.271   3.217
33944W        W98929  17.366  39.414   0.352
33945W        W98930  27.429  28.489  11.778
33946W        W98931  39.421   8.041  11.554
33947W        W98932  11.194   9.677  12.043
33948W        W98933  13.910   0.489   3.701
33949W        W98934   5.458  23.666  13.488
33950W        W98935  43.876  27.478   0.208
33951W        W98936  20.012  35.821  12.876
33952W        W98937  36.642  28.161  11.168
33953W        W98938  43.528  40.034  14.059
33954W        W98939  20.060  31.666  12.514
33955W        W98940   3.439  27.430  10.131
33956W        W98941  22.394  22.544   2.846
33957W        W98942  12.368  13.323   2.308
33958W        W98943  21.867  22.058  11.121
33959W        W98944  32.059  39.080   3.774
33960W        W98945  35.153  34.008   0.263
33961W        W98946  29.104  26.181  12.616
33962W        W98947  19.488  21.598   2.517
33963W        W98948  12.698  40.311  13.796
33964W        W98949  36.314   7.380   1.914
33965W        W98950  14.314  40.240  14.950
33966W        W98951  38.611  13.389  13.550
33967W        W98952   5.797  43.455  12.060
33968W        W98953  44.326  40.954  12.542
33969W        W98954  25.085  24.439   2.365
33970W        W98955  30.096   5.449   0.814
33971W        W98956  39.489  14.586   2.358
33972W        W98957  44.756  30.499  12.604
33973W        W98958  34.628   9.651   5.009
33974W        W98959   7.140  30.791   2.075
33975W        W98960  10.372  35.075  11.216
33976W        W98961  34.806  25.407   1.864
33977W        W98962  36.572  43.726   0.043
33978W        W98963  20.140  44.298  10.196
33979W        W98964  23.261  19.725   1.298
33980W        W98965  26.398  19.270   3.242
33981W        W98966  38.379  33.003   4.362
33982W        W98967   2.315   5.942  12.586
33983W        W98968   4.038  38.069  13.869
33984W        W98969   5.897   3.218   4.083
33985W        W98970   2.124   3.541  12.343
33986W        W98971  30.539   4.930   3.562
33987W        W98972  19.518  11.347   4.501
33988W        W98973  33.444   2.919  13.888
33989W        W98974   1.774  12.744  12.189
33990W        W98975  38.310  43.719  12.788
33991W        W98976   1.784  10.238   0.069
33992W        W98977  43.384   8.392   0.680
33993W        W98978  29.250  15.732  14.301
33994W        W98979   5.926  27.949   1.880
33995W        W98980  34.165  40.002  14.769
33996W        W98981  26.025  35.874   3.938
33997W        W98982  23.160  21.315   2.215
33998W        W98983   7.811  39.488  13.506
33999W        W98984  24.951   8.649  14.091
34000W        W98985   1.479  41.191   2.743
34001W        W98986  18.074  32.555   3.659
34002W        W98987   5.276  38.785  14.377
34003W        W98988  22.251  30.462  13.309
34004W        W98989  24.928  23.272   0.885
34005W        W98990  26.106  38.391  14.272
34006W        W98991  40.480  43.794   2.801
34007W        W98992  43.821   6.112   0.125
34008W        W98993   6.879  29.464   4.660
34009W        W98994  42.396  37.062  12.130
34010W        W98995  17.541  15.749   0.909
34011W        W98996  32.513   0.771   0.344
34012W        W98997  15.042  35.506  13.918
34013W        W98998  33.626   6.495   5.342
34014W        W98999  43.379   4.691   4.626
34015W        W99000  41.860  42.521  11.109
34016W        W99001  12.331  40.567  12.197
34017W        W99002  27.076  26.068  13.232
34018W        W99003   1.907  36.518  14.126
34019W        W99004  18.750  35.376   0.175
34020W        W99005  24.102  38.428   0.354
34021W        W99006   0.400  28.148   3.215
34022W        W99007   0.390  27.558  13.566
34023W        W99008  40.393  28.205   3.677
34024W        W99009  22.770  15.748   1.440
34025W        W99010  11.612   0.268  13.777
34026W        W99011  17.173  27.721  13.854
34027W        W99012  18.066   7.487   3.532
34028W        W99013  37.121  43.948   0.390
34029W        W99014  18.671   9.469   0.842
34030W        W99015  37.831  16.553   0.909
34031W        W99016  18.021  17.779   3.827
34032W        W99017  28.952   5.422   1.300
34033W        W99018   1.879  29.026  10.438
34034W        W99019  26.445  44.195   3.117
34035W        W99020   3.337   3.202   4.821
34036W        W99021  34.366  33.087   3.745
34037W        W99022  22.346   9.731  12.670
34038W        W99023   0.423   3.729   1.703
34039W        W99024  38.496   1.773   0.985
34040W        W99025  25.000   6.840   1.289
34041W        W99026   7.565  32.529   0.889
34042W        W99027  14.108   3.268  14.492
34043W        W99028  10.669  38.586  14.831
34044W        W99029   6.883   6.333   1.852
34045W        W99030  23.172  21.203   0.753
34046W        W99031  31.097  27.202  14.739
34047W        W99032  19.709  19.094  11.727
34048W        W99033   9.081  26.849  12.465
34049W        W99034   7.657  28.892   3.607
34050W        W99035  35.359  15.163  13.333
34051W        W99036  20.138   6.854  11.526
34052W        W99037   9.862   5.770  13.879
34053W        W99038   4.900   7.478  14.112
34054W        W99039  28.047  20.788   3.936
34055W        W99040  34.097  43.244   1.751
34056W        W99041  19.814  32.109   4.335
34057W        W99042  19.734  24.194   1.540
34058W        W99043  17.101   8.474  11.077
34059W        W99044  41.087  12.110   3.410
34060W        W99045   2.111  14.321   1.210
34061W        W99046   7.470  13.566  11.203
34062W        W99047  19.643  29.176   0.370
34063W        W99048  13.593  18.136  11.127
34064W        W99049  42.756  15.886   1.865
34065W        W99050  27.237  16.632  11.620
34066W        W99051   2.916  17.362  13.343
34067W        W99052  21.198  34.578   0.529
34068W        W99053  28.568   9.787   4.688
34069W        W99054  19.982  27.024  10.550
34070W        W99055  39.328   7.193  13.323
34071W        W99056   9.764  35.748   4.088
34072W        W99057  27.122   5.306  13.536
34073W        W99058  30.096   0.970   3.294
34074W        W99059  11.774  24.731   1.095
34075W        W99060   6.184  15.713   3.213
34076W        W99061  15.342  39.466   0.327
34077W        W99062  33.870   0.339   0.774
34078W        W99063  41.985   3.197  12.873
34079W        W99064  31.001   2.109   3.257
34080W        W99065  39.898   5.177  10.641
34081W        W99066  27.237   2.987   3.966
34082W        W99067  30.634  25.210  13.462
34083W        W99068  17.670   8.266   0.566
34084W        W99069   3.273  18.911   4.516
34085W        W99070  21.775  26.958   0.040
34086W        W99071  32.915  30.567   1.905
34087W        W99072  23.173   1.063  11.178
34088W        W99073  35.309  44.258   3.167
34089W        W99074  24.706  44.447  13.452
34090W        W99075  30.172  44.977   2.515
34091W        W99076  42.069  39.319   0.821
34092W        W99077  32.605  32.448  12.403
34093W        W99078  11.321   2.807   3.968
34094W        W99079  28.685  44.840  13.825
34095W        W99080  32.639  24.217   3.405
34096W        W99081   0.300  21.064   3.290
34097W        W99082  17.847  33.088  11.647
34098W        W99083  40.000  43.336   1.669
34099W        W99084   5.222   0.028  11.587
34100W        W99085  44.103   4.906   2.836
34101W        W99086  16.486  36.584   3.232
34102W        W99087  40.027   9.417  11.583
34103W        W99088  41.431  35.370   4.913
34104W        W99089  31.734   3.259   3.741
34105W        W99090  36.464  43.354   0.376
34106W        W99091  38.317  19.031  11.136
34107W        W99092  26.430  26.107   1.841
34108W        W99093  39.591  10.654   3.494
34109W        W99094  26.188  12.163   1.422
34110W        W99095  11.116  25.976  14.260
34111W        W99096   9.367  22.166  11.930
34112W        W99097  37.498  33.609  11.536
34113W        W99098  18.355  31.420   4.955
34114W        W99099  30.048  36.175   3.405
34115W        W99100  10.924  26.133   2.399
34116W        W99101  42.992   2.287   0.888
34117W        W99102  21.230  38.515   0.661
34118W        W99103   4.842  40.991   3.367
34119W        W99104  16.048  39.391   0.743
34120W        W99105   1.253   2.801   4.389
34121W        W99106   1.413  39.993   0.922
34122W        W99107   6.716  41.237   3.352
34123W        W99108  41.944  26.992  12.342
34124W        W99109  38.923  40.328  11.157
34125W        W99110  39.322  34.078  11.142
34126W        W99111   8.462   9.270   0.322
34127W        W99112  41.991  42.917   0.042
34128W        W99113   8.361  34.752  14.439
34129W        W99114  16.768  18.235  12.545
34130W        W99115  32.212  14.627   1.911
34131W        W99116  25.707  28.128   3.203
34132W        W99117  32.420   8.738  13.633
34133W        W99118   3.376   1.623  11.869
34134W        W99119  20.778  10.778   0.689
34135W        W99120   0.978  12.792   2.795
34136W        W99121  34.781  13.193  12.996
34137W        W99122  30.981  34.578   0.602
34138W        W99123  20.214  15.171  12.264
34139W        W99124  22.930  43.356  10.660
34140W        W99125   0.095   4.588   1.144
34141W        W99126  11.089  31.321   0.317
34142W        W99127  20.728  35.858  12.448
34143W        W99128   9.854   9.623  13.665
34144W        W99129  34.157   9.101   0.902
34145W        W99130   1.825  38.205   1.475
34146W        W99131  30.456  26.888   2.311
34147W        W99132  22.666   5.483   4.180
34148W        W99133  20.750  16.045  12.619
34149W        W99134  37.464  11.111   2.262
34150W        W99135  15.023  14.134  11.931
34151W        W99136   7.035  23.750   3.280
34152W        W99137  23.308  19.028  14.814
34153W        W99138  22.439   0.312   3.351
34154W        W99139  28.077  12.966  13.574
34155W        W99140  35.311  10.759   3.314
34156W        W99141  10.363  26.935   2.340
34157W        W99142  20.315  19.538   9.692
34158W        W99143  33.496  29.204  12.819
34159W        W99144  24.604   6.414   0.641
34160W        W99145  21.304  30.373   4.692
34161W        W99146  14.065  35.578  13.937
34162W        W99147  21.509  42.824  12.513
34163W        W99148  27.154  33.535   2.259
34164W        W99149  37.058  33.853  11.343
34165W        W99150  36.687  17.758   0.510
34166W        W99151   4.451  17.719  13.840
34167W        W99152  20.866  27.602  14.505
34168W        W99153  39.492  20.974  12.064
34169W        W99154  30.661  34.989  14.827
34170W        W99155  41.998   4.784   1.338
34171W        W99156  32.164  36.007   4.473
34172W        W99157  25.198  22.086   3.337
34173W        W99158  35.167  34.129  12.951
34174W        W99159  10.967  35.608   0.326
34175W        W99160  21.032  24.408  12.219
34176W        W99161   1.002  19.192  12.420
34177W        W99162  24.916  23.794   4.210
34178W        W99163   5.532  38.946  10.608
34179W        W99164   6.674  21.593  13.614
34180W        W99165  16.911   4.980  12.521
34181W        W99166  29.707  19.532   3.180
34182W        W99167   3.311   5.554   4.037
34183W        W99168   8.369   2.699   0.431
34184W        W99169  12.733  43.872  10.647
34185W        W99170  37.070   2.017   1.647
34186W        W99171  18.901   7.720  11.815
34187W        W99172  39.417  43.309   3.260
34188W        W99173  28.747   0.865   2.576
34189W        W99174  16.910  11.083  10.734
34190W        W99175  44.981  13.087   1.197
34191W        W99176  35.002  21.071   3.116
34192W        W99177  12.219  17.668  12.793
34193W        W99178  31.877  23.544   4.247
34194W        W99179   4.108  34.950   4.430
34195W        W99180  27.573  35.407   4.296
34196W        W99181  25.894  10.428  11.092
34197W        W99182  10.333  15.593  14.259
34198W        W99183  39.108  42.428  12.582
34199W        W99184  40.837  44.981   3.604
34200W        W99185  29.581  18.267  12.985
34201W        W99186  17.088   7.186   3.100
34202W        W99187  13.201   4.850  13.377
34203W        W99188  35.984  34.394   3.360
34204W        W99189  32.539  22.035  12.680
34205W        W99190   3.179  17.115   3.370
34206W        W99191  21.711   8.307   0.429
34207W        W99192  11.334  26.631   1.138
34208W        W99193  23.853  39.084   0.049
34209W        W99194   8.347   8.975  10.242
34210W        W99195  24.187  13.722  12.756
34211W        W99196  22.074  39.105   1.171
34212W        W99197  35.223  26.544  12.417
34213W        W99198   5.460  39.460   2.474
34214W        W99199  40.363  19.291  13.510
34215W        W99200  37.440  32.440   0.949
34216W        W99201  28.690   5.471   3.402
34217W        W99202  23.585   8.937  13.598
34218W        W99203  11.200  10.717   4.071
34219W        W99204   1.439  30.742  13.991
34220W        W99205  23.968  39.804  11.624
34221W        W99206  38.884   6.504   5.064
34222W        W99207   8.916   4.804   0.790
34223W        W99208  30.701  29.549  10.968
34224W        W99209  43.857  32.403  14.524
34225W        W99210  30.761  37.646   1.223
34226W        W99211  24.328  28.967   2.823
34227W        W99212   7.376  23.008  10.961
34228W        W99213  25.062  42.614   2.837
34229W        W99214  33.615  43.655  13.104
34230W        W99215   7.482   0.165  14.061
34231W        W99216  42.375   8.375   1.739
34232W        W99217   0.763  33.496  11.488
34233W        W99218  44.916  27.940   5.004
34234W        W99219  25.431  14.601  14.185
34235W        W99220   2.938  40.248  12.358
34236W        W99221  38.423  38.150  14.176
34237W        W99222  34.765   7.663  13.744
34238W        W99223  37.538  33.161   2.375
34239W        W99224   4.448   9.259  12.579
34240W        W99225  29.571  21.809   0.708
34241W        W99226  15.327  40.602  13.993
34242W        W99227   9.238  29.747  11.643
34243W        W99228   5.618  18.211   3.319
34244W        W99229   6.955  12.591  14.073
34245W        W99230  31.040  22.148  14.837
34246W        W99231   9.708   6.085   2.780
34247W        W99232  19.150  29.487   1.312
34248W        W99233  18.107  30.555  14.799
34249W        W99234  24.624  31.869   1.814
34250W        W99235  39.668   7.549  10.749
34251W        W99236  44.759  20.172   2.697
34252W        W99237  33.500  37.395  14.618
34253W        W99238  38.516  39.981  14.134
34254W        W99239   3.352  23.026  12.711
34255W        W99240  41.657  43.016   4.607
34256W        W99241  10.585   7.127  14.363
34257W        W99242  29.523   9.289  14.723
34258W        W99243  44.822  31.074  14.796
34259W        W99244  39.699  31.988   4.473
34260W        W99245  15.821  11.116  12.441
34261W        W99246  26.679   0.065   5.660
34262W        W99247  42.519   0.038   0.007
34263W        W99248  31.643  33.526   1.200
34264W        W99249  23.977  30.346   2.650
34265W        W99250  11.010   6.936   3.700
34266W        W99251   7.910  43.904   4.756
34267W        W99252   0.992   4.472  13.852
34268W        W99253  21.796  14.652  12.850
34269W        W99254  29.689  44.099   4.093
34270W        W99255   4.944  38.376  14.335
34271W        W99256  39.017  32.916  12.402
34272W        W99257  31.955  31.251   4.573
34273W        W99258  14.611  38.440  12.200
34274W        W99259  16.853  30.742   2.370
34275W        W99260  28.923  14.130  11.570
34276W        W99261  42.675  28.495   3.807
34277W        W99262  11.321   0.135   3.200
34278W        W99263  11.248  38.393  11.525
34279W        W99264  40.419  32.750  10.253
34280W        W99265   8.157  37.465   0.759
34281W        W99266  20.741  19.736   2.377
34282W        W99267   2.805   2.388  11.734
34283W        W99268   2.343   9.126  14.926
34284W        W99269  39.360  26.826  11.910
34285W        W99270   6.917  42.270  10.393
34286W        W99271  13.705  26.563  10.661
34287W        W99272  27.794  18.059   1.760
34288W        W99273   7.421  19.307   0.879
34289W        W99274   6.148  23.678  10.277
34290W        W99275  14.676  42.063  12.955
34291W        W99276  20.603   8.748   4.550
34292W        W99277  44.867  42.593  13.785
34293W        W99278  17.986  43.526  11.506
34294W        W99279  14.650  15.307  11.115
34295W        W99280  20.041  14.011   0.384
34296W        W99281  37.233  33.594  10.705
34297W        W99282  11.057   6.482  13.128
34298W        W99283  33.477  33.788   4.046
34299W        W99284   1.724  40.919   4.260
34300W        W99285  28.530  31.722  12.030
34301W        W99286  13.068  37.022  13.920
34302W        W99287  23.189  27.566   3.504
34303W        W99288   3.031  41.367   9.907
34304W        W99289   4.044   2.927   2.694
34305W        W99290  14.133  37.980  11.109
34306W        W99291  12.883  13.457  14.141
34307W        W99292  37.844   9.463   2.714
34308W        W99293   8.600  37.181  12.074
34309W        W99294  18.798   0.042   2.255
34310W        W99295  22.700  34.055   0.050
34311W        W99296   6.224  38.849  13.056
34312W        W99297   0.393  34.614   2.968
34313W        W99298  24.738  19.358  14.723
34314W        W99299  39.943  29.369   2.992
34315W        W99300  35.064  19.756  13.401
34316W        W99301   6.833  33.673  13.402
34317W        W99302  28.427   9.675  11.914
34318W        W99303   6.823  40.664   4.643
34319W        W99304  31.220  32.723   4.036
34320W        W99305   0.836  17.061   3.828
34321W        W99306  30.596  29.431  13.994
34322W        W99307  32.425  36.962  11.470
34323W        W99308  15.766  16.017   4.643
34324W        W99309  22.729  34.593  10.494
34325W        W99310  36.487   6.942   4.451
34326W        W99311  17.625  13.407   3.642
34327W        W99312  15.402  23.189   2.297
34328W        W99313  18.245  37.999  13.899
34329W        W99314  23.195   7.349   1.177
34330W        W99315  14.762   1.705  10.320
34331W        W99316   1.871  21.201   3.545
34332W        W99317  40.862  35.044   0.883
34333W        W99318   2.742  43.791  10.555
34334W        W99319  11.339  12.700  10.681
34335W        W99320  40.276  25.295   2.754
34336W        W99321  37.989  28.545  14.482
34337W        W99322  27.977  16.331  14.404
34338W        W99323  42.767  13.753   3.769
34339W        W99324  10.976  37.026   2.753
34340W        W99325  19.381   8.727  10.678
34341W        W99326   3.954   4.860  13.702
34342W        W99327  12.856  41.256  12.412
34343W        W99328  44.443  16.698  11.792
34344W        W99329  40.932  33.857  13.253
34345W        W99330  13.500  44.247   5.280
34346W        W99331  26.584  14.951  12.090
34347W        W99332  34.092  30.078   4.093
34348W        W99333  12.756  43.853   3.876
34349W        W99334   3.381  14.203  13.382
34350W        W99335  15.807   0.296   1.448
34351W        W99336  22.513  38.780   1.204
34352W        W99337  30.084  23.046   2.055
34353W        W99338  43.775  20.301   1.710
34354W        W99339  40.475   5.475  12.100
34355W        W99340   4.849  11.761  13.612
34356W        W99341  15.474   1.372   2.712
34357W        W99342  21.274  17.085  14.126
34358W        W99343  38.970  11.836  12.046
34359W        W99344  44.313  20.089  11.749
34360W        W99345  23.485   9.708  11.648
34361W        W99346   9.766   5.436   4.424
34362W        W99347   0.338  27.175  10.097
34363W        W99348  43.126   1.912   0.540
34364W        W99349  39.346   5.205  13.941
34365W        W99350  40.809  42.896  14.500
34366W        W99351  34.191  31.409   4.887
34367W        W99352  39.406  21.252   0.627
34368W        W99353  15.302  39.309   2.204
34369W        W99354  10.394  28.587  13.948
34370W        W99355   8.670  33.094  12.156
34371W        W99356  21.162  10.197  10.199
34372W        W99357  26.461  36.004   4.158
34373W        W99358  14.737  43.544  14.628
34374W        W99359   8.787   2.292  12.478
34375W        W99360  40.971   3.048   3.605
34376W        W99361  12.657   4.696   3.654
34377W        W99362   5.990  23.602   1.002
34378W        W99363  37.604  24.233   3.925
34379W        W99364   1.618  28.922  14.741
34380W        W99365  20.176   9.888   3.301
34381W        W99366  44.414  14.723  10.752
34382W        W99367  36.132  26.518  14.606
34383W        W99368  27.577   0.260   0.754
34384W        W99369  22.973   5.270   2.514
34385W        W99370  15.061  18.662   0.026
34386W        W99371  16.240  37.525   1.446
34387W        W99372  38.888  24.083   2.222
34388W        W99373   6.005   3.477   1.446
34389W        W99374  31.097  37.068  12.964
34390W        W99375   6.146  28.479  11.091
34391W        W99376   5.249  42.286   0.572
34392W        W99377   4.620  41.450   1.961
34393W        W99378   4.891  31.700   2.906
34394W        W99379  23.592  35.080  10.789
34395W        W99380  43.060  26.212  12.690
34396W        W99381  18.193  27.996   2.511
34397W        W99382  13.276  21.275  12.573
34398W        W99383  35.955  13.101   3.232
34399W        W99384  41.499  36.952   1.828
34400W        W99385  36.056  28.513  14.804
34401W        W99386  10.805  28.161  14.520
34402W        W99387   1.514  31.781   3.675
34403W        W99388   9.726  37.309  14.906
34404W        W99389   5.404  38.528   3.552
34405W        W99390  33.637   8.719  12.642
34406W        W99391  44.458   3.749  10.983
34407W        W99392  23.501  43.743  13.938
34408W        W99393  11.875  41.993   0.501
34409W        W99394  22.082   0.660  11.258
34410W        W99395  28.242  11.819  12.611
34411W        W99396  30.021  16.324  13.485
34412W        W99397   2.504  28.950  13.089
34413W        W99398  38.437   3.725  13.914
34414W        W99399  29.469  34.894   1.806
34415W        W99400  14.839  15.185   4.693
34416W        W99401  44.026  34.560   2.378
34417W        W99402  17.647  34.150  12.332
34418W        W99403  20.506  15.226   4.096
34419W        W99404  21.959  36.352   0.709
34420W        W99405   0.835  23.772  13.866
34421W        W99406   9.288  24.559   3.704
34422W        W99407  33.010  33.643  14.864
34423W        W99408  33.959  41.557  10.720
34424W        W99409  29.857   3.741   4.300
34425W        W99410  29.542  25.869  12.028
34426W        W99411  12.299  14.250   4.636
34427W        W99412  44.516  42.784  11.409
34428W        W99413   8.302  20.972  10.980
34429W        W99414  25.008  27.997   3.701
34430W        W99415  19.635   4.771   0.261
34431W        W99416  44.971  12.555   0.390
34432W        W99417  30.863  41.573   4.444
34433W        W99418  21.717  39.437   1.401
34434W        W99419   9.430  33.345  13.864
34435W        W99420  29.965  11.646  14.817
34436W        W99421  22.120   1.831  10.498
34437W        W99422  25.736  27.682   1.179
34438W        W99423  34.883   0.855  14.892
34439W        W99424   5.379  11.986  10.525
34440W        W99425  40.294  15.104  13.117
34441W        W99426  10.271  44.196  13.345
34442W        W99427  12.273  19.733   3.249
34443W        W99428  40.231  20.839   4.048
34444W        W99429  16.334   0.435  11.160
34445W        W99430  32.067  24.161  12.891
34446W        W99431  42.662  36.114  12.128
34447W        W99432  25.474  22.703  13.823
34448W        W99433   1.819  16.106   4.574
34449W        W99434  38.976  15.737  14.522
34450W        W99435  39.521  27.411   0.379
34451W        W99436  35.514  31.946   1.301
34452W        W99437  29.090  18.147  12.902
34453W        W99438   6.764   9.159   2.442
34454W        W99439  43.944  17.150   0.743
34455W        W99440  15.682   2.639   0.835
34456W        W99441   2.868  29.957   1.772
34457W        W99442   1.031  41.903  13.385
34458W        W99443  33.904  22.040   2.598
34459W        W99444  23.653  11.529   2.092
34460W        W99445  11.191   9.340   4.116
34461W        W99446   1.865   0.801   3.168
34462W        W99447  30.063  31.830  12.064
34463W        W99448  13.475  20.526   2.509
34464W        W99449  39.085  28.639  11.524
34465W        W99450   7.356  38.069  12.020
34466W        W99451   6.452  10.084  14.455
34467W        W99452  40.314  36.691   4.988
34468W        W99453  30.618   1.018   0.895
34469W        W99454   3.450  35.687  13.859
34470W        W99455  32.989  19.064   1.760
34471W        W99456  15.087  19.080  10.726
34472W        W99457  17.594  44.840  13.410
34473W        W99458   7.695   4.645  14.092
34474W        W99459  34.968   3.486  11.035
34475W        W99460  10.614  42.169   1.706
34476W        W99461  23.472  10.541   2.372
34477W        W99462   9.227  31.709  11.750
34478W        W99463   3.463  31.410  14.833
34479W        W99464   4.709  32.889   3.250
34480W        W99465  38.025  26.173  14.912
34481W        W99466  24.105  33.494   0.592
34482W        W99467   1.639   8.282   1.965
34483W        W99468  26.949  23.068   0.311
34484W        W99469   8.697  19.756  12.555
34485W        W99470  26.315  44.041   9.865
34486W        W99471  36.105   9.668   3.234
34487W        W99472  21.960  33.282   3.314
34488W        W99473  36.936  38.589  11.081
34489W        W99474  25.939   5.935  11.338
34490W        W99475   6.812  36.376  13.154
34491W        W99476   5.002  10.471   0.803
34492W        W99477  24.697  43.505  13.352
34493W        W99478  30.559  29.031   4.605
34494W        W99479  16.557  21.543  10.802
34495W        W99480  44.403   3.687  11.512
34496W        W99481   4.842  15.364  13.299
34497W        W99482   0.880   3.540  12.225
34498W        W99483  39.562   7.664   3.507
34499W        W99484  18.205   9.764   4.896
34500W        W99485  38.085  12.671  12.751
34501W        W99486   3.720  22.304  12.090
34502W        W99487  20.968  34.544   2.871
34503W        W99488  30.465  23.085   3.337
34504W        W99489   2.501   8.528  11.900
34505W        W99490   2.836  41.447   2.861
34506W        W99491  35.959  21.738  14.764
34507W        W99492  41.241  31.205   0.017
34508W        W99493  36.753  23.656  14.425
34509W        W99494  22.617   6.234   4.721
34510W        W99495  38.332  16.702   0.868
34511W        W99496  16.120  10.795  11.974
34512W        W99497  32.168  41.482  11.250
34513W        W99498  24.770  20.881  11.380
34514W        W99499   3.715  37.377  12.605
34515W        W99500  41.049  41.385   0.755
34516W        W99501  33.192  22.970   2.371
34517W        W99502  38.868  17.101   3.673
34518W        W99503  41.859  44.827  14.426
34519W        W99504  40.262   6.400  12.898
34520W        W99505  39.356  11.281   2.868
34521W        W99506  12.264  11.742   2.310
34522W        W99507  26.222  42.941  14.263
34523W        W99508  17.106   9.090  14.356
34524W        W99509  29.385  26.765   3.721
34525W        W99510  21.037   3.607   9.852
34526W        W99511  19.224  15.626   1.724
34527W        W99512  17.376   1.421   1.501
34528W        W99513  16.604  34.438   1.173
34529W        W99514  22.291  20.184  10.080
34530W        W99515  20.790  40.408  11.020
34531W        W99516  20.525  18.980  12.974
34532W        W99517  31.135  18.526   0.918
34533W        W99518  20.043  42.219   1.267
34534W        W99519  11.114  38.463  14.029
34535W        W99520  20.523  23.317  11.672
34536W        W99521  30.902   8.475  13.616
34537W        W99522  20.826  25.251  12.475
34538W        W99523  44.548  14.306   3.620
34539W        W99524  30.080  13.146  13.871
34540W        W99525   0.767  12.690  14.944
34541W        W99526  33.457   8.142   3.161
34542W        W99527  12.463  17.217   3.878
34543W        W99528  16.739  28.236   0.319
34544W        W99529   6.182  10.733   1.359
34545W        W99530   2.989   4.960  12.489
34546W        W99531   7.948  41.301   5.022
34547W        W99532  34.869  36.342  10.450
34548W        W99533  25.523  28.203  11.994
34549W        W99534  36.906  33.184  14.931
34550W        W99535  44.733   0.227   2.468
34551W        W99536  44.530  21.655   0.501
34552W        W99537  36.938  42.603  12.540
34553W        W99538  34.554  14.570   1.715
34554W        W99539  32.116  11.715   3.241
34555W        W99540  12.047  25.244  11.208
34556W        W99541  33.440  42.347   0.087
34557W        W99542  25.555  37.547   3.239
34558W        W99543   7.447  42.206   2.020
34559W        W99544  31.489   0.118  11.684
34560W        W99545  16.049  27.447   1.386
34561W        W99546  10.410   6.749  13.377
34562W        W99547   9.408  43.894  11.552
34563W        W99548  32.931  27.144   2.600
34564W        W99549  26.921   4.236  11.586
34565W        W99550  18.496  32.281  11.358
34566W        W99551  26.133  11.814   4.145
34567W        W99552  27.358  39.377  10.511
34568W        W99553   1.313  23.278   3.543
34569W        W99554  40.988  20.512   1.493
34570W        W99555  44.338  14.159   5.029
34571W        W99556  42.639   7.318  10.267
34572W        W99557  41.907  11.143   3.188
34573W        W99558  18.098  28.632  11.183
34574W        W99559   0.196  41.554   2.423
34575W        W99560  14.725  15.005  13.395
34576W        W99561  43.922   8.335  11.193
34577W        W99562   7.923   0.751  14.050
34578W        W99563  10.905  31.405  14.432
34579W        W99564  24.046  25.703   0.851
34580W        W99565  18.311  18.341   1.698
34581W        W99566  33.542  38.412  12.033
34582W        W99567  19.497  41.929  14.400
34583W        W99568  14.352  42.571  11.085
34584W        W99569   0.831  43.263  10.389
34585W        W99570  13.772  21.592   0.910
34586W        W99571   3.441   2.749  12.503
34587W        W99572  41.113   4.412  12.439
34588W        W99573   3.807  42.512  10.886
34589W        W99574  14.561  39.771  14.843
34590W        W99575  29.013  43.361   0.880
34591W        W99576  21.615  43.975   0.982
34592W        W99577  19.079  33.533  10.661
34593W        W99578  31.540   8.564   9.954
34594W        W99579  21.251  23.249  14.431
34595W        W99580  34.128  37.848  14.961
34596W        W99581   8.505  25.236  13.948
34597W        W99582  12.617  33.449  14.547
34598W        W99583  26.342  42.873   4.774
34599W        W99584   7.313  30.551  14.819
34600W        W99585   4.462  32.541   2.873
34601W        W99586  14.622  41.106  13.362
34602W        W99587  33.921  14.036   3.814
34603W        W99588   4.765  34.339  13.224
34604W        W99589  10.862   4.135   3.013
34605W        W99590  19.166   8.418   1.366
34606W        W99591  37.904  35.977  13.331
34607W        W99592  31.143  12.863  13.122
34608W        W99593  30.625  24.215   1.674
34609W        W99594  43.799  11.714  12.075
34610W        W99595  32.573  33.321   1.505
34611W        W99596  13.192  17.741  12.647
34612W        W99597  13.097   9.380   0.783
34613W        W99598  27.528  31.153   1.782
34614W        W99599  33.191   3.829  14.758
34615W        W99600  14.362   3.234   4.032
34616W        W99601  22.694   0.503   0.309
34617W        W99602   4.215  24.960  10.642
34618W        W99603   8.428  20.544   2.803
34619W        W99604   9.263  34.065   0.323
34620W        W99605   6.612  25.154   1.792
34621W        W99606  42.015  24.943   0.146
34622W        W99607   9.526   3.471  14.056
34623W        W99608  33.227  38.117   4.390
34624W        W99609  34.583  34.073   4.843
34625W        W99610   8.730  26.128   4.106
34626W        W99611  22.205  17.240   1.920
34627W        W99612  13.653  22.653  13.027
34628W        W99613  29.782  17.217   2.690
34629W        W99614  13.736  43.280   0.798
34630W        W99615  42.949  39.851   1.395
34631W        W99616   6.934  27.150  12.004
34632W        W99617   6.723   3.890  11.607
34633W        W99618  34.948  29.390   3.290
34634W        W99619   0.493   7.299  14.007
34635W        W99620   0.468  12.621   3.636
34636W        W99621  16.179   0.543   0.401
34637W        W99622  15.835  38.899   0.843
34638W        W99623  42.416  12.690   3.054
34639W        W99624  35.988  27.308  12.571
34640W        W99625  11.171  19.863  11.614
34641W        W99626  19.732  24.958   2.247
34642W        W99627  21.077  44.278   1.243
34643W        W99628  24.184  12.537  11.196
34644W        W99629  16.575  15.210   2.611
34645W        W99630  32.065  19.841  12.017
34646W        W99631  22.591  28.662  11.582
34647W        W99632  44.757  44.609  11.599
34648W        W99633   5.392  33.617  13.292
34649W        W99634  43.063  15.585   1.038
34650W        W99635  36.795  19.728   2.952
34651W        W99636  10.404  37.173  14.244
34652W        W99637  40.105   3.147  12.056
34653W        W99638   7.183  18.526   0.717
34654W        W99639  23.238  14.879   1.388
34655W        W99640  44.282  38.459   2.230
34656W        W99641   2.294  36.593   4.787
34657W        W99642   1.866  38.347  12.402
34658W        W99643   0.341  33.026  11.198
34659W        W99644   7.460  12.511   4.501
34660W        W99645  17.934  11.595  12.044
34661W        W99646  22.790  18.617  14.874
34662W        W99647  35.927  43.231   0.824
34663W        W99648  17.680  25.399  13.889
34664W        W99649  26.447   8.344   3.670
34665W        W99650  14.776  37.808   3.543
34666W        W99651  25.418  43.005  12.855
34667W        W99652  21.697  38.354   0.879
34668W        W99653  18.730  42.668   2.455
34669W        W99654   9.418  36.518   2.318
34670W        W99655  39.997  31.123   3.276
34671W        W99656  17.308  37.024   3.199
34672W        W99657  16.226  35.592   3.281
34673W        W99658  13.557   7.840   0.053
34674W        W99659  24.481   8.002   1.212
34675W        W99660  36.524  42.989   1.321
34676W        W99661  13.407  22.581   1.791
34677W        W99662   3.108  18.320  13.103
34678W        W99663   1.841   2.325   3.925
34679W        W99664  34.082  43.986   0.527
34680W        W99665   3.370  26.504   2.433
34681W        W99666  16.320  41.426  11.645
34682W        W99667  33.056  14.213   4.096
34683W        W99668  14.381  26.460   1.031
34684W        W99669  19.477   8.340   3.343
34685W        W99670  23.760  10.608  12.657
34686W        W99671  10.080   3.847  11.468
34687W        W99672  44.422  20.076   0.761
34688W        W99673   9.172  43.374   5.135
34689W        W99674  21.155  28.652  12.494
34690W        W99675  26.055  23.217  13.808
34691W        W99676  14.814  22.074  10.638
34692W        W99677  21.221   8.929  10.849
34693W        W99678  31.555  17.951  12.905
34694W        W99679  30.700  33.907  11.620
34695W        W99680   4.204   7.466  14.416
34696W        W99681  21.233  23.462   1.841
34697W        W99682  40.567  42.950  13.578
34698W        W99683   3.614  16.024   2.638
34699W        W99684  42.123  41.815  12.186
34700W        W99685  18.853   7.714   0.881
34701W        W99686   1.441  20.098  13.295
34702W        W99687  39.470  43.386  12.571
34703W        W99688  22.108  37.510  13.706
34704W        W99689  35.786  37.386  12.526
34705W        W99690  37.528  24.498   3.117
34706W        W99691  29.929  32.315  12.040
34707W        W99692   3.460  37.024  11.848
34708W        W99693   6.268  19.354  11.721
34709W        W99694   6.828  43.408  11.907
34710W        W99695  39.598  40.038   4.123
34711W        W99696  42.049  40.681  13.935
34712W        W99697   5.300  14.533  10.692
34713W        W99698   0.500   8.914  12.444
34714W        W99699  36.481   4.777   4.167
34715W        W99700   5.285  41.497   2.661
34716W        W99701  39.830  20.135  12.923
34717W        W99702  15.639  23.137  10.642
34718W        W99703   9.942  32.864   1.461
34719W        W99704   1.427  16.332   4.310
34720W        W99705  37.871  27.116   3.208
34721W        W99706  30.119  19.097   0.452
34722W        W99707  23.188  15.643  13.439
34723W        W99708   7.717  23.945  12.601
34724W        W99709   2.296  10.226  10.906
34725W        W99710   7.322   6.272   3.159
34726W        W99711  32.907  10.378  13.453
34727W        W99712   3.697   8.334  12.765
34728W        W99713  21.893  18.704   0.767
34729W        W99714   7.201  42.935  11.987
34730W        W99715  36.956  20.458   1.218
34731W        W99716  39.798  29.503   2.501
34732W        W99717  40.758   4.721   1.923
34733W        W99718   9.123  13.096   0.882
34734W        W99719   3.059  29.090  14.361
34735W        W99720  38.550  16.120  10.670
34736W        W99721  32.376  28.752   2.611
34737W        W99722  29.196  17.616  11.495
34738W        W99723  38.818  15.023   1.213
34739W        W99724  20.475   2.280   3.234
34740W        W99725  25.978  35.301  13.125
34741W        W99726  23.364  19.646  11.053
34742W        W99727  11.988  10.857  12.433
34743W        W99728   5.342  15.416  12.434
34744W        W99729  43.003  24.195   2.641
34745W        W99730   1.960  25.658   1.280
34746W        W99731  38.984  11.728   4.671
34747W        W99732  44.541   0.063  10.671
34748W        W99733  25.913  32.506  12.070
34749W        W99734  20.410  16.775   2.918
34750W        W99735  30.172  28.729  12.558
34751W        W99736  43.723  40.516  13.334
34752W        W99737  23.753   8.300   1.886
34753W        W99738   9.320  33.423   0.455
34754W        W99739  43.367   1.027   2.792
34755W        W99740  16.094  28.127   2.544
34756W        W99741  14.124  44.452  11.511
34757W        W99742  14.714  41.677  12.082
34758W        W99743   0.976  17.562   4.372
34759W        W99744  44.275  36.587   0.790
34760W        W99745   2.917  41.457   0.719
34761W        W99746   9.283  38.372  12.129
34762W        W99747   2.481  24.526   3.742
34763W        W99748  38.488  32.661  11.909
34764W        W99749  29.912  32.646   3.225
34765W        W99750  17.310  41.384  14.877
34766W        W99751  19.202  29.497   0.369
34767W        W99752  25.971   6.402  10.641
34768W        W99753  26.787  42.938  12.539
34769W        W99754  29.631  30.644  12.902
34770W        W99755  43.637  29.151  11.065
34771W        W99756  23.275  29.505   2.780
34772W        W99757  22.523  32.541  12.388
34773W        W99758  28.101  15.123  14.920
34774W        W99759  16.456  41.982   0.587
34775W        W99760  19.067  44.705   2.518
34776W        W99761  20.713  32.922  12.627
34777W        W99762  41.561  15.272   1.169
34778W        W99763  43.277  10.539   0.054
34779W        W99764  36.075  35.852  10.713
34780W        W99765  20.240  13.794  12.978
34781W        W99766  21.523   2.695  13.006
34782W        W99767  36.126  17.080  12.421
34783W        W99768  36.131  26.448   1.223
34784W        W99769  33.528  13.209  13.510
34785W        W99770  27.912   1.510  11.993
34786W        W99771  13.766  19.554  14.412
34787W        W99772  23.214  35.901  12.181
34788W        W99773   7.947  37.103   2.646
34789W        W99774   8.396  18.472   3.674
34790W        W99775  20.112  42.777  10.765
34791W        W99776  28.699   2.677  14.788
34792W        W99777  18.350  26.973  14.391
34793W        W99778  21.228  30.825   1.846
34794W        W99779  11.655   8.822  12.413
34795W        W99780  36.805  40.748   2.665
34796W        W99781   9.590  36.191  12.434
34797W        W99782  18.224  31.416  10.201
34798W        W99783   1.404  42.195   3.679
34799W        W99784  41.006  30.608   1.012
34800W        W99785  29.518  33.931  14.662
34801W        W99786  43.519  44.221  13.118
34802W        W99787   9.241   6.117   1.271
34803W        W99788  20.297  37.913  14.962
34804W        W99789  36.581  13.852  14.937
34805W        W99790  32.364  36.062   4.944
34806W        W99791  44.195   2.225   2.800
34807W        W99792  21.268  44.311   4.554
34808W        W99793   0.319  13.650   3.731
34809W        W99794   3.280  15.045   4.844
34810W        W99795  40.297  39.857  12.994
34811W        W99796  15.147  37.252   4.584
34812W        W99797  44.396   0.340  11.229
34813W        W99798   2.341  17.488  12.567
34814W        W99799  35.358  34.903   4.495
34815W        W99800  27.019  31.162  14.438
34816W        W99801  41.383  19.661  14.711
34817W        W99802  24.775  44.955   0.853
34818W        W99803  33.432  21.081  11.575
34819W        W99804  34.417   7.611   1.160
34820W        W99805   7.847  11.977  12.846
34821W        W99806  23.252  35.532   0.811
34822W        W99807  11.281  38.023  10.657
34823W        W99808  32.335   6.627   2.218
34824W        W99809  16.979  21.567   0.743
34825W        W99810  38.567  39.296   4.227
34826W        W99811  30.905   1.776  14.845
34827W        W99812   9.404   2.165  13.819
34828W        W99813   2.416  10.173   2.861
34829W        W99814   4.876  33.270   4.161
34830W        W99815  13.641  15.111  12.588
34831W        W99816  14.951   8.415   1.831
34832W        W99817  27.811  27.094   1.721
34833W        W99818   7.808  26.122   2.859
34834W        W99819  42.130   6.143   1.723
34835W        W99820  26.093  42.351  12.889
34836W        W99821   9.342  44.496   0.291
34837W        W99822  37.480  41.224   1.171
34838W        W99823  17.235  42.369  11.171
34839W        W99824  21.003   3.132   0.600
34840W        W99825  31.827  27.745  10.590
34841W        W99826   0.748   7.724  13.849
34842W        W99827  23.640  11.235  10.558
34843W        W99828  23.611  22.675  11.981
34844W        W99829   6.886   3.974  12.118
34845W        W99830  14.273  35.460   3.237
34846W        W99831   5.800   7.201  14.019
34847W        W99832  17.680  10.593  11.925
34848W        W99833   7.163  10.638  12.269
34849W        W99834  36.841  30.951  14.465
34850W        W99835  33.120  34.450   1.371
34851W        W99836  28.151  42.397  12.567
34852W        W99837  41.585  33.651  11.971
34853W        W99838  22.873   9.816   4.588
34854W        W99839  19.290  28.878  10.672
34855W        W99840  33.179   0.518  13.695
34856W        W99841   6.635  31.142  13.254
34857W        W99842  39.286  27.928   2.142
34858W        W99843  12.500  34.156   3.710
34859W        W99844  20.309  18.239   4.062
34860W        W99845  32.489   2.186   0.505
34861W        W99846  33.177  34.118  11.788
34862W        W99847  13.397  41.512   4.605
34863W        W99848  15.676   4.000  14.884
34864W        W99849   9.545  19.805  10.700
34865W        W99850   9.626  31.102  10.697
34866W        W99851   8.580  41.246  12.913
34867W        W99852  32.304  12.730   1.234
34868W        W99853   7.345  31.412  13.014
34869W        W99854   7.466  39.376   4.195
34870W        W99855  23.148  13.554   3.960
34871W        W99856  16.259  40.531  11.202
34872W        W99857  30.010  35.032   2.015
34873W        W99858  20.578   7.036  13.633
34874W        W99859   2.741  43.007  13.003
34875W        W99860   3.967  30.136   3.229
34876W        W99861   5.734  25.099  11.410
34877W        W99862  30.412  31.032   0.273
34878W        W99863  14.187  29.008   0.401
34879W        W99864   1.546  15.801  11.945
34880W        W99865  26.689  32.980  12.063
34881W        W99866  36.963  19.460   3.343
34882W        W99867   4.451  15.359  12.898
34883W        W99868   4.272  26.773  12.161
34884W        W99869  21.047  14.426   4.138
34885W        W99870  36.311   2.059   4.971
34886W        W99871  27.477  17.317   4.543
34887W        W99872  18.699  29.373   0.238
34888W        W99873  14.233  12.187   1.693
34889W        W99874   6.108  35.649  12.910
34890W        W99875  34.895   4.131   2.632
34891W        W99876   4.806   4.903  10.737
34892W        W99877   7.183  29.572  12.008
34893W        W99878  36.225  10.214  13.655
34894W        W99879  38.186  38.813  11.541
34895W        W99880  44.261  22.757   1.935
34896W        W99881  38.461   1.485  12.357
34897W        W99882  16.801  30.238  13.446
34898W        W99883   0.912   3.678  11.045
34899W        W99884   7.752  16.732  13.939
34900W        W99885  44.708   9.197   3.197
34901W        W99886  17.682  26.378   3.977
34902W        W99887   2.830  14.858  10.687
34903W        W99888  40.640   0.367   0.704
34904W        W99889   7.777  10.083  13.507
34905W        W99890  17.783  17.315   3.922
34906W        W99891  40.408  20.703  12.801
34907W        W99892  26.462  41.011  11.227
34908W        W99893  41.378  38.286   4.553
34909W        W99894  40.149  18.735   3.988
34910W        W99895  13.625  20.708  12.992
34911W        W99896  38.231  41.818  11.569
34912W        W99897  31.004   7.703   3.872
34913W        W99898  39.689  12.722   4.187
34914W        W99899  43.808  39.312   0.243
34915W        W99900  33.442  16.100  14.964
34916W        W99901  40.476   3.326  11.163
34917W        W99902   2.776  23.819   3.257
34918W        W99903  24.601  10.874  14.903
34919W        W99904  31.339   7.206  14.075
34920W        W99905   8.993  14.254  11.386
34921W        W99906  14.813  18.135  11.652
34922W        W99907   9.333  37.565   2.340
34923W        W99908  29.558  44.692   3.233
34924W        W99909  39.311  17.235   5.178
34925W        W99910  35.669  22.745   2.393
34926W        W99911  41.908  38.834   0.759
34927W        W99912  18.838  39.034  12.557
34928W        W99913   4.410  39.298  11.135
34929W        W99914  35.097  31.581   1.888
34930W        W99915  21.437  39.158  13.957
34931W        W99916  13.855  22.462   3.924
34932W        W99917  39.818  16.128  14.366
34933W        W99918  28.547  41.399   0.732
34934W        W99919  38.940  34.798   9.831
34935W        W99920  44.215   2.786  11.933
34936W        W99921  33.982  27.094  13.156
34937W        W99922  14.295  15.079   2.318
34938W        W99923  33.611  26.139   2.949
34939W        W99924  31.158   4.458   0.915
34940W        W99925  29.436  10.855  13.999
34941W        W99926  44.721   8.905  14.739
34942W        W99927  33.907   1.838   0.949
34943W        W99928  16.176  12.812   0.532
34944W        W99929   6.552   8.811  13.745
34945W        W99930  30.203  34.806  12.037
34946W        W99931  36.448   6.389  12.478
34947W        W99932   7.239  41.207  13.676
34948W        W99933  43.312  13.895   1.269
34949W        W99934  14.725   7.429   0.856
34950W        W99935  43.524  24.914   4.542
34951W        W99936   4.788  28.481  13.894
34952W        W99937  13.679  41.887  11.927
34953W        W99938  22.996  28.693  14.755
34954W        W99939  14.571  17.132   4.101
34955W        W99940  35.967  37.685   4.930
34956W        W99941  42.983  43.372   4.963
34957W        W99942  44.001  15.112   1.276
34958W        W99943  40.394   8.230   3.635
34959W        W99944  26.227  43.066   2.550
34960W        W99945  43.832   4.431  11.123
34961W        W99946  19.649  10.792   0.056
34962W        W99947   2.204   1.816  10.737
34963W        W99948  38.337  40.327  11.785
34964W        W99949  16.929   9.245   0.907
34965W        W99950  32.163  18.601  11.192
34966W        W99951  23.419  28.649   4.839
34967W        W99952  17.020  13.828   1.412
34968W        W99953  11.398  14.676   1.300
34969W        W99954   6.719  28.256  14.527
34970W        W99955   5.408  43.071  11.086
34971W        W99956  22.776  40.049   2.306
34972W        W99957   8.448  25.900  12.883
34973W        W99958  44.547  14.698   4.453
34974W        W99959  10.839  24.554  13.130
34975W        W99960  10.838  16.636   3.668
34976W        W99961  12.390  31.054  10.671
34977W        W99962  35.607  35.992  14.045
34978W        W99963  27.007   7.493   3.781
34979W        W99964   9.343   5.098  11.221
34980W        W99965  31.780  40.425   4.084
34981W        W99966  30.401  18.614  10.647
34982W        W99967  37.373  41.233  12.469
34983W        W99968  18.021  42.901  12.880
34984W        W99969  39.480  32.826  13.390
34985W        W99970  38.966   9.801  11.415
34986W        W99971  42.497   6.577   3.726
34987W        W99972  37.350   6.515   4.762
34988W        W99973  43.247  20.932   2.177
34989W        W99974  31.635  37.294   2.344
34990W        W99975  18.564   7.282   0.734
34991W        W99976  40.008  21.560   0.868
34992W        W99977  33.130  41.051  13.901
34993W        W99978  26.695  30.091   0.371
34994W        W99979  24.183  38.737   4.372
34995W        W99980  26.971  41.983  11.623
34996W        W99981  43.766  10.816   0.343
34997W        W99982  18.848  33.022   1.946
34998W        W99983  10.837   4.734  12.292
34999W        W99984  14.182  42.816   0.245
35000W        W99985  19.729  28.155   0.352
35001W        W99986  32.096   3.767  14.832
35002W        W99987  43.010  23.185  13.989
35003W        W99988  11.870  19.049   0.770
35004W        W99989  20.113  33.504  14.500
35005W        W99990   1.474  24.987   4.392
35006W        W99991   9.810  13.418  12.054
35007W        W99992  16.209  15.324   1.835
35008W        W99993  26.534  11.913   4.830
35009W        W99994  36.897  13.130  14.343
35010W        W99995  32.905   0.280  11.577
35011W        W99996  36.771   9.979   3.609
35012W        W99997  19.168  33.919  13.448
35013W        W99998  43.590  32.868   1.845
35014W        W99999  28.548  22.883  13.140
35015W        W    0  29.567  32.107  13.785
35016W        W    1  15.666  13.714  14.798
35017W        W    2  32.105  23.282   0.607
35018W        W    3  32.892  25.052   4.820
35019W        W    4   1.398   6.775  13.082
35020W        W    5   2.940  36.096   4.145
35021W        W    6  12.215  11.631  14.383
35022W        W    7  31.044   8.790  10.725
35023W        W    8  38.136   5.268  10.589
35024W        W    9   0.311  22.774  10.703
35025W        W   10  29.034  21.750   4.570
35026W        W   11  40.827  19.512  13.391
35027W        W   12  21.093   2.291   0.304
35028W        W   13  34.007  38.552  12.213
35029W        W   14   0.582  17.768   3.666
35030W        W   15  11.627  29.290   4.175
35031W        W   16  33.293  27.106   0.404
35032W        W   17  43.952  14.166  12.052
35033W        W   18   4.208  18.101   3.375
35034W        W   19  42.199  38.861  14.884
35035W        W   20  44.251  31.380  10.792
35036W        W   21  23.242   2.997  12.205
35037W        W   22  26.512  38.549  12.561
35038W        W   23  24.855  38.064  12.931
35039W        W   24  29.988  38.606   1.469
35040W        W   25   5.991  40.982   1.477
35041W        W   26  42.274   1.409  12.359
35042W        W   27  11.658  21.240  10.564
35043W        W   28  28.440   1.253   1.815
35044W        W   29  12.221  24.433  12.613
35045W        W   30  23.562  28.064  13.263
35046W        W   31   2.669  37.076   0.856
35047W        W   32  32.911  42.851  13.992
35048W        W   33  23.690  29.250  13.520
35049W        W   34   9.162   0.319   3.144
35050W        W   35   4.628  42.876  13.050
35051W        W   36  34.948  27.936  11.660
35052W        W   37  41.459  32.241   1.225
35053W        W   38  25.421  37.456  13.885
35054W        W   39  40.237  24.755   1.252
35055W        W   40  44.412  10.223   2.603
35056W        W   41  40.695  39.404  14.147
35057W        W   42  10.365  11.247  13.038
35058W        W   43  40.910  26.593   1.135
35059W        W   44   7.900   7.237   1.892
35060W        W   45  26.671  32.087   1.412
35061W        W   46  28.957  19.715   1.723
35062W        W   47   1.194   5.926  11.586
35063W        W   48  28.910   4.856  14.845
35064W        W   49  36.309   3.821   3.300
35065W        W   50  25.890   0.270   3.456
35066W        W   51  35.181  18.263   2.321
35067W        W   52  39.419  35.097   2.281
35068W        W   53  30.936  19.597   3.618
35069W        W   54   1.384  27.119  13.985
35070W        W   55  18.576  29.712   2.250
35071W        W   56  32.859  23.926   0.328
35072W        W   57   8.474   2.753   2.681
35073W        W   58   8.317  37.882   4.974
35074W        W   59  20.025  42.028  14.382
35075W        W   60  17.704   9.581   4.932
35076W        W   61  12.816  35.906  10.781
35077W        W   62  30.696  22.571  10.730
35078W        W   63  40.079  20.460   3.300
35079W        W   64  34.829   5.325   4.152
35080W        W   65  17.856  35.481  14.931
35081W        W   66   7.347  31.530  14.371
35082W        W   67  32.153  29.193   2.906
35083W        W   68  12.820  11.587   4.200
35084W        W   69  22.750  29.465   1.847
35085W        W   70  25.243   2.855  14.373
35086W        W   71  22.125   1.938   2.873
35087W        W   72   2.306  19.339   2.224
35088W        W   73  38.117  36.243   0.027
35089W        W   74   1.374  35.919  13.657
35090W        W   75   9.811  19.661  11.172
35091W        W   76  38.854  37.373  11.232
35092W        W   77   0.043   7.271   2.628
35093W        W   78  38.774  18.058  11.357
35094W        W   79  43.240   0.426  11.615
35095W        W   80  13.283  11.495  13.002
35096W        W   81  34.405  21.658   0.021
35097W        W   82  22.275  40.929   3.597
35098W        W   83   4.484  18.079  12.204
35099W        W   84  44.465  26.492   1.179
35100W        W   85  37.890  37.901   1.226
35101W        W   86  11.586   4.116  14.541
35102W        W   87  14.041  17.241  11.150
35103W        W   88  31.085  10.701   4.321
35104W        W   89  29.455  29.893  14.883
35105W        W   90  19.830  41.525  14.429
35106W        W   91  20.611  38.875   3.642
35107W        W   92  20.342  37.529   1.278
35108W        W   93  23.454   1.677  12.490
35109W        W   94  43.878  29.336  10.651
35110W        W   95  11.226  24.475   3.998
35111W        W   96  16.407   0.247   2.314
35112W        W   97  27.232  15.603   3.203
35113W        W   98  44.288  34.959   2.217
35114W        W   99   3.420  35.869  10.398
35115W        W  100  28.791  20.404   0.413
35116W        W  101  43.543   8.795  11.025
35117W        W  102   5.450   7.200   0.363
35118W        W  103   9.641  13.890  12.003
35119W        W  104  23.707  42.374   4.663
35120W        W  105  15.141  36.006   0.971
35121W        W  106   5.981  11.057   2.487
35122W        W  107  37.359  25.585   3.991
35123W        W  108   3.641  12.630  11.177
35124W        W  109  15.558   8.789  12.982
35125W        W  110  28.155  10.846  12.102
35126W        W  111  20.298  24.419   3.343
35127W        W  112  13.194  26.331   1.899
35128W        W  113   4.365  35.337  12.446
35129W        W  114  34.103   0.952   0.358
35130W        W  115  27.004  35.620  13.302
35131W        W  116  34.148  33.095   0.887
35132W        W  117  39.891  28.658   3.218
35133W        W  118   5.677  26.573  13.969
35134W        W  119  12.136  21.133  12.751
35135W        W  120  15.193   1.528   1.035
35136W        W  121  21.616   2.900  12.200
35137W        W  122   8.328  17.659   4.001
35138W        W  123  20.247  41.476   0.267
35139W        W  124  31.431  21.800  11.594
35140W        W  125  22.798  25.699  13.323
35141W        W  126  35.539  13.607  13.028
35142W        W  127   2.639   6.705  11.130
35143W        W  128   3.346  26.945   2.148
35144W        W  129  16.120  39.438  12.926
35145W        W  130   1.171   6.869  11.908
35146W        W  131  33.650   8.890  11.802
35147W        W  132  35.672  31.935   1.809
35148W        W  133   4.931  21.260  10.014
35149W        W  134  30.314  26.398   2.306
35150W        W  135  34.884  28.482  12.136
35151W        W  136  25.094  41.118  13.607
35152W        W  137  18.800  19.762   3.131
35153W        W  138  33.602   2.950   3.629
35154W        W  139   1.479  13.671   2.179
35155W        W  140  28.504  38.520  12.538
35156W        W  141  17.320  25.716   2.710
35157W        W  142  23.613  19.867  14.057
35158W        W  143   2.200  36.329   2.252
35159W        W  144  36.122   4.807   3.144
35160W        W  145  40.530   0.520  14.193
35161W        W  146   4.484  39.883   2.383
35162W        W  147  33.462  26.073  14.486
35163W        W  148  33.414  43.761   2.699
35164W        W  149   2.220  15.609   0.398
35165W        W  150  21.591  41.359  14.032
35166W        W  151  26.440  18.645   0.685
35167W        W  152  25.449   4.504  13.449
35168W        W  153  40.931   4.129  12.020
35169W        W  154  11.287  36.501  11.667
35170W        W  155  16.274   1.245   3.238
35171W        W  156  20.561  25.986  11.037
35172W        W  157   6.929  34.105  10.818
35173W        W  158  26.709   9.325   1.474
35174W        W  159  21.031  12.674  12.798
35175W        W  160  37.570  38.443   0.054
35176W        W  161   9.713  23.682   3.531
35177W        W  162  31.095  22.950   1.704
35178W        W  163  37.554   7.761  11.379
35179W        W  164  34.461   0.982   4.519
35180W        W  165   0.430  43.569   2.374
35181W        W  166  20.048  40.931   2.334
35182W        W  167  20.303  23.187   3.157
35183W        W  168  22.056  41.087  12.436
35184W        W  169  18.441   6.493  11.337
35185W        W  170  23.125   1.427  14.117
35186W        W  171   8.806   5.704  11.640
35187W        W  172  44.397  15.532   4.117
35188W        W  173  19.950  16.201  12.429
35189W        W  174  43.683  41.199   1.699
35190W        W  175  31.158  14.863   0.289
35191W        W  176  26.096  17.876  10.572
35192W        W  177  39.561   2.673   0.752
35193W        W  178  40.989   0.827  12.100
35194W        W  179  28.448  28.004   4.399
35195W        W  180   4.279  36.981   2.375
35196W        W  181   5.203  44.968  13.596
35197W        W  182   0.210  22.637   3.121
35198W        W  183   4.906  35.993   0.692
35199W        W  184   3.722  36.103  11.566
35200W        W  185   6.698  42.957  12.110
35201W        W  186  33.468   4.353   3.596
35202W        W  187  38.753  44.482  14.971
35203W        W  188  31.947  40.343  11.010
35204W        W  189  29.083  20.995   2.307
35205W        W  190  44.245  39.307   4.080
35206W        W  191  33.553  35.026  12.993
35207W        W  192  13.727  41.456  14.700
35208W        W  193  24.515  30.128   0.413
35209W        W  194  42.022  38.346   0.611
35210W        W  195  17.452  27.209   0.882
35211W        W  196  38.963   5.703   2.447
35212W        W  197  19.063  35.881   0.613
35213W        W  198  40.987  29.103   2.177
35214W        W  199   0.175  36.031  11.119
35215W        W  200  30.791   4.782   0.007
35216W        W  201  31.113  43.984  14.267
35217W        W  202   8.209  40.793  13.766
35218W        W  203  40.555  42.091  13.957
35219W        W  204  15.219  19.307   0.763
35220W        W  205  29.331   6.086   0.934
35221W        W  206   1.100   4.768   3.648
35222W        W  207  32.926  30.678   3.314
35223W        W  208  11.390   4.546   1.328
35224W        W  209  27.071  11.333   0.892
35225W        W  210  36.106  44.527  11.424
35226W        W  211  18.692   5.700  13.418
35227W        W  212   4.196  20.519   4.611
35228W        W  213   3.517  17.337  14.971
35229W        W  214  20.098   1.172  12.213
35230W        W  215  12.264  35.068  14.480
35231W        W  216   2.911   3.107   0.018
35232W        W  217   8.920   3.551   4.174
35233W        W  218  21.643  28.447  12.473
35234W        W  219   1.724  10.753  11.770
35235W        W  220  35.310  31.295  13.877
35236W        W  221   4.337  10.215   1.748
35237W        W  222  10.889  30.169  11.456
35238W        W  223  28.135  23.437  11.918
35239W        W  224  25.059   5.731   3.258
35240W        W  225  27.449  11.701   3.810
35241W        W  226  31.946  23.178  12.597
35242W        W  227   4.235   8.394   1.956
35243W        W  228  41.300  33.535  12.428
35244W        W  229   9.662  25.655  12.516
35245W        W  230  21.108  11.209  13.818
35246W        W  231  24.667  22.533   4.309
35247W        W  232   5.323  40.967  12.394
35248W        W  233  28.975  44.984  14.405
35249W        W  234  11.348  15.532  13.068
35250W        W  235  17.540  15.352   3.793
35251W        W  236   1.472   8.255   1.476
35252W        W  237  25.013  12.282  10.627
35253W        W  238  15.968  44.515  12.579
35254W        W  239  27.149  23.953   4.231
35255W        W  240   8.371  34.941   4.711
35256W        W  241  36.069  16.594  11.523
35257W        W  242  23.742  27.069   4.379
35258W        W  243  17.770  23.052   0.893
35259W        W  244  19.953  16.550  10.251
35260W        W  245  28.829  18.108   1.924
35261W        W  246  18.403  25.424  14.230
35262W        W  247  20.205  18.606  12.210
35263W        W  248   0.196   1.351  12.452
35264W        W  249  21.227  26.703   3.389
35265W        W  250  39.654  32.691   0.295
35266W        W  251  23.440   9.800   4.603
35267W        W  252  16.549  34.315   3.691
35268W        W  253  43.359  15.204  14.562
35269W        W  254  13.280  29.542   3.277
35270W        W  255  22.637   0.022   4.062
35271W        W  256  24.967  39.526   2.831
35272W        W  257   5.275  43.586  12.536
35273W        W  258  13.292   0.571  13.145
35274W        W  259  10.777  18.389   4.395
35275W        W  260  38.555  26.854   0.267
35276W        W  261   5.762  29.887  12.824
35277W        W  262   5.239  25.544   2.585
35278W        W  263  41.897  23.078  10.575
35279W        W  264  12.886  36.127   1.862
35280W        W  265  22.584  12.368  11.726
35281W        W  266  29.064  40.938  13.101
35282W        W  267   6.971   2.147   3.637
35283W        W  268  17.575  42.784   0.657
35284W        W  269  28.029   1.602   0.162
35285W        W  270  10.564   3.719  11.363
35286W        W  271  44.276  32.606  12.178
35287W        W  272  23.309  19.481  11.527
35288W        W  273  31.091   8.754   4.990
35289W        W  274  11.893  10.073   0.836
35290W        W  275  34.009  24.155  14.013
35291W        W  276   7.756  36.979  14.790
35292W        W  277  15.982  11.754  12.283
35293W        W  278  41.834  32.976  12.874
35294W        W  279  40.430  13.356  11.189
35295W        W  280   5.029  14.564   1.734
35296W        W  281  14.425  44.086  12.463
35297W        W  282   5.787  11.625  13.475
35298W        W  283   1.901  17.298  13.215
35299W        W  284  20.650  14.129   3.399
35300W        W  285   2.915  39.862   3.427
35301W        W  286  38.049  30.648  10.195
35302W        W  287  15.894  22.765  11.510
35303W        W  288   7.140  21.671   4.166
35304W        W  289  14.744   4.704  11.680
35305W        W  290  39.761  18.262   3.739
35306W        W  291  40.782  21.620  11.988
35307W        W  292  12.167  28.948  11.765
35308W        W  293  35.379  21.153   2.767
35309W        W  294  18.611  41.547  14.766
35310W        W  295  12.004  34.579  11.699
35311W        W  296  37.754  21.546   3.703
35312W        W  297   4.200  28.103   0.309
35313W        W  298  29.085  42.780   4.564
35314W        W  299  41.297  29.155  14.907
35315W        W  300  33.839  36.488   1.190
35316W        W  301  42.265  15.751   4.117
35317W        W  302   4.226  36.570  13.230
35318W        W  303  26.660   3.785  11.545
35319W        W  304   8.737   6.394  12.934
35320W        W  305  44.016   6.628   1.469
35321W        W  306   5.780  32.926  13.304
35322W        W  307  16.807  32.382  14.885
35323W        W  308  28.624  42.592   2.752
35324W        W  309   3.242  23.943  11.662
35325W        W  310   3.156  28.462  13.918
35326W        W  311  31.371  42.545  14.367
35327W        W  312  40.866   3.005  11.067
35328W        W  313  34.888  32.679  13.144
35329W        W  314  26.688  18.821  13.261
35330W        W  315   5.380  20.569  12.940
35331W        W  316  19.767  13.323  10.956
35332W        W  317   1.027   7.819  14.900
35333W        W  318   8.667   4.305   3.660
35334W        W  319   7.763  29.876  11.365
35335W        W  320  22.678  37.166   3.317
35336W        W  321  25.022   1.950   1.681
35337W        W  322   4.976  38.501  11.234
35338W        W  323   1.252  30.461  13.434
35339W        W  324  43.998  30.290   0.270
35340W        W  325  31.169   3.003   3.360
35341W        W  326  14.078   6.058   0.099
35342W        W  327  41.323  31.116  14.066
35343W        W  328  33.314  30.477  10.100
35344W        W  329  28.685  38.266  11.978
35345W        W  330  41.852  15.851  13.540
35346W        W  331   2.221  31.083  13.849
35347W        W  332  39.562   3.992  12.955
35348W        W  333  20.771   8.614  10.727
35349W        W  334  34.578  10.437  14.369
35350W        W  335  22.102  15.182  11.961
35351W        W  336  20.452   5.825  10.643
35352W        W  337   5.933  32.095  13.054
35353W        W  338  37.797  38.454   2.725
35354W        W  339   5.082  30.774   1.157
35355W        W  340  32.149   3.264  12.575
35356W        W  341   1.330  18.570  14.705
35357W        W  342  31.722  12.151   3.706
35358W        W  343  41.037   9.309  14.932
35359W        W  344  11.610   2.844  14.343
35360W        W  345   8.437  40.057   1.996
35361W        W  346  28.306   8.766   5.204
35362W        W  347  13.302   5.860   4.271
35363W        W  348  13.812  14.274  12.942
35364W        W  349  41.721  33.325  11.090
35365W        W  350  24.054  15.349  11.569
35366W        W  351  40.461  12.429   0.414
35367W        W  352  16.823  42.960  11.664
35368W        W  353  20.203  44.539  11.506
35369W        W  354  42.923   4.397  14.412
35370W        W  355  33.577  33.016   2.930
35371W        W  356  32.818  23.635   1.014
35372W        W  357  26.908  34.237   1.037
35373W        W  358  10.103  42.456  13.099
35374W        W  359   7.749   7.660   2.123
35375W        W  360  35.647  32.188  11.208
35376W        W  361  32.539   7.879  11.547
35377W        W  362  33.913  37.816  13.322
35378W        W  363  21.963   2.194   0.858
35379W        W  364  29.212  43.493   1.347
35380W        W  365  22.026  44.622  11.283
35381W        W  366  44.508  43.064   4.230
35382W        W  367  20.264  20.678   3.033
35383W        W  368  37.565  22.779   2.260
35384W        W  369  23.327  18.762   3.156
35385W        W  370  40.983  36.450   0.812
35386W        W  371  44.107  42.453  14.888
35387W        W  372  33.083  29.112   2.858
35388W        W  373  32.947  36.381   3.872
35389W        W  374  35.894  22.449   4.521
35390W        W  375  44.431  35.664  14.569
35391W        W  376   4.277  42.413  14.662
35392W        W  377  39.669  42.677  13.146
35393W        W  378   2.275  21.095   3.854
35394W        W  379   1.260  42.328  13.551
35395W        W  380  24.505  43.230   4.849
35396W        W  381  43.898  10.808  12.081
35397W        W  382  40.313  30.011  13.931
35398W        W  383  35.394  32.228  10.764
35399W        W  384  17.561  38.073  14.995
35400W        W  385  20.328  29.105   4.127
35401W        W  386  36.094  34.578   4.085
35402W        W  387  20.032   4.026  10.873
35403W        W  388  19.512  21.270  14.308
35404W        W  389   6.398  17.045   3.192
35405W        W  390  40.557   8.621  12.035
35406W        W  391  15.706  11.390   3.617
35407W        W  392  25.297  21.825   2.402
35408W        W  393  35.364  23.579  14.776
35409W        W  394   3.397  40.091   1.066
35410W        W  395  34.079   2.472  13.044
35411W        W  396  35.929  34.185  12.610
35412W        W  397   7.290  27.519   1.863
35413W        W  398  15.245   4.792   2.066
35414W        W  399  34.493  35.628   3.135
35415W        W  400  25.755  21.517  13.395
35416W        W  401   6.831  22.690   4.786
35417W        W  402  44.564   8.334  10.383
35418W        W  403  13.668  23.297  11.608
35419W        W  404  14.139   3.374  12.582
35420W        W  405   4.644  36.003   1.564
35421W        W  406  11.981  15.774   0.889
35422W        W  407   9.083  40.922  10.560
35423W        W  408  15.392  30.027   1.887
35424W        W  409  33.127  29.957   2.298
35425W        W  410  41.824  33.505   5.204
35426W        W  411  36.495  19.186   1.275
35427W        W  412  20.511  30.502  14.504
35428W        W  413  40.882  27.645  12.391
35429W        W  414  31.060  10.849   1.810
35430W        W  415  24.795  19.996   2.364
35431W        W  416   0.337  21.982   0.900
35432W        W  417   5.647   0.918  12.944
35433W        W  418  17.070   0.828  12.423
35434W        W  419  43.485  20.028  11.581
35435W        W  420  28.945  20.362  10.782
35436W        W  421  33.882  13.783  13.749
35437W        W  422  13.127  19.828  10.515
35438W        W  423   2.332   7.814   0.315
35439W        W  424   3.957  18.129   5.165
35440W        W  425  42.383  10.572  14.697
35441W        W  426  18.737   2.003   2.351
35442W        W  427  11.564  35.255  11.690
35443W        W  428  25.576  22.314   4.138
35444W        W  429  21.109   6.401   1.750
35445W        W  430   7.810  31.208  11.535
35446W        W  431  15.282  35.395   4.256
35447W        W  432  44.443  36.472   4.110
35448W        W  433  17.616  16.305   4.697
35449W        W  434  19.684  25.472  11.102
35450W        W  435   7.807  40.505  10.383
35451W        W  436  27.755  13.311  10.265
35452W        W  437  16.609  40.049  11.961
35453W        W  438  34.014  21.266  12.842
35454W        W  439  26.490  14.159   0.965
35455W        W  440  27.501  43.085  14.511
35456W        W  441  13.919   0.404   1.181
35457W        W  442  41.945   5.845   0.740
35458W        W  443  14.927  37.467  11.910
35459W        W  444  38.130  28.906  11.761
35460W        W  445   5.744  16.532   2.852
35461W        W  446  14.108   3.716  12.188
35462W        W  447  43.858   9.991   1.949
35463W        W  448  12.403  20.720   1.896
35464W        W  449  34.517  34.328   0.521
35465W        W  450  44.666  16.003   1.894
35466W        W  451  16.508  40.107  11.077
35467W        W  452  35.208  13.292  13.926
35468W        W  453  15.718  43.960  12.822
35469W        W  454  40.862  19.694   2.201
35470W        W  455  44.763   1.248   2.662
35471W        W  456  29.062  24.645   1.696
35472W        W  457  24.127   5.182   0.727
35473W        W  458  40.874   1.919  12.474
35474W        W  459  16.329  34.655  12.505
35475W        W  460  42.659   9.049   0.281
35476W        W  461  30.435  31.564   2.008
35477W        W  462  38.793   1.199   0.082
35478W        W  463  39.124   4.480  11.687
35479W        W  464  43.045   9.711  11.234
35480W        W  465  14.289  13.579  13.846
35481W        W  466  13.780  37.507  12.041
35482W        W  467  32.771   5.438   5.046
35483W        W  468  26.930  37.104  11.072
35484W        W  469  19.125  41.399  12.047
35485W        W  470   0.865  23.629  10.220
35486W        W  471  41.100  23.686   0.216
35487W        W  472  34.039  38.235   4.529
35488W        W  473  38.402  43.635   1.315
35489W        W  474   0.534  10.207  14.330
35490W        W  475   1.762  29.300  12.531
35491W        W  476   6.956  30.560  12.479
35492W        W  477  18.667  15.224   1.109
35493W        W  478   6.236  18.518   1.730
35494W        W  479  31.889  32.650  14.983
35495W        W  480  25.065  42.445   1.903
35496W        W  481  14.302  34.520   2.878
35497W        W  482   3.674   4.710  14.669
35498W        W  483  42.882  26.947  13.969
35499W        W  484  42.704  24.526   2.258
35500W        W  485  15.153  17.760  14.088
35501W        W  486  14.024   7.367  14.621
35502W        W  487   2.228   9.196  13.007
35503W        W  488  36.073  20.966   1.283
35504W        W  489  22.739  11.352  12.805
35505W        W  490  10.160   5.174  13.422
35506W        W  491  32.081  35.452  11.892
35507W        W  492   2.983  43.283  12.415
35508W        W  493  11.053  35.441  12.535
35509W        W  494  33.889  22.637  11.624
35510W        W  495  16.735  16.053  13.550
35511W        W  496   8.655  38.063   4.017
35512W        W  497  10.113   4.423  12.204
35513W        W  498   7.772   3.326   4.476
35514W        W  499  15.197  14.036   4.658
35515W        W  500   6.850  34.564  12.452
35516W        W  501  29.053  27.277  12.120
35517W        W  502   2.734  15.694  13.999
35518W        W  503  44.299  23.224  13.183
35519W        W  504  23.885  40.696   4.333
35520W        W  505  22.845   5.321  11.158
35521W        W  506   3.999   8.339   0.672
35522W        W  507   5.901  12.324  10.495
35523W        W  508  20.790   2.768  12.529
35524W        W  509   2.312  37.629   1.665
35525W        W  510  39.817  34.348  11.962
35526W        W  511  26.721  41.600   2.841
35527W        W  512  16.355  39.445   0.294
35528W        W  513  41.870  36.974  13.897
35529W        W  514  15.754  11.980  13.922
35530W        W  515  41.108  10.494  14.471
35531W        W  516  25.973   9.406   0.884
35532W        W  517  40.429  16.641  12.122
35533W        W  518  13.299  36.590   1.342
35534W        W  519  25.713  39.421  11.270
35535W        W  520  43.259  33.966   2.335
35536W        W  521  28.209  39.413  12.521
35537W        W  522   0.246  31.609  13.682
35538W        W  523  30.765  10.802   0.241
35539W        W  524  10.779  27.639  11.093
35540W        W  525  11.629  36.625  12.034
35541W        W  526   6.244  32.138   0.048
35542W        W  527   2.928   9.450  12.579
35543W        W  528  43.997  28.953   2.303
35544W        W  529  11.814  37.019  13.531
35545W        W  530  14.198  17.673  11.706
35546W        W  531  30.880  33.895   3.245
35547W        W  532  11.224   9.150  12.676
35548W        W  533   8.483  31.413   3.370
35549W        W  534  18.631  10.901  13.749
35550W        W  535   6.845  18.754  12.584
35551W        W  536   6.443  33.782   3.730
35552W        W  537  38.010  28.766  11.217
35553W        W  538  19.133   9.345  14.440
35554W        W  539  21.773  35.520   3.690
35555W        W  540  27.749  12.458   1.332
35556W        W  541  28.753  43.052   2.970
35557W        W  542  42.871   4.119  13.048
35558W        W  543   3.403  18.434   5.190
35559W        W  544   7.952   7.975  11.501
35560W        W  545  14.630   2.625  12.097
35561W        W  546   4.865   0.336  13.623
35562W        W  547   9.456  12.652   0.784
35563W        W  548  11.814   4.431  13.579
35564W        W  549   9.115  41.669  13.508
35565W        W  550   6.334  12.662  14.965
35566W        W  551  15.195   2.785   1.303
35567W        W  552  31.091  40.403   1.988
35568W        W  553   0.450  44.402   1.802
35569W        W  554  44.957  34.637  13.883
35570W        W  555  22.135  43.571  11.159
35571W        W  556   4.719   6.881   4.982
35572W        W  557  14.628  18.027  12.539
35573W        W  558   5.902  44.477  14.904
35574W        W  559  44.258  17.386  11.646
35575W        W  560  24.627   5.139   1.244
35576W        W  561  31.681  20.746   2.217
35577W        W  562  21.567  28.446   1.335
35578W        W  563  24.272   3.398   3.923
35579W        W  564  26.425  31.644  10.712
35580W        W  565  35.369  22.115  10.796
35581W        W  566  37.447   2.864  12.630
35582W        W  567  16.529   0.914  12.411
35583W        W  568  32.703  13.300  14.964
35584W        W  569  14.231  11.178  14.947
35585W        W  570  25.250  16.535   4.199
35586W        W  571  41.883   5.432  13.788
35587W        W  572  15.349  16.495  14.848
35588W        W  573  33.555   2.473  14.882
35589W        W  574  32.564   5.650   4.573
35590W        W  575  26.196  36.750  14.821
35591W        W  576   6.184  30.047   4.087
35592W        W  577  25.846   8.206   0.399
35593W        W  578  28.027  16.079   4.138
35594W        W  579  24.682  39.113  14.004
35595W        W  580  22.520   9.387  12.344
35596W        W  581  41.907  42.069  11.323
35597W        W  582  43.924  41.000   5.016
35598W        W  583  20.284  17.462  11.114
35599W        W  584  32.632   5.444   3.665
35600W        W  585  19.224  41.324  13.567
35601W        W  586  14.255  13.742  10.792
35602W        W  587  37.355  43.479  10.597
35603W        W  588  21.655  28.014   9.947
35604W        W  589  33.278  44.776  13.988
35605W        W  590  43.345  22.046  11.127
35606W        W  591  33.385  35.135  13.462
35607W        W  592  18.886  25.496  14.024
35608W        W  593  33.383   4.442  14.847
35609W        W  594  39.970   4.628  14.370
35610W        W  595  39.323  44.944  10.717
35611W        W  596   9.166  12.654  12.930
35612W        W  597  21.283  43.007   0.405
35613W        W  598  19.236  34.026   1.242
35614W        W  599  43.896  31.495  14.851
35615W        W  600  39.943  13.240   0.293
35616W        W  601   6.383  31.581  11.690
35617W        W  602   7.204  24.593  13.043
35618W        W  603  12.138  39.106   2.693
35619W        W  604   3.664  24.061  13.388
35620W        W  605  39.651   0.493  14.373
35621W        W  606   8.643  19.626  14.933
35622W        W  607  18.284  22.731  11.958
35623W        W  608  42.588  20.451  12.623
35624W        W  609  38.905  31.437   0.316
35625W        W  610  32.924   5.661  11.777
35626W        W  611  18.178  31.935  11.580
35627W        W  612   1.308  37.490   3.419
35628W        W  613  11.021  37.567   2.734
35629W        W  614  29.087  17.698  14.092
35630W        W  615   8.061  27.519   0.359
35631W        W  616  28.048  19.301  12.555
35632W        W  617  35.980  29.952   0.157
35633W        W  618  15.715  19.083   3.187
35634W        W  619  37.887  25.005   4.198
35635W        W  620  39.639  34.354   0.807
35636W        W  621  17.267  40.854  13.081
35637W        W  622   9.913   0.935   4.789
35638W        W  623  39.409  41.154  11.997
35639W        W  624  24.649  15.848  11.304
35640W        W  625  39.852  40.332  11.175
35641W        W  626  29.121  14.207   0.758
35642W        W  627  19.691  25.104  12.862
35643W        W  628  42.007  15.515  11.148
35644W        W  629  39.442  15.428   4.880
35645W        W  630  24.750  26.671  11.625
35646W        W  631  17.663  27.174   2.250
35647W        W  632  40.079  28.638  14.324
35648W        W  633  34.987  12.740  12.843
35649W        W  634  32.852  19.611  11.609
35650W        W  635  12.827  13.127   0.478
35651W        W  636  32.339  17.610   2.326
35652W        W  637  10.303  21.432   1.477
35653W        W  638  41.962   7.322   0.217
35654W        W  639  42.934   4.115   0.230
35655W        W  640  41.378  31.128   4.599
35656W        W  641  18.623   9.624   3.915
35657W        W  642  16.128  43.776   2.486
35658W        W  643  44.025  34.088  13.841
35659W        W  644  28.672   5.020  13.474
35660W        W  645  27.533  19.956  12.717
35661W        W  646  39.091  27.721  12.352
35662W        W  647  21.145   5.722   2.529
35663W        W  648   5.532   6.789   3.262
35664W        W  649  27.944  44.062  14.455
35665W        W  650  29.706   3.536  12.468
35666W        W  651  21.641  36.808   0.466
35667W        W  652  36.440  18.514   4.910
35668W        W  653  44.822  32.043  12.910
35669W        W  654  42.348  11.098   4.785
35670W        W  655   4.901   6.086   5.436
35671W        W  656  28.096  40.938   3.281
35672W        W  657  13.681  37.572   2.416
35673W        W  658  22.698  10.335   4.598
35674W        W  659  24.549  32.025  11.689
35675W        W  660  27.197  36.867  13.813
35676W        W  661  36.375  38.870  13.223
35677W        W  662  20.700   4.875  12.134
35678W        W  663   3.576  35.012   4.567
35679W        W  664  31.889  28.512   1.767
35680W        W  665  19.989  31.360  12.040
35681W        W  666  39.718   5.815  11.396
35682W        W  667  42.255  43.047   2.307
35683W        W  668  34.627  20.065   4.434
35684W        W  669  32.884  34.763   2.202
35685W        W  670   1.426  15.834   2.831
35686W        W  671  14.080  36.364   3.097
35687W        W  672  36.629   6.900  13.159
35688W        W  673  17.716   5.160  13.551
35689W        W  674  35.071  27.305  12.451
35690W        W  675   0.680  27.565   3.788
35691W        W  676  42.317   4.171   1.202
35692W        W  677  43.410  18.838   0.227
35693W        W  678   4.178   0.711   1.234
35694W        W  679  37.245  33.091  14.557
35695W        W  680   4.511  31.749   3.387
35696W        W  681  30.230  35.090   4.231
35697W        W  682  18.335  30.926   0.080
35698W        W  683  23.453  36.017  12.619
35699W        W  684  10.317   6.210   1.751
35700W        W  685  27.172  29.161   1.093
35701W        W  686  40.008  39.068   2.958
35702W        W  687  33.967  16.741  14.830
35703W        W  688  30.495  25.097   3.622
35704W        W  689  26.502  22.943  13.825
35705W        W  690   6.746  16.304  14.341
35706W        W  691  37.758  33.604   2.569
35707W        W  692  13.055  15.651   3.284
35708W        W  693  36.495  38.575  12.033
35709W        W  694   0.388  43.063   2.206
35710W        W  695  41.035  28.506   2.704
35711W        W  696  41.862  17.248  13.382
35712W        W  697  15.100  39.591  10.701
35713W        W  698  40.374  40.954   0.363
35714W        W  699  36.576  26.038   3.843
35715W        W  700   1.527  10.667   0.312
35716W        W  701   7.669  12.472  12.708
35717W        W  702  24.004  35.425   3.646
35718W        W  703  12.303  19.284  10.663
35719W        W  704  28.496  27.477   1.445
35720W        W  705  37.355   2.145  14.944
35721W        W  706   1.760   2.141  11.554
35722W        W  707  13.755  41.128  14.283
35723W        W  708  31.529  40.275   1.189
35724W        W  709  16.991  41.877   0.693
35725W        W  710  10.251   9.987  14.402
35726W        W  711  15.727  28.047   3.805
35727W        W  712  24.526   1.852   0.235
35728W        W  713  11.685  35.715  10.281
35729W        W  714  20.202  20.757  14.651
35730W        W  715  12.522  32.935  14.997
35731W        W  716  30.853   7.723  11.497
35732W        W  717   4.347   4.683  10.600
35733W        W  718   5.115  42.067   4.181
35734W        W  719  41.266   0.010  12.984
35735W        W  720  22.503  15.873  11.565
35736W        W  721  38.077  28.980  10.719
35737W        W  722  38.560  35.814  14.126
35738W        W  723  18.826  22.256   0.925
35739W        W  724  39.235  42.516   2.005
35740W        W  725   6.225  32.579   1.401
35741W        W  726  10.815  44.187   4.603
35742W        W  727  35.019  30.905  13.706
35743W        W  728  35.566  44.485  10.452
35744W        W  729  31.570  14.334  12.927
35745W        W  730   6.034  32.379   3.176
35746W        W  731  26.589  25.273  10.654
35747W        W  732  25.600  25.625  10.623
35748W        W  733  27.471  27.527   1.557
35749W        W  734  35.339  34.937   3.643
35750W        W  735  21.464  27.046  10.518
35751W        W  736  34.914  14.700  11.610
35752W        W  737  12.549  41.004  12.009
35753W        W  738  18.117   6.700  13.888
35754W        W  739  18.745  17.110  14.088
35755W        W  740  31.973   2.515  11.768
35756W        W  741  30.653   7.525   1.168
35757W        W  742  40.161  31.046  11.052
35758W        W  743  10.538  11.560  10.587
35759W        W  744  28.925  11.928   1.841
35760W        W  745  14.840  33.561   1.311
35761W        W  746  38.345  22.114   1.845
35762W        W  747  20.685  24.808   3.297
35763W        W  748  10.402  39.212   4.254
35764W        W  749  23.188   8.407  12.950
35765W        W  750  18.621  17.192   0.520
35766W        W  751  36.319  18.226  13.905
35767W        W  752  30.178   8.150  12.956
35768W        W  753  28.153   0.022  12.055
35769W        W  754   4.988  25.042  11.997
35770W        W  755  17.725   6.419  13.590
35771W        W  756   6.896  16.301   3.612
35772W        W  757  34.758  29.424  13.506
35773W        W  758  39.339  12.236   2.826
35774W        W  759  29.988  33.721   4.276
35775W        W  760  30.124   0.553  11.118
35776W        W  761  10.416  13.116   0.442
35777W        W  762   0.945  15.648  10.539
35778W        W  763  19.697  38.973  12.175
35779W        W  764  41.873   7.180  13.013
35780W        W  765  27.629  20.090  11.451
35781W        W  766   3.438  20.995  12.054
35782W        W  767  32.404   6.598  13.734
35783W        W  768  12.925  16.220   1.745
35784W        W  769  40.425  42.407  13.505
35785W        W  770  19.548  37.288   2.329
35786W        W  771  39.763  44.626   0.642
35787W        W  772  20.823  25.625   1.477
35788W        W  773  17.298   1.439  10.709
35789W        W  774  38.956  13.838  11.898
35790W        W  775  42.874  29.441   5.071
35791W        W  776  20.520  25.888   4.164
35792W        W  777  22.121  43.962   3.255
35793W        W  778  41.761  32.211   1.703
35794W        W  779  13.769  16.208  13.263
35795W        W  780   7.657   8.469   4.158
35796W        W  781  40.919  35.947  12.176
35797W        W  782  37.035   2.640   3.124
35798W        W  783  26.884  32.975   0.279
35799W        W  784  32.050  43.317  10.554
35800W        W  785   0.322  29.183  11.699
35801W        W  786  27.024  43.774  11.631
35802W        W  787  26.476  38.079  10.561
35803W        W  788  40.229  33.098  14.480
35804W        W  789  23.488   3.732   1.369
35805W        W  790  23.068  25.634   2.512
35806W        W  791  25.905  36.779   3.715
35807W        W  792  32.618  29.964  11.040
35808W        W  793  34.061  41.985  14.726
35809W        W  794  27.525  17.603   1.832
35810W        W  795  21.053  32.842   3.177
35811W        W  796  24.142  26.362   9.955
35812W        W  797  37.965  42.459  13.252
35813W        W  798  21.144  34.706  13.017
35814W        W  799   9.854   8.380   3.700
35815W        W  800  41.348  29.661  11.105
35816W        W  801  12.183  17.476  12.315
35817W        W  802  22.573   1.595   5.061
35818W        W  803  23.614  38.277   0.451
35819W        W  804  34.187  38.939  10.454
35820W        W  805  36.810  31.545  12.086
35821W        W  806  10.684  16.258  14.336
35822W        W  807  12.330   2.457   4.710
35823W        W  808  18.770  28.652  11.813
35824W        W  809  33.545  14.826  11.454
35825W        W  810   8.821  32.460  13.698
35826W        W  811   5.449   5.008  13.418
35827W        W  812  15.959  33.431  14.741
35828W        W  813   1.335  14.335  13.012
35829W        W  814   7.390  28.967   2.418
35830W        W  815  44.003  24.652  10.202
35831W        W  816  22.652   1.309  12.500
35832W        W  817   6.945   9.597   3.632
35833W        W  818  29.571  33.376   4.224
35834W        W  819  43.569  37.129   3.249
35835W        W  820  37.804  25.344   4.661
35836W        W  821  43.325   2.515  11.629
35837W        W  822   4.495   2.855  14.418
35838W        W  823  25.432  42.323  11.567
35839W        W  824  30.330  42.917  10.644
35840W        W  825  25.008  34.462   4.935
35841W        W  826   4.371   3.555  13.940
35842W        W  827   6.314   9.863  11.211
35843W        W  828  25.264  21.487   2.786
35844W        W  829   6.349  11.053  14.883
35845W        W  830  22.154  18.831   4.953
35846W        W  831  24.528   7.663  12.949
35847W        W  832  34.591   9.346   3.159
35848W        W  833  42.822  22.016  11.046
35849W        W  834  16.049  36.021  12.394
35850W        W  835  41.481  37.311  13.962
35851W        W  836   2.814  13.139   1.368
35852W        W  837  20.573  37.954   2.174
35853W        W  838  17.376  24.179   0.827
35854W        W  839  15.158   3.294   0.482
35855W        W  840  28.085  21.717   4.584
35856W        W  841  40.827  35.877  11.678
35857W        W  842  25.019  30.075   5.357
35858W        W  843   9.850  39.668   1.601
35859W        W  844   7.651  38.273   2.244
35860W        W  845  40.057  39.061  12.538
35861W        W  846   5.982  44.463   3.134
35862W        W  847  30.319  33.078  13.026
35863W        W  848  26.757  42.995  13.348
35864W        W  849   6.379  18.714  14.049
35865W        W  850  35.660  28.511   3.693
35866W        W  851  41.833  37.891   5.227
35867W        W  852  10.140  42.963   1.930
35868W        W  853  25.914  16.289  14.326
35869W        W  854  38.366  41.342  14.447
35870W        W  855  40.839  30.927  14.825
35871W        W  856  35.955  32.595   0.738
35872W        W  857  23.302   3.310  12.833
35873W        W  858  20.783   9.688  12.546
35874W        W  859  11.886   1.302  12.860
35875W        W  860  40.362   8.683  13.994
35876W        W  861  14.262  13.421  12.084
35877W        W  862  26.719   2.574   1.348
35878W        W  863  28.875  14.707   2.935
35879W        W  864  31.409  14.614   2.888
35880W        W  865  29.324   7.402  14.259
35881W        W  866  12.278  27.683  11.977
35882W        W  867  29.534  26.695   0.920
35883W        W  868  25.603  25.435   3.882
35884W        W  869  33.502  16.926   2.160
35885W        W  870  13.931   4.475   0.102
35886W        W  871  35.890   2.964  12.520
35887W        W  872  30.032  10.603  14.730
35888W        W  873   8.242  36.615   3.256
35889W        W  874  11.280  31.077  14.072
35890W        W  875   7.735   7.590   4.129
35891W        W  876  23.610  40.331  13.951
35892W        W  877  19.011  34.417   3.836
35893W        W  878  19.990  39.490   1.943
35894W        W  879  43.035  23.588  13.478
35895W        W  880  11.289  39.155  11.067
35896W        W  881   7.252  33.306   3.817
35897W        W  882  15.147   8.630   2.242
35898W        W  883  18.512   4.148  14.178
35899W        W  884  34.275  38.541   1.490
35900W        W  885  37.575  15.116  10.716
35901W        W  886  20.304  12.112  13.955
35902W        W  887  37.561  27.442   4.124
35903W        W  888  18.966  17.554  12.022
35904W        W  889  10.912  39.796   4.085
35905W        W  890  39.538   3.478  12.893
35906W        W  891   9.685  16.116   4.725
35907W        W  892  19.520   3.656   1.460
35908W        W  893  21.792  29.909  11.254
35909W        W  894  35.987  33.961   2.666
35910W        W  895   6.706  20.084   4.640
35911W        W  896  29.952  13.190   3.166
35912W        W  897  31.666  24.939   4.294
35913W        W  898  30.294  32.548   2.313
35914W        W  899  28.111  29.021  13.930
35915W        W  900  31.795  19.122  12.045
35916W        W  901  16.688  44.734  11.014
35917W        W  902   1.685  12.883  14.550
35918W        W  903  24.930  31.996   0.113
35919W        W  904  35.624  35.879   2.650
35920W        W  905   6.253   6.234   3.187
35921W        W  906   2.454   2.833  11.662
35922W        W  907   7.504  22.395   1.471
35923W        W  908  31.119  12.652  10.103
35924W        W  909  20.009   9.155  11.091
35925W        W  910  43.935  38.733   4.604
35926W        W  911   8.659  41.356   0.114
35927W        W  912   4.327  20.811  12.934
35928W        W  913   5.520  30.447  13.377
35929W        W  914  11.689  44.789  12.626
35930W        W  915   6.131  38.111   4.559
35931W        W  916  38.307  36.533   4.735
35932W        W  917   6.487  16.028  13.125
35933W        W  918  24.587  20.743   4.139
35934W        W  919  19.300  28.041  11.249
35935W        W  920  12.021  42.253  10.910
35936W        W  921  13.282   6.528   3.405
35937W        W  922   4.491  37.485   0.388
35938W        W  923  12.516  37.661  13.121
35939W        W  924  40.812  38.755   0.281
35940W        W  925  12.754  22.770  11.262
35941W        W  926  20.967  38.360   4.989
35942W        W  927  15.649  16.147  14.529
35943W        W  928  26.499  24.036   1.340
35944W        W  929  12.462  23.730   0.692
35945W        W  930   2.431  41.935  10.704
35946W        W  931  12.019  18.215  12.138
35947W        W  932  42.709   4.226  10.896
35948W        W  933  20.236   0.895  11.167
35949W        W  934  35.124   5.797   4.143
35950W        W  935  43.555   4.733  10.522
35951W        W  936  29.707  28.896  12.361
35952W        W  937   0.058  19.377  12.819
35953W        W  938  19.484  44.414   0.231
35954W        W  939  23.593  20.707  11.950
35955W        W  940  18.651  41.637  10.380
35956W        W  941  24.950  13.382   1.901
35957W        W  942   1.501  36.469  10.797
35958W        W  943  10.831  29.473   4.209
35959W        W  944  41.973  18.559  13.896
35960W        W  945  15.413  24.420   0.855
35961W        W  946  16.795   3.861   4.047
35962W        W  947  36.819  30.183   3.289
35963W        W  948   4.297   4.912   2.811
35964W        W  949  36.522  31.715  11.122
35965W        W  950  11.759   1.727   1.007
35966W        W  951  43.941  22.135  14.334
35967W        W  952  10.290  36.571   3.871
35968W        W  953  15.320  41.877   1.190
35969W        W  954  42.771  11.270  13.371
35970W        W  955  24.221  10.708   1.148
35971W        W  956  44.254   4.719  14.087
35972W        W  957  33.195  33.641  12.644
35973W        W  958  44.536  28.362   0.242
35974W        W  959  13.361  13.577  13.688
35975W        W  960  43.352  28.152  12.944
35976W        W  961  23.755  20.067   0.480
35977W        W  962  16.270   5.123   3.543
35978W        W  963  25.310   8.794   0.754
35979W        W  964  32.565  33.492   4.275
35980W        W  965  13.868  10.128   0.392
35981W        W  966  44.764  18.378   2.097
35982W        W  967  28.616  11.183   2.123
35983W        W  968  29.830  31.400   2.660
35984W        W  969  35.897  39.025  13.353
35985W        W  970  20.109  27.089   5.008
35986W        W  971  24.089  19.515  13.343
35987W        W  972  37.587  26.513   2.528
35988W        W  973  32.858  19.182  14.722
35989W        W  974  41.211  24.358   3.230
35990W        W  975  10.011  25.699  10.614
35991W        W  976  18.665  12.090  14.494
35992W        W  977  14.130   4.086   4.365
35993W        W  978  23.775  15.689  11.223
35994W        W  979  20.242   6.810  10.195
35995W        W  980   8.926  35.983   0.971
35996W        W  981  16.384  24.284   1.821
35997W        W  982   2.296  22.826   4.989
35998W        W  983  36.078  17.851  11.051
35999W        W  984  35.395  32.915  11.749
36000W        W  985  43.693   3.214  13.425
36001W        W  986  21.493  15.711  10.758
36002W        W  987  10.946  44.006   4.085
36003W        W  988  31.170  31.976  13.951
36004W        W  989  22.487   7.029  13.769
36005W        W  990   3.421  40.939   1.244
36006W        W  991  14.839  15.652  11.479
36007W        W  992   1.977  37.393  12.948
36008W        W  993  22.084   6.214  10.540
36009W        W  994  28.225  20.625   2.110
36010W        W  995   9.649  16.521   2.004
36011W        W  996   7.208  37.321  14.007
36012W        W  997  32.281  27.833   3.078
36013W        W  998  25.001  29.490   3.274
36014W        W  999   3.397  20.533   1.211
36015W        W 1000  44.690  13.693   0.002
36016W        W 1001  26.737  27.354  13.940
36017W        W 1002   2.335  10.154   3.392
36018W        W 1003  33.374  33.067   0.284
36019W        W 1004  23.041  41.277   1.860
36020W        W 1005   3.661  36.027   2.769
36021W        W 1006   5.863  19.475   1.796
36022W        W 1007  32.407  11.380   1.141
36023W        W 1008   4.736  19.733  12.352
36024W        W 1009  38.795  27.154  13.084
36025W        W 1010  41.494   5.241  11.616
36026W        W 1011   4.631   4.848   2.427
36027W        W 1012  12.065  27.291   3.234
36028W        W 1013  42.751  30.430   3.136
36029W        W 1014  20.178  26.194   2.867
36030W        W 1015  35.369  14.766   1.334
36031W        W 1016   4.945  35.688   2.871
36032W        W 1017  27.044  39.367  11.395
36033W        W 1018  21.584  42.864   3.673
36034W        W 1019  27.018  37.023   2.171
36035W        W 1020  36.617  24.152   3.683
36036W        W 1021  22.114  28.770  14.779
36037W        W 1022  40.953  30.330   5.052
36038W        W 1023  36.604  23.525  13.438
36039W        W 1024  39.354  31.933  12.586
36040W        W 1025  33.525  31.994   5.014
36041W        W 1026  31.949  41.743   4.870
36042W        W 1027   0.440   2.360  14.648
36043W        W 1028  33.586  19.027  14.036
36044W        W 1029  29.227  15.527   3.273
36045W        W 1030  12.814   5.215  11.991
36046W        W 1031  14.546  43.810   4.522
36047W        W 1032   6.659  21.677  14.559
36048W        W 1033  43.387  42.324  13.533
36049W        W 1034  30.565  43.002   2.230
36050W        W 1035   2.257  30.508   0.272
36051W        W 1036  29.321  13.920  10.434
36052W        W 1037  28.383   6.995   3.288
36053W        W 1038   7.883  28.464   1.329
36054W        W 1039  32.336  19.340   4.393
36055W        W 1040  38.473  30.716   1.889
36056W        W 1041   6.963   5.781  12.094
36057W        W 1042   2.472   1.408  13.850
36058W        W 1043  16.292  44.681   2.106
36059W        W 1044   5.444  42.343   1.555
36060W        W 1045  43.716  28.596   4.796
36061W        W 1046   2.060  38.487   1.081
36062W        W 1047   5.955   2.339   2.089
36063W        W 1048  17.958  42.757  11.194
36064W        W 1049   1.663  37.402  14.999
36065W        W 1050  16.593   8.727   4.527
36066W        W 1051  35.072  12.705  12.353
36067W        W 1052   0.524  39.211  12.920
36068W        W 1053   6.635  11.416   4.563
36069W        W 1054  23.094  15.739   4.246
36070W        W 1055  21.918  14.173   0.012
36071W        W 1056  31.119  39.471   3.698
36072W        W 1057  25.198  39.005  13.289
36073W        W 1058  29.377  20.126   4.269
36074W        W 1059  22.755  23.256  11.035
36075W        W 1060  25.272   8.049   3.575
36076W        W 1061  43.011  28.571   3.441
36077W        W 1062  39.459  13.342   2.817
36078W        W 1063  37.848  18.584  14.497
36079W        W 1064   7.607  17.944   3.730
36080W        W 1065   3.317  21.892   1.861
36081W        W 1066   2.079  44.400   4.777
36082W        W 1067  38.385  38.904   2.233
36083W        W 1068   6.743  36.962  12.315
36084W        W 1069  37.935  14.741   2.353
36085W        W 1070  34.359  22.250   0.905
36086W        W 1071  21.072  18.892   0.380
36087W        W 1072   2.345   1.565   4.320
36088W        W 1073   2.454   6.943  10.561
36089W        W 1074   3.333   1.771   1.815
36090W        W 1075  33.078  12.432   3.701
36091W        W 1076  32.446  28.717  14.320
36092W        W 1077   7.847  39.919  11.178
36093W        W 1078  14.520  17.515  10.434
36094W        W 1079  41.474   9.365   2.308
36095W        W 1080  43.936   2.249  10.586
36096W        W 1081  29.460  18.974  14.303
36097W        W 1082  21.977  16.089  14.887
36098W        W 1083   2.746  38.805  12.772
36099W        W 1084  42.319  29.006   0.594
36100W        W 1085  24.744  13.393  10.961
36101W        W 1086  10.766  26.088  12.944
36102W        W 1087  23.099  38.128   0.544
36103W        W 1088  22.688  19.594  13.063
36104W        W 1089   8.922  40.491  13.944
36105W        W 1090  27.191  35.920  10.753
36106W        W 1091  19.666  22.775  14.444
36107W        W 1092  38.373  10.791   1.773
36108W        W 1093   3.501   4.926  13.444
36109W        W 1094  27.759  17.604  12.337
36110W        W 1095  18.684  16.240  10.885
36111W        W 1096  39.649  43.756  11.671
36112W        W 1097  24.649  26.010   2.773
36113W        W 1098  18.982  11.954  12.796
36114W        W 1099  24.747  28.216   2.298
36115W        W 1100  38.261   0.305   1.325
36116W        W 1101  30.164  14.329   3.924
36117W        W 1102  15.024   6.394  12.096
36118W        W 1103  33.617   1.858   0.441
36119W        W 1104  33.379  25.588   4.111
36120W        W 1105  34.607   2.983   3.848
36121W        W 1106  12.028  19.087   4.438
36122W        W 1107  17.365   2.003  13.798
36123W        W 1108   9.428  18.539  13.835
36124W        W 1109   4.540  38.471  12.139
36125W        W 1110  44.758  20.063   2.161
36126W        W 1111  33.765  24.119  10.667
36127W        W 1112  42.373  43.847   3.732
36128W        W 1113  26.000  14.642  10.889
36129W        W 1114  43.328  30.154  14.356
36130W        W 1115  32.393  37.077   2.948
36131W        W 1116   0.702  22.319   2.444
36132W        W 1117   2.680   6.403  12.891
36133W        W 1118   1.631   0.011  10.441
36134W        W 1119  37.648  42.863   4.093
36135W        W 1120  44.346  14.695  12.608
36136W        W 1121  13.817  39.031  10.474
36137W        W 1122   3.249  42.599   3.515
36138W        W 1123  23.743  33.880  13.109
36139W        W 1124  33.014  28.675   3.314
36140W        W 1125  28.072  19.113  13.594
36141W        W 1126  22.072  35.466   2.418
36142W        W 1127  15.205  14.735  11.563
36143W        W 1128  41.033  39.540   3.725
36144W        W 1129  19.534  20.741  11.568
36145W        W 1130  31.501  30.685  12.434
36146W        W 1131   8.918   2.038  12.008
36147W        W 1132  26.569   5.449  11.442
36148W        W 1133  13.796  24.959   4.458
36149W        W 1134  34.168  41.990  12.821
36150W        W 1135  33.408   1.215   1.985
36151W        W 1136  17.484  41.946  11.669
36152W        W 1137  37.374  35.301  12.991
36153W        W 1138  36.404  30.846  12.699
36154W        W 1139  20.162  28.648   4.320
36155W        W 1140  17.022   7.908   3.671
36156W        W 1141  10.671  26.772  14.353
36157W        W 1142  44.809  26.309  14.488
36158W        W 1143  35.507  40.363   2.603
36159W        W 1144   3.165   9.773  13.942
36160W        W 1145  31.483  14.067   0.690
36161W        W 1146  17.837  43.348   1.273
36162W        W 1147  12.694  30.155   2.177
36163W        W 1148  15.143  36.556   3.593
36164W        W 1149   9.711  33.748   0.453
36165W        W 1150  21.293   9.929  12.067
36166W        W 1151  28.059  11.166   4.801
36167W        W 1152  31.506  14.063   0.160
36168W        W 1153  38.563  19.213   0.068
36169W        W 1154  39.558  29.541  13.369
36170W        W 1155  22.043  30.961  12.560
36171W        W 1156  19.785  33.112  14.325
36172W        W 1157  15.076  29.633  13.858
36173W        W 1158   8.209  41.313  12.035
36174W        W 1159  13.102   3.857   5.054
36175W        W 1160  37.430  16.713   1.802
36176W        W 1161   9.212  15.859   1.326
36177W        W 1162  43.092  25.463   3.181
36178W        W 1163  43.292   6.750   4.075
36179W        W 1164  39.847   2.849  11.755
36180W        W 1165  22.412   4.234  11.928
36181W        W 1166  14.191   0.689   1.498
36182W        W 1167  20.055   4.579   3.263
36183W        W 1168  36.177  37.883  11.943
36184W        W 1169   4.978  17.083  13.018
36185W        W 1170  12.665   1.277   3.049
36186W        W 1171  38.053  15.806   3.247
36187W        W 1172  18.320  13.857   2.260
36188W        W 1173   1.839  11.875   4.277
36189W        W 1174   1.260   6.899   3.295
36190W        W 1175  32.409   5.387   0.390
36191W        W 1176  25.739  20.181  11.607
36192W        W 1177   0.996  22.008   2.878
36193W        W 1178  17.206  31.123   4.737
36194W        W 1179   8.678  44.555  13.879
36195W        W 1180  36.018  42.886   1.568
36196W        W 1181  43.825  16.660   0.367
36197W        W 1182   2.334  11.819  12.994
36198W        W 1183  32.471   6.172   4.415
36199W        W 1184  20.695  34.642   0.568
36200W        W 1185  22.265  39.502  14.749
36201W        W 1186   9.308  20.626  14.040
36202W        W 1187  16.708  17.750  12.738
36203W        W 1188   7.487  30.904  11.191
36204W        W 1189  13.756  28.095  14.574
36205W        W 1190  12.911  35.569   2.635
36206W        W 1191   3.377   6.806  10.633
36207W        W 1192   6.211  15.115   4.553
36208W        W 1193  37.880  29.002   2.295
36209W        W 1194   0.876  11.146   1.344
36210W        W 1195  42.186   4.982  10.338
36211W        W 1196   7.218  32.118   0.933
36212W        W 1197  33.081   2.840   4.575
36213W        W 1198  25.858  39.797  14.612
36214W        W 1199  31.825  28.062  11.967
36215W        W 1200  44.388  26.975  12.492
36216W        W 1201   4.159  10.809   0.046
36217W        W 1202  34.146  29.212   2.750
36218W        W 1203  42.584  14.741  13.851
36219W        W 1204  26.210  41.369   0.883
36220W        W 1205  38.111   5.997   2.225
36221W        W 1206  34.732  39.043  11.221
36222W        W 1207  32.022  30.156  11.687
36223W        W 1208  38.418   1.825  11.920
36224W        W 1209  22.094  12.367   4.097
36225W        W 1210  21.659  12.252   2.918
36226W        W 1211   6.974  33.049   2.912
36227W        W 1212  38.155  14.683   1.888
36228W        W 1213   8.980  26.945  13.404
36229W        W 1214  19.475  29.875   1.804
36230W        W 1215  43.330  25.415  10.182
36231W        W 1216  19.661  34.048  13.365
36232W        W 1217  40.253   5.093  13.472
36233W        W 1218  13.398  20.102  11.785
36234W        W 1219  12.836  10.220  13.506
36235W        W 1220  38.341  19.036  12.412
36236W        W 1221  10.898  23.237   1.721
36237W        W 1222  39.527  22.074   1.213
36238W        W 1223   7.172   7.419   2.386
36239W        W 1224  23.188  14.676   1.885
36240W        W 1225  36.387  21.524   0.829
36241W        W 1226   7.243  23.610   2.336
36242W        W 1227  35.967  25.092  10.754
36243W        W 1228  18.566  24.539  13.505
36244W        W 1229  43.545  17.651   0.116
36245W        W 1230  26.644  25.940  11.903
36246W        W 1231  10.407  29.609   3.957
36247W        W 1232  11.650  22.283   1.368
36248W        W 1233  40.943  32.040   1.293
36249W        W 1234  26.457  15.220   1.602
36250W        W 1235  34.790   8.639  11.259
36251W        W 1236  28.722  30.423  12.568
36252W        W 1237   6.820  40.787   4.150
36253W        W 1238  12.607  13.567   3.717
36254W        W 1239  32.568  29.862  14.715
36255W        W 1240  44.598   2.571  13.505
36256W        W 1241  38.990  21.863  13.067
36257W        W 1242  11.392   5.746   3.194
36258W        W 1243  19.688  37.793  14.568
36259W        W 1244  39.597  40.589  13.185
36260W        W 1245  28.725  26.444   3.053
36261W        W 1246  34.995  26.575  11.947
36262W        W 1247  38.917  25.930   1.273
36263W        W 1248  44.017  18.810  11.404
36264W        W 1249  21.622   3.417  13.957
36265W        W 1250  23.557  34.904  14.414
36266W        W 1251  32.059  29.754   4.663
36267W        W 1252   4.713  13.272  12.834
36268W        W 1253   7.568  15.160   0.084
36269W        W 1254  17.026   8.147   0.993
36270W        W 1255  22.091  33.754  12.888
36271W        W 1256  12.045  14.142  11.055
36272W        W 1257  27.596  19.623   4.427
36273W        W 1258  33.630  17.978  14.090
36274W        W 1259  18.861  30.727   0.096
36275W        W 1260  37.998  37.828  11.485
36276W        W 1261  10.743   4.472  14.967
36277W        W 1262  13.553  39.947   0.520
36278W        W 1263  29.613  16.430   0.822
36279W        W 1264  10.774  21.539   4.371
36280W        W 1265  26.749  25.239  14.409
36281W        W 1266  29.648  42.966  14.913
36282W        W 1267  42.063  35.651   3.655
36283W        W 1268  19.278  44.888   0.527
36284W        W 1269  39.922  11.591   3.233
36285W        W 1270   8.721  23.167   1.532
36286W        W 1271   7.031  33.786  10.349
36287W        W 1272  44.285  31.624   3.611
36288W        W 1273  19.531  22.713  12.526
36289W        W 1274  43.819  11.572   2.268
36290W        W 1275   7.991  12.684   4.495
36291W        W 1276  31.387  28.768  14.865
36292W        W 1277  42.242  34.102   2.315
36293W        W 1278  32.557  36.329  10.756
36294W        W 1279   7.352   0.606  12.481
36295W        W 1280   0.653  20.746  10.915
36296W        W 1281   9.183  27.962   4.183
36297W        W 1282  33.613  35.884  12.933
36298W        W 1283  43.874  28.614   0.802
36299W        W 1284  28.430  12.204  13.896
36300W        W 1285   3.048  22.627  12.840
36301W        W 1286  30.990  23.759   4.775
36302W        W 1287  31.478  23.551   2.514
36303W        W 1288  13.596  10.411   3.191
36304W        W 1289   4.818   9.816   1.267
36305W        W 1290   0.012  35.756   3.290
36306W        W 1291   8.194  21.398  11.965
36307W        W 1292  17.180  17.519   3.314
36308W        W 1293  43.820  32.600  11.069
36309W        W 1294  10.278  32.476   1.264
36310W        W 1295  10.103  30.684   1.808
36311W        W 1296   3.805  17.151   2.265
36312W        W 1297  37.291  23.567   0.787
36313W        W 1298   0.729  22.090   4.691
36314W        W 1299  41.806  18.210   3.083
36315W        W 1300  16.630  30.041  11.866
36316W        W 1301  20.757  39.983   2.301
36317W        W 1302  18.587   0.401  12.136
36318W        W 1303   3.952   9.305  12.432
36319W        W 1304   5.718  25.884   4.360
36320W        W 1305   1.293  20.527  14.708
36321W        W 1306   6.859  24.976   3.126
36322W        W 1307   6.355  44.638   2.712
36323W        W 1308  31.357  18.162   4.776
36324W        W 1309  37.337  43.179   2.222
36325W        W 1310  21.293  23.619   3.895
36326W        W 1311  22.944  31.927   2.758
36327W        W 1312  25.358   7.357  13.483
36328W        W 1313  25.290  36.962   4.246
36329W        W 1314  44.239   4.110  11.285
36330W        W 1315   3.202  40.011  14.712
36331W        W 1316  20.491  22.252   3.111
36332W        W 1317  11.554  32.884  13.621
36333W        W 1318  19.792  44.903  13.074
36334W        W 1319  37.018  10.958  10.909
36335W        W 1320  24.654  25.274   2.128
36336W        W 1321  34.890  18.339   1.853
36337W        W 1322  10.112  19.719   1.812
36338W        W 1323  38.507  31.104   0.500
36339W        W 1324  23.090  43.807   2.329
36340W        W 1325  37.957   3.321  10.640
36341W        W 1326   6.848  37.811   4.590
36342W        W 1327  37.424   8.698   0.998
36343W        W 1328  42.146  21.717   5.462
36344W        W 1329  17.332  11.878   0.501
36345W        W 1330  18.809   3.874   2.827
36346W        W 1331  13.382  13.980   2.780
36347W        W 1332  38.641   5.965  13.516
36348W        W 1333  31.591  13.772   1.920
36349W        W 1334   8.693   8.857  10.932
36350W        W 1335  44.331   2.741   1.495
36351W        W 1336  19.188   9.714  14.841
36352W        W 1337   5.592  38.066  10.771
36353W        W 1338  10.126  16.857  10.351
36354W        W 1339   7.018  43.023   2.745
36355W        W 1340  25.255  42.392  11.092
36356W        W 1341  24.790   4.948   3.667
36357W        W 1342  30.055  44.486   2.657
36358W        W 1343   2.815  30.501   4.528
36359W        W 1344  20.056  29.017  11.938
36360W        W 1345  35.943  25.209  12.570
36361W        W 1346  10.710   8.945  13.435
36362W        W 1347  30.759  42.852   1.388
36363W        W 1348  42.420  39.780  10.852
36364W        W 1349   1.369   2.122   0.682
36365W        W 1350  29.096  15.317  10.488
36366W        W 1351   9.830  23.216  13.945
36367W        W 1352  35.004  26.020  11.185
36368W        W 1353  14.107  41.419   2.429
36369W        W 1354  18.821  25.430  11.097
36370W        W 1355  10.912  35.025   4.454
36371W        W 1356  41.698  12.338  11.048
36372W        W 1357   0.185  18.986   3.150
36373W        W 1358  35.603   2.995   0.879
36374W        W 1359  26.525  42.875  13.828
36375W        W 1360  25.039  12.437  13.842
36376W        W 1361   6.327  10.270   0.461
36377W        W 1362  27.425   6.843  14.326
36378W        W 1363  16.613  11.744  12.374
36379W        W 1364  32.471  16.185   3.784
36380W        W 1365  27.004  19.270   4.964
36381W        W 1366  26.313   8.913   2.644
36382W        W 1367  27.996  33.010  12.888
36383W        W 1368  24.051  27.597  14.384
36384W        W 1369  24.452   0.985   4.170
36385W        W 1370   7.550  12.819  11.971
36386W        W 1371  11.220   6.637  10.587
36387W        W 1372  10.071  12.567  11.187
36388W        W 1373  11.393  34.105   3.010
36389W        W 1374   2.824   9.144  14.372
36390W        W 1375  22.606  29.236   1.059
36391W        W 1376  27.068   9.661  12.543
36392W        W 1377   7.288   7.994   2.780
36393W        W 1378   4.613  34.389  12.303
36394W        W 1379   7.588  23.061   2.986
36395W        W 1380  30.480   7.560   2.781
36396W        W 1381  22.265   2.975   0.452
36397W        W 1382  23.170  27.110   0.194
36398W        W 1383  37.126  17.324  11.587
36399W        W 1384   0.038  35.924  10.172
36400W        W 1385  11.680  33.486   1.877
36401W        W 1386   0.035  36.327   2.005
36402W        W 1387   1.503  22.008   1.832
36403W        W 1388  29.153  35.549   4.585
36404W        W 1389  22.008  29.510  13.409
36405W        W 1390  44.721  30.098  12.956
36406W        W 1391  40.037  23.702   2.880
36407W        W 1392  31.740  27.002   4.129
36408W        W 1393  31.978   3.679  14.305
36409W        W 1394   9.901  40.205   0.836
36410W        W 1395   0.486  31.151  13.470
36411W        W 1396  12.783  41.519  12.945
36412W        W 1397  38.602   3.887  13.348
36413W        W 1398  16.366  39.616  11.201
36414W        W 1399  26.264  41.210   4.096
36415W        W 1400   3.997  18.091   4.652
36416W        W 1401  11.110  25.582   3.952
36417W        W 1402  36.061  21.990  13.832
36418W        W 1403   0.282  26.739   3.146
36419W        W 1404  34.891  27.118   5.098
36420W        W 1405  31.865   1.334  12.594
36421W        W 1406  35.834  24.215   2.296
36422W        W 1407  38.290  28.664   2.794
36423W        W 1408  27.672   9.345  12.141
36424W        W 1409  10.694  17.716  14.435
36425W        W 1410  14.023   9.242  12.357
36426W        W 1411  11.104  14.855   1.694
36427W        W 1412   0.176  30.463   1.863
36428W        W 1413  30.398  41.004  13.553
36429W        W 1414  33.508  22.018   4.563
36430W        W 1415  38.974  42.616   1.571
36431W        W 1416   9.611   2.397  13.023
36432W        W 1417  38.464  26.897   4.019
36433W        W 1418  17.827   2.376   3.316
36434W        W 1419  34.469  30.434   1.717
36435W        W 1420   0.023   6.936   4.530
36436W        W 1421   2.076  10.751   4.374
36437W        W 1422  23.720  10.091  12.576
36438W        W 1423  12.658   6.407  12.019
36439W        W 1424  14.144  34.810   2.481
36440W        W 1425   9.202  44.932   4.778
36441W        W 1426  14.306  29.573  12.516
36442W        W 1427  15.664  18.307   3.839
36443W        W 1428   0.215  26.185   4.271
36444W        W 1429   1.297   5.064   2.672
36445W        W 1430   7.713  33.502  13.526
36446W        W 1431  19.438  21.908  14.893
36447W        W 1432  42.637  34.245  10.817
36448W        W 1433  44.811   8.346   1.609
36449W        W 1434  18.612  28.840   3.189
36450W        W 1435  32.038  18.965   4.629
36451W        W 1436  25.136   0.289  11.422
36452W        W 1437  21.483   6.888   0.441
36453W        W 1438  33.567  29.129   3.592
36454W        W 1439  33.199  16.755   2.881
36455W        W 1440  38.340  43.832   4.546
36456W        W 1441  13.294  30.675  10.595
36457W        W 1442  34.783   0.337   2.788
36458W        W 1443  44.570  11.579  12.949
36459W        W 1444  23.562  32.053   4.564
36460W        W 1445  12.871  11.847   3.197
36461W        W 1446  42.457  26.685  13.773
36462W        W 1447   6.107  11.357   2.889
36463W        W 1448   5.575  34.088  13.799
36464W        W 1449  43.326   3.790  11.730
36465W        W 1450  18.473  29.454   4.019
36466W        W 1451   5.252  29.976  14.098
36467W        W 1452  33.966  33.719   3.255
36468W        W 1453  23.629   2.476  11.702
36469W        W 1454  18.135  29.758   1.885
36470W        W 1455  41.303  39.167  11.995
36471W        W 1456   1.837  26.113  11.653
36472W        W 1457  20.997  28.619   2.168
36473W        W 1458  20.671  36.303   3.667
36474W        W 1459  43.418  25.468  12.538
36475W        W 1460  22.260   0.305   2.529
36476W        W 1461  32.510  13.662   2.940
36477W        W 1462  17.499  20.123  14.048
36478W        W 1463  18.762  31.978  13.274
36479W        W 1464   8.232  37.154  14.886
36480W        W 1465  29.281  27.294   3.845
36481W        W 1466  37.821   9.160  11.465
36482W        W 1467  27.245  18.826   0.297
36483W        W 1468  19.562  26.580  13.403
36484W        W 1469   1.281  22.754   3.611
36485W        W 1470  32.124  38.653   4.058
36486W        W 1471  44.497  36.627   2.746
36487W        W 1472  21.075  15.370   2.176
36488W        W 1473   0.400  20.550  14.875
36489W        W 1474  35.026  24.602   1.220
36490W        W 1475  44.115   9.876  10.275
36491W        W 1476  26.130  24.576   1.441
36492W        W 1477   7.645  42.829   4.357
36493W        W 1478  18.828  11.490   3.318
36494W        W 1479  41.936  22.962   1.783
36495W        W 1480  27.523   7.690   3.690
36496W        W 1481   5.723  44.766  13.458
36497W        W 1482  41.543   3.172   1.301
36498W        W 1483  10.075   6.098   1.297
36499W        W 1484  27.957  37.851  10.260
36500W        W 1485  42.745  29.400  12.835
36501W        W 1486  39.936  38.381   2.730
36502W        W 1487  15.917  37.982  10.554
36503W        W 1488  18.500  34.826   2.883
36504W        W 1489   6.032  17.272  13.524
36505W        W 1490  33.573  42.908   0.742
36506W        W 1491  10.347  38.501  10.751
36507W        W 1492  33.528  10.896  13.266
36508W        W 1493  21.462  44.478  11.853
36509W        W 1494  26.151  11.064  12.968
36510W        W 1495  20.050  14.713  12.495
36511W        W 1496  10.155  22.534  10.633
36512W        W 1497  36.433  36.808   0.681
36513W        W 1498  16.791  40.746  12.489
36514W        W 1499  37.004  44.137   2.516
36515W        W 1500  12.233  27.202   5.509
36516W        W 1501  42.023  29.440   2.837
36517W        W 1502  16.683  18.711  14.490
36518W        W 1503   3.883  30.420   3.678
36519W        W 1504  28.729   2.629   2.119
36520W        W 1505  18.561  22.423   2.609
36521W        W 1506  41.571  22.130  12.879
36522W        W 1507   3.827  30.232  12.505
36523W        W 1508  44.722  26.908   4.249
36524W        W 1509  12.629  21.147  14.810
36525W        W 1510   8.196  16.342   3.318
36526W        W 1511  11.581  17.989   3.844
36527W        W 1512  43.489  23.652   1.236
36528W        W 1513  23.455  26.507  12.122
36529W        W 1514  32.352   6.673   4.231
36530W        W 1515  34.769  24.522   3.951
36531W        W 1516   9.292  40.030   3.176
36532W        W 1517   3.363  13.190   1.963
36533W        W 1518  16.621   7.147   4.553
36534W        W 1519  10.913   1.409  10.219
36535W        W 1520  33.946  44.019  14.109
36536W        W 1521  10.582  44.229  12.691
36537W        W 1522   7.382   9.357  12.010
36538W        W 1523  43.008  22.244   3.298
36539W        W 1524  33.879  15.833  14.933
36540W        W 1525   5.652  39.576  11.633
36541W        W 1526  42.295   9.672   0.193
36542W        W 1527  39.379  33.092   2.589
36543W        W 1528  36.763  13.846  12.546
36544W        W 1529   2.160  30.508   1.682
36545W        W 1530  28.452  18.789  13.438
36546W        W 1531  21.296  35.564   4.764
36547W        W 1532  32.106  36.766   3.285
36548W        W 1533  17.834   6.920  14.311
36549W        W 1534  25.840  31.118   1.331
36550W        W 1535   6.391  32.341   3.656
36551W        W 1536  31.612   4.818  10.638
36552W        W 1537   2.125  19.889   1.619
36553W        W 1538  10.774  41.234   2.125
36554W        W 1539  10.735   4.482  11.008
36555W        W 1540  22.181  39.863  12.084
36556W        W 1541  20.122  32.457  13.747
36557W        W 1542  15.612  13.225  13.390
36558W        W 1543  44.258   7.218   4.054
36559W        W 1544  41.571  23.998   3.531
36560W        W 1545  33.580  38.449   4.610
36561W        W 1546  31.386   0.881  12.980
36562W        W 1547  34.416   2.366  10.468
36563W        W 1548  23.106  39.139  13.077
36564W        W 1549  31.379  10.201   2.711
36565W        W 1550   2.888  37.599  11.127
36566W        W 1551   0.729  38.624  10.810
36567W        W 1552  18.100   3.259   1.640
36568W        W 1553  25.627  43.950  12.439
36569W        W 1554  38.774  35.973   0.891
36570W        W 1555  12.289  43.713   3.609
36571W        W 1556  32.052  38.421  14.798
36572W        W 1557   2.151  27.082  12.557
36573W        W 1558  18.855  24.172  10.634
36574W        W 1559  35.490  39.605  12.050
36575W        W 1560  28.460   9.714  12.960
36576W        W 1561  32.729   0.348   0.150
36577W        W 1562  38.515  35.466  14.743
36578W        W 1563  11.434  24.278  13.900
36579W        W 1564  36.438  41.558   2.630
36580W        W 1565  42.330  31.021  13.338
36581W        W 1566  13.614  22.482   0.163
36582W        W 1567  34.411  34.955  13.414
36583W        W 1568  30.597  42.482   2.320
36584W        W 1569   3.475  29.292  11.632
36585W        W 1570  44.456  24.270   3.685
36586W        W 1571  30.039  25.729  14.915
36587W        W 1572  39.068  40.479   3.591
36588W        W 1573  12.527  25.512   3.349
36589W        W 1574  33.543  42.812  11.607
36590W        W 1575  29.034  33.483   0.651
36591W        W 1576  21.488  25.475   4.703
36592W        W 1577  14.545   3.304   1.250
36593W        W 1578   1.499   2.793  12.450
36594W        W 1579  44.002   4.353  14.898
36595W        W 1580   0.979   1.210   0.500
36596W        W 1581  17.822  15.636   4.590
36597W        W 1582  34.031  21.062   3.053
36598W        W 1583  35.874  28.950  10.748
36599W        W 1584   4.923  11.915   4.044
36600W        W 1585  21.812   6.467   0.389
36601W        W 1586   0.323  44.060  10.589
36602W        W 1587  13.594  23.671   1.366
36603W        W 1588   9.609  28.814  12.945
36604W        W 1589  35.016   9.601   3.363
36605W        W 1590  38.218   7.708  12.501
36606W        W 1591  35.848  34.509  13.856
36607W        W 1592  18.551  26.607   3.876
36608W        W 1593  33.730  12.842  10.284
36609W        W 1594   9.836  38.215  13.871
36610W        W 1595  33.018  20.850  12.031
36611W        W 1596  19.929  44.222  13.562
36612W        W 1597   4.331   3.790   0.945
36613W        W 1598  20.607  29.690   1.252
36614W        W 1599   6.499  19.143   3.650
36615W        W 1600  36.655   9.290   9.851
36616W        W 1601  20.617  20.878   5.551
36617W        W 1602  10.303  16.629   4.205
36618W        W 1603  23.921  40.197   4.263
36619W        W 1604  39.279  20.068  10.741
36620W        W 1605  40.982   7.453  11.214
36621W        W 1606   3.522  18.033   4.832
36622W        W 1607  22.713  20.183   9.774
36623W        W 1608  39.293  18.279  12.621
36624W        W 1609  37.465  42.039  12.966
36625W        W 1610  42.931  29.085   1.651
36626W        W 1611  16.135  25.597  13.403
36627W        W 1612  37.269  32.094   3.222
36628W        W 1613   9.857   1.716   3.161
36629W        W 1614   1.615   7.448  13.963
36630W        W 1615  22.891  36.265   0.816
36631W        W 1616  24.143  42.470   1.921
36632W        W 1617  30.558  25.930   3.216
36633W        W 1618   1.975   7.011   2.922
36634W        W 1619  19.838  10.806   1.539
36635W        W 1620  11.439   2.765   2.590
36636W        W 1621  32.112  41.888  13.050
36637W        W 1622  35.728  16.607   3.589
36638W        W 1623   9.838  13.831  11.082
36639W        W 1624  17.563  37.614  14.755
36640W        W 1625  39.377  21.956  12.447
36641W        W 1626  38.356  23.428   3.323
36642W        W 1627  27.926  12.653   0.273
36643W        W 1628  33.353  34.686   3.650
36644W        W 1629  27.514  11.623  14.007
36645W        W 1630  22.697  27.547   0.792
36646W        W 1631  19.042  14.937   0.279
36647W        W 1632  22.299  30.705   3.235
36648W        W 1633  43.494  26.093   0.315
36649W        W 1634  26.360  32.118   3.703
36650W        W 1635  29.188  30.172  12.580
36651W        W 1636   7.892  32.953   1.064
36652W        W 1637  25.015   5.438   2.269
36653W        W 1638  12.775  12.221  13.563
36654W        W 1639  12.345  20.478  11.981
36655W        W 1640  11.926  11.673   3.820
36656W        W 1641  17.563  11.185   4.176
36657W        W 1642  32.456   0.345   0.656
36658W        W 1643  27.451  43.842   4.791
36659W        W 1644   2.611  11.254   0.762
36660W        W 1645  13.045   5.696  12.985
36661W        W 1646  42.498   7.599   0.837
36662W        W 1647  27.815  29.447  12.070
36663W        W 1648  27.203  11.043  12.884
36664W        W 1649  18.217  26.073   3.808
36665W        W 1650  16.755   7.917   3.204
36666W        W 1651  16.354  21.917  12.485
36667W        W 1652   3.365  19.530  13.461
36668W        W 1653  22.012  18.069  12.411
36669W        W 1654  38.619   2.107  11.001
36670W        W 1655  29.610   5.056  13.700
36671W        W 1656  29.726  25.407  11.126
36672W        W 1657  33.041  42.278  10.889
36673W        W 1658  36.897   4.267  11.747
36674W        W 1659  32.278  16.918  10.989
36675W        W 1660  33.484  28.885   0.767
36676W        W 1661   1.312   4.189  13.499
36677W        W 1662  43.430  24.336   3.801
36678W        W 1663  16.242  33.086   3.781
36679W        W 1664  24.173  14.602   2.307
36680W        W 1665   1.722  25.163  11.887
36681W        W 1666  34.079  11.830   0.317
36682W        W 1667  30.379  19.518   0.339
36683W        W 1668  23.197  16.360  12.423
36684W        W 1669   5.258  21.776   1.977
36685W        W 1670  23.669  10.198  13.067
36686W        W 1671  43.229  12.570  12.982
36687W        W 1672  42.385  22.041  13.532
36688W        W 1673   1.390  19.659  12.964
36689W        W 1674  18.670  36.796  12.828
36690W        W 1675  18.473   4.438   4.908
36691W        W 1676  11.375  32.763   3.420
36692W        W 1677  14.691   8.267  13.474
36693W        W 1678  19.286  30.592   3.174
36694W        W 1679   1.986  36.050  12.462
36695W        W 1680  23.139  36.458  13.366
36696W        W 1681  22.179  24.645   3.029
36697W        W 1682   1.556  42.721  12.641
36698W        W 1683  11.353  13.595   0.301
36699W        W 1684  38.740  13.199   5.113
36700W        W 1685  32.884   1.539  11.982
36701W        W 1686   1.886   4.701  11.601
36702W        W 1687  18.035  12.971   3.784
36703W        W 1688  18.191  40.960  11.723
36704W        W 1689  20.171  22.769   1.386
36705W        W 1690  39.315  32.670  11.128
36706W        W 1691  42.918   5.434  12.518
36707W        W 1692  40.781  40.156   0.107
36708W        W 1693  41.440  23.036  13.125
36709W        W 1694  20.056   6.532   4.153
36710W        W 1695   2.929   7.913  13.523
36711W        W 1696  25.152  13.369   0.364
36712W        W 1697  25.988   3.034  14.977
36713W        W 1698  14.160  42.430   2.849
36714W        W 1699   3.991   2.555  14.893
36715W        W 1700  31.609  44.694   1.282
36716W        W 1701  29.564   0.536  14.849
36717W        W 1702  19.760  41.389  13.562
36718W        W 1703  11.804  22.277  10.810
36719W        W 1704   0.091  44.763   1.644
36720W        W 1705  13.349   7.291  10.790
36721W        W 1706  35.063  27.870   0.422
36722W        W 1707   6.367  14.811  11.150
36723W        W 1708  16.336   7.471   1.204
36724W        W 1709  31.544  38.031   0.895
36725W        W 1710   4.731  16.552  10.165
36726W        W 1711  37.939  23.062  10.443
36727W        W 1712  33.327  14.973   3.752
36728W        W 1713  10.437  39.247  13.074
36729W        W 1714  25.743  22.587   4.586
36730W        W 1715   1.311  30.169   0.434
36731W        W 1716   4.824  12.866   3.973
36732W        W 1717  35.637  10.049  14.997
36733W        W 1718  17.494  24.682   3.299
36734W        W 1719  29.076  10.220  10.616
36735W        W 1720  10.146  24.267   5.094
36736W        W 1721  40.358  43.083  11.611
36737W        W 1722  18.611   3.544   2.485
36738W        W 1723  25.543  43.087  14.543
36739W        W 1724  11.266   8.845   0.892
36740W        W 1725  19.750  24.758  13.799
36741W        W 1726  25.231  33.988   3.254
36742W        W 1727  30.455  32.970  14.356
36743W        W 1728  41.943  28.128  11.672
36744W        W 1729   3.019  14.344  11.533
36745W        W 1730  31.123  18.671   3.679
36746W        W 1731  41.953  35.744  10.544
36747W        W 1732   5.310  16.619   0.805
36748W        W 1733  23.555  22.126  14.019
36749W        W 1734  18.744   2.740  10.626
36750W        W 1735  40.892   2.939  14.393
36751W        W 1736  27.035  34.336   3.203
36752W        W 1737  22.776   1.403   9.613
36753W        W 1738  15.112  15.498  14.866
36754W        W 1739  10.609  28.616  14.752
36755W        W 1740   5.742  37.334   1.048
36756W        W 1741  32.352  26.661  13.916
36757W        W 1742  20.598  38.523  14.374
36758W        W 1743   8.800  29.936  14.878
36759W        W 1744   1.921  18.063  13.896
36760W        W 1745   1.332  20.295  11.258
36761W        W 1746  34.822  21.175  11.589
36762W        W 1747   3.381   4.309  12.352
36763W        W 1748  18.769  43.438   2.834
36764W        W 1749   9.362  19.239   0.260
36765W        W 1750  28.346  26.649   1.603
36766W        W 1751  26.598  17.094   0.434
36767W        W 1752  14.116   0.364  10.484
36768W        W 1753  15.600  25.987   5.467
36769W        W 1754  32.533   4.595   1.530
36770W        W 1755  27.433   2.168  14.033
36771W        W 1756  43.121  37.112   0.405
36772W        W 1757   0.352  16.677   2.364
36773W        W 1758  26.239  31.154  12.032
36774W        W 1759  33.411  14.658   3.338
36775W        W 1760  33.452  39.439   4.350
36776W        W 1761  20.245  10.157  13.919
36777W        W 1762  13.809  21.009  14.633
36778W        W 1763  37.893  35.542  13.917
36779W        W 1764   4.964  37.052   4.487
36780W        W 1765   5.184  28.682  12.433
36781W        W 1766  27.228  11.276   1.843
36782W        W 1767  20.104   9.607  13.052
36783W        W 1768  11.456  15.573  10.904
36784W        W 1769   1.987   2.783  11.892
36785W        W 1770   8.391   7.141   0.721
36786W        W 1771   3.426  17.092   1.259
36787W        W 1772   9.284  20.096   1.935
36788W        W 1773  43.898  27.347  13.785
36789W        W 1774  27.110  34.401   0.342
36790W        W 1775  19.259   2.248   1.142
36791W        W 1776  36.862  15.299  13.868
36792W        W 1777  18.239  34.284  10.840
36793W        W 1778  33.922   8.413   1.157
36794W        W 1779  42.828  42.994  10.543
36795W        W 1780  27.190   7.684  11.995
36796W        W 1781  40.379  23.012  12.109
36797W        W 1782   7.973  41.753  14.430
36798W        W 1783  40.485  21.024  14.329
36799W        W 1784   4.644   1.986  14.778
36800W        W 1785  44.465   9.372   2.732
36801W        W 1786   2.948   2.383  10.831
36802W        W 1787  38.967   3.883   3.722
36803W        W 1788  31.558  18.792   1.465
36804W        W 1789   3.794  19.965  10.768
36805W        W 1790  29.960   9.766   4.678
36806W        W 1791   8.237  44.006  14.764
36807W        W 1792  37.106  35.649   0.277
36808W        W 1793  13.743  27.705   0.257
36809W        W 1794  29.628  14.497  11.963
36810W        W 1795  31.885   4.176   3.750
36811W        W 1796  14.091  34.996   0.940
36812W        W 1797  36.970  31.987   3.662
36813W        W 1798  44.326   5.422  10.692
36814W        W 1799  29.136  10.195   0.507
36815W        W 1800  44.759  24.975  14.492
36816W        W 1801  20.209  17.934   4.868
36817W        W 1802   2.880  31.595   4.106
36818W        W 1803  32.350  31.682   2.280
36819W        W 1804  21.071  42.208  12.941
36820W        W 1805  21.147   4.919  10.854
36821W        W 1806  20.959  37.861   4.192
36822W        W 1807  30.046  35.490   4.498
36823W        W 1808  32.444  15.237  11.119
36824W        W 1809  37.287  13.819   3.653
36825W        W 1810  33.154   1.303   0.937
36826W        W 1811  14.884   8.822  11.220
36827W        W 1812   4.284  18.305   1.354
36828W        W 1813  31.955   5.385   2.696
36829W        W 1814  26.616  20.008  11.239
36830W        W 1815  41.910   3.948   2.367
36831W        W 1816  30.495   6.243   0.972
36832W        W 1817   5.896  39.488  14.510
36833W        W 1818   1.950   8.303   2.841
36834W        W 1819  31.642  22.216  13.651
36835W        W 1820  26.978   4.915  14.671
36836W        W 1821  36.579  15.213  14.767
36837W        W 1822   2.418  25.186  13.823
36838W        W 1823   1.567  26.774   3.419
36839W        W 1824  34.025   9.859   4.508
36840W        W 1825  25.347  31.627   3.054
36841W        W 1826   7.623  18.650   4.220
36842W        W 1827  32.820  44.385   3.313
36843W        W 1828  28.445  36.865   2.669
36844W        W 1829  38.398  24.777  10.213
36845W        W 1830  20.109  14.637  14.528
36846W        W 1831  43.428   6.115  10.735
36847W        W 1832  30.504  14.532   0.940
36848W        W 1833  39.505  19.063   2.965
36849W        W 1834  40.813  22.033  12.332
36850W        W 1835  42.347  32.883   2.718
36851W        W 1836  28.575  34.551   4.254
36852W        W 1837  36.519  19.772  13.064
36853W        W 1838  22.209  32.584  10.559
36854W        W 1839  20.945   9.553  13.435
36855W        W 1840  29.455  23.109   0.961
36856W        W 1841  14.488  29.300   3.194
36857W        W 1842  43.901   7.915  14.314
36858W        W 1843  27.201   3.848   3.670
36859W        W 1844   5.295  28.638  11.584
36860W        W 1845   6.757  15.813   1.535
36861W        W 1846  31.370  43.021  11.622
36862W        W 1847  10.850  11.083  12.895
36863W        W 1848  44.356  41.776  10.988
36864W        W 1849  34.507   5.284  12.478
36865W        W 1850  15.849  30.246   5.447
36866W        W 1851   8.648   2.521  12.912
36867W        W 1852  26.108  31.361  12.506
36868W        W 1853  14.612  15.996   1.575
36869W        W 1854  25.298  30.189   1.419
36870W        W 1855  43.425  18.966  13.069
36871W        W 1856   7.419  32.982  10.579
36872W        W 1857  30.484  11.930  11.162
36873W        W 1858  13.681  38.649  11.685
36874W        W 1859  15.824  17.780  13.526
36875W        W 1860  12.520   0.887   3.606
36876W        W 1861   0.029  28.004  14.430
36877W        W 1862  37.641  35.001  14.895
36878W        W 1863   9.212  41.409  11.698
36879W        W 1864  25.231  11.360   3.214
36880W        W 1865   7.412   6.803   3.121
36881W        W 1866  24.147  23.436  11.238
36882W        W 1867  12.800   0.801  10.457
36883W        W 1868  39.040  14.750   4.465
36884W        W 1869  33.552  34.215   2.037
36885W        W 1870  25.578  22.767   0.326
36886W        W 1871  12.365  17.139  13.477
36887W        W 1872  28.135  14.244  11.084
36888W        W 1873  16.519  29.996   0.829
36889W        W 1874  11.557  19.331   4.297
36890W        W 1875   6.675  26.029   2.892
36891W        W 1876  23.716  26.008   2.397
36892W        W 1877  31.112  32.973  13.311
36893W        W 1878  19.222  27.567  11.494
36894W        W 1879  30.593   8.594   4.976
36895W        W 1880  30.066  25.636   4.076
36896W        W 1881  43.855  43.183   1.701
36897W        W 1882  17.365  28.745  14.584
36898W        W 1883   1.700  41.804  14.813
36899W        W 1884  12.735   9.150   4.669
36900W        W 1885  42.376   4.394  14.363
36901W        W 1886  15.795  24.835   4.151
36902W        W 1887   1.886  20.451  11.474
36903W        W 1888   3.733  25.429  11.341
36904W        W 1889  38.965  25.929  13.750
36905W        W 1890  34.445  33.679  13.833
36906W        W 1891  20.640  33.809   0.947
36907W        W 1892   0.721  16.705  12.494
36908W        W 1893  34.100   5.048   0.017
36909W        W 1894   7.170  27.487   4.935
36910W        W 1895  10.559  12.691  11.127
36911W        W 1896  38.473  31.476   2.868
36912W        W 1897  27.656  18.269   4.165
36913W        W 1898  37.905  15.769   2.286
36914W        W 1899  22.254   7.472   4.414
36915W        W 1900  30.060  44.059  12.576
36916W        W 1901   9.204  22.445   1.858
36917W        W 1902  29.723   8.261   2.764
36918W        W 1903  32.641  43.480   3.627
36919W        W 1904  34.563   5.185   3.716
36920W        W 1905   4.144  14.014  10.840
36921W        W 1906  38.883  26.751  12.067
36922W        W 1907   1.926   4.500   1.494
36923W        W 1908  44.393  21.172   4.112
36924W        W 1909  43.426  41.305   1.257
36925W        W 1910  11.736  32.689   4.490
36926W        W 1911   1.557  10.756   4.483
36927W        W 1912  10.769   8.854  12.851
36928W        W 1913   8.473  31.923   1.241
36929W        W 1914   7.243   4.243   2.257
36930W        W 1915   6.687  40.551  13.039
36931W        W 1916  38.114   7.664  10.209
36932W        W 1917   0.659  36.179   4.535
36933W        W 1918   8.311  16.064   1.400
36934W        W 1919  40.935  11.642  12.360
36935W        W 1920  40.941   2.768   1.875
36936W        W 1921  36.957  17.146  14.414
36937W        W 1922  25.012  21.004   0.768
36938W        W 1923  32.148  43.823   3.254
36939W        W 1924  18.311  11.455   1.598
36940W        W 1925  41.052  33.932  13.831
36941W        W 1926  32.968  17.364  12.009
36942W        W 1927  33.776  31.451   0.999
36943W        W 1928  41.326  16.358   1.878
36944W        W 1929  37.644   5.311   2.708
36945W        W 1930   6.834   1.847  13.789
36946W        W 1931   3.249  31.006  11.125
36947W        W 1932  33.398  20.237   4.074
36948W        W 1933  32.659  14.842  12.952
36949W        W 1934  26.037  33.192  10.954
36950W        W 1935  39.447  16.165   1.056
36951W        W 1936  43.529  38.529  13.780
36952W        W 1937  35.869  23.170  13.410
36953W        W 1938  18.100   9.187   2.404
36954W        W 1939  42.015  13.122  14.363
36955W        W 1940  43.311  18.871  13.801
36956W        W 1941  21.592  41.029  13.364
36957W        W 1942  15.128   4.724   3.092
36958W        W 1943  19.082   4.397   1.165
36959W        W 1944  34.804  43.052  12.442
36960W        W 1945  23.193  33.522   0.219
36961W        W 1946  26.611   3.734  13.724
36962W        W 1947   9.823   8.206   1.011
36963W        W 1948  10.782   0.920  13.860
36964W        W 1949  43.893  40.799  10.861
36965W        W 1950  41.729  15.797   1.346
36966W        W 1951  44.631  16.342   0.763
36967W        W 1952   3.948  28.154  13.959
36968W        W 1953  29.974   8.611  12.574
36969W        W 1954   1.382   9.125   3.662
36970W        W 1955  18.636  12.919   2.884
36971W        W 1956  20.012  34.643  11.517
36972W        W 1957  34.954  40.883  12.929
36973W        W 1958  22.443   0.950  13.545
36974W        W 1959  20.028   1.206   1.264
36975W        W 1960  35.005  30.669  13.235
36976W        W 1961   2.401  10.220  13.911
36977W        W 1962  13.630  44.882  14.888
36978W        W 1963   8.453  22.800  11.553
36979W        W 1964  14.800  25.984  12.467
36980W        W 1965  36.039  38.615  10.417
36981W        W 1966  15.779   5.236   2.308
36982W        W 1967  25.237  36.551   1.537
36983W        W 1968   6.937  42.393  10.888
36984W        W 1969  43.484  25.295   4.892
36985W        W 1970  43.398  23.320   4.866
36986W        W 1971   4.188  32.495   0.742
36987W        W 1972  29.246  35.361   4.102
36988W        W 1973  40.593  32.410  11.612
36989W        W 1974  35.449  38.916  14.280
36990W        W 1975  22.873   1.494   2.683
36991W        W 1976  36.572   9.496  11.594
36992W        W 1977   0.256  37.144  12.432
36993W        W 1978  12.340  34.449   0.363
36994W        W 1979  37.128  11.813  14.707
36995W        W 1980  17.966  38.319  12.036
36996W        W 1981  13.555  29.494   2.851
36997W        W 1982   1.982  12.669  11.739
36998W        W 1983  16.961  33.003   0.028
36999W        W 1984  11.435  33.111   1.318
37000W        W 1985  20.678  33.638   3.680
37001W        W 1986   7.971  37.932   3.402
37002W        W 1987  14.054  12.198  14.779
37003W        W 1988   1.021  31.939   3.644
37004W        W 1989  33.493  33.551  13.543
37005W        W 1990  25.676   2.392  13.347
37006W        W 1991  25.590  27.638   4.111
37007W        W 1992  12.364  15.556   2.650
37008W        W 1993  17.705  33.640   2.662
37009W        W 1994  33.698  16.969  13.855
37010W        W 1995  11.404  26.520  11.879
37011W        W 1996  41.807  21.579  13.903
37012W        W 1997  26.052  27.749   4.256
37013W        W 1998  22.930  21.922   0.664
37014W        W 1999  36.503  42.342  12.844
37015W        W 2000  13.419   5.834  11.144
37016W        W 2001   1.981  26.491   4.170
37017W        W 2002   5.922  35.411  10.929
37018W        W 2003  24.796  31.108  13.043
37019W        W 2004  24.773   6.881   1.899
37020W        W 2005  43.714  43.044   2.616
37021W        W 2006  26.556  40.949   3.688
37022W        W 2007  14.131   0.021  14.413
37023W        W 2008  22.209  27.442  13.841
37024W        W 2009  43.354  12.147   4.275
37025W        W 2010  32.932  25.979   0.987
37026W        W 2011  38.985   4.679   4.370
37027W        W 2012  12.331   8.307  11.875
37028W        W 2013  37.613   0.751   4.998
37029W        W 2014  27.138   6.280  11.737
37030W        W 2015   2.597  20.714  14.560
37031W        W 2016   3.660   3.350   0.445
37032W        W 2017   0.046   2.464  12.022
37033W        W 2018  30.198  38.034   4.223
37034W        W 2019  32.934  36.882   3.733
37035W        W 2020  39.936  27.890   4.381
37036W        W 2021  29.786  39.558   2.704
37037W        W 2022  15.748  26.245  10.361
37038W        W 2023  39.374  40.599  11.100
37039W        W 2024  39.009  27.970   2.756
37040W        W 2025  39.954  30.364   1.469
37041W        W 2026  43.487  18.514   0.809
37042W        W 2027  32.009  19.479   4.762
37043W        W 2028  11.904  28.465   2.233
37044W        W 2029  43.184   3.131  13.465
37045W        W 2030  12.795  11.765  12.088
37046W        W 2031   1.688  17.115   4.554
37047W        W 2032  38.790  23.649  13.819
37048W        W 2033  16.024  32.027   3.316
37049W        W 2034  15.597  37.460   4.696
37050W        W 2035  33.310   5.081  10.993
37051W        W 2036  37.571   6.349  14.857
37052W        W 2037  40.699  18.194  12.028
37053W        W 2038  31.684  24.438  14.000
37054W        W 2039   4.928  23.893  11.455
37055W        W 2040  16.905  38.554   2.887
37056W        W 2041  36.908   0.717  10.701
37057W        W 2042  34.550   7.188   4.056
37058W        W 2043  22.532   3.681   1.204
37059W        W 2044  24.923   0.389   0.321
37060W        W 2045  28.458  37.585   3.157
37061W        W 2046  18.782  14.857  13.927
37062W        W 2047  39.363  28.212   0.388
37063W        W 2048  38.975  30.828   1.763
37064W        W 2049   5.214  23.872   3.316
37065W        W 2050   7.829  30.131   4.098
37066W        W 2051  25.197  43.774   1.314
37067W        W 2052  38.441  35.698  10.760
37068W        W 2053  29.826  31.040  14.435
37069W        W 2054  21.302  27.864   2.144
37070W        W 2055  34.484  42.100  13.863
37071W        W 2056  13.040  28.196  13.954
37072W        W 2057  40.910   9.803   1.464
37073W        W 2058   8.934  23.460  12.166
37074W        W 2059  40.371  31.888   9.982
37075W        W 2060  21.565  30.692   0.682
37076W        W 2061   0.880  32.452   3.632
37077W        W 2062   4.148   5.901  10.695
37078W        W 2063  29.659   0.371  13.838
37079W        W 2064   0.372  19.710  10.431
37080W        W 2065   2.341  31.941  12.082
37081W        W 2066  22.737  25.609   1.238
37082W        W 2067  34.594   5.982   4.664
37083W        W 2068  30.890  10.105  14.397
37084W        W 2069  15.820  35.490   0.794
37085W        W 2070  21.843  34.941  14.982
37086W        W 2071  23.080   6.786  14.411
37087W        W 2072  22.734  14.796   2.159
37088W        W 2073  42.853  42.034  11.636
37089W        W 2074  13.577  44.446   1.344
37090W        W 2075  43.834  42.907   2.139
37091W        W 2076  20.285  37.262   3.838
37092W        W 2077   9.674  36.872  14.018
37093W        W 2078  44.840  20.438  13.496
37094W        W 2079  16.869  35.162  11.355
37095W        W 2080   4.938  24.732  11.598
37096W        W 2081  18.042  28.956  12.015
37097W        W 2082  13.867  15.754   2.901
37098W        W 2083  22.115  22.725  10.049
37099W        W 2084  37.635   0.635  14.402
37100W        W 2085   9.080  20.675  13.581
37101W        W 2086  33.676   7.151  11.747
37102W        W 2087  40.778  18.313  12.990
37103W        W 2088  17.285  29.331   2.710
37104W        W 2089  10.182  34.543  11.253
37105W        W 2090  23.194  43.789  10.503
37106W        W 2091  27.155   2.778   1.115
37107W        W 2092  44.859  27.457  11.391
37108W        W 2093  14.810  32.940  14.354
37109W        W 2094  35.865  43.769  10.868
37110W        W 2095  31.893  25.511  13.086
37111W        W 2096  40.911  25.109   2.526
37112W        W 2097  14.143  15.404  11.075
37113W        W 2098  41.499  40.287   1.544
37114W        W 2099  18.648  17.212   2.265
37115W        W 2100  33.638   2.715  10.974
37116W        W 2101  17.010  35.096  10.681
37117W        W 2102   1.976   8.512  14.156
37118W        W 2103  34.850  24.905   2.020
37119W        W 2104  14.829   6.848  13.768
37120W        W 2105   2.464  20.955   1.834
37121W        W 2106  40.215  16.003  10.697
37122W        W 2107  37.936   0.759  12.847
37123W        W 2108  18.125  14.264  13.802
37124W        W 2109   6.970  28.509  13.112
37125W        W 2110  15.748  20.123   4.488
37126W        W 2111  31.565  34.033  10.486
37127W        W 2112  39.932  44.471  13.087
37128W        W 2113  43.943  26.998   4.791
37129W        W 2114  26.455  36.538  11.671
37130W        W 2115   4.490   1.143   1.322
37131W        W 2116  22.623  19.535   2.359
37132W        W 2117  10.845  20.158   0.408
37133W        W 2118   9.745  14.468   4.547
37134W        W 2119  23.861  39.015  13.281
37135W        W 2120  22.180   1.375   2.624
37136W        W 2121  44.636  17.730  11.100
37137W        W 2122   5.915   2.991  13.385
37138W        W 2123   4.824  39.056   1.981
37139W        W 2124  12.522  28.140  13.899
37140W        W 2125  43.425  42.715  14.507
37141W        W 2126   9.792  26.252   4.207
37142W        W 2127  44.062   1.697   0.231
37143W        W 2128  23.196  12.769  12.631
37144W        W 2129  12.777  30.208   4.117
37145W        W 2130  10.489  15.843  11.119
37146W        W 2131  34.243  28.552  14.681
37147W        W 2132  40.797  28.492   3.568
37148W        W 2133  26.634  41.299  12.163
37149W        W 2134  37.525   3.497  10.392
37150W        W 2135  25.021  42.336  14.856
37151W        W 2136  15.185  15.079   0.194
37152W        W 2137   6.618  37.988   3.758
37153W        W 2138  21.106  41.310   1.135
37154W        W 2139  39.276   5.854   1.374
37155W        W 2140  26.257  33.954  10.188
37156W        W 2141   5.500  32.873   1.715
37157W        W 2142  13.146   2.285  13.840
37158W        W 2143   4.460  37.160   2.894
37159W        W 2144  19.537   0.989   1.356
37160W        W 2145  21.713  26.250   0.920
37161W        W 2146  10.808   3.976  11.001
37162W        W 2147   4.766  16.730  13.474
37163W        W 2148  16.710  24.607   3.855
37164W        W 2149  33.784  10.725  13.932
37165W        W 2150  10.313   0.966   2.896
37166W        W 2151  26.103  21.045   4.153
37167W        W 2152  43.940   6.166  12.780
37168W        W 2153  13.839  35.517  12.387
37169W        W 2154  26.150  42.896   0.701
37170W        W 2155   6.867  13.406   3.107
37171W        W 2156  41.191   6.423   2.574
37172W        W 2157  40.169   2.673  13.998
37173W        W 2158  41.820   4.743   4.208
37174W        W 2159  30.606  31.232   1.295
37175W        W 2160  10.505   8.246  10.286
37176W        W 2161  13.812   0.667  13.931
37177W        W 2162   6.855  13.940   3.100
37178W        W 2163  29.770  39.893  13.060
37179W        W 2164   2.511  30.212   1.438
37180W        W 2165   6.252  26.679   2.872
37181W        W 2166   0.164   4.200   4.171
37182W        W 2167  34.359  38.657   4.936
37183W        W 2168  13.605  21.248  13.102
37184W        W 2169  32.601  29.413  13.266
37185W        W 2170  16.255  23.986   1.429
37186W        W 2171   1.302  13.352  11.910
37187W        W 2172   1.604  31.176   1.267
37188W        W 2173  34.128  23.051   3.985
37189W        W 2174  26.650  43.090   1.886
37190W        W 2175  22.642  17.672   1.843
37191W        W 2176  11.300   4.928   2.908
37192W        W 2177  23.546  41.282   1.747
37193W        W 2178   0.704  31.887   1.949
37194W        W 2179  28.520   1.453   0.366
37195W        W 2180  21.183   6.162  10.647
37196W        W 2181   5.300   1.933   0.569
37197W        W 2182  36.347  41.423   5.106
37198W        W 2183  42.643  25.932   5.215
37199W        W 2184  21.626  24.058  12.475
37200W        W 2185  37.515  39.414   0.846
37201W        W 2186  44.252   3.480  10.293
37202W        W 2187  24.369   3.944  12.821
37203W        W 2188  22.458  27.165   4.086
37204W        W 2189  16.165   8.195  11.248
37205W        W 2190  19.566  39.556  12.969
37206W        W 2191  44.571  28.798   3.454
37207W        W 2192  44.744  23.778  11.121
37208W        W 2193  16.352  44.982  12.597
37209W        W 2194  35.156  12.090   1.883
37210W        W 2195  29.840   7.001   4.602
37211W        W 2196  16.108  21.747   0.792
37212W        W 2197   5.260  32.595  11.565
37213W        W 2198   3.593  23.148   2.287
37214W        W 2199  12.684   8.206   4.258
37215W        W 2200  14.555  15.686   3.204
37216W        W 2201  39.037  41.434   0.181
37217W        W 2202  11.353  14.032   1.884
37218W        W 2203  35.986  42.187  13.544
37219W        W 2204  34.645  31.480   2.149
37220W        W 2205  34.838  36.938   3.748
37221W        W 2206   1.542   9.648   1.680
37222W        W 2207   0.507  29.453   3.275
37223W        W 2208  14.938  10.827  13.499
37224W        W 2209  30.416  20.991   4.106
37225W        W 2210  18.863  18.886  14.043
37226W        W 2211  38.061  28.188   4.209
37227W        W 2212  18.057  38.284   4.848
37228W        W 2213  17.574  15.423   2.041
37229W        W 2214  12.627  38.786  11.578
37230W        W 2215   5.166  18.951  10.273
37231W        W 2216   2.894   3.418   1.766
37232W        W 2217  32.285   4.548   2.781
37233W        W 2218  22.796   1.078  10.020
37234W        W 2219  15.635   8.790   2.968
37235W        W 2220  14.541   4.442   4.262
37236W        W 2221   1.904  14.332   3.390
37237W        W 2222  18.586  39.485  12.583
37238W        W 2223   7.207   9.813   0.083
37239W        W 2224   0.690  34.843  11.153
37240W        W 2225  32.146  11.308   2.291
37241W        W 2226  36.566  37.323   3.690
37242W        W 2227  32.584  16.131   4.822
37243W        W 2228   5.757   0.398   1.043
37244W        W 2229   7.258  37.904   2.805
37245W        W 2230  11.848  19.202   1.677
37246W        W 2231  33.044  35.516  10.677
37247W        W 2232  35.788  23.324   0.757
37248W        W 2233  29.919  30.233   9.833
37249W        W 2234  36.342  42.498  13.823
37250W        W 2235  19.476  26.651   0.404
37251W        W 2236   2.890  14.633  12.425
37252W        W 2237   2.527  30.480   4.979
37253W        W 2238  36.673  26.686  10.584
37254W        W 2239  22.917  11.295   4.498
37255W        W 2240  26.546  26.408  13.890
37256W        W 2241   1.479   3.461   5.013
37257W        W 2242  35.749  17.725  13.223
37258W        W 2243   5.312  11.160  14.754
37259W        W 2244  36.413  18.692   1.177
37260W        W 2245  12.054   1.218   1.897
37261W        W 2246  11.654  29.555   2.477
37262W        W 2247   6.647   2.432  11.306
37263W        W 2248  29.940  41.246   2.789
37264W        W 2249   7.148   9.749   4.453
37265W        W 2250  24.029  33.337  11.591
37266W        W 2251  31.516  32.476   3.287
37267W        W 2252  18.460  33.095   0.825
37268W        W 2253  40.894   6.878  11.605
37269W        W 2254  27.808  41.715  11.587
37270W        W 2255  35.463  40.930   4.286
37271W        W 2256  34.110   3.490  14.990
37272W        W 2257  22.054  36.598  13.159
37273W        W 2258  40.002  29.552  13.058
37274W        W 2259   6.386   7.778   1.795
37275W        W 2260   4.256  34.362  10.982
37276W        W 2261  33.394  18.715   1.759
37277W        W 2262  14.328   9.194   4.119
37278W        W 2263  12.712  16.145   0.219
37279W        W 2264   5.598  44.402  14.484
37280W        W 2265  24.594   5.118   2.359
37281W        W 2266  31.133  13.361  12.211
37282W        W 2267  13.585  25.487   4.470
37283W        W 2268   2.583  29.389  11.526
37284W        W 2269  32.343  22.016  13.141
37285W        W 2270   7.682   6.180   2.314
37286W        W 2271  37.551  17.259  13.257
37287W        W 2272  25.014  15.704   4.522
37288W        W 2273  40.377  24.489   3.474
37289W        W 2274  32.816  38.796   2.769
37290W        W 2275  23.536   9.054   3.755
37291W        W 2276  15.149  31.130  11.407
37292W        W 2277  14.348  40.090   1.739
37293W        W 2278  41.853  42.972   1.049
37294W        W 2279  18.821  23.176   1.779
37295W        W 2280  25.910  12.386  13.586
37296W        W 2281  22.034  44.897  12.573
37297W        W 2282  44.262   0.459   1.753
37298W        W 2283  12.343  39.287  13.625
37299W        W 2284  29.481  17.631  14.482
37300W        W 2285   6.275   8.863   3.120
37301W        W 2286   4.784   5.631   3.591
37302W        W 2287  13.387   2.802  12.442
37303W        W 2288  10.161  42.515   0.004
37304W        W 2289  44.019  44.950  12.526
37305W        W 2290  41.433  42.409  10.625
37306W        W 2291  33.664  24.581  11.954
37307W        W 2292   8.199  14.088  12.422
37308W        W 2293  24.078  40.957   3.756
37309W        W 2294  32.306  17.311   0.286
37310W        W 2295  30.696  39.375  14.415
37311W        W 2296   3.331  31.661   3.871
37312W        W 2297   7.882  35.894   4.116
37313W        W 2298  32.474   2.749  11.432
37314W        W 2299  30.215   6.749   0.026
37315W        W 2300  29.482   9.660  11.138
37316W        W 2301  26.452  16.171  13.247
37317W        W 2302  38.918  35.986  11.885
37318W        W 2303  33.205   1.180  14.334
37319W        W 2304  26.006  34.111   1.179
37320W        W 2305   5.519  27.912  12.063
37321W        W 2306  24.683   3.585  12.613
37322W        W 2307   1.346   2.251   3.606
37323W        W 2308  32.981  30.180  12.488
37324W        W 2309  43.395   6.257   0.425
37325W        W 2310  44.889  11.770   1.422
37326W        W 2311   2.249  14.153   3.724
37327W        W 2312  22.594  17.572  13.064
37328W        W 2313   5.399  41.851   0.909
37329W        W 2314  37.439  40.867   3.352
37330W        W 2315  18.716  13.558   0.344
37331W        W 2316   3.275  31.583  14.369
37332W        W 2317  16.799   0.637  14.341
37333W        W 2318  43.028   5.798  10.735
37334W        W 2319  26.774  38.935   1.487
37335W        W 2320  15.243  20.515   4.409
37336W        W 2321   0.352  14.156  13.894
37337W        W 2322   9.611  12.866   0.321
37338W        W 2323   4.568  16.761  12.993
37339W        W 2324  30.808  21.657  13.890
37340W        W 2325   3.705  18.799   0.865
37341W        W 2326  31.398   5.190   2.754
37342W        W 2327  20.779  21.064  13.037
37343W        W 2328  17.658  16.596   5.814
37344W        W 2329  37.039   8.784  11.468
37345W        W 2330  33.993  14.035  11.394
37346W        W 2331  31.856  28.007   1.901
37347W        W 2332   0.784  31.071  13.027
37348W        W 2333  31.086  15.937   2.722
37349W        W 2334  23.406   5.424   2.897
37350W        W 2335  32.737  29.594   4.253
37351W        W 2336  12.353   8.817  13.790
37352W        W 2337  13.629   6.312   4.989
37353W        W 2338  13.105  10.665   0.366
37354W        W 2339  30.594  30.092   1.953
37355W        W 2340  32.476  24.958  11.086
37356W        W 2341  14.690  43.401  14.115
37357W        W 2342   9.803  38.827   2.821
37358W        W 2343  40.520  10.906   1.834
37359W        W 2344  34.505  37.323  12.723
37360W        W 2345  29.613  21.563   1.745
37361W        W 2346   5.269  25.218  12.409
37362W        W 2347  15.403  25.070  14.854
37363W        W 2348  44.700  26.628   1.896
37364W        W 2349  40.953  33.819   2.782
37365W        W 2350  26.931  22.198   0.703
37366W        W 2351  38.503  20.750   0.889
37367W        W 2352  24.709   2.974   0.815
37368W        W 2353  43.009  22.115  11.542
37369W        W 2354   4.716  41.399  14.474
37370W        W 2355  26.292  25.084   4.098
37371W        W 2356  39.266  38.283   2.178
37372W        W 2357  21.293  40.850  14.837
37373W        W 2358  18.985  27.824  12.716
37374W        W 2359  27.200  10.768   1.753
37375W        W 2360   5.537   8.577  12.810
37376W        W 2361  38.548  28.566   0.413
37377W        W 2362   1.487  37.055  13.850
37378W        W 2363  42.035  35.323  13.429
37379W        W 2364  14.626  22.784   3.332
37380W        W 2365  44.287  37.475  14.269
37381W        W 2366   9.580   9.966   3.763
37382W        W 2367  34.957  43.041  14.459
37383W        W 2368   3.467  25.977  13.487
37384W        W 2369   6.629  21.635   3.344
37385W        W 2370  37.450  10.265   0.438
37386W        W 2371  21.005   6.579   5.019
37387W        W 2372   7.179  35.827   2.771
37388W        W 2373  36.750   2.726  12.125
37389W        W 2374   0.984  18.244   3.224
37390W        W 2375  32.567  17.641   3.651
37391W        W 2376  40.714   1.309  14.644
37392W        W 2377  42.537  31.455  13.084
37393W        W 2378  17.261  27.637   0.647
37394W        W 2379  32.948  10.163   1.047
37395W        W 2380   1.507  22.250  13.449
37396W        W 2381  24.853  32.199  10.409
37397W        W 2382  27.984  40.868  11.501
37398W        W 2383  36.999  11.308  12.573
37399W        W 2384   4.877  10.465   3.718
37400W        W 2385  20.768  13.569   2.146
37401W        W 2386   6.898  10.130  14.785
37402W        W 2387  42.821   7.424  14.658
37403W        W 2388   7.153  25.680  14.028
37404W        W 2389   5.711   9.940   1.193
37405W        W 2390  36.474  14.275  12.382
37406W        W 2391  23.664  18.015  11.919
37407W        W 2392  25.375  18.796   4.941
37408W        W 2393  28.129   6.440   2.774
37409W        W 2394  17.502  29.822  12.089
37410W        W 2395  40.117  42.809   5.004
37411W        W 2396  23.088  19.696   3.169
37412W        W 2397  42.520  15.490   3.728
37413W        W 2398  34.507  27.157   0.793
37414W        W 2399  39.924  29.501  14.956
37415W        W 2400   9.408  34.381   2.920
37416W        W 2401  12.104   1.564  14.790
37417W        W 2402  13.955   6.883   0.951
37418W        W 2403   9.334  26.368   3.102
37419W        W 2404   9.846  44.157  14.435
37420W        W 2405  37.269  25.562  13.566
37421W        W 2406   2.271  11.232  14.766
37422W        W 2407  40.064   5.947   2.942
37423W        W 2408  23.851   1.456   3.696
37424W        W 2409  21.972  24.233   0.728
37425W        W 2410  41.758  37.442  13.526
37426W        W 2411  29.394   9.150  11.029
37427W        W 2412  27.331  40.007   1.865
37428W        W 2413  44.920  15.761  11.190
37429W        W 2414  41.297   7.870  12.090
37430W        W 2415  35.789  30.308   2.812
37431W        W 2416  14.763  35.868  12.556
37432W        W 2417  20.971   0.491  13.142
37433W        W 2418  19.244  43.981   3.290
37434W        W 2419  39.506   5.313  11.893
37435W        W 2420  28.224  16.319   3.633
37436W        W 2421  29.311  11.290  12.532
37437W        W 2422  30.146   3.892  12.543
37438W        W 2423  16.232  25.289   1.976
37439W        W 2424  16.014   2.828  13.565
37440W        W 2425   6.389  21.051  12.041
37441W        W 2426  17.612  18.092   0.522
37442W        W 2427  37.076  40.529  14.454
37443W        W 2428  24.714  12.261  14.755
37444W        W 2429  32.686   2.575  13.463
37445W        W 2430  27.140  18.961  10.711
37446W        W 2431   5.812  29.658  10.592
37447W        W 2432   6.952  42.385  11.420
37448W        W 2433  34.239  20.198   1.390
37449W        W 2434  24.270  15.556  11.122
37450W        W 2435  21.041  40.427   0.107
37451W        W 2436  43.676   3.800   1.614
37452W        W 2437  18.606  27.596   4.851
37453W        W 2438  28.787   7.119  11.880
37454W        W 2439  36.695   7.834   2.751
37455W        W 2440  37.263   8.823  10.192
37456W        W 2441  23.742  12.688  12.866
37457W        W 2442  36.524  39.782   4.241
37458W        W 2443  13.645  24.948   3.586
37459W        W 2444  37.994   1.946  13.549
37460W        W 2445  42.947  28.476  13.971
37461W        W 2446  38.574  40.664  12.090
37462W        W 2447   2.903  35.325   0.949
37463W        W 2448  32.195  33.968   0.320
37464W        W 2449  39.548  34.393   2.680
37465W        W 2450   2.955  32.106   4.233
37466W        W 2451  34.110   0.376   1.659
37467W        W 2452  20.981  12.791  12.285
37468W        W 2453  11.828  43.042  13.072
37469W        W 2454   6.407  31.922  13.073
37470W        W 2455  34.555  28.872  14.980
37471W        W 2456  21.117  39.041   1.421
37472W        W 2457  12.619  20.945   1.248
37473W        W 2458  14.821  18.702  13.091
37474W        W 2459  24.468  35.313   4.139
37475W        W 2460   3.359  43.653  12.499
37476W        W 2461  39.075   6.765  13.922
37477W        W 2462  10.776   7.889  10.552
37478W        W 2463  30.917  15.081  12.889
37479W        W 2464  35.960  24.463   4.651
37480W        W 2465   7.381  27.583   2.817
37481W        W 2466   0.648  42.056  11.088
37482W        W 2467  21.559  24.605   3.371
37483W        W 2468   4.659  26.188   0.802
37484W        W 2469   8.233   8.804  12.544
37485W        W 2470  37.837   3.442  12.453
37486W        W 2471   5.954  43.223   1.400
37487W        W 2472  18.082   2.440   2.701
37488W        W 2473  13.918  10.602  13.556
37489W        W 2474  14.199   2.843   0.469
37490W        W 2475  10.368  30.875  13.565
37491W        W 2476  38.098  10.907   2.585
37492W        W 2477  36.756  18.134   0.171
37493W        W 2478   0.409  32.596  14.082
37494W        W 2479   7.773  34.049  11.393
37495W        W 2480   1.856  43.679  12.103
37496W        W 2481  36.616  11.822  11.934
37497W        W 2482  40.952  31.847   2.787
37498W        W 2483  16.291  39.112  11.156
37499W        W 2484  30.560  39.518   0.770
37500W        W 2485  12.367  36.243   1.421
37501W        W 2486  44.376  36.375  13.428
37502W        W 2487  16.312   1.739   2.419
37503W        W 2488  29.743  18.276  13.531
37504W        W 2489   2.272  29.480   0.278
37505W        W 2490  42.990  26.862  10.269
37506W        W 2491  29.355   1.693  13.979
37507W        W 2492  38.385  36.172  13.217
37508W        W 2493  11.718  23.576   0.855
37509W        W 2494  39.335   5.750   0.256
37510W        W 2495  22.183  33.792  14.299
37511W        W 2496  36.330   0.992   4.138
37512W        W 2497  22.952  34.410   3.293
37513W        W 2498   0.224  19.520   4.052
37514W        W 2499  39.532  34.373   3.533
37515W        W 2500  41.050  11.347   4.260
37516W        W 2501  22.088  31.969  10.803
37517W        W 2502  38.474   0.916   0.410
37518W        W 2503   0.329  10.967   0.731
37519W        W 2504  25.169  37.774   3.727
37520W        W 2505  32.992  22.015  12.419
37521W        W 2506  20.748  39.561  11.209
37522W        W 2507  26.067  17.673   4.757
37523W        W 2508  30.912  26.488   3.619
37524W        W 2509  31.424  18.734  13.117
37525W        W 2510  32.879  26.537  13.105
37526W        W 2511  18.579  15.473  12.036
37527W        W 2512  20.828  30.047  13.385
37528W        W 2513  43.022  21.704   4.524
37529W        W 2514  36.790  13.755   3.668
37530W        W 2515  34.323  32.273   0.818
37531W        W 2516  30.030  31.890  10.769
37532W        W 2517  14.250  17.116  10.686
37533W        W 2518   0.275   2.926  12.952
37534W        W 2519  30.544  38.415   4.421
37535W        W 2520  21.683  10.217   3.707
37536W        W 2521   7.708  34.799   5.457
37537W        W 2522  17.708  18.697  14.020
37538W        W 2523  34.594  16.528  14.582
37539W        W 2524   5.183  26.010   2.794
37540W        W 2525  41.896  25.591  13.766
37541W        W 2526  17.095  12.307   0.717
37542W        W 2527  27.543  25.431   0.073
37543W        W 2528  22.148   2.976   3.600
37544W        W 2529  26.784   9.342   5.108
37545W        W 2530  27.464   7.141   1.407
37546W        W 2531   4.890  34.974  13.854
37547W        W 2532   3.354  37.046  10.418
37548W        W 2533   8.885   0.235  11.387
37549W        W 2534  28.989  39.040   0.123
37550W        W 2535  35.628   3.010  13.979
37551W        W 2536  29.369   1.820   4.627
37552W        W 2537  39.061  33.023  14.876
37553W        W 2538  28.945  31.826   1.728
37554W        W 2539  12.272  24.164  10.401
37555W        W 2540  10.822  29.923  10.986
37556W        W 2541   7.331  22.636  12.465
37557W        W 2542   9.756   0.203   4.201
37558W        W 2543  37.350  38.933  11.934
37559W        W 2544  17.684  43.718   3.643
37560W        W 2545  43.398  26.192  14.360
37561W        W 2546  18.765  24.905   2.652
37562W        W 2547   8.396  19.263   0.237
37563W        W 2548  35.102  33.835  11.602
37564W        W 2549   3.736  21.644  12.389
37565W        W 2550  23.685  14.780  14.816
37566W        W 2551   3.909   0.513   0.776
37567W        W 2552  42.324  22.566  13.442
37568W        W 2553  16.070  13.578  12.543
37569W        W 2554   1.765  25.196  12.397
37570W        W 2555  22.688  36.684  14.592
37571W        W 2556  38.706  41.376   3.293
37572W        W 2557   0.205   2.178   2.619
37573W        W 2558  23.124  18.254  14.330
37574W        W 2559   2.898  22.568   1.250
37575W        W 2560   6.854  11.907   4.557
37576W        W 2561  32.363  16.177  11.638
37577W        W 2562  19.386  34.585   4.816
37578W        W 2563   7.234  19.596   4.467
37579W        W 2564   0.427  16.181  14.459
37580W        W 2565  35.521   6.057  12.820
37581W        W 2566  30.030  18.540  12.413
37582W        W 2567  29.479  34.022  10.349
37583W        W 2568  42.815  34.162  14.771
37584W        W 2569   8.919  37.023   0.455
37585W        W 2570  39.771  30.016  13.254
37586W        W 2571   8.178   7.712   1.814
37587W        W 2572  15.156  13.122   0.281
37588W        W 2573   0.261  28.267  13.904
37589W        W 2574   2.768   6.142   2.347
37590W        W 2575  36.542  37.248   1.414
37591W        W 2576   4.303  23.232  13.109
37592W        W 2577  38.377  16.340  13.340
37593W        W 2578  30.451   7.423  12.771
37594W        W 2579  27.566  37.784   2.260
37595W        W 2580  33.935  37.648   2.807
37596W        W 2581   8.897  22.171   4.187
37597W        W 2582   2.875  26.859   3.834
37598W        W 2583  42.526   2.117   2.304
37599W        W 2584  24.418   4.417  13.073
37600W        W 2585  18.696  17.221  11.732
37601W        W 2586  35.452  43.279  14.098
37602W        W 2587  42.384  24.229   1.800
37603W        W 2588  23.982  17.664   1.752
37604W        W 2589  34.497  29.977   1.934
37605W        W 2590   1.250  43.831   1.872
37606W        W 2591  40.565  23.930  13.913
37607W        W 2592  12.164  42.711   3.807
37608W        W 2593   2.304  36.272  14.400
37609W        W 2594  12.058   6.715   0.468
37610W        W 2595   3.717   0.695   1.496
37611W        W 2596   5.513  37.985   2.006
37612W        W 2597   8.356  33.219   2.973
37613W        W 2598  25.053  10.029  12.479
37614W        W 2599   3.543   2.058   5.033
37615W        W 2600  33.481  30.618   0.396
37616W        W 2601  11.732  32.595  14.025
37617W        W 2602  35.349  23.896  14.354
37618W        W 2603  11.288  20.601   2.402
37619W        W 2604  26.086   9.015   2.203
37620W        W 2605  13.482  13.526  10.946
37621W        W 2606  15.696  16.181   0.046
37622W        W 2607  32.743  33.217   1.043
37623W        W 2608  44.151  33.195   3.020
37624W        W 2609  19.908  26.815  11.511
37625W        W 2610  37.014   8.998   0.867
37626W        W 2611  20.714  28.438   3.074
37627W        W 2612  44.388  21.673   1.960
37628W        W 2613  41.868  34.364  11.310
37629W        W 2614  38.969   8.574   0.476
37630W        W 2615  11.783  23.036   3.126
37631W        W 2616  17.784  21.172  11.005
37632W        W 2617  39.466  28.454   0.848
37633W        W 2618  29.647  34.003   5.126
37634W        W 2619  37.458   4.927   4.960
37635W        W 2620  38.825   2.990  13.578
37636W        W 2621  36.453  18.076   4.584
37637W        W 2622  27.655  34.986   4.036
37638W        W 2623  20.227   8.938   2.414
37639W        W 2624  25.457  16.262  12.570
37640W        W 2625  11.256  20.311  13.134
37641W        W 2626  40.111  26.162   2.857
37642W        W 2627  19.598  23.269  14.611
37643W        W 2628  18.560  22.635   0.705
37644W        W 2629   6.704  39.466   3.698
37645W        W 2630  23.752   0.508  13.364
37646W        W 2631  41.568  21.683   3.242
37647W        W 2632  24.284  41.420   3.790
37648W        W 2633  44.822  14.079   1.762
37649W        W 2634   2.355  31.068  11.537
37650W        W 2635   1.761   4.844   2.416
37651W        W 2636  11.214  17.260   4.752
37652W        W 2637  43.809  41.678   1.785
37653W        W 2638  32.436   8.844   3.181
37654W        W 2639  30.002  44.735  14.269
37655W        W 2640   3.388  10.878  11.546
37656W        W 2641  36.176   8.044   4.157
37657W        W 2642  43.741   2.270   2.386
37658W        W 2643  40.548  11.707  14.458
37659W        W 2644  21.793  19.806   0.361
37660W        W 2645  22.484  11.750   3.281
37661W        W 2646   8.480  38.093  11.912
37662W        W 2647  17.836  20.850  13.474
37663W        W 2648  32.944  13.414  10.720
37664W        W 2649   2.655  23.262   4.113
37665W        W 2650  36.466  11.934   1.729
37666W        W 2651  10.147   0.498  14.378
37667W        W 2652  39.026   6.749  13.397
37668W        W 2653   0.839  19.521   2.818
37669W        W 2654  14.913  35.884   0.476
37670W        W 2655  21.198  25.402   2.378
37671W        W 2656  36.261  12.678   0.668
37672W        W 2657  26.440  38.143   0.462
37673W        W 2658   8.166  37.583   4.584
37674W        W 2659  32.580  20.196   0.270
37675W        W 2660  23.999  10.811  14.199
37676W        W 2661  23.849  27.934  12.441
37677W        W 2662  21.442  26.730  12.060
37678W        W 2663  35.313   4.733   0.755
37679W        W 2664   2.952   8.397  14.872
37680W        W 2665   2.271  12.131   1.164
37681W        W 2666  42.300   8.455   1.193
37682W        W 2667  31.683   1.484  14.391
37683W        W 2668   8.949  12.150  12.924
37684W        W 2669   5.181  31.508   4.557
37685W        W 2670  42.763  30.420  10.678
37686W        W 2671  15.313  35.112  14.930
37687W        W 2672  23.735  28.074  14.830
37688W        W 2673  34.780  40.022   3.559
37689W        W 2674  43.778  18.501   2.701
37690W        W 2675  40.804  32.359   2.754
37691W        W 2676  24.675  18.120   4.817
37692W        W 2677  22.958  25.007  13.956
37693W        W 2678  32.017  15.841   0.654
37694W        W 2679  35.453  37.093  14.558
37695W        W 2680  36.481   3.996  13.893
37696W        W 2681  17.786  24.957   0.570
37697W        W 2682  41.882  37.403  11.206
37698W        W 2683  22.713  13.322  10.685
37699W        W 2684   4.315   6.093   3.334
37700W        W 2685   7.872  15.996   3.680
37701W        W 2686  21.152  30.448   3.225
37702W        W 2687  20.064  14.749   2.906
37703W        W 2688  41.683  13.858  13.904
37704W        W 2689  42.416  44.007  12.618
37705W        W 2690  19.374  42.408  13.303
37706W        W 2691  43.441   7.293   1.176
37707W        W 2692  32.673  29.880   3.581
37708W        W 2693   1.727   4.792   1.898
37709W        W 2694  20.975  15.584   0.289
37710W        W 2695   3.134  34.860  11.532
37711W        W 2696  33.871  25.787   1.873
37712W        W 2697  18.413  17.416   2.693
37713W        W 2698  41.177  29.021  11.191
37714W        W 2699  22.508  21.624  13.501
37715W        W 2700  17.707   2.497  13.041
37716W        W 2701  38.733  11.752   3.367
37717W        W 2702  41.288  30.961  14.563
37718W        W 2703  25.499  23.247  13.119
37719W        W 2704  44.222  34.959  13.804
37720W        W 2705  32.586  41.337  10.729
37721W        W 2706   9.258   0.898   0.891
37722W        W 2707  20.659  19.584   3.815
37723W        W 2708  22.199  13.581   3.780
37724W        W 2709  35.972  18.676   3.158
37725W        W 2710  38.828   2.927   1.207
37726W        W 2711  27.995   9.883   4.127
37727W        W 2712  31.501   4.174  13.729
37728W        W 2713  37.486  14.472   2.374
37729W        W 2714  11.724   2.758   1.178
37730W        W 2715  19.839  11.237   0.280
37731W        W 2716   8.084  17.733  10.803
37732W        W 2717   0.246   9.662  12.953
37733W        W 2718  33.923   9.249   0.428
37734W        W 2719  26.049   5.438  11.483
37735W        W 2720  17.419  28.223  14.570
37736W        W 2721  30.323  33.018   3.263
37737W        W 2722  34.905  29.982  10.714
37738W        W 2723   2.413  22.090   2.695
37739W        W 2724  44.047  28.842  11.137
37740W        W 2725  11.240   0.449  14.931
37741W        W 2726  29.547  40.014   2.691
37742W        W 2727  28.513  41.034  12.607
37743W        W 2728  20.833  27.015   0.044
37744W        W 2729  37.403  14.889   4.313
37745W        W 2730  43.047  24.930  13.905
37746W        W 2731   9.890   7.326   3.724
37747W        W 2732  33.419  35.133   4.465
37748W        W 2733   7.256   5.959   1.773
37749W        W 2734  32.474   8.068  13.870
37750W        W 2735   0.748  44.041  14.413
37751W        W 2736   9.092  41.294   4.556
37752W        W 2737   0.021  32.504  12.465
37753W        W 2738  14.890   6.325  14.928
37754W        W 2739  16.569   4.451   2.379
37755W        W 2740   0.598   4.387  14.956
37756W        W 2741  10.186  25.106   4.671
37757W        W 2742  24.371  39.931   4.171
37758W        W 2743   9.737   8.385  10.677
37759W        W 2744  37.357  36.919   2.684
37760W        W 2745  24.848  37.465   1.368
37761W        W 2746  14.221   2.669  12.844
37762W        W 2747  10.302  44.043  14.270
37763W        W 2748  44.977  17.230   1.164
37764W        W 2749  16.425  20.513   1.576
37765W        W 2750  18.783  38.300   3.609
37766W        W 2751  17.888  11.470   0.435
37767W        W 2752  13.192  17.811  11.219
37768W        W 2753  21.846  27.108   3.092
37769W        W 2754  39.846  41.255   2.227
37770W        W 2755  38.529  43.746   2.212
37771W        W 2756  11.988  27.108  11.060
37772W        W 2757   8.345  24.475   3.940
37773W        W 2758  14.208  28.657  14.884
37774W        W 2759  41.805  21.343  12.082
37775W        W 2760   5.605  31.150   4.320
37776W        W 2761  40.995  13.953  11.620
37777W        W 2762  38.892   1.655  12.063
37778W        W 2763   8.443  16.535  12.923
37779W        W 2764  24.544   5.625   2.445
37780W        W 2765  15.824   6.617   2.810
37781W        W 2766  15.101  24.004   0.753
37782W        W 2767  42.442  42.326   3.704
37783W        W 2768  34.878  11.088   3.129
37784W        W 2769  40.014  19.553   0.742
37785W        W 2770  35.240  28.608   2.752
37786W        W 2771  41.751  43.423   3.224
37787W        W 2772   7.406  21.185   2.421
37788W        W 2773  20.044  11.715   3.747
37789W        W 2774  31.375  17.116  12.779
37790W        W 2775   9.989  39.527  14.396
37791W        W 2776   1.672   3.290   1.280
37792W        W 2777   1.047  40.356   2.188
37793W        W 2778   2.848  20.118  11.425
37794W        W 2779  43.275   0.539   4.578
37795W        W 2780  41.047   7.476  13.367
37796W        W 2781   0.262  22.598   3.639
37797W        W 2782  28.826  32.430   4.554
37798W        W 2783  27.049  44.984   9.575
37799W        W 2784  24.067   3.277  10.694
37800W        W 2785  34.067  37.546   1.919
37801W        W 2786   6.600  33.468   2.637
37802W        W 2787  15.886  29.004  11.579
37803W        W 2788  44.315  34.812  11.118
37804W        W 2789  42.068  42.868  14.500
37805W        W 2790  43.917  26.696  13.280
37806W        W 2791  12.224  29.875  14.896
37807W        W 2792  28.167  15.530  11.422
37808W        W 2793  21.584  36.709  13.959
37809W        W 2794  34.718  16.966   1.628
37810W        W 2795  36.539   7.841  14.800
37811W        W 2796   3.875   1.410  12.608
37812W        W 2797  42.486   1.251   1.699
37813W        W 2798   5.387  26.572   0.346
37814W        W 2799  41.195  15.669  14.357
37815W        W 2800   7.403   2.824  13.355
37816W        W 2801  11.468  15.272  14.804
37817W        W 2802  11.178  17.544  14.566
37818W        W 2803  30.140  28.860  13.070
37819W        W 2804  16.744  14.658  13.257
37820W        W 2805  23.445   7.106  13.936
37821W        W 2806   5.501  11.739  13.050
37822W        W 2807  18.691  21.131  13.963
37823W        W 2808  42.349  24.524   2.654
37824W        W 2809  26.676  21.449   2.644
37825W        W 2810  34.827  10.424  13.313
37826W        W 2811  39.813  30.541  13.520
37827W        W 2812   7.146  33.408  10.685
37828W        W 2813   0.877  17.817  14.270
37829W        W 2814   1.565  39.083   3.316
37830W        W 2815  33.604  12.426   2.838
37831W        W 2816  16.593  39.905   0.525
37832W        W 2817  36.042  20.183   4.230
37833W        W 2818  34.680   1.454  14.407
37834W        W 2819  21.947  12.837  10.699
37835W        W 2820  44.409  33.775  12.709
37836W        W 2821   9.650   9.128  14.898
37837W        W 2822  17.236  23.138  12.241
37838W        W 2823  44.542  27.730   4.668
37839W        W 2824  26.760   1.459   3.564
37840W        W 2825  12.864  15.398   2.760
37841W        W 2826  23.282  30.027  14.661
37842W        W 2827  25.009  35.290  12.984
37843W        W 2828   9.803  19.107  12.190
37844W        W 2829  21.133  30.066   0.308
37845W        W 2830   5.270   5.795  12.055
37846W        W 2831  27.020  11.447  14.729
37847W        W 2832  31.077  41.977   1.238
37848W        W 2833  25.028  11.720  14.537
37849W        W 2834  11.240  11.784   2.679
37850W        W 2835  23.040  29.763   4.129
37851W        W 2836  38.971  43.184   4.048
37852W        W 2837  18.829   8.141  12.860
37853W        W 2838  11.597  44.765  11.211
37854W        W 2839  23.991  15.673   4.584
37855W        W 2840   2.932  13.221   4.329
37856W        W 2841  25.502  42.478  13.894
37857W        W 2842  29.607   1.346  13.037
37858W        W 2843  37.726  23.235   0.640
37859W        W 2844  12.676  44.786   2.742
37860W        W 2845   5.705   0.985   2.906
37861W        W 2846  33.928  43.732   2.852
37862W        W 2847  27.919  24.380  11.954
37863W        W 2848  23.707   6.621   4.604
37864W        W 2849  33.996  28.773  11.129
37865W        W 2850  38.512  19.932   1.004
37866W        W 2851  29.680  22.639  14.861
37867W        W 2852   7.774   7.785  14.281
37868W        W 2853  17.704  42.361   3.960
37869W        W 2854  19.541  33.531  14.486
37870W        W 2855  34.628  35.094  14.987
37871W        W 2856   1.991  41.483   3.130
37872W        W 2857  31.156  15.143  13.352
37873W        W 2858   8.705   4.498   0.376
37874W        W 2859  17.578  42.411  11.984
37875W        W 2860  23.035   5.747  13.370
37876W        W 2861  43.898  14.404   0.892
37877W        W 2862   3.984  18.048   4.150
37878W        W 2863  41.218  17.115   3.127
37879W        W 2864   6.685  10.079  10.499
37880W        W 2865   4.578  36.105  13.053
37881W        W 2866  24.173  14.563  11.175
37882W        W 2867  26.095  26.157   2.292
37883W        W 2868  44.713  10.436   4.137
37884W        W 2869  30.209  32.845  13.902
37885W        W 2870  37.389  17.068   1.369
37886W        W 2871  20.573  43.497  13.365
37887W        W 2872   1.338  42.590  13.987
37888W        W 2873  42.367  25.501   1.447
37889W        W 2874  36.482  37.499   4.581
37890W        W 2875  42.409  29.412  12.405
37891W        W 2876   4.993  21.689  11.044
37892W        W 2877  21.919  27.088  14.121
37893W        W 2878   0.982   6.846  14.782
37894W        W 2879  39.715  14.408  12.220
37895W        W 2880  31.613  38.486  11.391
37896W        W 2881  26.352   9.072  11.168
37897W        W 2882  13.725   1.584  13.660
37898W        W 2883  29.692  42.519   0.177
37899W        W 2884  23.968  27.650  13.449
37900W        W 2885   1.023   7.603   1.676
37901W        W 2886  19.763  15.489  14.925
37902W        W 2887  38.478  13.690   1.516
37903W        W 2888   3.177  15.554  11.035
37904W        W 2889   5.318  36.054   2.774
37905W        W 2890  16.079  33.440  10.332
37906W        W 2891  33.347  41.100  13.424
37907W        W 2892  19.050  35.447   1.418
37908W        W 2893  33.485  43.278  13.442
37909W        W 2894  33.522   0.690   3.691
37910W        W 2895  19.736  29.543  10.214
37911W        W 2896  44.876  31.268   1.756
37912W        W 2897  43.318   8.136  12.558
37913W        W 2898   9.889   9.699   1.926
37914W        W 2899  28.584   9.663   1.198
37915W        W 2900   2.626  38.702   2.493
37916W        W 2901  35.102  43.800  14.985
37917W        W 2902  31.672   1.752   0.427
37918W        W 2903   6.204   5.259  14.465
37919W        W 2904  14.699  32.669   1.090
37920W        W 2905  15.899  24.307   0.687
37921W        W 2906  24.049  21.802  12.604
37922W        W 2907   9.970  32.397   2.278
37923W        W 2908   6.022  15.977   1.747
37924W        W 2909  18.095  17.953   4.960
37925W        W 2910  22.710  44.778   4.878
37926W        W 2911  36.098  14.675  14.464
37927W        W 2912  14.748   0.842  14.189
37928W        W 2913   9.978  12.362  12.930
37929W        W 2914  28.897   7.093   1.119
37930W        W 2915   5.699  33.110  10.758
37931W        W 2916   8.729  30.619  10.060
37932W        W 2917  18.639  22.614  10.750
37933W        W 2918  14.191  28.620   0.771
37934W        W 2919  19.451  17.652  12.088
37935W        W 2920  40.600   0.013  13.580
37936W        W 2921   2.103   4.751   2.811
37937W        W 2922  11.853   6.837   1.293
37938W        W 2923   0.010  28.740  13.887
37939W        W 2924  15.070   8.954  12.916
37940W        W 2925   1.770  33.670   3.636
37941W        W 2926  22.190  12.154  13.865
37942W        W 2927  44.497  19.122  12.522
37943W        W 2928   1.816   7.361  14.826
37944W        W 2929  37.980   9.971   3.790
37945W        W 2930  12.346  15.040  12.555
37946W        W 2931  26.895   8.355   2.745
37947W        W 2932   3.314   8.779   2.153
37948W        W 2933  22.572   1.713   3.048
37949W        W 2934  33.004  26.458  11.372
37950W        W 2935  16.850   6.935  13.339
37951W        W 2936  29.689   3.701  12.957
37952W        W 2937   1.488  35.398  12.868
37953W        W 2938  30.837  34.504  13.760
37954W        W 2939  39.035  35.651   1.442
37955W        W 2940   7.264  21.858  12.903
37956W        W 2941  32.429  33.979   4.372
37957W        W 2942   8.675  19.165   2.901
37958W        W 2943  21.193  32.348   1.801
37959W        W 2944  24.656  34.521  12.401
37960W        W 2945  29.904  18.772  11.392
37961W        W 2946  31.450  10.327   4.185
37962W        W 2947  34.866  40.368   1.825
37963W        W 2948  15.153  17.801   0.118
37964W        W 2949  21.104  15.097  14.229
37965W        W 2950  11.652  21.578  13.705
37966W        W 2951  10.145  25.640  13.298
37967W        W 2952  21.232  33.051   2.241
37968W        W 2953  20.799  18.256   2.281
37969W        W 2954  33.977  35.604  11.886
37970W        W 2955  25.142  40.836  10.736
37971W        W 2956  11.414  29.605   0.519
37972W        W 2957  39.280  43.384   1.410
37973W        W 2958  29.157   4.686   4.068
37974W        W 2959   4.684  41.461  11.242
37975W        W 2960  43.482  26.186   5.280
37976W        W 2961   1.207   8.091  10.731
37977W        W 2962  19.034  40.361  14.104
37978W        W 2963  39.949  28.225  12.685
37979W        W 2964  20.206  12.165   2.820
37980W        W 2965  43.270  37.599   0.567
37981W        W 2966  10.942  42.915  14.059
37982W        W 2967   1.449   4.116   0.050
37983W        W 2968  29.118  39.689   2.343
37984W        W 2969  29.611  33.600   1.371
37985W        W 2970  11.188  28.586  12.849
37986W        W 2971   8.389  37.970  11.086
37987W        W 2972  40.781  27.151  11.521
37988W        W 2973  42.249  39.823   2.908
37989W        W 2974  38.252  32.642   3.588
37990W        W 2975  44.771  13.026   0.365
37991W        W 2976   0.992  38.345  11.163
37992W        W 2977  34.431  20.405   4.069
37993W        W 2978  35.382  40.175   0.234
37994W        W 2979  25.910   1.377   0.918
37995W        W 2980   6.785  27.965   0.535
37996W        W 2981  27.012  38.213  11.937
37997W        W 2982  23.301  37.424   2.708
37998W        W 2983  31.770   3.008   4.192
37999W        W 2984   6.765  11.088   3.580
38000W        W 2985   1.296   9.107   4.562
38001W        W 2986   6.986   6.066  11.629
38002W        W 2987  13.885  25.271   4.845
38003W        W 2988  13.307  26.039  13.276
38004W        W 2989  24.053   9.402   2.430
38005W        W 2990  36.958  42.625  10.516
38006W        W 2991   3.893  25.005   5.063
38007W        W 2992  17.712  32.874   1.370
38008W        W 2993  22.549  36.397   3.971
38009W        W 2994  28.482  19.825  14.289
38010W        W 2995  12.175   5.721  10.844
38011W        W 2996  20.062  39.269  10.715
38012W        W 2997  15.578  15.623   1.422
38013W        W 2998  13.802  22.129  14.133
38014W        W 2999   0.318  43.216   3.711
38015W        W 3000  38.843   4.509  14.308
38016W        W 3001  35.550  35.377   4.133
38017W        W 3002  18.730  14.242  10.672
38018W        W 3003  30.493  23.717   1.737
38019W        W 3004  12.200  16.844   4.122
38020W        W 3005  15.569   3.641   3.849
38021W        W 3006  14.613   6.113  14.464
38022W        W 3007   2.754   2.806  12.983
38023W        W 3008  27.798  42.160  14.463
38024W        W 3009  43.135  41.846  14.226
38025W        W 3010   3.401  27.796  11.565
38026W        W 3011  11.895   5.624   3.214
38027W        W 3012  30.064  29.333  13.921
38028W        W 3013  44.306  22.765   3.719
38029W        W 3014  19.964   6.394  14.710
38030W        W 3015  25.897   4.208  12.400
38031W        W 3016  19.750   2.682   2.857
38032W        W 3017   3.701   3.920   4.202
38033W        W 3018  11.606   9.799   2.690
38034W        W 3019   0.513  19.918   4.612
38035W        W 3020  40.288  15.134   4.090
38036W        W 3021   2.820  44.190  13.105
38037W        W 3022  25.569  30.083  14.300
38038W        W 3023  18.431   0.500   3.297
38039W        W 3024   9.690  21.505   0.736
38040W        W 3025  33.255   9.370  12.621
38041W        W 3026  17.136  44.032   4.069
38042W        W 3027  12.848  37.988  12.888
38043W        W 3028  30.648  36.153   2.748
38044W        W 3029   6.139  39.539   3.313
38045W        W 3030  40.691  11.236  13.266
38046W        W 3031  36.778   8.388  14.277
38047W        W 3032  30.474  30.567  13.411
38048W        W 3033  27.028  21.264  11.174
38049W        W 3034  32.264  37.975   4.805
38050W        W 3035  20.809  19.198  14.836
38051W        W 3036  21.097  15.365  10.875
38052W        W 3037   2.883  14.173   0.313
38053W        W 3038  22.163  17.520  14.893
38054W        W 3039   6.690  16.731   3.877
38055W        W 3040  18.683   9.684   3.388
38056W        W 3041  19.214   3.203   3.608
38057W        W 3042  30.140  15.702  10.454
38058W        W 3043   1.532   0.818  11.423
38059W        W 3044  20.717  20.504   2.799
38060W        W 3045  39.569   5.474   0.778
38061W        W 3046  16.938  11.694  11.985
38062W        W 3047  37.876  33.005  12.359
38063W        W 3048  25.551  43.528  12.749
38064W        W 3049   8.518   4.308   1.451
38065W        W 3050   1.502  18.481  12.539
38066W        W 3051  29.218   4.975   2.224
38067W        W 3052  13.544  44.157  11.070
38068W        W 3053  44.452  32.909  14.049
38069W        W 3054   3.264  42.105  14.152
38070W        W 3055  20.248  11.105   0.001
38071W        W 3056  27.801  27.602  11.540
38072W        W 3057  25.473  30.272  13.009
38073W        W 3058  14.821   9.726   3.349
38074W        W 3059  33.645   9.926   0.982
38075W        W 3060  38.892   9.714   2.768
38076W        W 3061  33.955   4.787   0.819
38077W        W 3062   6.255   3.851   2.761
38078W        W 3063  35.502  23.544  11.211
38079W        W 3064  38.904  21.730   4.712
38080W        W 3065  23.995   2.911   1.639
38081W        W 3066  42.253  28.135  11.198
38082W        W 3067  14.000  15.237   1.905
38083W        W 3068  10.897  10.698   1.344
38084W        W 3069  17.502  41.280  13.998
38085W        W 3070  28.012   0.272  12.492
38086W        W 3071  14.160  22.157  14.541
38087W        W 3072  37.570  17.400  14.956
38088W        W 3073  38.890  34.547  13.839
38089W        W 3074  35.919  42.938   3.648
38090W        W 3075   7.449  32.843   3.097
38091W        W 3076   5.838  18.961   2.664
38092W        W 3077  43.360  41.509   5.037
38093W        W 3078   8.839  34.010   4.599
38094W        W 3079  16.936  25.187   1.345
38095W        W 3080   0.394  27.153   5.377
38096W        W 3081  20.565  23.311  13.455
38097W        W 3082  22.800  11.223   3.651
38098W        W 3083   0.446  25.022   3.736
38099W        W 3084   9.717   4.445  11.892
38100W        W 3085   6.629  30.864   4.210
38101W        W 3086  27.578  27.428  13.776
38102W        W 3087   0.747  23.755   0.385
38103W        W 3088   4.283  33.052   0.756
38104W        W 3089  26.476  37.996   1.358
38105W        W 3090  37.897  43.046  11.195
38106W        W 3091  36.928  41.895  14.825
38107W        W 3092   3.687   0.238   2.718
38108W        W 3093  38.096   3.326  14.268
38109W        W 3094  41.110  26.078  13.973
38110W        W 3095  13.412  28.691  14.311
38111W        W 3096  44.473  43.911   2.229
38112W        W 3097   5.288  24.726   1.580
38113W        W 3098  11.772  34.999   0.188
38114W        W 3099  44.004  43.355  10.413
38115W        W 3100   5.170  12.869   2.020
38116W        W 3101  37.309  20.555   0.472
38117W        W 3102   4.855  15.140   3.239
38118W        W 3103  18.783   6.494   3.645
38119W        W 3104  39.595  17.927   4.174
38120W        W 3105  43.415  44.353  10.573
38121W        W 3106  35.424  14.301  13.828
38122W        W 3107  23.285  40.448  14.338
38123W        W 3108  34.549  40.865  11.605
38124W        W 3109  22.778  27.935   1.375
38125W        W 3110  44.429  22.688  14.947
38126W        W 3111  24.498   9.885  11.186
38127W        W 3112  20.034  40.749  12.087
38128W        W 3113   5.682   6.209   0.411
38129W        W 3114  41.916  37.240   2.707
38130W        W 3115  11.564  21.682  14.196
38131W        W 3116  29.871  43.803  13.995
38132W        W 3117  27.842  23.226   1.540
38133W        W 3118  35.958  20.724  10.998
38134W        W 3119  13.268  38.006   0.040
38135W        W 3120  34.654  10.746   0.362
38136W        W 3121  26.648  17.667   4.074
38137W        W 3122  40.981  24.602   2.381
38138W        W 3123  43.221  35.036   0.711
38139W        W 3124   4.190   7.181   0.983
38140W        W 3125  32.610  25.450  10.996
38141W        W 3126  36.976  11.314  13.450
38142W        W 3127   1.411  21.777  13.999
38143W        W 3128   8.499   3.835   4.128
38144W        W 3129   5.060  22.148   4.663
38145W        W 3130  10.384  23.552   4.796
38146W        W 3131  24.665  43.048  14.514
38147W        W 3132  20.282   4.469   2.814
38148W        W 3133  24.993  29.453   1.812
38149W        W 3134  22.752   3.600   3.832
38150W        W 3135   2.192  32.365  14.070
38151W        W 3136  43.959  35.477   0.472
38152W        W 3137  39.781  33.555  13.320
38153W        W 3138  16.108  39.475  12.414
38154W        W 3139   1.140  35.919  14.596
38155W        W 3140  34.433  10.358  11.485
38156W        W 3141  27.037  15.820  12.878
38157W        W 3142   4.721  24.618  12.122
38158W        W 3143   3.059  11.568   0.777
38159W        W 3144  33.716  18.223   3.120
38160W        W 3145   9.191  25.844  11.226
38161W        W 3146  29.384  25.266   3.721
38162W        W 3147   0.100  27.694  11.015
38163W        W 3148  29.078  30.462   4.728
38164W        W 3149   1.434   8.872   2.173
38165W        W 3150  40.468   7.271  14.503
38166W        W 3151   8.402  33.220  10.710
38167W        W 3152  31.963  44.837   4.907
38168W        W 3153  23.740  27.716   2.657
38169W        W 3154  18.002  22.750  12.439
38170W        W 3155  25.762  36.900   0.065
38171W        W 3156  43.614  28.044   0.369
38172W        W 3157  41.740  14.192  12.880
38173W        W 3158   6.439   2.098   3.678
38174W        W 3159  20.086  27.818  13.749
38175W        W 3160   6.913  16.211   1.153
38176W        W 3161  43.289  25.604   9.683
38177W        W 3162  25.357   1.908  13.516
38178W        W 3163  43.816  44.868  13.281
38179W        W 3164  22.782  18.773   3.371
38180W        W 3165  25.209  33.894  14.385
38181W        W 3166  44.470  27.159  12.003
38182W        W 3167  23.422   7.918  13.462
38183W        W 3168   7.587  37.675   3.650
38184W        W 3169  20.545   0.450   0.230
38185W        W 3170  26.156  30.066  12.586
38186W        W 3171  11.727  31.460  14.621
38187W        W 3172   0.129  40.361  14.458
38188W        W 3173  40.886  41.509   3.803
38189W        W 3174   0.414  13.188   1.920
38190W        W 3175  21.322  29.587   5.048
38191W        W 3176  15.711  21.620   4.263
38192W        W 3177  10.405  23.346   0.884
38193W        W 3178  43.249  18.332  12.023
38194W        W 3179   1.229  41.055   3.188
38195W        W 3180  20.221  26.303  12.077
38196W        W 3181  21.661  36.894   1.492
38197W        W 3182   5.753  33.936  12.127
38198W        W 3183  19.676   5.897   3.090
38199W        W 3184  16.523  10.309   3.278
38200W        W 3185  21.590  21.051   1.982
38201W        W 3186  34.371  34.405  12.977
38202W        W 3187  18.106  27.706  14.118
38203W        W 3188  12.263  18.020   0.900
38204W        W 3189   1.946  35.422  12.109
38205W        W 3190  33.965  27.722  11.118
38206W        W 3191  28.028   8.949   2.216
38207W        W 3192  42.885   7.138  11.908
38208W        W 3193  33.027  18.171   1.879
38209W        W 3194  32.701  31.059  13.122
38210W        W 3195  16.619  37.403   2.846
38211W        W 3196   6.845  42.843  11.108
38212W        W 3197  11.264   3.339   0.363
38213W        W 3198  37.568  29.984  12.527
38214W        W 3199  44.278   3.905   0.457
38215W        W 3200   0.789   1.353   1.454
38216W        W 3201  29.460  25.965  14.859
38217W        W 3202  18.106  43.418   3.445
38218W        W 3203  11.790   3.648  14.421
38219W        W 3204   9.445  36.239   1.864
38220W        W 3205  40.637  37.955   2.936
38221W        W 3206   5.751   8.761   1.861
38222W        W 3207   9.914  22.569  14.930
38223W        W 3208   0.264  42.379   2.756
38224W        W 3209  24.537  23.788  14.482
38225W        W 3210  29.434  26.528   2.246
38226W        W 3211  27.279  26.787   4.234
38227W        W 3212  20.689   6.271   2.842
38228W        W 3213  31.848  34.646   0.739
38229W        W 3214  26.898  26.539  13.400
38230W        W 3215  20.481  23.283   1.191
38231W        W 3216   0.909   1.961   4.874
38232W        W 3217  37.557  15.594   3.191
38233W        W 3218  20.765  42.251   4.372
38234W        W 3219  15.450  21.470  10.528
38235W        W 3220  25.159  11.594   3.687
38236W        W 3221   1.346   4.185  11.205
38237W        W 3222   3.856   7.887  12.949
38238W        W 3223  28.659  10.959  11.988
38239W        W 3224   6.216  43.013  12.388
38240W        W 3225  18.564  13.868   3.576
38241W        W 3226  14.634  15.720   0.558
38242W        W 3227  30.174  18.040  13.898
38243W        W 3228  17.764  34.411   2.320
38244W        W 3229  27.284  21.710   2.001
38245W        W 3230  19.418   1.456   3.997
38246W        W 3231   1.300  32.160   4.586
38247W        W 3232  38.116  30.383  14.381
38248W        W 3233  41.578  39.383   2.854
38249W        W 3234  42.154  29.510  10.288
38250W        W 3235  44.577  10.830   3.828
38251W        W 3236  11.926  38.472   1.322
38252W        W 3237  35.726  26.535  12.562
38253W        W 3238  34.834  34.857   4.643
38254W        W 3239  24.655  36.549   1.753
38255W        W 3240   2.280  10.414   0.257
38256W        W 3241  16.580   8.735  12.773
38257W        W 3242   8.411  36.195  12.023
38258W        W 3243   3.003   6.790   2.435
38259W        W 3244  14.058  20.559   3.103
38260W        W 3245  18.205  34.662  12.278
38261W        W 3246  28.057   3.380   4.618
38262W        W 3247   7.929  38.882   5.011
38263W        W 3248  14.130  33.041  14.043
38264W        W 3249  32.884  35.967  11.570
38265W        W 3250  18.574  28.545   0.849
38266W        W 3251  16.877  27.944  11.464
38267W        W 3252  36.122   7.839   3.642
38268W        W 3253  13.318  31.295  11.826
38269W        W 3254  27.544  22.208  12.128
38270W        W 3255  31.181  31.438  13.141
38271W        W 3256  19.307  13.849   1.461
38272W        W 3257  18.616  32.885   3.265
38273W        W 3258  15.914  36.440  12.890
38274W        W 3259  33.329  27.736  14.734
38275W        W 3260  37.653  20.048  11.424
38276W        W 3261  13.332  38.521   0.313
38277W        W 3262  17.220  31.580  12.580
38278W        W 3263  34.548  17.861  14.816
38279W        W 3264  20.101  16.285   2.147
38280W        W 3265  36.496  41.345  10.442
38281W        W 3266  28.127   1.091   0.267
38282W        W 3267  42.857   9.693   2.596
38283W        W 3268  17.205  39.827   3.234
38284W        W 3269  38.997  36.416   0.690
38285W        W 3270  15.059   7.433  13.531
38286W        W 3271  31.825  41.113   2.486
38287W        W 3272  40.847  16.181  13.508
38288W        W 3273  17.564  24.780   4.190
38289W        W 3274   7.573  27.988  14.999
38290W        W 3275  14.595  29.708   1.050
38291W        W 3276   1.990  34.100  13.521
38292W        W 3277  22.174  11.412  12.072
38293W        W 3278  28.535   6.204   4.695
38294W        W 3279   1.239  43.003  11.063
38295W        W 3280  23.688   4.907   0.880
38296W        W 3281  30.867  15.561   1.450
38297W        W 3282  27.879  32.431  13.068
38298W        W 3283  21.142  12.132   0.602
38299W        W 3284  17.596  32.130   3.352
38300W        W 3285   8.916  35.584   0.628
38301W        W 3286  32.450  29.017   4.578
38302W        W 3287  31.025  39.677  13.509
38303W        W 3288  24.955  41.147  11.648
38304W        W 3289  42.412  20.692  14.091
38305W        W 3290   6.796  16.929  13.579
38306W        W 3291   4.558  42.288  12.602
38307W        W 3292  32.843  30.537   2.840
38308W        W 3293   6.816  18.047   1.744
38309W        W 3294  32.367  19.563   3.726
38310W        W 3295  26.869  11.660   1.844
38311W        W 3296  41.780   8.285   3.346
38312W        W 3297  33.503  30.691  14.319
38313W        W 3298  29.897   9.079   0.982
38314W        W 3299   1.342   3.488  11.989
38315W        W 3300   4.400  24.176   2.725
38316W        W 3301   7.308  22.066   2.385
38317W        W 3302  30.034  10.377  11.450
38318W        W 3303  37.878  34.783   5.519
38319W        W 3304  10.602   9.192   3.242
38320W        W 3305  37.031  40.361   2.409
38321W        W 3306   5.836   0.284  11.655
38322W        W 3307  43.592  21.742   0.212
38323W        W 3308  18.880  15.101   1.980
38324W        W 3309   0.427  41.735  14.763
38325W        W 3310   4.995  39.562  12.931
38326W        W 3311   6.328  28.531   1.927
38327W        W 3312  11.659  15.115   1.453
38328W        W 3313   7.915  18.259   1.277
38329W        W 3314   6.179  14.157  14.749
38330W        W 3315  17.652  36.482  10.754
38331W        W 3316  22.938   4.826  10.975
38332W        W 3317   6.168  26.068   3.629
38333W        W 3318  20.056  40.287   0.702
38334W        W 3319   2.313  10.752   0.970
38335W        W 3320  25.759  35.427  10.993
38336W        W 3321   4.460   4.882   1.331
38337W        W 3322   4.311  34.487   4.657
38338W        W 3323   0.491  40.857  10.659
38339W        W 3324   3.772  33.033   4.893
38340W        W 3325  21.145  42.086   0.672
38341W        W 3326  18.582  19.861  14.982
38342W        W 3327  31.569  42.582   4.835
38343W        W 3328  34.990  10.663   2.024
38344W        W 3329  42.889  43.970  11.588
38345W        W 3330   1.479   2.340   4.283
38346W        W 3331  16.243   7.199   0.234
38347W        W 3332  18.067  11.342  13.355
38348W        W 3333  20.077  25.019   2.673
38349W        W 3334  25.191   6.227   1.959
38350W        W 3335  27.967   5.430  12.602
38351W        W 3336   0.444  34.996   4.331
38352W        W 3337   2.481  18.195  12.217
38353W        W 3338  42.497  29.654  14.488
38354W        W 3339  21.587  25.146   1.619
38355W        W 3340   8.831  24.373  12.181
38356W        W 3341   4.248  34.612  13.970
38357W        W 3342  25.886   7.177  12.055
38358W        W 3343  35.070  18.956   0.364
38359W        W 3344  14.834  29.522  12.318
38360W        W 3345  27.075  12.130   3.282
38361W        W 3346  24.997  33.572  11.041
38362W        W 3347  27.869  44.035   0.411
38363W        W 3348  14.658  43.000   4.551
38364W        W 3349  34.181  13.119   2.304
38365W        W 3350  23.779  43.945  12.974
38366W        W 3351  34.996  20.636   1.788
38367W        W 3352  30.443  28.426  14.930
38368W        W 3353  28.812  35.680  13.118
38369W        W 3354  27.583  35.850   4.565
38370W        W 3355   8.178  43.942   3.918
38371W        W 3356  36.980  19.993   3.351
38372W        W 3357  44.080  40.077   3.657
38373W        W 3358  38.668  29.467   0.588
38374W        W 3359  28.212  26.705  10.659
38375W        W 3360   2.711  21.267  14.660
38376W        W 3361   3.833   5.894   4.140
38377W        W 3362  26.178   0.133  13.079
38378W        W 3363  15.614  32.540  12.188
38379W        W 3364  26.109   1.311   3.145
38380W        W 3365   7.818  15.386  10.054
38381W        W 3366  24.028   0.572   2.314
38382W        W 3367  32.834  26.495  13.941
38383W        W 3368  14.484  42.268   3.221
38384W        W 3369  18.469  31.357  12.005
38385W        W 3370   0.505  37.654   2.921
38386W        W 3371  40.465   6.172   2.189
38387W        W 3372  18.026  31.512   3.556
38388W        W 3373  40.671  44.545  13.378
38389W        W 3374  41.595  34.992   3.837
38390W        W 3375  44.868  21.021   0.782
38391W        W 3376  12.769   7.854   2.378
38392W        W 3377  44.353  35.978  10.081
38393W        W 3378  21.701  29.943  13.478
38394W        W 3379  18.312   3.240   3.689
38395W        W 3380  10.883   1.914   2.498
38396W        W 3381  25.332  28.745  10.347
38397W        W 3382  30.977   0.303   2.213
38398W        W 3383   1.415   0.314  14.983
38399W        W 3384  18.747   8.260   2.631
38400W        W 3385  18.707  30.216  14.932
38401W        W 3386  20.508  44.232   4.125
38402W        W 3387  34.190   6.748   4.045
38403W        W 3388   8.050  15.918   2.079
38404W        W 3389  11.069  21.573  14.365
38405W        W 3390  40.897  30.052  11.725
38406W        W 3391  39.883  18.110   0.209
38407W        W 3392  30.330  39.497   2.585
38408W        W 3393  17.353  23.577  11.100
38409W        W 3394  17.781  37.613  12.884
38410W        W 3395  37.623   0.233   2.617
38411W        W 3396  20.486  25.688   3.694
38412W        W 3397  31.582  42.326  10.664
38413W        W 3398   9.614   7.386   1.270
38414W        W 3399  41.596   3.713  11.366
38415W        W 3400   6.155   1.282   2.640
38416W        W 3401  17.246  26.401  14.357
38417W        W 3402  34.986  35.929  11.639
38418W        W 3403  42.700   4.494   1.939
38419W        W 3404  31.723  20.184  11.090
38420W        W 3405  25.023  23.023   4.614
38421W        W 3406   7.420   8.484   1.288
38422W        W 3407  20.005  22.285  13.991
38423W        W 3408   8.769  32.316   4.130
38424W        W 3409  44.889  31.645   1.345
38425W        W 3410  33.602  38.922  12.117
38426W        W 3411  17.628  28.704   0.941
38427W        W 3412   9.829  32.639  11.393
38428W        W 3413  32.098   1.865  11.480
38429W        W 3414  19.004  17.784   0.040
38430W        W 3415  34.405  33.029   1.322
38431W        W 3416  29.351  36.688   1.810
38432W        W 3417   8.402  37.362  12.524
38433W        W 3418  39.233   7.578  11.630
38434W        W 3419   8.751   0.469  12.956
38435W        W 3420  27.030  17.058  13.431
38436W        W 3421  17.544   6.538   0.551
38437W        W 3422   6.972  31.530   3.380
38438W        W 3423   1.507  26.431   4.394
38439W        W 3424  26.713  27.627   2.752
38440W        W 3425  32.868  21.984  13.078
38441W        W 3426   1.680  14.749   3.603
38442W        W 3427   2.478  37.970   3.773
38443W        W 3428   5.018  25.675  11.643
38444W        W 3429  10.064  16.105   5.080
38445W        W 3430  12.272  21.759   4.032
38446W        W 3431  30.678  25.327   9.779
38447W        W 3432   4.376  12.611  14.865
38448W        W 3433  16.592   5.956   2.182
38449W        W 3434   2.919  27.076   2.668
38450W        W 3435  30.490  15.825  13.840
38451W        W 3436  19.709   2.861  12.008
38452W        W 3437  42.995  15.076  13.002
38453W        W 3438  35.170  23.719   1.436
38454W        W 3439   2.374  38.827  11.055
38455W        W 3440  44.504   9.234  11.912
38456W        W 3441  18.681   0.902  12.169
38457W        W 3442   5.788  42.894   3.145
38458W        W 3443  12.337  21.977  14.299
38459W        W 3444   2.290  37.353   3.535
38460W        W 3445  22.666  41.274   4.745
38461W        W 3446  15.782  31.609  13.607
38462W        W 3447  13.578  26.061  14.472
38463W        W 3448   6.840  20.218  14.961
38464W        W 3449  42.227  23.663  13.895
38465W        W 3450  15.592  19.231  10.767
38466W        W 3451  24.496   8.864  11.970
38467W        W 3452  12.681  23.720  11.625
38468W        W 3453  26.682  24.063   4.442
38469W        W 3454  26.663  42.789  10.757
38470W        W 3455  44.875  30.404  11.617
38471W        W 3456  44.265   0.186  14.331
38472W        W 3457  14.119  22.682  13.920
38473W        W 3458   1.296   3.644  14.912
38474W        W 3459  18.612  36.398  11.988
38475W        W 3460   4.755  23.914  14.543
38476W        W 3461  34.734   2.452   4.875
38477W        W 3462  43.073   0.832   4.166
38478W        W 3463  42.566  22.667  11.969
38479W        W 3464  42.853  28.237   4.254
38480W        W 3465   2.524  23.597   0.446
38481W        W 3466  11.253  13.550  14.367
38482W        W 3467   6.517  28.065  13.713
38483W        W 3468  43.488  21.176   1.766
38484W        W 3469  25.972  32.896  13.515
38485W        W 3470   3.410  20.630  11.547
38486W        W 3471  39.832  22.145  14.325
38487W        W 3472  29.169  11.628  13.372
38488W        W 3473  42.438  14.425  10.692
38489W        W 3474  15.067   1.956   0.780
38490W        W 3475  40.817  15.753   0.334
38491W        W 3476  33.626  33.807   1.731
38492W        W 3477  25.449  17.061  10.694
38493W        W 3478  41.881   6.192   4.983
38494W        W 3479   3.639  30.407  14.834
38495W        W 3480   7.029   1.192   4.557
38496W        W 3481  16.282  30.872   3.574
38497W        W 3482  39.669  23.388   3.083
38498W        W 3483  41.293   0.714   3.622
38499W        W 3484  26.378  24.996  10.234
38500W        W 3485  32.417  44.544   3.607
38501W        W 3486  20.014  16.748  12.415
38502W        W 3487  21.928  23.682   2.701
38503W        W 3488  42.927  14.542   0.202
38504W        W 3489  31.907  24.673  14.870
38505W        W 3490  27.223  40.397  12.508
38506W        W 3491  20.777   2.740   0.292
38507W        W 3492  20.217  21.695   4.149
38508W        W 3493  41.925  40.306   2.223
38509W        W 3494  43.718  10.255   4.435
38510W        W 3495  27.164  40.019   0.986
38511W        W 3496  18.292  33.630  12.473
38512W        W 3497  25.057  41.289  14.113
38513W        W 3498  14.686   3.937   1.799
38514W        W 3499   7.239   3.239  12.116
38515W        W 3500  26.916  33.139  10.460
38516W        W 3501  21.224  41.215   4.114
38517W        W 3502  43.110   6.517  13.627
38518W        W 3503  30.532  22.224   1.472
38519W        W 3504  42.862  32.734   2.781
38520W        W 3505  27.009  42.878  11.148
38521W        W 3506  20.104   8.386  12.604
38522W        W 3507   2.057  20.933  13.951
38523W        W 3508  13.410  43.360  14.441
38524W        W 3509   8.335  15.304   3.350
38525W        W 3510   5.699  13.787   4.442
38526W        W 3511  31.134  27.608  11.979
38527W        W 3512  31.970  20.660  14.437
38528W        W 3513   5.988  34.532   2.460
38529W        W 3514   9.829  34.624  10.402
38530W        W 3515  19.314  24.922  11.396
38531W        W 3516  24.554  17.376   0.787
38532W        W 3517  29.359  22.841   4.154
38533W        W 3518  25.421  32.637  10.798
38534W        W 3519  17.993  16.399   0.470
38535W        W 3520  41.830   2.489  13.382
38536W        W 3521  15.563  33.811   1.954
38537W        W 3522  25.760  35.124  13.973
38538W        W 3523  38.106  33.567  13.954
38539W        W 3524  35.410  26.952   3.857
38540W        W 3525  21.234  41.947  14.213
38541W        W 3526  15.654   4.035   4.162
38542W        W 3527  19.544  40.774   2.259
38543W        W 3528  24.540  27.812  14.298
38544W        W 3529  21.476  23.179  13.945
38545W        W 3530  29.561  35.418   0.934
38546W        W 3531  30.537   7.558  12.231
38547W        W 3532   3.001  43.777   4.071
38548W        W 3533  33.710  32.377   2.169
38549W        W 3534  10.374  24.689   2.753
38550W        W 3535   8.940  25.510  13.653
38551W        W 3536  18.277   8.290  14.182
38552W        W 3537  29.909  25.310   3.684
38553W        W 3538  33.166  11.859  11.910
38554W        W 3539  22.124  20.253   0.385
38555W        W 3540  40.987   9.305  13.950
38556W        W 3541  42.491  18.595  13.815
38557W        W 3542  37.617  36.461   2.801
38558W        W 3543  28.468  22.213  11.879
38559W        W 3544  13.692  42.033  11.085
38560W        W 3545  29.894  40.391   1.231
38561W        W 3546   2.195  22.903  10.679
38562W        W 3547  35.462  42.260  14.293
38563W        W 3548  42.089   4.353   1.699
38564W        W 3549  23.445  22.410   0.866
38565W        W 3550  44.716  24.885  13.246
38566W        W 3551   7.167  22.824  13.189
38567W        W 3552  11.443   7.073   4.624
38568W        W 3553  37.763  18.444   4.460
38569W        W 3554   2.353  17.976  12.662
38570W        W 3555  39.411  42.005   1.383
38571W        W 3556  31.054  16.849   2.652
38572W        W 3557   5.367   3.695  12.523
38573W        W 3558  33.837  40.394  13.492
38574W        W 3559   8.789  21.726   1.195
38575W        W 3560  42.516  28.566   0.346
38576W        W 3561  32.553   8.162  11.104
38577W        W 3562   9.849  22.139   1.210
38578W        W 3563  38.487   5.805   0.214
38579W        W 3564   7.792  21.787  12.824
38580W        W 3565  39.024  35.465   0.936
38581W        W 3566  32.031   4.362  11.146
38582W        W 3567  22.505   7.023   4.277
38583W        W 3568   2.925  43.682   0.352
38584W        W 3569  43.425  15.154  11.668
38585W        W 3570  30.190  39.128  13.359
38586W        W 3571  10.902  15.711  12.872
38587W        W 3572  24.778  34.436  10.960
38588W        W 3573  33.104  10.160  14.979
38589W        W 3574  32.045   8.375  14.975
38590W        W 3575   0.715  40.789   4.071
38591W        W 3576  30.554  14.659   3.801
38592W        W 3577  37.960  18.644  10.468
38593W        W 3578  19.622   3.387  12.032
38594W        W 3579  29.232   3.423   3.354
38595W        W 3580   6.320   2.066  14.374
38596W        W 3581  40.455  42.797  12.079
38597W        W 3582   2.312  28.158  14.850
38598W        W 3583  42.258  37.622  13.435
38599W        W 3584  21.691  32.741  10.636
38600W        W 3585  17.275  13.884   3.717
38601W        W 3586  44.532  40.055   4.460
38602W        W 3587   7.294   3.791  10.812
38603W        W 3588  36.317  43.705  14.151
38604W        W 3589  21.465  42.262   2.012
38605W        W 3590   2.023  34.894   0.432
38606W        W 3591  20.956  39.391  10.460
38607W        W 3592  39.535  26.048   2.812
38608W        W 3593  34.436  10.650  11.052
38609W        W 3594  27.895  19.681  12.956
38610W        W 3595   2.379  42.866   4.750
38611W        W 3596  34.088  12.372   4.705
38612W        W 3597   1.022  17.155  11.167
38613W        W 3598  32.190  21.741   3.401
38614W        W 3599   3.858  18.314  13.629
38615W        W 3600  20.717  16.232   3.568
38616W        W 3601  15.296   0.179  11.700
38617W        W 3602  28.611   8.281   4.073
38618W        W 3603   3.866  15.302  10.622
38619W        W 3604   7.672  26.981  14.772
38620W        W 3605  25.470  26.680  14.783
38621W        W 3606  35.898  13.875   4.903
38622W        W 3607   0.347  16.043  11.080
38623W        W 3608  43.840  18.032   0.388
38624W        W 3609  25.105  29.947   1.000
38625W        W 3610   5.480   6.290  13.839
38626W        W 3611  42.931  34.203   2.806
38627W        W 3612  25.615  38.461  12.587
38628W        W 3613  15.728  41.420   1.950
38629W        W 3614  40.473  14.350  11.706
38630W        W 3615  24.101   1.435   3.232
38631W        W 3616  16.614   6.058   3.524
38632W        W 3617   5.369   5.620  14.523
38633W        W 3618  11.797  44.999   4.834
38634W        W 3619  29.085  30.391  13.049
38635W        W 3620  42.937  43.746  14.750
38636W        W 3621   0.186  39.521  12.139
38637W        W 3622  43.495  44.341   1.369
38638W        W 3623   6.833  42.360  13.373
38639W        W 3624  15.712  42.108   3.673
38640W        W 3625   9.361  39.521   1.907
38641W        W 3626  25.148  25.469   0.433
38642W        W 3627   8.552   1.716  14.866
38643W        W 3628  37.260  14.186   3.306
38644W        W 3629  34.292  42.462   2.776
38645W        W 3630  34.522  17.069  14.459
38646W        W 3631   9.199   4.862   2.918
38647W        W 3632   0.783  43.265  13.307
38648W        W 3633  18.160   2.263   4.160
38649W        W 3634  10.630  24.930   2.203
38650W        W 3635   2.669  36.415   0.184
38651W        W 3636  19.993  27.948   3.075
38652W        W 3637  32.117  38.078   2.240
38653W        W 3638   1.421  28.652   2.197
38654W        W 3639   3.868  28.686  12.382
38655W        W 3640   1.228   0.416  14.468
38656W        W 3641  11.422  16.078   3.161
38657W        W 3642  16.497  32.901   3.370
38658W        W 3643  12.296   5.830  14.873
38659W        W 3644   2.536  11.195  10.592
38660W        W 3645  44.763  43.063  11.020
38661W        W 3646  19.610  37.120   0.857
38662W        W 3647  24.774  12.641  11.712
38663W        W 3648   0.019   0.983   4.092
38664W        W 3649  19.558   6.332   4.193
38665W        W 3650  40.993  31.111   0.838
38666W        W 3651  42.646   9.749   3.612
38667W        W 3652   5.253  29.479   2.697
38668W        W 3653   0.997  39.275   4.094
38669W        W 3654   2.709   1.464  12.024
38670W        W 3655  26.951  26.419   1.663
38671W        W 3656  30.429  24.796   0.860
38672W        W 3657  33.736  10.112  10.719
38673W        W 3658  16.208   0.228   4.177
38674W        W 3659  23.482  30.096  11.247
38675W        W 3660  44.921  23.150   1.894
38676W        W 3661  28.623  39.030   0.873
38677W        W 3662  25.197  26.382  12.925
38678W        W 3663  33.232  35.463  13.009
38679W        W 3664  31.977  11.615  12.822
38680W        W 3665  30.014  14.701   2.694
38681W        W 3666  39.877  41.229   0.369
38682W        W 3667   9.589  43.414   2.625
38683W        W 3668  13.585  13.411   2.909
38684W        W 3669  22.236  23.733  11.695
38685W        W 3670   3.403  17.579   3.408
38686W        W 3671   7.220  34.947   0.530
38687W        W 3672   0.474   6.001   1.228
38688W        W 3673  38.850  39.633   3.984
38689W        W 3674  26.823  27.776  10.749
38690W        W 3675  24.876  29.668   5.074
38691W        W 3676  42.238  31.963  11.213
38692W        W 3677   7.431   9.439   0.361
38693W        W 3678  17.066  22.773  10.001
38694W        W 3679  39.898  41.177  12.657
38695W        W 3680   7.682   4.263   4.859
38696W        W 3681  23.440  35.346  12.195
38697W        W 3682  22.614   7.184   2.378
38698W        W 3683   6.412   0.564   0.510
38699W        W 3684  30.857  33.042   1.295
38700W        W 3685   9.570  18.734   0.060
38701W        W 3686  22.303  19.033  13.426
38702W        W 3687  31.911   0.536   1.969
38703W        W 3688  19.087  33.104   1.502
38704W        W 3689   2.285  22.965  12.577
38705W        W 3690   3.238  12.617  12.100
38706W        W 3691  16.519  24.274  13.904
38707W        W 3692   5.155  29.066   0.881
38708W        W 3693  16.175  33.485  10.853
38709W        W 3694  37.954  38.757  12.441
38710W        W 3695  41.260  20.550   0.734
38711W        W 3696  18.174  22.190  11.785
38712W        W 3697  14.153  24.517   0.577
38713W        W 3698  38.302  22.507   2.737
38714W        W 3699  42.806  27.199  12.435
38715W        W 3700  15.559   7.232  11.966
38716W        W 3701   8.640   3.093   4.364
38717W        W 3702  26.213  33.053  13.971
38718W        W 3703  26.625  20.646   1.693
38719W        W 3704  10.362  42.248  12.422
38720W        W 3705   8.792  10.247  14.746
38721W        W 3706  32.640  24.021  14.845
38722W        W 3707   2.037   4.958  14.012
38723W        W 3708  21.775  30.047   3.423
38724W        W 3709   2.788  34.650   4.535
38725W        W 3710  22.037  35.000  13.424
38726W        W 3711   6.183  39.239  12.715
38727W        W 3712   3.636  27.754  13.871
38728W        W 3713  21.235  17.848   0.266
38729W        W 3714  44.452  30.577   0.666
38730W        W 3715  30.591  37.073  10.709
38731W        W 3716  13.894  32.522  11.955
38732W        W 3717  19.061  31.133  11.615
38733W        W 3718  18.653  15.578  14.435
38734W        W 3719  25.156  20.034   0.101
38735W        W 3720  41.510  22.566   5.403
38736W        W 3721   9.288  33.542  12.959
38737W        W 3722  11.855  35.893   5.128
38738W        W 3723  14.691  20.963  13.465
38739W        W 3724   0.773  14.462  13.689
38740W        W 3725  34.336  21.416   4.342
38741W        W 3726   3.898  11.235   0.946
38742W        W 3727  31.531   4.673   1.882
38743W        W 3728  26.043   7.407  12.496
38744W        W 3729  24.077  37.278  13.044
38745W        W 3730  40.099  10.336   2.782
38746W        W 3731  41.405  20.982  14.211
38747W        W 3732  20.180  34.926  14.307
38748W        W 3733  28.648  23.571   2.346
38749W        W 3734  29.349  28.013  11.902
38750W        W 3735  14.121  24.145  10.739
38751W        W 3736  14.155   8.802   2.677
38752W        W 3737  24.629   4.929   1.723
38753W        W 3738   7.918  18.745   3.317
38754W        W 3739   3.149  40.104  13.838
38755W        W 3740  28.396  42.714   3.215
38756W        W 3741  10.967   8.292  11.226
38757W        W 3742  23.302   9.265  11.306
38758W        W 3743  16.566  22.571   0.685
38759W        W 3744  17.609  31.213   0.913
38760W        W 3745  10.897  21.084   4.103
38761W        W 3746  10.847  16.503  13.898
38762W        W 3747  19.514  43.488   0.384
38763W        W 3748  18.443  37.943   3.793
38764W        W 3749   2.838  19.412   3.686
38765W        W 3750  14.549  19.488  10.694
38766W        W 3751  15.705  31.158   0.949
38767W        W 3752  15.278  24.066   1.232
38768W        W 3753  22.233  39.778  10.539
38769W        W 3754  25.032  11.819  11.990
38770W        W 3755  20.089   0.162  10.672
38771W        W 3756  44.112  27.957   0.291
38772W        W 3757  33.671  32.793   4.249
38773W        W 3758  13.224  33.851  12.058
38774W        W 3759  35.798   9.793   3.652
38775W        W 3760   5.917  37.677   3.212
38776W        W 3761  42.830  32.690   3.644
38777W        W 3762  24.573  11.783  13.602
38778W        W 3763  17.377  35.339   3.763
38779W        W 3764   2.882  18.748   2.313
38780W        W 3765  44.432  29.119  13.126
38781W        W 3766  14.078   0.982   4.008
38782W        W 3767  23.185  42.925   4.700
38783W        W 3768  11.427  33.579  12.930
38784W        W 3769  32.136  29.469  10.561
38785W        W 3770  15.078  36.558  13.871
38786W        W 3771  23.729  32.176   2.763
38787W        W 3772  10.165  17.047   0.817
38788W        W 3773  18.666  32.601  13.999
38789W        W 3774  13.282   4.383   3.804
38790W        W 3775  28.047  25.431  13.004
38791W        W 3776  12.780   0.516   3.924
38792W        W 3777  38.104   7.541   0.219
38793W        W 3778  39.310  40.365  14.148
38794W        W 3779  26.467  16.143   1.334
38795W        W 3780  18.468  37.041  14.429
38796W        W 3781  39.409  31.092   0.241
38797W        W 3782  23.680  25.180  12.409
38798W        W 3783  31.554   6.295  13.992
38799W        W 3784  17.080   5.806  12.789
38800W        W 3785  28.141  29.977  10.619
38801W        W 3786  28.214  19.695   2.260
38802W        W 3787   1.710  16.604  10.755
38803W        W 3788  36.296  21.229   2.271
38804W        W 3789   7.257  26.697   4.783
38805W        W 3790  12.145  24.649  10.540
38806W        W 3791  11.760   7.720  10.416
38807W        W 3792   8.246   6.235  12.777
38808W        W 3793   3.216  19.101   2.124
38809W        W 3794  25.636  40.401  11.228
38810W        W 3795   2.833  12.301   3.480
38811W        W 3796   0.166  32.359   0.065
38812W        W 3797  33.098  40.101  13.837
38813W        W 3798  41.892  38.626  13.396
38814W        W 3799  37.497  39.946   4.120
38815W        W 3800  29.341  26.129   4.321
38816W        W 3801  35.574  27.855   3.750
38817W        W 3802  36.634  30.618   1.304
38818W        W 3803  30.389  19.674  12.426
38819W        W 3804   6.689  26.553  14.000
38820W        W 3805  13.304  19.282   5.087
38821W        W 3806  11.728   0.244  14.954
38822W        W 3807  14.378  25.078  12.079
38823W        W 3808  16.714  36.422  11.689
38824W        W 3809  22.207  17.526   1.291
38825W        W 3810  20.624  13.045   0.890
38826W        W 3811  20.508  14.529  12.376
38827W        W 3812  40.285  38.969  11.137
38828W        W 3813   9.287  22.599  14.348
38829W        W 3814  36.996   9.304   4.617
38830W        W 3815  17.538  37.771   5.071
38831W        W 3816   0.311  18.017   2.638
38832W        W 3817   6.633  19.160   0.395
38833W        W 3818  15.608   0.755  13.559
38834W        W 3819  24.920  19.889   4.213
38835W        W 3820   7.718  22.147  11.642
38836W        W 3821  17.974  38.061   0.464
38837W        W 3822  27.630  44.993  12.050
38838W        W 3823  20.818  40.392   4.871
38839W        W 3824   7.255  41.395  11.625
38840W        W 3825  32.415  17.111   3.834
38841W        W 3826  33.166  44.540   2.324
38842W        W 3827   0.533  16.102  13.098
38843W        W 3828  10.223  28.582   1.340
38844W        W 3829   7.571  18.038   4.525
38845W        W 3830   7.660  27.634   4.737
38846W        W 3831  14.510  30.505  11.366
38847W        W 3832  31.914  34.566  11.485
38848W        W 3833   7.870  26.501  14.929
38849W        W 3834  40.053  25.007  13.966
38850W        W 3835   9.749   3.304   3.236
38851W        W 3836  20.531   1.430   0.612
38852W        W 3837  14.868  25.075  11.639
38853W        W 3838   9.862  35.367  12.090
38854W        W 3839  21.320  43.250   4.520
38855W        W 3840  19.232  12.072   2.415
38856W        W 3841  18.352  22.221  13.267
38857W        W 3842  25.917  18.572   2.873
38858W        W 3843   1.230  42.316  11.745
38859W        W 3844  16.128  15.044  14.925
38860W        W 3845  28.054  27.670  12.547
38861W        W 3846  44.940  28.376  12.265
38862W        W 3847  18.166  41.290  14.726
38863W        W 3848  40.949  42.567   3.736
38864W        W 3849  35.859  43.993  12.964
38865W        W 3850  20.891   0.991  11.760
38866W        W 3851  22.930  43.457   0.527
38867W        W 3852  20.618  13.859  14.426
38868W        W 3853  36.454  16.100   0.266
38869W        W 3854  11.287  11.850  14.545
38870W        W 3855  32.881  12.871   2.388
38871W        W 3856  14.834  33.915   1.721
38872W        W 3857  10.309   9.865   2.165
38873W        W 3858  16.332  26.580  12.972
38874W        W 3859   4.426  44.450  13.359
38875W        W 3860   1.479  15.177  13.086
38876W        W 3861  35.466  15.259   4.568
38877W        W 3862   4.709  33.451   4.985
38878W        W 3863  17.966  33.216  12.426
38879W        W 3864  33.692  44.367  14.889
38880W        W 3865   2.644  16.643   1.457
38881W        W 3866  26.672   3.216  12.473
38882W        W 3867   7.112  25.127   3.545
38883W        W 3868  12.180   2.916   3.777
38884W        W 3869  22.710  22.222  12.139
38885W        W 3870   1.831  20.983  11.466
38886W        W 3871  21.759  40.909   3.575
38887W        W 3872  16.285  36.418   0.494
38888W        W 3873  43.661   6.701  11.533
38889W        W 3874  28.862  14.641   4.487
38890W        W 3875  28.991  20.578   1.394
38891W        W 3876   4.745  24.160   3.679
38892W        W 3877  12.031   6.311  14.299
38893W        W 3878  13.749  18.235  14.981
38894W        W 3879   3.271   0.910   2.263
38895W        W 3880  15.519  25.067   2.401
38896W        W 3881  42.522  31.417  14.525
38897W        W 3882  29.188  38.147  12.000
38898W        W 3883  13.111   7.600   4.166
38899W        W 3884   3.512  11.661  14.796
38900W        W 3885  43.966  40.272  11.110
38901W        W 3886  13.848  11.634   2.335
38902W        W 3887  23.764  24.535  12.033
38903W        W 3888  37.550  18.355  14.029
38904W        W 3889  22.745   7.239   1.419
38905W        W 3890  19.830  16.782   4.556
38906W        W 3891  12.186  33.400  14.246
38907W        W 3892  40.617  38.496  14.294
38908W        W 3893  19.036  38.086   1.978
38909W        W 3894  39.010  30.627  14.833
38910W        W 3895  18.800  37.536   4.641
38911W        W 3896  10.405  36.995  14.748
38912W        W 3897   3.367  21.730  13.202
38913W        W 3898  42.436  41.560   1.435
38914W        W 3899   8.292   9.839   2.425
38915W        W 3900  12.812  17.113  13.778
38916W        W 3901  44.387  26.249  14.820
38917W        W 3902  22.548  12.006  12.650
38918W        W 3903   7.576  39.961  13.569
38919W        W 3904  44.446  42.546   2.163
38920W        W 3905   1.172  27.751   2.630
38921W        W 3906  34.537  16.750  11.771
38922W        W 3907   4.283  39.957   4.196
38923W        W 3908  37.087  33.189   3.172
38924W        W 3909   3.882  33.539  11.446
38925W        W 3910  14.170   4.916  12.482
38926W        W 3911  14.090  29.062   2.199
38927W        W 3912  15.255  15.983  14.857
38928W        W 3913  24.103  43.694  14.544
38929W        W 3914   5.134   0.762   4.804
38930W        W 3915  20.625  22.277   0.850
38931W        W 3916  29.469  40.022  11.638
38932W        W 3917  35.480   5.622  12.012
38933W        W 3918  29.779   8.457   5.025
38934W        W 3919  26.974  34.324   2.688
38935W        W 3920  17.839  35.571   3.714
38936W        W 3921   6.144   6.499   2.459
38937W        W 3922  37.212  44.323  11.458
38938W        W 3923  35.460  17.407  12.922
38939W        W 3924  10.391   7.239   3.633
38940W        W 3925  31.125  38.956  12.895
38941W        W 3926   0.979  39.360  13.841
38942W        W 3927  43.800   7.901  12.414
38943W        W 3928  12.836  16.311   2.316
38944W        W 3929  31.360  32.193   1.322
38945W        W 3930  37.648  29.977  13.407
38946W        W 3931   2.171  17.633   1.988
38947W        W 3932  20.472  40.809  12.497
38948W        W 3933  17.457   1.845  10.993
38949W        W 3934  32.259  23.173  10.396
38950W        W 3935  15.278  14.815  13.428
38951W        W 3936  26.144  32.679  12.828
38952W        W 3937  35.753  32.679  12.543
38953W        W 3938  11.572  37.503  10.271
38954W        W 3939  32.395  17.410  11.149
38955W        W 3940  16.793   2.364   0.571
38956W        W 3941  12.573  44.368   5.026
38957W        W 3942  16.389  11.185   0.468
38958W        W 3943   5.445  36.258   1.471
38959W        W 3944   3.263  10.962  13.493
38960W        W 3945  10.814  15.735  14.385
38961W        W 3946  26.993  37.349   0.268
38962W        W 3947  11.380  35.823   1.687
38963W        W 3948  35.140  29.696  14.309
38964W        W 3949  35.750   5.152   3.161
38965W        W 3950  22.172  34.789   1.700
38966W        W 3951  34.361  42.797   0.547
38967W        W 3952  21.173   3.738   1.287
38968W        W 3953   0.770  22.771  11.512
38969W        W 3954  25.561  15.517  14.088
38970W        W 3955  30.348   8.624  12.975
38971W        W 3956  20.970  44.470  13.343
38972W        W 3957  39.436   1.194   2.688
38973W        W 3958  43.279  14.665   2.417
38974W        W 3959  16.278  11.359  13.069
38975W        W 3960   9.345  20.841   0.334
38976W        W 3961  27.061  39.847  14.990
38977W        W 3962  38.946   8.170  10.656
38978W        W 3963  10.287  21.371   5.117
38979W        W 3964  35.058  33.202   3.304
38980W        W 3965   6.758  23.469   0.360
38981W        W 3966   4.663  35.427   0.306
38982W        W 3967  22.661  11.947  14.056
38983W        W 3968   0.336  11.362  12.616
38984W        W 3969  25.659  20.630  14.730
38985W        W 3970  31.027   6.022  12.636
38986W        W 3971  10.410  41.542   2.344
38987W        W 3972  35.443  26.617  11.650
38988W        W 3973  38.899  38.385   0.833
38989W        W 3974  25.584  40.036   3.358
38990W        W 3975  25.277  41.593   3.723
38991W        W 3976   3.391  13.745  12.283
38992W        W 3977   7.463  11.588   2.849
38993W        W 3978  23.009  16.226   1.322
38994W        W 3979  13.370  12.901   4.562
38995W        W 3980  20.089  16.453  11.120
38996W        W 3981  33.614  44.256   2.514
38997W        W 3982  28.647  13.749   3.231
38998W        W 3983   3.738  35.111  12.673
38999W        W 3984  33.044   6.843  11.028
39000W        W 3985  38.053  21.539   1.243
39001W        W 3986  33.833  21.249   2.618
39002W        W 3987  23.299  44.834  10.723
39003W        W 3988  30.606  13.614   0.445
39004W        W 3989  33.112  25.366   1.889
39005W        W 3990  24.056   6.708  11.223
39006W        W 3991  37.869  39.577   4.107
39007W        W 3992  35.350  25.565   2.651
39008W        W 3993  11.916  31.657   1.340
39009W        W 3994  27.692   5.017  11.605
39010W        W 3995  36.570  18.822  11.526
39011W        W 3996   0.808  43.981   4.041
39012W        W 3997  41.489  11.564  13.454
39013W        W 3998  28.714  21.693   1.218
39014W        W 3999  25.639  15.555  11.692
39015W        W 4000   1.554  23.139  13.541
39016W        W 4001  27.058  19.686   3.067
39017W        W 4002  25.266  31.263  13.015
39018W        W 4003   7.295  21.556  11.053
39019W        W 4004  22.803   1.841   1.543
39020W        W 4005   9.740  40.293   2.205
39021W        W 4006   2.756  33.697  13.785
39022W        W 4007  22.350  37.511  10.700
39023W        W 4008  17.563  25.720   1.494
39024W        W 4009  29.109  16.887  11.930
39025W        W 4010  23.147   6.641   3.663
39026W        W 4011   7.114  22.006   0.045
39027W        W 4012  36.414  43.010   9.841
39028W        W 4013  31.667  40.514   3.166
39029W        W 4014  26.110  30.896  14.358
39030W        W 4015  19.408  30.641   0.136
39031W        W 4016  28.734  21.577  13.010
39032W        W 4017  18.287   9.226   3.776
39033W        W 4018  40.450  35.149  13.024
39034W        W 4019   9.853  14.154   0.798
39035W        W 4020  14.072   4.223  13.573
39036W        W 4021  35.963   9.307   3.619
39037W        W 4022  14.167  23.995  14.322
39038W        W 4023   7.407  20.276  14.429
39039W        W 4024  31.745  22.668  12.631
39040W        W 4025  30.383  36.850   1.518
39041W        W 4026  25.043  33.674   1.981
39042W        W 4027  25.380  17.633   4.220
39043W        W 4028  15.261  30.861   0.921
39044W        W 4029  19.127  25.860   2.149
39045W        W 4030  26.119  24.670  14.256
39046W        W 4031  34.407  22.339  10.525
39047W        W 4032   9.175  33.824   0.770
39048W        W 4033  20.389   7.375   2.714
39049W        W 4034   2.709   6.297   3.254
39050W        W 4035  32.864   1.813   0.902
39051W        W 4036  12.215  25.663   0.543
39052W        W 4037  25.959  44.000   0.235
39053W        W 4038   9.112  39.400  13.192
39054W        W 4039   1.949  26.615  11.645
39055W        W 4040  36.532  20.447   1.766
39056W        W 4041  31.054  23.643  10.465
39057W        W 4042  11.160  29.194  13.569
39058W        W 4043  13.222   3.205  12.086
39059W        W 4044  31.881  19.615  10.652
39060W        W 4045  23.648  31.196   2.700
39061W        W 4046  21.457  18.508   4.441
39062W        W 4047  26.065  18.150  14.821
39063W        W 4048  10.809  35.460   2.724
39064W        W 4049  44.825  23.063  12.343
39065W        W 4050   0.423   4.452  12.949
39066W        W 4051  39.861  22.158  12.549
39067W        W 4052  10.876  17.704   0.972
39068W        W 4053  40.698  23.045  13.779
39069W        W 4054   4.377  21.161  10.502
39070W        W 4055  21.989  20.837   1.734
39071W        W 4056  38.097  40.887  12.952
39072W        W 4057  26.043  21.244   4.781
39073W        W 4058  44.509  35.159  14.576
39074W        W 4059  38.860  36.393   3.203
39075W        W 4060   7.310   8.164   0.885
39076W        W 4061  38.939  20.751   4.755
39077W        W 4062   4.329  20.026   4.485
39078W        W 4063  40.830  32.055  10.250
39079W        W 4064  26.613   8.598  11.149
39080W        W 4065  30.066   6.079  14.260
39081W        W 4066  36.778  33.146   1.167
39082W        W 4067  19.222  44.886   1.060
39083W        W 4068   9.302  13.547   2.607
39084W        W 4069   9.378  32.521  11.149
39085W        W 4070   0.232  27.999  12.496
39086W        W 4071  22.076  21.614  11.293
39087W        W 4072   3.861  44.051  11.199
39088W        W 4073  28.617   3.922   1.812
39089W        W 4074   0.269  27.107   2.261
39090W        W 4075  41.697   8.880   3.820
39091W        W 4076  19.768   8.286   0.506
39092W        W 4077  17.247  26.686  14.807
39093W        W 4078  10.798  29.753   2.872
39094W        W 4079  35.779  32.981  13.824
39095W        W 4080  44.964  35.173  13.853
39096W        W 4081   8.085  42.873  13.936
39097W        W 4082   7.552   9.572   4.719
39098W        W 4083  40.864  20.651  13.587
39099W        W 4084  20.484   4.128  12.814
39100W        W 4085  27.980  19.836  12.476
39101W        W 4086  32.847  28.638   2.794
39102W        W 4087   3.322   5.870  14.431
39103W        W 4088   1.962  14.506  11.560
39104W        W 4089  29.927  14.085  11.073
39105W        W 4090   1.804  21.166   4.062
39106W        W 4091  43.451  11.067   3.249
39107W        W 4092  10.630  40.200  14.224
39108W        W 4093  10.408  11.580  11.108
39109W        W 4094  20.532   1.809  14.357
39110W        W 4095  43.014  36.068   3.109
39111W        W 4096  14.004   1.257   3.584
39112W        W 4097   1.921  20.708   3.856
39113W        W 4098  42.420  37.334   1.316
39114W        W 4099  43.364  12.841   3.630
39115W        W 4100  22.466  10.726   1.571
39116W        W 4101  39.059   8.808   0.042
39117W        W 4102   1.992  29.720   1.023
39118W        W 4103  38.593  42.021  14.284
39119W        W 4104  27.701  15.749  11.575
39120W        W 4105  24.789  32.463  11.576
39121W        W 4106   0.047   9.237   4.186
39122W        W 4107  34.858  25.166  10.662
39123W        W 4108   5.619  39.953  14.514
39124W        W 4109   5.298   6.908  13.171
39125W        W 4110  14.116   5.432   3.271
39126W        W 4111   6.839   4.165  10.779
39127W        W 4112  17.336   4.945   3.490
39128W        W 4113  43.548  41.201  10.769
39129W        W 4114  25.083  25.330   1.285
39130W        W 4115  29.461  23.474   3.716
39131W        W 4116  13.085   5.933  12.523
39132W        W 4117  31.708  16.592  11.103
39133W        W 4118  26.634  12.797  12.760
39134W        W 4119  15.088  43.370  13.353
39135W        W 4120  20.085  14.296  12.161
39136W        W 4121   6.431  16.753  14.443
39137W        W 4122  44.435  10.717   0.275
39138W        W 4123  40.680   7.858  11.338
39139W        W 4124  17.999  41.940   2.227
39140W        W 4125  25.601  12.871   1.164
39141W        W 4126  36.290  19.000  12.152
39142W        W 4127  25.238  36.036   0.021
39143W        W 4128  36.254  44.098  11.641
39144W        W 4129   4.436  22.083   0.890
39145W        W 4130   3.432  24.690  14.667
39146W        W 4131  13.642  27.195   0.417
39147W        W 4132   4.829  29.923   2.278
39148W        W 4133   8.897  42.769   4.723
39149W        W 4134  14.612  42.620  10.653
39150W        W 4135  17.115  19.523   2.416
39151W        W 4136  20.167  16.020  13.366
39152W        W 4137   9.862  37.656  11.996
39153W        W 4138  23.736  43.789  11.682
39154W        W 4139  38.587   2.175  12.845
39155W        W 4140  33.987  28.957  13.875
39156W        W 4141  37.576   8.751  14.989
39157W        W 4142  36.910  36.017  11.184
39158W        W 4143   9.412   6.168   9.758
39159W        W 4144  43.313  12.960  10.782
39160W        W 4145  26.953  21.011   0.308
39161W        W 4146   5.132   9.108   3.687
39162W        W 4147  31.940  21.488   1.496
39163W        W 4148  10.061   7.808  13.020
39164W        W 4149  12.154  14.676   0.399
39165W        W 4150   0.430  43.741   3.775
39166W        W 4151  39.881  44.116   2.115
39167W        W 4152   7.429   8.386  12.120
39168W        W 4153   9.293  11.323  14.220
39169W        W 4154  38.417  18.272  14.553
39170W        W 4155  38.231  38.803   0.826
39171W        W 4156   8.470   2.306   4.627
39172W        W 4157  25.681  42.273   4.550
39173W        W 4158   2.695  32.080   4.678
39174W        W 4159   9.749  37.875   1.198
39175W        W 4160   8.397  34.804  11.618
39176W        W 4161   2.787  26.593   0.942
39177W        W 4162  21.504  25.593  12.852
39178W        W 4163  28.175  24.984   0.766
39179W        W 4164  37.441  42.157   3.355
39180W        W 4165  10.404  30.649   1.345
39181W        W 4166   5.511   9.192   0.472
39182W        W 4167   0.298  43.326  12.547
39183W        W 4168  38.325  21.983   2.734
39184W        W 4169   0.006  21.679   0.287
39185W        W 4170  33.406   9.369   2.678
39186W        W 4171  36.834  12.185  11.650
39187W        W 4172  34.986  44.831   0.626
39188W        W 4173  29.664  32.101   1.052
39189W        W 4174  18.838  26.220   0.359
39190W        W 4175  33.046  29.727  13.359
39191W        W 4176   6.049   8.873  13.955
39192W        W 4177  38.879  35.164  12.961
39193W        W 4178  24.206   2.878  14.895
39194W        W 4179  20.131  26.127   0.785
39195W        W 4180  41.508  35.318  14.334
39196W        W 4181  14.558  25.727  13.923
39197W        W 4182  34.344  12.530   4.272
39198W        W 4183  36.800  14.803  10.761
39199W        W 4184  41.936  14.851   2.687
39200W        W 4185  12.618   8.904  14.929
39201W        W 4186  33.947  16.974  11.731
39202W        W 4187  12.401  19.276   3.492
39203W        W 4188  16.339  26.083  14.082
39204W        W 4189  42.049   9.833  11.241
39205W        W 4190   4.443  11.607  14.862
39206W        W 4191  11.336   0.003   4.122
39207W        W 4192   8.393   9.133  14.314
39208W        W 4193   2.433  35.578   2.710
39209W        W 4194  26.707  12.286   1.300
39210W        W 4195  28.376  42.098  11.430
39211W        W 4196  14.180  27.528   5.331
39212W        W 4197  39.841  26.877  10.338
39213W        W 4198  15.444  43.210  12.986
39214W        W 4199  39.743  44.838  12.798
39215W        W 4200  19.161  13.177   4.776
39216W        W 4201  26.476  12.580   1.724
39217W        W 4202   8.803   0.186   0.333
39218W        W 4203  34.255  34.478   3.620
39219W        W 4204   8.194  26.466   2.759
39220W        W 4205  32.002  24.208  13.431
39221W        W 4206   0.922  16.706  11.436
39222W        W 4207  31.405  15.716   4.592
39223W        W 4208   1.358  22.675   0.746
39224W        W 4209   0.169  31.545   3.800
39225W        W 4210   1.083  15.549   3.101
39226W        W 4211  25.789   3.481   0.215
39227W        W 4212  29.953  14.418   4.393
39228W        W 4213  27.666   6.509   5.022
39229W        W 4214  30.224  34.791  14.522
39230W        W 4215   4.226  23.186  12.162
39231W        W 4216  26.057  20.529   4.213
39232W        W 4217  33.455  13.129  11.438
39233W        W 4218  21.633   3.908   0.788
39234W        W 4219  15.143  38.357   2.446
39235W        W 4220  14.080   5.784   9.604
39236W        W 4221  14.693  19.918   2.740
39237W        W 4222  38.740   3.596   4.569
39238W        W 4223  14.560  25.583   2.869
39239W        W 4224  40.058  17.622   0.436
39240W        W 4225  27.160  17.021   4.246
39241W        W 4226   9.809  29.680   2.949
39242W        W 4227  17.345  18.548   0.489
39243W        W 4228   0.804   8.190   2.318
39244W        W 4229  42.024  32.578   0.791
39245W        W 4230   7.526  42.793  12.570
39246W        W 4231  20.607   4.545   1.862
39247W        W 4232  10.919  37.523   3.989
39248W        W 4233  11.285   4.976  12.971
39249W        W 4234  38.815   4.362   3.529
39250W        W 4235  33.675  20.109  14.277
39251W        W 4236  36.366   8.602   2.139
39252W        W 4237  37.083  25.131  10.519
39253W        W 4238  20.792  26.729  11.288
39254W        W 4239  40.054   5.656   0.863
39255W        W 4240  38.211  39.559   1.200
39256W        W 4241  40.326  29.662   2.350
39257W        W 4242  39.447  23.863   4.728
39258W        W 4243  34.003   0.988  14.044
39259W        W 4244  33.102  11.545   0.351
39260W        W 4245  33.196   0.576  11.928
39261W        W 4246   5.889   0.366   2.658
39262W        W 4247  19.222  43.404   2.585
39263W        W 4248  10.894  27.423   0.039
39264W        W 4249   1.057  36.442  14.035
39265W        W 4250  37.470  11.702  14.319
39266W        W 4251  12.863  22.225   2.555
39267W        W 4252  29.964  41.890   0.398
39268W        W 4253  25.011  19.577   1.387
39269W        W 4254  21.360   7.991   4.494
39270W        W 4255  14.328  27.517  12.122
39271W        W 4256  26.327  35.465  12.766
39272W        W 4257  11.238  41.902  10.752
39273W        W 4258  19.653   2.041   1.442
39274W        W 4259  12.565  33.054  13.485
39275W        W 4260   8.792  41.388   1.414
39276W        W 4261   4.694  34.196   3.866
39277W        W 4262   8.196  24.963  14.353
39278W        W 4263  35.039  42.076   3.671
39279W        W 4264  20.156  31.908   3.575
39280W        W 4265  22.946   0.433  12.797
39281W        W 4266  42.597  20.724   3.094
39282W        W 4267   7.661  15.791  14.415
39283W        W 4268   7.589   7.295  14.355
39284W        W 4269  43.545  11.740   1.506
39285W        W 4270  11.340  11.255   4.066
39286W        W 4271   1.657  44.802   1.680
39287W        W 4272  30.618  44.810   4.595
39288W        W 4273  23.596  40.834  13.443
39289W        W 4274   8.783  26.432   0.672
39290W        W 4275  21.676  40.334   4.204
39291W        W 4276  34.531  38.149   0.086
39292W        W 4277  32.063  11.654  11.411
39293W        W 4278  29.193  16.252   0.527
39294W        W 4279   1.450  22.947   2.704
39295W        W 4280   0.197  26.973   1.306
39296W        W 4281  27.271  17.553  14.277
39297W        W 4282  15.615  23.888   0.801
39298W        W 4283  41.551  15.252  11.197
39299W        W 4284  11.562  14.894   4.805
39300W        W 4285   1.772  42.285  13.403
39301W        W 4286   7.625  32.216  13.909
39302W        W 4287  18.867  38.533   1.324
39303W        W 4288  35.637  31.393  14.265
39304W        W 4289  20.625   5.291   4.266
39305W        W 4290  17.307   2.972   3.753
39306W        W 4291  18.286  24.881   5.091
39307W        W 4292  29.086  22.749   1.854
39308W        W 4293  42.040  32.368  13.585
39309W        W 4294  38.851  10.162   4.186
39310W        W 4295  16.721   8.947   4.074
39311W        W 4296   6.952  32.283  12.055
39312W        W 4297  29.079  11.662   0.320
39313W        W 4298  25.205  28.443   1.764
39314W        W 4299  17.796   6.323   1.945
39315W        W 4300   8.198   6.260  12.253
39316W        W 4301   0.774   4.911   4.147
39317W        W 4302   2.391  41.922   4.462
39318W        W 4303  31.876  44.394   2.993
39319W        W 4304  11.425  13.930   5.075
39320W        W 4305   3.668   0.719  14.332
39321W        W 4306  31.947   1.237   3.870
39322W        W 4307  35.299  24.642  11.380
39323W        W 4308  27.022   2.413  14.735
39324W        W 4309  18.248  12.679   4.663
39325W        W 4310  34.366  27.671  10.736
39326W        W 4311  24.564  30.978  12.599
39327W        W 4312   4.202  18.581  11.653
39328W        W 4313  43.909  28.958  14.569
39329W        W 4314  11.138  44.500   4.246
39330W        W 4315  27.986  16.612  14.899
39331W        W 4316   0.218  25.479   3.764
39332W        W 4317  26.628   8.283   2.297
39333W        W 4318  36.105  30.849   4.663
39334W        W 4319   3.879   6.349   1.893
39335W        W 4320  16.245  16.604   3.704
39336W        W 4321  31.459  18.187  12.447
39337W        W 4322  15.424  37.594   1.846
39338W        W 4323   3.018   4.458  10.444
39339W        W 4324   6.132  33.424   1.192
39340W        W 4325  33.107  23.738   4.732
39341W        W 4326   5.196  10.784   1.752
39342W        W 4327  27.046   8.746  13.385
39343W        W 4328  14.143  44.163   4.997
39344W        W 4329  23.704  12.689   3.087
39345W        W 4330  40.897  24.591  12.681
39346W        W 4331  16.471   9.001  11.533
39347W        W 4332  18.905   3.079  10.266
39348W        W 4333   3.327   3.204  14.362
39349W        W 4334  41.328  30.929   3.283
39350W        W 4335  11.311   8.662   2.015
39351W        W 4336  13.917   6.574  10.672
39352W        W 4337  31.023  27.532   2.658
39353W        W 4338  42.657  19.061   2.439
39354W        W 4339  14.467  38.150   5.037
39355W        W 4340  33.775  43.063  12.436
39356W        W 4341  42.041   9.394  11.502
39357W        W 4342  15.263  24.944  12.011
39358W        W 4343  24.132  12.744  13.582
39359W        W 4344   7.998  30.481   4.956
39360W        W 4345  41.031  20.119   3.412
39361W        W 4346  44.307  22.162  13.398
39362W        W 4347   5.474  24.093  13.813
39363W        W 4348   6.141  14.781  10.141
39364W        W 4349  10.830   0.522  11.997
39365W        W 4350  30.189   1.012   1.174
39366W        W 4351  27.748  14.446  12.478
39367W        W 4352  37.329  37.855   4.939
39368W        W 4353  28.156  30.650   0.154
39369W        W 4354  16.834  39.473   1.267
39370W        W 4355  10.287  32.450   0.372
39371W        W 4356  41.936  20.053   4.217
39372W        W 4357   7.280  44.203   0.751
39373W        W 4358  27.337  33.503  11.627
39374W        W 4359  44.883  12.078   1.842
39375W        W 4360  11.370  23.046   2.766
39376W        W 4361  23.035  23.986  14.843
39377W        W 4362   8.717   3.203   2.817
39378W        W 4363   9.590  42.472  13.864
39379W        W 4364  38.444  29.593   2.783
39380W        W 4365  16.941  33.070   1.946
39381W        W 4366  27.535  13.697  13.237
39382W        W 4367  37.020  38.466  12.043
39383W        W 4368  35.649  17.107   3.699
39384W        W 4369  24.467  16.789  13.440
39385W        W 4370  17.558   5.179   0.882
39386W        W 4371   8.861  14.123   0.730
39387W        W 4372  23.167  38.567   0.272
39388W        W 4373   2.272  35.041  14.954
39389W        W 4374  28.896  38.925  11.692
39390W        W 4375  38.427  35.569   3.581
39391W        W 4376  19.311  24.541   0.745
39392W        W 4377  11.577  19.101   3.267
39393W        W 4378  31.554  21.157  11.983
39394W        W 4379  26.175  34.820   1.734
39395W        W 4380  29.138  36.963  12.778
39396W        W 4381   3.155  21.080  11.597
39397W        W 4382   6.116  28.760  12.399
39398W        W 4383  33.680  34.512  14.437
39399W        W 4384  37.800   4.463   0.013
39400W        W 4385   4.836  27.684   0.482
39401W        W 4386  23.002   2.483   4.116
39402W        W 4387   5.325  37.061  11.966
39403W        W 4388  43.535  13.351  13.478
39404W        W 4389   7.613  33.478   4.683
39405W        W 4390  26.203  37.363   1.646
39406W        W 4391  14.617  16.964   1.741
39407W        W 4392  12.805  10.201  11.705
39408W        W 4393   9.486  10.161   4.252
39409W        W 4394  18.710  36.682   1.206
39410W        W 4395   9.151  44.468  14.321
39411W        W 4396   9.823  21.471   2.245
39412W        W 4397  22.851  34.816  10.958
39413W        W 4398   4.358  42.124   0.480
39414W        W 4399   4.277  13.458  12.674
39415W        W 4400  21.719  15.650  14.868
39416W        W 4401  28.689  42.823   0.764
39417W        W 4402   1.857  29.528  12.995
39418W        W 4403  19.750  32.099  12.650
39419W        W 4404  10.468   3.353  10.223
39420W        W 4405  25.391   3.047   3.724
39421W        W 4406  15.356   8.160  12.853
39422W        W 4407  12.731  32.852  10.703
39423W        W 4408   2.745  32.555   4.942
39424W        W 4409  10.239  17.300  11.205
39425W        W 4410  30.907  10.601   2.242
39426W        W 4411  26.600  41.448  14.903
39427W        W 4412  31.138  20.270  10.524
39428W        W 4413   8.147  37.979   3.892
39429W        W 4414   5.443  37.989   2.885
39430W        W 4415  29.371  44.920   3.644
39431W        W 4416   8.446  30.708  14.913
39432W        W 4417  14.777  30.551  10.923
39433W        W 4418  23.722  22.771   1.710
39434W        W 4419   2.469  19.771  10.675
39435W        W 4420  17.105   1.808  14.223
39436W        W 4421  28.654  28.601  14.629
39437W        W 4422   3.292   6.431  13.418
39438W        W 4423  13.281  29.989   0.204
39439W        W 4424  28.510   8.723   4.351
39440W        W 4425  21.595  33.844   2.428
39441W        W 4426  23.470  27.011  11.934
39442W        W 4427  24.622  44.202   4.323
39443W        W 4428  31.497  19.121   3.986
39444W        W 4429  21.101  33.565   3.390
39445W        W 4430  23.503  40.540   1.375
39446W        W 4431  20.958  16.869  12.963
39447W        W 4432  36.119  20.283  10.804
39448W        W 4433  10.938  21.307   1.002
39449W        W 4434   5.379  37.789  13.068
39450W        W 4435  14.994  27.944   1.827
39451W        W 4436  11.233  17.914  11.570
39452W        W 4437  23.527   6.925   0.340
39453W        W 4438  44.526   4.927   1.510
39454W        W 4439  22.218  30.008  12.553
39455W        W 4440  40.093  11.918  12.075
39456W        W 4441  22.284   3.077  12.916
39457W        W 4442  39.420  25.027  13.393
39458W        W 4443  19.587  42.992  14.729
39459W        W 4444  16.718  28.005  14.835
39460W        W 4445  22.091  18.995  12.095
39461W        W 4446  23.998  25.853   4.270
39462W        W 4447   0.853  32.415   4.544
39463W        W 4448  26.730  16.221  14.929
39464W        W 4449  21.040  33.532   4.937
39465W        W 4450  43.268  25.121  14.459
39466W        W 4451  40.206  27.703   2.252
39467W        W 4452  12.310   6.936   1.511
39468W        W 4453  33.026  38.454   0.112
39469W        W 4454  11.254   8.832  14.002
39470W        W 4455  22.301  21.072   0.175
39471W        W 4456   8.975  36.401   2.111
39472W        W 4457   0.836  23.686  14.875
39473W        W 4458   6.202  23.965   2.301
39474W        W 4459  31.021  12.375  11.828
39475W        W 4460  13.643  36.000   4.265
39476W        W 4461  14.814  31.157   3.636
39477W        W 4462  23.989   6.622   4.157
39478W        W 4463  24.642  23.488   1.757
39479W        W 4464   0.010   2.470   0.386
39480W        W 4465   9.365   5.123   5.620
39481W        W 4466  29.173  38.109  10.961
39482W        W 4467  43.351   1.212  14.327
39483W        W 4468  33.922  43.399  14.817
39484W        W 4469  23.894  43.117  13.528
39485W        W 4470  12.605   0.359  11.600
39486W        W 4471  44.121   2.932  13.383
39487W        W 4472  29.726  36.300   1.961
39488W        W 4473  40.879  12.635   2.050
39489W        W 4474  27.352  16.805   1.513
39490W        W 4475  25.314  18.564  12.422
39491W        W 4476   7.879   7.580   5.483
39492W        W 4477   1.837  18.711   3.758
39493W        W 4478  24.978  30.937   1.795
39494W        W 4479  23.989  10.132  10.013
39495W        W 4480  28.058   6.697  10.742
39496W        W 4481  40.311  13.236  10.705
39497W        W 4482  20.025  20.483  14.270
39498W        W 4483   1.210   3.224  12.437
39499W        W 4484  44.357  13.354   4.703
39500W        W 4485   2.817  10.647   0.940
39501W        W 4486  30.950   8.392   4.078
39502W        W 4487  26.407  16.690  10.548
39503W        W 4488  12.767  18.941  14.057
39504W        W 4489  36.444   3.383   2.653
39505W        W 4490  13.256  15.887  13.543
39506W        W 4491  28.765  24.436   3.236
39507W        W 4492  32.097  30.491  14.562
39508W        W 4493  30.199  29.094   3.624
39509W        W 4494  10.797  22.949  11.888
39510W        W 4495  23.805  16.648   1.479
39511W        W 4496  11.705   8.129  10.753
39512W        W 4497  41.885   4.643  14.349
39513W        W 4498  26.312  42.020   2.705
39514W        W 4499   7.392  32.390  13.038
39515W        W 4500  15.554   3.723   2.002
39516W        W 4501  30.959  38.521   2.068
39517W        W 4502   2.809  19.069   4.225
39518W        W 4503  27.725  35.563  14.367
39519W        W 4504  27.680  11.031   2.301
39520W        W 4505   6.357   8.420   2.871
39521W        W 4506  37.964   5.698  12.423
39522W        W 4507  10.788  31.949   0.731
39523W        W 4508  42.051  38.808   2.475
39524W        W 4509   1.885  23.194   1.910
39525W        W 4510   0.242  40.117   1.413
39526W        W 4511  23.020  21.173   4.874
39527W        W 4512  23.897  33.591   2.201
39528W        W 4513  10.221  19.339  11.061
39529W        W 4514  13.566  33.174   4.545
39530W        W 4515  34.553  38.091  13.369
39531W        W 4516  13.598  32.723  12.378
39532W        W 4517  19.511  32.466  13.475
39533W        W 4518  24.672  17.073  11.893
39534W        W 4519  40.920  20.411   3.818
39535W        W 4520  25.446  15.713   3.066
39536W        W 4521   0.792  43.780  10.566
39537W        W 4522   4.430  25.449  14.347
39538W        W 4523   2.286   4.873  13.530
39539W        W 4524  19.738  31.540   2.366
39540W        W 4525   4.622   1.649   4.197
39541W        W 4526   7.863  29.526   1.302
39542W        W 4527  23.007  10.292   2.283
39543W        W 4528  27.442   4.359   5.071
39544W        W 4529  23.425  38.078  11.156
39545W        W 4530  27.490  28.887   0.773
39546W        W 4531  13.187  17.768   2.963
39547W        W 4532  13.260  28.028  13.443
39548W        W 4533  24.691  29.387  12.555
39549W        W 4534  39.079  42.501   2.507
39550W        W 4535  30.624  35.403   1.057
39551W        W 4536  13.116  36.754   1.811
39552W        W 4537  26.456  22.319   0.527
39553W        W 4538  13.714  40.745   3.504
39554W        W 4539  34.959   6.973   0.487
39555W        W 4540  14.759  16.251   0.726
39556W        W 4541   3.049  19.297   3.169
39557W        W 4542  15.324  42.875   1.738
39558W        W 4543   6.609  14.058   0.727
39559W        W 4544  12.231   6.549   2.905
39560W        W 4545  25.228   2.305  14.346
39561W        W 4546  21.535  17.822  11.169
39562W        W 4547  32.683  43.355  12.790
39563W        W 4548  22.709  38.896  10.866
39564W        W 4549  25.852  24.618  14.823
39565W        W 4550  33.649  24.585   5.070
39566W        W 4551  44.403  20.034   3.841
39567W        W 4552  26.514  12.313   5.192
39568W        W 4553   1.062  25.120   0.306
39569W        W 4554  39.771  10.838  11.684
39570W        W 4555  35.487  16.395  12.980
39571W        W 4556  41.930  40.099   3.232
39572W        W 4557  17.815  21.644  11.731
39573W        W 4558  19.572  17.830  12.935
39574W        W 4559  11.465  19.146  14.330
39575W        W 4560  28.914   2.331  13.516
39576W        W 4561  41.674  21.598   4.188
39577W        W 4562  43.353  40.558  12.515
39578W        W 4563  27.708  43.507   2.119
39579W        W 4564   8.767  28.164   4.939
39580W        W 4565  38.641  21.275   4.728
39581W        W 4566   2.524  41.880  14.620
39582W        W 4567  27.038  40.390   2.999
39583W        W 4568  28.889   2.115   5.292
39584W        W 4569  28.845   8.886   1.604
39585W        W 4570   9.637   2.918  13.304
39586W        W 4571   8.563  18.763   1.834
39587W        W 4572  16.917  36.090  11.342
39588W        W 4573   8.732  13.886  11.116
39589W        W 4574  32.917  21.951   3.899
39590W        W 4575  11.869   6.702   1.813
39591W        W 4576  16.657  11.265  11.881
39592W        W 4577  41.750  28.210  10.672
39593W        W 4578  17.697   3.230   2.930
39594W        W 4579  27.225  44.396  11.829
39595W        W 4580  24.035  24.189  13.324
39596W        W 4581  23.604  33.055   2.335
39597W        W 4582   8.736  26.446  10.727
39598W        W 4583  36.478  18.705   3.306
39599W        W 4584   1.448   9.390   0.945
39600W        W 4585  39.495  28.567   2.894
39601W        W 4586  15.575  32.798   2.079
39602W        W 4587  11.579  30.032   0.282
39603W        W 4588   8.789  27.228  12.081
39604W        W 4589  13.228  26.559   1.428
39605W        W 4590  25.556  14.094   3.338
39606W        W 4591  20.250   2.848  13.561
39607W        W 4592  26.602  16.317   2.743
39608W        W 4593  41.114  19.152   3.726
39609W        W 4594   8.534  35.600   0.253
39610W        W 4595  19.068   1.632  11.167
39611W        W 4596   1.659  12.768   3.258
39612W        W 4597  40.152   3.233   2.239
39613W        W 4598  33.071  33.472   4.145
39614W        W 4599   4.549  11.636  12.220
39615W        W 4600  19.195  34.921   0.998
39616W        W 4601   7.605  44.348  14.489
39617W        W 4602  36.214   6.179  11.687
39618W        W 4603   1.869  39.509   0.406
39619W        W 4604  19.326   3.531  11.430
39620W        W 4605   9.835   1.933  10.735
39621W        W 4606  18.377   7.395  14.694
39622W        W 4607  37.138   9.238   0.416
39623W        W 4608  18.537  36.352  10.766
39624W        W 4609  16.780  32.436  13.387
39625W        W 4610  19.274  36.703  12.096
39626W        W 4611  37.753  37.517   9.554
39627W        W 4612  37.466  20.632  12.454
39628W        W 4613   3.937  11.448   1.973
39629W        W 4614  29.537  21.421   2.697
39630W        W 4615  31.585  25.638  11.789
39631W        W 4616  10.307  24.082  10.697
39632W        W 4617  16.579  10.690  10.658
39633W        W 4618  12.166  44.007   2.727
39634W        W 4619  22.145  34.765  12.908
39635W        W 4620  24.751  36.034   2.341
39636W        W 4621   4.874  39.477  12.059
39637W        W 4622  12.814  17.892   4.451
39638W        W 4623  24.114  12.162  10.432
39639W        W 4624  41.601  36.958   0.341
39640W        W 4625  33.002   0.803   3.584
39641W        W 4626  38.459  36.661  13.394
39642W        W 4627  25.483   9.456   3.589
39643W        W 4628   0.771   8.508   1.887
39644W        W 4629  21.035  24.037   3.680
39645W        W 4630  11.420  38.528   1.421
39646W        W 4631  23.293  11.205   3.577
39647W        W 4632  21.621   3.931  14.032
39648W        W 4633  34.367  21.793  10.732
39649W        W 4634  22.604   1.753  14.778
39650W        W 4635  26.951  29.823   0.783
39651W        W 4636  26.108  13.605   1.283
39652W        W 4637  20.460  27.588  12.387
39653W        W 4638   9.180  22.535   2.686
39654W        W 4639  11.765  29.449  10.766
39655W        W 4640   1.065  34.483   4.258
39656W        W 4641  44.941  32.965  11.578
39657W        W 4642  14.630   5.588  14.317
39658W        W 4643  14.594  10.556   2.717
39659W        W 4644  39.973  40.748   2.192
39660W        W 4645  27.244  20.095  14.845
39661W        W 4646  11.220  10.704  11.917
39662W        W 4647   8.469  12.236  10.683
39663W        W 4648  27.981  33.355   3.325
39664W        W 4649  30.176  20.698  12.947
39665W        W 4650  29.368  29.367   0.040
39666W        W 4651  30.395  43.806   1.272
39667W        W 4652  25.768   0.052   0.789
39668W        W 4653   6.941  16.286   4.112
39669W        W 4654  30.357  16.280   3.056
39670W        W 4655  20.542  25.220  10.592
39671W        W 4656  42.048  39.984  14.391
39672W        W 4657   3.724   2.283   3.308
39673W        W 4658  30.848  32.916  11.583
39674W        W 4659  31.195  21.596   3.323
39675W        W 4660  12.228  25.601   2.206
39676W        W 4661   2.360   9.712  10.985
39677W        W 4662  36.145  26.821  12.560
39678W        W 4663  14.314  19.408   2.723
39679W        W 4664   1.207  26.680  11.229
39680W        W 4665   7.167  40.012  12.058
39681W        W 4666  25.197  28.335   0.404
39682W        W 4667   0.565  15.404  10.290
39683W        W 4668   6.887  38.484  10.621
39684W        W 4669  34.436  25.035   1.704
39685W        W 4670  41.297  32.677  12.106
39686W        W 4671  40.238  23.955   2.459
39687W        W 4672   3.792   6.132  14.323
39688W        W 4673  18.746  27.544   1.780
39689W        W 4674  37.000  14.302  13.273
39690W        W 4675  44.478   2.012  10.805
39691W        W 4676  19.877  39.397   1.423
39692W        W 4677   7.823  15.585   4.508
39693W        W 4678  38.004  37.371   3.852
39694W        W 4679   8.518  20.833   4.355
39695W        W 4680   0.729  20.085   1.697
39696W        W 4681  20.024  31.170   2.159
39697W        W 4682  13.913  17.701  13.830
39698W        W 4683  43.549  39.746   3.664
39699W        W 4684   4.860  43.879  12.687
39700W        W 4685  11.016   7.183   4.332
39701W        W 4686  21.140   2.642   0.686
39702W        W 4687  29.158  32.333   3.659
39703W        W 4688  28.892  25.333  11.540
39704W        W 4689  30.196  43.390  13.288
39705W        W 4690  42.660   8.340  10.782
39706W        W 4691  15.344   6.915   3.424
39707W        W 4692  36.593  37.405  11.468
39708W        W 4693   9.629  30.448   4.004
39709W        W 4694  35.426  15.217  14.727
39710W        W 4695   0.834   1.888  11.456
39711W        W 4696  35.326   8.840  12.909
39712W        W 4697  14.642   4.292  11.086
39713W        W 4698   9.486  25.652   1.862
39714W        W 4699  38.534  42.623   3.659
39715W        W 4700  38.600  25.542  13.814
39716W        W 4701  31.665  28.369   0.082
39717W        W 4702   0.717  34.039  11.546
39718W        W 4703  14.594   9.676  11.571
39719W        W 4704  43.376  42.879  12.088
39720W        W 4705  44.525  19.032  10.700
39721W        W 4706  15.270  27.476   1.841
39722W        W 4707  19.229  21.787   1.697
39723W        W 4708  28.640  19.828  11.084
39724W        W 4709   7.621  23.133   2.392
39725W        W 4710   5.415  14.186  14.487
39726W        W 4711  17.369  23.063   2.797
39727W        W 4712  40.615  18.551   3.595
39728W        W 4713   5.875   8.442   2.229
39729W        W 4714  15.447   2.010  11.003
39730W        W 4715  31.363  33.966   1.190
39731W        W 4716  32.396  34.601   0.784
39732W        W 4717  22.742   7.783   1.361
39733W        W 4718  11.840  33.051  11.643
39734W        W 4719  34.229  19.828   4.175
39735W        W 4720  25.500  38.879   2.387
39736W        W 4721  31.132   5.879  12.149
39737W        W 4722  15.629  30.887  14.278
39738W        W 4723  18.541  13.071  13.553
39739W        W 4724  34.567  31.341  12.140
39740W        W 4725   3.328  26.001   3.214
39741W        W 4726  28.391  32.748  13.115
39742W        W 4727  35.823  14.877  10.792
39743W        W 4728  26.114  17.064  13.551
39744W        W 4729  23.720  35.415  14.543
39745W        W 4730  42.397  37.635  10.334
39746W        W 4731  22.117  29.887  12.040
39747W        W 4732   8.407   0.356  11.543
39748W        W 4733  42.067  39.614  12.721
39749W        W 4734  21.222  15.493   5.293
39750W        W 4735  39.382  21.989   3.052
39751W        W 4736  38.507  17.308  13.116
39752W        W 4737  18.806  25.061  10.680
39753W        W 4738  10.010  18.333  12.044
39754W        W 4739  33.486  42.067   1.777
39755W        W 4740  23.240  24.528   3.062
39756W        W 4741  23.435  37.685   1.271
39757W        W 4742  11.393  15.631   1.395
39758W        W 4743  43.740   5.234   1.190
39759W        W 4744  14.287  19.158  12.507
39760W        W 4745  30.074  36.885  12.007
39761W        W 4746  20.771  35.136  11.796
39762W        W 4747  11.806   5.856   1.132
39763W        W 4748  15.282  21.782   1.070
39764W        W 4749  35.365  38.932   3.531
39765W        W 4750   6.268  15.732  14.328
39766W        W 4751  37.247  24.613   0.510
39767W        W 4752   0.471  21.005  11.329
39768W        W 4753  35.032   4.718   4.757
39769W        W 4754  17.279  24.048   4.586
39770W        W 4755  44.081  26.526  10.693
39771W        W 4756   9.118  27.970   1.938
39772W        W 4757  20.199  23.351   0.759
39773W        W 4758  32.937   6.593  13.806
39774W        W 4759  25.495  23.639   2.381
39775W        W 4760  43.856  34.692  12.060
39776W        W 4761   5.499  44.027  10.520
39777W        W 4762   0.831  43.227   3.669
39778W        W 4763  26.270  13.684  13.862
39779W        W 4764  27.152  35.919  14.945
39780W        W 4765  28.250  21.261   3.404
39781W        W 4766   8.364  37.606   3.271
39782W        W 4767  17.467  43.111   4.799
39783W        W 4768  40.750   4.387  11.603
39784W        W 4769   1.625  41.602   5.009
39785W        W 4770  39.864  40.843   1.278
39786W        W 4771  19.457  15.281   0.419
39787W        W 4772   5.282  19.144   0.450
39788W        W 4773  24.184  18.613   3.456
39789W        W 4774  27.022  18.030  14.380
39790W        W 4775  35.877  15.048  13.323
39791W        W 4776   7.910  11.324   1.318
39792W        W 4777  23.551  22.541   3.573
39793W        W 4778   3.342  42.653   4.377
39794W        W 4779  27.190   9.488   1.296
39795W        W 4780  12.707  24.497   0.328
39796W        W 4781  19.817  38.605  13.216
39797W        W 4782   9.111  29.497   2.650
39798W        W 4783  18.679  11.199   1.892
39799W        W 4784  11.695   7.215  10.543
39800W        W 4785  12.119  23.913  12.592
39801W        W 4786   6.390  36.026   0.119
39802W        W 4787  42.767  41.516  11.591
39803W        W 4788   8.270   2.170  12.438
39804W        W 4789   2.246   6.853   1.392
39805W        W 4790  35.420  22.304   4.122
39806W        W 4791   2.707  28.592   2.215
39807W        W 4792  38.575  33.083   2.404
39808W        W 4793  40.823  27.761   4.125
39809W        W 4794  44.721   2.864  11.993
39810W        W 4795  23.312  10.775  12.407
39811W        W 4796  43.551   6.232  12.449
39812W        W 4797  12.789  12.766   1.834
39813W        W 4798  30.567  34.397   3.251
39814W        W 4799  23.146  15.790   0.395
39815W        W 4800  13.889  10.113  13.316
39816W        W 4801   1.421  24.258   2.612
39817W        W 4802   8.144  35.958   0.322
39818W        W 4803  25.984  38.514   1.753
39819W        W 4804  42.552  22.985   0.952
39820W        W 4805  26.509  30.964   2.557
39821W        W 4806  35.865   1.356  13.759
39822W        W 4807  30.289  11.103  13.558
39823W        W 4808  26.079  37.519   4.111
39824W        W 4809   6.808   2.986  11.897
39825W        W 4810  12.804  32.853   3.382
39826W        W 4811  13.172  10.948  11.966
39827W        W 4812  40.135  31.357   0.696
39828W        W 4813  43.799  28.051  13.895
39829W        W 4814  24.511   2.876  11.284
39830W        W 4815  39.603  44.976  11.140
39831W        W 4816  31.914  27.555  14.014
39832W        W 4817   0.040   7.828   0.358
39833W        W 4818  43.319  12.627   4.104
39834W        W 4819  28.633  12.305  11.299
39835W        W 4820  10.668  38.737   1.752
39836W        W 4821  42.262  44.565  11.684
39837W        W 4822  10.245  33.188   1.724
39838W        W 4823   0.186  25.585  13.961
39839W        W 4824  10.692  10.803  10.683
39840W        W 4825  16.075  11.637   0.894
39841W        W 4826  22.329  22.369  11.225
39842W        W 4827  11.792  30.462   4.122
39843W        W 4828  31.614  34.474  14.399
39844W        W 4829  33.934  19.094  11.212
39845W        W 4830  18.306   3.140  13.931
39846W        W 4831  35.124   6.658   1.685
39847W        W 4832  21.658  18.721   1.619
39848W        W 4833  38.932  13.149   0.428
39849W        W 4834  25.801  35.361  11.851
39850W        W 4835  37.866  14.282   1.140
39851W        W 4836  26.567  38.817   3.197
39852W        W 4837  32.003  26.576  14.920
39853W        W 4838  32.502   0.164   2.219
39854W        W 4839   2.293  31.839   1.995
39855W        W 4840  34.549  31.112  12.633
39856W        W 4841  19.834  28.410  11.348
39857W        W 4842  39.016  31.735   2.238
39858W        W 4843   1.928  21.043   0.897
39859W        W 4844   6.302   2.254  10.977
39860W        W 4845  27.969  21.211  12.132
39861W        W 4846  36.948  23.555  13.850
39862W        W 4847  16.242  23.736  11.461
39863W        W 4848  11.781   4.464  12.526
39864W        W 4849  17.397  36.201  12.610
39865W        W 4850   8.778  33.555   1.750
39866W        W 4851   1.059  22.555  14.533
39867W        W 4852  26.550  22.130  14.543
39868W        W 4853   8.653  12.787   0.184
39869W        W 4854  26.426  10.418  13.966
39870W        W 4855  12.284   9.865   1.495
39871W        W 4856   1.743  14.595  12.056
39872W        W 4857  38.533   7.448  12.876
39873W        W 4858  33.062  24.288  14.975
39874W        W 4859   1.574  40.346   2.282
39875W        W 4860   7.340  23.592  12.485
39876W        W 4861  28.604  39.980  14.514
39877W        W 4862   7.107   8.508  10.362
39878W        W 4863  29.089  44.207  14.858
39879W        W 4864  11.756  28.367   4.242
39880W        W 4865  34.279  25.570  13.991
39881W        W 4866  36.920   2.419  14.386
39882W        W 4867   3.341  38.503   1.788
39883W        W 4868  23.789  17.934  14.964
39884W        W 4869  20.406  35.878  12.041
39885W        W 4870  40.931  39.378   0.894
39886W        W 4871   9.043  42.898  12.375
39887W        W 4872  30.401   7.561   2.034
39888W        W 4873  22.108  41.952   3.646
39889W        W 4874   5.331  24.443  12.998
39890W        W 4875   3.889  36.578  14.892
39891W        W 4876  34.563  25.503   3.141
39892W        W 4877   0.955  15.202   1.356
39893W        W 4878  24.294  35.701  11.634
39894W        W 4879  13.358  31.046  10.970
39895W        W 4880  18.540   4.795   0.776
39896W        W 4881  34.909  24.899  12.491
39897W        W 4882  26.607  31.738   0.809
39898W        W 4883  29.195   8.809  11.376
39899W        W 4884  15.868  33.689  14.032
39900W        W 4885  30.247   0.989   4.200
39901W        W 4886  23.757  19.099  13.446
39902W        W 4887  18.966  21.668  14.845
39903W        W 4888   4.350  15.880  11.978
39904W        W 4889  21.018  38.741   2.288
39905W        W 4890  14.397  27.141   3.547
39906W        W 4891  43.012  20.702   3.381
39907W        W 4892  38.507  16.257   2.001
39908W        W 4893  39.900  15.236   3.195
39909W        W 4894   9.178  10.760  14.384
39910W        W 4895  41.970  41.406   2.935
39911W        W 4896  39.107  36.403  12.095
39912W        W 4897   9.402  41.117  13.976
39913W        W 4898  43.326  24.160   4.277
39914W        W 4899  23.923  33.939  14.058
39915W        W 4900   1.925  12.224  11.505
39916W        W 4901  22.790  17.795   0.905
39917W        W 4902   8.884  28.608   2.308
39918W        W 4903  19.850  10.200   3.582
39919W        W 4904  41.305  43.289   4.989
39920W        W 4905  13.590  37.393   2.900
39921W        W 4906  16.669  30.870   3.202
39922W        W 4907   4.892  19.122  11.554
39923W        W 4908  13.589   3.295  14.095
39924W        W 4909  18.679  10.222   2.011
39925W        W 4910  33.984  43.130  13.264
39926W        W 4911  36.121  42.717  10.712
39927W        W 4912  42.779   2.306  13.800
39928W        W 4913  43.372  39.587   2.335
39929W        W 4914  36.165  25.209   1.637
39930W        W 4915  41.437  20.692   1.196
39931W        W 4916  14.713  39.391  11.951
39932W        W 4917  15.868  24.061  12.670
39933W        W 4918  42.964   9.525   4.674
39934W        W 4919  33.611  44.500   2.949
39935W        W 4920  31.008  43.188   1.703
39936W        W 4921  41.521  18.470   0.776
39937W        W 4922  19.300  40.280   2.684
39938W        W 4923   3.940  20.185   0.642
39939W        W 4924  21.721  21.995  13.413
39940W        W 4925  26.201  35.989   0.376
39941W        W 4926  44.402  32.877  13.154
39942W        W 4927  38.529  33.564   3.222
39943W        W 4928  37.775  21.068   2.214
39944W        W 4929   2.961  17.102   1.477
39945W        W 4930  33.561   3.451  10.593
39946W        W 4931   7.246  17.245   4.442
39947W        W 4932  39.549  35.993  12.580
39948W        W 4933  36.444  10.657  13.916
39949W        W 4934   4.225   5.643  13.519
39950W        W 4935  26.899  29.908   3.445
39951W        W 4936  32.448  22.099  14.787
39952W        W 4937  29.995   3.176   2.718
39953W        W 4938  44.697  40.981   4.129
39954W        W 4939  25.951  41.421   2.337
39955W        W 4940   7.036  44.075   0.323
39956W        W 4941  43.507  26.516   3.082
39957W        W 4942  14.094   6.239  12.003
39958W        W 4943  30.906  15.067  14.837
39959W        W 4944  42.410  26.255   2.577
39960W        W 4945  26.932  13.659  11.981
39961W        W 4946  14.681  22.110   2.652
39962W        W 4947  41.523   6.118   0.571
39963W        W 4948  22.649  14.250  14.313
39964W        W 4949   9.650  36.792  14.908
39965W        W 4950  26.653  13.693  13.500
39966W        W 4951  29.443  34.933  10.675
39967W        W 4952  13.606  20.903  12.452
39968W        W 4953  31.089   4.983   0.860
39969W        W 4954   4.864  12.273  13.549
39970W        W 4955   2.269  21.526  13.949
39971W        W 4956  31.915   7.412   0.991
39972W        W 4957  12.357  17.848  11.991
39973W        W 4958  20.270  11.460   3.336
39974W        W 4959  29.985  17.786  14.403
39975W        W 4960  12.410  22.101  13.798
39976W        W 4961  33.573  13.247   2.697
39977W        W 4962   9.389  42.496   4.186
39978W        W 4963  14.769  15.138  12.014
39979W        W 4964  24.100   0.373   4.549
39980W        W 4965  37.625  36.577   4.997
39981W        W 4966   5.395  31.380  13.614
39982W        W 4967   6.435  15.633  10.541
39983W        W 4968  10.671  18.271   2.913
39984W        W 4969  25.238  19.662   0.922
39985W        W 4970   9.629  30.227  13.059
39986W        W 4971  22.680  40.001  12.122
39987W        W 4972  21.013  11.319   3.905
39988W        W 4973  24.967  35.711  12.181
39989W        W 4974  41.955  33.073   0.698
39990W        W 4975  33.804  11.783  12.983
39991W        W 4976  29.466  41.422  11.997
39992W        W 4977  24.645  39.846  10.874
39993W        W 4978   9.432   2.837  12.413
39994W        W 4979   4.702  31.213   2.833
39995W        W 4980  15.910  28.208  11.802
39996W        W 4981  41.996  11.811  14.677
39997W        W 4982  21.612  43.524   1.302
39998W        W 4983  28.967  14.202   3.869
39999W        W 4984  30.441  43.227  12.870
40000W        W 4985  27.128  18.204  11.917
40001W        W 4986  20.625  12.724   3.547
40002W        W 4987   1.210  13.144   0.582
40003W        W 4988  12.202  32.723   1.927
40004W        W 4989  26.371  33.589   1.845
40005W        W 4990   9.342  24.060  10.605
40006W        W 4991  43.788   8.866   4.176
40007W        W 4992  15.901  16.682  13.342
40008W        W 4993  41.720  41.748   4.310
40009W        W 4994  37.651  15.080   3.501
40010W        W 4995  20.721  25.558  11.952
40011W        W 4996   4.245  32.297  11.025
40012W        W 4997  20.130  38.761  10.446
40013W        W 4998  18.199  29.464  14.946
40014W        W 4999  32.379  17.080   4.356
40015W        W 5000  35.978  19.669   2.099
40016W        W 5001  20.982   6.851   0.461
40017W        W 5002  38.797  22.092  10.088
40018W        W 5003  10.108  29.891  10.705
40019W        W 5004  33.890  15.976  14.136
40020W        W 5005  10.776  23.453  13.456
40021W        W 5006  11.966  23.245   3.565
40022W        W 5007  34.118  34.048   0.355
40023W        W 5008  37.895  33.816  12.456
40024W        W 5009  42.968  19.276   3.889
40025W        W 5010   6.978   2.872  12.369
40026W        W 5011  35.744  33.108   2.494
40027W        W 5012  21.046   8.509  11.759
40028W        W 5013  30.933  28.356   0.247
40029W        W 5014  10.206  39.838  14.739
40030W        W 5015  40.488  43.449   1.807
40031W        W 5016  26.156  14.027  11.642
40032W        W 5017  41.405  42.033  13.147
40033W        W 5018   3.526   9.877   4.373
40034W        W 5019   0.383  27.174  12.188
40035W        W 5020  18.501  16.136  13.093
40036W        W 5021  36.445  41.841  10.593
40037W        W 5022   1.950  23.649   1.668
40038W        W 5023  38.972  35.438  11.640
40039W        W 5024   5.749  22.074  10.603
40040W        W 5025  41.997  37.866   0.780
40041W        W 5026  38.770  24.529   1.312
40042W        W 5027  23.622  24.142   2.044
40043W        W 5028   4.707   4.806  14.452
40044W        W 5029   4.209  21.185  14.236
40045W        W 5030  29.597  32.131  10.649
40046W        W 5031  22.550   8.344   4.864
40047W        W 5032  44.160  33.139   0.356
40048W        W 5033  22.770  20.790   2.229
40049W        W 5034  29.881  40.365   2.593
40050W        W 5035  12.541  23.239  11.431
40051W        W 5036  26.579  11.257  12.431
40052W        W 5037   1.813   9.859  14.716
40053W        W 5038  40.533  17.016  11.768
40054W        W 5039  25.539  43.756   0.471
40055W        W 5040  10.770  33.664  13.928
40056W        W 5041   4.200  41.864  13.847
40057W        W 5042  30.492  15.581   2.672
40058W        W 5043  24.185  35.867   3.837
40059W        W 5044  11.899   2.983  14.738
40060W        W 5045  32.963  16.382   4.062
40061W        W 5046  12.321  25.082   4.639
40062W        W 5047  37.559  35.160   3.282
40063W        W 5048   7.954  14.851   0.254
40064W        W 5049  43.815  27.444   3.537
40065W        W 5050  42.426  28.066   0.291
40066W        W 5051  17.693  12.102   1.228
40067W        W 5052   3.461  11.080   3.631
40068W        W 5053  26.378  44.490   2.687
40069W        W 5054  43.626  36.591  11.987
40070W        W 5055  11.177  15.246  13.429
40071W        W 5056   4.666  29.565   1.377
40072W        W 5057  15.087   6.392  14.427
40073W        W 5058  29.958  33.153   0.201
40074W        W 5059  21.120   2.466  13.336
40075W        W 5060  39.299   5.762  11.082
40076W        W 5061  18.814  10.922  11.015
40077W        W 5062   5.946   7.966   2.023
40078W        W 5063  40.419  27.405   3.352
40079W        W 5064  14.608  18.081  11.188
40080W        W 5065  26.617  26.078   4.203
40081W        W 5066  25.686   5.251   2.971
40082W        W 5067  44.372  24.869  11.177
40083W        W 5068  36.384  42.453  13.319
40084W        W 5069  35.018  17.300  13.151
40085W        W 5070  37.674  14.819  11.130
40086W        W 5071   4.586  32.595  14.840
40087W        W 5072  29.749   5.802  12.499
40088W        W 5073  12.630  27.459   0.211
40089W        W 5074   3.078  19.809   4.588
40090W        W 5075  27.231  25.452   4.398
40091W        W 5076  16.651   9.501  11.640
40092W        W 5077   6.357   4.750   2.305
40093W        W 5078   1.710  34.120   0.754
40094W        W 5079  39.486  25.381   3.301
40095W        W 5080   6.180  44.893  12.540
40096W        W 5081  24.026  29.575  10.242
40097W        W 5082  37.102  38.537   0.248
40098W        W 5083  44.193  35.357   1.477
40099W        W 5084  12.094  22.495  13.958
40100W        W 5085  26.891  34.104   1.551
40101W        W 5086  24.792  29.734   1.367
40102W        W 5087  31.130  37.369  12.555
40103W        W 5088  12.650  29.641  11.197
40104W        W 5089  11.671  16.186   0.790
40105W        W 5090   7.880  40.734   4.262
40106W        W 5091   1.131  16.085  10.260
40107W        W 5092  10.208  13.277   3.338
40108W        W 5093   7.753  36.300  13.063
40109W        W 5094  38.541  27.915   4.087
40110W        W 5095  16.757  44.558   1.866
40111W        W 5096  32.447  29.982   1.159
40112W        W 5097  37.922  10.343  12.042
40113W        W 5098  22.251  23.478  12.141
40114W        W 5099  43.012  20.255  14.208
40115W        W 5100  27.590  35.501  14.858
40116W        W 5101   7.308  38.489   3.962
40117W        W 5102  14.368  43.995  11.974
40118W        W 5103   7.607  11.860   4.115
40119W        W 5104   0.253   4.629   4.487
40120W        W 5105  18.525  38.430  11.189
40121W        W 5106   2.363  38.116  10.661
40122W        W 5107  12.666  34.825   4.270
40123W        W 5108   2.905  12.336  13.390
40124W        W 5109  35.514   1.419   0.006
40125W        W 5110  11.173  30.686   4.663
40126W        W 5111  13.078   2.493   4.152
40127W        W 5112  31.107  23.397   3.438
40128W        W 5113  29.583  27.971   0.373
40129W        W 5114   2.078  16.866   4.095
40130W        W 5115  37.849  33.464  11.178
40131W        W 5116  26.940   9.349   4.607
40132W        W 5117  43.886   1.199   0.164
40133W        W 5118   3.634   0.572   4.658
40134W        W 5119  24.976  30.396   0.260
40135W        W 5120  21.494  30.090  13.941
40136W        W 5121  18.162  19.422  13.535
40137W        W 5122  33.173  26.056   4.796
40138W        W 5123  29.064   8.806  12.285
40139W        W 5124  25.992  22.512   0.505
40140W        W 5125  34.662  40.860   4.513
40141W        W 5126  17.861  31.418  13.901
40142W        W 5127  14.090  16.345  11.240
40143W        W 5128   7.367  23.295  13.331
40144W        W 5129  32.072  34.193   0.785
40145W        W 5130  40.412   3.037   4.943
40146W        W 5131  22.431   8.727  12.150
40147W        W 5132   9.884  40.640  11.671
40148W        W 5133   9.347   4.820   3.407
40149W        W 5134  26.534   0.544   1.889
40150W        W 5135  25.372   2.035   3.102
40151W        W 5136  18.869  28.682  13.081
40152W        W 5137  33.529  29.543   0.155
40153W        W 5138  23.654   7.111  13.120
40154W        W 5139  32.375  12.182   0.817
40155W        W 5140  28.666  30.371  11.239
40156W        W 5141  29.326  13.591   3.114
40157W        W 5142  35.315   4.788  14.044
40158W        W 5143  14.600  23.606   1.648
40159W        W 5144  25.135  10.898   0.943
40160W        W 5145  11.083  21.702   2.887
40161W        W 5146   9.206  10.403   3.415
40162W        W 5147   8.957  33.132  13.040
40163W        W 5148  17.329  33.101   4.684
40164W        W 5149  10.917  13.812  12.500
40165W        W 5150  10.405   6.351  14.510
40166W        W 5151  38.559  41.159  12.620
40167W        W 5152  24.585  14.829  12.313
40168W        W 5153  34.205  36.524   0.345
40169W        W 5154  28.088  30.868   3.028
40170W        W 5155  10.181  40.764   4.187
40171W        W 5156  30.037   3.620  11.158
40172W        W 5157   4.381  26.763  11.012
40173W        W 5158  37.181  14.034  14.421
40174W        W 5159  18.725  40.437  11.181
40175W        W 5160  21.352  26.360   2.818
40176W        W 5161   4.095  37.207  10.734
40177W        W 5162  38.416  24.543   1.694
40178W        W 5163  17.144  40.418  14.753
40179W        W 5164   6.894  12.225  14.440
40180W        W 5165  41.288   6.440  12.989
40181W        W 5166  16.636  21.057  11.580
40182W        W 5167  19.985  40.655   0.322
40183W        W 5168  44.087  18.659  13.558
40184W        W 5169  13.302  12.210   1.203
40185W        W 5170  17.003  16.079   4.139
40186W        W 5171  15.308  25.186   1.949
40187W        W 5172  21.177  20.880  11.620
40188W        W 5173  26.121   3.332  10.756
40189W        W 5174  33.505   1.457  11.556
40190W        W 5175   0.222   2.886   4.110
40191W        W 5176  26.020  15.400   1.880
40192W        W 5177  13.273   8.920  10.609
40193W        W 5178  32.428  10.581   1.811
40194W        W 5179  35.525  34.214  14.373
40195W        W 5180  19.029  38.381   4.429
40196W        W 5181  38.957   4.418  13.828
40197W        W 5182  14.788  11.662   1.575
40198W        W 5183  35.303   9.360   2.965
40199W        W 5184  26.734  32.792   2.138
40200W        W 5185  43.158  11.195   1.486
40201W        W 5186  35.139  36.587  12.777
40202W        W 5187  14.075   0.065   0.826
40203W        W 5188  25.379   0.386  14.056
40204W        W 5189   3.195  28.358  12.604
40205W        W 5190  33.277  33.634  14.430
40206W        W 5191  34.478  19.446  11.890
40207W        W 5192  41.843  26.740   0.102
40208W        W 5193  21.925  10.323   2.804
40209W        W 5194  13.268   6.174  13.906
40210W        W 5195  33.638   3.739  13.452
40211W        W 5196  39.397  11.128   1.354
40212W        W 5197  20.138  27.108   2.712
40213W        W 5198  26.937  19.246   4.302
40214W        W 5199  31.620   2.421  12.758
40215W        W 5200  29.126  22.497  13.530
40216W        W 5201  33.762   3.045   0.831
40217W        W 5202   0.368   3.833  13.963
40218W        W 5203  20.559  40.922   3.068
40219W        W 5204   1.545  44.102  12.024
40220W        W 5205   2.483  21.664  13.349
40221W        W 5206  42.732  16.396   1.632
40222W        W 5207   1.790   7.247   2.110
40223W        W 5208  32.802   0.258  10.656
40224W        W 5209   8.935  40.829  12.423
40225W        W 5210  24.607  17.187   3.289
40226W        W 5211  25.434   9.816   2.369
40227W        W 5212   8.304   8.964   2.292
40228W        W 5213  26.209  16.586   4.034
40229W        W 5214  37.686   4.001  11.717
40230W        W 5215   0.336  42.767   1.740
40231W        W 5216   0.465   9.690  12.040
40232W        W 5217  39.358  41.671  14.658
40233W        W 5218  41.277  27.379  11.631
40234W        W 5219  30.040  41.660   1.399
40235W        W 5220  32.545  44.756  10.782
40236W        W 5221  23.245  39.507   2.441
40237W        W 5222  21.178  14.303  11.913
40238W        W 5223   3.494   2.261  10.740
40239W        W 5224  35.363  33.520  10.394
40240W        W 5225  12.884   6.763   2.118
40241W        W 5226   7.194  32.683   2.274
40242W        W 5227  25.031  44.374   4.046
40243W        W 5228  39.591  24.944  14.260
40244W        W 5229  19.300   4.300  12.589
40245W        W 5230  32.520  23.567   2.916
40246W        W 5231   9.548   7.356   2.749
40247W        W 5232   9.780   9.463   4.784
40248W        W 5233  23.928   9.949  11.454
40249W        W 5234   5.796   7.372  10.735
40250W        W 5235   0.211  13.650  14.118
40251W        W 5236  40.519  28.408   2.734
40252W        W 5237  38.855  21.472   4.280
40253W        W 5238  11.330  38.491   2.388
40254W        W 5239   6.299  26.212   2.072
40255W        W 5240  12.917  32.114   1.410
40256W        W 5241  25.058   8.581   0.358
40257W        W 5242  19.969  15.084  14.344
40258W        W 5243  35.417   7.389   2.824
40259W        W 5244  24.507  40.270   0.035
40260W        W 5245   6.162  15.925  10.175
40261W        W 5246  18.529  37.527  13.818
40262W        W 5247  22.108   0.572  12.069
40263W        W 5248   2.776  15.898  10.981
40264W        W 5249  11.995  21.665  12.191
40265W        W 5250  35.327  11.277   3.283
40266W        W 5251  36.139  25.555  14.306
40267W        W 5252  12.876  26.090  10.614
40268W        W 5253  32.705  22.477  12.448
40269W        W 5254  11.172  25.278  12.774
40270W        W 5255  26.216  44.864   1.292
40271W        W 5256  10.842  39.860   3.587
40272W        W 5257  39.600  35.050  14.345
40273W        W 5258   4.422   9.373   4.486
40274W        W 5259  19.800  30.875   1.738
40275W        W 5260  32.672   9.300   0.382
40276W        W 5261  17.324  24.387   1.758
40277W        W 5262  35.827  30.778   2.573
40278W        W 5263  15.732  16.740  10.617
40279W        W 5264  35.935  11.334  12.663
40280W        W 5265  41.905  14.890   1.259
40281W        W 5266  37.878  30.525  12.225
40282W        W 5267  30.559  34.066   2.844
40283W        W 5268  32.391  20.710  11.694
40284W        W 5269  25.757  24.310   1.740
40285W        W 5270  21.270  29.592   2.870
40286W        W 5271   6.203  38.794   2.254
40287W        W 5272   3.917  35.974  14.364
40288W        W 5273  16.184  39.809  14.770
40289W        W 5274  40.076  10.932  10.731
40290W        W 5275  15.290  21.939  10.798
40291W        W 5276  38.049  41.498   4.510
40292W        W 5277  35.478  33.568  11.366
40293W        W 5278   5.958  14.732   2.731
40294W        W 5279  43.559   9.748  12.065
40295W        W 5280  43.583  26.624   4.022
40296W        W 5281  14.560  40.602  13.369
40297W        W 5282  27.222  26.919   2.376
40298W        W 5283  30.103  36.981   4.231
40299W        W 5284  31.438  16.060  11.909
40300W        W 5285  35.803  29.948  11.974
40301W        W 5286  28.654  35.774  11.524
40302W        W 5287  35.348   8.325   0.070
40303W        W 5288  42.321   6.695  14.418
40304W        W 5289  20.583  40.882   1.116
40305W        W 5290   6.870  14.652   3.694
40306W        W 5291  39.860   2.666   1.197
40307W        W 5292  40.513  38.775  11.543
40308W        W 5293  35.347   2.636  14.518
40309W        W 5294  21.586   3.192  14.921
40310W        W 5295   8.621  31.131  13.841
40311W        W 5296  20.555  23.806  12.529
40312W        W 5297  16.296  27.724  13.702
40313W        W 5298   6.885  16.787   2.408
40314W        W 5299  25.266  39.225   3.167
40315W        W 5300  30.925   0.821  13.819
40316W        W 5301  39.558  32.494  11.567
40317W        W 5302  41.798  41.499   5.157
40318W        W 5303  41.042  16.855  14.257
40319W        W 5304  24.008  18.982  12.096
40320W        W 5305   4.707  10.583   1.843
40321W        W 5306  16.247  23.989  10.568
40322W        W 5307  27.001  31.413   0.834
40323W        W 5308  33.112  40.871   2.154
40324W        W 5309  21.539  30.373  11.134
40325W        W 5310   6.691  25.485  14.868
40326W        W 5311  41.483  30.469  14.580
40327W        W 5312  42.277  31.884  13.252
40328W        W 5313   5.839  39.373   0.861
40329W        W 5314   6.879  27.340   3.586
40330W        W 5315  22.503  18.185   2.299
40331W        W 5316  22.450  43.298   5.010
40332W        W 5317  44.080  25.658   3.348
40333W        W 5318  36.274  43.506  14.674
40334W        W 5319   3.679  28.941  11.116
40335W        W 5320  38.969   5.118  10.604
40336W        W 5321  21.529   2.151   1.450
40337W        W 5322   1.776  40.976   1.403
40338W        W 5323  15.653  14.903   0.444
40339W        W 5324  39.055   7.195   4.250
40340W        W 5325   1.225  19.068  11.639
40341W        W 5326   6.766  14.470  13.940
40342W        W 5327  27.591  44.791  14.988
40343W        W 5328  31.079  39.678  12.129
40344W        W 5329  25.963   3.357   3.672
40345W        W 5330   4.833  42.098  10.694
40346W        W 5331  33.134  34.995  13.885
40347W        W 5332  31.291  40.061   3.267
40348W        W 5333  36.083  23.329   3.664
40349W        W 5334   8.880  13.673  11.550
40350W        W 5335  43.133   4.755   5.121
40351W        W 5336  13.365  19.303  14.240
40352W        W 5337  36.143  16.908   3.617
40353W        W 5338  29.090  12.272  14.676
40354W        W 5339  18.528  13.715  12.921
40355W        W 5340   3.944   8.839   4.120
40356W        W 5341  15.491  18.456  11.915
40357W        W 5342  19.737  20.639   4.286
40358W        W 5343  14.738  33.095  11.921
40359W        W 5344  41.870  43.763  12.702
40360W        W 5345  32.706  14.635   1.772
40361W        W 5346  17.253  14.577  14.078
40362W        W 5347  13.325  13.409   4.593
40363W        W 5348  12.652  36.499   2.676
40364W        W 5349  18.114  44.319  13.952
40365W        W 5350  18.890  18.895  12.371
40366W        W 5351  40.841  38.499  10.643
40367W        W 5352  10.778  25.266  10.667
40368W        W 5353  17.042   9.762   3.982
40369W        W 5354  43.126  42.644   0.789
40370W        W 5355  33.431   5.803   0.198
40371W        W 5356   1.358  15.587  12.379
40372W        W 5357  38.478  16.790   2.832
40373W        W 5358  42.481  11.639  12.532
40374W        W 5359  36.519   0.192  11.898
40375W        W 5360  40.787  11.207   3.822
40376W        W 5361  29.582  20.094  13.395
40377W        W 5362  24.037  29.756   0.844
40378W        W 5363  43.306  42.224  14.516
40379W        W 5364   5.384  33.582   0.651
40380W        W 5365  37.927  44.562   4.872
40381W        W 5366   8.573  29.447   2.637
40382W        W 5367   9.300  36.507  12.104
40383W        W 5368   6.190  42.405   3.846
40384W        W 5369  38.555  12.071   0.774
40385W        W 5370  30.936  23.652  14.757
40386W        W 5371  38.442  12.658   4.580
40387W        W 5372  26.107  27.059  14.474
40388W        W 5373  18.440  11.375  12.051
40389W        W 5374   9.522  36.956  11.942
40390W        W 5375  38.384  11.788  14.344
40391W        W 5376   0.824  10.404   4.514
40392W        W 5377  13.283  16.122  13.081
40393W        W 5378  44.035  33.055   1.637
40394W        W 5379  10.321  29.145   0.746
40395W        W 5380   5.616  15.320   3.738
40396W        W 5381  33.858  34.079  13.318
40397W        W 5382  28.779  11.146   1.264
40398W        W 5383  10.291  29.119  11.168
40399W        W 5384   4.917  30.627   4.015
40400W        W 5385  34.862  36.425  13.920
40401W        W 5386  27.632  37.634   3.757
40402W        W 5387  29.211  44.357  14.375
40403W        W 5388  39.874  15.814   3.152
40404W        W 5389   2.080  38.628  11.927
40405W        W 5390  34.734  42.574   0.841
40406W        W 5391  26.196  34.846  13.992
40407W        W 5392  13.648  24.818   5.018
40408W        W 5393  21.456  15.669   2.351
40409W        W 5394  36.337   5.273   4.158
40410W        W 5395  19.236   0.294   1.386
40411W        W 5396  13.164  16.227  14.471
40412W        W 5397  32.486  16.864  14.309
40413W        W 5398  43.818   2.611   2.756
40414W        W 5399  31.503  42.547  13.430
40415W        W 5400  42.279  28.263  13.341
40416W        W 5401   6.744  23.075   2.886
40417W        W 5402  20.059  18.133   3.630
40418W        W 5403   7.767  33.858   4.356
40419W        W 5404  43.056  28.026   2.722
40420W        W 5405  32.403   8.340  12.470
40421W        W 5406  20.770  13.092  13.391
40422W        W 5407  32.048   0.339   4.794
40423W        W 5408  20.869  28.533  12.092
40424W        W 5409  35.192  35.905  12.128
40425W        W 5410  32.222  12.605  11.090
40426W        W 5411  28.150  25.594   2.729
40427W        W 5412  12.003  32.189   0.731
40428W        W 5413  42.632  39.466   1.732
40429W        W 5414   5.270  17.367  11.114
40430W        W 5415   3.444  38.348  14.988
40431W        W 5416  12.672  38.511  12.021
40432W        W 5417   2.932  25.052  12.985
40433W        W 5418  18.182   3.620  14.749
40434W        W 5419  42.052   9.873   4.267
40435W        W 5420  34.464  43.291  13.129
40436W        W 5421  18.854  40.796  14.317
40437W        W 5422  14.636  27.079   0.257
40438W        W 5423  38.084   0.213   3.853
40439W        W 5424   1.956  16.810  14.039
40440W        W 5425  28.450   1.694  12.329
40441W        W 5426  23.449  23.521   2.709
40442W        W 5427  24.077  30.566  13.771
40443W        W 5428  40.016   2.222  14.918
40444W        W 5429  19.227  23.065  11.497
40445W        W 5430  32.912   2.132  13.315
40446W        W 5431  14.757  44.967   3.580
40447W        W 5432   0.765  19.613  11.512
40448W        W 5433  43.939  31.932   1.041
40449W        W 5434  33.309  36.043  10.751
40450W        W 5435  35.450   6.123  13.873
40451W        W 5436   2.613   5.502   4.569
40452W        W 5437  37.859  31.718   1.418
40453W        W 5438  23.123  33.861   2.322
40454W        W 5439  32.096   3.894  10.776
40455W        W 5440  16.658   7.412   3.231
40456W        W 5441  33.598  37.133  13.375
40457W        W 5442  18.134  21.628  13.128
40458W        W 5443  26.608  44.878   3.742
40459W        W 5444   7.245   8.809   4.395
40460W        W 5445  29.631  37.017  14.777
40461W        W 5446   8.676   3.835  10.907
40462W        W 5447   6.395  37.853   2.220
40463W        W 5448  39.530  24.109   0.179
40464W        W 5449  39.338  29.080  13.657
40465W        W 5450  42.999  17.647   1.948
40466W        W 5451  28.140  18.623  10.591
40467W        W 5452  29.468  44.169   0.906
40468W        W 5453  21.647  28.257   0.367
40469W        W 5454   5.866  30.971   3.834
40470W        W 5455  35.634   3.964  11.271
40471W        W 5456  17.747   6.400  14.648
40472W        W 5457  44.196  29.752   4.583
40473W        W 5458  36.281  43.995   1.418
40474W        W 5459  37.097  31.588  14.813
40475W        W 5460  21.954   5.474   3.799
40476W        W 5461  34.905   7.246   2.840
40477W        W 5462  30.908  36.088   3.779
40478W        W 5463  23.213  18.579  10.538
40479W        W 5464  12.674  27.206  14.757
40480W        W 5465  44.618   6.654  13.105
40481W        W 5466  41.912  12.623   1.643
40482W        W 5467  26.047  21.835   1.953
40483W        W 5468  29.960   6.865   0.897
40484W        W 5469  27.562  17.499   0.935
40485W        W 5470  44.740  17.684   3.290
40486W        W 5471   4.749  30.609  14.076
40487W        W 5472  15.215  25.541  11.270
40488W        W 5473  12.734  19.636   0.749
40489W        W 5474  36.413  18.135  13.048
40490W        W 5475   6.312  37.331  12.685
40491W        W 5476   3.615  37.533   4.094
40492W        W 5477  18.551  18.510  14.965
40493W        W 5478  11.228  32.224  12.992
40494W        W 5479  19.060  18.109  13.406
40495W        W 5480  17.145  25.412  12.057
40496W        W 5481  23.436  13.265   3.567
40497W        W 5482  28.903  16.727   3.558
40498W        W 5483  17.095  39.439  11.632
40499W        W 5484  14.628  29.182  10.756
40500W        W 5485  35.369  28.974  13.953
40501W        W 5486  21.316  30.499  14.900
40502W        W 5487  41.641  16.300  13.867
40503W        W 5488  27.760   2.882   5.113
40504W        W 5489  20.621  30.128   0.189
40505W        W 5490  17.573   0.511   1.916
40506W        W 5491  10.161   6.237  12.342
40507W        W 5492   1.622  18.159  14.320
40508W        W 5493   8.238  13.140   1.996
40509W        W 5494  16.805  23.539  11.985
40510W        W 5495  29.541  44.094  12.400
40511W        W 5496  11.368  43.032  11.953
40512W        W 5497  12.332  10.344   3.691
40513W        W 5498  14.094   3.439   3.605
40514W        W 5499  22.826  37.378  11.567
40515W        W 5500  13.197   7.589   3.313
40516W        W 5501  41.934  29.376   4.565
40517W        W 5502  10.202  26.483  10.373
40518W        W 5503  43.556   8.126   0.272
40519W        W 5504   0.309  35.147   0.475
40520W        W 5505  35.406  33.066  11.248
40521W        W 5506  15.877  26.969   4.048
40522W        W 5507  29.983  28.207  14.600
40523W        W 5508  41.380  44.808   3.658
40524W        W 5509  35.537   5.424   1.244
40525W        W 5510  25.103  20.519   0.924
40526W        W 5511  17.483   8.085   3.747
40527W        W 5512  31.290   6.875   3.132
40528W        W 5513  17.087  19.221   0.317
40529W        W 5514   4.431  32.703  11.306
40530W        W 5515  29.978  11.164   4.640
40531W        W 5516  15.728  41.427  12.520
40532W        W 5517  44.954  33.621  13.865
40533W        W 5518  11.779  32.435   0.326
40534W        W 5519  12.895  26.236  14.011
40535W        W 5520  17.808  27.294  11.322
40536W        W 5521  34.003  41.879   1.620
40537W        W 5522  18.662  16.166  10.388
40538W        W 5523  21.624  41.380   1.100
40539W        W 5524  42.752  17.137  13.881
40540W        W 5525   7.709  28.156   0.871
40541W        W 5526  26.141   0.690   1.542
40542W        W 5527  13.613  35.618  11.462
40543W        W 5528  26.253  24.222  13.036
40544W        W 5529  33.618  44.800   2.209
40545W        W 5530  40.345  34.863  12.609
40546W        W 5531   5.583  21.219  12.611
40547W        W 5532  38.130  20.053  11.593
40548W        W 5533  29.625  37.885   1.280
40549W        W 5534  12.512  33.566  11.076
40550W        W 5535   7.693  27.584  12.427
40551W        W 5536   2.696  44.050  11.000
40552W        W 5537   8.681  41.129   2.725
40553W        W 5538  25.642   0.111   2.161
40554W        W 5539  29.951  12.122  10.913
40555W        W 5540  16.072  30.328   2.685
40556W        W 5541  22.689   4.440   1.458
40557W        W 5542  26.680  19.211   2.802
40558W        W 5543  11.546  18.302  11.919
40559W        W 5544  27.150  18.351   3.648
40560W        W 5545   8.657  37.457  14.894
40561W        W 5546   4.127  16.238  14.022
40562W        W 5547  38.487  12.058  14.811
40563W        W 5548   8.871  41.728   5.097
40564W        W 5549  37.067   4.302   3.116
40565W        W 5550  19.649  22.222  14.521
40566W        W 5551   0.289  41.642  11.087
40567W        W 5552  21.164  35.253  12.118
40568W        W 5553  24.281  21.528  11.720
40569W        W 5554  42.983  22.141  12.426
40570W        W 5555  35.784  18.987  12.058
40571W        W 5556  29.644  31.534  11.555
40572W        W 5557  33.362  12.080  10.687
40573W        W 5558  20.274  10.924   3.313
40574W        W 5559  16.707   9.202   2.639
40575W        W 5560  39.420  11.625   1.202
40576W        W 5561  44.184  15.813   1.893
40577W        W 5562   5.705   3.722   1.797
40578W        W 5563   9.671  33.935   0.938
40579W        W 5564  31.883  10.244   4.508
40580W        W 5565  29.104  10.630  12.230
40581W        W 5566  40.206   4.835  11.051
40582W        W 5567  37.578   5.909   2.301
40583W        W 5568   1.444  41.985   0.708
40584W        W 5569  21.642   0.218   3.238
40585W        W 5570   5.556  19.957   0.398
40586W        W 5571  35.577  40.906  11.261
40587W        W 5572   8.195   0.794   5.020
40588W        W 5573   8.740  15.622   0.904
40589W        W 5574  26.173   0.192   3.899
40590W        W 5575   0.221  21.636  12.583
40591W        W 5576   7.622  39.527   1.676
40592W        W 5577  28.527   7.551  11.655
40593W        W 5578  16.162  44.910   2.648
40594W        W 5579  34.306   1.406   1.595
40595W        W 5580  18.807  44.881   0.750
40596W        W 5581  19.581  31.423  12.328
40597W        W 5582   5.474   1.016   2.254
40598W        W 5583  26.512   4.200  14.455
40599W        W 5584   8.832   6.389  12.092
40600W        W 5585  19.609  27.960   1.670
40601W        W 5586  34.431  37.008  13.127
40602W        W 5587  19.729  18.984   1.686
40603W        W 5588  15.364  21.612  14.114
40604W        W 5589  14.531  39.260  12.419
40605W        W 5590  12.929  10.706   1.413
40606W        W 5591  24.895   2.778  13.961
40607W        W 5592  39.314  20.054  12.052
40608W        W 5593  39.096   7.949  12.049
40609W        W 5594  14.952   4.839  10.332
40610W        W 5595  11.273  44.380  10.454
40611W        W 5596  26.929   4.351   5.099
40612W        W 5597   1.760  17.542   1.643
40613W        W 5598  21.275  29.640  14.683
40614W        W 5599  40.431  39.474   0.579
40615W        W 5600  14.229  11.523   0.343
40616W        W 5601  19.710  23.190  14.115
40617W        W 5602  32.290  10.309   3.580
40618W        W 5603  26.557  40.284   3.210
40619W        W 5604  21.698  12.634   4.598
40620W        W 5605  23.917  30.411  10.064
40621W        W 5606  23.069  30.411  11.175
40622W        W 5607   4.034  34.544  11.429
40623W        W 5608  43.851   9.708  10.711
40624W        W 5609  32.742   1.890   1.801
40625W        W 5610  44.520   7.397   2.562
40626W        W 5611   1.502  20.542   4.090
40627W        W 5612  22.804  33.532   3.225
40628W        W 5613  34.509   3.720  13.092
40629W        W 5614   5.262  29.421  13.348
40630W        W 5615  40.075  29.864   0.743
40631W        W 5616  23.628  22.926  12.889
40632W        W 5617   6.157   2.042   3.227
40633W        W 5618  10.198   6.672   3.270
40634W        W 5619   4.766  38.936  10.134
40635W        W 5620  37.919  39.535  14.304
40636W        W 5621  21.599  19.494   1.670
40637W        W 5622  12.145  16.865   3.112
40638W        W 5623  39.972  16.867   1.278
40639W        W 5624   6.558   0.495   2.324
40640W        W 5625  44.794  25.393  14.917
40641W        W 5626   7.434  24.828  10.916
40642W        W 5627  25.802   7.179  11.126
40643W        W 5628   5.423  20.333  14.491
40644W        W 5629  20.992  37.445  13.045
40645W        W 5630  23.095   4.856  13.879
40646W        W 5631  28.466  28.061  14.599
40647W        W 5632   9.952  40.358   2.743
40648W        W 5633  11.814  18.179  14.474
40649W        W 5634  10.346   2.704   1.747
40650W        W 5635  37.621  20.746  13.978
40651W        W 5636  16.617  27.916   3.689
40652W        W 5637  29.570   9.989  10.754
40653W        W 5638  21.160  14.635  13.981
40654W        W 5639  15.258  27.438   0.960
40655W        W 5640  19.038  11.417  11.639
40656W        W 5641  38.515  15.463  12.716
40657W        W 5642  18.902  15.649   2.535
40658W        W 5643  30.955  42.733  11.746
40659W        W 5644  13.950  14.171   0.546
40660W        W 5645   9.360  37.286  14.033
40661W        W 5646  19.266  14.310  12.545
40662W        W 5647  40.393  27.497  11.649
40663W        W 5648  12.384   5.485  12.099
40664W        W 5649   4.384  23.922   4.557
40665W        W 5650  20.586  35.375   2.195
40666W        W 5651  12.270  11.045  12.054
40667W        W 5652  10.421  34.458  14.375
40668W        W 5653   4.620  26.968   4.173
40669W        W 5654   4.422  43.319   0.229
40670W        W 5655  37.955  16.512  10.833
40671W        W 5656   0.738   6.468  13.132
40672W        W 5657  10.336  28.260  10.720
40673W        W 5658  34.545  14.085   1.901
40674W        W 5659   7.775  22.956   1.869
40675W        W 5660   1.893  32.778  13.603
40676W        W 5661   8.842  25.168   4.114
40677W        W 5662  31.429   2.259  13.209
40678W        W 5663  35.185  23.425  14.247
40679W        W 5664  44.673  33.082   0.361
40680W        W 5665  36.067   0.572  11.250
40681W        W 5666  40.101  17.622  10.076
40682W        W 5667  18.470  40.564  12.975
40683W        W 5668  41.025   2.730  14.858
40684W        W 5669  30.376   8.452   0.283
40685W        W 5670  27.111  44.877  12.047
40686W        W 5671  27.896  25.815  10.645
40687W        W 5672   3.842  40.248  12.509
40688W        W 5673   8.415  25.503   4.180
40689W        W 5674  10.934  26.812   0.774
40690W        W 5675  26.455  33.701   3.360
40691W        W 5676  24.252  26.236   4.046
40692W        W 5677  41.038  18.671   1.855
40693W        W 5678   1.537  11.923   2.841
40694W        W 5679   8.322  19.406  13.848
40695W        W 5680   6.300  28.211   2.746
40696W        W 5681  26.651  37.369   2.227
40697W        W 5682  20.514   2.234  14.640
40698W        W 5683   2.767  21.019   3.778
40699W        W 5684  30.218  21.066  11.669
40700W        W 5685  25.169   2.373  13.406
40701W        W 5686  18.565  22.692   3.608
40702W        W 5687  14.712   3.806   2.729
40703W        W 5688  10.631  19.781   1.892
40704W        W 5689   0.697  15.661   3.422
40705W        W 5690  43.145  23.294   1.367
40706W        W 5691  20.286   7.574   0.710
40707W        W 5692  13.739  34.111   4.844
40708W        W 5693   7.701  12.799   2.638
40709W        W 5694   3.871  27.639  11.376
40710W        W 5695  43.030   3.283   4.352
40711W        W 5696  41.458  24.076   2.503
40712W        W 5697  43.140  19.628   3.297
40713W        W 5698  30.124  16.286  11.140
40714W        W 5699  35.339  10.584   4.301
40715W        W 5700   9.621  15.106   2.246
40716W        W 5701  10.667  19.221  11.270
40717W        W 5702  10.290  42.845   1.343
40718W        W 5703  20.133   7.540  11.971
40719W        W 5704  37.932  35.516   0.377
40720W        W 5705   3.875  33.770   2.238
40721W        W 5706  24.554   9.150   1.030
40722W        W 5707   2.265  35.787  13.593
40723W        W 5708  25.066  25.641   3.320
40724W        W 5709   7.162  18.902   1.087
40725W        W 5710  40.039   1.456  11.496
40726W        W 5711  12.201  40.518   1.019
40727W        W 5712  31.207  35.714  12.881
40728W        W 5713   8.970  32.934   1.147
40729W        W 5714  12.266  36.591   3.338
40730W        W 5715  30.311  27.733  13.650
40731W        W 5716   6.292  18.485   1.219
40732W        W 5717  10.314  44.776  14.826
40733W        W 5718  40.798  32.633   1.012
40734W        W 5719   0.453   3.302   4.364
40735W        W 5720  41.800  11.891  11.953
40736W        W 5721   3.438   0.324  11.981
40737W        W 5722  33.356  31.910   2.261
40738W        W 5723  36.428  27.197  12.291
40739W        W 5724  29.428  20.416   1.171
40740W        W 5725  21.787   9.621   0.897
40741W        W 5726  33.409  12.202   3.360
40742W        W 5727   0.262   9.718  14.265
40743W        W 5728  11.779   5.636  13.573
40744W        W 5729  32.128  33.488   4.565
40745W        W 5730  15.300  31.460   3.322
40746W        W 5731   1.064  22.183   3.758
40747W        W 5732  44.214   8.737   2.602
40748W        W 5733  11.617  35.978  14.820
40749W        W 5734  29.447   8.667   0.805
40750W        W 5735  25.930  31.576   2.396
40751W        W 5736  35.080   8.100  12.183
40752W        W 5737   8.873   6.921   0.713
40753W        W 5738  39.403   2.490   3.342
40754W        W 5739  23.456   1.157  13.829
40755W        W 5740  31.124  38.377  13.778
40756W        W 5741  20.629  33.695   3.155
40757W        W 5742  38.861  31.773   4.148
40758W        W 5743  16.413  35.049   0.222
40759W        W 5744  31.587  24.696   1.746
40760W        W 5745  30.859   7.169   3.237
40761W        W 5746   8.275  12.575  11.033
40762W        W 5747   3.179  31.687   0.458
40763W        W 5748   5.312  33.029   2.449
40764W        W 5749  44.467  12.194  12.238
40765W        W 5750   2.364   5.397  14.371
40766W        W 5751   0.588  17.828   4.579
40767W        W 5752  34.217   1.311   0.758
40768W        W 5753  14.187  26.423  11.461
40769W        W 5754   8.332  13.059  13.869
40770W        W 5755  17.537  31.075   1.631
40771W        W 5756  43.986  25.064  14.917
40772W        W 5757   5.434  36.365   2.368
40773W        W 5758  12.315  41.781   0.377
40774W        W 5759  40.288  44.805  12.705
40775W        W 5760   9.115  12.834   0.424
40776W        W 5761  25.158  33.662   4.411
40777W        W 5762  26.778  43.863   1.343
40778W        W 5763  41.407   9.495   1.671
40779W        W 5764  18.429  16.065   4.178
40780W        W 5765  29.368  41.148  13.459
40781W        W 5766  13.430  21.794  12.482
40782W        W 5767  44.671   8.174   0.630
40783W        W 5768  43.824  35.938   2.184
40784W        W 5769   5.382  18.461  12.075
40785W        W 5770  23.865  44.940   3.534
40786W        W 5771  20.298  28.187   4.058
40787W        W 5772  35.156  21.809  12.095
40788W        W 5773  43.325  13.124  12.104
40789W        W 5774  39.055  33.963   2.137
40790W        W 5775  41.437  12.120   2.357
40791W        W 5776  42.995   4.559  11.166
40792W        W 5777   7.930  21.731  12.286
40793W        W 5778  42.370  25.144  12.486
40794W        W 5779   4.071  22.121   2.078
40795W        W 5780  39.628   3.799   2.720
40796W        W 5781  32.407  17.834   0.469
40797W        W 5782  24.517  35.097   2.239
40798W        W 5783  44.990  41.199  12.909
40799W        W 5784  24.633  10.795   0.810
40800W        W 5785  32.487  33.676  13.969
40801W        W 5786   1.829   1.304   3.285
40802W        W 5787  29.572  19.594   1.746
40803W        W 5788  30.499  34.494  14.833
40804W        W 5789  42.842  34.121   0.333
40805W        W 5790   8.550  24.497   1.293
40806W        W 5791   3.361  39.313  14.465
40807W        W 5792  43.076   9.640  11.969
40808W        W 5793  11.371  27.020   2.357
40809W        W 5794  10.927   1.047   0.293
40810W        W 5795   4.355  16.756  11.357
40811W        W 5796  32.051  12.835   5.022
40812W        W 5797  12.212  27.441  12.436
40813W        W 5798  35.666  39.398  11.371
40814W        W 5799  26.383  29.308  11.945
40815W        W 5800  28.073  24.967  13.210
40816W        W 5801  20.031  18.324   1.600
40817W        W 5802  42.982  36.263  13.074
40818W        W 5803  11.801  37.669  11.157
40819W        W 5804  38.449  30.441  13.114
40820W        W 5805  17.902  33.217   1.749
40821W        W 5806  32.716  35.379  13.073
40822W        W 5807  29.482  17.856   1.961
40823W        W 5808   8.238   5.124   1.144
40824W        W 5809  19.802   8.279   4.615
40825W        W 5810   0.210  29.678  11.652
40826W        W 5811  12.327  33.108  13.016
40827W        W 5812   0.046  18.489  11.739
40828W        W 5813  18.067   8.352   3.530
40829W        W 5814  31.501   9.401  10.881
40830W        W 5815  24.194  42.471   2.439
40831W        W 5816  12.745  36.324   4.213
40832W        W 5817  24.246   8.194  11.992
40833W        W 5818  39.988  42.251   0.413
40834W        W 5819  23.292  21.669  11.555
40835W        W 5820   8.909  22.975   2.594
40836W        W 5821  42.107  21.245  12.915
40837W        W 5822  11.173  37.332   3.181
40838W        W 5823   0.340   0.009   2.523
40839W        W 5824   3.280   1.261   1.763
40840W        W 5825  33.125  18.560  11.101
40841W        W 5826  34.933  12.406   1.502
40842W        W 5827  15.772  13.799   2.212
40843W        W 5828  18.545  36.011   1.740
40844W        W 5829  44.053  24.074   4.757
40845W        W 5830   5.304  22.606   1.697
40846W        W 5831   5.679   1.095   3.441
40847W        W 5832  29.945  23.426  12.460
40848W        W 5833  29.215  21.714  13.140
40849W        W 5834  24.291  18.629  14.812
40850W        W 5835   0.994  34.530   4.778
40851W        W 5836  22.455  10.715  14.351
40852W        W 5837  32.052  28.998   0.831
40853W        W 5838  31.570  41.509   3.234
40854W        W 5839  21.947  32.885   4.704
40855W        W 5840  41.292  44.258  13.881
40856W        W 5841  34.770  33.999   4.339
40857W        W 5842  34.646  33.345   0.202
40858W        W 5843  30.340  36.013  14.903
40859W        W 5844  17.542   0.303   4.753
40860W        W 5845  16.599  36.038  10.930
40861W        W 5846   2.433  12.413  11.650
40862W        W 5847   2.767   2.490   0.838
40863W        W 5848   2.786  19.617   4.183
40864W        W 5849  12.505  32.535  12.998
40865W        W 5850  29.586   6.200  14.804
40866W        W 5851  20.869  37.499  11.120
40867W        W 5852   7.861  36.079  13.545
40868W        W 5853  29.143  27.881   2.641
40869W        W 5854  43.122   6.873  11.054
40870W        W 5855  11.042   6.662   0.256
40871W        W 5856  15.954  36.485   3.155
40872W        W 5857  13.663   7.801  14.036
40873W        W 5858  37.372  31.608   4.872
40874W        W 5859  26.211  22.655   2.287
40875W        W 5860   6.629  22.074   3.091
40876W        W 5861   8.801  40.529  10.732
40877W        W 5862   3.964  30.168  11.617
40878W        W 5863  40.041  23.154   2.813
40879W        W 5864   8.963   9.661  13.985
40880W        W 5865  22.397  14.770  12.063
40881W        W 5866  16.466  35.985  11.594
40882W        W 5867   5.400   3.820  13.566
40883W        W 5868  22.057  10.315   0.568
40884W        W 5869  31.970  30.061   0.897
40885W        W 5870   4.969  21.633  14.207
40886W        W 5871  15.487  31.569  13.155
40887W        W 5872  16.334   3.641  10.456
40888W        W 5873  30.512   3.760   4.602
40889W        W 5874   7.699  20.326   2.346
40890W        W 5875  31.604  37.016   4.404
40891W        W 5876  31.844  12.374   4.159
40892W        W 5877  29.941  22.521  14.398
40893W        W 5878  22.970  29.457   2.353
40894W        W 5879  20.852   2.215  14.218
40895W        W 5880  10.717  21.042  10.900
40896W        W 5881  21.297  43.292  14.845
40897W        W 5882   9.179  18.164  14.652
40898W        W 5883  27.969  41.556   0.007
40899W        W 5884  21.029   7.277  11.264
40900W        W 5885  26.471  34.811  14.839
40901W        W 5886   9.896   0.803   3.220
40902W        W 5887  44.739  25.538  13.751
40903W        W 5888  36.918  10.351   2.213
40904W        W 5889  35.009  11.199  12.425
40905W        W 5890  27.654  16.459   0.917
40906W        W 5891  26.793   4.499  11.146
40907W        W 5892  27.145  42.279   1.737
40908W        W 5893  41.470  31.873   0.863
40909W        W 5894   1.470  18.552  11.671
40910W        W 5895  20.665  15.363  11.588
40911W        W 5896   1.156  24.761  11.171
40912W        W 5897  12.589  27.554  10.677
40913W        W 5898  44.129  44.039   4.213
40914W        W 5899  25.022  12.652   0.313
40915W        W 5900  28.439  22.503  10.555
40916W        W 5901  38.288  19.214   3.258
40917W        W 5902  41.995  30.228   0.413
40918W        W 5903  33.551  27.696   2.202
40919W        W 5904  17.721  24.727   5.047
40920W        W 5905  38.328  41.422   2.901
40921W        W 5906  35.710   2.686  10.870
40922W        W 5907  42.480  31.425  12.581
40923W        W 5908   5.384  40.264  11.900
40924W        W 5909  40.038  23.421  12.002
40925W        W 5910  17.057  20.775  14.441
40926W        W 5911  20.687   3.958  11.601
40927W        W 5912  16.350   9.666  12.642
40928W        W 5913  22.007  30.019   1.765
40929W        W 5914  41.794  37.885   2.186
40930W        W 5915   3.827  32.382   3.586
40931W        W 5916  10.252  26.955  10.614
40932W        W 5917  16.109  18.058   0.407
40933W        W 5918  24.509  38.516  10.702
40934W        W 5919  39.301   1.035   3.169
40935W        W 5920  21.118  31.968   5.007
40936W        W 5921  18.166  28.094   0.274
40937W        W 5922  17.818  44.752   1.964
40938W        W 5923  30.082   0.680   3.766
40939W        W 5924  30.437   8.296  14.761
40940W        W 5925   5.197  33.496   3.163
40941W        W 5926   9.097  14.592   1.743
40942W        W 5927  29.040   2.467  14.418
40943W        W 5928  37.575   6.414  11.815
40944W        W 5929  26.607  40.540   2.753
40945W        W 5930   4.251  35.431   4.266
40946W        W 5931  29.378  42.561  13.325
40947W        W 5932   3.896   9.086   3.242
40948W        W 5933   5.279  42.959   3.150
40949W        W 5934   5.289  13.706   2.641
40950W        W 5935   5.373   2.114   3.621
40951W        W 5936  24.074  44.903   0.287
40952W        W 5937  32.033  39.558  11.628
40953W        W 5938   9.036   8.348   0.541
40954W        W 5939  19.881   4.243   3.797
40955W        W 5940  14.687   8.216  11.374
40956W        W 5941   0.249  14.059   2.427
40957W        W 5942  31.854   7.774   2.366
40958W        W 5943  29.077  39.753  14.540
40959W        W 5944   8.659  35.456  13.304
40960W        W 5945   9.867  41.476  12.870
40961W        W 5946   8.404  16.386   4.449
40962W        W 5947  32.279  39.871   3.258
40963W        W 5948  18.573  38.741   3.417
40964W        W 5949   4.448  33.111  13.903
40965W        W 5950   8.308  32.840  11.892
40966W        W 5951   9.599   5.973  14.768
40967W        W 5952  11.295  24.261  11.666
40968W        W 5953   8.415  43.810  10.594
40969W        W 5954  12.592  17.102  12.447
40970W        W 5955   3.054  26.480   3.505
40971W        W 5956   1.571  16.006  13.028
40972W        W 5957   2.776  18.553   4.183
40973W        W 5958  35.379  36.481  13.804
40974W        W 5959  14.073  13.523  12.552
40975W        W 5960  33.840   1.388   0.408
40976W        W 5961   8.304   7.911  12.074
40977W        W 5962  10.599  38.837  11.972
40978W        W 5963   1.486  14.705  14.329
40979W        W 5964   8.248  19.945  11.655
40980W        W 5965  39.761  24.235  10.582
40981W        W 5966  43.033  34.106  13.795
40982W        W 5967  16.994   7.759  13.923
40983W        W 5968  39.262  15.222   4.430
40984W        W 5969   8.423  15.889   2.433
40985W        W 5970   5.732  13.693   0.823
40986W        W 5971  11.060   3.323   1.300
40987W        W 5972  23.576   8.830  10.772
40988W        W 5973  15.901  19.882  10.197
40989W        W 5974   7.708   7.853   0.725
40990W        W 5975  28.045  28.672  12.489
40991W        W 5976  43.812  11.654   4.520
40992W        W 5977  41.321  31.963   0.379
40993W        W 5978   4.944  13.666   0.384
40994W        W 5979   0.130  34.603  11.978
40995W        W 5980  18.882  35.058   0.581
40996W        W 5981  13.607  32.419   0.782
40997W        W 5982  32.653  15.249   0.264
40998W        W 5983  23.578  32.193  14.871
40999W        W 5984  42.067  17.007  14.949
41000W        W 5985  14.316  25.234  13.948
41001W        W 5986  42.916  24.701   3.657
41002W        W 5987  42.002  27.888  12.986
41003W        W 5988  32.350   2.453   3.572
41004W        W 5989  42.048  27.550   3.617
41005W        W 5990  26.234  31.957   4.175
41006W        W 5991  38.237  23.932   3.351
41007W        W 5992  12.294  11.756   1.398
41008W        W 5993  38.790   9.151  10.265
41009W        W 5994  24.262   9.425   1.393
41010W        W 5995  29.597   5.632   0.883
41011W        W 5996   3.473  42.226   3.153
41012W        W 5997   1.749  13.042   1.421
41013W        W 5998  16.185   5.759   3.260
41014W        W 5999  40.248  13.705  12.028
41015W        W 6000  39.486  39.610  13.471
41016W        W 6001  39.385  43.895   0.997
41017W        W 6002  18.760   6.419   1.992
41018W        W 6003  34.798  26.578   2.858
41019W        W 6004  29.122  25.729  12.384
41020W        W 6005  17.527   9.905   1.277
41021W        W 6006  12.271  40.338  14.476
41022W        W 6007  23.522  44.266  11.641
41023W        W 6008  41.393  31.056   0.477
41024W        W 6009  19.750   8.305  10.866
41025W        W 6010   1.965  22.277   2.857
41026W        W 6011  43.186  22.673  12.821
41027W        W 6012  31.083   1.902  10.841
41028W        W 6013  31.837  25.994   1.995
41029W        W 6014  35.879  34.906   1.171
41030W        W 6015  35.526  18.615   2.885
41031W        W 6016  39.847  37.803  12.991
41032W        W 6017  27.193   1.253  14.106
41033W        W 6018  31.457  26.389  13.391
41034W        W 6019   1.480  12.796  12.595
41035W        W 6020  32.102  28.645   4.675
41036W        W 6021  12.802   9.123   1.784
41037W        W 6022   2.233   7.379   3.776
41038W        W 6023  20.597  37.882   3.207
41039W        W 6024  15.175  19.178   4.818
41040W        W 6025   0.917  36.005   1.311
41041W        W 6026  37.479  17.201  14.477
41042W        W 6027  28.898  43.272   4.533
41043W        W 6028   5.687  20.565  14.915
41044W        W 6029  33.634  11.151   2.717
41045W        W 6030  21.702  33.018  14.086
41046W        W 6031  25.180   4.791   2.658
41047W        W 6032  18.601  19.213  13.285
41048W        W 6033   7.735  10.893   3.879
41049W        W 6034   9.926   6.406   5.008
41050W        W 6035  37.070  20.846  13.946
41051W        W 6036  22.753  24.396   2.011
41052W        W 6037  21.119   7.192  11.810
41053W        W 6038  38.923   0.339  14.900
41054W        W 6039  40.332  41.742   1.147
41055W        W 6040  15.979   3.697   9.682
41056W        W 6041  20.591   7.025   1.464
41057W        W 6042   6.614  42.879   0.877
41058W        W 6043  19.114   4.213   3.132
41059W        W 6044  13.099  29.125  13.347
41060W        W 6045   8.965   6.468   9.759
41061W        W 6046  38.892  18.313  10.103
41062W        W 6047  28.151  27.604  11.100
41063W        W 6048  20.779  38.377   3.151
41064W        W 6049   1.298  18.487   4.555
41065W        W 6050  11.835   9.564   0.397
41066W        W 6051   5.177   7.663   0.399
41067W        W 6052  26.001  21.671  11.580
41068W        W 6053   0.830  34.280   0.689
41069W        W 6054  31.176  12.024  11.467
41070W        W 6055  30.331  30.100  11.616
41071W        W 6056  16.848  22.006  13.817
41072W        W 6057  19.770   9.048  13.425
41073W        W 6058   7.789  25.950  11.634
41074W        W 6059   6.069  19.819   0.419
41075W        W 6060  25.643  23.288   0.395
41076W        W 6061   2.239  28.008  11.089
41077W        W 6062  23.239  28.670   4.303
41078W        W 6063  26.936  18.011  10.934
41079W        W 6064  40.808  27.522   5.603
41080W        W 6065  37.549  23.047   4.069
41081W        W 6066  34.837  16.277  11.124
41082W        W 6067  20.881  15.318  12.901
41083W        W 6068  31.472  13.171   4.113
41084W        W 6069  37.748   0.995   3.572
41085W        W 6070  24.688  22.853   0.677
41086W        W 6071   6.997  26.979   3.947
41087W        W 6072  41.817   0.060   3.322
41088W        W 6073   2.573   5.008  13.995
41089W        W 6074  26.100  26.125   4.259
41090W        W 6075  33.238   2.393  14.085
41091W        W 6076  36.333  33.252  11.007
41092W        W 6077   5.726  30.220   2.041
41093W        W 6078   8.366  44.937   0.377
41094W        W 6079  37.909   9.824  14.449
41095W        W 6080  11.839  23.448  13.955
41096W        W 6081  18.539  34.541  13.074
41097W        W 6082  27.722  16.206   0.119
41098W        W 6083  15.766  13.291   4.340
41099W        W 6084  17.655  32.574  11.181
41100W        W 6085   6.360  38.352  12.984
41101W        W 6086  19.715  39.986  11.181
41102W        W 6087  26.075  28.412  14.584
41103W        W 6088  41.394   9.939   0.235
41104W        W 6089   2.397  39.421   3.616
41105W        W 6090  34.597  17.107   0.425
41106W        W 6091  20.998   1.308   1.242
41107W        W 6092   6.290  38.103   0.810
41108W        W 6093  27.601  20.613   1.374
41109W        W 6094   0.044  39.525   0.013
41110W        W 6095  12.119  36.895  11.208
41111W        W 6096  32.619  24.529   2.611
41112W        W 6097   6.337  20.147  14.810
41113W        W 6098  28.655  37.434  13.590
41114W        W 6099  19.655  35.042   4.167
41115W        W 6100  17.039  25.446   0.222
41116W        W 6101  24.077  21.083  12.430
41117W        W 6102  24.507  29.163   2.297
41118W        W 6103  38.801   7.238   0.699
41119W        W 6104  12.234  18.649  11.906
41120W        W 6105  14.754  22.552   3.765
41121W        W 6106  39.882   4.193   1.204
41122W        W 6107  35.337  16.542  11.264
41123W        W 6108   1.663   7.053  12.427
41124W        W 6109  37.890  15.720  12.121
41125W        W 6110  13.504   4.883   0.836
41126W        W 6111   0.005  36.083   5.043
41127W        W 6112  18.548  27.520   3.812
41128W        W 6113  12.724   2.719   0.031
41129W        W 6114  29.918  22.684   4.494
41130W        W 6115  16.496  40.486   4.101
41131W        W 6116  38.949  36.818  13.426
41132W        W 6117  24.504  42.088  12.447
41133W        W 6118  20.502   8.092  12.477
41134W        W 6119  36.129  18.266   3.464
41135W        W 6120  10.040  28.821   0.390
41136W        W 6121   6.145  38.088  11.571
41137W        W 6122  33.364  22.272   0.683
41138W        W 6123  44.755  33.399   2.714
41139W        W 6124  34.094  38.151   0.373
41140W        W 6125   3.810  21.205   0.473
41141W        W 6126  16.407  18.604   1.767
41142W        W 6127  36.834  42.554   5.169
41143W        W 6128  38.230  22.756  12.910
41144W        W 6129   5.519   4.166   4.537
41145W        W 6130  15.324  16.407   0.380
41146W        W 6131  41.436  13.103  14.870
41147W        W 6132  40.291  39.527  13.845
41148W        W 6133  10.143  23.559  12.592
41149W        W 6134   5.351  21.741   0.916
41150W        W 6135  14.744  21.512   0.767
41151W        W 6136   0.431   2.287   0.167
41152W        W 6137   8.213  36.101   3.262
41153W        W 6138  20.074  35.257  13.473
41154W        W 6139  32.667  40.944  14.737
41155W        W 6140  44.728  20.180   4.231
41156W        W 6141  42.581  33.149  11.237
41157W        W 6142  38.098  21.131   3.753
41158W        W 6143   0.424  41.221  14.856
41159W        W 6144   5.505  25.477  13.490
41160W        W 6145  15.561   4.439   3.248
41161W        W 6146  34.945  18.240  14.985
41162W        W 6147  33.162  19.713   2.803
41163W        W 6148   2.104  30.165  11.645
41164W        W 6149   4.507  22.242   1.828
41165W        W 6150  17.269  35.978   3.239
41166W        W 6151   9.311  30.418  14.370
41167W        W 6152  30.951  29.983  10.823
41168W        W 6153  36.883  10.143  11.624
41169W        W 6154   8.438  18.872   3.306
41170W        W 6155  27.225  17.143  10.751
41171W        W 6156  43.550   9.844   4.109
41172W        W 6157  37.335  13.730   2.761
41173W        W 6158  19.196  17.101  14.372
41174W        W 6159  26.164   6.345  11.575
41175W        W 6160  39.163  22.196   2.517
41176W        W 6161  27.882  19.851   1.814
41177W        W 6162  17.785  12.046   2.080
41178W        W 6163  34.910  18.703   5.028
41179W        W 6164  18.847  39.437   1.177
41180W        W 6165  43.061   0.856   3.616
41181W        W 6166  10.129  22.275  13.962
41182W        W 6167  20.672  36.151   4.690
41183W        W 6168  35.641   6.764   0.790
41184W        W 6169   9.002  15.713   0.463
41185W        W 6170  23.021   9.526  11.653
41186W        W 6171  35.411  26.726   0.831
41187W        W 6172  14.602  25.280   3.687
41188W        W 6173  22.243  40.789   2.223
41189W        W 6174  25.111  35.129  10.562
41190W        W 6175  30.336  30.157  14.389
41191W        W 6176  24.005  41.917   1.159
41192W        W 6177  15.095  27.742   0.048
41193W        W 6178  39.479  37.437   4.637
41194W        W 6179  39.998  26.343   0.742
41195W        W 6180  35.321  38.271  12.419
41196W        W 6181  41.850  42.097  14.007
41197W        W 6182  33.879  40.427   0.002
41198W        W 6183  14.769  23.287  12.646
41199W        W 6184   2.365  12.175   1.672
41200W        W 6185   0.855  22.523  14.063
41201W        W 6186  11.080  44.815  11.225
41202W        W 6187   4.534  41.919   2.972
41203W        W 6188  41.343  22.748   4.946
41204W        W 6189  11.197  44.364   3.743
41205W        W 6190  27.506   2.519  10.217
41206W        W 6191  28.844  29.096  14.663
41207W        W 6192   9.920   0.033  14.319
41208W        W 6193   2.402  37.102   4.760
41209W        W 6194  41.371   5.469  10.764
41210W        W 6195   9.138   5.696  14.858
41211W        W 6196  40.879  20.204   0.831
41212W        W 6197   0.469  17.834   0.342
41213W        W 6198  29.527  37.776  11.959
41214W        W 6199  11.774  24.441   2.608
41215W        W 6200   3.250   9.154   4.623
41216W        W 6201  19.002  13.981  14.003
41217W        W 6202   3.966   1.282   3.122
41218W        W 6203  30.062   2.028   3.526
41219W        W 6204  31.553  33.601  12.577
41220W        W 6205  20.535  27.222   2.396
41221W        W 6206  17.695  26.871  12.700
41222W        W 6207   1.367  44.545  12.989
41223W        W 6208  28.068  27.443   0.945
41224W        W 6209   7.394   2.430  14.566
41225W        W 6210  27.318  25.855   3.647
41226W        W 6211  11.866  44.058   2.318
41227W        W 6212   8.352  27.453   1.807
41228W        W 6213  28.588  41.736   2.191
41229W        W 6214   1.308  21.237  14.005
41230W        W 6215  34.074  42.761   3.140
41231W        W 6216  30.958  29.463  11.595
41232W        W 6217  16.286  32.953   2.569
41233W        W 6218   6.440  28.466  12.968
41234W        W 6219  16.315  27.500   3.554
41235W        W 6220   9.913  24.438  14.506
41236W        W 6221  37.902  38.850   0.021
41237W        W 6222  10.752   8.338  12.633
41238W        W 6223  17.815  31.005   2.655
41239W        W 6224  17.116  24.578   2.318
41240W        W 6225   0.785  42.727  10.332
41241W        W 6226  32.224   1.711   2.691
41242W        W 6227   7.222  21.984   1.310
41243W        W 6228   7.302   7.722  14.540
41244W        W 6229   5.487  26.428   1.209
41245W        W 6230   5.650  14.222   0.892
41246W        W 6231   4.107  17.103   4.962
41247W        W 6232   8.316  44.441   4.649
41248W        W 6233  44.304  17.714   1.689
41249W        W 6234  37.382  31.951  13.651
41250W        W 6235  32.755   6.803   3.123
41251W        W 6236  32.436  24.588   2.133
41252W        W 6237  21.029  44.542  14.353
41253W        W 6238  27.392  11.406   2.608
41254W        W 6239   6.198  23.225   4.134
41255W        W 6240  18.293  21.310   2.810
41256W        W 6241  26.454  23.744   3.609
41257W        W 6242  27.725  37.544   0.942
41258W        W 6243  36.403  14.317  14.671
41259W        W 6244   9.129  22.954  14.656
41260W        W 6245  32.093  10.921   4.065
41261W        W 6246  37.848  28.522  13.969
41262W        W 6247  40.733  14.876  12.893
41263W        W 6248   7.989  20.285  13.639
41264W        W 6249  13.576  44.269  13.354
41265W        W 6250  38.447   7.172   0.330
41266W        W 6251  32.863  14.793   1.023
41267W        W 6252  29.589   5.310   4.998
41268W        W 6253   2.897   2.304  13.092
41269W        W 6254  30.531  14.540  13.433
41270W        W 6255  18.253  36.438   1.342
41271W        W 6256   9.418  18.310  12.505
41272W        W 6257  27.896  10.347   5.137
41273W        W 6258  35.520   4.585   1.914
41274W        W 6259  13.059  24.060   3.742
41275W        W 6260  10.644  44.822  13.149
41276W        W 6261  21.270  40.465  13.507
41277W        W 6262   7.615   3.377  10.960
41278W        W 6263   6.294  10.358   4.577
41279W        W 6264  33.314   5.695  14.179
41280W        W 6265  24.117  22.482  12.011
41281W        W 6266  15.659  44.705  13.441
41282W        W 6267  22.503   4.360  12.555
41283W        W 6268  32.046  28.443  14.124
41284W        W 6269   0.760  23.043  10.722
41285W        W 6270  20.164  17.776   0.771
41286W        W 6271  11.380  25.221  13.668
41287W        W 6272   9.676  35.806   2.067
41288W        W 6273   8.695  16.094   4.126
41289W        W 6274  22.293  42.921   0.826
41290W        W 6275  12.110  30.764   0.017
41291W        W 6276  39.035  36.066  13.860
41292W        W 6277  30.410   7.415   3.290
41293W        W 6278  19.628  21.592  13.040
41294W        W 6279   3.425   5.976  11.777
41295W        W 6280  27.021  12.368  10.787
41296W        W 6281  19.662  43.373  14.391
41297W        W 6282  29.559   9.864  13.777
41298W        W 6283  29.149  24.632   3.607
41299W        W 6284  40.471  10.797   3.884
41300W        W 6285  30.576   8.870  13.976
41301W        W 6286  43.450  22.303  11.964
41302W        W 6287  14.813  43.538  11.471
41303W        W 6288  16.159  38.938  13.069
41304W        W 6289  30.442   1.473  10.182
41305W        W 6290   6.213  22.757  12.939
41306W        W 6291  32.651  16.112  13.535
41307W        W 6292  27.581  38.083   4.096
41308W        W 6293  33.851   9.391   1.874
41309W        W 6294   0.352  35.613   0.214
41310W        W 6295  23.748  28.368  14.408
41311W        W 6296  15.248  30.738  11.062
41312W        W 6297  30.114  42.925   3.400
41313W        W 6298  18.002  30.696   3.311
41314W        W 6299   7.639  20.569  14.848
41315W        W 6300  44.431  27.170   9.716
41316W        W 6301  12.683  20.001   2.336
41317W        W 6302  29.728   9.221  11.960
41318W        W 6303  18.212  20.488  14.453
41319W        W 6304   3.377   4.296   0.359
41320W        W 6305   9.272  16.859   2.328
41321W        W 6306  10.266  19.803   2.286
41322W        W 6307  40.028  25.600  13.075
41323W        W 6308  44.909   1.700  14.091
41324W        W 6309  11.241  43.046   4.126
41325W        W 6310  10.158  32.732   0.807
41326W        W 6311  12.314  29.081  13.948
41327W        W 6312  10.146  25.086   2.393
41328W        W 6313  29.688  37.433  10.719
41329W        W 6314   4.408   2.440  10.956
41330W        W 6315  14.078   8.343   2.951
41331W        W 6316  23.959  25.790  11.915
41332W        W 6317  20.049   9.926  10.391
41333W        W 6318  10.437  18.660   3.616
41334W        W 6319   3.149  15.473   1.873
41335W        W 6320   3.831  28.445  10.421
41336W        W 6321   3.754  42.469   2.232
41337W        W 6322  36.899  28.886  10.579
41338W        W 6323  24.801  37.394  11.759
41339W        W 6324  31.645  18.691   3.702
41340W        W 6325  30.606  39.937   2.698
41341W        W 6326   0.388  40.374  11.249
41342W        W 6327  18.339  20.642   1.657
41343W        W 6328  13.200  42.065  11.831
41344W        W 6329  19.812  37.364   0.403
41345W        W 6330   8.210   9.459   4.272
41346W        W 6331   6.834  16.468  13.833
41347W        W 6332  18.775  12.093  13.282
41348W        W 6333   8.287  10.419   3.275
41349W        W 6334   6.820  43.375   1.896
41350W        W 6335  42.081  26.036   2.193
41351W        W 6336  12.472   9.257  11.946
41352W        W 6337   6.856  29.401  13.266
41353W        W 6338  23.901  38.732   1.422
41354W        W 6339  37.047  11.181  14.110
41355W        W 6340  31.143  35.558  11.618
41356W        W 6341  10.240  22.544   3.623
41357W        W 6342  11.095  20.720  13.448
41358W        W 6343  34.045  34.940   1.265
41359W        W 6344  33.398  33.286  14.811
41360W        W 6345  28.477  27.761   3.123
41361W        W 6346  40.888  26.247  12.964
41362W        W 6347  27.146  33.259  12.800
41363W        W 6348   4.752  27.031  13.841
41364W        W 6349  44.901   0.455  13.344
41365W        W 6350  17.378  41.078  10.536
41366W        W 6351  42.167  15.983   0.868
41367W        W 6352  26.966  18.019  12.458
41368W        W 6353   1.492  12.574  11.627
41369W        W 6354  25.057  10.387  12.837
41370W        W 6355  39.799  25.341   0.341
41371W        W 6356   8.724  40.882   4.523
41372W        W 6357  10.157  16.137   4.196
41373W        W 6358  16.869   7.669   0.815
41374W        W 6359  12.654   8.043   1.888
41375W        W 6360  19.547   2.215  10.418
41376W        W 6361  43.448  21.959   3.188
41377W        W 6362  24.762   0.052  14.381
41378W        W 6363  17.441   9.242  14.774
41379W        W 6364  41.897  18.698   5.508
41380W        W 6365  41.048  28.042   1.484
41381W        W 6366  13.707  11.349   4.089
41382W        W 6367  11.779  41.897  12.949
41383W        W 6368  16.641  41.779   1.828
41384W        W 6369  44.806  43.301  10.498
41385W        W 6370  34.891  37.060  12.417
41386W        W 6371  22.980   7.644   3.944
41387W        W 6372  25.503  26.705  11.902
41388W        W 6373   4.990  25.534  13.511
41389W        W 6374  17.974  32.405  13.716
41390W        W 6375  37.885  38.838   4.491
41391W        W 6376   1.407  21.147   0.912
41392W        W 6377   0.176  38.489   2.380
41393W        W 6378  24.288   7.708   3.680
41394W        W 6379  26.989  36.610  14.316
41395W        W 6380  42.002  22.610   5.555
41396W        W 6381  35.810   1.772  12.082
41397W        W 6382  32.779  31.181  12.625
41398W        W 6383  43.828  36.544  10.361
41399W        W 6384  14.653  15.497   1.469
41400W        W 6385   2.022  20.411  13.907
41401W        W 6386  24.396   4.779  11.089
41402W        W 6387  19.619  38.968   1.307
41403W        W 6388  14.605   9.420   3.711
41404W        W 6389  28.034  43.123  14.430
41405W        W 6390  32.636  22.781   3.070
41406W        W 6391   9.163  10.909  11.103
41407W        W 6392  17.251  31.626   3.097
41408W        W 6393  17.005  36.989   4.594
41409W        W 6394   5.659  36.802  14.789
41410W        W 6395  19.454  22.978   0.006
41411W        W 6396   4.730  23.942  12.508
41412W        W 6397  41.299   9.285   0.806
41413W        W 6398  15.066   7.221  12.197
41414W        W 6399  17.833  21.136  14.047
41415W        W 6400  30.140  25.440  14.412
41416W        W 6401  14.778  19.005  11.123
41417W        W 6402  35.140  10.395  13.723
41418W        W 6403  16.788  36.993   3.094
41419W        W 6404  32.495   0.899   1.827
41420W        W 6405  15.480  37.393  11.175
41421W        W 6406   6.179  34.474  11.091
41422W        W 6407  15.069  43.780   4.073
41423W        W 6408  29.219  17.046   4.177
41424W        W 6409   6.755  33.352   3.637
41425W        W 6410  22.097  35.113   3.698
41426W        W 6411  12.992  30.490  14.014
41427W        W 6412  40.089  41.176   3.599
41428W        W 6413  13.286  13.610   1.730
41429W        W 6414  20.066  21.205   0.462
41430W        W 6415   1.659   7.306  12.876
41431W        W 6416   1.220  13.058   1.464
41432W        W 6417  41.409  42.809   1.268
41433W        W 6418  15.150   7.660   0.053
41434W        W 6419  20.214  30.486   3.584
41435W        W 6420  39.425  15.230  12.290
41436W        W 6421  40.876  18.802   4.019
41437W        W 6422  44.980  33.954   0.179
41438W        W 6423  33.173  19.155  13.766
41439W        W 6424  16.429   4.937  12.330
41440W        W 6425  42.826  27.098   4.105
41441W        W 6426  11.215  13.410  12.589
41442W        W 6427   4.354  15.488  10.575
41443W        W 6428  17.554  43.546  14.896
41444W        W 6429  17.822  36.064  11.887
41445W        W 6430  32.164  21.193  12.718
41446W        W 6431   1.990   8.919  10.898
41447W        W 6432  43.044  18.692   0.564
41448W        W 6433  43.834  24.537  11.499
41449W        W 6434  37.594  34.906   2.842
41450W        W 6435  44.339  28.919  10.166
41451W        W 6436  42.297  40.201   5.173
41452W        W 6437  27.970  19.237   2.294
41453W        W 6438  37.499  13.104  12.405
41454W        W 6439  10.613  27.749  10.613
41455W        W 6440  41.869  40.868  11.593
41456W        W 6441  42.037  41.288  13.867
41457W        W 6442  32.388  37.467   1.825
41458W        W 6443  39.236  22.549  14.758
41459W        W 6444  30.155   1.924   3.039
41460W        W 6445   0.312  23.468   1.975
41461W        W 6446  18.716   1.908  12.919
41462W        W 6447   5.078  12.411   4.269
41463W        W 6448  15.151  18.151   4.178
41464W        W 6449   8.224   9.841  12.616
41465W        W 6450  17.663  22.799  12.848
41466W        W 6451   1.287   0.410  10.396
41467W        W 6452  40.003   8.316   4.495
41468W        W 6453  38.642  25.289  14.935
41469W        W 6454  38.370  42.455  13.548
41470W        W 6455  21.668  17.683   4.085
41471W        W 6456  44.038  24.947   1.331
41472W        W 6457  25.148  17.304  11.979
41473W        W 6458  33.066  11.883  11.085
41474W        W 6459  20.754  33.036   2.423
41475W        W 6460  38.598  34.174   0.253
41476W        W 6461  31.027  20.647   0.933
41477W        W 6462  37.284   9.731   3.704
41478W        W 6463  28.444  14.148  13.613
41479W        W 6464  33.081  15.031   3.181
41480W        W 6465  26.608  27.089  14.411
41481W        W 6466  20.761  36.950   1.392
41482W        W 6467  21.192  38.909  11.569
41483W        W 6468  43.345  14.072   3.137
41484W        W 6469   2.744  30.980   3.289
41485W        W 6470  12.142  26.607   3.649
41486W        W 6471  41.160   8.621   2.621
41487W        W 6472   6.983   1.411  13.565
41488W        W 6473  32.934  10.617   0.131
41489W        W 6474  31.799  33.744   2.207
41490W        W 6475  36.328  22.737   5.001
41491W        W 6476  35.572   0.370   4.250
41492W        W 6477  36.374  37.092  14.325
41493W        W 6478  29.568   6.451   2.388
41494W        W 6479  43.939  15.338   4.236
41495W        W 6480  10.882  40.371  10.714
41496W        W 6481  19.780  30.391   4.858
41497W        W 6482  25.095  35.267   1.144
41498W        W 6483  23.158  16.807  10.725
41499W        W 6484  34.939  37.334  10.334
41500W        W 6485  13.812   1.967  14.036
41501W        W 6486  26.059  13.233   2.384
41502W        W 6487  24.439  14.630   3.698
41503W        W 6488   6.678  17.428   0.420
41504W        W 6489  32.195  19.054   0.503
41505W        W 6490  36.945   7.132  10.898
41506W        W 6491  23.014  22.699   0.757
41507W        W 6492   8.868   6.331   2.449
41508W        W 6493  17.591  43.462  11.045
41509W        W 6494  10.863  22.537  11.113
41510W        W 6495   8.328  26.107  10.741
41511W        W 6496  31.064   4.846   2.031
41512W        W 6497  24.257  21.136  12.926
41513W        W 6498  21.120  11.666   3.216
41514W        W 6499  44.039  20.790   4.264
41515W        W 6500  20.157  29.392   4.934
41516W        W 6501  23.696   1.206   0.317
41517W        W 6502  27.372   3.528   5.527
41518W        W 6503  26.352   7.748  10.750
41519W        W 6504   4.232  33.111   3.262
41520W        W 6505  40.784  35.674  13.868
41521W        W 6506  17.955   7.368   2.106
41522W        W 6507  22.690  12.338  14.851
41523W        W 6508   9.076  43.903  13.506
41524W        W 6509   7.452  34.663   4.583
41525W        W 6510  38.005  25.413   2.770
41526W        W 6511  19.553   5.002  12.886
41527W        W 6512  36.669  30.406   2.854
41528W        W 6513  20.289  42.108   4.171
41529W        W 6514  24.471  11.532   0.338
41530W        W 6515   6.960  24.020  13.864
41531W        W 6516  22.563  32.614   4.086
41532W        W 6517  16.179   8.397   4.608
41533W        W 6518   2.814  16.552  11.939
41534W        W 6519  35.600  18.009  11.166
41535W        W 6520  29.225  16.150   1.032
41536W        W 6521  43.304  29.878   3.734
41537W        W 6522  21.496  38.562  14.462
41538W        W 6523  43.032  29.093   2.191
41539W        W 6524  37.384  12.255  13.055
41540W        W 6525  19.092  13.764  14.486
41541W        W 6526  37.087  37.601   1.251
41542W        W 6527  25.509  14.248  11.346
41543W        W 6528  27.693   7.071   3.376
41544W        W 6529  32.965  33.263   2.883
41545W        W 6530  28.414   9.664   3.900
41546W        W 6531  37.948  27.753   2.778
41547W        W 6532  33.610   0.753  14.422
41548W        W 6533   3.404  22.849   0.417
41549W        W 6534   7.743   4.115  14.022
41550W        W 6535  39.274  23.449  13.818
41551W        W 6536  16.483  32.102   4.217
41552W        W 6537  24.439  36.357  14.681
41553W        W 6538  30.536  18.151   0.366
41554W        W 6539  16.050   1.380  13.927
41555W        W 6540  31.514   0.487   2.656
41556W        W 6541  36.972  34.377   1.735
41557W        W 6542   0.952   1.905  13.505
41558W        W 6543  33.999  30.201  11.597
41559W        W 6544  35.763  25.462   0.320
41560W        W 6545   8.300  17.481  12.548
41561W        W 6546  16.684  14.323   0.426
41562W        W 6547  29.524  31.793  11.977
41563W        W 6548  11.777  29.660  13.413
41564W        W 6549  15.225  41.279   1.871
41565W        W 6550  37.310  35.369  12.453
41566W        W 6551  42.509  32.391  13.337
41567W        W 6552  21.142  14.153  13.811
41568W        W 6553  33.961   4.931  12.977
41569W        W 6554  14.747  27.774   2.285
41570W        W 6555  25.701  37.528   1.652
41571W        W 6556  39.765  16.810  10.118
41572W        W 6557  32.963   2.015   2.252
41573W        W 6558  42.574  37.905   4.107
41574W        W 6559  14.548  26.720   0.613
41575W        W 6560  22.463   4.311  11.396
41576W        W 6561  10.356   8.991  14.373
41577W        W 6562  29.473   7.271   1.674
41578W        W 6563  44.521  13.746  14.347
41579W        W 6564  39.438  27.381   5.830
41580W        W 6565  11.896   3.642   1.330
41581W        W 6566  33.415  18.265  10.717
41582W        W 6567   7.761  33.641  11.047
41583W        W 6568  29.870  19.543   0.395
41584W        W 6569  15.592  23.526  13.316
41585W        W 6570  19.786  24.504  10.845
41586W        W 6571  41.466  41.301   2.824
41587W        W 6572  14.607  16.341  11.982
41588W        W 6573  10.726   5.617  12.020
41589W        W 6574  43.907   9.874   3.181
41590W        W 6575  26.711  37.562  10.595
41591W        W 6576  34.020  32.432   4.286
41592W        W 6577  39.852  27.024   0.261
41593W        W 6578  40.495  38.887   3.150
41594W        W 6579  15.608  32.988  10.397
41595W        W 6580   1.106  41.980  11.308
41596W        W 6581  21.194  23.126  11.418
41597W        W 6582  29.706  19.322   3.708
41598W        W 6583  31.596  27.968   3.693
41599W        W 6584  42.967  26.487  11.710
41600W        W 6585  35.071  15.891   4.032
41601W        W 6586  22.918   9.532  13.476
41602W        W 6587  22.139  14.194  14.522
41603W        W 6588  23.248  27.540   0.839
41604W        W 6589   8.660  17.606   2.250
41605W        W 6590  23.533  29.706   0.622
41606W        W 6591  14.077  27.854   1.525
41607W        W 6592  44.533  18.880  13.828
41608W        W 6593  19.992   4.431   1.303
41609W        W 6594  42.041  42.447   3.396
41610W        W 6595  24.864  10.707   3.208
41611W        W 6596  32.013  13.065  10.753
41612W        W 6597  19.577  33.290   2.439
41613W        W 6598  29.428   5.818  10.440
41614W        W 6599  24.637  20.286  11.492
41615W        W 6600  28.668  40.871   3.208
41616W        W 6601  14.188  22.050   2.784
41617W        W 6602  24.504  20.963   0.937
41618W        W 6603   4.453   9.285  10.927
41619W        W 6604  18.277  21.655   0.309
41620W        W 6605  44.977  20.480  12.597
41621W        W 6606  42.825  33.934   1.189
41622W        W 6607  27.752  31.359  12.462
41623W        W 6608   4.005  40.653   2.163
41624W        W 6609  44.747   1.397  12.186
41625W        W 6610   2.565   7.621  14.857
41626W        W 6611  44.565  44.338   2.623
41627W        W 6612  34.297   2.075   2.441
41628W        W 6613  42.455  17.078   0.916
41629W        W 6614  13.331  25.498   0.777
41630W        W 6615  24.699  24.787   2.305
41631W        W 6616   9.315   2.191   0.365
41632W        W 6617  38.496   7.321  12.328
41633W        W 6618  37.538  17.904  14.951
41634W        W 6619  20.090  34.470  10.666
41635W        W 6620  20.559   6.663   4.108
41636W        W 6621  34.003  27.025   2.544
41637W        W 6622  44.657  36.333   1.019
41638W        W 6623   5.667  12.813   2.859
41639W        W 6624  26.662  17.283  11.631
41640W        W 6625  25.446  16.799  14.782
41641W        W 6626  31.523  18.447  14.658
41642W        W 6627   3.350  14.534   5.063
41643W        W 6628   7.924   4.723   0.715
41644W        W 6629  21.090  12.123  11.570
41645W        W 6630  26.665  43.742   3.819
41646W        W 6631  13.640  29.920   2.543
41647W        W 6632  35.165   8.601   3.485
41648W        W 6633  14.840  22.152  12.094
41649W        W 6634   2.304  29.348  13.435
41650W        W 6635   5.809  15.758   3.991
41651W        W 6636  20.707  13.881  13.901
41652W        W 6637   2.987   1.384   4.576
41653W        W 6638  11.849   0.996   0.338
41654W        W 6639  34.635   8.838   3.048
41655W        W 6640   7.949  21.207  13.629
41656W        W 6641  42.930   3.981   4.196
41657W        W 6642  20.088  35.139   4.943
41658W        W 6643   0.345   4.476  14.473
41659W        W 6644  21.181   8.138  11.343
41660W        W 6645  38.446  33.427   0.437
41661W        W 6646  14.080  21.104   2.378
41662W        W 6647  18.654  41.267  14.294
41663W        W 6648  31.529   1.428   4.162
41664W        W 6649  24.370  40.931  11.209
41665W        W 6650  17.006   0.295   4.559
41666W        W 6651  24.533  24.200  14.013
41667W        W 6652  28.658  26.682  11.540
41668W        W 6653  19.385  42.394  12.249
41669W        W 6654  37.280  36.723   1.671
41670W        W 6655   4.988  27.857   1.413
41671W        W 6656  23.769  41.089  13.001
41672W        W 6657  29.535  16.960  10.740
41673W        W 6658   7.559  18.824  11.585
41674W        W 6659  11.951   1.731   1.927
41675W        W 6660   0.747  42.244  11.576
41676W        W 6661  38.457  16.753   1.808
41677W        W 6662  21.413  37.045  12.489
41678W        W 6663  35.946  39.085   3.358
41679W        W 6664  10.707  13.611   4.135
41680W        W 6665  31.208   3.989  10.971
41681W        W 6666  20.452  22.752   2.394
41682W        W 6667  37.307  36.865   5.262
41683W        W 6668   7.715  15.776  10.405
41684W        W 6669   8.450  37.045  10.963
41685W        W 6670  23.624  19.390   0.043
41686W        W 6671  38.567  11.922  11.264
41687W        W 6672  26.533  42.765  12.125
41688W        W 6673  10.921   8.430   3.782
41689W        W 6674   0.992  27.838   4.132
41690W        W 6675  28.634  18.355  10.584
41691W        W 6676  29.555  15.121   4.738
41692W        W 6677  23.802  21.825   4.042
41693W        W 6678   4.718   7.337   4.231
41694W        W 6679   5.659   5.163  12.960
41695W        W 6680  12.281  32.428  12.136
41696W        W 6681   0.894  11.592  14.415
41697W        W 6682  13.330  27.504   3.672
41698W        W 6683  28.155  44.816   1.738
41699W        W 6684   2.208  11.362  12.412
41700W        W 6685  35.310  11.064   4.041
41701W        W 6686  40.105  26.034  12.100
41702W        W 6687  15.137  39.848  13.524
41703W        W 6688  11.952  30.596  10.033
41704W        W 6689   8.506   5.898  12.041
41705W        W 6690  40.907  28.052  14.412
41706W        W 6691  27.758  15.811  13.415
41707W        W 6692  26.236  12.781  13.369
41708W        W 6693  35.967  32.057  13.932
41709W        W 6694  22.468  40.981   2.663
41710W        W 6695   8.114  27.185  14.941
41711W        W 6696  37.080  32.961   4.558
41712W        W 6697   9.324  14.711   4.789
41713W        W 6698   3.704  28.701   2.250
41714W        W 6699  22.930  21.444  12.944
41715W        W 6700  42.528  30.647  13.626
41716W        W 6701   2.274   0.990   2.411
41717W        W 6702  37.033  34.782   4.104
41718W        W 6703  15.229  23.679   4.125
41719W        W 6704  27.071  38.102   0.935
41720W        W 6705  21.974  41.424  11.460
41721W        W 6706  30.662  22.421   2.346
41722W        W 6707  22.612  31.994   1.828
41723W        W 6708   5.883  39.593  12.444
41724W        W 6709  24.913  22.118  14.468
41725W        W 6710  21.299  37.565  12.421
41726W        W 6711   8.674  23.745   1.232
41727W        W 6712  17.090  23.729   0.839
41728W        W 6713  33.939  40.987  14.322
41729W        W 6714  30.077  32.986  10.662
41730W        W 6715  24.183  43.450   2.471
41731W        W 6716  19.043  27.571  10.984
41732W        W 6717  17.066   4.269  10.489
41733W        W 6718   6.840  19.722  14.211
41734W        W 6719  22.946   9.996   3.294
41735W        W 6720  38.305  35.701   5.722
41736W        W 6721   0.298  26.234  10.927
41737W        W 6722  41.030  33.806   9.663
41738W        W 6723  42.335  37.619   0.029
41739W        W 6724  44.760  15.501   1.822
41740W        W 6725   0.406  30.528  13.988
41741W        W 6726  31.262   4.222   1.851
41742W        W 6727  18.737   3.338   3.422
41743W        W 6728  29.051   9.815   1.048
41744W        W 6729  17.822   1.267  14.359
41745W        W 6730  34.340  20.541  13.539
41746W        W 6731  17.686  23.556   2.415
41747W        W 6732  26.484   3.499   1.483
41748W        W 6733  41.370   8.893   4.713
41749W        W 6734  29.184  14.069   3.228
41750W        W 6735  29.922  17.048  14.001
41751W        W 6736  37.730   4.457  12.880
41752W        W 6737  32.199   6.388   1.768
41753W        W 6738  24.629  44.620   4.640
41754W        W 6739  40.622  26.152  13.410
41755W        W 6740  19.599  23.109  12.156
41756W        W 6741  44.615  27.551   5.144
41757W        W 6742  14.583  39.483   1.882
41758W        W 6743  40.383   8.109  13.603
41759W        W 6744   5.338  14.097  10.418
41760W        W 6745   7.181  43.014   1.830
41761W        W 6746  35.630  39.943  12.465
41762W        W 6747   3.635  32.608  13.913
41763W        W 6748  39.029  13.564   3.140
41764W        W 6749  27.278  22.144   3.760
41765W        W 6750  40.542   7.233  11.127
41766W        W 6751  34.698   7.108  11.052
41767W        W 6752  13.460  21.834  10.654
41768W        W 6753  42.388  12.634  14.925
41769W        W 6754  30.207   4.817   1.342
41770W        W 6755   2.939  38.093   4.229
41771W        W 6756  24.607  20.217  12.595
41772W        W 6757  20.114  29.205   2.537
41773W        W 6758  28.412  31.247   0.915
41774W        W 6759  28.616  11.182   4.151
41775W        W 6760  19.186   3.183  12.238
41776W        W 6761  15.075   8.101   3.135
41777W        W 6762   1.448  44.555  10.712
41778W        W 6763  12.702  12.934   0.004
41779W        W 6764  23.566  25.576  14.251
41780W        W 6765   8.281  40.440   2.370
41781W        W 6766  15.784  26.119   0.010
41782W        W 6767  38.547  11.316   3.178
41783W        W 6768  20.539  26.782   3.277
41784W        W 6769  28.673  23.170   1.959
41785W        W 6770  40.508   2.308  11.378
41786W        W 6771   3.584   3.490   3.213
41787W        W 6772  34.582   8.081   2.877
41788W        W 6773   4.079  15.201   3.569
41789W        W 6774  43.761   7.046   4.160
41790W        W 6775  39.876  25.055   1.007
41791W        W 6776  16.318  38.861  11.604
41792W        W 6777   4.611  42.561   2.457
41793W        W 6778   2.909   5.815   3.222
41794W        W 6779  37.604  14.513  14.389
41795W        W 6780   5.942  19.750  11.654
41796W        W 6781  17.331  35.978  10.157
41797W        W 6782  21.311   5.046  12.635
41798W        W 6783  16.092  19.771   2.262
41799W        W 6784  39.332   0.920   0.948
41800W        W 6785  19.132  18.062  12.076
41801W        W 6786  19.568  10.918  13.825
41802W        W 6787   9.333  27.968   3.349
41803W        W 6788  20.265  33.135  10.495
41804W        W 6789  19.498  42.078  10.755
41805W        W 6790  25.549  20.238   0.399
41806W        W 6791  16.089   2.373   1.837
41807W        W 6792   4.917  37.677   5.128
41808W        W 6793  15.136  40.303  11.039
41809W        W 6794  31.007  40.773  14.540
41810W        W 6795  20.634  21.694  14.422
41811W        W 6796  32.887  43.363   4.090
41812W        W 6797   9.038   7.169   2.733
41813W        W 6798  14.813  30.943  12.204
41814W        W 6799  31.468  12.689   4.350
41815W        W 6800  18.525   5.778  12.541
41816W        W 6801  33.329   5.587   0.944
41817W        W 6802  24.309  14.856  11.580
41818W        W 6803  39.351  31.621  11.944
41819W        W 6804   4.462  33.917  11.134
41820W        W 6805  25.577  10.506  10.664
41821W        W 6806  12.638  33.819   1.280
41822W        W 6807  29.311  29.093   2.258
41823W        W 6808  34.161  41.033  14.788
41824W        W 6809  17.602  11.544  13.279
41825W        W 6810   9.989  40.928   0.241
41826W        W 6811   0.015  15.302   2.276
41827W        W 6812  14.808  13.787  10.729
41828W        W 6813  36.892  33.036   1.657
41829W        W 6814  38.609  24.527  13.477
41830W        W 6815  18.170  15.578  11.460
41831W        W 6816  36.588  19.258  11.824
41832W        W 6817  14.834   5.500   3.650
41833W        W 6818  12.925  30.920   2.657
41834W        W 6819  27.994  43.729   1.730
41835W        W 6820  32.984  39.517  11.917
41836W        W 6821  34.435  16.763   2.450
41837W        W 6822   1.241   0.141   2.931
41838W        W 6823  11.892   1.969   1.440
41839W        W 6824  31.914  22.219   4.761
41840W        W 6825  32.995  23.290  12.829
41841W        W 6826   2.793  36.046   1.308
41842W        W 6827   3.477  34.203   0.995
41843W        W 6828  32.257  44.658  11.199
41844W        W 6829  37.586  29.064  12.289
41845W        W 6830  33.244  41.938  14.436
41846W        W 6831  10.750  40.722   2.211
41847W        W 6832  39.166  40.482   3.103
41848W        W 6833  32.935  24.506   4.918
41849W        W 6834   0.317  30.601   2.865
41850W        W 6835   8.768  38.297  11.442
41851W        W 6836   1.617   8.260   4.060
41852W        W 6837   1.396  40.573   3.126
41853W        W 6838   9.465  41.016   0.325
41854W        W 6839  32.239  38.240   0.250
41855W        W 6840  28.256  30.053   1.184
41856W        W 6841  37.420   7.016  12.590
41857W        W 6842  25.071  36.454   2.046
41858W        W 6843  31.837  38.312   1.853
41859W        W 6844  13.669   2.849   2.413
41860W        W 6845  35.588   5.393   2.700
41861W        W 6846  23.482   1.728  10.648
41862W        W 6847  33.451  20.541   4.814
41863W        W 6848   4.184  31.993  12.186
41864W        W 6849  15.759  29.967   3.376
41865W        W 6850  33.112  38.597   0.605
41866W        W 6851  22.036  30.926   1.866
41867W        W 6852  15.251  30.161  12.155
41868W        W 6853  19.178  40.120   0.539
41869W        W 6854  12.323  38.865   2.268
41870W        W 6855  24.484  29.468   1.768
41871W        W 6856  23.857  23.391  11.656
41872W        W 6857  12.199  11.348   0.448
41873W        W 6858   2.694   6.353  11.566
41874W        W 6859  10.690  35.578   3.698
41875W        W 6860   9.612   5.644  13.450
41876W        W 6861   4.010  27.392   0.800
41877W        W 6862   4.010  44.483   1.398
41878W        W 6863  17.086   6.313   0.498
41879W        W 6864  35.857   2.441   3.183
41880W        W 6865  24.387  30.922   1.896
41881W        W 6866  43.649  16.679  10.780
41882W        W 6867   8.434  14.614   1.322
41883W        W 6868   5.722   8.510  14.272
41884W        W 6869   2.318  38.392  11.527
41885W        W 6870  41.362  27.504  11.089
41886W        W 6871  36.514  37.625  11.018
41887W        W 6872  17.751  43.668   0.360
41888W        W 6873  28.485   9.226  13.438
41889W        W 6874  12.165  30.135  10.724
41890W        W 6875   0.105  37.985   3.736
41891W        W 6876   7.871  33.882   3.671
41892W        W 6877  24.728   4.340   3.135
41893W        W 6878  20.243  27.662  14.704
41894W        W 6879  41.665  27.697   0.530
41895W        W 6880  15.969  20.726   9.909
41896W        W 6881  19.621  25.013  14.212
41897W        W 6882   0.986  24.154   3.555
41898W        W 6883  24.258  21.219   4.127
41899W        W 6884  35.623  44.247   3.557
41900W        W 6885   2.111   0.059  10.713
41901W        W 6886  12.772  36.577  13.915
41902W        W 6887  27.160  31.028   0.433
41903W        W 6888  41.441  12.755  11.211
41904W        W 6889   8.331  28.217   1.428
41905W        W 6890  29.686  42.986   4.237
41906W        W 6891  33.061  35.083  10.968
41907W        W 6892  10.683  20.261   4.468
41908W        W 6893  35.268  21.087  14.287
41909W        W 6894   3.136   2.286   1.739
41910W        W 6895  17.151  17.168  14.916
41911W        W 6896  30.724  29.555   4.550
41912W        W 6897  28.526  35.003  12.436
41913W        W 6898  27.860  24.165   3.296
41914W        W 6899   2.994  34.316   0.889
41915W        W 6900  37.137  40.002  14.355
41916W        W 6901  38.946   4.958   0.862
41917W        W 6902  11.210  13.734  10.695
41918W        W 6903   1.979  13.415   1.710
41919W        W 6904  38.347  38.099   0.440
41920W        W 6905  21.885  32.819  11.466
41921W        W 6906  23.138   4.044   5.580
41922W        W 6907  16.288  30.473   0.690
41923W        W 6908  15.950   2.917  11.626
41924W        W 6909  16.884   1.462  14.544
41925W        W 6910  17.188  33.834  13.616
41926W        W 6911   4.155  26.362  12.998
41927W        W 6912  16.357  27.713   4.334
41928W        W 6913  43.414  33.596   2.685
41929W        W 6914  20.169  23.741   1.190
41930W        W 6915   6.768   2.793   0.329
41931W        W 6916  32.496  36.478  12.132
41932W        W 6917  22.607  20.216   4.168
41933W        W 6918  34.058  13.604  12.859
41934W        W 6919  17.265  20.210  12.869
41935W        W 6920  35.111   6.400  13.610
41936W        W 6921  20.370  11.676   1.694
41937W        W 6922   2.725  16.660  11.448
41938W        W 6923   0.421  23.502  14.519
41939W        W 6924  36.321  19.575   0.179
41940W        W 6925  23.918  28.481  10.268
41941W        W 6926  28.908  19.226   1.870
41942W        W 6927  19.966   3.593   3.215
41943W        W 6928  34.467  17.270   2.580
41944W        W 6929  23.725  34.446   3.639
41945W        W 6930  32.179  18.222   3.106
41946W        W 6931  28.448  30.626  13.359
41947W        W 6932  27.105   1.882   2.797
41948W        W 6933  43.482  32.997   4.540
41949W        W 6934  18.922  17.278   2.698
41950W        W 6935   9.226  32.474   0.036
41951W        W 6936  37.991  14.182   4.565
41952W        W 6937  20.999  27.551   4.656
41953W        W 6938  33.563   5.516  11.037
41954W        W 6939   4.845  29.628  11.455
41955W        W 6940  16.312  37.488  12.922
41956W        W 6941   3.897  16.762   1.877
41957W        W 6942  21.870  38.127  14.525
41958W        W 6943  39.539  24.453  11.019
41959W        W 6944   1.362  22.549   0.227
41960W        W 6945  39.935  36.373   2.907
41961W        W 6946   6.908  41.744   3.649
41962W        W 6947   4.019  28.827   4.712
41963W        W 6948  42.244  15.047   1.789
41964W        W 6949  29.217  13.789   0.441
41965W        W 6950   7.853  40.739  10.855
41966W        W 6951  28.650  11.541   0.827
41967W        W 6952  42.973   4.413   1.505
41968W        W 6953  23.437  29.180  11.751
41969W        W 6954  34.114  37.533   1.399
41970W        W 6955  17.490  15.200  12.935
41971W        W 6956  27.281  27.529  11.396
41972W        W 6957   8.660  27.928   3.512
41973W        W 6958   9.493  41.401   3.316
41974W        W 6959  22.636  21.584   3.253
41975W        W 6960  34.927  31.708  13.872
41976W        W 6961  38.874  13.819  12.903
41977W        W 6962   0.373  32.551   3.771
41978W        W 6963  44.579  21.657   1.073
41979W        W 6964   4.482  23.529   0.860
41980W        W 6965  12.703  30.822  13.758
41981W        W 6966  21.859  12.793  14.523
41982W        W 6967   8.215  40.491   0.320
41983W        W 6968  27.008  12.292   4.429
41984W        W 6969   8.851  29.117  12.101
41985W        W 6970  36.890  13.607  14.579
41986W        W 6971  41.303  44.229   0.511
41987W        W 6972  29.849  37.818  11.531
41988W        W 6973  32.582  29.040  11.163
41989W        W 6974  25.936  41.358   0.420
41990W        W 6975  33.658  27.480  13.886
41991W        W 6976   6.868   9.269   1.406
41992W        W 6977  43.988  38.908   1.044
41993W        W 6978  13.382   9.493  11.221
41994W        W 6979  36.320  23.792  13.026
41995W        W 6980   7.888  34.359   4.499
41996W        W 6981   5.677  25.042   0.938
41997W        W 6982  42.721  43.807  13.030
41998W        W 6983  10.974  43.928  11.955
41999W        W 6984  32.832  41.064   2.610
42000W        W 6985   8.660  30.473  12.229
42001W        W 6986  30.532  24.910   2.268
42002W        W 6987  34.004  34.133   0.846
42003W        W 6988  25.667  21.761   0.483
42004W        W 6989  27.905  40.854   4.266
42005W        W 6990   3.895  29.472  11.006
42006W        W 6991  34.740  32.601  12.162
42007W        W 6992   9.343  28.493   1.176
42008W        W 6993   6.621   4.930  14.446
42009W        W 6994  43.127  11.027   2.818
42010W        W 6995  14.747  40.104   2.559
42011W        W 6996  30.916  21.564  10.396
42012W        W 6997  25.149   6.643   4.741
42013W        W 6998  20.875   4.412   0.762
42014W        W 6999  27.557  34.965  11.428
42015W        W 7000  27.902  15.665   4.458
42016W        W 7001  36.365  44.425   0.501
42017W        W 7002  16.994  14.537   4.217
42018W        W 7003   3.771   9.120   4.541
42019W        W 7004   9.275   2.405  12.625
42020W        W 7005   9.259  24.564   4.626
42021W        W 7006  41.092  34.850  11.381
42022W        W 7007  10.940  42.249   2.277
42023W        W 7008  30.707   4.880   1.215
42024W        W 7009  31.978   2.531   1.389
42025W        W 7010   5.919  14.220   2.301
42026W        W 7011  40.881  16.083  14.379
42027W        W 7012  11.889  25.957   2.318
42028W        W 7013  12.099  35.811  11.969
42029W        W 7014  11.553  12.943  11.942
42030W        W 7015   0.863  14.101  10.741
42031W        W 7016  27.592  29.036   3.181
42032W        W 7017  28.173  31.925  11.128
42033W        W 7018  20.711  34.154   5.016
42034W        W 7019   3.582  43.817  12.946
42035W        W 7020  14.548  24.176   2.749
42036W        W 7021  29.543  14.592   4.691
42037W        W 7022   3.163   4.791  13.089
42038W        W 7023  44.360  26.939  13.470
42039W        W 7024  38.429   3.343  11.558
42040W        W 7025   0.339   1.396  10.928
42041W        W 7026  37.903   7.485  11.121
42042W        W 7027  42.479  37.136  14.992
42043W        W 7028  27.766  10.797   3.834
42044W        W 7029  19.513  31.073   2.128
42045W        W 7030  34.274  27.320  11.120
42046W        W 7031  39.341  21.716   4.962
42047W        W 7032  34.218  14.610   0.233
42048W        W 7033  28.545  43.264  14.479
42049W        W 7034   6.604   7.486   1.331
42050W        W 7035  18.008  15.186  11.167
42051W        W 7036   1.848   8.552   4.884
42052W        W 7037  31.670   5.765   0.246
42053W        W 7038  32.460  33.368   2.790
42054W        W 7039  11.580  33.824  11.234
42055W        W 7040  22.279  32.445  11.411
42056W        W 7041   0.780  33.307  11.005
42057W        W 7042  16.353   2.864  13.956
42058W        W 7043  32.431  28.571  12.817
42059W        W 7044  19.464   3.137   1.402
42060W        W 7045  35.777  24.711  12.569
42061W        W 7046   1.541   7.080  11.580
42062W        W 7047   7.019  38.439   1.107
42063W        W 7048  23.164   9.962  12.906
42064W        W 7049   4.362  20.876  13.842
42065W        W 7050   2.032   9.310   3.210
42066W        W 7051   3.830  22.599   2.071
42067W        W 7052   8.615  36.030   4.603
42068W        W 7053  38.788  38.112   1.252
42069W        W 7054  18.378  35.303   3.116
42070W        W 7055  10.350  35.706   2.654
42071W        W 7056  39.231  39.416  12.594
42072W        W 7057   5.859   7.250  14.900
42073W        W 7058  39.302  31.651   3.324
42074W        W 7059  38.598  33.548  13.865
42075W        W 7060  12.225  35.570  13.352
42076W        W 7061  27.149   7.827  12.477
42077W        W 7062   9.499  38.410   2.706
42078W        W 7063  14.616   3.850  11.963
42079W        W 7064  18.745  35.895  11.438
42080W        W 7065  22.310  44.744  13.837
42081W        W 7066  25.593   2.699   2.758
42082W        W 7067  13.174  25.673  10.511
42083W        W 7068  14.143   7.217  12.175
42084W        W 7069  19.771  23.888   5.012
42085W        W 7070  15.107  26.414  11.011
42086W        W 7071   2.805  42.738   3.152
42087W        W 7072  18.128  42.923  12.367
42088W        W 7073   6.687  20.730  14.486
42089W        W 7074  14.815  30.101  11.166
42090W        W 7075  36.877  11.667   4.085
42091W        W 7076  13.153  19.305  10.733
42092W        W 7077   5.945  22.508   1.202
42093W        W 7078  21.597  42.339   2.509
42094W        W 7079  19.553  38.591   1.836
42095W        W 7080  22.584  38.243   4.440
42096W        W 7081   6.840  40.714  12.518
42097W        W 7082  11.566  13.931   3.104
42098W        W 7083   9.413  23.124   4.822
42099W        W 7084   4.997  44.392   3.218
42100W        W 7085  35.475  28.124   2.879
42101W        W 7086   9.654  25.734  14.967
42102W        W 7087  10.115   0.480  12.587
42103W        W 7088  41.212   7.784   3.686
42104W        W 7089  20.775   5.764   4.204
42105W        W 7090  19.260  18.729   1.056
42106W        W 7091  16.159  26.078   0.932
42107W        W 7092  38.622  25.136  13.114
42108W        W 7093  40.540  10.654  11.660
42109W        W 7094   8.795  22.216  13.559
42110W        W 7095  43.770  33.217   2.634
42111W        W 7096  17.313  31.370   2.272
42112W        W 7097  12.089  28.753  10.221
42113W        W 7098  37.945  37.376  14.328
42114W        W 7099  33.915  44.669  12.425
42115W        W 7100   8.127  33.578   4.048
42116W        W 7101   3.963  15.834  10.672
42117W        W 7102   6.678  21.524   4.335
42118W        W 7103  28.526  40.756   0.672
42119W        W 7104  38.296  11.740   3.056
42120W        W 7105  24.443  33.401  14.367
42121W        W 7106  14.615  33.550   3.566
42122W        W 7107  18.137   4.220  11.521
42123W        W 7108  14.895  38.969  12.660
42124W        W 7109  22.137  32.521  13.454
42125W        W 7110   4.854   6.905   3.963
42126W        W 7111  33.844  10.871   0.519
42127W        W 7112  33.033  15.615  11.496
42128W        W 7113  37.633  21.799  13.305
42129W        W 7114  18.984  39.026   0.690
42130W        W 7115  40.075  24.613   0.788
42131W        W 7116  14.208  28.764  10.579
42132W        W 7117  14.703  14.244   4.041
42133W        W 7118  18.361   7.132  12.462
42134W        W 7119  17.738  41.810   1.784
42135W        W 7120  28.031  15.549   0.270
42136W        W 7121  43.499  27.691   4.207
42137W        W 7122  44.543   2.895   1.057
42138W        W 7123   3.415  16.382   0.920
42139W        W 7124  36.027  15.812   2.193
42140W        W 7125   3.861  27.145   3.115
42141W        W 7126  15.976  38.820   2.842
42142W        W 7127  12.033  20.934   0.262
42143W        W 7128  25.098  25.373  10.687
42144W        W 7129  16.239  42.381  12.103
42145W        W 7130  39.003  25.629  14.168
42146W        W 7131  43.309  32.096   4.382
42147W        W 7132  27.432  32.885  13.602
42148W        W 7133  22.044   7.289  12.028
42149W        W 7134  44.067  37.868   4.549
42150W        W 7135   0.306  42.787   4.521
42151W        W 7136  11.691  28.160  14.363
42152W        W 7137  26.659  18.546   3.588
42153W        W 7138  32.547  36.898  12.422
42154W        W 7139  25.999   9.480   3.624
42155W        W 7140  35.293  39.463   4.241
42156W        W 7141   7.622  37.943   0.364
42157W        W 7142  34.454  39.811   1.820
42158W        W 7143  23.753  10.749  10.745
42159W        W 7144  44.437   0.546  10.767
42160W        W 7145   7.655   7.924  13.774
42161W        W 7146   0.012  16.590  14.956
42162W        W 7147   8.354   7.081  12.424
42163W        W 7148  10.291  24.683   0.732
42164W        W 7149   4.368   8.699   0.726
42165W        W 7150   5.691   0.273   3.728
42166W        W 7151  16.894  37.584   9.828
42167W        W 7152  21.954  18.873   3.629
42168W        W 7153  29.927   4.503  12.114
42169W        W 7154   4.739  36.459  11.129
42170W        W 7155   2.475  32.524  11.612
42171W        W 7156  23.494  38.444  10.793
42172W        W 7157  42.489  15.091  10.993
42173W        W 7158  20.666  12.658   4.553
42174W        W 7159  28.495  36.470  13.193
42175W        W 7160  35.386  29.959  13.067
42176W        W 7161   9.566   3.922  11.550
42177W        W 7162   9.425   2.873   2.314
42178W        W 7163  16.299  34.896   1.144
42179W        W 7164  36.612  25.455   1.351
42180W        W 7165   9.680  19.694  13.351
42181W        W 7166  10.181   3.034   3.362
42182W        W 7167  44.412   2.468  10.592
42183W        W 7168  18.209  12.325   3.308
42184W        W 7169  19.243  28.526   5.542
42185W        W 7170  20.767  22.565  12.023
42186W        W 7171   9.964   6.694  12.528
42187W        W 7172  23.424  30.077   2.147
42188W        W 7173  33.331  18.013  10.192
42189W        W 7174  30.067   5.595  14.451
42190W        W 7175  22.066  26.487  10.471
42191W        W 7176  39.964  10.734  11.195
42192W        W 7177  22.537  38.947   1.947
42193W        W 7178  26.211  22.105  12.193
42194W        W 7179  40.310  11.120   1.341
42195W        W 7180  13.321  44.719   2.279
42196W        W 7181  21.315   0.024   1.865
42197W        W 7182  34.569  34.114   2.396
42198W        W 7183  28.830  15.100  13.836
42199W        W 7184  43.342  44.084  14.006
42200W        W 7185   7.664  16.966  12.994
42201W        W 7186  19.743   0.941   2.261
42202W        W 7187  28.452  30.077  14.392
42203W        W 7188  33.131  20.021   3.668
42204W        W 7189  10.668   2.048  13.678
42205W        W 7190  17.114  20.216   4.616
42206W        W 7191  18.736  16.519  12.349
42207W        W 7192   7.409  31.442   2.573
42208W        W 7193   3.714  44.165   4.154
42209W        W 7194  22.722  15.218  12.023
42210W        W 7195  30.681  16.689   4.219
42211W        W 7196   7.372  17.597  14.955
42212W        W 7197  15.595  15.760   2.336
42213W        W 7198   0.346   6.527   3.398
42214W        W 7199  18.179   2.691  12.873
42215W        W 7200  21.848   0.468   3.940
42216W        W 7201  25.176   9.398  10.700
42217W        W 7202  35.406  11.398   0.381
42218W        W 7203  15.340  19.587   2.647
42219W        W 7204  33.722  13.842  10.975
42220W        W 7205  27.015  39.530   0.983
42221W        W 7206  14.056  33.062  11.138
42222W        W 7207  12.561  27.539   1.500
42223W        W 7208  24.164  26.669  13.982
42224W        W 7209  10.281  40.233  11.876
42225W        W 7210  12.386  28.171  13.035
42226W        W 7211   2.309  26.084   4.186
42227W        W 7212  31.797  43.554   1.613
42228W        W 7213  30.794  21.984  13.472
42229W        W 7214  16.485  34.130   2.128
42230W        W 7215  15.673  25.433   4.957
42231W        W 7216   5.396  28.553   4.527
42232W        W 7217  41.024  19.422  12.546
42233W        W 7218  29.658  27.942   2.766
42234W        W 7219  22.957  15.782  10.705
42235W        W 7220  28.996  19.169  14.337
42236W        W 7221  30.347  22.166   0.980
42237W        W 7222  16.067  29.103   2.173
42238W        W 7223  27.547   9.206   1.013
42239W        W 7224  12.352  35.846  13.816
42240W        W 7225   3.955   7.810   4.082
42241W        W 7226   4.796  29.726   2.807
42242W        W 7227  29.323  31.188  14.090
42243W        W 7228  35.712  29.519   4.172
42244W        W 7229  28.650  33.410   1.295
42245W        W 7230  39.950  26.654  13.483
42246W        W 7231  30.641  19.276   1.380
42247W        W 7232  28.448  24.530  12.435
42248W        W 7233   4.927  40.989  11.410
42249W        W 7234   3.398  33.679  10.431
42250W        W 7235  19.200  39.927   1.878
42251W        W 7236  42.683  22.595  14.573
42252W        W 7237  11.819  23.234   1.435
42253W        W 7238  39.887  30.099  14.256
42254W        W 7239  33.568   9.443   0.769
42255W        W 7240  36.618   9.612   3.246
42256W        W 7241   4.444  25.034  11.933
42257W        W 7242  37.204  21.114  11.038
42258W        W 7243  29.309  42.865   5.087
42259W        W 7244  38.317   1.991  10.615
42260W        W 7245  40.401  44.129  13.970
42261W        W 7246  24.685  26.957   3.398
42262W        W 7247  21.601  37.682  13.846
42263W        W 7248  42.446  10.925   2.214
42264W        W 7249  20.282  30.585  14.938
42265W        W 7250  35.556  22.540  14.673
42266W        W 7251   1.877  15.233   1.948
42267W        W 7252  20.567  32.162  11.193
42268W        W 7253  20.954  34.118  10.614
42269W        W 7254   0.994  17.109   0.445
42270W        W 7255  44.232  30.508  10.430
42271W        W 7256  29.540  18.675  10.682
42272W        W 7257  39.738  23.470  11.122
42273W        W 7258   9.238  34.604   1.366
42274W        W 7259  19.972  31.037  11.607
42275W        W 7260  21.503   6.893  12.605
42276W        W 7261  23.054   2.986   3.924
42277W        W 7262  11.709  13.314  14.522
42278W        W 7263  34.781  18.117  10.707
42279W        W 7264   5.951  40.686  10.799
42280W        W 7265  34.388  23.645   4.242
42281W        W 7266  33.531  14.280   1.269
42282W        W 7267   4.662  23.619  12.993
42283W        W 7268  42.407  16.236  12.086
42284W        W 7269  23.210  10.063  14.528
42285W        W 7270  41.337   9.899   3.018
42286W        W 7271  41.251   0.249   3.414
42287W        W 7272   5.815  16.122  12.881
42288W        W 7273  23.230  16.233  10.694
42289W        W 7274   0.076  22.637  12.042
42290W        W 7275  44.062   8.449  11.762
42291W        W 7276  29.675  35.907  12.963
42292W        W 7277  43.349  20.543  14.518
42293W        W 7278  22.602  13.180   3.271
42294W        W 7279   3.424  43.448  13.289
42295W        W 7280  25.272  20.037   2.173
42296W        W 7281  21.776  29.602   1.991
42297W        W 7282  17.506   3.357  12.156
42298W        W 7283   3.105  35.644  11.184
42299W        W 7284  16.644  39.727  14.487
42300W        W 7285   8.698   2.422   3.190
42301W        W 7286  44.707   1.620  13.086
42302W        W 7287  24.201  23.027  10.939
42303W        W 7288  13.052   4.160   2.878
42304W        W 7289   1.396  36.533   2.700
42305W        W 7290  44.800  14.680   0.760
42306W        W 7291  16.554  22.363  12.977
42307W        W 7292  38.522   5.719   0.710
42308W        W 7293  36.855   0.001  12.242
42309W        W 7294  42.242  24.422   3.158
42310W        W 7295  25.624   5.907   1.820
42311W        W 7296  27.630  12.889  13.926
42312W        W 7297  29.154   4.035  11.621
42313W        W 7298  38.883  18.223  14.832
42314W        W 7299   1.951   9.599  14.295
42315W        W 7300   8.823  30.831   4.911
42316W        W 7301  22.606  41.324  12.570
42317W        W 7302  36.825  18.232  13.792
42318W        W 7303  18.521  38.465   4.603
42319W        W 7304  14.705  20.239   0.445
42320W        W 7305  25.885  18.187   3.759
42321W        W 7306  10.834  41.613  14.414
42322W        W 7307  13.580  26.757  13.569
42323W        W 7308   3.958   3.190  11.513
42324W        W 7309   0.472  21.540  14.013
42325W        W 7310  34.619  20.222  11.980
42326W        W 7311  34.686  35.008  13.848
42327W        W 7312  38.588  22.494   1.217
42328W        W 7313  11.862  35.674  13.850
42329W        W 7314  18.032   8.298  12.485
42330W        W 7315  22.473  16.191   1.365
42331W        W 7316  42.852  24.183  14.402
42332W        W 7317  32.296  11.961  13.022
42333W        W 7318  23.519  24.771   2.708
42334W        W 7319  11.799  13.342   0.439
42335W        W 7320  11.285  32.936   4.548
42336W        W 7321  43.710  28.051   1.479
42337W        W 7322   3.420  39.435  12.269
42338W        W 7323  38.259  13.944   2.441
42339W        W 7324  39.869   2.678   3.283
42340W        W 7325  35.400  25.145   1.328
42341W        W 7326  40.489  10.143  10.507
42342W        W 7327   0.198  36.367  10.406
42343W        W 7328   6.833   0.207   2.018
42344W        W 7329   3.700  31.556  13.844
42345W        W 7330  22.804  10.087   2.771
42346W        W 7331  23.668  44.331   0.709
42347W        W 7332   5.746  41.285   2.857
42348W        W 7333  26.622   9.990  10.806
42349W        W 7334  21.634   3.931   2.955
42350W        W 7335  39.783  42.133  10.621
42351W        W 7336  34.874  23.175   4.910
42352W        W 7337  44.311   5.681   0.785
42353W        W 7338  27.635  21.720   3.738
42354W        W 7339  10.097  41.939   0.821
42355W        W 7340  43.440   4.207  14.238
42356W        W 7341  43.793   4.172   2.647
42357W        W 7342  16.983  40.000   3.690
42358W        W 7343  23.138  25.433  11.451
42359W        W 7344  38.841   0.825  14.711
42360W        W 7345  28.212  13.862  14.388
42361W        W 7346   0.787  18.370   1.339
42362W        W 7347  40.581  34.675   2.748
42363W        W 7348  39.815  39.905   0.738
42364W        W 7349   7.349  17.055  14.265
42365W        W 7350  13.232  33.365   0.311
42366W        W 7351  31.119   0.877   0.936
42367W        W 7352  21.426  17.285   0.311
42368W        W 7353   3.367   7.294  12.267
42369W        W 7354   8.389  40.613   3.416
42370W        W 7355  24.798  36.373  13.775
42371W        W 7356  23.062  27.163   1.686
42372W        W 7357  21.124   2.636  11.544
42373W        W 7358  29.385  43.203   1.762
42374W        W 7359   4.372  39.358  12.075
42375W        W 7360   2.803  41.157   2.405
42376W        W 7361  17.687   8.191  13.486
42377W        W 7362   7.281   2.351  10.753
42378W        W 7363  40.436  11.282   0.858
42379W        W 7364  13.688  38.849  14.010
42380W        W 7365   5.138  28.576   4.079
42381W        W 7366  20.928   2.504  14.796
42382W        W 7367  35.159   5.809  14.903
42383W        W 7368  38.385   3.409  13.461
42384W        W 7369   2.742  20.241  12.851
42385W        W 7370   5.857  22.359  14.389
42386W        W 7371  40.452  38.511  11.985
42387W        W 7372  10.871  24.318   4.371
42388W        W 7373  20.289  18.382  13.914
42389W        W 7374   7.366   7.266  10.469
42390W        W 7375  26.432  12.565   3.121
42391W        W 7376  34.457  27.920   2.708
42392W        W 7377   1.401  27.628  14.067
42393W        W 7378  14.565  25.888  13.033
42394W        W 7379  23.108   1.112  14.567
42395W        W 7380  11.584  25.175  14.819
42396W        W 7381  36.362  27.481   0.275
42397W        W 7382  25.585  17.981  10.541
42398W        W 7383  40.899  19.503  11.243
42399W        W 7384  10.059  26.167  14.979
42400W        W 7385  34.185   0.021  14.011
42401W        W 7386   7.186   9.832   4.995
42402W        W 7387  14.035  44.922   3.249
42403W        W 7388   3.225   8.404   4.119
42404W        W 7389  44.127  39.046   3.654
42405W        W 7390   7.722  25.513  13.093
42406W        W 7391  35.378  22.611   4.552
42407W        W 7392  39.550  20.282   3.793
42408W        W 7393   4.597  12.237   4.276
42409W        W 7394  39.314  17.659   0.855
42410W        W 7395  43.349  27.440  11.585
42411W        W 7396  10.434  13.253   1.288
42412W        W 7397  29.139  42.881  13.698
42413W        W 7398  30.627  43.670   2.899
42414W        W 7399  13.353  29.280  11.953
42415W        W 7400  25.659  21.138  14.851
42416W        W 7401  10.372   5.933   0.894
42417W        W 7402  12.357  32.853   1.444
42418W        W 7403   3.947   6.946  13.929
42419W        W 7404  34.196  41.506  12.993
42420W        W 7405   1.768  15.221   2.868
42421W        W 7406   9.612  12.281  11.556
42422W        W 7407   6.498  38.077   1.760
42423W        W 7408  23.048  32.378   4.087
42424W        W 7409  43.922   8.589  13.041
42425W        W 7410   5.790  24.032  11.476
42426W        W 7411  33.249  29.596   2.696
42427W        W 7412  40.731  30.565  11.629
42428W        W 7413  20.360  16.957   9.734
42429W        W 7414  16.844  27.117  12.559
42430W        W 7415  34.003  11.182   4.207
42431W        W 7416   0.229   0.754   0.184
42432W        W 7417  10.849  40.447   2.851
42433W        W 7418  26.617  15.278  11.113
42434W        W 7419  14.452   0.979   1.815
42435W        W 7420   6.255   1.376  12.510
42436W        W 7421  27.507  11.192   3.588
42437W        W 7422  28.642   9.953  10.588
42438W        W 7423  40.866  17.577  12.462
42439W        W 7424  16.091   0.351   0.995
42440W        W 7425  22.961  21.462  13.871
42441W        W 7426   9.055  14.333   1.277
42442W        W 7427  29.039  35.676  14.512
42443W        W 7428   9.771  42.715  13.432
42444W        W 7429   5.326  30.969  14.705
42445W        W 7430  14.931  11.612  11.121
42446W        W 7431  13.083   9.777   0.297
42447W        W 7432  40.783  39.532   1.389
42448W        W 7433  27.765  21.212  13.362
42449W        W 7434  25.990  24.094   1.299
42450W        W 7435   7.378  22.121   1.882
42451W        W 7436   3.561  39.353  12.755
42452W        W 7437   8.423   9.691  13.964
42453W        W 7438  43.036  25.533   2.393
42454W        W 7439  25.094  16.230   2.015
42455W        W 7440  23.921   0.501   1.444
42456W        W 7441   6.952  33.981   2.219
42457W        W 7442  26.549  33.449  12.227
42458W        W 7443  37.238   3.583   4.167
42459W        W 7444   6.644   3.110  11.113
42460W        W 7445  24.572  33.385   2.763
42461W        W 7446  24.588  40.852   1.746
42462W        W 7447  33.358  28.402   0.832
42463W        W 7448   3.767   9.262  12.921
42464W        W 7449  28.037  28.685  13.534
42465W        W 7450   9.852  22.290   1.722
42466W        W 7451  37.078   7.117   2.274
42467W        W 7452  24.230  35.437  14.719
42468W        W 7453  27.885  25.969   3.787
42469W        W 7454  15.376  42.786  13.271
42470W        W 7455  12.642  22.949   0.141
42471W        W 7456  34.429  28.474  11.023
42472W        W 7457  42.540  14.993   3.797
42473W        W 7458  44.263  41.025  14.048
42474W        W 7459   3.500  20.097   2.064
42475W        W 7460  31.085  36.955  13.851
42476W        W 7461   2.471  42.999   1.029
42477W        W 7462  38.599   2.915  10.323
42478W        W 7463  14.548  39.359  11.454
42479W        W 7464  43.768  36.300   1.716
42480W        W 7465  42.813   9.848  14.959
42481W        W 7466  43.769  20.129   0.377
42482W        W 7467  19.132  37.812  10.601
42483W        W 7468  41.729  24.412   3.256
42484W        W 7469  31.065   2.515  14.439
42485W        W 7470  16.154  39.766  14.262
42486W        W 7471  14.722   6.450  14.068
42487W        W 7472  34.092  24.188  13.317
42488W        W 7473  31.620  22.580   2.215
42489W        W 7474  39.355  13.969   4.212
42490W        W 7475  34.850  38.622   4.666
42491W        W 7476  13.852  25.931  13.474
42492W        W 7477  17.984   1.988   0.926
42493W        W 7478  43.810  19.280   2.783
42494W        W 7479  12.969  30.067  10.976
42495W        W 7480  19.405  22.156   4.869
42496W        W 7481  41.256  23.563   4.633
42497W        W 7482  18.972  23.149   1.212
42498W        W 7483  23.554  10.192  11.732
42499W        W 7484  38.797  36.256  14.288
42500W        W 7485  19.766  35.319  13.045
42501W        W 7486   4.810  36.971  12.103
42502W        W 7487  29.380  43.359  12.941
42503W        W 7488  28.611  42.505   4.539
42504W        W 7489  35.962  23.245  11.129
42505W        W 7490  42.978  36.366   2.124
42506W        W 7491  23.646   7.415   0.236
42507W        W 7492   3.461  40.046   1.567
42508W        W 7493  27.179  31.924  13.441
42509W        W 7494  21.653  22.134  12.924
42510W        W 7495  40.479  42.895   3.096
42511W        W 7496  24.735  11.618   1.264
42512W        W 7497   4.423  37.703   4.980
42513W        W 7498  31.612  23.368  12.950
42514W        W 7499  26.513  14.314   4.445
42515W        W 7500  25.994  32.698   2.680
42516W        W 7501   3.396  14.632  10.710
42517W        W 7502   8.671  21.255  12.138
42518W        W 7503  37.334  28.004  13.936
42519W        W 7504  23.273  18.155   0.727
42520W        W 7505  43.445   3.861   2.880
42521W        W 7506  28.674  36.389  12.083
42522W        W 7507  37.559  42.048  12.075
42523W        W 7508   0.548  22.804   1.188
42524W        W 7509  43.460  14.366  14.972
42525W        W 7510  37.519   1.251   4.844
42526W        W 7511  36.606  44.197   2.813
42527W        W 7512  22.496  34.412   0.523
42528W        W 7513  43.874  21.157  12.612
42529W        W 7514   5.553   5.212   3.196
42530W        W 7515  38.672  32.027   4.639
42531W        W 7516  23.217  30.656  12.087
42532W        W 7517   3.875   8.924  13.971
42533W        W 7518  21.341  34.876  11.137
42534W        W 7519  27.010  13.741  13.134
42535W        W 7520  43.012  11.750  12.572
42536W        W 7521   8.710  35.417  10.899
42537W        W 7522  41.605   0.744   2.758
42538W        W 7523  15.244  18.828  12.835
42539W        W 7524  22.400  12.860  11.602
42540W        W 7525   9.255  30.940   0.273
42541W        W 7526  15.185   8.407  13.313
42542W        W 7527  22.541  28.503   3.767
42543W        W 7528   3.633  40.530   0.276
42544W        W 7529  34.931   6.906   3.289
42545W        W 7530  36.406  39.534   1.405
42546W        W 7531  38.418  27.972  14.020
42547W        W 7532  17.297  38.398  10.628
42548W        W 7533   0.921  34.978   4.142
42549W        W 7534  11.643  14.208  13.542
42550W        W 7535  14.572  11.080   0.916
42551W        W 7536   0.702  43.275  13.947
42552W        W 7537  15.139  40.282   2.225
42553W        W 7538  25.987  32.833  14.409
42554W        W 7539  34.385  20.773  12.648
42555W        W 7540   8.486  15.657   2.906
42556W        W 7541  35.068  27.442  11.550
42557W        W 7542  23.126  23.931  12.950
42558W        W 7543   6.825  33.135  13.334
42559W        W 7544  23.535  12.098  13.570
42560W        W 7545  22.634  20.500   3.188
42561W        W 7546  25.006  24.277   2.958
42562W        W 7547  24.757  12.785  14.782
42563W        W 7548  37.971  10.783  10.263
42564W        W 7549  39.382  13.604   3.723
42565W        W 7550   9.735   0.720   4.184
42566W        W 7551  22.625  40.285  11.572
42567W        W 7552   5.466  22.254   0.790
42568W        W 7553  36.410  16.010   3.736
42569W        W 7554  18.474  23.521   1.979
42570W        W 7555  42.977   8.683  12.964
42571W        W 7556  44.227  28.250  14.842
42572W        W 7557  28.471   4.407   0.641
42573W        W 7558  43.835   9.826  11.637
42574W        W 7559   2.556  10.427  12.562
42575W        W 7560  27.630   3.966   0.250
42576W        W 7561   3.722  28.143   1.238
42577W        W 7562  16.110  17.824   3.365
42578W        W 7563  26.863  44.691  13.121
42579W        W 7564  38.498  22.174   3.698
42580W        W 7565  30.498   7.149  14.862
42581W        W 7566  18.238  12.848   1.092
42582W        W 7567  10.473  37.905  14.724
42583W        W 7568  10.291  27.938   3.141
42584W        W 7569  44.832  16.774   3.265
42585W        W 7570   6.211  31.984   4.988
42586W        W 7571  35.500  28.665   4.497
42587W        W 7572   7.705   2.228   2.918
42588W        W 7573  11.303  28.126   0.676
42589W        W 7574  37.529   3.026  13.132
42590W        W 7575  26.273  40.784  12.069
42591W        W 7576   0.852   8.483  10.688
42592W        W 7577  19.632  42.327  11.233
42593W        W 7578  23.974  33.448  13.464
42594W        W 7579  27.400   9.630  12.937
42595W        W 7580  11.755  25.587  10.994
42596W        W 7581  16.164  24.927  12.558
42597W        W 7582   1.947  40.080   1.874
42598W        W 7583  39.448  30.377  14.655
42599W        W 7584  44.946   1.767  10.927
42600W        W 7585  18.268  17.493  11.544
42601W        W 7586   3.935  16.404   3.333
42602W        W 7587  37.563  22.772   0.506
42603W        W 7588  43.761   3.124  14.390
42604W        W 7589  28.444   2.481  13.502
42605W        W 7590  17.661  28.646  13.376
42606W        W 7591  35.318   2.727   2.912
42607W        W 7592  13.623  29.046   0.449
42608W        W 7593  38.390  27.674  14.492
42609W        W 7594  41.493   7.213   0.380
42610W        W 7595  44.958  12.821   3.646
42611W        W 7596   3.894  13.620  11.529
42612W        W 7597  34.989  26.994   0.664
42613W        W 7598  13.168  29.262  10.682
42614W        W 7599  27.258  16.317  12.037
42615W        W 7600  30.859  19.080   2.760
42616W        W 7601  13.249  22.327   0.501
42617W        W 7602   0.682  12.921  14.488
42618W        W 7603  16.671  26.028   0.898
42619W        W 7604  17.075   2.554  10.491
42620W        W 7605  23.778  25.755   2.832
42621W        W 7606  12.790  10.298  12.584
42622W        W 7607  37.297  43.247   5.009
42623W        W 7608   9.479   2.873   0.895
42624W        W 7609  16.983  11.979  11.156
42625W        W 7610  29.954  43.858  14.550
42626W        W 7611  24.029  32.940  13.399
42627W        W 7612  33.626  16.282  11.764
42628W        W 7613  26.625  37.795   0.881
42629W        W 7614  22.649  35.552   3.703
42630W        W 7615  23.831  26.411   3.316
42631W        W 7616   8.322   8.137  12.565
42632W        W 7617  20.227  10.658  14.008
42633W        W 7618  23.287  35.863   3.389
42634W        W 7619  33.385   3.947  13.861
42635W        W 7620  34.423  39.814   1.083
42636W        W 7621  24.743  26.175   4.301
42637W        W 7622  19.702   9.835   0.743
42638W        W 7623  25.491  27.693  14.318
42639W        W 7624  17.697  30.143  11.320
42640W        W 7625   0.732  26.453   0.752
42641W        W 7626  33.848  25.130   2.365
42642W        W 7627  32.537  29.904  13.349
42643W        W 7628  11.967  34.286   4.971
42644W        W 7629  34.822   4.477  12.517
42645W        W 7630  22.513  32.853   0.263
42646W        W 7631  25.956  33.627  11.200
42647W        W 7632   6.100  40.852   2.788
42648W        W 7633  23.500   8.209  14.782
42649W        W 7634  14.344  13.848  14.843
42650W        W 7635   5.054  20.789  12.007
42651W        W 7636  22.050   2.570  13.030
42652W        W 7637  30.606  11.436  10.979
42653W        W 7638  38.110  31.481  12.646
42654W        W 7639   2.266  22.249   0.837
42655W        W 7640  44.462  15.758  12.559
42656W        W 7641  13.169  27.399   4.173
42657W        W 7642  34.379  44.415  12.430
42658W        W 7643  41.897   8.317   1.536
42659W        W 7644  13.742  21.189  12.035
42660W        W 7645   9.864  22.012   4.066
42661W        W 7646   4.866  11.417  10.125
42662W        W 7647  15.511  22.264  14.808
42663W        W 7648  43.471  39.290   1.621
42664W        W 7649  13.892  40.468   4.819
42665W        W 7650  20.254  15.882  14.820
42666W        W 7651  32.697  16.347  12.021
42667W        W 7652  34.621  22.796  14.343
42668W        W 7653   7.938  34.792  14.762
42669W        W 7654  41.082   9.491  12.048
42670W        W 7655  23.126  40.448  12.727
42671W        W 7656  28.397   8.867   1.843
42672W        W 7657  44.882  17.439   4.170
42673W        W 7658   9.229  15.868  12.431
42674W        W 7659   2.171  10.334  13.401
42675W        W 7660  30.615  24.410   3.063
42676W        W 7661  39.918  34.614  12.430
42677W        W 7662  37.617   2.012  13.152
42678W        W 7663  14.590  14.239  12.668
42679W        W 7664   8.579  14.022   5.159
42680W        W 7665  35.548   5.073  12.433
42681W        W 7666  36.672  12.411   1.695
42682W        W 7667  17.068  38.985   0.293
42683W        W 7668  24.435  38.855   3.368
42684W        W 7669  43.831   4.471   3.071
42685W        W 7670  22.231  21.430  12.145
42686W        W 7671   6.640  30.414  12.092
42687W        W 7672  11.936   1.750  13.104
42688W        W 7673  30.333  16.326  13.076
42689W        W 7674  17.190  40.939   1.038
42690W        W 7675   2.717  34.470   1.278
42691W        W 7676  24.962  42.452  13.923
42692W        W 7677   4.484  25.096  13.962
42693W        W 7678  19.296  41.887   4.173
42694W        W 7679  21.371  44.901  14.502
42695W        W 7680  34.699  11.805   2.201
42696W        W 7681   6.246  37.725  12.377
42697W        W 7682   7.986  25.185  13.921
42698W        W 7683  41.315  23.118   2.285
42699W        W 7684  22.773  16.623  11.026
42700W        W 7685  24.390  34.446  10.569
42701W        W 7686  26.948   0.887  14.760
42702W        W 7687  12.186  34.079   2.718
42703W        W 7688   9.344  34.292   3.717
42704W        W 7689   4.753  14.613   2.203
42705W        W 7690   3.183  36.611   2.217
42706W        W 7691  24.199  20.547  12.538
42707W        W 7692  38.348  34.366   1.826
42708W        W 7693   8.714  27.216  12.614
42709W        W 7694  18.957  15.823   3.519
42710W        W 7695   6.893  26.347  14.467
42711W        W 7696   5.248  38.291  13.399
42712W        W 7697   4.729  24.093   0.943
42713W        W 7698  39.221  29.081   0.210
42714W        W 7699   6.705  20.213  11.435
42715W        W 7700  14.443  31.069   0.659
42716W        W 7701   9.447   6.416  10.712
42717W        W 7702  13.187   2.719   0.258
42718W        W 7703  33.901  25.626  11.955
42719W        W 7704  30.674   8.574  12.081
42720W        W 7705  38.415   5.315   0.401
42721W        W 7706  21.166  21.800   1.195
42722W        W 7707  25.130  23.111   2.811
42723W        W 7708  31.171  22.563   3.135
42724W        W 7709  26.086  12.151   4.934
42725W        W 7710  35.776  18.909   5.303
42726W        W 7711  14.452  33.568   2.250
42727W        W 7712  35.711  37.587  11.981
42728W        W 7713  44.668  19.783  10.318
42729W        W 7714  14.810  34.390   2.842
42730W        W 7715  29.615   9.591  11.623
42731W        W 7716  35.557  41.745   2.805
42732W        W 7717  20.691   6.175   0.875
42733W        W 7718  26.001  33.130  13.058
42734W        W 7719  23.707   2.240  12.448
42735W        W 7720  32.480  42.520   4.599
42736W        W 7721  19.763  25.280   5.009
42737W        W 7722  28.747  30.011  13.462
42738W        W 7723  10.246  16.599  12.606
42739W        W 7724  14.297  25.640  13.451
42740W        W 7725   4.686  37.107   2.050
42741W        W 7726  43.680   4.206  13.349
42742W        W 7727  42.084  16.717   0.926
42743W        W 7728  11.617  38.052  10.250
42744W        W 7729   7.992   6.834   3.642
42745W        W 7730  22.727  10.102   1.803
42746W        W 7731  22.342  35.754  11.904
42747W        W 7732  23.771  34.905   1.265
42748W        W 7733  25.403   7.305  12.952
42749W        W 7734  16.038   3.236  10.625
42750W        W 7735   4.864  10.369  11.147
42751W        W 7736  37.463  34.861   0.818
42752W        W 7737  10.751  16.952   2.740
42753W        W 7738  25.843   0.758   3.197
42754W        W 7739  16.594  36.090  14.805
42755W        W 7740  23.511   5.173  14.526
42756W        W 7741   6.434  15.277   3.296
42757W        W 7742  37.092  41.915   2.708
42758W        W 7743  11.859  22.060   1.866
42759W        W 7744  41.604  31.093  11.141
42760W        W 7745  41.679  34.937   2.195
42761W        W 7746  39.358  14.533  14.024
42762W        W 7747  15.970  18.333  14.348
42763W        W 7748  29.445   9.818  12.050
42764W        W 7749   2.193  35.539   3.192
42765W        W 7750  27.251  41.483   4.118
42766W        W 7751  35.506  38.059  13.456
42767W        W 7752  34.216  11.240  12.382
42768W        W 7753  33.094  43.371   2.785
42769W        W 7754  19.101   4.997   0.451
42770W        W 7755  22.020   4.352  13.541
42771W        W 7756  31.195  11.335  14.429
42772W        W 7757   7.549  20.291   4.141
42773W        W 7758  26.264  41.486   1.386
42774W        W 7759  11.274  11.069   4.828
42775W        W 7760  38.325  22.507  11.611
42776W        W 7761  40.473  12.086  10.491
42777W        W 7762   6.367  40.907   4.579
42778W        W 7763   3.546  18.771  12.375
42779W        W 7764   7.121  44.235  14.330
42780W        W 7765   4.224  41.444  11.532
42781W        W 7766   5.236  32.873   4.140
42782W        W 7767  11.775  15.695  11.298
42783W        W 7768  18.703  14.884   2.881
42784W        W 7769   7.174   3.192   2.240
42785W        W 7770  33.420  28.737  11.246
42786W        W 7771  13.849  13.240   4.669
42787W        W 7772  15.109  23.699  13.460
42788W        W 7773  29.565   5.294  10.615
42789W        W 7774  44.793  32.327  13.333
42790W        W 7775  16.262  38.000   1.199
42791W        W 7776   9.205  15.156  13.676
42792W        W 7777  11.355  17.291   1.951
42793W        W 7778   5.358  40.101   1.239
42794W        W 7779  43.396  40.885  13.504
42795W        W 7780   9.587   9.270  13.954
42796W        W 7781  13.603  35.676   0.353
42797W        W 7782  14.102   4.920  14.307
42798W        W 7783   1.983  35.686  11.670
42799W        W 7784  23.093  32.351   3.045
42800W        W 7785  14.398  35.878  11.626
42801W        W 7786  23.218  34.485  11.865
42802W        W 7787  23.452  37.482  12.450
42803W        W 7788  41.931  39.302  14.722
42804W        W 7789  37.590   6.881   3.102
42805W        W 7790  25.155   1.246   3.486
42806W        W 7791  39.461  14.144   3.746
42807W        W 7792  25.505  30.911   1.841
42808W        W 7793  26.681  39.343  11.060
42809W        W 7794  43.969  26.755   2.956
42810W        W 7795  32.383  25.087   3.331
42811W        W 7796  31.098   1.973   1.183
42812W        W 7797   5.682  43.889   0.738
42813W        W 7798  23.795  12.674  11.552
42814W        W 7799  12.504  39.827   3.020
42815W        W 7800  39.397  16.030   3.243
42816W        W 7801   0.816  10.159   4.970
42817W        W 7802  31.325  38.964  14.923
42818W        W 7803  25.674  38.923  11.160
42819W        W 7804  41.984   6.236  14.363
42820W        W 7805  10.396  39.000  10.964
42821W        W 7806  32.689  37.790  12.895
42822W        W 7807   7.379   9.847   3.461
42823W        W 7808  18.260  37.278   3.070
42824W        W 7809  14.913  11.450  12.528
42825W        W 7810  40.824  40.916   0.681
42826W        W 7811  29.088  14.220  12.105
42827W        W 7812  28.431   1.672   3.620
42828W        W 7813  32.000   7.878   0.852
42829W        W 7814  34.167   5.958  10.200
42830W        W 7815  43.836  44.320   0.725
42831W        W 7816   7.877  10.289   1.950
42832W        W 7817  22.235   8.653  14.931
42833W        W 7818  18.332   7.008  14.297
42834W        W 7819  20.049  25.068  11.897
42835W        W 7820  40.981  13.684   3.381
42836W        W 7821   2.897   3.267  12.073
42837W        W 7822  37.173  38.934   4.325
42838W        W 7823   0.257  33.326   4.158
42839W        W 7824  39.068  22.225  12.045
42840W        W 7825  17.291  34.611  12.444
42841W        W 7826  21.129  33.528   3.918
42842W        W 7827   8.473  31.060   0.766
42843W        W 7828   6.362   1.758  11.077
42844W        W 7829   5.063  41.004   2.732
42845W        W 7830  28.112  22.714   1.697
42846W        W 7831  12.332  42.009   0.824
42847W        W 7832  35.545  14.611   1.857
42848W        W 7833  33.083  28.032  14.277
42849W        W 7834   2.563   5.128   1.704
42850W        W 7835   8.181   2.162  12.960
42851W        W 7836   6.063  24.799   0.390
42852W        W 7837  43.551  44.492   2.729
42853W        W 7838  43.015  27.092   1.765
42854W        W 7839  43.499  18.344   4.741
42855W        W 7840  21.695   6.739  14.009
42856W        W 7841  41.821  24.229  12.581
42857W        W 7842  23.047   5.084  14.829
42858W        W 7843  21.076  24.283  12.753
42859W        W 7844  31.636  34.480   2.443
42860W        W 7845  25.952  18.139   3.232
42861W        W 7846  27.087  41.108  11.602
42862W        W 7847   2.689   1.850  11.667
42863W        W 7848  12.826  14.052  12.846
42864W        W 7849   3.194  24.954   4.369
42865W        W 7850  29.059  44.500  12.087
42866W        W 7851  34.987  29.510  11.627
42867W        W 7852   8.526  35.460   4.622
42868W        W 7853  23.916  13.104  13.885
42869W        W 7854   8.915  44.872   3.206
42870W        W 7855  37.451  12.180   1.419
42871W        W 7856  32.516   2.283  10.392
42872W        W 7857  30.431  39.331  13.793
42873W        W 7858  22.625  25.044  10.707
42874W        W 7859  29.481  23.673  13.378
42875W        W 7860   9.815  31.039   4.660
42876W        W 7861  34.834  17.988   1.452
42877W        W 7862   0.429  39.936  11.583
42878W        W 7863   0.271  21.595  11.994
42879W        W 7864   3.293  11.862  10.803
42880W        W 7865  22.709  21.429   0.884
42881W        W 7866  12.306  22.364  11.083
42882W        W 7867  33.620  41.908  13.951
42883W        W 7868  24.062  13.066   2.956
42884W        W 7869  19.549   4.133   0.400
42885W        W 7870  15.083  14.265   1.107
42886W        W 7871  20.810   0.599  14.434
42887W        W 7872  24.259  27.692   0.948
42888W        W 7873  30.606  32.935  13.423
42889W        W 7874  27.510  25.524  10.414
42890W        W 7875  19.443  11.200  14.299
42891W        W 7876   5.773  15.810   0.057
42892W        W 7877  30.552  39.843  12.113
42893W        W 7878  30.571  12.436  10.600
42894W        W 7879  33.079  18.253  11.517
42895W        W 7880  26.482  38.623  14.011
42896W        W 7881  19.673  25.441   0.582
42897W        W 7882  37.562   6.832  13.586
42898W        W 7883  32.185  44.184  11.412
42899W        W 7884  36.389  28.262  11.621
42900W        W 7885  14.517  38.588  11.711
42901W        W 7886  38.388  31.113  13.581
42902W        W 7887  35.536  41.502   0.039
42903W        W 7888  42.521  13.739  11.956
42904W        W 7889   0.942   0.650  13.975
42905W        W 7890  33.404   7.285  13.262
42906W        W 7891  22.245   3.834  12.302
42907W        W 7892  20.691  27.933  11.442
42908W        W 7893  41.970  34.021   1.882
42909W        W 7894  26.953  30.532  13.343
42910W        W 7895   6.336   0.045  14.265
42911W        W 7896  27.138   2.919  14.668
42912W        W 7897  35.568  24.455  10.973
42913W        W 7898  29.679  27.029   4.059
42914W        W 7899  36.119   0.287   2.464
42915W        W 7900   8.301  24.760  13.867
42916W        W 7901  30.013  15.245   4.011
42917W        W 7902  13.221  19.023  13.855
42918W        W 7903  16.127   4.845   2.257
42919W        W 7904  40.432  22.663  14.028
42920W        W 7905   8.704  25.263  14.897
42921W        W 7906  21.451  32.097  14.392
42922W        W 7907   3.663   6.226   0.314
42923W        W 7908  32.315  23.133   4.681
42924W        W 7909  17.708   4.221   1.807
42925W        W 7910  19.869  26.149   1.733
42926W        W 7911  28.677  15.476   2.420
42927W        W 7912  17.348  28.116   1.438
42928W        W 7913  13.184  21.979  12.912
42929W        W 7914  36.909  16.040   3.866
42930W        W 7915  31.447  33.575  14.424
42931W        W 7916  26.086  42.374   0.824
42932W        W 7917  25.461  42.327   2.705
42933W        W 7918  42.665  10.036  11.130
42934W        W 7919  38.769   7.489  11.414
42935W        W 7920  24.152  23.067  12.983
42936W        W 7921  36.410  30.259  14.985
42937W        W 7922  28.862  39.588  14.993
42938W        W 7923  30.468  30.947   4.587
42939W        W 7924   5.680  10.969   1.663
42940W        W 7925  12.100  25.091   2.274
42941W        W 7926   5.811  42.790  11.611
42942W        W 7927  17.196   1.057   3.062
42943W        W 7928  37.010   5.521  11.848
42944W        W 7929   7.181   7.975  13.027
42945W        W 7930  40.504   5.899   2.628
42946W        W 7931  21.498   7.680   4.098
42947W        W 7932  20.953  16.640   3.781
42948W        W 7933  31.653  30.499   1.346
42949W        W 7934  19.611   9.566   2.658
42950W        W 7935  11.305  13.320   1.221
42951W        W 7936   9.743   3.369  13.545
42952W        W 7937  35.917   6.170   1.769
42953W        W 7938  42.799  33.306   1.928
42954W        W 7939  31.614   0.347  12.143
42955W        W 7940  22.468  13.889   4.580
42956W        W 7941   9.919  41.079   1.631
42957W        W 7942  25.673  43.076   0.965
42958W        W 7943  33.337  36.994  12.962
42959W        W 7944  25.569  18.176  13.090
42960W        W 7945  29.435  42.699   1.933
42961W        W 7946  23.898  16.657  11.925
42962W        W 7947   2.008   0.426  12.095
42963W        W 7948  44.287  37.398   4.648
42964W        W 7949  23.866  42.422  13.711
42965W        W 7950  27.060  29.642   2.263
42966W        W 7951  22.647  32.320   0.260
42967W        W 7952   8.851  17.575  14.855
42968W        W 7953  28.907  10.205   2.807
42969W        W 7954  21.869  44.757   3.256
42970W        W 7955  20.290  43.422   0.853
42971W        W 7956  19.587  14.808   3.624
42972W        W 7957  43.782   0.859  13.443
42973W        W 7958  13.313  15.201  14.734
42974W        W 7959   6.747  37.535  13.088
42975W        W 7960  18.000  42.051  12.575
42976W        W 7961  42.436  18.670   0.207
42977W        W 7962  26.683   4.215  13.966
42978W        W 7963  15.067   1.851   0.276
42979W        W 7964  35.818  13.242   4.123
42980W        W 7965  41.728  16.326  13.345
42981W        W 7966  31.652  44.841   3.129
42982W        W 7967  42.876  21.148  12.517
42983W        W 7968  33.856  16.727  10.625
42984W        W 7969   3.884  24.473   3.845
42985W        W 7970  12.558  26.417  13.495
42986W        W 7971  10.435  28.381   0.321
42987W        W 7972  32.092  30.796   2.341
42988W        W 7973   7.161   7.692  10.693
42989W        W 7974  38.972   6.358   0.802
42990W        W 7975  10.642  43.003   1.906
42991W        W 7976   4.390  25.748  14.770
42992W        W 7977  15.842  35.495   1.422
42993W        W 7978  29.282  38.942  10.819
42994W        W 7979  34.854  17.777  11.129
42995W        W 7980  20.558   6.768   2.773
42996W        W 7981  44.260  27.723  14.853
42997W        W 7982  12.837   5.946   4.121
42998W        W 7983  12.616  35.346   4.267
42999W        W 7984  23.148  14.595  12.928
43000W        W 7985  29.634  35.128   2.856
43001W        W 7986   4.401  13.310  14.529
43002W        W 7987   1.768  19.960   1.221
43003W        W 7988   5.721   4.852  14.256
43004W        W 7989   9.348  30.990   0.894
43005W        W 7990  44.469   1.791   2.712
43006W        W 7991  35.907  12.725   1.372
43007W        W 7992  20.493  21.193  14.522
43008W        W 7993   2.455  42.343   4.157
43009W        W 7994  34.293  23.800   3.761
43010W        W 7995  42.883   8.632  12.110
43011W        W 7996   9.064  23.709   1.589
43012W        W 7997  13.169  43.421  13.025
43013W        W 7998  36.890  10.879   0.733
43014W        W 7999   3.434  44.350   4.585
43015W        W 8000   6.364  23.137   1.683
43016W        W 8001   1.981   3.423   2.398
43017W        W 8002  25.204   3.888   0.045
43018W        W 8003   1.274  33.822   3.782
43019W        W 8004  30.472   5.217  12.238
43020W        W 8005  20.151   1.500  13.778
43021W        W 8006  10.740   8.903   3.667
43022W        W 8007  29.666   0.304  12.852
43023W        W 8008  13.743  42.840  12.385
43024W        W 8009  26.645   4.667  11.630
43025W        W 8010   0.421  38.969  11.128
43026W        W 8011  17.075  38.510  12.149
43027W        W 8012  10.216  30.817  12.447
43028W        W 8013  40.049   1.650  12.017
43029W        W 8014   3.428  10.271  12.338
43030W        W 8015  26.086  16.322  12.042
43031W        W 8016  33.475  16.602  14.930
43032W        W 8017  15.332  27.602   0.473
43033W        W 8018  10.362   3.974  13.541
43034W        W 8019  23.664  11.427   2.601
43035W        W 8020  25.655  25.457  11.527
43036W        W 8021  26.980  27.513   3.582
43037W        W 8022  29.499  15.392   2.841
43038W        W 8023  14.853  31.171   1.463
43039W        W 8024  19.821  38.099   0.002
43040W        W 8025  15.268  44.690   1.091
43041W        W 8026  31.400  14.281   1.148
43042W        W 8027  26.927  22.961   4.307
43043W        W 8028  29.947  20.195   4.765
43044W        W 8029   6.685   6.838   1.912
43045W        W 8030   2.000   0.402   0.606
43046W        W 8031  41.441  20.965   9.928
43047W        W 8032  31.766  14.820  12.831
43048W        W 8033   2.331  37.608  10.593
43049W        W 8034  13.546   6.352   2.587
43050W        W 8035  33.013  43.532   2.304
43051W        W 8036   1.800  18.612  14.534
43052W        W 8037  11.240  13.780  11.201
43053W        W 8038   1.258   5.396  11.995
43054W        W 8039  30.540  11.311  13.963
43055W        W 8040  29.757  38.582  14.293
43056W        W 8041  21.181   5.294   2.189
43057W        W 8042  29.399  23.223  13.127
43058W        W 8043   4.004  35.068  14.922
43059W        W 8044  18.244  13.769   0.320
43060W        W 8045  41.285  42.469  13.465
43061W        W 8046   8.866  26.497   5.281
43062W        W 8047   6.085   2.984   0.941
43063W        W 8048  17.193  13.802  13.576
43064W        W 8049  25.004  28.169   2.738
43065W        W 8050  38.119  42.737  11.596
43066W        W 8051  19.603  17.860  14.477
43067W        W 8052  10.321  11.508   4.457
43068W        W 8053  33.466  32.487   3.131
43069W        W 8054  11.892   8.295  14.063
43070W        W 8055  16.265  17.928  11.866
43071W        W 8056  24.610  42.776   5.099
43072W        W 8057  29.642  16.615  14.409
43073W        W 8058  36.190  40.013  14.494
43074W        W 8059   1.904  19.474   1.371
43075W        W 8060  40.099  44.897  11.138
43076W        W 8061  44.365  26.942   2.668
43077W        W 8062  42.371  10.849   2.740
43078W        W 8063  21.543  39.081  12.507
43079W        W 8064  36.638  13.295   3.842
43080W        W 8065  32.395  21.569  14.801
43081W        W 8066  43.842  14.622  11.121
43082W        W 8067  37.463   9.945   0.849
43083W        W 8068  23.292   3.890  13.971
43084W        W 8069  33.495  35.430  12.000
43085W        W 8070  31.781  10.602  14.608
43086W        W 8071  13.021  19.268   4.643
43087W        W 8072  30.565  20.982   5.110
43088W        W 8073  19.785  17.475   2.744
43089W        W 8074  17.666  37.109   0.680
43090W        W 8075  25.245  16.577   1.199
43091W        W 8076  44.302  19.415  11.745
43092W        W 8077  17.623  22.676  14.240
43093W        W 8078  29.479  41.815   2.357
43094W        W 8079   9.845   6.615   2.869
43095W        W 8080  34.938  11.733   9.929
43096W        W 8081  40.550  29.566  13.819
43097W        W 8082  34.442  41.817   1.897
43098W        W 8083   1.562  26.862   0.941
43099W        W 8084   5.810  14.663   1.329
43100W        W 8085  33.219  17.933   2.318
43101W        W 8086   4.527  41.433   0.811
43102W        W 8087   8.621  32.991  12.671
43103W        W 8088  25.987  23.710  13.888
43104W        W 8089  30.981  27.749   3.143
43105W        W 8090   5.664  12.796  14.703
43106W        W 8091  34.033  19.317  13.876
43107W        W 8092  14.186  11.428  12.946
43108W        W 8093  12.703  19.395   3.991
43109W        W 8094   7.787   7.800   1.237
43110W        W 8095  42.717  16.567  13.032
43111W        W 8096  25.908  17.220  11.154
43112W        W 8097  15.515   4.279   3.735
43113W        W 8098  26.725  18.655  10.653
43114W        W 8099  41.502  12.926  13.152
43115W        W 8100   1.307  24.084   2.136
43116W        W 8101  41.578  25.404   2.271
43117W        W 8102  10.151  10.273  12.942
43118W        W 8103   7.318   0.264   4.502
43119W        W 8104  32.591  23.552  10.564
43120W        W 8105  14.240   6.023  12.507
43121W        W 8106  40.796  17.635   1.893
43122W        W 8107   4.976  17.982   2.349
43123W        W 8108   9.927  21.804   1.873
43124W        W 8109  37.784  33.968   1.825
43125W        W 8110  37.343   1.510  13.144
43126W        W 8111  36.554  34.068   2.216
43127W        W 8112  10.753  43.102   0.094
43128W        W 8113  36.257   0.949   1.707
43129W        W 8114  39.866  19.369  12.097
43130W        W 8115  43.932  25.162   3.394
43131W        W 8116   7.160  18.568   3.660
43132W        W 8117  18.120   1.203  13.401
43133W        W 8118  23.120  35.691  10.354
43134W        W 8119  24.974  27.056   1.715
43135W        W 8120   3.679  21.540   2.981
43136W        W 8121  39.544  14.249  11.756
43137W        W 8122   7.508  22.873   5.105
43138W        W 8123  41.393  19.554   0.234
43139W        W 8124  29.009  39.127  12.172
43140W        W 8125   9.067  38.777   1.431
43141W        W 8126  39.758  36.958   3.737
43142W        W 8127  43.959  43.416  13.253
43143W        W 8128  29.168  36.052  12.988
43144W        W 8129  35.776  21.095  14.206
43145W        W 8130  37.081  39.967  12.395
43146W        W 8131  34.222  16.891  10.953
43147W        W 8132  19.586  24.496  14.247
43148W        W 8133  25.544  15.710   4.540
43149W        W 8134  13.496  41.376   4.119
43150W        W 8135  31.525  20.861   2.745
43151W        W 8136  32.546  40.926   0.271
43152W        W 8137  11.645  44.040   0.345
43153W        W 8138  34.648   6.767  12.722
43154W        W 8139  13.724   6.090   4.093
43155W        W 8140  44.085  37.017   2.826
43156W        W 8141  25.410  36.579  11.535
43157W        W 8142  18.336  31.985   4.722
43158W        W 8143  43.649  23.198  11.541
43159W        W 8144  20.867  30.363  11.908
43160W        W 8145  12.589  32.477   4.760
43161W        W 8146  12.039  29.913   1.205
43162W        W 8147   9.094  26.013   0.906
43163W        W 8148  42.307  23.149   2.373
43164W        W 8149  44.930   4.206   2.607
43165W        W 8150  33.604  11.616  14.545
43166W        W 8151  23.719   0.028  13.530
43167W        W 8152  40.922  39.766   5.459
43168W        W 8153  32.049  14.137   4.248
43169W        W 8154   2.952   6.810  13.035
43170W        W 8155  40.789  37.396  13.801
43171W        W 8156   4.873   3.288  13.101
43172W        W 8157  26.985  36.625  11.542
43173W        W 8158   6.288  41.254   3.039
43174W        W 8159  13.408   4.987  10.295
43175W        W 8160  12.737  20.325   4.683
43176W        W 8161  15.137  36.623   1.802
43177W        W 8162  19.182   9.593  13.954
43178W        W 8163  36.261  34.362   2.886
43179W        W 8164  40.338  30.113   4.125
43180W        W 8165  38.252   8.403  11.835
43181W        W 8166  40.038  14.840   3.695
43182W        W 8167  13.858  42.990   4.830
43183W        W 8168  28.769  38.417  11.099
43184W        W 8169  14.866   1.274   4.635
43185W        W 8170  23.468  19.144   1.945
43186W        W 8171  17.863   3.167   5.006
43187W        W 8172  13.609  16.161  14.814
43188W        W 8173   2.902  41.944   4.611
43189W        W 8174  41.959   8.825  14.805
43190W        W 8175   2.834  26.158   2.286
43191W        W 8176   5.322  39.865   2.167
43192W        W 8177  43.512  40.513  11.106
43193W        W 8178  43.402  20.578   2.680
43194W        W 8179   3.773  10.162  11.962
43195W        W 8180  14.703  21.174  12.078
43196W        W 8181  22.734   8.649  13.027
43197W        W 8182  27.058  28.005  10.280
43198W        W 8183  36.391  24.186   4.679
43199W        W 8184  39.081  31.871   1.525
43200W        W 8185  37.479   8.406   3.286
43201W        W 8186  18.178   0.985   2.621
43202W        W 8187  38.832  11.459   2.406
43203W        W 8188  18.223  13.383  14.479
43204W        W 8189  43.561   0.903   4.357
43205W        W 8190   6.707  41.270  14.735
43206W        W 8191  25.202  27.075   4.079
43207W        W 8192  40.541  15.027   3.658
43208W        W 8193  26.557  29.507  11.487
43209W        W 8194  18.744  34.037   5.014
43210W        W 8195  19.034  14.692   1.739
43211W        W 8196  23.158  30.568   1.299
43212W        W 8197  14.798  10.738  13.985
43213W        W 8198  14.089  39.628   1.851
43214W        W 8199   2.546  34.902  14.546
43215W        W 8200  19.645  14.229   1.375
43216W        W 8201  42.275  37.812   3.651
43217W        W 8202   9.537  24.999   3.816
43218W        W 8203  28.001  29.022   4.478
43219W        W 8204  33.980  43.046   4.483
43220W        W 8205  28.045  28.690   2.783
43221W        W 8206   3.357   0.887  13.675
43222W        W 8207  13.817  34.560  14.360
43223W        W 8208  12.469   4.646  13.881
43224W        W 8209  22.605  35.507   2.623
43225W        W 8210   4.390  24.479  10.785
43226W        W 8211   0.333   1.373   3.759
43227W        W 8212  20.974  23.419  12.615
43228W        W 8213  44.477  23.445   1.951
43229W        W 8214  30.460  18.698   2.100
43230W        W 8215  21.255  33.542  13.027
43231W        W 8216  40.555   2.461   2.474
43232W        W 8217   3.649  19.250  13.838
43233W        W 8218  39.608  25.836   0.422
43234W        W 8219  42.839  31.679   3.651
43235W        W 8220  24.720  42.689  12.053
43236W        W 8221   6.859  25.076  11.254
43237W        W 8222  29.207  12.083   1.445
43238W        W 8223   9.732  41.136  11.551
43239W        W 8224  10.814  30.936  11.924
43240W        W 8225  20.784  27.498  13.353
43241W        W 8226  19.643   0.990  13.149
43242W        W 8227  11.857  20.027   0.289
43243W        W 8228   2.357  24.661   4.287
43244W        W 8229  11.012  33.873  14.334
43245W        W 8230   2.450   8.306   1.269
43246W        W 8231  20.119  43.554  14.546
43247W        W 8232  28.139  11.672   0.165
43248W        W 8233   4.466  21.099   2.990
43249W        W 8234  36.515  15.168   3.172
43250W        W 8235   8.554  27.713  13.459
43251W        W 8236  31.264  15.444  11.584
43252W        W 8237   2.965  44.991  14.951
43253W        W 8238   1.710  42.266  10.515
43254W        W 8239  29.017  29.375  14.240
43255W        W 8240  43.141  17.286   0.282
43256W        W 8241  13.604  39.365  13.965
43257W        W 8242  29.023  26.853   2.219
43258W        W 8243  15.296  17.156  10.571
43259W        W 8244   7.742  12.798   3.628
43260W        W 8245  39.464  16.370   2.077
43261W        W 8246  33.752  28.583  14.848
43262W        W 8247  42.067  39.370  10.655
43263W        W 8248  22.452  13.157  11.167
43264W        W 8249  11.240   4.946   2.389
43265W        W 8250  31.367   9.256  12.555
43266W        W 8251  21.663  35.056   3.411
43267W        W 8252  19.070   7.260  11.595
43268W        W 8253  24.615  18.366   0.893
43269W        W 8254  23.964  24.967  13.607
43270W        W 8255  42.048   0.031   0.321
43271W        W 8256   3.044  38.634  11.147
43272W        W 8257  11.368  41.835   2.211
43273W        W 8258  37.444   1.898   0.415
43274W        W 8259  31.454  11.864  14.008
43275W        W 8260  38.573  22.228   2.331
43276W        W 8261   7.348  27.444  12.091
43277W        W 8262   6.732  42.347   2.780
43278W        W 8263  30.524  28.694   0.382
43279W        W 8264  34.934  40.969   3.650
43280W        W 8265  31.353  37.808   3.574
43281W        W 8266  15.827  10.077  14.857
43282W        W 8267  37.673  28.634  10.739
43283W        W 8268  22.191  37.884   0.989
43284W        W 8269  41.803   4.814   1.834
43285W        W 8270  21.282  35.523   1.802
43286W        W 8271  42.836  15.905  11.226
43287W        W 8272   5.767  41.370  10.629
43288W        W 8273  10.378  33.131   4.743
43289W        W 8274  31.039   0.777  13.331
43290W        W 8275   8.743  20.668   2.438
43291W        W 8276  22.322   6.318   0.373
43292W        W 8277   6.292  29.008   1.709
43293W        W 8278  22.687  18.577   1.916
43294W        W 8279  37.064  29.682   4.398
43295W        W 8280  15.550  34.606   1.303
43296W        W 8281   8.118  22.144  12.578
43297W        W 8282  35.909  29.164   1.402
43298W        W 8283   3.385  32.637  14.432
43299W        W 8284  13.383   0.749   3.232
43300W        W 8285  19.649  31.471   1.823
43301W        W 8286  43.044  19.747  12.866
43302W        W 8287  11.205  14.671  11.424
43303W        W 8288  38.032  40.045   4.859
43304W        W 8289   4.168  21.566   2.791
43305W        W 8290   5.898  17.665  12.351
43306W        W 8291  44.705  20.465   3.795
43307W        W 8292  20.207   0.469   3.154
43308W        W 8293  20.741  28.607  10.719
43309W        W 8294  39.789  33.399  14.783
43310W        W 8295  18.016  35.533   2.787
43311W        W 8296   3.848  20.085  11.741
43312W        W 8297  11.553  29.994   1.301
43313W        W 8298  15.682   3.925   1.536
43314W        W 8299   2.073  19.611   4.740
43315W        W 8300  30.136  20.227   0.367
43316W        W 8301  35.368   1.586   1.367
43317W        W 8302  32.529   8.656  12.058
43318W        W 8303  44.554  18.644  13.357
43319W        W 8304  39.974  17.099   2.618
43320W        W 8305  41.808  18.667   2.839
43321W        W 8306  35.588   8.872   3.692
43322W        W 8307   6.324  42.795   1.326
43323W        W 8308  10.146  14.375  10.744
43324W        W 8309  33.654  33.653   4.537
43325W        W 8310  30.254   2.967   2.314
43326W        W 8311  18.270  38.296  10.757
43327W        W 8312  38.594  36.098   1.361
43328W        W 8313  23.065   2.975   1.456
43329W        W 8314  11.940  35.864   2.780
43330W        W 8315  34.633  21.151   1.150
43331W        W 8316   8.267   8.392  11.060
43332W        W 8317  42.578  21.397   3.211
43333W        W 8318  44.062  36.123  13.015
43334W        W 8319  34.650  12.952  11.515
43335W        W 8320  14.660   0.475   2.306
43336W        W 8321  20.760  10.312   0.412
43337W        W 8322  33.171   6.479   3.250
43338W        W 8323   3.963  19.295  11.274
43339W        W 8324  24.108  38.107   0.785
43340W        W 8325  10.288  38.468  11.740
43341W        W 8326  21.933  40.183  10.691
43342W        W 8327  30.880  12.302  14.655
43343W        W 8328   2.572  29.460  10.684
43344W        W 8329  44.671  28.190  12.664
43345W        W 8330  42.196   0.942   0.498
43346W        W 8331   6.223  12.575   1.293
43347W        W 8332  42.356   9.709  10.865
43348W        W 8333  43.743   8.125   3.291
43349W        W 8334   4.690   4.273  13.570
43350W        W 8335  20.874  14.163  11.531
43351W        W 8336  28.215  30.105  11.122
43352W        W 8337  11.419  19.575  10.809
43353W        W 8338  33.433  38.571  14.810
43354W        W 8339  35.417  28.434  12.054
43355W        W 8340  24.554  21.884  11.446
43356W        W 8341  38.017  12.256  13.970
43357W        W 8342  19.068  16.052   5.159
43358W        W 8343  40.349   7.892  11.718
43359W        W 8344  32.427   4.152  13.635
43360W        W 8345   1.926  15.105   3.919
43361W        W 8346  30.995  23.902   1.959
43362W        W 8347  16.501  12.921   4.827
43363W        W 8348  14.531  32.177   0.804
43364W        W 8349   5.261  41.340  10.569
43365W        W 8350   7.218  11.222   2.577
43366W        W 8351  13.600  18.284   3.286
43367W        W 8352  23.843  18.973  14.783
43368W        W 8353  23.593  28.204   4.602
43369W        W 8354  41.465  41.757   1.817
43370W        W 8355  19.594  19.187  13.660
43371W        W 8356  25.439  13.225   4.192
43372W        W 8357  22.942  24.420  12.918
43373W        W 8358  12.624   2.917  12.617
43374W        W 8359  29.825  29.083   2.308
43375W        W 8360  16.166   0.704   3.197
43376W        W 8361  27.230   1.954   1.734
43377W        W 8362  24.583   9.899  12.151
43378W        W 8363  11.377  23.425   1.217
43379W        W 8364   6.930  21.152   2.648
43380W        W 8365   4.834  10.289   0.341
43381W        W 8366  16.914  44.696   1.038
43382W        W 8367  17.340   7.741  13.304
43383W        W 8368  15.153  25.439   4.542
43384W        W 8369  30.509  12.125   3.766
43385W        W 8370  18.241  19.443  14.930
43386W        W 8371   2.303   2.885   5.040
43387W        W 8372  13.388  16.082   1.922
43388W        W 8373  39.370  31.464   1.309
43389W        W 8374  36.445  23.949  11.144
43390W        W 8375  19.050  34.473  14.934
43391W        W 8376  17.507  11.989   2.516
43392W        W 8377  14.234   5.326  10.295
43393W        W 8378  39.345  19.206  12.432
43394W        W 8379  20.404   2.420  13.352
43395W        W 8380  36.018   2.868  11.675
43396W        W 8381  24.637   6.957  14.022
43397W        W 8382  15.087  10.247  12.404
43398W        W 8383  43.999   9.080  12.960
43399W        W 8384  38.687  42.773   3.098
43400W        W 8385  14.095  10.405   1.656
43401W        W 8386  36.607   8.180   1.910
43402W        W 8387  13.189  21.852  14.742
43403W        W 8388  44.305  14.286   1.230
43404W        W 8389   2.459   2.237   2.805
43405W        W 8390   0.756  18.475  12.923
43406W        W 8391  23.629  42.824   4.413
43407W        W 8392   1.690  18.988  13.274
43408W        W 8393  17.740  31.662  14.367
43409W        W 8394  10.278  34.598  12.150
43410W        W 8395  20.548  23.810  11.638
43411W        W 8396   1.513   2.681   3.355
43412W        W 8397  20.273   8.248   2.831
43413W        W 8398  30.134  11.889  14.332
43414W        W 8399   1.898  13.359   2.222
43415W        W 8400  37.470  35.873  12.441
43416W        W 8401   7.660  44.709  14.909
43417W        W 8402   5.705   2.877  13.848
43418W        W 8403  32.982  16.328   3.544
43419W        W 8404  24.147  42.016   1.664
43420W        W 8405  37.169  26.722   1.435
43421W        W 8406   6.793  18.207   0.742
43422W        W 8407  30.423  24.140  14.239
43423W        W 8408   7.457   5.469   3.602
43424W        W 8409   2.299  25.620  13.571
43425W        W 8410  12.641  27.968   0.276
43426W        W 8411  42.033  19.090   4.163
43427W        W 8412   0.928  21.832   0.236
43428W        W 8413  24.272  19.542   3.675
43429W        W 8414   4.075  29.497  14.957
43430W        W 8415   0.317  35.035  12.668
43431W        W 8416  18.707  44.318  11.161
43432W        W 8417  18.120  33.502   1.000
43433W        W 8418  39.416  22.507  13.322
43434W        W 8419  20.105  41.523   1.824
43435W        W 8420  16.498  16.825  11.609
43436W        W 8421  29.216  17.694  13.575
43437W        W 8422  36.267  34.925   2.102
43438W        W 8423  31.955   9.830   1.889
43439W        W 8424   7.778  29.227  13.186
43440W        W 8425  10.794   3.756  13.774
43441W        W 8426  34.540  42.087  12.477
43442W        W 8427  23.517  21.144  12.223
43443W        W 8428  27.526  13.086  12.080
43444W        W 8429  13.560   0.027   1.912
43445W        W 8430  41.418  11.979   3.790
43446W        W 8431  28.286  41.737  10.433
43447W        W 8432  31.526   6.637  11.960
43448W        W 8433   3.234  36.140   2.410
43449W        W 8434  12.166  28.831   1.145
43450W        W 8435  23.566  41.688   2.902
43451W        W 8436  33.984  27.277   4.119
43452W        W 8437  24.103  43.492   4.036
43453W        W 8438  27.935   6.148  13.890
43454W        W 8439   6.039  18.841  13.135
43455W        W 8440   2.807  12.189   1.415
43456W        W 8441  34.114  38.224  13.593
43457W        W 8442   4.362  36.826  12.807
43458W        W 8443  25.528  44.082   2.528
43459W        W 8444   6.726   9.240   3.265
43460W        W 8445  24.634  41.322  13.485
43461W        W 8446  12.819  24.981   0.184
43462W        W 8447  40.894  40.931   0.177
43463W        W 8448  25.283  26.494   0.236
43464W        W 8449  23.535  18.275   3.262
43465W        W 8450  15.820  28.423  13.964
43466W        W 8451  13.716  11.154   4.581
43467W        W 8452  31.287  37.221  13.454
43468W        W 8453  21.497  34.951  13.872
43469W        W 8454  17.512  14.419  10.275
43470W        W 8455  22.328   5.875   2.125
43471W        W 8456  28.640  24.268  12.893
43472W        W 8457  24.452  25.407  11.209
43473W        W 8458   1.904  38.311   0.141
43474W        W 8459  41.491  39.275   3.734
43475W        W 8460  32.945  22.044  10.715
43476W        W 8461  26.650   3.204   4.474
43477W        W 8462  34.778  15.858   1.317
43478W        W 8463  32.825  13.781   4.661
43479W        W 8464  39.633  33.205   0.245
43480W        W 8465  14.533  22.618  12.068
43481W        W 8466  32.530   5.621  13.415
43482W        W 8467  31.427  30.630  11.174
43483W        W 8468   2.695  12.795  14.047
43484W        W 8469  28.175  23.126   4.650
43485W        W 8470  14.060   8.706   4.027
43486W        W 8471   6.560  43.539  13.887
43487W        W 8472  19.286  25.399   4.796
43488W        W 8473  35.198  32.905   2.419
43489W        W 8474   9.979  43.008  11.468
43490W        W 8475  11.776  12.594   3.531
43491W        W 8476  38.607  28.193   3.635
43492W        W 8477  34.576  36.005  14.049
43493W        W 8478  40.091  31.017   2.271
43494W        W 8479  43.494   1.415   1.367
43495W        W 8480  14.111  27.967   0.522
43496W        W 8481  16.599  13.260   1.301
43497W        W 8482  35.267  13.166  13.017
43498W        W 8483   5.420  26.990  14.277
43499W        W 8484   8.333  15.612   3.776
43500W        W 8485  24.037   8.364  12.616
43501W        W 8486  29.943  33.674   2.193
43502W        W 8487  40.982   5.408  11.550
43503W        W 8488  18.682  35.841  12.964
43504W        W 8489  32.670  14.371   1.302
43505W        W 8490   4.464   9.953  14.495
43506W        W 8491  26.951   5.740  14.478
43507W        W 8492  10.102   5.251  12.487
43508W        W 8493  12.530  11.578  11.659
43509W        W 8494  19.333  18.200   3.266
43510W        W 8495   5.392  24.695  12.471
43511W        W 8496  23.664  30.700   0.362
43512W        W 8497  33.836  28.537  12.070
43513W        W 8498  19.696   4.703   3.607
43514W        W 8499   3.017   3.311   3.995
43515W        W 8500  21.601  26.919  14.519
43516W        W 8501  38.921   9.161  13.939
43517W        W 8502  35.882   4.436   5.133
43518W        W 8503  22.179  10.779   2.117
43519W        W 8504  24.457  43.510  11.555
43520W        W 8505   9.877   8.841   0.276
43521W        W 8506  18.223  39.247  14.629
43522W        W 8507  43.415  28.365   3.669
43523W        W 8508   8.683  31.084   1.645
43524W        W 8509  18.235   7.488   2.554
43525W        W 8510  34.921  24.118  13.598
43526W        W 8511  22.093  30.751  11.959
43527W        W 8512   8.277   6.311   0.350
43528W        W 8513  39.410   2.284   1.202
43529W        W 8514  29.252   5.763  12.343
43530W        W 8515  10.912   5.992  10.666
43531W        W 8516  39.092  36.383   1.775
43532W        W 8517  34.826  41.798  10.741
43533W        W 8518  41.925  44.839  10.844
43534W        W 8519   0.856  29.419   1.250
43535W        W 8520  33.484  28.935  13.540
43536W        W 8521   5.478   1.874   1.283
43537W        W 8522  12.865  29.189  11.093
43538W        W 8523  43.275  11.805  11.207
43539W        W 8524  27.923  20.466   0.961
43540W        W 8525  39.442  12.342  11.614
43541W        W 8526  33.438  32.012   1.332
43542W        W 8527  27.490  23.057  14.507
43543W        W 8528  19.048  38.189  12.558
43544W        W 8529  20.233   5.440  14.985
43545W        W 8530  11.807  30.264  11.685
43546W        W 8531   3.232  20.713   3.815
43547W        W 8532  33.037  41.610   0.609
43548W        W 8533   8.718  33.991   0.963
43549W        W 8534  16.483  43.324  12.028
43550W        W 8535  33.205  31.229   3.741
43551W        W 8536  31.150  13.714   4.143
43552W        W 8537  30.719  35.565  11.967
43553W        W 8538   6.306   1.742   4.039
43554W        W 8539  25.000  42.509   3.362
43555W        W 8540  37.986  37.937   2.674
43556W        W 8541  32.173  38.983  10.351
43557W        W 8542  40.564  22.680  14.952
43558W        W 8543  18.056  34.471  11.296
43559W        W 8544  44.930  44.366  12.821
43560W        W 8545  34.573  26.449  14.101
43561W        W 8546  26.882  31.647  14.319
43562W        W 8547  33.962  29.489  13.877
43563W        W 8548  14.584  20.184  14.922
43564W        W 8549   1.294   1.068  12.071
43565W        W 8550  20.554  15.621  13.490
43566W        W 8551  25.582  14.742  11.163
43567W        W 8552  15.189   1.377   0.551
43568W        W 8553  18.909  23.549   3.999
43569W        W 8554  37.844  12.820  11.260
43570W        W 8555  18.002  13.430   4.004
43571W        W 8556  11.915  42.308   1.754
43572W        W 8557   6.998  21.982  11.129
43573W        W 8558   0.218  34.575   0.185
43574W        W 8559  44.324  24.600  11.619
43575W        W 8560   6.251  44.123   2.842
43576W        W 8561  20.710  41.343   2.357
43577W        W 8562  22.400  36.425   1.493
43578W        W 8563  14.523  37.527   1.443
43579W        W 8564  43.458  38.812  11.606
43580W        W 8565  10.772  30.445   1.018
43581W        W 8566  22.122   9.648  11.471
43582W        W 8567  42.063  17.554   2.376
43583W        W 8568  41.352  44.208   3.488
43584W        W 8569   1.862   0.651   2.274
43585W        W 8570  11.767  35.993   4.130
43586W        W 8571  30.622  12.955  10.498
43587W        W 8572  44.593   3.714  12.335
43588W        W 8573  33.533  33.308   1.731
43589W        W 8574  39.038  11.710  11.197
43590W        W 8575  35.126  27.992   4.114
43591W        W 8576   8.677  23.412   2.397
43592W        W 8577   0.915  32.182   4.088
43593W        W 8578   8.750  20.012  11.780
43594W        W 8579  31.642  41.539   1.753
43595W        W 8580  39.907   1.810   0.979
43596W        W 8581  18.699  39.340  14.450
43597W        W 8582  23.618   7.003  11.168
43598W        W 8583  25.960  40.761  13.911
43599W        W 8584  44.344   4.313   4.272
43600W        W 8585  22.207  12.383  10.735
43601W        W 8586   9.789   3.718  12.356
43602W        W 8587  31.071   4.485  13.602
43603W        W 8588  34.418  19.972  13.318
43604W        W 8589  36.827  36.049  12.706
43605W        W 8590  44.460  16.075  12.999
43606W        W 8591  29.718   5.316   3.081
43607W        W 8592   6.605  29.283   5.061
43608W        W 8593  43.417  31.228  13.962
43609W        W 8594   2.322  24.272  10.809
43610W        W 8595  15.085  24.521   4.198
43611W        W 8596   6.158  20.209  13.883
43612W        W 8597  34.014  24.646   2.355
43613W        W 8598  17.762  24.736   1.746
43614W        W 8599  26.952   1.902  12.119
43615W        W 8600  13.492  35.219   3.816
43616W        W 8601   4.183  16.400  12.937
43617W        W 8602  20.359  37.530  11.193
43618W        W 8603  32.574  39.015  11.136
43619W        W 8604   7.172  15.280   2.844
43620W        W 8605  31.450  11.704  13.020
43621W        W 8606  33.149  34.067   1.727
43622W        W 8607   5.254  36.090  11.918
43623W        W 8608  30.430  43.374  13.955
43624W        W 8609  32.230  35.330   3.140
43625W        W 8610  11.750   8.317  12.566
43626W        W 8611  35.209  35.051  13.820
43627W        W 8612   7.410  28.372  12.061
43628W        W 8613   1.003  37.103   3.648
43629W        W 8614  12.078  34.930  13.250
43630W        W 8615   9.172  44.422   3.500
43631W        W 8616  23.329  24.439  14.894
43632W        W 8617   3.454  10.238  13.938
43633W        W 8618  39.016  20.855  10.501
43634W        W 8619  22.833  18.500  13.981
43635W        W 8620  41.044  44.740   2.261
43636W        W 8621   6.256  19.809   1.808
43637W        W 8622  37.045   4.010  14.764
43638W        W 8623  40.376  34.164   4.841
43639W        W 8624  21.207   2.828   3.594
43640W        W 8625  33.036   5.874   4.503
43641W        W 8626  30.178  31.494  14.285
43642W        W 8627  24.834  43.899   3.725
43643W        W 8628   3.013  42.400   0.311
43644W        W 8629  42.562  42.871   1.289
43645W        W 8630  22.118   2.915   2.565
43646W        W 8631  14.709  14.227   4.552
43647W        W 8632   5.504  40.412   0.842
43648W        W 8633  40.307  36.689   3.152
43649W        W 8634  42.653   8.358   2.401
43650W        W 8635  40.030  35.851   3.106
43651W        W 8636  39.389  12.772   0.888
43652W        W 8637  29.147  26.922  14.027
43653W        W 8638  18.770  15.694  13.043
43654W        W 8639  24.411   1.582  10.131
43655W        W 8640  16.098  19.175  10.715
43656W        W 8641  33.648  32.486   1.227
43657W        W 8642  31.387  44.987  14.491
43658W        W 8643  19.828  14.757   4.578
43659W        W 8644  43.866  40.807   4.547
43660W        W 8645  33.322  39.833  14.263
43661W        W 8646  11.310  27.757  14.290
43662W        W 8647   3.850   5.873   1.048
43663W        W 8648  36.180  44.396   4.225
43664W        W 8649   7.233  32.411  11.402
43665W        W 8650  28.728  17.560  13.722
43666W        W 8651  32.884  28.678  12.477
43667W        W 8652  11.084  15.602  11.876
43668W        W 8653   9.469  36.991   1.258
43669W        W 8654  35.699   3.731  11.709
43670W        W 8655  14.596   3.501  13.775
43671W        W 8656  13.789  42.448  13.467
43672W        W 8657  17.709  32.916  12.093
43673W        W 8658  18.946   2.417  13.443
43674W        W 8659  12.869   2.260   4.616
43675W        W 8660  37.485  34.084  10.032
43676W        W 8661  42.879   0.424  11.165
43677W        W 8662  13.788  24.174   3.197
43678W        W 8663   7.430  31.813   2.229
43679W        W 8664  14.648  38.417   1.747
43680W        W 8665  29.630  11.734  13.079
43681W        W 8666  23.641   2.211   1.700
43682W        W 8667   7.968  25.718  12.086
43683W        W 8668   1.008  31.845  11.673
43684W        W 8669   8.590  10.679  12.820
43685W        W 8670  13.351  36.956  14.363
43686W        W 8671  44.342  11.317  12.547
43687W        W 8672   8.820  34.337  10.660
43688W        W 8673  11.327  16.862  14.776
43689W        W 8674  36.013   6.165  14.403
43690W        W 8675  16.525  44.322   0.984
43691W        W 8676  17.858   7.872   0.879
43692W        W 8677  10.837   8.785   4.547
43693W        W 8678  44.768  39.010  11.647
43694W        W 8679  30.816   9.233   4.836
43695W        W 8680  33.745  29.080   0.377
43696W        W 8681  29.986  28.990   4.661
43697W        W 8682  26.022  12.005  14.478
43698W        W 8683  20.716  27.149  12.553
43699W        W 8684  23.789  39.982   2.152
43700W        W 8685  11.563  32.639   2.217
43701W        W 8686  33.500   2.967   1.684
43702W        W 8687  42.913  41.785   4.975
43703W        W 8688  33.673  28.979   1.781
43704W        W 8689  26.245   9.733  14.370
43705W        W 8690   3.967  10.175  12.438
43706W        W 8691  31.626  43.631   4.563
43707W        W 8692  15.109  25.991   2.648
43708W        W 8693  29.850  39.493   1.379
43709W        W 8694  23.780  44.236   0.211
43710W        W 8695  25.981  36.468   0.293
43711W        W 8696  12.376  20.976  11.853
43712W        W 8697  42.889  28.677  12.467
43713W        W 8698  10.199  19.573  11.545
43714W        W 8699  30.179  44.717  13.355
43715W        W 8700  37.116  35.675  13.262
43716W        W 8701   6.362  42.801  10.916
43717W        W 8702  29.331  28.341   2.835
43718W        W 8703  42.031  38.365   2.130
43719W        W 8704  37.755  43.025   5.044
43720W        W 8705  24.260  11.241   1.361
43721W        W 8706  21.014  24.764   4.258
43722W        W 8707  15.237   1.479   1.928
43723W        W 8708  38.759  26.844  14.463
43724W        W 8709  24.731  21.542  12.057
43725W        W 8710  30.164  36.752   3.768
43726W        W 8711   0.852  41.087  14.573
43727W        W 8712   5.679   9.692  12.387
43728W        W 8713  25.148  33.166  12.010
43729W        W 8714  22.970  21.733  10.290
43730W        W 8715  25.454  35.910   4.746
43731W        W 8716  36.972  39.094  10.903
43732W        W 8717  11.323   2.924   3.454
43733W        W 8718   1.144  12.667   3.275
43734W        W 8719   1.422  21.985   4.190
43735W        W 8720  43.211  33.853   4.597
43736W        W 8721   1.634  11.436   1.756
43737W        W 8722  30.036   7.813  12.081
43738W        W 8723  42.860  37.372   0.768
43739W        W 8724  26.744  18.460  11.136
43740W        W 8725  31.485  10.418   3.200
43741W        W 8726  32.531  17.618  13.408
43742W        W 8727  19.337  37.116   0.371
43743W        W 8728  19.085  40.673  12.416
43744W        W 8729  27.964  28.927   2.321
43745W        W 8730  12.771  29.053   3.801
43746W        W 8731  16.301  23.291   0.849
43747W        W 8732  36.944  29.243   3.630
43748W        W 8733  26.052  33.636  14.822
43749W        W 8734   0.442  17.972  13.994
43750W        W 8735  13.235  15.545   0.588
43751W        W 8736  14.367  19.523  14.949
43752W        W 8737  43.322  12.915  12.609
43753W        W 8738  10.527  22.019  11.464
43754W        W 8739  15.136   9.567   9.944
43755W        W 8740   4.657  39.177  14.856
43756W        W 8741  43.346  41.034  13.991
43757W        W 8742   1.773  25.980  14.339
43758W        W 8743  22.787   9.342   1.125
43759W        W 8744   0.005  29.116   1.312
43760W        W 8745  13.628   8.387   3.226
43761W        W 8746  13.857  25.613  14.533
43762W        W 8747  14.874  24.557  10.712
43763W        W 8748  21.614   5.418  12.846
43764W        W 8749  17.882  21.457   3.075
43765W        W 8750   3.606  26.064   1.641
43766W        W 8751  11.348  29.373   1.394
43767W        W 8752  17.163  43.711  13.414
43768W        W 8753  15.259  30.884   0.039
43769W        W 8754  44.474   6.482  14.006
43770W        W 8755   5.155  41.992   1.326
43771W        W 8756  37.524  11.482   1.005
43772W        W 8757  26.542  34.468  13.938
43773W        W 8758  31.556   3.693  12.460
43774W        W 8759  32.467  14.254  14.326
43775W        W 8760   7.669   8.592   4.648
43776W        W 8761   3.968  12.420   2.282
43777W        W 8762  41.755  31.531  12.013
43778W        W 8763  26.134  39.714  11.267
43779W        W 8764  26.682  21.957  11.991
43780W        W 8765  33.017   1.268  11.546
43781W        W 8766  13.234  16.661   3.675
43782W        W 8767  42.798  11.584  11.186
43783W        W 8768   9.349  10.738  11.580
43784W        W 8769  24.254   3.642  13.605
43785W        W 8770   8.068  32.187  14.191
43786W        W 8771  15.234  22.753   3.769
43787W        W 8772  38.440   6.218  11.695
43788W        W 8773  34.431  11.770   3.641
43789W        W 8774  43.793  41.704  12.388
43790W        W 8775   3.957  23.564   0.758
43791W        W 8776   1.491  36.003  14.967
43792W        W 8777  41.516   0.652  11.236
43793W        W 8778  44.840  33.912  12.458
43794W        W 8779  34.798  14.416   2.580
43795W        W 8780   3.745  41.346  13.495
43796W        W 8781  32.085   6.399  11.165
43797W        W 8782   9.149   5.430  13.565
43798W        W 8783  25.006  38.782  14.246
43799W        W 8784  11.454  34.896  10.921
43800W        W 8785  21.133   8.171   2.139
43801W        W 8786  39.744   5.880   0.507
43802W        W 8787  32.637  31.144   4.575
43803W        W 8788  12.314   9.409   0.313
43804W        W 8789   8.786  25.134  10.787
43805W        W 8790  44.374  36.462  11.083
43806W        W 8791  38.329   9.762   1.673
43807W        W 8792  34.132  22.269   0.210
43808W        W 8793   6.262  22.213  10.724
43809W        W 8794  33.973   1.662  11.489
43810W        W 8795  30.678  10.238  13.127
43811W        W 8796  28.147  39.965   0.793
43812W        W 8797  34.013  35.825  14.764
43813W        W 8798  35.317  40.578  13.460
43814W        W 8799  31.110  25.292   2.333
43815W        W 8800  24.554  43.937   1.809
43816W        W 8801   6.295  23.222   2.655
43817W        W 8802  17.773  27.640   0.835
43818W        W 8803  17.886  10.773   4.921
43819W        W 8804  18.531  21.614  11.084
43820W        W 8805  14.366   3.839  10.928
43821W        W 8806  42.835  35.096   1.420
43822W        W 8807  27.142  16.711  11.121
43823W        W 8808  14.704  19.794   1.400
43824W        W 8809  38.688  35.730   4.896
43825W        W 8810  28.545  24.287  14.488
43826W        W 8811  20.738  30.182   1.331
43827W        W 8812  19.177  39.948  12.901
43828W        W 8813  30.901  20.540  14.916
43829W        W 8814  44.163  23.605  14.976
43830W        W 8815  21.124   1.903  12.683
43831W        W 8816  25.763  22.010   3.746
43832W        W 8817  17.316   1.235  14.363
43833W        W 8818  29.253   4.920  10.757
43834W        W 8819  44.278  28.898  11.750
43835W        W 8820   8.174  15.551   1.413
43836W        W 8821  21.967  14.398  11.478
43837W        W 8822  44.059  11.403   3.125
43838W        W 8823   2.978  39.521  14.726
43839W        W 8824  19.642   3.002   2.299
43840W        W 8825  22.779   6.720   1.658
43841W        W 8826  22.753  33.631   4.145
43842W        W 8827  33.270   4.821   3.647
43843W        W 8828  30.454   2.785   0.615
43844W        W 8829  42.212  22.664   0.781
43845W        W 8830  11.715  18.800  11.675
43846W        W 8831  36.719  28.792   3.484
43847W        W 8832  43.374  10.022   3.188
43848W        W 8833  30.487  30.361   0.973
43849W        W 8834  16.739  15.261   4.667
43850W        W 8835  23.360  18.212   3.736
43851W        W 8836  41.007   5.779   3.302
43852W        W 8837   3.313  37.966   4.907
43853W        W 8838  21.015  12.365   1.432
43854W        W 8839  34.955  44.393   1.333
43855W        W 8840  15.088  30.360   1.649
43856W        W 8841  44.827  36.763   2.241
43857W        W 8842  11.962  35.905   0.222
43858W        W 8843  27.259  34.058   0.705
43859W        W 8844  21.927  27.826  13.630
43860W        W 8845  30.730  17.940   3.410
43861W        W 8846  11.880  33.852  10.346
43862W        W 8847  18.696   6.944   2.089
43863W        W 8848  27.099  37.157  10.589
43864W        W 8849  44.434   4.845   0.586
43865W        W 8850  20.705  39.397  11.686
43866W        W 8851  44.940   8.933  12.044
43867W        W 8852  17.597  20.311   0.841
43868W        W 8853  40.234  22.748  14.529
43869W        W 8854  31.577  41.463  12.546
43870W        W 8855   7.813  19.018   0.736
43871W        W 8856  39.410   8.800   1.207
43872W        W 8857  23.223  34.649   1.685
43873W        W 8858  15.714  34.457  11.584
43874W        W 8859   7.135  32.337  13.497
43875W        W 8860  17.587  38.942   0.360
43876W        W 8861  42.455  18.439   3.671
43877W        W 8862  22.011  26.190  11.128
43878W        W 8863  11.667  27.040   4.257
43879W        W 8864  38.123  37.495  13.856
43880W        W 8865   5.302  15.783  12.813
43881W        W 8866  38.585  36.466   3.863
43882W        W 8867  18.228  41.623   1.085
43883W        W 8868  32.413  16.654   3.570
43884W        W 8869  40.306  11.399   0.368
43885W        W 8870  25.702   5.418  13.884
43886W        W 8871  20.223  25.035  13.717
43887W        W 8872   5.030  16.768   4.361
43888W        W 8873  21.009  26.259   3.273
43889W        W 8874  36.953  35.459   4.326
43890W        W 8875  33.152  40.489  10.750
43891W        W 8876   7.475  25.235  13.913
43892W        W 8877  39.434  15.613  11.970
43893W        W 8878  10.142  25.676   0.149
43894W        W 8879  34.063  26.886  10.892
43895W        W 8880  32.025   9.099   5.303
43896W        W 8881   7.168  44.802  14.838
43897W        W 8882  24.407   9.066   2.661
43898W        W 8883  14.101  26.894  13.388
43899W        W 8884  35.094  19.932  12.029
43900W        W 8885   0.344  24.324  14.298
43901W        W 8886  17.667  41.012   1.296
43902W        W 8887  14.768  33.713  13.248
43903W        W 8888  44.803  44.713  10.332
43904W        W 8889  34.622   2.971   4.724
43905W        W 8890  10.597  25.882  13.402
43906W        W 8891  36.952  16.816   1.259
43907W        W 8892  43.858  43.548  11.920
43908W        W 8893  35.381  21.649   4.860
43909W        W 8894  19.277  29.081  13.506
43910W        W 8895  37.199   4.506  14.808
43911W        W 8896  13.568  21.232   1.375
43912W        W 8897  37.252  42.566  12.939
43913W        W 8898  40.413  28.833  11.679
43914W        W 8899  12.658  32.166  13.907
43915W        W 8900  27.721  17.063   0.077
43916W        W 8901  29.451  43.475   4.156
43917W        W 8902  35.392  34.585   2.392
43918W        W 8903  29.146  38.809   3.251
43919W        W 8904  15.605  38.418  14.801
43920W        W 8905  41.239  15.516   3.209
43921W        W 8906   0.445  40.083  13.412
43922W        W 8907  19.489  11.184  11.633
43923W        W 8908   3.933  30.703  11.595
43924W        W 8909  41.965  29.203   0.263
43925W        W 8910  34.079  33.789   4.841
43926W        W 8911  44.090  38.028  10.243
43927W        W 8912  27.767   0.218   0.281
43928W        W 8913  38.934  21.978   4.260
43929W        W 8914  41.867  35.982   2.464
43930W        W 8915  31.265  13.233   0.295
43931W        W 8916  11.244  10.779   3.570
43932W        W 8917   3.868  38.570  14.782
43933W        W 8918  41.872   5.310   0.733
43934W        W 8919  31.587  18.193  13.335
43935W        W 8920  43.503  11.935   1.975
43936W        W 8921  27.413   1.517   0.077
43937W        W 8922  10.969  33.331  14.861
43938W        W 8923   1.886  41.751  11.924
43939W        W 8924  28.094   4.740   0.385
43940W        W 8925  19.702  23.611  12.914
43941W        W 8926  10.793  34.590   1.753
43942W        W 8927  18.146  22.471  14.396
43943W        W 8928  30.018  34.615   0.124
43944W        W 8929  20.564  15.740   1.440
43945W        W 8930  30.636  16.627  11.198
43946W        W 8931  16.289  27.188   2.269
43947W        W 8932  22.961  24.316   0.241
43948W        W 8933   6.352  40.486  14.513
43949W        W 8934  35.739  19.373  12.944
43950W        W 8935  41.831   3.897   4.354
43951W        W 8936  41.146  23.317   3.364
43952W        W 8937   4.305  19.966  10.565
43953W        W 8938  22.882   8.365   3.521
43954W        W 8939  13.118  32.366  11.094
43955W        W 8940   8.612  38.864   4.239
43956W        W 8941   7.098  18.759   2.147
43957W        W 8942  24.736  38.113   3.809
43958W        W 8943  20.293   1.985  12.547
43959W        W 8944   2.424  38.315  13.446
43960W        W 8945  43.837  38.448  12.989
43961W        W 8946  32.140   5.375   3.828
43962W        W 8947  21.544  12.251   1.549
43963W        W 8948  30.022  27.567   2.744
43964W        W 8949  10.262   8.127  11.657
43965W        W 8950  15.570   0.512   2.598
43966W        W 8951   1.318  27.673  12.022
43967W        W 8952  20.624  27.108   2.899
43968W        W 8953  19.535  21.255  11.624
43969W        W 8954   5.417  11.282  11.834
43970W        W 8955   0.315  30.435   4.855
43971W        W 8956   0.775  16.660   0.610
43972W        W 8957  21.802  16.046  10.507
43973W        W 8958  31.871  34.418  12.889
43974W        W 8959   0.150  21.263  14.348
43975W        W 8960  24.012  34.881   3.690
43976W        W 8961   5.060  14.061   9.906
43977W        W 8962  18.313  34.850   0.867
43978W        W 8963   5.406  15.365   4.219
43979W        W 8964   8.722  28.973  11.617
43980W        W 8965   9.968  24.020   2.220
43981W        W 8966   7.863  14.398  14.387
43982W        W 8967  15.672  12.645   3.106
43983W        W 8968  30.528  29.946   0.597
43984W        W 8969  36.978  33.680   3.982
43985W        W 8970  43.964  18.269   0.842
43986W        W 8971   7.450  24.354  11.869
43987W        W 8972  42.761   4.283  12.169
43988W        W 8973  37.069  19.114  14.096
43989W        W 8974   0.582  24.258  13.846
43990W        W 8975  40.561  14.436   0.530
43991W        W 8976  35.438  31.999   2.264
43992W        W 8977  16.040  38.791  10.839
43993W        W 8978  32.369  21.341   4.155
43994W        W 8979  36.145  21.522  11.963
43995W        W 8980   0.945   0.771  14.757
43996W        W 8981   8.320  33.883   2.424
43997W        W 8982  22.207  27.412   2.877
43998W        W 8983  26.166  21.910  14.252
43999W        W 8984  29.932   7.762   0.912
44000W        W 8985  31.140  42.704   4.518
44001W        W 8986   0.823   2.760  11.050
44002W        W 8987  20.284  32.012  13.489
44003W        W 8988  41.024  14.480   2.893
44004W        W 8989  22.928   1.071  12.104
44005W        W 8990   6.465  10.035   0.923
44006W        W 8991  15.699  37.054   0.031
44007W        W 8992  11.678   3.399  11.829
44008W        W 8993  28.692   7.961   0.251
44009W        W 8994   7.995  22.187  11.168
44010W        W 8995  43.972  43.525   4.766
44011W        W 8996  31.113  24.173   1.001
44012W        W 8997   6.426  20.743  14.035
44013W        W 8998  24.706  23.072  12.866
44014W        W 8999  32.984  41.757   3.127
44015W        W 9000  38.830  43.677  13.826
44016W        W 9001  27.594  22.045  13.753
44017W        W 9002  35.451  23.840   3.158
44018W        W 9003  28.647   6.788   4.155
44019W        W 9004  26.122  20.109  14.021
44020W        W 9005   5.325   8.266   3.869
44021W        W 9006  13.846  39.271   0.435
44022W        W 9007  27.719   3.709  12.403
44023W        W 9008  14.222   5.145   1.729
44024W        W 9009  18.846  15.249   3.313
44025W        W 9010  26.079  16.571  11.170
44026W        W 9011   0.267  40.306   1.897
44027W        W 9012  19.685  23.176  12.665
44028W        W 9013   4.993   4.061   4.536
44029W        W 9014  34.078  13.110  12.597
44030W        W 9015  38.117   7.852  14.808
44031W        W 9016   4.369  11.074   3.679
44032W        W 9017  13.349   7.872   4.606
44033W        W 9018  13.873  32.695  11.463
44034W        W 9019   8.032  40.024  10.452
44035W        W 9020  19.652  29.671   1.339
44036W        W 9021  23.015  37.601  11.975
44037W        W 9022  29.145  37.272   2.922
44038W        W 9023   2.316  18.811  10.695
44039W        W 9024  26.789  13.832   2.350
44040W        W 9025   7.364  42.839   1.383
44041W        W 9026  10.747   3.458   1.711
44042W        W 9027  35.968  12.201  12.599
44043W        W 9028  42.327  44.698   4.852
44044W        W 9029  30.525   4.919  10.175
44045W        W 9030  39.115  21.751  14.416
44046W        W 9031  40.384  16.031  12.166
44047W        W 9032  39.006  26.050   3.923
44048W        W 9033   8.827  41.871   3.629
44049W        W 9034  29.466   4.997   2.702
44050W        W 9035   6.746  32.952  14.349
44051W        W 9036  20.848  17.657  13.608
44052W        W 9037  42.821   1.296   2.149
44053W        W 9038   4.896   9.129  10.685
44054W        W 9039  10.793  38.625  11.568
44055W        W 9040  39.547  22.087  14.764
44056W        W 9041  38.848  20.009  14.542
44057W        W 9042  24.617   9.396   4.557
44058W        W 9043  27.594   7.172  14.849
44059W        W 9044  18.009  26.990   3.252
44060W        W 9045  17.423  43.623  11.487
44061W        W 9046  25.519  12.579   3.359
44062W        W 9047   9.729  33.353  14.645
44063W        W 9048  36.101   8.068   2.160
44064W        W 9049  28.757  27.843  13.714
44065W        W 9050  23.710  16.543  14.357
44066W        W 9051  35.632  20.762  10.599
44067W        W 9052  14.540  19.081  11.583
44068W        W 9053  30.930  36.062   4.688
44069W        W 9054  18.540  18.523  12.551
44070W        W 9055   8.363   3.245  11.521
44071W        W 9056  40.466  34.712   1.803
44072W        W 9057  20.497  38.911   0.867
44073W        W 9058  31.475  29.133  14.456
44074W        W 9059  11.767  44.196  13.569
44075W        W 9060  23.307  40.373   1.866
44076W        W 9061  16.170  11.306  12.059
44077W        W 9062  37.095   7.999  14.413
44078W        W 9063  20.254  34.469  11.938
44079W        W 9064  38.019  33.454   3.277
44080W        W 9065   4.661  36.474   3.211
44081W        W 9066  24.704  43.906  10.692
44082W        W 9067  19.202  12.395  11.624
44083W        W 9068   9.322  25.331  14.517
44084W        W 9069  32.315   7.258   3.066
44085W        W 9070  42.889  16.629  13.916
44086W        W 9071  32.665  29.955   0.239
44087W        W 9072  39.427  38.002  14.114
44088W        W 9073  38.097  28.477   2.354
44089W        W 9074   5.141  43.735   0.682
44090W        W 9075  12.139  15.363  10.154
44091W        W 9076  20.225   3.740   1.001
44092W        W 9077  41.863   7.174  10.814
44093W        W 9078  19.984  20.284   5.026
44094W        W 9079  16.230   0.893  10.968
44095W        W 9080   6.414  30.962   3.750
44096W        W 9081  16.586  36.969   2.067
44097W        W 9082  40.212   4.408  12.555
44098W        W 9083  32.477   0.859   0.875
44099W        W 9084  16.639  13.189   4.405
44100W        W 9085  27.917  15.076  11.480
44101W        W 9086   8.753  31.704  13.137
44102W        W 9087   1.567  42.486   4.547
44103W        W 9088  26.636   7.886  12.284
44104W        W 9089  40.000  12.199   0.008
44105W        W 9090  28.152  25.470   3.767
44106W        W 9091   0.819  14.618  10.741
44107W        W 9092  42.746  24.536   4.864
44108W        W 9093  13.298  33.698   0.808
44109W        W 9094  18.128  38.750  14.711
44110W        W 9095  24.214  12.638   0.982
44111W        W 9096  37.104  32.670   3.222
44112W        W 9097  25.084  11.352   1.552
44113W        W 9098  26.266  31.269   2.143
44114W        W 9099  11.913   8.623  10.650
44115W        W 9100  39.332   1.840  14.465
44116W        W 9101  13.763  35.072   1.748
44117W        W 9102  12.166  17.593  11.171
44118W        W 9103  38.356  35.250   0.233
44119W        W 9104  21.531   7.609  11.161
44120W        W 9105  41.828  22.958   0.539
44121W        W 9106   3.694  16.045  13.809
44122W        W 9107   1.171  27.394  12.595
44123W        W 9108  21.240  12.528   1.865
44124W        W 9109  27.424  41.574   4.794
44125W        W 9110  27.155   9.254   1.757
44126W        W 9111  10.190  33.233  14.893
44127W        W 9112  42.744   6.934  11.444
44128W        W 9113  42.142   9.782   3.761
44129W        W 9114  23.332  13.257  10.695
44130W        W 9115  10.748  41.286  10.670
44131W        W 9116   9.512  13.012   2.274
44132W        W 9117  33.288  32.028   4.554
44133W        W 9118   2.224  15.188  14.789
44134W        W 9119  37.950  21.201   2.754
44135W        W 9120  22.676  40.881   0.314
44136W        W 9121  26.079   4.893  12.883
44137W        W 9122  23.672  12.791   3.596
44138W        W 9123  19.245  22.776   4.589
44139W        W 9124  12.284  23.721  13.991
44140W        W 9125  33.461   0.192   0.466
44141W        W 9126  43.855  13.120   1.831
44142W        W 9127  29.051   9.604   4.661
44143W        W 9128  16.273  21.846   2.488
44144W        W 9129   3.245  31.336  13.900
44145W        W 9130  44.209  21.868  14.006
44146W        W 9131   3.748  22.733   4.729
44147W        W 9132  41.109  42.890   2.313
44148W        W 9133  13.615  23.726   4.305
44149W        W 9134  26.383  43.298   0.988
44150W        W 9135  18.007  33.822  12.090
44151W        W 9136  14.270  19.117  13.475
44152W        W 9137  10.247  38.723   4.389
44153W        W 9138  12.769  24.761   4.153
44154W        W 9139  12.197  44.763   5.054
44155W        W 9140  15.373  24.152   3.978
44156W        W 9141  24.001  30.490   3.631
44157W        W 9142  32.084  14.747  13.242
44158W        W 9143  44.067   6.138   4.141
44159W        W 9144   0.252  14.573  13.570
44160W        W 9145  26.137  13.194  10.654
44161W        W 9146  14.927  20.051  11.810
44162W        W 9147  33.041  15.880  10.595
44163W        W 9148   7.807   3.346   0.700
44164W        W 9149  42.559  36.274  10.547
44165W        W 9150  13.201  14.355  12.470
44166W        W 9151  26.771  25.937  11.023
44167W        W 9152  10.196  41.074  12.990
44168W        W 9153  11.769   8.264   4.678
44169W        W 9154  11.840   8.735   0.780
44170W        W 9155  31.050  30.618  12.146
44171W        W 9156  39.257  22.121   0.764
44172W        W 9157  34.413  40.607  12.475
44173W        W 9158  10.261  42.577  13.610
44174W        W 9159   0.916  41.892   2.755
44175W        W 9160  41.401  42.274   0.938
44176W        W 9161   2.253  43.334  12.105
44177W        W 9162  18.030  40.118  14.854
44178W        W 9163   2.161   4.645  14.869
44179W        W 9164  33.556  37.174  12.501
44180W        W 9165  23.211  10.909   0.397
44181W        W 9166  11.258  14.276   0.740
44182W        W 9167  38.625  17.559   0.314
44183W        W 9168  11.794  21.082   3.103
44184W        W 9169   7.470  35.900  14.486
44185W        W 9170  18.567  10.543   4.187
44186W        W 9171  31.473  25.151   1.973
44187W        W 9172   3.279  32.980  11.167
44188W        W 9173  20.802   2.336   4.094
44189W        W 9174  39.092  18.783   0.746
44190W        W 9175  18.734  34.139  13.304
44191W        W 9176  19.570  12.447   2.592
44192W        W 9177  39.913  34.173   4.066
44193W        W 9178  14.411  19.630   1.793
44194W        W 9179  21.636  10.320   0.275
44195W        W 9180  11.894   1.859   2.789
44196W        W 9181  19.160   9.774   4.184
44197W        W 9182  44.883  24.674   0.778
44198W        W 9183  27.586   5.751   5.336
44199W        W 9184  10.586  12.079  10.680
44200W        W 9185   1.298  25.765   3.224
44201W        W 9186  29.388  12.321  12.204
44202W        W 9187  33.473  25.628   1.601
44203W        W 9188  31.397  28.471   2.812
44204W        W 9189   6.440  33.982  14.998
44205W        W 9190  20.167   8.660  11.191
44206W        W 9191   9.995  21.051   0.701
44207W        W 9192   9.779  30.560  12.271
44208W        W 9193  42.553  19.989  12.859
44209W        W 9194  22.165  40.620   4.860
44210W        W 9195  40.802  15.144   4.957
44211W        W 9196  16.121  13.456   3.218
44212W        W 9197  35.473  30.008   0.933
44213W        W 9198  33.130  42.698   1.035
44214W        W 9199  11.149   2.543  11.892
44215W        W 9200  30.842  39.132  14.847
44216W        W 9201  15.803  23.647   4.743
44217W        W 9202  12.617   5.977  10.779
44218W        W 9203   3.643   5.559  12.970
44219W        W 9204  15.641   5.905  12.179
44220W        W 9205   9.411   3.356   4.101
44221W        W 9206  16.924  34.399   0.748
44222W        W 9207   0.152  38.529  12.229
44223W        W 9208  17.561   1.437   2.030
44224W        W 9209  42.468  36.538  12.357
44225W        W 9210  31.129  35.881   2.738
44226W        W 9211   6.866  18.108   1.235
44227W        W 9212  42.381  31.756   0.483
44228W        W 9213  27.160  13.873  12.422
44229W        W 9214  44.532   6.681   1.447
44230W        W 9215   3.220  17.740  14.225
44231W        W 9216  23.953  28.978  13.913
44232W        W 9217  41.504   7.736  12.561
44233W        W 9218  27.082  24.436  14.404
44234W        W 9219  39.441  12.875  12.534
44235W        W 9220  17.646   3.623  14.502
44236W        W 9221  18.174  41.585   2.677
44237W        W 9222  40.405  24.997  14.360
44238W        W 9223  26.039  39.459   1.342
44239W        W 9224  43.559  13.585   3.162
44240W        W 9225  11.471   5.454  12.792
44241W        W 9226  26.733  18.990  11.052
44242W        W 9227  39.377  40.120   0.913
44243W        W 9228   8.963  21.467  10.799
44244W        W 9229   7.414  18.532   2.566
44245W        W 9230  34.230  29.674   1.258
44246W        W 9231  21.932  15.261  11.482
44247W        W 9232   9.416   8.575   0.254
44248W        W 9233  12.157  44.813   2.466
44249W        W 9234  11.912  40.737   3.762
44250W        W 9235  16.164  31.897   4.603
44251W        W 9236  13.949   7.738  11.040
44252W        W 9237  42.326   0.619   4.525
44253W        W 9238  12.885  40.354   3.652
44254W        W 9239  11.236  16.740   3.994
44255W        W 9240  12.910  41.738  11.569
44256W        W 9241  22.457  25.580  10.704
44257W        W 9242  27.211  42.758   3.733
44258W        W 9243  15.577   9.599   3.825
44259W        W 9244  38.893  41.777   1.268
44260W        W 9245  24.565  16.324  14.975
44261W        W 9246  43.233  10.846   4.138
44262W        W 9247  13.073  44.335   1.349
44263W        W 9248  37.934  30.650  10.702
44264W        W 9249  38.520  40.813  11.586
44265W        W 9250   7.652  16.641  14.926
44266W        W 9251  19.112  14.621   3.721
44267W        W 9252  37.849  41.021   0.858
44268W        W 9253  35.631   4.350   0.917
44269W        W 9254  41.820   7.330  12.462
44270W        W 9255  36.391  26.232   2.308
44271W        W 9256  31.647  28.708   4.082
44272W        W 9257  31.174  39.893  13.960
44273W        W 9258   5.237   3.240  11.154
44274W        W 9259  10.546   5.529  14.834
44275W        W 9260  36.076  36.327  11.860
44276W        W 9261  37.494  16.711  10.759
44277W        W 9262  10.725   2.803   0.388
44278W        W 9263  22.436  33.837   3.797
44279W        W 9264  42.560  27.040  10.503
44280W        W 9265  14.890  31.951   0.473
44281W        W 9266  13.764  11.272  10.789
44282W        W 9267   1.960  42.933   1.692
44283W        W 9268   4.794  20.193   4.654
44284W        W 9269  38.861  13.810  13.765
44285W        W 9270  17.570   9.124   1.619
44286W        W 9271  11.757   9.427  11.623
44287W        W 9272  34.183  38.059  12.897
44288W        W 9273  11.217  10.036   4.597
44289W        W 9274  14.775  35.379  12.382
44290W        W 9275   6.879  29.018  11.049
44291W        W 9276  42.002  16.094  10.315
44292W        W 9277  22.036  11.660   3.580
44293W        W 9278   4.781  16.601  11.100
44294W        W 9279   9.163  38.575   3.635
44295W        W 9280  14.669   7.440  10.917
44296W        W 9281  36.525  29.583   5.114
44297W        W 9282  42.465  26.362   5.474
44298W        W 9283  14.637  37.047  12.054
44299W        W 9284  19.510  41.388  14.032
44300W        W 9285   5.248  13.550  12.171
44301W        W 9286  44.530  19.591   2.294
44302W        W 9287  34.421  12.793   4.721
44303W        W 9288  31.681  25.810   1.248
44304W        W 9289  16.571  35.140   3.286
44305W        W 9290  41.540  31.390   2.290
44306W        W 9291   6.305   0.910   4.161
44307W        W 9292   4.287   4.775  12.013
44308W        W 9293   4.083  21.819  14.024
44309W        W 9294  36.516  42.763   2.983
44310W        W 9295   4.977  30.377  12.634
44311W        W 9296  21.971  10.832  14.262
44312W        W 9297  37.147  37.857  13.885
44313W        W 9298  13.417  18.092  12.122
44314W        W 9299  14.760  26.906  12.878
44315W        W 9300  41.746  35.521  11.966
44316W        W 9301  23.607   4.653  10.580
44317W        W 9302  36.366  42.262   4.197
44318W        W 9303  16.214  38.197  11.937
44319W        W 9304  10.855  11.462   0.262
44320W        W 9305  21.557  42.427  12.872
44321W        W 9306  12.667  12.063   4.047
44322W        W 9307   8.676  42.260  11.110
44323W        W 9308  31.013  32.913  14.353
44324W        W 9309  16.120  20.976   4.497
44325W        W 9310  17.101   7.345  13.569
44326W        W 9311  28.488  29.703  13.049
44327W        W 9312  17.143  23.029   4.558
44328W        W 9313   9.224   0.560   1.386
44329W        W 9314  13.854   5.236   3.656
44330W        W 9315  19.035  17.204   4.952
44331W        W 9316  41.798  35.418   4.099
44332W        W 9317  32.998  16.353  14.923
44333W        W 9318   4.793   5.304   0.670
44334W        W 9319  25.061  24.228  13.516
44335W        W 9320  27.460   0.290   1.255
44336W        W 9321   9.663  17.268  13.967
44337W        W 9322  15.125  43.304   0.408
44338W        W 9323  24.185  25.562  10.425
44339W        W 9324  17.780  27.499   3.257
44340W        W 9325  22.793  38.926   0.246
44341W        W 9326  37.398  37.239   1.766
44342W        W 9327  13.804  16.621  14.881
44343W        W 9328  25.010  17.661   4.597
44344W        W 9329  38.394  20.650  14.867
44345W        W 9330  18.681  30.899  11.881
44346W        W 9331  32.720  35.654   2.278
44347W        W 9332  30.377  28.001   4.801
44348W        W 9333  17.181  10.181  12.689
44349W        W 9334  31.839  20.217  12.921
44350W        W 9335  25.534  38.079   0.451
44351W        W 9336  15.287  18.001   1.263
44352W        W 9337  16.675   2.426  14.066
44353W        W 9338   6.931  37.365   1.672
44354W        W 9339  16.320   8.547   1.887
44355W        W 9340  44.043  43.064   4.519
44356W        W 9341  15.942  34.998   1.599
44357W        W 9342  24.649  44.200  11.105
44358W        W 9343   9.325  25.218  13.504
44359W        W 9344  30.668  10.137   2.174
44360W        W 9345  16.115  39.297  14.824
44361W        W 9346  32.409  11.690   2.814
44362W        W 9347  36.024  16.717  13.996
44363W        W 9348  36.933  24.884  13.315
44364W        W 9349  15.270   9.639   4.468
44365W        W 9350  28.408  26.671   1.096
44366W        W 9351  36.002  36.561   3.296
44367W        W 9352  19.195   1.554   0.931
44368W        W 9353   0.322   2.225   4.677
44369W        W 9354   2.493  34.017  12.909
44370W        W 9355  18.560   5.164  14.298
44371W        W 9356  29.986  32.461  10.722
44372W        W 9357   7.678  24.536   1.936
44373W        W 9358  44.787  44.409   2.171
44374W        W 9359  35.579  41.819  12.043
44375W        W 9360  12.808  33.026   0.962
44376W        W 9361  40.488  35.371   1.377
44377W        W 9362   8.176  35.423   1.963
44378W        W 9363  22.603  16.705  13.304
44379W        W 9364   8.810   9.078   3.360
44380W        W 9365  31.513  12.174   4.510
44381W        W 9366  17.966  41.508   4.293
44382W        W 9367   0.455   4.979  10.656
44383W        W 9368   7.269  14.796  11.560
44384W        W 9369  29.905  29.699  13.005
44385W        W 9370  21.757  22.600  12.135
44386W        W 9371  14.554   7.366  14.631
44387W        W 9372  31.132  33.662  14.837
44388W        W 9373  14.310  29.126   3.641
44389W        W 9374  36.129  28.164  11.185
44390W        W 9375  17.353  44.961  13.877
44391W        W 9376  25.305  19.696   3.921
44392W        W 9377  18.727  12.226  12.403
44393W        W 9378  16.720  25.875   4.975
44394W        W 9379  30.916  19.778  13.750
44395W        W 9380  36.654  39.429   3.854
44396W        W 9381   8.592  15.620  11.452
44397W        W 9382  34.575  37.596   3.127
44398W        W 9383  31.500  36.309   0.913
44399W        W 9384   8.169   5.734   3.633
44400W        W 9385   2.567  39.891   1.613
44401W        W 9386  36.951  29.905  10.719
44402W        W 9387  16.323  14.667   3.602
44403W        W 9388  43.045  37.567   3.840
44404W        W 9389   2.181  29.125  11.729
44405W        W 9390  33.562  31.414  13.596
44406W        W 9391  44.061  15.108  12.917
44407W        W 9392  18.535   6.776   3.269
44408W        W 9393  22.983  11.574   1.630
44409W        W 9394  17.058  13.532   4.050
44410W        W 9395  40.263  23.996  10.686
44411W        W 9396   3.134  22.435  10.625
44412W        W 9397  25.676  29.116  14.046
44413W        W 9398  20.116  32.002   2.211
44414W        W 9399  33.988  21.783  13.619
44415W        W 9400   0.905   9.100   2.631
44416W        W 9401  32.232   3.355  13.948
44417W        W 9402  42.967  40.762   1.242
44418W        W 9403  25.617   2.688  14.891
44419W        W 9404  26.740  28.124   2.882
44420W        W 9405  33.123   8.888   1.931
44421W        W 9406  24.977  14.356  13.969
44422W        W 9407  12.670  21.258  12.732
44423W        W 9408  42.918  26.408  14.531
44424W        W 9409  36.914  35.446   2.361
44425W        W 9410  20.981  10.815   2.110
44426W        W 9411  42.041  13.658   3.241
44427W        W 9412   1.608  29.469   2.799
44428W        W 9413  32.211  15.340   2.266
44429W        W 9414  32.665  20.016   0.954
44430W        W 9415   3.682   3.538  10.983
44431W        W 9416  14.910  19.082   3.999
44432W        W 9417   4.473  27.675  11.278
44433W        W 9418  14.022  39.645  14.076
44434W        W 9419  24.489  44.950  10.669
44435W        W 9420  20.247  20.304  13.007
44436W        W 9421  33.581   5.899  11.919
44437W        W 9422   1.313  42.617   1.290
44438W        W 9423  33.132  32.157  13.472
44439W        W 9424  15.339  36.076  11.718
44440W        W 9425  42.417  22.167   2.485
44441W        W 9426  32.163  35.908   2.677
44442W        W 9427  37.749  33.097  14.444
44443W        W 9428  31.669  34.685  12.496
44444W        W 9429  26.170  39.452  12.133
44445W        W 9430   0.220  33.979  10.117
44446W        W 9431   8.199  39.001  14.522
44447W        W 9432  23.623  30.715   9.737
44448W        W 9433  18.246  36.659   4.509
44449W        W 9434  17.387  13.869   0.067
44450W        W 9435  26.389   5.154  14.793
44451W        W 9436   7.392  39.801   1.280
44452W        W 9437  44.266  41.939  12.431
44453W        W 9438   2.880  24.586  13.264
44454W        W 9439   6.847  15.218   0.316
44455W        W 9440  42.064  16.463  10.822
44456W        W 9441  25.579  40.314   1.317
44457W        W 9442  44.554  16.267  12.388
44458W        W 9443  32.292  25.981  10.536
44459W        W 9444   0.482  35.048   3.816
44460W        W 9445  24.514  37.102   3.807
44461W        W 9446  14.784  28.795   2.562
44462W        W 9447  34.351  17.110  11.422
44463W        W 9448  42.391  10.619  12.482
44464W        W 9449   3.163  20.496   2.160
44465W        W 9450  24.524  17.115   1.284
44466W        W 9451  35.836  17.453  14.381
44467W        W 9452   2.812  29.066   2.000
44468W        W 9453  37.021  15.093   3.081
44469W        W 9454   4.666   3.883  10.678
44470W        W 9455  31.373  41.039   0.873
44471W        W 9456  30.869  11.653  14.813
44472W        W 9457  19.185  44.015  13.353
44473W        W 9458  29.950  16.790  10.469
44474W        W 9459  43.357  26.164  11.879
44475W        W 9460  16.080   8.730   2.291
44476W        W 9461   5.602   8.823   0.858
44477W        W 9462  36.434  15.704  14.437
44478W        W 9463  27.692  34.299  13.502
44479W        W 9464  31.428   3.437  14.880
44480W        W 9465  39.519  25.600  12.907
44481W        W 9466  31.941   9.726   4.626
44482W        W 9467  25.539  16.552  10.738
44483W        W 9468  11.730  32.358  10.444
44484W        W 9469  19.630  38.866   3.354
44485W        W 9470  29.559  37.758  11.099
44486W        W 9471  22.597  21.538  11.175
44487W        W 9472  35.994  14.348   1.685
44488W        W 9473  38.289  27.313  12.456
44489W        W 9474  15.172  13.743  12.219
44490W        W 9475   8.956  28.160   1.062
44491W        W 9476   2.822   2.305   3.345
44492W        W 9477  43.019  13.267   3.640
44493W        W 9478  38.596  32.474  12.571
44494W        W 9479  16.542  43.294   0.853
44495W        W 9480  14.102  23.286   0.936
44496W        W 9481  31.745  21.292   4.649
44497W        W 9482  12.340   7.690   0.271
44498W        W 9483  20.557  30.035   1.803
44499W        W 9484  23.903  28.593   2.113
44500W        W 9485  20.593   9.408  13.780
44501W        W 9486   8.830  38.940   0.572
44502W        W 9487  20.484  12.613  12.079
44503W        W 9488  42.341  26.217  14.375
44504W        W 9489   2.100  31.188   4.325
44505W        W 9490  12.295  31.893  14.164
44506W        W 9491  36.348  10.885  11.656
44507W        W 9492  29.989  41.295  14.708
44508W        W 9493  24.482  17.665  11.229
44509W        W 9494   1.981  37.671   2.810
44510W        W 9495   0.734  14.264  14.214
44511W        W 9496  40.971  44.225   1.420
44512W        W 9497  41.741  28.181  11.186
44513W        W 9498   6.433  44.693   1.287
44514W        W 9499  43.769  38.903  14.721
44515W        W 9500   1.935   6.210  10.568
44516W        W 9501   4.052  39.163  13.872
44517W        W 9502  27.763  13.051  11.596
44518W        W 9503  40.005  40.890  12.167
44519W        W 9504   4.411  39.499  12.574
44520W        W 9505  34.604  15.689  14.397
44521W        W 9506  29.585  32.443   0.615
44522W        W 9507  44.064  16.454  10.570
44523W        W 9508   6.434  38.447  11.335
44524W        W 9509   0.086  33.019  12.514
44525W        W 9510   3.772  12.137  11.086
44526W        W 9511  36.780  23.283  11.156
44527W        W 9512  32.911   5.689  13.077
44528W        W 9513   8.911  37.880  14.762
44529W        W 9514   5.710  28.494   1.028
44530W        W 9515  21.187  43.042  13.240
44531W        W 9516  14.984   1.871   5.040
44532W        W 9517  12.588   2.671   1.358
44533W        W 9518  13.389  35.164  11.494
44534W        W 9519  16.072   0.360   4.932
44535W        W 9520  18.829   0.553   2.280
44536W        W 9521  39.678  35.565  14.303
44537W        W 9522  19.257  33.646   2.237
44538W        W 9523  24.425  23.227   3.511
44539W        W 9524  12.300   4.272  13.586
44540W        W 9525  14.201  20.257  12.146
44541W        W 9526   2.796   2.774  12.077
44542W        W 9527  33.927  44.599   1.268
44543W        W 9528  31.104   2.716  13.948
44544W        W 9529   1.894  27.536  12.443
44545W        W 9530  17.695   7.857   1.388
44546W        W 9531  33.983  36.847  10.607
44547W        W 9532   9.108  27.159   0.123
44548W        W 9533  19.675  21.037   2.235
44549W        W 9534  15.561   8.337  14.512
44550W        W 9535   8.809  18.314  11.210
44551W        W 9536  14.482  36.393   3.405
44552W        W 9537  14.119  42.539   1.915
44553W        W 9538   1.993  44.416   3.144
44554W        W 9539  17.505  20.808  10.711
44555W        W 9540   9.320  21.831   4.015
44556W        W 9541  31.405  15.812  13.981
44557W        W 9542   3.732   1.035   1.902
44558W        W 9543   2.264  19.466  13.038
44559W        W 9544  17.658  41.186   3.269
44560W        W 9545  27.876  23.032   0.126
44561W        W 9546  23.146  33.925   3.256
44562W        W 9547   1.249  38.052  11.870
44563W        W 9548   5.538  33.313  14.140
44564W        W 9549  33.939  32.032   1.179
44565W        W 9550   0.326  42.827  11.608
44566W        W 9551  13.051  35.887  13.344
44567W        W 9552   3.605   5.606   4.514
44568W        W 9553  30.919  40.967  12.162
44569W        W 9554  36.293  34.845   0.262
44570W        W 9555  32.172  24.691  13.514
44571W        W 9556  29.507  19.136  10.916
44572W        W 9557  36.414  43.902   0.517
44573W        W 9558  43.446  24.986   0.448
44574W        W 9559  22.170   9.413   2.689
44575W        W 9560   4.149  14.397   1.706
44576W        W 9561  35.559  12.846   0.523
44577W        W 9562  15.285  44.381   2.934
44578W        W 9563  29.462  35.133  11.588
44579W        W 9564  28.168  25.460  12.498
44580W        W 9565  44.763  13.612  12.993
44581W        W 9566  30.203  19.683  13.471
44582W        W 9567  37.015  44.887   2.035
44583W        W 9568  23.532  30.670   0.904
44584W        W 9569  16.047  18.078   4.402
44585W        W 9570  17.877  18.525   0.402
44586W        W 9571  39.455  34.443   1.805
44587W        W 9572   1.425  20.750  10.471
44588W        W 9573  42.446  24.141  11.039
44589W        W 9574   7.498  36.914  14.348
44590W        W 9575  30.256  17.346  13.078
44591W        W 9576   8.842  29.305   4.032
44592W        W 9577  27.992   7.967   4.417
44593W        W 9578  21.699  18.565   2.142
44594W        W 9579  32.832  24.280  11.993
44595W        W 9580  12.356  39.392   1.335
44596W        W 9581  11.867  32.309  13.563
44597W        W 9582   1.206   9.960   2.613
44598W        W 9583  26.089  43.948   4.602
44599W        W 9584  37.824  31.729  12.978
44600W        W 9585  30.686   1.925  13.509
44601W        W 9586  31.000   1.379   0.854
44602W        W 9587  35.561   7.422   1.860
44603W        W 9588  11.200   0.499   0.821
44604W        W 9589  29.422  22.321   4.171
44605W        W 9590   6.867   2.754   4.486
44606W        W 9591  18.844  12.865  10.167
44607W        W 9592  37.961  27.566  11.555
44608W        W 9593  18.741   8.635  11.149
44609W        W 9594  40.543  17.948  12.657
44610W        W 9595   1.835  27.904   0.576
44611W        W 9596  44.193  20.119  13.522
44612W        W 9597  42.966  33.157   0.010
44613W        W 9598  23.438  15.717  14.516
44614W        W 9599  20.695   7.926   2.144
44615W        W 9600  42.896  42.465   1.266
44616W        W 9601   0.288  16.261   5.078
44617W        W 9602  38.013  39.483  10.481
44618W        W 9603  16.156  33.939  11.608
44619W        W 9604   4.900  33.419  11.668
44620W        W 9605  21.642  13.267  10.681
44621W        W 9606  33.894  25.044  11.613
44622W        W 9607   9.814  24.607   3.620
44623W        W 9608  43.422  30.156  13.851
44624W        W 9609  13.619  20.571   4.105
44625W        W 9610  20.836  39.847   1.792
44626W        W 9611  17.600   2.390   2.407
44627W        W 9612  28.712  40.492  14.697
44628W        W 9613   2.390  24.047   1.247
44629W        W 9614  13.200  29.952  14.703
44630W        W 9615  20.783  37.877  13.433
44631W        W 9616  35.916  26.019   1.460
44632W        W 9617   7.790  14.900  11.490
44633W        W 9618   8.349  13.710  14.218
44634W        W 9619  22.443  41.584  11.647
44635W        W 9620  31.415  17.127   1.759
44636W        W 9621   0.977  20.646   4.289
44637W        W 9622  20.240  13.718  14.037
44638W        W 9623  34.860  44.028   4.218
44639W        W 9624   8.741  40.573   2.611
44640W        W 9625  34.838   9.351   9.955
44641W        W 9626   6.878  41.939  11.173
44642W        W 9627  29.525  37.492  13.526
44643W        W 9628  20.272  31.542   2.429
44644W        W 9629  22.242  33.503   0.032
44645W        W 9630  37.101  42.896   1.862
44646W        W 9631   4.180  14.898   2.632
44647W        W 9632  41.477  39.294   4.663
44648W        W 9633  22.176  21.559  14.016
44649W        W 9634   3.554   7.808   4.413
44650W        W 9635  20.050  30.617  12.488
44651W        W 9636   7.632   3.414   2.247
44652W        W 9637   7.378  36.602  10.740
44653W        W 9638  16.772  12.683   2.337
44654W        W 9639  24.772  18.083   3.736
44655W        W 9640  38.127  24.461  14.471
44656W        W 9641  15.134   2.745  12.812
44657W        W 9642  39.358  21.566  13.788
44658W        W 9643  39.358  11.745   0.203
44659W        W 9644  15.775  25.904   9.991
44660W        W 9645  31.199  20.029   2.371
44661W        W 9646   9.537  19.217   4.658
44662W        W 9647  21.228  25.944   3.707
44663W        W 9648  32.677   2.914  13.068
44664W        W 9649  14.799  32.175   1.262
44665W        W 9650  12.284   3.681  14.210
44666W        W 9651   5.290   1.500  13.465
44667W        W 9652  13.683  15.870  13.852
44668W        W 9653  34.278  40.046   2.276
44669W        W 9654   3.387   8.723  13.972
44670W        W 9655  20.112  40.374   1.624
44671W        W 9656  10.747   4.219  14.492
44672W        W 9657  24.707  44.391   2.056
44673W        W 9658  36.061  42.460   1.241
44674W        W 9659  40.497   5.233  11.659
44675W        W 9660  26.744  13.324  14.381
44676W        W 9661  42.931  20.197   4.030
44677W        W 9662  12.350  33.432  11.970
44678W        W 9663  36.633  17.575  10.780
44679W        W 9664  30.966   3.236   4.212
44680W        W 9665  10.240  32.368   2.715
44681W        W 9666  25.223   9.268   3.170
44682W        W 9667  41.831  33.804  13.507
44683W        W 9668   3.444  29.174  12.960
44684W        W 9669   1.800  24.564  13.053
44685W        W 9670  17.381   9.052   1.107
44686W        W 9671  32.990  28.166  12.464
44687W        W 9672   1.277  33.005  11.133
44688W        W 9673  31.847  22.547  13.266
44689W        W 9674  12.868  36.950   1.408
44690W        W 9675  24.269  25.060  14.892
44691W        W 9676  39.044  24.094   1.225
44692W        W 9677   4.808  16.086  11.141
44693W        W 9678  34.577  40.872  11.100
44694W        W 9679  43.467  24.882  10.148
44695W        W 9680  20.013  43.069  12.230
44696W        W 9681  35.921  15.271   2.390
44697W        W 9682   1.838  30.118  12.096
44698W        W 9683  24.092  12.288  13.861
44699W        W 9684   7.110   7.441  11.166
44700W        W 9685  18.063  39.267   4.491
44701W        W 9686  24.639   4.420   0.816
44702W        W 9687  24.294  10.990   1.852
44703W        W 9688  17.624  17.179   2.227
44704W        W 9689  10.679  18.859   4.210
44705W        W 9690   2.853   4.040   2.734
44706W        W 9691  29.299   4.695   0.924
44707W        W 9692  34.595  20.086  10.794
44708W        W 9693  38.280  28.917   1.500
44709W        W 9694  19.792  14.304   0.836
44710W        W 9695  39.324  42.599  12.158
44711W        W 9696   9.681  27.754   1.418
44712W        W 9697  11.805   4.947   4.094
44713W        W 9698  39.640  10.169   2.639
44714W        W 9699  35.958  30.035   0.691
44715W        W 9700  31.784   4.372   2.902
44716W        W 9701  15.225  32.706   4.352
44717W        W 9702   9.808  29.133  13.331
44718W        W 9703  36.021  23.608   2.395
44719W        W 9704  28.457  14.223  14.119
44720W        W 9705  36.403   2.468   2.126
44721W        W 9706  15.121   4.673  14.118
44722W        W 9707   1.070  30.764  12.613
44723W        W 9708  38.565  23.029  10.707
44724W        W 9709   5.746  44.812  11.453
44725W        W 9710  14.764  27.866   3.143
44726W        W 9711  38.862  31.380  11.932
44727W        W 9712  38.088  43.517  11.098
44728W        W 9713  40.363  37.302  14.712
44729W        W 9714  21.517   4.756   9.902
44730W        W 9715  43.024  13.343  12.906
44731W        W 9716   4.251   8.004   1.594
44732W        W 9717   8.887  15.372  13.300
44733W        W 9718  11.849  22.578   0.211
44734W        W 9719  27.433  40.462   1.670
44735W        W 9720  20.547  13.271  11.501
44736W        W 9721  33.857  27.030  13.667
44737W        W 9722  16.714  11.096   4.807
44738W        W 9723  26.920   2.360   1.782
44739W        W 9724  37.978  17.061   0.921
44740W        W 9725  11.452  17.370  13.902
44741W        W 9726  15.347  30.229  11.180
44742W        W 9727  21.332   2.332   2.305
44743W        W 9728   4.000   7.628   4.598
44744W        W 9729  33.478   1.992   1.321
44745W        W 9730  19.179  30.823   1.819
44746W        W 9731  23.272  14.570   0.924
44747W        W 9732  37.772   7.592   3.993
44748W        W 9733  32.596  12.478   5.581
44749W        W 9734  41.227   9.816   3.533
44750W        W 9735  31.179   9.935  12.968
44751W        W 9736  21.990  37.923  14.062
44752W        W 9737  16.484  21.482   2.812
44753W        W 9738  23.484  26.854  14.386
44754W        W 9739  25.163   3.755  11.510
44755W        W 9740  17.142  18.086   0.765
44756W        W 9741  10.709  29.980  12.898
44757W        W 9742  20.562   2.209  11.175
44758W        W 9743   6.103   5.742   1.355
44759W        W 9744   4.756  32.062  10.785
44760W        W 9745  34.070  42.972  10.573
44761W        W 9746  37.503  32.886   3.815
44762W        W 9747  42.962  29.427  10.658
44763W        W 9748  27.229  35.915  11.605
44764W        W 9749  10.735  21.673   1.319
44765W        W 9750  20.196   6.071  13.784
44766W        W 9751   2.824  42.790   4.487
44767W        W 9752  10.616  44.398   4.181
44768W        W 9753  43.882  17.797   1.967
44769W        W 9754  25.267  11.759  11.128
44770W        W 9755   6.908   1.558  13.060
44771W        W 9756   8.181  33.051  12.378
44772W        W 9757  25.242   5.819  13.510
44773W        W 9758  12.059   2.718   0.798
44774W        W 9759  19.334  12.051   0.819
44775W        W 9760  12.592  40.041  11.107
44776W        W 9761  42.422  10.644   4.518
44777W        W 9762   4.216   1.796   3.182
44778W        W 9763  36.049  21.579   0.377
44779W        W 9764   2.817  16.309  13.283
44780W        W 9765   1.455  26.213   1.822
44781W        W 9766   5.416  33.592  11.884
44782W        W 9767   5.252   9.358   0.022
44783W        W 9768  42.850  21.538  10.845
44784W        W 9769  42.860  41.701  13.442
44785W        W 9770  17.753   5.923  14.942
44786W        W 9771   4.885   9.699  13.511
44787W        W 9772   4.799  18.313  13.565
44788W        W 9773  41.505   2.701  10.591
44789W        W 9774  36.848  36.977   1.863
44790W        W 9775  44.285   7.793  12.637
44791W        W 9776   3.266  28.519  12.113
44792W        W 9777  27.203  28.784  14.812
44793W        W 9778   6.455  34.017  13.478
44794W        W 9779   6.778   9.498  11.738
44795W        W 9780  15.590  24.237  11.115
44796W        W 9781  24.903   9.789   2.357
44797W        W 9782  28.600  40.296  12.854
44798W        W 9783  38.088  13.652  10.947
44799W        W 9784  30.408  33.938   2.195
44800W        W 9785  14.525  10.841   4.559
44801W        W 9786   9.872  27.648  12.541
44802W        W 9787  17.828  39.918   2.090
44803W        W 9788  16.154  34.526  10.754
44804W        W 9789  33.349  24.624   4.132
44805W        W 9790   6.896  43.944  14.702
44806W        W 9791  17.805   2.705   4.725
44807W        W 9792  25.626  27.687  12.922
44808W        W 9793  38.287  27.975   2.402
44809W        W 9794  32.405  40.141   4.137
44810W        W 9795  16.694  42.817  12.714
44811W        W 9796   9.374  31.608   1.472
44812W        W 9797  34.124   2.872   3.709
44813W        W 9798   6.349  14.122   1.972
44814W        W 9799  30.866   9.117  12.431
44815W        W 9800  23.088   1.542   5.153
44816W        W 9801   0.942  44.139  13.888
44817W        W 9802  32.199  29.140  12.890
44818W        W 9803   3.871  14.353   0.248
44819W        W 9804  16.604  16.614   0.335
44820W        W 9805  26.723  25.773   0.883
44821W        W 9806  11.546  32.877   2.929
44822W        W 9807  11.716  22.463   4.965
44823W        W 9808  39.277   2.044  13.405
44824W        W 9809   3.924  12.739  11.606
44825W        W 9810   8.655   1.199   4.555
44826W        W 9811  20.629  23.517   4.539
44827W        W 9812  22.319  29.664   0.904
44828W        W 9813  16.020  11.295   0.093
44829W        W 9814  16.466   1.405   2.780
44830W        W 9815   9.972  37.363   0.362
44831W        W 9816  35.594  18.549   2.365
44832W        W 9817  24.033   3.773   3.666
44833W        W 9818  24.509   7.885   3.256
44834W        W 9819   1.992  40.226  12.527
44835W        W 9820  11.657  24.196   4.074
44836W        W 9821  18.885   8.635   1.766
44837W        W 9822  31.599  11.689  12.123
44838W        W 9823  29.893  11.408  11.440
44839W        W 9824  19.249  39.374   3.593
44840W        W 9825  23.266  24.831   1.312
44841W        W 9826  27.923  19.199   4.527
44842W        W 9827  37.640  41.361   1.673
44843W        W 9828  11.207  40.347   3.282
44844W        W 9829  24.555  17.358  14.849
44845W        W 9830  22.947  22.579  12.556
44846W        W 9831  14.335  21.573  12.505
44847W        W 9832  36.553   0.465  12.894
44848W        W 9833  41.760  37.891  13.798
44849W        W 9834  15.986  32.642   3.647
44850W        W 9835  15.211  43.909  13.391
44851W        W 9836   8.815  22.759  11.104
44852W        W 9837  41.004  15.200  14.423
44853W        W 9838   9.896  16.909  12.906
44854W        W 9839   3.506  17.360  11.368
44855W        W 9840  27.514  15.626   1.996
44856W        W 9841  10.380   3.560   5.062
44857W        W 9842   8.706   6.963  12.777
44858W        W 9843  11.883   6.767  14.958
44859W        W 9844   2.840   8.756   9.933
44860W        W 9845  16.155  18.143   0.936
44861W        W 9846  29.838  37.558   0.961
44862W        W 9847  12.139  10.760   4.054
44863W        W 9848  27.463  39.759   3.207
44864W        W 9849  14.135   9.427  11.583
44865W        W 9850  16.231  26.155   2.456
44866W        W 9851  24.071   7.674   1.273
44867W        W 9852  37.637   7.091   3.930
44868W        W 9853  13.820  11.912   1.896
44869W        W 9854  11.767   8.767  12.926
44870W        W 9855  28.671  14.445   2.543
44871W        W 9856  30.471  39.141   3.378
44872W        W 9857   6.370  18.709  12.441
44873W        W 9858  27.031   0.377  10.994
44874W        W 9859   0.365  11.102   1.235
44875W        W 9860   7.427  34.346  13.494
44876W        W 9861  13.639  15.633  14.741
44877W        W 9862  15.396  38.037   4.680
44878W        W 9863  34.469  35.828  12.599
44879W        W 9864  44.246  26.049  11.596
44880W        W 9865  10.833   4.670   2.248
44881W        W 9866  41.881  23.025  14.456
44882W        W 9867  44.239  17.818  10.276
44883W        W 9868  30.145  27.227  14.936
44884W        W 9869  26.742  32.833  13.963
44885W        W 9870  35.970  32.168   1.104
44886W        W 9871  42.875  12.811   3.876
44887W        W 9872  23.832   5.281   4.240
44888W        W 9873  22.369  24.572   1.593
44889W        W 9874  30.670  42.450  12.465
44890W        W 9875  43.439  33.178  14.304
44891W        W 9876  44.094  17.178   3.616
44892W        W 9877  44.063  21.039  13.531
44893W        W 9878  21.951  28.474   3.724
44894W        W 9879   0.247  42.309  11.625
44895W        W 9880  17.211   0.563  11.425
44896W        W 9881   7.708  17.946  14.752
44897W        W 9882  28.877   9.172  13.927
44898W        W 9883   6.851  33.088   0.952
44899W        W 9884  29.155   8.770   1.210
44900W        W 9885  18.600   5.214   2.679
44901W        W 9886  37.358  33.650   2.252
44902W        W 9887   8.634  12.085  11.426
44903W        W 9888   3.099  32.884  12.361
44904W        W 9889  14.851  16.296  14.832
44905W        W 9890  12.688  43.509  13.915
44906W        W 9891  43.464  42.820   0.396
44907W        W 9892  25.699  22.102  12.426
44908W        W 9893  19.537   8.760   1.283
44909W        W 9894  41.948  19.561   1.463
44910W        W 9895  36.232   2.705  12.131
44911W        W 9896  30.989   4.037   3.149
44912W        W 9897  15.320  24.984   4.714
44913W        W 9898   3.337  29.194  13.459
44914W        W 9899  34.888  41.874  13.619
44915W        W 9900  26.241  44.021  13.392
44916W        W 9901  14.589  43.023   2.865
44917W        W 9902  20.746  36.101  13.946
44918W        W 9903  28.145  37.673   3.581
44919W        W 9904  30.538  28.997  14.942
44920W        W 9905  41.263  38.490   0.065
44921W        W 9906   2.923  36.849  14.998
44922W        W 9907  15.361  22.199  10.348
44923W        W 9908  37.478  38.794   1.680
44924W        W 9909  25.163  26.158   3.970
44925W        W 9910  29.242  24.760  13.941
44926W        W 9911  38.302   4.227   3.676
44927W        W 9912  42.012   7.381   4.188
44928W        W 9913  19.260   1.408  13.908
44929W        W 9914  16.722  21.340  14.990
44930W        W 9915  23.277  16.636   1.477
44931W        W 9916  16.296  10.904  13.321
44932W        W 9917  31.942  17.333   2.577
44933W        W 9918  27.329  23.183  11.333
44934W        W 9919   8.662  42.360   3.781
44935W        W 9920  24.199   2.288  12.496
44936W        W 9921  34.062  26.598   3.645
44937W        W 9922  23.820  23.326   1.702
44938W        W 9923  38.445   0.529  13.431
44939W        W 9924  13.652  14.864  12.139
44940W        W 9925   4.019  44.425   3.222
44941W        W 9926   6.257   4.726  12.026
44942W        W 9927  11.217  33.636   3.801
44943W        W 9928  16.075   5.641  14.053
44944W        W 9929   3.688  37.875   0.662
44945W        W 9930  33.501   6.887   9.625
44946W        W 9931  17.279  33.490   4.288
44947W        W 9932  22.065   7.934  13.519
44948W        W 9933  39.740   7.417  13.785
44949W        W 9934  31.138  13.775   0.436
44950W        W 9935  29.100  27.761  12.294
44951W        W 9936  14.368   8.940   3.683
44952W        W 9937  14.076   8.926  10.712
44953W        W 9938  41.370  21.530  13.514
44954W        W 9939  31.824   3.906   2.687
44955W        W 9940  35.627   5.756   4.179
44956W        W 9941  40.419   2.685  13.547
44957W        W 9942   0.098  24.504  14.724
44958W        W 9943   0.446  31.522   2.765
44959W        W 9944  35.609  36.389   2.637
44960W        W 9945  29.681  38.264  11.997
44961W        W 9946   2.876  39.542   0.967
44962W        W 9947   2.787  42.493  11.278
44963W        W 9948  42.698  29.797  13.133
44964W        W 9949  17.179  24.614   0.032
44965W        W 9950  35.189  11.635   1.285
44966W        W 9951  10.349   6.967  14.808
44967W        W 9952  10.307  40.786   1.473
44968W        W 9953   0.570   2.523   4.329
44969W        W 9954  37.281  28.072   3.333
44970W        W 9955  13.907  32.837   2.123
44971W        W 9956  27.409   9.257  12.580
44972W        W 9957   7.219  24.215   4.535
44973W        W 9958  10.484   4.201   1.311
44974W        W 9959   0.577  30.551  11.012
44975W        W 9960  39.545   1.808   1.949
44976W        W 9961  27.575  24.641  14.470
44977W        W 9962  31.655  16.389  10.631
44978W        W 9963  41.853   9.874  14.956
44979W        W 9964  19.627  11.640   0.533
44980W        W 9965   6.210  41.758  12.787
44981W        W 9966   9.365  43.717   1.772
44982W        W 9967   9.316  28.174  10.670
44983W        W 9968  43.900  39.283  11.656
44984W        W 9969  36.195  43.195  14.262
44985W        W 9970  29.316  32.021   0.278
44986W        W 9971   6.930  21.666  10.678
44987W        W 9972  39.038  33.875   0.282
44988W        W 9973  42.263  35.602   0.701
44989W        W 9974  36.588  43.915  14.544
44990W        W 9975  25.411  38.529   4.110
44991W        W 9976   2.219   2.992   0.211
44992W        W 9977  29.980   8.692   4.576
44993W        W 9978  31.048   2.284  14.925
44994W        W 9979  43.451   0.975   0.378
44995W        W 9980  18.847  25.464  13.226
44996W        W 9981  12.214  44.565   1.020
44997W        W 9982  25.249  35.350  11.001
44998W        W 9983  18.640  23.136   4.192
44999W        W 9984  24.002  29.919  12.916
45000W        W 9985   3.607  20.407  14.366
45001W        W 9986  37.528  36.605  14.433
45002W        W 9987  27.164  35.104  14.092
45003W        W 9988  13.037   1.029  11.697
45004W        W 9989  32.706  27.246   1.259
45005W        W 9990   1.215   1.961  13.044
45006W        W 9991   6.345  12.205   2.646
45007W        W 9992   5.806   3.174  12.909
45008W        W 9993  23.959  34.384   1.232
45009W        W 9994  29.371  41.889  11.102
45010W        W 9995  19.969   7.777   3.687
45011W        W 9996  10.652  41.794  13.957
45012W        W 9997   4.761  33.855  13.005
45013W        W 9998  42.911  41.514  12.962
45014W        W 9999   4.861   7.180   1.658
45015W        W10000  25.519  24.708  12.554
45016W        W10001  31.128   9.746   9.989
45017W        W10002  12.255  40.420  12.680
45018W        W10003   8.964  27.534   2.754
45019W        W10004  25.037   3.975  11.995
45020W        W10005  11.636  28.439  13.940
45021W        W10006  10.886  11.725   3.762
45022W        W10007  42.479   8.952   1.102
45023W        W10008   8.888  34.421   0.708
45024W        W10009  36.529   8.011   4.564
45025W        W10010  16.013   6.272  12.114
45026W        W10011  36.419  32.909   1.515
45027W        W10012   0.109  30.941   2.067
45028W        W10013  19.759  15.076   3.222
45029W        W10014   5.387  41.944   2.355
45030W        W10015  44.541  18.393   4.018
45031W        W10016  14.275  39.980   0.733
45032W        W10017  39.951   7.193   0.418
45033W        W10018   9.301  25.607  12.939
45034W        W10019   0.901   7.982   0.395
45035W        W10020  22.228  38.569  12.901
45036W        W10021   3.249  11.763   4.183
45037W        W10022  38.771   7.237   1.235
45038W        W10023   7.732  21.219  14.083
45039W        W10024  25.659  26.180  11.598
45040W        W10025  38.324  25.283   4.167
45041W        W10026  15.747   9.625   1.380
45042W        W10027  38.480   0.786  12.965
45043W        W10028  19.673  44.480  12.769
45044W        W10029   3.283  17.212   2.423
45045W        W10030  36.472  20.247   0.404
45046W        W10031  29.047  17.539   4.023
45047W        W10032  11.617  39.126  14.882
45048W        W10033  39.425  38.017   3.439
45049W        W10034  14.625   7.275  11.924
45050W        W10035  38.319   0.848  11.654
45051W        W10036   5.409  26.516   5.193
45052W        W10037   0.821  14.189   1.708
45053W        W10038   3.917   4.693   2.531
45054W        W10039  28.518  41.922   0.786
45055W        W10040  26.482  34.295  14.880
45056W        W10041  11.115  41.614  11.901
45057W        W10042  13.962  40.518   2.951
45058W        W10043  32.241  22.725  12.468
45059W        W10044  35.066  26.785   1.479
45060W        W10045   2.031  16.462   3.298
45061W        W10046  25.964  19.809   2.718
45062W        W10047  19.092  16.097  13.125
45063W        W10048  31.571  23.666  10.827
45064W        W10049  12.982  43.978   0.202
45065W        W10050   6.451  38.793  14.468
45066W        W10051  21.062   5.295  13.013
45067W        W10052   7.132  34.655   0.966
45068W        W10053  35.397  43.033  10.657
45069W        W10054   8.346  35.631   4.166
45070W        W10055  16.162  31.392   1.262
45071W        W10056  37.401   6.836   4.339
45072W        W10057  27.880  35.618   1.784
45073W        W10058  34.884  41.487  13.270
45074W        W10059  11.261  11.963   2.200
45075W        W10060  38.365   9.669   2.697
45076W        W10061   1.577  33.963  14.544
45077W        W10062  22.101  17.276  13.279
45078W        W10063  18.270  25.571   0.415
45079W        W10064  21.392  30.797  13.494
45080W        W10065  40.428  40.586  14.991
45081W        W10066  16.910  13.710   0.154
45082W        W10067  21.979   0.539   3.444
45083W        W10068   4.399  41.496  14.878
45084W        W10069  39.875  35.945  11.838
45085W        W10070  41.962  10.224  11.559
45086W        W10071  36.893  37.785   4.402
45087W        W10072  30.232   8.917   0.434
45088W        W10073  12.101   5.474   0.902
45089W        W10074   4.393   2.743   4.224
45090W        W10075  44.310  26.492   0.258
45091W        W10076  35.971  17.774   2.659
45092W        W10077  37.709  41.287   3.561
45093W        W10078  41.869  38.872  14.431
45094W        W10079  16.759  12.320  12.075
45095W        W10080  38.330   7.208   0.938
45096W        W10081  23.454  44.079  13.374
45097W        W10082   6.636   0.420  13.980
45098W        W10083  39.659   6.226   0.133
45099W        W10084  39.249  15.158  11.808
45100W        W10085  39.720   5.826  11.922
45101W        W10086   3.994  17.146   0.919
45102W        W10087  31.544  36.880   3.919
45103W        W10088  18.512  36.906   0.328
45104W        W10089  23.423   1.743   3.653
45105W        W10090  23.523  20.620   2.715
45106W        W10091  19.033  21.788   2.709
45107W        W10092  38.901  40.095   0.654
45108W        W10093  18.706   3.732   4.351
45109W        W10094  40.844   3.923  13.800
45110W        W10095  38.051  28.448   0.360
45111W        W10096  12.653  13.675  13.167
45112W        W10097   8.593  16.754   1.796
45113W        W10098   2.350  16.736  10.201
45114W        W10099  27.143  32.554   4.720
45115W        W10100  36.382  16.741  11.119
45116W        W10101  30.658   9.215  14.390
45117W        W10102   7.972  36.366   2.365
45118W        W10103   8.258  20.087  12.466
45119W        W10104  31.588  18.657   1.955
45120W        W10105  43.591  16.950   3.633
45121W        W10106   2.269  22.615   3.116
45122W        W10107  13.181  19.922  12.214
45123W        W10108   4.375  28.410  11.593
45124W        W10109  17.598  38.980   3.727
45125W        W10110  35.836  28.638   0.793
45126W        W10111  44.126  29.336  11.134
45127W        W10112  28.854  11.239   3.228
45128W        W10113  40.826  20.694   2.847
45129W        W10114  22.283   3.299  11.912
45130W        W10115  11.698  33.523  10.813
45131W        W10116  43.082  10.810  11.275
45132W        W10117  22.231  15.599  14.784
45133W        W10118  15.597  15.222  12.393
45134W        W10119  29.117  41.020  12.103
45135W        W10120  34.269  38.973  14.549
45136W        W10121  24.917  18.620   4.681
45137W        W10122   0.541   0.300   0.232
45138W        W10123  38.283  18.305   0.448
45139W        W10124  13.566  15.659   3.336
45140W        W10125   6.248  40.260  10.671
45141W        W10126  11.391  31.524   3.614
45142W        W10127  12.322  43.368   3.231
45143W        W10128  26.134  31.630   3.718
45144W        W10129  34.914  30.330  11.954
45145W        W10130  40.285  17.006   2.228
45146W        W10131   3.867   4.914  10.691
45147W        W10132  17.042  28.378  11.184
45148W        W10133  21.801  13.377   2.778
45149W        W10134   0.867  28.349   3.301
45150W        W10135  37.414   1.791   3.399
45151W        W10136  35.085   4.857   4.208
45152W        W10137   3.333  42.353   3.968
45153W        W10138  20.198  15.412  14.016
45154W        W10139   9.890   0.268   2.069
45155W        W10140  33.971  22.239  13.860
45156W        W10141  24.630  33.621   1.433
45157W        W10142  36.401   6.884   0.304
45158W        W10143   3.367  14.293   0.104
45159W        W10144  25.496  29.434   1.867
45160W        W10145   8.867  42.723  11.294
45161W        W10146  10.855  40.777  13.782
45162W        W10147   2.657  42.072   0.101
45163W        W10148  36.595   0.959  13.043
45164W        W10149   5.948  16.354   2.122
45165W        W10150   4.716  44.754  14.598
45166W        W10151  15.495  32.745   3.518
45167W        W10152   2.033  44.340  12.114
45168W        W10153  40.376  12.797   3.452
45169W        W10154   6.086  12.206  14.011
45170W        W10155  14.505  44.265   2.209
45171W        W10156  40.997  10.851  12.070
45172W        W10157   3.265  32.518   4.167
45173W        W10158   2.271  29.372   2.722
45174W        W10159  25.782  36.451  14.781
45175W        W10160  23.736  28.505  13.916
45176W        W10161  15.590  21.136   3.636
45177W        W10162  43.272  21.085   9.671
45178W        W10163  14.201  14.765   1.887
45179W        W10164  15.821   7.520   0.335
45180W        W10165  28.658  35.271  12.838
45181W        W10166  22.057  43.445   3.270
45182W        W10167  29.587  33.476   3.305
45183W        W10168   7.751   2.493   5.115
45184W        W10169   9.499  41.301  13.511
45185W        W10170  19.302  32.632  11.579
45186W        W10171  30.665   7.705  10.268
45187W        W10172  44.453  25.746   1.358
45188W        W10173  31.739  41.870   4.394
45189W        W10174  18.069  40.807   3.735
45190W        W10175  16.219  30.261  12.056
45191W        W10176  30.954  14.509  14.969
45192W        W10177  24.730  44.428  12.385
45193W        W10178   7.453  26.206  14.792
45194W        W10179  38.938  40.666  10.348
45195W        W10180  44.723  11.826  14.814
45196W        W10181  41.393  40.260   1.033
45197W        W10182  26.908  37.015   3.692
45198W        W10183  32.832  31.090  12.093
45199W        W10184   2.394  31.663  13.346
45200W        W10185  11.176  21.365  13.014
45201W        W10186  33.713   6.655  10.547
45202W        W10187  15.577  22.163  12.974
45203W        W10188  18.809  25.719  11.988
45204W        W10189  10.405  12.875   1.669
45205W        W10190  22.227  33.341  14.556
45206W        W10191  10.442  28.124   1.271
45207W        W10192  28.354  42.419   0.771
45208W        W10193  21.830   7.048  14.398
45209W        W10194  36.035  31.905   4.604
45210W        W10195  10.913   2.523  14.894
45211W        W10196  10.242  34.056  13.049
45212W        W10197  22.172  40.174  12.489
45213W        W10198  19.269  11.651  10.883
45214W        W10199  13.899  35.143  10.690
45215W        W10200   4.244  15.277   0.508
45216W        W10201   7.625  30.663   0.809
45217W        W10202   9.209   0.750  12.856
45218W        W10203  15.691   9.589  14.815
45219W        W10204   1.890  42.205  12.906
45220W        W10205  40.166  19.946   3.331
45221W        W10206  17.030  17.863   4.284
45222W        W10207  22.424  43.563   0.478
45223W        W10208  37.800  12.257   2.859
45224W        W10209   4.604  12.006   2.250
45225W        W10210  21.170   8.802   0.850
45226W        W10211  13.188  17.554   0.990
45227W        W10212  28.688  24.964  10.605
45228W        W10213   9.245  17.638  11.987
45229W        W10214  32.020  22.030   2.138
45230W        W10215  26.173  12.764   2.659
45231W        W10216  44.541  19.504   4.579
45232W        W10217  18.424  40.379  13.454
45233W        W10218  37.575  26.977   2.278
45234W        W10219  31.932  31.703   4.250
45235W        W10220  33.385  23.049   0.491
45236W        W10221  44.897  32.783  12.062
45237W        W10222  23.062  39.406   1.431
45238W        W10223  22.494  21.188  13.852
45239W        W10224   2.535  17.600  14.950
45240W        W10225  29.997  12.179   0.967
45241W        W10226  15.758  32.201   9.924
45242W        W10227  21.517  31.438   4.923
45243W        W10228   5.605  27.740   1.135
45244W        W10229  39.857   7.116  10.495
45245W        W10230   7.310   4.146  13.130
45246W        W10231   6.791  28.447  14.015
45247W        W10232  10.193   4.705   1.887
45248W        W10233  24.002  10.165   0.792
45249W        W10234  44.283   5.790   4.484
45250W        W10235  26.399  23.315  11.359
45251W        W10236  41.873   5.195  14.359
45252W        W10237   3.942  16.638   2.383
45253W        W10238  25.625  24.478  14.352
45254W        W10239  34.601   4.162  13.922
45255W        W10240  37.994  32.060  11.902
45256W        W10241  30.513   4.740   3.096
45257W        W10242  27.963  23.211   0.602
45258W        W10243  38.884   6.775  12.905
45259W        W10244  36.588   9.987  13.291
45260W        W10245  26.277  23.930   0.866
45261W        W10246  40.110   6.545  10.312
45262W        W10247  37.873  14.018  14.848
45263W        W10248   6.884  30.873  10.732
45264W        W10249  36.484  40.385   3.270
45265W        W10250  38.562  34.128  11.649
45266W        W10251  25.674  28.018   4.474
45267W        W10252  17.223  12.091  14.221
45268W        W10253   4.236  36.946   1.811
45269W        W10254   4.863  29.151  14.555
45270W        W10255  43.478  22.173  12.467
45271W        W10256  38.379  26.967  10.395
45272W        W10257  26.129  22.178  13.192
45273W        W10258  16.790   6.870  10.399
45274W        W10259  29.229   2.532   9.757
45275W        W10260  18.182  41.443  14.236
45276W        W10261  25.508   5.416   1.976
45277W        W10262  36.403  29.804   0.922
45278W        W10263  30.570   6.032  11.174
45279W        W10264  12.436  35.705   0.132
45280W        W10265  43.252  39.921   0.938
45281W        W10266  34.671  21.240  13.342
45282W        W10267  44.869   0.737  10.574
45283W        W10268  41.025  12.870  14.518
45284W        W10269  43.511  12.073   4.775
45285W        W10270  30.586   0.034  13.354
45286W        W10271  19.214  39.694   0.265
45287W        W10272   1.427  38.250   2.992
45288W        W10273   8.251   0.203  12.846
45289W        W10274  11.746  29.675  14.478
45290W        W10275  20.537  12.779  13.068
45291W        W10276  21.676  29.701  13.008
45292W        W10277  18.281  10.961   4.111
45293W        W10278  32.426   7.347  12.415
45294W        W10279  14.421  43.172  14.894
45295W        W10280  21.167  39.197   2.104
45296W        W10281  38.987  30.516   3.758
45297W        W10282   2.925  16.374  11.053
45298W        W10283  12.470  10.767   1.069
45299W        W10284  38.106  19.154   1.220
45300W        W10285  35.992  26.149  10.980
45301W        W10286  23.618  21.992   1.771
45302W        W10287  42.199  21.399  14.777
45303W        W10288  24.155  22.752   0.548
45304W        W10289  34.017  44.786  14.953
45305W        W10290  17.806  27.318  11.843
45306W        W10291  36.533  16.066   2.262
45307W        W10292  17.193  37.672   3.992
45308W        W10293  40.557  40.244   3.634
45309W        W10294   4.238  11.440   3.287
45310W        W10295   8.612   7.245   4.664
45311W        W10296   5.615  36.701   3.452
45312W        W10297  41.478  13.579  13.533
45313W        W10298  10.191  42.373   1.505
45314W        W10299   7.734  11.168   2.768
45315W        W10300  31.507  31.960   4.081
45316W        W10301  21.272  41.515  10.883
45317W        W10302  42.409  26.890  12.557
45318W        W10303  44.838   5.888   4.527
45319W        W10304  43.277  20.240  12.057
45320W        W10305  24.715  33.978  11.229
45321W        W10306  13.988  25.184  11.174
45322W        W10307  30.656  21.783   1.733
45323W        W10308  16.095  16.559  13.816
45324W        W10309   1.346  15.929  10.708
45325W        W10310   5.198   4.171   0.715
45326W        W10311  34.516  36.164   3.626
45327W        W10312  28.633  16.688  11.947
45328W        W10313  44.868   4.798   4.835
45329W        W10314  42.820  25.732   2.832
45330W        W10315  29.499  25.758   1.055
45331W        W10316  30.349  27.057  14.483
45332W        W10317  23.615   5.161  10.476
45333W        W10318  25.702  34.222  13.078
45334W        W10319  32.651   8.086  14.826
45335W        W10320   9.589  44.365  10.660
45336W        W10321  17.425  36.280  13.112
45337W        W10322  38.418  12.389   5.023
45338W        W10323  18.184  22.624   4.614
45339W        W10324   9.158  17.333   0.173
45340W        W10325  28.175  37.615   4.493
45341W        W10326  38.064   0.642   3.367
45342W        W10327  16.655  37.769  12.652
45343W        W10328  16.275  30.984   1.576
45344W        W10329  33.118  44.846  10.730
45345W        W10330  37.985  40.076   4.334
45346W        W10331  13.335  21.532   3.165
45347W        W10332  35.852  26.038  13.882
45348W        W10333   2.520  16.648   2.197
45349W        W10334  15.255  29.984   4.532
45350W        W10335   9.696  34.607  11.651
45351W        W10336  38.176  24.897  12.980
45352W        W10337  30.906  33.673   0.724
45353W        W10338  21.905   1.029  12.003
45354W        W10339  40.798  22.514   4.598
45355W        W10340  18.432   1.388   4.601
45356W        W10341  43.826  37.365  11.624
45357W        W10342  19.007  37.918   3.274
45358W        W10343   4.936  28.611  14.378
45359W        W10344  15.168   9.590  14.822
45360W        W10345   0.258   1.332   2.730
45361W        W10346  15.200  20.365  12.985
45362W        W10347  19.443  28.980   3.089
45363W        W10348  38.732  13.538   4.182
45364W        W10349   8.195  10.362  12.503
45365W        W10350  23.445  35.566  10.722
45366W        W10351  20.731  44.963   1.148
45367W        W10352  39.240   9.695  13.964
45368W        W10353  14.355  20.713  10.678
45369W        W10354  36.106  41.418   1.843
45370W        W10355  39.776   6.832   1.645
45371W        W10356  28.572   5.517  10.333
45372W        W10357  37.803  16.859  11.193
45373W        W10358  35.162  12.349   3.750
45374W        W10359  23.538  32.897  14.423
45375W        W10360   7.814  14.278   5.244
45376W        W10361   7.719  18.231  10.760
45377W        W10362  35.886  22.682  10.443
45378W        W10363  15.032  20.638   1.243
45379W        W10364  34.939  40.508   1.327
45380W        W10365  37.032  34.368  14.399
45381W        W10366  40.811  19.138   1.924
45382W        W10367  23.536  18.815  10.967
45383W        W10368  37.803  22.089   4.333
45384W        W10369  22.053   5.790   4.620
45385W        W10370  36.522   2.919   3.863
45386W        W10371  39.003  28.469  14.345
45387W        W10372  29.513  24.602  13.221
45388W        W10373   6.920  35.873  13.118
45389W        W10374  43.556  13.339   3.664
45390W        W10375   8.456  43.824  14.318
45391W        W10376   9.886  43.039   2.835
45392W        W10377  17.591  11.705   0.045
45393W        W10378  29.053   6.473   0.088
45394W        W10379  31.627  43.814  10.632
45395W        W10380  29.031  27.093   0.122
45396W        W10381  40.649  25.589   1.390
45397W        W10382  36.446  17.120  14.227
45398W        W10383  19.188  17.250   3.131
45399W        W10384  24.038  39.536   0.506
45400W        W10385  20.110  39.110  11.915
45401W        W10386  11.250  41.487   0.603
45402W        W10387  37.421  41.670  14.658
45403W        W10388  30.594  26.591  14.467
45404W        W10389  15.118  26.217   3.103
45405W        W10390   9.903  16.676  11.282
45406W        W10391   4.945  18.193  13.081
45407W        W10392  18.602  20.002   2.348
45408W        W10393   9.734  43.912   2.786
45409W        W10394  32.117  35.009  12.145
45410W        W10395  24.900   5.952   2.310
45411W        W10396  31.479  22.081   2.142
45412W        W10397  21.068  29.444   4.389
45413W        W10398  16.684  10.233   1.026
45414W        W10399  29.058  15.648   0.127
45415W        W10400   6.182  26.409   4.763
45416W        W10401  31.655  37.399  11.645
45417W        W10402   8.611   6.212   0.970
45418W        W10403  12.781   9.777   4.612
45419W        W10404  21.626  26.560  13.356
45420W        W10405  10.913  36.267   4.215
45421W        W10406  15.321  13.763  13.469
45422W        W10407  34.070  13.445   5.290
45423W        W10408   0.325   6.919  12.469
45424W        W10409  17.728  10.332  12.837
45425W        W10410  12.993  12.194  12.580
45426W        W10411  19.458  24.473   2.318
45427W        W10412  36.508  22.521  12.590
45428W        W10413  21.071  15.542  13.504
45429W        W10414  22.063   2.235  13.512
45430W        W10415  10.672  10.291  10.775
45431W        W10416  16.240  35.389  13.056
45432W        W10417   4.626  42.422  11.125
45433W        W10418   2.809  16.141   2.383
45434W        W10419  34.073  14.787   1.757
45435W        W10420  20.573  16.348  11.716
45436W        W10421  31.364  44.054   2.902
45437W        W10422  24.867  32.585  10.768
45438W        W10423  36.749  11.245  13.004
45439W        W10424  17.095   3.452  13.804
45440W        W10425  44.987  15.412  12.581
45441W        W10426  37.427  40.658   1.338
45442W        W10427  10.619  10.781   0.890
45443W        W10428  12.678   4.888  14.703
45444W        W10429   5.865  11.324  13.053
45445W        W10430  24.576  42.582  12.561
45446W        W10431  21.199  12.135  12.722
45447W        W10432  16.325   5.181  14.070
45448W        W10433   2.462  42.535   2.355
45449W        W10434  35.101   6.697  14.942
45450W        W10435  15.594   2.131   0.955
45451W        W10436  25.922   4.005   1.968
45452W        W10437  39.455  43.050   4.201
45453W        W10438  21.702   4.077  11.006
45454W        W10439  23.556  11.041   2.263
45455W        W10440  14.835  28.288   2.247
45456W        W10441  42.124  28.088   4.211
45457W        W10442  23.920  28.130   1.887
45458W        W10443  32.349   7.581   0.629
45459W        W10444   6.155  17.566   1.337
45460W        W10445  34.945   8.136  14.781
45461W        W10446   2.961  22.672   1.752
45462W        W10447   0.128   0.195  14.439
45463W        W10448  22.304  20.657  12.925
45464W        W10449  44.736   3.677   3.726
45465W        W10450  40.297  23.219  14.326
45466W        W10451  14.083  27.361   2.762
45467W        W10452  26.530  42.748   2.265
45468W        W10453  37.102  31.133   2.207
45469W        W10454  36.022  21.171  12.431
45470W        W10455  13.658  17.587   2.782
45471W        W10456  17.794  34.543  10.510
45472W        W10457  32.179  16.424  12.056
45473W        W10458  18.204  21.273  11.282
45474W        W10459   9.992  28.219  11.109
45475W        W10460   3.312  28.160  10.712
45476W        W10461  26.972  13.697   1.097
45477W        W10462  43.516  20.151  11.082
45478W        W10463   8.899  36.372  11.818
45479W        W10464   8.148  34.935   2.157
45480W        W10465   2.591  23.541   2.237
45481W        W10466   2.894  43.242  14.415
45482W        W10467   3.459   5.128  13.913
45483W        W10468  24.657  25.067  10.846
45484W        W10469  19.772  39.287   3.593
45485W        W10470  42.428  37.620   0.913
45486W        W10471  25.095  43.427  13.672
45487W        W10472   2.243   1.171   2.944
45488W        W10473  34.526  10.845  13.299
45489W        W10474  30.538  21.105   3.627
45490W        W10475  31.935  37.282   3.256
45491W        W10476   2.828  13.063  12.025
45492W        W10477  12.858  30.559  12.076
45493W        W10478  42.297  13.844  12.399
45494W        W10479  20.499  43.903  13.698
45495W        W10480  18.556  24.457  14.051
45496W        W10481  23.740  27.145  13.366
45497W        W10482  24.585  24.182   0.394
45498W        W10483  25.203  13.592  12.597
45499W        W10484   0.699  13.639   0.847
45500W        W10485  30.690  10.834  12.799
45501W        W10486  37.522   2.293  12.464
45502W        W10487  42.508  12.282  13.966
45503W        W10488  27.545   6.351   9.868
45504W        W10489  24.170  20.363   0.782
45505W        W10490  11.849  27.377  12.023
45506W        W10491  23.486  14.179   2.176
45507W        W10492   5.642  13.269  13.943
45508W        W10493  42.452   7.361  11.620
45509W        W10494  18.541  19.198  14.302
45510W        W10495  10.750   3.693  14.289
45511W        W10496  36.520  38.006   2.554
45512W        W10497  17.953  10.645  11.218
45513W        W10498  41.985   4.633   2.709
45514W        W10499  39.296  29.023   1.607
45515W        W10500   0.890  40.330  14.013
45516W        W10501   3.519  25.428  10.623
45517W        W10502  26.750  13.583  11.159
45518W        W10503  30.879   1.338  12.399
45519W        W10504  36.890  43.172  13.269
45520W        W10505  35.245  27.644  14.936
45521W        W10506  44.791   6.145   0.269
45522W        W10507   6.121  14.348  11.114
45523W        W10508  18.130  38.350   0.880
45524W        W10509  21.018  34.624   1.004
45525W        W10510  38.907  29.430  14.990
45526W        W10511  20.636  23.001  13.008
45527W        W10512  36.644  10.901   1.672
45528W        W10513  17.561   3.616   3.783
45529W        W10514  32.894  17.657   0.429
45530W        W10515  25.548  19.726   3.374
45531W        W10516  44.786  18.805   4.634
45532W        W10517  39.986  36.152   1.309
45533W        W10518  44.809  44.341  14.818
45534W        W10519  25.595  30.483  13.476
45535W        W10520  21.770   8.675   3.766
45536W        W10521   3.476   8.357   3.623
45537W        W10522   5.994  44.068  14.448
45538W        W10523  38.296  30.589  12.563
45539W        W10524  25.713  29.052  12.529
45540W        W10525  39.568   8.447   4.168
45541W        W10526   1.719  39.817   2.266
45542W        W10527  17.292  18.720   2.694
45543W        W10528  30.253   5.527  13.178
45544W        W10529  42.546  23.179   2.821
45545W        W10530   3.262  21.238  13.036
45546W        W10531  30.007  18.946   2.174
45547W        W10532  13.262  10.520   1.812
45548W        W10533  20.648   6.488   1.420
45549W        W10534  40.921  27.714  10.857
45550W        W10535  15.602  33.453  10.124
45551W        W10536  39.939  10.177   0.395
45552W        W10537  19.113  36.215  11.294
45553W        W10538  15.325  15.617   2.769
45554W        W10539  33.088   1.975   0.448
45555W        W10540   0.863  38.125   2.327
45556W        W10541  17.688   4.206  11.728
45557W        W10542   2.531  37.049  13.820
45558W        W10543   0.153  13.679   0.979
45559W        W10544  41.770  41.575  14.192
45560W        W10545  10.739  10.835   3.451
45561W        W10546   7.890  21.265   3.245
45562W        W10547  14.208  44.707   2.204
45563W        W10548  30.578   2.452  12.976
45564W        W10549  30.697  21.868  12.089
45565W        W10550  28.479  31.904   2.269
45566W        W10551  27.369  37.984  11.438
45567W        W10552  44.289  18.835   0.512
45568W        W10553  33.100  28.448   4.749
45569W        W10554  16.821  11.005   0.724
45570W        W10555  21.688  27.918  14.570
45571W        W10556   3.404  23.117   0.926
45572W        W10557   8.865  29.472  12.981
45573W        W10558   3.971  36.573  11.569
45574W        W10559  15.263  41.611   2.674
45575W        W10560  24.120   8.596  14.048
45576W        W10561  38.993  30.363  14.359
45577W        W10562  17.075  14.335   1.401
45578W        W10563   7.344  42.426   0.049
45579W        W10564   9.891  24.698   1.862
45580W        W10565  39.032  24.805  11.936
45581W        W10566  26.535  34.874  13.437
45582W        W10567   9.448  31.380  13.540
45583W        W10568   9.322  32.916  14.727
45584W        W10569  30.405  31.462  14.978
45585W        W10570  10.330  27.959   3.741
45586W        W10571  20.571  16.258  11.157
45587W        W10572  35.015  15.049   2.431
45588W        W10573  44.249  18.557  14.130
45589W        W10574  14.580  41.074  12.868
45590W        W10575  43.760   4.776  12.739
45591W        W10576  43.405   1.462  10.652
45592W        W10577   2.263  39.534  12.051
45593W        W10578  10.928  35.103   1.624
45594W        W10579  36.365   4.711   4.688
45595W        W10580   7.581   6.796  14.830
45596W        W10581   7.209  40.885   0.352
45597W        W10582  12.337  14.045  12.613
45598W        W10583   6.884  37.265  11.925
45599W        W10584  35.868  30.515   4.317
45600W        W10585  33.020  14.290  11.029
45601W        W10586   6.425  10.801   2.294
45602W        W10587  24.881  26.042   1.791
45603W        W10588  29.722   2.741   4.804
45604W        W10589  23.984  44.500  11.745
45605W        W10590   4.637  12.597  11.130
45606W        W10591  21.521  15.390  12.586
45607W        W10592   7.043  26.553   1.134
45608W        W10593  35.949  15.829  10.583
45609W        W10594  29.482  40.662   4.291
45610W        W10595  12.098  25.491   1.378
45611W        W10596   4.757  32.632   1.439
45612W        W10597  10.454  17.633   2.483
45613W        W10598  13.287   4.631  12.105
45614W        W10599  27.648  41.298  10.664
45615W        W10600   9.572  44.080  13.458
45616W        W10601  31.536  42.895   0.443
45617W        W10602   5.634  13.760   1.750
45618W        W10603   3.232   7.883   4.810
45619W        W10604  26.349  41.945  11.635
45620W        W10605  21.114  44.121  11.766
45621W        W10606  29.141  19.434  11.695
45622W        W10607  30.195  19.928   2.358
45623W        W10608  16.611  28.230   2.618
45624W        W10609  21.776  27.959  12.663
45625W        W10610  18.331  24.182   4.484
45626W        W10611  25.053  24.706   0.879
45627W        W10612   2.680  38.978  14.446
45628W        W10613  23.151  41.553  14.886
45629W        W10614  25.547  10.375  13.901
45630W        W10615  39.893   2.156   3.307
45631W        W10616  15.510   5.341   1.875
45632W        W10617  32.188  29.210   1.759
45633W        W10618  28.104  44.438   2.376
45634W        W10619   4.482   1.957   4.599
45635W        W10620  16.681  11.455   2.520
45636W        W10621  41.906  15.064  10.284
45637W        W10622  20.123  37.342  12.926
45638W        W10623  43.788  19.547   1.306
45639W        W10624  30.653   8.499   2.926
45640W        W10625   3.748  39.107  14.754
45641W        W10626   5.171  41.773   0.434
45642W        W10627  43.822  10.811  11.579
45643W        W10628  44.937  37.129   4.498
45644W        W10629  25.244  34.664   1.790
45645W        W10630  28.080  33.023   0.868
45646W        W10631  17.003  28.517  14.943
45647W        W10632  25.041   3.753  11.000
45648W        W10633  19.081  11.094  13.929
45649W        W10634   2.029  27.246   1.814
45650W        W10635  36.635  18.759  13.869
45651W        W10636  20.824   4.318   2.786
45652W        W10637  13.614  17.438  12.648
45653W        W10638  22.784   5.482   1.763
45654W        W10639   1.772  29.450  13.513
45655W        W10640  44.293   4.680   5.101
45656W        W10641  36.816  30.546  13.114
45657W        W10642  28.642  16.995   0.507
45658W        W10643  34.138   7.423  12.562
45659W        W10644  41.600  18.926  10.305
45660W        W10645  13.101   9.838  11.483
45661W        W10646   2.937   3.787  13.824
45662W        W10647  37.096  18.150  14.785
45663W        W10648  24.219   9.151  11.669
45664W        W10649  44.554   1.982   0.862
45665W        W10650  17.240  23.026   3.664
45666W        W10651  15.366  32.425  14.758
45667W        W10652  40.231  19.032  14.504
45668W        W10653  36.078   3.729  12.053
45669W        W10654  42.311  28.270   5.076
45670W        W10655  16.604   5.768  13.001
45671W        W10656  18.599   4.641   4.060
45672W        W10657  19.427   3.389   3.145
45673W        W10658  43.924  35.017   3.227
45674W        W10659  11.722  30.170   3.673
45675W        W10660   1.721  19.068  11.799
45676W        W10661  40.210  42.466  13.996
45677W        W10662   4.459   4.921  14.944
45678W        W10663  28.638  40.062   0.010
45679W        W10664  14.156  17.762   1.130
45680W        W10665  21.605   9.456  12.974
45681W        W10666  30.457   8.884   3.217
45682W        W10667  24.648   3.546   4.252
45683W        W10668  21.434  17.044  12.967
45684W        W10669  28.089   0.940  14.566
45685W        W10670  26.423  20.763  11.667
45686W        W10671  16.030   9.766   2.342
45687W        W10672  44.859   1.336  11.180
45688W        W10673  21.222   3.752  13.384
45689W        W10674  31.063  33.000   2.719
45690W        W10675  11.880  37.761   2.721
45691W        W10676  41.737  11.336   1.809
45692W        W10677  16.029   4.194   0.234
45693W        W10678  34.643  29.021   1.825
45694W        W10679   7.892  14.774  10.999
45695W        W10680   1.388   2.935  14.326
45696W        W10681   1.843  25.702   4.830
45697W        W10682   7.112   7.471   2.906
45698W        W10683  18.414  44.488  10.749
45699W        W10684  12.196  14.678   2.997
45700W        W10685   0.108  24.102  10.803
45701W        W10686  26.277  35.536  10.971
45702W        W10687  30.443   6.361   3.296
45703W        W10688   7.185  14.136   1.776
45704W        W10689  13.103   8.037  12.543
45705W        W10690  38.534   6.762   0.760
45706W        W10691  41.481  44.944   4.640
45707W        W10692   0.240   5.838  14.036
45708W        W10693  40.230  30.014  12.942
45709W        W10694   5.024  29.721  14.630
45710W        W10695   4.449   3.817  11.153
45711W        W10696  41.845  43.743   2.816
45712W        W10697   6.835  35.930  11.157
45713W        W10698   4.169  11.643   0.375
45714W        W10699  19.253   2.040  13.976
45715W        W10700  30.508  32.277   4.933
45716W        W10701  35.829  15.554  13.238
45717W        W10702  16.672  27.414  13.918
45718W        W10703   6.613  12.677   4.920
45719W        W10704  22.613  25.956   0.864
45720W        W10705  19.773  24.362   0.625
45721W        W10706  25.662  29.370   2.778
45722W        W10707  17.946  16.160   4.320
45723W        W10708  29.056   2.273  13.006
45724W        W10709  11.298   3.749  10.987
45725W        W10710  37.606  42.544   1.133
45726W        W10711  13.917  36.994   4.158
45727W        W10712  30.212  25.132   4.061
45728W        W10713  25.744  15.204  10.267
45729W        W10714   4.290  13.286  13.153
45730W        W10715   7.727  28.781   4.104
45731W        W10716  42.928  36.525  10.845
45732W        W10717  20.662   6.149   1.879
45733W        W10718   7.351   9.174  14.322
45734W        W10719  40.505  13.830   1.834
45735W        W10720   0.110  21.676   1.233
45736W        W10721  16.279  14.945   2.199
45737W        W10722  44.234  26.304  12.031
45738W        W10723  35.556  25.634   1.279
45739W        W10724  40.772  33.945  12.200
45740W        W10725  26.459  14.354   1.470
45741W        W10726   5.893   1.754  12.835
45742W        W10727   1.413  12.170   3.408
45743W        W10728  30.117  40.836   3.747
45744W        W10729  13.864  38.013  12.053
45745W        W10730   4.482  15.723   0.422
45746W        W10731  23.020  18.707  11.007
45747W        W10732  28.974  13.118  11.115
45748W        W10733  30.986   9.314  10.712
45749W        W10734  21.897  10.261  13.355
45750W        W10735  30.388   3.879   2.754
45751W        W10736   4.661  35.039   1.122
45752W        W10737   4.430  12.789  11.577
45753W        W10738  26.662   1.888  13.963
45754W        W10739  18.747  42.260   0.922
45755W        W10740  19.403  26.376   3.411
45756W        W10741  35.420  21.318   3.250
45757W        W10742   1.542  44.062  14.810
45758W        W10743  33.336  30.464   3.069
45759W        W10744  26.610   0.030  12.849
45760W        W10745  22.520  42.931  13.631
45761W        W10746   2.654   0.373  10.708
45762W        W10747  26.712  13.200  12.423
45763W        W10748  32.510  23.145   1.796
45764W        W10749   5.965  26.996  13.006
45765W        W10750  18.029   9.616   0.407
45766W        W10751   6.900   3.631   5.007
45767W        W10752  42.392  14.657   4.736
45768W        W10753  20.333   0.905   4.452
45769W        W10754  12.416  23.833  11.140
45770W        W10755  12.644  44.877  14.709
45771W        W10756  10.166  44.964  12.597
45772W        W10757  18.681  38.819  14.491
45773W        W10758   6.955  34.626  10.726
45774W        W10759  31.546  40.861  13.881
45775W        W10760   1.325  14.805  10.727
45776W        W10761   6.416  16.205   4.732
45777W        W10762  25.023  33.020   2.094
45778W        W10763  40.758  35.616  12.969
45779W        W10764  28.894   9.532   2.029
45780W        W10765  14.413   4.770  11.230
45781W        W10766  13.913  25.058  10.685
45782W        W10767  35.646  18.763   0.671
45783W        W10768   7.415  14.336  12.954
45784W        W10769  27.991   8.444   1.264
45785W        W10770  22.240  39.536   0.265
45786W        W10771  38.747  41.854  11.505
45787W        W10772  39.083   9.075   1.515
45788W        W10773  26.710  42.848   3.797
45789W        W10774  33.875  17.216   1.924
45790W        W10775  35.018  36.774   0.230
45791W        W10776   7.761  16.062   1.666
45792W        W10777  38.771  10.899   3.372
45793W        W10778  31.337  24.961   3.328
45794W        W10779  42.297   1.872   1.515
45795W        W10780  32.686  35.967   2.697
45796W        W10781   8.866  39.747   3.242
45797W        W10782  38.259  18.646   4.537
45798W        W10783  34.613   6.912  11.545
45799W        W10784   1.476  33.631  13.807
45800W        W10785  12.565   0.541   2.398
45801W        W10786  35.898  15.370   0.922
45802W        W10787   4.513  18.609  11.230
45803W        W10788   7.223  32.403   4.923
45804W        W10789  42.766  26.635   1.844
45805W        W10790  38.667  27.968  11.301
45806W        W10791  35.051   6.877  11.838
45807W        W10792  27.793  43.549  12.045
45808W        W10793  19.058  24.244  12.607
45809W        W10794  21.546  32.901   2.610
45810W        W10795  21.686   1.475   2.839
45811W        W10796  35.914  17.613   4.312
45812W        W10797   7.591  13.665   4.154
45813W        W10798  12.190   7.169  12.314
45814W        W10799  31.909  15.343   2.707
45815W        W10800  24.032  17.440  12.410
45816W        W10801  28.993  20.590   0.875
45817W        W10802   4.662  13.552  14.940
45818W        W10803  18.530  18.639   2.328
45819W        W10804  14.601  30.152   4.170
45820W        W10805   0.916  11.662   1.428
45821W        W10806  22.046  20.113  12.558
45822W        W10807  10.678  37.999   1.324
45823W        W10808  28.805  34.989   2.993
45824W        W10809  37.777  29.514   2.267
45825W        W10810  29.812   6.807   0.406
45826W        W10811  12.531  38.480  10.733
45827W        W10812  21.778  27.377  14.704
45828W        W10813  42.496  25.010  11.102
45829W        W10814  15.302   8.977  12.230
45830W        W10815   3.261  30.398   0.918
45831W        W10816  29.153  13.373   0.115
45832W        W10817  23.043   4.343   3.929
45833W        W10818  31.409  30.823   0.182
45834W        W10819   1.704  29.745   1.462
45835W        W10820  14.766  16.662   3.202
45836W        W10821  11.097  26.614  14.597
45837W        W10822   5.995   8.249   1.267
45838W        W10823  42.581  44.348   1.068
45839W        W10824  41.204  29.207   3.103
45840W        W10825   3.354  27.170  11.333
45841W        W10826   1.820  28.952  10.939
45842W        W10827   3.519  34.475  11.509
45843W        W10828  39.080  44.550   1.984
45844W        W10829  15.731  35.010  14.340
45845W        W10830  28.473  12.645   0.317
45846W        W10831  19.061  32.945   0.495
45847W        W10832  18.741  40.063  10.852
45848W        W10833  21.680   2.888   4.903
45849W        W10834  11.792  37.868   0.917
45850W        W10835  26.594  16.985   0.961
45851W        W10836  15.135  43.728   4.590
45852W        W10837  32.573  18.081  12.602
45853W        W10838  25.729   8.411   4.254
45854W        W10839  23.424  42.819   3.662
45855W        W10840  39.262  34.782  13.511
45856W        W10841  39.491  33.490   3.305
45857W        W10842  25.762  20.273   4.600
45858W        W10843  42.023  39.819  11.606
45859W        W10844  16.831  18.993  11.113
45860W        W10845  12.210   8.164  12.368
45861W        W10846  32.583  39.635  11.566
45862W        W10847  20.770  38.581   4.055
45863W        W10848  43.398  18.581  14.241
45864W        W10849  10.291  41.851  12.066
45865W        W10850  18.331   0.706   0.308
45866W        W10851  22.672  34.967  12.337
45867W        W10852  21.733   0.290   2.201
45868W        W10853   5.609  16.290   1.712
45869W        W10854   3.348   8.350   5.111
45870W        W10855  27.917  25.076  13.677
45871W        W10856  17.196  42.299   4.122
45872W        W10857   6.789   4.054  14.475
45873W        W10858  24.794  10.058   2.830
45874W        W10859   8.206  17.399   3.033
45875W        W10860  21.117   7.923   3.852
45876W        W10861   9.366  40.106  12.007
45877W        W10862  33.178  24.128  12.343
45878W        W10863  14.281   3.875  13.945
45879W        W10864  43.612   1.767   4.242
45880W        W10865   3.409  28.786  11.602
45881W        W10866  43.984  28.523  12.018
45882W        W10867  34.979  35.931  14.433
45883W        W10868   3.135  29.438  12.052
45884W        W10869  11.655  17.153   2.377
45885W        W10870  32.632  29.436   3.300
45886W        W10871  22.148  12.886   2.361
45887W        W10872  31.943  25.473   2.918
45888W        W10873  17.681  32.001   0.256
45889W        W10874  35.965  28.042  14.982
45890W        W10875  42.248  39.018   0.400
45891W        W10876  31.993  24.735  10.706
45892W        W10877  37.948   3.539   0.942
45893W        W10878  44.704  21.216   0.285
45894W        W10879  25.847   0.616  11.972
45895W        W10880  24.038  31.075  12.585
45896W        W10881  26.247  17.000  11.476
45897W        W10882  32.914  32.174   2.187
45898W        W10883  25.514  24.407   4.119
45899W        W10884  17.358   2.955  13.868
45900W        W10885   8.798  23.168  11.414
45901W        W10886  33.603  37.400  12.018
45902W        W10887  18.039  11.059  11.991
45903W        W10888  24.884  43.847  13.965
45904W        W10889  28.608  26.265  14.820
45905W        W10890  24.708  10.129   0.041
45906W        W10891  19.266  17.531   9.702
45907W        W10892   1.128   5.922   4.197
45908W        W10893  26.167  22.456   0.036
45909W        W10894  10.779  34.665   0.857
45910W        W10895   3.673  32.664   4.502
45911W        W10896  42.590  21.616  14.469
45912W        W10897   7.247   0.549   1.834
45913W        W10898  16.598  43.851  11.677
45914W        W10899  42.290  11.134  12.436
45915W        W10900   8.536  22.591   3.228
45916W        W10901   0.440  39.346   1.576
45917W        W10902  34.722  14.653   0.067
45918W        W10903   4.935  35.023   0.097
45919W        W10904  21.204  17.244   2.809
45920W        W10905   3.867  31.098   0.286
45921W        W10906   4.318  37.386  14.905
45922W        W10907   4.435  36.454  10.628
45923W        W10908  41.439  34.894  12.922
45924W        W10909  43.002  11.049   3.635
45925W        W10910  13.296  42.261  13.406
45926W        W10911  12.061  15.943  12.588
45927W        W10912  28.061  29.306  14.826
45928W        W10913  26.509  14.181  14.879
45929W        W10914   9.281   2.724   0.367
45930W        W10915  18.499  38.070   0.633
45931W        W10916  22.117   2.999  12.308
45932W        W10917  17.309  31.590  10.875
45933W        W10918  21.847  42.069   0.784
45934W        W10919   9.205  32.951   0.258
45935W        W10920  42.755  40.957   0.759
45936W        W10921  21.790   7.192  11.013
45937W        W10922  18.490  21.179   0.218
45938W        W10923  29.517  15.414   0.659
45939W        W10924  18.006  37.883  12.457
45940W        W10925   1.020   5.946   3.295
45941W        W10926  29.927  36.715   0.995
45942W        W10927  40.493  20.955   1.924
45943W        W10928   9.032  24.211  11.198
45944W        W10929  13.757   3.751  12.615
45945W        W10930  25.100  33.436   3.962
45946W        W10931  21.544  36.428  13.088
45947W        W10932  25.175  17.764   3.759
45948W        W10933  24.104   6.335  12.956
45949W        W10934   4.091  40.244   0.307
45950W        W10935   0.183  37.654  12.545
45951W        W10936  16.787  17.007   3.940
45952W        W10937  12.348  10.223   2.755
45953W        W10938   1.968   3.838  13.613
45954W        W10939  24.646  16.638   0.389
45955W        W10940  18.667   2.469   3.710
45956W        W10941   3.964  23.281  13.790
45957W        W10942  11.318   7.560   4.678
45958W        W10943  28.060  14.133   1.861
45959W        W10944  25.680  43.298  13.190
45960W        W10945  33.807  13.185  13.063
45961W        W10946  19.548  41.761  11.659
45962W        W10947   2.377   6.557   0.864
45963W        W10948  42.419  44.828  13.100
45964W        W10949  11.642   5.244   0.780
45965W        W10950  44.275  28.746  14.981
45966W        W10951  19.870   5.263   4.997
45967W        W10952   1.035  38.501   2.645
45968W        W10953  36.642   8.406   9.557
45969W        W10954  37.595   9.643  11.284
45970W        W10955  13.053  16.039   3.656
45971W        W10956  12.664  16.835  11.196
45972W        W10957  25.059  44.836  12.325
45973W        W10958   5.719  26.253   3.420
45974W        W10959  33.831  32.014  11.725
45975W        W10960  16.754   2.650  12.988
45976W        W10961  36.897   6.300   1.672
45977W        W10962  42.356   2.384  12.903
45978W        W10963  35.844  24.200   3.177
45979W        W10964  38.883  24.798   1.758
45980W        W10965  28.392  25.032   3.668
45981W        W10966   9.932  37.014  14.485
45982W        W10967  17.349  25.708   4.222
45983W        W10968  16.648  38.851  14.360
45984W        W10969   5.775  28.416  11.530
45985W        W10970  26.201  44.365  14.945
45986W        W10971  11.231  19.141  10.520
45987W        W10972  32.663  18.829   0.280
45988W        W10973  19.834  22.942   4.549
45989W        W10974  37.882  26.149   1.373
45990W        W10975   0.974  27.412  13.856
45991W        W10976  29.597  30.329   1.235
45992W        W10977   3.884  30.830   2.630
45993W        W10978  24.302  19.165  14.921
45994W        W10979  34.331  20.944  11.552
45995W        W10980   3.539  33.989   1.904
45996W        W10981   5.769  14.290  10.702
45997W        W10982  11.246  31.711   0.798
45998W        W10983  19.042  11.977   3.262
45999W        W10984   8.595  18.310   4.588
46000W        W10985  39.354  41.283   2.077
46001W        W10986  37.492  27.665  12.170
46002W        W10987  36.938  12.781   3.323
46003W        W10988  38.064  15.001  12.004
46004W        W10989  21.282  38.550   1.203
46005W        W10990  20.673   5.464  11.582
46006W        W10991  23.040  29.471  11.955
46007W        W10992  12.051  44.869  13.006
46008W        W10993  25.384   8.915  11.390
46009W        W10994  38.383  34.792  13.063
46010W        W10995   0.230  43.423  14.118
46011W        W10996  26.824  14.191  13.403
46012W        W10997  35.082  16.111   0.684
46013W        W10998  39.734  41.764  11.454
46014W        W10999  18.754  26.460  10.762
46015W        W11000   1.027  28.615   2.880
46016W        W11001  26.013   7.540  10.418
46017W        W11002   3.451  19.261  11.513
46018W        W11003   2.327  18.578   1.659
46019W        W11004  27.941   4.280   4.204
46020W        W11005  36.886  32.131  13.473
46021W        W11006  25.471  35.505  10.566
46022W        W11007  41.281  43.860   1.599
46023W        W11008  37.362  19.658  11.581
46024W        W11009  18.608  41.401  12.139
46025W        W11010  41.282  43.185  14.412
46026W        W11011  11.087  11.665   1.370
46027W        W11012  35.660  30.688   4.875
46028W        W11013  10.497  32.789  12.919
46029W        W11014  24.791  25.050  11.359
46030W        W11015  29.668   1.930  13.651
46031W        W11016  32.175  33.694   0.779
46032W        W11017  39.398  34.298  13.596
46033W        W11018  24.857  25.198   0.828
46034W        W11019  22.032  12.600  14.077
46035W        W11020  19.186  20.908  13.943
46036W        W11021  27.113  34.021  13.372
46037W        W11022  13.003  11.803   2.562
46038W        W11023  20.656  12.290  12.947
46039W        W11024   6.343  33.888  14.505
46040W        W11025  40.504  27.278   2.292
46041W        W11026  41.348  38.012   5.189
46042W        W11027  36.034  39.557   1.788
46043W        W11028  17.131  42.519  12.216
46044W        W11029  43.952  39.292  10.712
46045W        W11030  18.370   7.100   1.201
46046W        W11031  38.211  37.762   9.642
46047W        W11032  12.757  28.658   4.141
46048W        W11033  39.298   1.794   3.797
46049W        W11034  17.745  32.339  13.211
46050W        W11035  42.277  24.002  13.485
46051W        W11036  39.435   8.867   2.227
46052W        W11037  19.760  25.582   3.317
46053W        W11038  27.927  44.365   2.851
46054W        W11039  25.134  31.682  13.360
46055W        W11040  22.199  41.862  13.768
46056W        W11041  21.802  25.088   4.041
46057W        W11042  22.240  16.552   4.626
46058W        W11043  21.121  34.113   2.643
46059W        W11044  12.315   5.765   1.887
46060W        W11045   0.907  30.686  10.426
46061W        W11046  38.401  28.891   2.330
46062W        W11047   2.657  32.929   0.809
46063W        W11048  28.048  43.242  10.665
46064W        W11049   0.493  41.580  14.241
46065W        W11050  17.684  27.694  13.340
46066W        W11051   1.094  14.734  11.175
46067W        W11052   9.718  44.590  13.475
46068W        W11053  11.921  27.993  13.055
46069W        W11054  28.951   7.699  11.042
46070W        W11055  25.310  24.946  14.026
46071W        W11056  20.101  33.568   3.218
46072W        W11057  22.671   4.889  14.479
46073W        W11058  40.834   0.909  11.618
46074W        W11059  27.546  30.770  13.934
46075W        W11060   8.227  18.251  10.857
46076W        W11061  14.215  19.777  14.508
46077W        W11062  29.246  15.749  13.390
46078W        W11063   1.763  43.735   4.228
46079W        W11064   0.902  26.963   3.045
46080W        W11065   3.204  26.954   0.444
46081W        W11066  33.971  35.140   9.857
46082W        W11067   9.847  31.925   2.148
46083W        W11068  27.081   5.151  12.523
46084W        W11069  18.706   2.904   1.152
46085W        W11070   1.944  34.658   2.694
46086W        W11071  33.644  36.910   0.935
46087W        W11072  15.331  38.432  13.389
46088W        W11073   0.967  42.096   0.526
46089W        W11074  26.044  40.722  11.196
46090W        W11075  24.240  18.718  11.298
46091W        W11076  15.825   1.569  11.609
46092W        W11077  44.896  11.456  13.533
46093W        W11078   3.373  16.214   1.412
46094W        W11079  20.244  32.047  10.728
46095W        W11080  24.493  33.118   1.429
46096W        W11081  15.595  28.736  11.899
46097W        W11082   6.922  39.115  11.606
46098W        W11083  36.597  24.620   2.282
46099W        W11084  11.456  24.148  11.164
46100W        W11085   1.446  37.895   0.008
46101W        W11086   9.953  11.293  10.541
46102W        W11087   7.092  29.480  11.027
46103W        W11088  23.264  18.797  10.056
46104W        W11089  41.493  29.730   4.930
46105W        W11090  43.519  12.315  13.882
46106W        W11091  21.050  44.767  12.499
46107W        W11092   6.377  28.814   4.274
46108W        W11093  27.588  43.794   4.268
46109W        W11094  22.071  13.256   3.260
46110W        W11095   4.802  13.755   2.376
46111W        W11096  24.549   4.430  14.898
46112W        W11097  28.998  19.481   0.057
46113W        W11098  23.707  30.434  10.550
46114W        W11099  31.381  19.813  14.656
46115W        W11100   4.818  18.608   0.283
46116W        W11101  30.379   7.755   3.695
46117W        W11102   1.503  10.341   0.953
46118W        W11103  21.762   4.795   0.876
46119W        W11104  15.530  20.273  13.860
46120W        W11105  42.113  11.289   4.180
46121W        W11106  30.253  26.414  11.673
46122W        W11107  18.110  41.305  12.093
46123W        W11108  22.565  27.666   4.847
46124W        W11109  24.312  36.263   5.074
46125W        W11110  33.122  42.241   3.272
46126W        W11111  29.069  13.260  12.464
46127W        W11112  37.216   0.844   1.858
46128W        W11113  43.498  28.525   0.272
46129W        W11114  40.517  42.023   4.574
46130W        W11115  24.482  28.485   1.259
46131W        W11116  12.046  35.368   1.850
46132W        W11117  42.948   4.439   4.455
46133W        W11118  33.583  43.893  10.295
46134W        W11119  34.609   1.640  13.922
46135W        W11120  29.716  23.128   4.681
46136W        W11121  14.719  27.859  14.700
46137W        W11122   7.448  21.166   0.385
46138W        W11123   1.780  19.063  14.279
46139W        W11124  30.625  32.030   2.641
46140W        W11125  36.056   7.408   4.979
46141W        W11126  33.942  35.430  10.950
46142W        W11127   3.429  40.056  13.411
46143W        W11128   6.410  11.882  12.067
46144W        W11129  25.127  33.411   1.363
46145W        W11130  27.502  35.991   1.692
46146W        W11131   3.660   0.714  11.457
46147W        W11132  30.685  13.537  12.057
46148W        W11133  19.276  44.021   0.500
46149W        W11134  27.076   2.274   3.732
46150W        W11135  33.109  12.898   3.920
46151W        W11136   2.369  43.705   1.855
46152W        W11137  19.133  40.401   1.692
46153W        W11138  19.189  12.328   1.311
46154W        W11139   4.036   1.160  14.978
46155W        W11140  24.664   4.666   2.605
46156W        W11141   9.173  40.498   2.966
46157W        W11142  21.227  39.517  11.382
46158W        W11143  42.904  14.733   4.679
46159W        W11144  41.534  25.277   1.753
46160W        W11145  40.128  39.777  11.585
46161W        W11146  41.957  12.559  11.457
46162W        W11147  22.002   1.875  10.994
46163W        W11148   9.625  27.247   2.750
46164W        W11149  18.154  30.943  11.772
46165W        W11150   1.353   3.320  13.379
46166W        W11151   8.948  10.852  12.496
46167W        W11152  31.866  24.421  11.103
46168W        W11153  34.087   7.779   1.677
46169W        W11154  18.219  37.518   2.184
46170W        W11155  31.931   6.928   2.335
46171W        W11156  42.789  24.576  11.145
46172W        W11157   3.428  13.358   3.387
46173W        W11158  11.224  30.645   0.781
46174W        W11159  43.013   5.737   0.879
46175W        W11160  19.303  11.309   0.298
46176W        W11161  43.992  13.597   0.196
46177W        W11162  27.047  40.593   0.372
46178W        W11163  20.320  39.334   3.775
46179W        W11164  19.785  31.405  14.983
46180W        W11165  41.298  38.654  12.194
46181W        W11166  38.562   6.485  12.132
46182W        W11167  20.757  28.575  14.345
46183W        W11168  37.519  14.579   1.393
46184W        W11169  22.765  26.081   3.652
46185W        W11170  37.006  36.193  13.154
46186W        W11171  29.880  42.429   3.130
46187W        W11172  32.678   9.746  12.901
46188W        W11173  15.578  24.518  11.547
46189W        W11174  25.266  28.073  11.581
46190W        W11175   3.484   8.709   3.233
46191W        W11176  28.015  21.246   2.927
46192W        W11177  12.527  12.789   4.731
46193W        W11178  34.991  25.276   2.919
46194W        W11179  23.743  41.999  14.488
46195W        W11180  21.282  18.018  13.827
46196W        W11181  14.717  14.723   0.285
46197W        W11182   9.639  23.597  14.241
46198W        W11183   5.392   4.495   1.555
46199W        W11184  14.230  10.806  11.607
46200W        W11185  18.335  24.011  14.257
46201W        W11186  11.884  29.744  11.696
46202W        W11187  40.986  25.784  13.535
46203W        W11188  17.316  40.944   4.856
46204W        W11189  12.610  14.632   2.341
46205W        W11190  10.439  17.590   1.912
46206W        W11191  41.125  17.026  14.755
46207W        W11192  41.738  32.036  11.086
46208W        W11193  41.293  17.257   0.213
46209W        W11194  30.416  29.146  10.113
46210W        W11195   5.186  14.379  14.930
46211W        W11196   9.182  35.560   0.193
46212W        W11197  33.159   7.349   0.826
46213W        W11198  12.911   5.266   1.167
46214W        W11199  38.876  32.157   1.923
46215W        W11200  44.376  34.403   1.390
46216W        W11201  16.558  12.736   3.754
46217W        W11202  42.334   0.492  12.707
46218W        W11203  16.549   4.254   1.909
46219W        W11204  14.885  26.621   0.989
46220W        W11205  31.199  31.886  12.617
46221W        W11206  12.707  16.461   1.332
46222W        W11207  14.430  20.103  11.693
46223W        W11208  17.869  43.942   1.739
46224W        W11209  15.937  34.351  10.299
46225W        W11210  43.967   2.972   1.814
46226W        W11211  22.776  19.119  11.392
46227W        W11212  13.766  10.366  12.488
46228W        W11213  17.838  44.771  12.539
46229W        W11214  20.660  22.466  12.942
46230W        W11215  22.613  24.086   3.758
46231W        W11216  19.281   9.014   3.566
46232W        W11217   1.542  43.493   3.314
46233W        W11218  36.511  22.822   0.560
46234W        W11219  36.358   4.674   3.595
46235W        W11220  29.696   4.950  10.161
46236W        W11221   9.852  36.497  14.323
46237W        W11222  22.674   7.894   3.625
46238W        W11223  40.210  32.931  10.979
46239W        W11224   2.003  39.738  12.430
46240W        W11225   6.645  41.558   2.370
46241W        W11226   6.049   2.713  14.204
46242W        W11227  24.268  42.928  11.941
46243W        W11228   9.593  34.903  14.608
46244W        W11229   2.515   3.288   4.194
46245W        W11230  34.623   7.278   0.806
46246W        W11231  20.948  44.567  12.009
46247W        W11232  34.069  43.726   1.959
46248W        W11233  32.038  41.345  10.777
46249W        W11234  30.554   6.606   4.305
46250W        W11235  39.246   7.623  12.519
46251W        W11236  42.279  38.049   5.058
46252W        W11237  35.360  23.731  12.986
46253W        W11238  20.794  35.637   1.801
46254W        W11239   0.931  22.979   0.893
46255W        W11240  41.296  39.076  10.978
46256W        W11241  39.032  16.297   0.702
46257W        W11242  44.042  36.409   2.133
46258W        W11243   4.421   3.837  13.477
46259W        W11244  13.285  14.779  11.402
46260W        W11245  30.164  40.588   4.706
46261W        W11246  24.944   5.118  12.000
46262W        W11247  28.891   5.224  13.021
46263W        W11248  10.681  30.458  13.598
46264W        W11249  10.816  24.951  12.476
46265W        W11250  31.490   8.683  13.524
46266W        W11251  35.042  12.890   1.384
46267W        W11252  27.896  32.839  13.364
46268W        W11253  43.242  23.083  10.715
46269W        W11254  33.491  22.473  11.956
46270W        W11255  31.898  33.070   1.232
46271W        W11256   9.864  43.902   3.307
46272W        W11257  23.111  17.365  11.898
46273W        W11258  43.815   4.686   0.286
46274W        W11259  30.091  30.745  13.113
46275W        W11260  44.447  15.092   3.205
46276W        W11261  15.940   2.042  10.180
46277W        W11262  32.406  23.575   2.383
46278W        W11263  17.999  19.069  11.770
46279W        W11264   7.756  24.977  12.558
46280W        W11265  15.127  22.675   0.479
46281W        W11266  24.438  26.529  13.412
46282W        W11267  26.135  35.107   4.700
46283W        W11268  28.149  11.133  12.950
46284W        W11269   2.411  33.525  11.674
46285W        W11270  35.476  18.872  13.420
46286W        W11271  15.413   2.238  12.072
46287W        W11272  22.171  29.550  12.904
46288W        W11273  23.081  30.305   4.212
46289W        W11274  18.384   8.746   3.666
46290W        W11275  33.764  30.393  13.437
46291W        W11276  43.479  30.936  10.918
46292W        W11277   1.886  30.630  14.925
46293W        W11278  38.806  16.800  14.877
46294W        W11279  14.879  41.919  13.887
46295W        W11280  23.975  21.126   4.555
46296W        W11281  11.591  36.281   1.861
46297W        W11282  15.363  22.278   1.272
46298W        W11283   9.348  20.558  11.468
46299W        W11284  19.374  29.083  12.462
46300W        W11285  43.285  11.689   4.525
46301W        W11286  19.692  17.538   4.010
46302W        W11287   9.902  11.691  13.830
46303W        W11288  40.782   3.858   4.586
46304W        W11289  29.602  43.031  13.446
46305W        W11290  40.743   7.817  14.529
46306W        W11291  16.279   3.755  10.955
46307W        W11292  43.862  22.833   0.668
46308W        W11293  23.170  11.191  11.544
46309W        W11294  11.934  20.140  11.235
46310W        W11295  18.281  34.438  14.458
46311W        W11296  17.588  35.209   2.774
46312W        W11297   1.373  33.334   3.639
46313W        W11298  31.512  28.428  11.087
46314W        W11299  44.022  36.629  12.294
46315W        W11300  20.761  43.603   1.530
46316W        W11301  40.548  39.812   4.552
46317W        W11302  33.990  27.185   0.858
46318W        W11303  36.472  43.012   4.865
46319W        W11304  14.502  39.349   0.900
46320W        W11305  14.355  26.018   2.297
46321W        W11306   8.731  29.833   3.617
46322W        W11307  43.480   8.022   4.166
46323W        W11308  18.239  18.122   4.503
46324W        W11309  38.138  39.615  13.428
46325W        W11310  30.893   1.603  13.159
46326W        W11311  14.252  26.517   2.922
46327W        W11312  30.033  41.549   3.181
46328W        W11313   8.594   3.080   1.697
46329W        W11314  41.030  11.372  10.636
46330W        W11315  30.395  24.598  14.477
46331W        W11316  28.029   0.209   3.311
46332W        W11317  30.954  25.530   4.449
46333W        W11318  13.396  38.764   4.174
46334W        W11319  30.609  10.885   3.423
46335W        W11320  37.130   4.933  13.467
46336W        W11321  44.861  17.270  14.746
46337W        W11322   9.152  19.447   4.387
46338W        W11323  35.997   0.324   1.025
46339W        W11324  42.084  20.725   2.268
46340W        W11325  41.044  37.612   1.104
46341W        W11326  20.580  19.875  11.709
46342W        W11327   0.776  43.324  12.767
46343W        W11328  44.488  32.148   2.285
46344W        W11329  14.237  17.214   2.651
46345W        W11330  39.236  38.894  11.142
46346W        W11331  38.590  17.026   9.607
46347W        W11332  16.880  38.370  13.448
46348W        W11333  26.508  23.093   0.024
46349W        W11334   2.859  21.247   4.635
46350W        W11335  35.688  23.973   1.734
46351W        W11336  11.255  28.599   3.364
46352W        W11337   5.395   3.794  14.094
46353W        W11338   8.804   7.363  12.425
46354W        W11339  43.750   9.092   3.332
46355W        W11340   8.937  25.074  12.616
46356W        W11341  29.459  40.424   0.759
46357W        W11342  18.742   9.106   4.613
46358W        W11343  22.168  35.575  10.649
46359W        W11344  30.020  24.959   2.295
46360W        W11345  43.418  25.535   0.263
46361W        W11346  44.986  35.363  10.621
46362W        W11347  43.853  13.750  11.667
46363W        W11348  16.766  40.238  12.431
46364W        W11349  20.835  18.195   3.150
46365W        W11350  44.012  15.559   3.767
46366W        W11351  42.418  25.361  14.965
46367W        W11352   0.402   2.932   1.296
46368W        W11353  31.814  15.744  12.475
46369W        W11354  15.291   7.547   1.846
46370W        W11355  22.081  10.918  12.124
46371W        W11356  20.123  25.949   1.288
46372W        W11357  36.604   6.801   3.293
46373W        W11358  32.862  40.318  13.438
46374W        W11359   9.139  33.119   4.138
46375W        W11360  11.141  26.058  11.059
46376W        W11361  14.564  10.098  11.029
46377W        W11362  21.153   8.486   1.749
46378W        W11363  11.147   0.517   2.874
46379W        W11364  20.855  44.003   2.392
46380W        W11365  24.922  28.421  12.090
46381W        W11366  19.553  43.748  14.056
46382W        W11367   7.565   8.120   0.271
46383W        W11368  26.975  36.401  13.808
46384W        W11369  12.326   7.659   2.147
46385W        W11370  23.502  28.944   0.896
46386W        W11371  19.358  21.179   1.219
46387W        W11372  12.765   1.031   4.034
46388W        W11373  35.670  23.656   0.195
46389W        W11374  16.357  19.421  10.316
46390W        W11375   8.607   5.261   0.776
46391W        W11376   4.865   9.692   5.121
46392W        W11377  43.694   0.484   4.091
46393W        W11378   1.897  20.267  13.016
46394W        W11379   4.685  31.640   0.455
46395W        W11380  32.032  17.770   3.327
46396W        W11381  13.741   4.945   1.856
46397W        W11382  38.093  42.116   4.546
46398W        W11383  27.477   6.637   3.138
46399W        W11384  24.598   7.432   4.118
46400W        W11385  24.332  40.844  12.308
46401W        W11386  19.069  27.195   5.479
46402W        W11387  41.778  28.760   5.523
46403W        W11388   7.934   9.771  10.369
46404W        W11389  17.644  23.002  10.769
46405W        W11390  12.454  11.152  12.547
46406W        W11391  26.028  34.135  14.712
46407W        W11392   8.982  44.203   1.378
46408W        W11393   2.411  24.445   4.762
46409W        W11394   1.578   2.904  11.623
46410W        W11395  27.081  17.888   4.634
46411W        W11396   3.668  21.062  11.591
46412W        W11397  11.284  34.544  12.149
46413W        W11398  43.009  25.906  14.597
46414W        W11399   1.274  28.257   2.567
46415W        W11400   4.380  26.750  10.481
46416W        W11401  23.821  29.078  10.296
46417W        W11402  44.017   9.430  11.939
46418W        W11403   2.747  37.121  11.198
46419W        W11404  10.108  38.421   0.375
46420W        W11405  36.895  17.293   2.282
46421W        W11406  26.486  44.414   2.183
46422W        W11407  31.555  21.996   1.625
46423W        W11408  41.819   1.273  12.139
46424W        W11409  22.034  22.438  13.022
46425W        W11410  16.802  44.479   2.701
46426W        W11411  29.701  43.341   0.292
46427W        W11412  13.405  39.811  10.775
46428W        W11413  24.171   6.347   4.554
46429W        W11414   8.602  15.689  14.509
46430W        W11415  18.182  20.879   4.979
46431W        W11416  36.830  36.013   1.063
46432W        W11417  15.719  34.897   0.329
46433W        W11418  40.064  30.333   0.967
46434W        W11419   6.289  27.475   4.524
46435W        W11420  34.075  20.475   2.906
46436W        W11421   6.434  37.907   1.282
46437W        W11422   8.936   0.017  12.022
46438W        W11423  10.645   3.463   3.596
46439W        W11424  26.560   0.446   0.356
46440W        W11425  36.560  43.118  14.921
46441W        W11426  13.715  23.711  12.047
46442W        W11427  40.782  22.726   4.144
46443W        W11428  41.997  14.870  12.380
46444W        W11429  33.650  12.672  12.375
46445W        W11430  28.358   6.658   2.347
46446W        W11431  28.104  18.720   5.203
46447W        W11432  38.177  30.321   1.728
46448W        W11433   1.768   5.605   2.822
46449W        W11434  27.493  43.487  13.145
46450W        W11435  23.327  13.065   4.048
46451W        W11436  32.013  22.139   4.158
46452W        W11437  25.660  14.177   0.464
46453W        W11438  12.482  29.484   5.035
46454W        W11439   4.406  36.448   1.726
46455W        W11440   8.037  18.894  12.134
46456W        W11441  17.813  31.638  10.739
46457W        W11442   3.392  33.053   0.403
46458W        W11443  20.450  32.123  14.476
46459W        W11444  21.061  26.477   1.457
46460W        W11445  25.190  31.445   1.753
46461W        W11446  11.376  36.922   4.625
46462W        W11447  43.403  13.834   2.680
46463W        W11448  39.543  32.761   2.228
46464W        W11449  38.231  28.049  12.945
46465W        W11450  36.885  30.889  12.464
46466W        W11451  39.041   1.262   1.415
46467W        W11452   2.508  43.282   3.061
46468W        W11453  30.954  41.452  11.982
46469W        W11454  38.536  11.155  14.013
46470W        W11455  43.940  14.192  14.860
46471W        W11456  22.032   2.761  10.683
46472W        W11457  29.103  43.758   1.764
46473W        W11458  43.727   1.328  12.511
46474W        W11459  40.540   3.038  13.983
46475W        W11460   2.412  30.118   3.667
46476W        W11461  38.714  36.415   4.356
46477W        W11462  18.225   0.466  14.832
46478W        W11463  13.580  26.973  14.855
46479W        W11464  40.616  14.229   9.714
46480W        W11465  22.687   8.818   3.798
46481W        W11466   9.926  13.758  12.425
46482W        W11467  10.212   4.782  13.820
46483W        W11468   0.323  40.426   0.533
46484W        W11469  36.274  38.639   1.424
46485W        W11470  43.388  14.422  12.559
46486W        W11471  33.384  41.756   2.282
46487W        W11472  18.689   9.445  11.517
46488W        W11473  42.208  22.142   4.646
46489W        W11474   2.181  23.438  11.217
46490W        W11475  24.487  22.584  10.827
46491W        W11476  30.124   0.165   0.450
46492W        W11477  37.381   1.550  10.773
46493W        W11478  21.114  25.949  11.510
46494W        W11479  31.338  17.204  10.172
46495W        W11480  12.922  28.179  14.888
46496W        W11481   5.266   7.998  11.156
46497W        W11482  43.345  39.085   2.156
46498W        W11483  21.216  15.692   9.968
46499W        W11484  39.508  44.702  14.769
46500W        W11485  11.265  25.475  10.857
46501W        W11486   5.173  14.007   0.740
46502W        W11487  10.851  44.816  14.644
46503W        W11488   2.304  26.383   0.342
46504W        W11489  33.053  36.490  10.683
46505W        W11490  41.283  36.263   3.066
46506W        W11491   4.556   5.527  10.796
46507W        W11492  28.460  25.131   2.756
46508W        W11493  30.868  37.048   1.338
46509W        W11494  17.712  21.636   4.012
46510W        W11495  31.433  29.069   2.280
46511W        W11496  15.240  28.493   3.214
46512W        W11497  32.413  15.239   3.736
46513W        W11498  34.102  30.577   2.297
46514W        W11499   2.347  26.282   0.843
46515W        W11500  38.117  29.898   2.411
46516W        W11501  38.052  27.666   4.123
46517W        W11502  21.541  41.335  12.896
46518W        W11503  36.284  28.028  13.968
46519W        W11504  34.083  19.048  10.705
46520W        W11505   8.638  33.795   3.248
46521W        W11506  37.437  38.794   2.197
46522W        W11507  42.768  24.925  11.530
46523W        W11508  10.823  14.321   0.430
46524W        W11509  39.552  18.986  14.881
46525W        W11510   2.828  34.195  11.125
46526W        W11511  41.793   6.090  13.012
46527W        W11512  40.799  30.444  11.145
46528W        W11513   7.402   9.417   3.789
46529W        W11514  30.444  25.647  13.732
46530W        W11515  31.908  42.521   1.885
46531W        W11516  34.953  23.647  12.065
46532W        W11517   0.375  32.587   4.665
46533W        W11518   3.509  26.968   4.979
46534W        W11519  19.083  13.778  11.608
46535W        W11520  27.028  43.942  11.131
46536W        W11521  23.682  10.437  12.174
46537W        W11522  15.794  21.617   1.218
46538W        W11523  28.188  31.937  13.394
46539W        W11524  27.915  24.437   2.463
46540W        W11525  23.971  20.034  12.531
46541W        W11526  15.716  31.222   3.701
46542W        W11527  40.787  28.618  11.007
46543W        W11528  31.391  33.631  13.917
46544W        W11529  38.151  43.123   4.701
46545W        W11530  42.079   7.404   1.296
46546W        W11531  42.778  23.274  12.475
46547W        W11532  17.045  26.917   0.425
46548W        W11533   1.976  28.671  14.436
46549W        W11534  44.120  34.399  10.854
46550W        W11535  12.587  38.400   0.976
46551W        W11536   3.183   1.767   4.206
46552W        W11537  42.569   7.839  12.945
46553W        W11538  17.029  10.608  10.890
46554W        W11539  13.136  41.993  12.948
46555W        W11540   8.976  14.601  12.999
46556W        W11541  30.529  18.757   4.530
46557W        W11542   8.996  23.182   3.824
46558W        W11543  39.881  26.629  14.892
46559W        W11544  17.176  27.157   2.424
46560W        W11545  12.711   0.985  12.934
46561W        W11546  24.697  28.247   0.256
46562W        W11547  18.842  37.363  11.526
46563W        W11548  41.866  18.135  10.659
46564W        W11549  21.228   0.898   4.590
46565W        W11550  18.712  24.821  10.132
46566W        W11551  18.007  14.170   0.091
46567W        W11552  16.084  17.674  14.965
46568W        W11553  25.033  34.916   4.563
46569W        W11554  27.388  11.765   1.799
46570W        W11555  31.903  37.310   1.690
46571W        W11556  41.745  44.527   3.322
46572W        W11557  43.996  36.054  10.457
46573W        W11558  42.007  37.004   1.818
46574W        W11559   7.136  15.664  13.571
46575W        W11560  19.267  31.610  11.563
46576W        W11561   9.907   8.808   1.644
46577W        W11562  27.283  41.043   0.280
46578W        W11563  39.831  20.159  14.411
46579W        W11564  18.138  36.796  12.672
46580W        W11565  37.989  15.062  11.457
46581W        W11566  20.612  36.867  12.578
46582W        W11567  10.284  29.437  11.632
46583W        W11568   2.715  22.264  13.020
46584W        W11569   9.082   2.285  13.075
46585W        W11570  19.665   1.314  11.452
46586W        W11571  37.816   6.865   2.624
46587W        W11572  16.821  27.099  13.513
46588W        W11573  40.496  28.920  14.543
46589W        W11574  44.348  37.135   0.069
46590W        W11575   9.901  39.401  11.202
46591W        W11576  43.919  16.783  14.015
46592W        W11577  35.170  12.865   3.678
46593W        W11578  20.129  30.151  14.521
46594W        W11579  39.826  36.932   4.936
46595W        W11580  16.396  25.273   1.483
46596W        W11581  42.767  22.190   2.113
46597W        W11582  41.847   9.344  12.442
46598W        W11583   5.359  20.971   0.421
46599W        W11584  10.299  39.976   2.892
46600W        W11585  34.674  30.768  11.831
46601W        W11586   4.311  10.802   0.548
46602W        W11587  10.126  30.988   2.831
46603W        W11588  41.837   0.589   3.222
46604W        W11589  22.767  13.325   0.821
46605W        W11590  21.639   7.528  14.339
46606W        W11591  17.159  17.161   4.757
46607W        W11592  13.231  44.878  12.486
46608W        W11593  38.841  41.075  14.273
46609W        W11594  28.504   2.357  12.911
46610W        W11595   1.489   1.755   3.599
46611W        W11596  38.591  20.021   2.387
46612W        W11597  14.216  12.441   2.624
46613W        W11598  40.909   6.519  10.742
46614W        W11599  24.147  13.561   3.031
46615W        W11600  40.088  43.839   4.068
46616W        W11601   7.880  40.537   2.736
46617W        W11602  41.766  18.035  14.287
46618W        W11603  33.909  27.573   1.794
46619W        W11604  41.127  39.480  11.248
46620W        W11605  15.580   3.197   9.922
46621W        W11606  14.130  37.349  10.729
46622W        W11607   0.873  23.125   3.790
46623W        W11608  27.665  27.357  11.111
46624W        W11609  32.767  33.608  14.397
46625W        W11610   7.754  24.305  10.676
46626W        W11611  11.965  28.476   3.738
46627W        W11612  32.964  37.251  14.180
46628W        W11613  32.649  43.471   3.085
46629W        W11614  36.434  18.971  12.641
46630W        W11615  29.063  40.499  12.079
46631W        W11616  39.482   4.719   0.391
46632W        W11617   8.941   4.482   4.970
46633W        W11618  25.105  26.174   0.713
46634W        W11619  35.834   4.308  14.370
46635W        W11620  35.913   1.553  11.266
46636W        W11621  39.706  23.741  13.864
46637W        W11622  11.160  39.955  14.914
46638W        W11623   6.155  44.494  12.892
46639W        W11624  22.589  37.422  11.133
46640W        W11625  20.402  27.948   2.343
46641W        W11626  40.066  35.831   0.455
46642W        W11627  36.803  11.842  12.543
46643W        W11628  26.643  11.725  11.271
46644W        W11629  32.867   4.692   3.949
46645W        W11630  20.123   0.658   0.519
46646W        W11631  17.086  24.033   1.278
46647W        W11632  14.282  18.983   1.409
46648W        W11633  18.303  11.655   1.078
46649W        W11634  28.002  37.649   1.366
46650W        W11635   8.174  34.053   3.265
46651W        W11636  38.217  23.010   0.455
46652W        W11637  17.063   5.846  14.246
46653W        W11638  25.571  12.829  14.292
46654W        W11639  43.892  26.770  10.242
46655W        W11640  38.519  36.614   1.325
46656W        W11641  32.793  18.940  11.138
46657W        W11642  25.998  32.816   1.762
46658W        W11643  35.173  24.078  10.761
46659W        W11644   7.650  27.093  11.181
46660W        W11645   2.036  43.057   3.743
46661W        W11646  31.133  13.384  13.122
46662W        W11647  26.490  27.358  10.705
46663W        W11648  14.025  40.417   2.461
46664W        W11649  29.604  25.940   4.753
46665W        W11650  29.901  26.807   4.500
46666W        W11651  34.855  34.500  10.511
46667W        W11652  20.770  11.202  11.694
46668W        W11653   6.700  13.190  11.236
46669W        W11654  22.177   6.262  13.439
46670W        W11655  25.547  28.627   2.213
46671W        W11656  35.078   9.722  13.084
46672W        W11657  27.521  31.476   2.714
46673W        W11658  28.627   3.305   0.779
46674W        W11659  25.581  43.001   2.316
46675W        W11660  23.449  30.433  14.947
46676W        W11661   2.673  26.130   1.450
46677W        W11662  15.566   6.659  13.213
46678W        W11663  37.477  38.509   4.303
46679W        W11664  40.317   1.938  14.630
46680W        W11665  17.078  13.837   2.728
46681W        W11666   8.911  12.640  14.272
46682W        W11667  22.096  14.367   0.458
46683W        W11668  19.609  34.884  14.266
46684W        W11669  44.230  17.598   3.339
46685W        W11670  12.697  42.496   0.226
46686W        W11671  20.252  38.408   0.159
46687W        W11672  13.244  13.009  11.575
46688W        W11673  18.070  22.137   0.426
46689W        W11674  14.303  12.394   0.615
46690W        W11675  14.772  24.250   0.337
46691W        W11676  43.806  13.106   0.898
46692W        W11677  32.532  32.812   3.682
46693W        W11678  40.915  36.984  13.073
46694W        W11679  24.174  36.098  11.195
46695W        W11680  39.361  38.154   0.883
46696W        W11681  33.680  20.102  14.793
46697W        W11682   9.647  22.692  10.666
46698W        W11683  30.868  11.264   4.399
46699W        W11684  20.982  26.194   4.199
46700W        W11685  33.564  41.899  14.862
46701W        W11686  16.095  18.222   2.492
46702W        W11687  16.012  32.276   4.065
46703W        W11688  11.458  12.448   0.989
46704W        W11689  33.911  36.139   3.284
46705W        W11690  30.580  22.354  12.113
46706W        W11691  14.717  39.014  10.168
46707W        W11692  37.706  44.314   5.270
46708W        W11693   6.948  36.406  11.588
46709W        W11694  16.688   2.401  11.091
46710W        W11695   5.184  22.212  14.828
46711W        W11696  41.326  22.075  13.346
46712W        W11697   0.221   3.970  14.453
46713W        W11698  43.529  21.713   4.471
46714W        W11699  18.575  42.381   4.678
46715W        W11700  24.489  21.146   4.596
46716W        W11701  28.086  27.385   4.845
46717W        W11702   9.144  36.115  12.909
46718W        W11703   7.728  39.643   4.584
46719W        W11704  11.214  29.548   3.257
46720W        W11705   4.429   4.274  10.924
46721W        W11706  16.750  37.375  14.390
46722W        W11707  43.964   5.004  13.778
46723W        W11708  37.967  13.120   0.323
46724W        W11709  15.241   1.855  14.776
46725W        W11710   6.497  23.665   3.714
46726W        W11711  38.556  32.117   0.520
46727W        W11712  24.159   1.839   4.404
46728W        W11713  23.659  35.675   0.005
46729W        W11714  11.923  21.730  14.576
46730W        W11715  13.563   6.914  10.516
46731W        W11716  26.557  30.158  14.849
46732W        W11717  21.047  18.174  14.285
46733W        W11718   1.364  38.941   2.468
46734W        W11719   5.029  37.411  14.326
46735W        W11720  10.274  28.176   2.631
46736W        W11721  23.649   0.092  12.109
46737W        W11722  19.854  25.886   0.010
46738W        W11723  13.546  32.584   4.331
46739W        W11724  24.638  43.573  14.523
46740W        W11725  32.863  13.129   1.922
46741W        W11726   1.782  27.052   0.488
46742W        W11727  41.504   9.784  11.196
46743W        W11728  37.227  19.426  11.137
46744W        W11729  36.278  43.335  10.560
46745W        W11730   6.517  18.590  14.529
46746W        W11731  27.097  36.362   1.785
46747W        W11732  37.518  38.085   2.931
46748W        W11733   0.863   5.702   4.590
46749W        W11734   6.192  24.665  13.064
46750W        W11735   3.848  11.981  12.369
46751W        W11736   0.330  35.031  12.146
46752W        W11737  24.438   6.344  12.374
46753W        W11738   6.167  32.910   1.014
46754W        W11739  39.074   9.789   3.277
46755W        W11740  19.748  35.577  14.956
46756W        W11741  25.292   7.696  10.887
46757W        W11742  20.815   8.273   2.907
46758W        W11743  10.754  26.101   3.847
46759W        W11744   0.073  20.238   4.619
46760W        W11745   5.751   0.328  14.160
46761W        W11746  14.672   7.528  10.411
46762W        W11747  13.288  10.779   4.562
46763W        W11748  31.196  32.501  12.481
46764W        W11749  32.578  21.914   0.840
46765W        W11750  21.708  40.471   1.247
46766W        W11751  19.037  38.869  14.929
46767W        W11752  10.459   9.885  14.857
46768W        W11753  14.995  37.786  14.403
46769W        W11754  33.840  27.586  14.886
46770W        W11755  26.048  20.562   0.516
46771W        W11756  44.905  24.572  14.204
46772W        W11757  29.486  33.901   1.786
46773W        W11758  15.915  12.168  11.552
46774W        W11759  27.416  44.376  10.817
46775W        W11760   8.313   0.485  12.400
46776W        W11761  25.021  29.190   3.695
46777W        W11762  29.088  41.553   1.460
46778W        W11763   6.560  23.969   3.161
46779W        W11764   3.030  40.708   2.316
46780W        W11765   5.707  41.462  14.764
46781W        W11766  10.425  13.722  12.453
46782W        W11767  33.063  32.668  12.549
46783W        W11768  40.049  20.314   1.330
46784W        W11769  10.731   6.394  10.383
46785W        W11770  27.260  15.644  13.369
46786W        W11771   4.544  14.748   1.756
46787W        W11772  13.693  37.127  14.723
46788W        W11773  13.847  25.621   0.801
46789W        W11774  38.965  35.873   3.126
46790W        W11775   7.378   1.829   1.291
46791W        W11776  38.775  21.780  11.152
46792W        W11777   1.166   4.435   1.866
46793W        W11778  36.084   2.230   4.504
46794W        W11779  13.780  30.078  13.805
46795W        W11780  33.952  12.239   3.318
46796W        W11781  28.002  37.343   3.136
46797W        W11782   6.208   7.247  12.398
46798W        W11783  43.038  10.167  14.576
46799W        W11784  31.009  34.025  10.737
46800W        W11785  30.592  37.995  11.130
46801W        W11786  15.666  19.906  13.491
46802W        W11787  37.159  30.056   1.946
46803W        W11788   9.222   4.417   1.752
46804W        W11789  40.978  11.651  13.404
46805W        W11790  14.167   7.712   0.462
46806W        W11791   7.385  41.024   4.234
46807W        W11792  36.084   6.869  12.354
46808W        W11793  42.945   9.346  11.575
46809W        W11794  17.611  36.421  12.214
46810W        W11795  34.004   2.983  11.197
46811W        W11796  37.332  22.486  12.553
46812W        W11797  15.569  29.146  14.452
46813W        W11798  12.490   4.270   3.274
46814W        W11799   2.998  11.736   2.842
46815W        W11800  36.597  10.248  14.280
46816W        W11801  43.732  23.930  14.904
46817W        W11802  14.774  19.007   0.763
46818W        W11803  33.473  28.920   3.146
46819W        W11804  35.962  37.440   0.220
46820W        W11805  40.623  12.343   3.433
46821W        W11806  34.972  36.449  14.831
46822W        W11807  29.566  30.965  12.368
46823W        W11808  14.866   7.269   1.319
46824W        W11809  33.154  12.164  13.525
46825W        W11810  15.617  13.740   4.537
46826W        W11811  23.432  18.682   0.667
46827W        W11812  17.654  17.263  12.655
46828W        W11813  18.692  35.475  10.661
46829W        W11814  23.647  25.500   4.181
46830W        W11815  16.302  19.280   3.927
46831W        W11816  21.003  13.488  11.591
46832W        W11817  27.662  34.557   4.336
46833W        W11818   0.241   8.786   4.028
46834W        W11819  26.557  28.146  12.886
46835W        W11820  35.601  38.099   2.578
46836W        W11821   0.684   8.908   4.738
46837W        W11822  33.441  38.536   4.111
46838W        W11823  21.701  37.845  12.129
46839W        W11824  23.912   4.366  12.224
46840W        W11825  28.694  27.005  13.410
46841W        W11826  10.340  21.752   4.111
46842W        W11827  36.490  29.738   0.103
46843W        W11828  19.857   1.679  12.507
46844W        W11829  23.950  18.633   2.557
46845W        W11830   1.056  26.961   0.035
46846W        W11831  25.808   5.943   5.073
46847W        W11832  12.764  26.800   2.801
46848W        W11833  17.175  39.003   2.832
46849W        W11834  30.254  25.392  11.070
46850W        W11835   4.817   1.534  11.175
46851W        W11836  31.931  29.572   3.843
46852W        W11837  19.065  15.663  12.295
46853W        W11838  24.945  27.657  11.657
46854W        W11839  25.658  29.087   3.216
46855W        W11840  31.355  21.990   1.159
46856W        W11841  24.769   7.728  14.869
46857W        W11842  22.020   7.229  13.958
46858W        W11843  36.863  22.373   4.104
46859W        W11844  28.706  12.697  12.644
46860W        W11845   1.347  27.271   4.508
46861W        W11846   7.478  29.728   4.095
46862W        W11847  35.049  12.236  12.576
46863W        W11848  19.100   2.679   3.531
46864W        W11849  23.942   2.767   0.341
46865W        W11850  43.470  33.446  11.479
46866W        W11851   5.936   6.136  14.036
46867W        W11852  25.237  29.304  12.538
46868W        W11853  19.464  39.522   2.706
46869W        W11854  44.311  16.259   4.548
46870W        W11855  33.163  12.058   0.322
46871W        W11856  23.968   7.745  11.987
46872W        W11857  27.832  43.233   1.668
46873W        W11858  20.151  23.077   3.926
46874W        W11859  44.486  21.619  10.637
46875W        W11860  33.405  23.156   2.843
46876W        W11861   5.380  27.865  14.851
46877W        W11862  38.184  24.977   4.610
46878W        W11863   2.159   7.275  12.936
46879W        W11864   0.463   9.170  12.002
46880W        W11865   2.996   8.227   3.670
46881W        W11866  33.913  27.374  11.498
46882W        W11867  16.905  34.720  11.026
46883W        W11868  26.980  37.599  12.588
46884W        W11869  18.579  19.098   0.647
46885W        W11870  36.365  28.168   2.320
46886W        W11871  38.180   9.720  10.662
46887W        W11872   1.309  33.654  12.553
46888W        W11873  12.865  23.680  12.641
46889W        W11874  17.980   1.296   3.427
46890W        W11875  21.055  19.271   1.749
46891W        W11876  39.491  19.574   2.797
46892W        W11877  29.657  30.007   0.800
46893W        W11878  22.539  26.749   4.349
46894W        W11879   0.739  17.118   4.328
46895W        W11880  26.254   2.415   3.090
46896W        W11881  20.419  13.019   1.359
46897W        W11882  31.925  44.419  13.255
46898W        W11883  25.057  18.880  14.310
46899W        W11884  24.565  30.372  14.468
46900W        W11885   7.865  16.222  11.576
46901W        W11886  24.663  32.600   1.412
46902W        W11887  42.778  39.797   4.345
46903W        W11888  36.504   7.361  10.739
46904W        W11889  30.922  38.497  12.863
46905W        W11890  29.859  22.439  11.973
46906W        W11891  28.348  22.278   1.934
46907W        W11892  42.291  12.840   4.532
46908W        W11893  14.615   4.525   3.758
46909W        W11894  39.564   7.771   4.734
46910W        W11895   0.710  31.812   5.053
46911W        W11896   1.772  16.606   0.078
46912W        W11897  34.274  23.160   0.809
46913W        W11898  39.880  19.686  13.141
46914W        W11899  39.070  16.971   1.217
46915W        W11900   4.488  40.949  13.437
46916W        W11901  36.589  25.764   2.216
46917W        W11902  37.361  23.365   4.434
46918W        W11903  25.444  26.686  12.424
46919W        W11904   7.305   5.685  13.426
46920W        W11905   4.125   3.767  10.760
46921W        W11906  11.234  19.027   2.875
46922W        W11907  27.542   2.761   0.763
46923W        W11908   0.999  41.373   2.831
46924W        W11909  41.995   1.366  11.139
46925W        W11910  34.101  10.300  13.953
46926W        W11911  12.768  20.206  12.096
46927W        W11912  17.074  31.588   4.456
46928W        W11913  37.234  14.369  14.035
46929W        W11914  32.581  12.982   4.141
46930W        W11915  27.602  23.796  13.357
46931W        W11916  28.085  40.072  10.228
46932W        W11917  32.898   4.367   1.214
46933W        W11918   7.699   6.253  13.012
46934W        W11919  10.223   6.350   4.584
46935W        W11920  11.918   4.155   1.454
46936W        W11921  13.026  42.607  13.893
46937W        W11922  41.463  11.794   0.968
46938W        W11923  31.036  20.609  10.887
46939W        W11924   3.691   8.853   1.297
46940W        W11925  25.064  40.342  13.846
46941W        W11926  16.385   9.907  10.636
46942W        W11927   4.679  30.032  14.035
46943W        W11928  36.812  33.926  13.788
46944W        W11929  41.943  38.437  11.108
46945W        W11930   0.768  36.496  10.711
46946W        W11931  34.477  14.429  13.893
46947W        W11932   4.666   5.739   4.498
46948W        W11933  43.078  25.216  12.891
46949W        W11934  12.000  34.580  12.446
46950W        W11935  39.515   6.651  12.473
46951W        W11936   7.374  40.747  12.429
46952W        W11937  20.453  31.382   4.497
46953W        W11938  27.226  28.437   0.724
46954W        W11939   4.843  32.813  12.945
46955W        W11940   3.383  35.663   0.991
46956W        W11941  38.055  33.123   2.438
46957W        W11942   4.691  29.907   4.648
46958W        W11943  44.001  15.885  13.967
46959W        W11944  25.982   9.179  12.029
46960W        W11945  29.540   3.680  10.896
46961W        W11946  23.612  37.948   0.842
46962W        W11947  41.236  39.789   0.889
46963W        W11948   8.805  17.279   0.815
46964W        W11949  33.370  32.186  13.982
46965W        W11950  42.983  24.193  12.980
46966W        W11951  18.286  37.981  11.167
46967W        W11952   2.899  26.700   2.295
46968W        W11953  11.572  30.421   2.793
46969W        W11954  41.782  27.510  12.316
46970W        W11955  22.774  25.790  11.504
46971W        W11956   2.340  40.347   4.085
46972W        W11957  40.983  13.756  10.305
46973W        W11958  36.663  17.389  13.418
46974W        W11959  44.354  39.014  12.487
46975W        W11960  10.950   4.703  10.590
46976W        W11961  14.180   5.191   0.107
46977W        W11962   0.446  42.020  12.946
46978W        W11963  38.456   2.833  11.633
46979W        W11964  36.896  27.169   2.337
46980W        W11965  42.232  25.112  14.548
46981W        W11966   6.271  18.927   3.231
46982W        W11967  30.414  33.344   5.141
46983W        W11968  23.158   1.784  12.968
46984W        W11969  21.305  32.607   3.577
46985W        W11970  34.867  41.372   1.389
46986W        W11971   4.921   3.794  13.358
46987W        W11972  30.168   1.214   3.754
46988W        W11973  31.499  42.798  12.945
46989W        W11974  37.914  24.191  11.883
46990W        W11975  16.681   6.592   3.604
46991W        W11976  44.512  10.217  14.286
46992W        W11977  43.407   0.411   3.641
46993W        W11978  37.832  32.406   2.214
46994W        W11979  20.053  15.177  10.780
46995W        W11980   2.859   3.923   1.836
46996W        W11981  35.530  38.537  11.204
46997W        W11982  37.525  30.505   1.335
46998W        W11983  19.298  40.028   3.164
46999W        W11984  40.030  18.665   1.701
47000W        W11985   0.551   1.837   1.260
47001W        W11986  14.083  18.865   4.027
47002W        W11987   7.792   4.170   1.315
47003W        W11988  22.219  28.034   4.345
47004W        W11989  23.577  38.437  13.094
47005W        W11990  36.817  16.369  12.680
47006W        W11991  38.657  24.510  11.010
47007W        W11992  13.640  13.182   4.196
47008W        W11993   7.682  44.437   0.982
47009W        W11994  32.853  25.574  13.048
47010W        W11995  19.824  42.273   4.563
47011W        W11996  30.979   1.268  14.783
47012W        W11997  34.580  13.671  13.033
47013W        W11998   6.180   2.670  11.248
47014W        W11999  44.837  37.849   0.892
47015W        W12000  23.952  32.999   1.368
47016W        W12001   4.592  15.245   3.685
47017W        W12002  32.074  29.700   0.280
47018W        W12003  19.114  30.886  14.103
47019W        W12004  35.794  27.106  10.451
47020W        W12005  40.251  33.155   2.662
47021W        W12006  34.305   6.718  14.570
47022W        W12007  38.204  42.785   3.295
47023W        W12008  21.234  32.204   4.571
47024W        W12009   9.434   7.519  14.151
47025W        W12010  14.238  38.921  14.722
47026W        W12011  18.516  15.208  12.914
47027W        W12012  15.249  44.240   3.952
47028W        W12013  41.234   5.379  13.516
47029W        W12014  37.988  17.952  12.853
47030W        W12015  10.582  16.069   4.500
47031W        W12016  28.532  44.970   2.802
47032W        W12017  30.430  15.756   4.633
47033W        W12018   6.734  20.149   2.728
47034W        W12019  20.295  20.125  10.568
47035W        W12020  30.971  39.949   1.812
47036W        W12021  21.935   1.531  12.075
47037W        W12022  12.674   7.826   1.148
47038W        W12023  25.004  43.270   1.350
47039W        W12024  38.931  21.226  12.399
47040W        W12025  43.386  40.499   4.794
47041W        W12026  22.035  32.658   0.361
47042W        W12027  25.437  34.902  14.389
47043W        W12028  14.740  23.071  13.494
47044W        W12029  31.855   7.386   1.883
47045W        W12030  28.907  27.763   1.332
47046W        W12031   6.393   5.155  13.409
47047W        W12032  33.222  26.545   1.803
47048W        W12033  37.960  10.487   3.855
47049W        W12034   9.707  17.032   2.112
47050W        W12035   4.230  24.293   0.257
47051W        W12036  16.844  26.963  14.065
47052W        W12037  38.803  34.456  10.798
47053W        W12038  22.990   8.158  14.777
47054W        W12039  32.870   6.463   0.419
47055W        W12040  11.289  33.917   0.660
47056W        W12041  16.076  25.541   3.580
47057W        W12042  43.266  12.742  14.059
47058W        W12043  38.150  18.245   3.208
47059W        W12044  35.011  17.252   2.652
47060W        W12045  10.720   3.124  10.609
47061W        W12046  23.430  38.821  14.013
47062W        W12047  29.313  22.157   1.005
47063W        W12048  15.112  26.720   2.297
47064W        W12049   1.643  36.963  12.891
47065W        W12050   9.629   5.132  13.467
47066W        W12051  31.788  33.670  11.700
47067W        W12052  18.587  28.785  11.154
47068W        W12053  17.023  42.429   3.639
47069W        W12054  28.580  27.201   0.344
47070W        W12055  25.632   4.877  13.110
47071W        W12056  19.460   1.465  13.423
47072W        W12057   6.994  39.281  12.096
47073W        W12058   1.550   5.186  12.417
47074W        W12059   5.787  18.026  13.356
47075W        W12060  12.707   1.907   2.327
47076W        W12061  16.951  32.339   1.575
47077W        W12062  42.933  14.310  10.617
47078W        W12063  21.059  39.534  12.871
47079W        W12064  31.960  39.991   4.344
47080W        W12065  26.231   7.157   0.171
47081W        W12066  36.809  14.734  13.069
47082W        W12067  18.646  27.478  12.903
47083W        W12068  30.538  34.977   4.647
47084W        W12069  35.072  19.186   4.885
47085W        W12070   1.443  17.500  13.632
47086W        W12071   4.168  29.606   1.431
47087W        W12072  31.068  17.184   1.268
47088W        W12073  20.024  17.643   3.452
47089W        W12074   1.320  28.186  11.988
47090W        W12075  32.874   6.320   4.702
47091W        W12076   0.983  16.309  14.816
47092W        W12077  15.581  38.442   0.883
47093W        W12078   0.410  44.816  11.789
47094W        W12079  13.574   9.704   0.396
47095W        W12080  40.525  23.534  12.024
47096W        W12081  37.986  32.605  10.676
47097W        W12082  27.713  14.560   0.450
47098W        W12083  11.297  28.163   4.925
47099W        W12084   2.270  14.673  14.842
47100W        W12085  30.246   3.164   0.352
47101W        W12086   3.971  20.901  12.000
47102W        W12087  41.631  42.686   1.726
47103W        W12088  16.130  25.468  11.731
47104W        W12089  16.210   8.232   2.323
47105W        W12090   0.965  18.661  12.456
47106W        W12091  33.960  11.672  12.503
47107W        W12092  36.532  24.709  13.582
47108W        W12093  12.756  41.559  11.110
47109W        W12094  22.041  26.940  12.104
47110W        W12095   0.295  37.368  13.462
47111W        W12096  12.983  39.240  11.545
47112W        W12097  33.830  14.841   3.632
47113W        W12098   1.706  11.275  11.802
47114W        W12099  15.091   3.660  12.906
47115W        W12100   3.959   5.193   4.535
47116W        W12101  43.293   1.168  11.061
47117W        W12102  19.166   1.937  13.479
47118W        W12103  28.951  19.275   0.702
47119W        W12104   3.450   1.302  10.656
47120W        W12105  32.503  42.722  12.015
47121W        W12106  20.147   5.182   4.135
47122W        W12107  32.351  24.059  10.518
47123W        W12108   6.754   7.980   0.576
47124W        W12109  18.581  32.113  14.780
47125W        W12110  24.492  41.352  14.389
47126W        W12111   8.767  44.057   2.249
47127W        W12112   7.477  17.204   5.061
47128W        W12113   7.400  31.117   1.070
47129W        W12114  44.079   1.795   4.455
47130W        W12115   9.077  19.956  12.938
47131W        W12116  40.270  14.104   1.435
47132W        W12117  24.532  25.480  14.006
47133W        W12118   5.317   1.185  13.878
47134W        W12119  20.189  33.549   0.879
47135W        W12120  26.700  27.678   5.068
47136W        W12121  21.284   8.991   1.712
47137W        W12122   3.677  34.883  11.252
47138W        W12123  44.438  11.107   3.379
47139W        W12124   7.170  38.900   2.713
47140W        W12125  19.602   3.853  13.879
47141W        W12126  40.448   4.997   0.831
47142W        W12127  16.241  27.243  11.224
47143W        W12128  35.165  40.014   1.293
47144W        W12129  42.019  34.881   1.734
47145W        W12130   4.913  28.136   2.356
47146W        W12131   1.857  37.843  12.587
47147W        W12132  37.556  26.443  13.832
47148W        W12133  32.669   7.853  12.441
47149W        W12134  23.939   5.990  14.649
47150W        W12135   7.327  23.951   1.248
47151W        W12136  43.239  24.689   2.335
47152W        W12137   8.713   0.275   3.499
47153W        W12138  13.771  16.319   1.120
47154W        W12139   9.224  44.148  10.305
47155W        W12140  17.755  12.214  13.298
47156W        W12141  36.115  21.622  14.261
47157W        W12142  21.074  20.273   0.334
47158W        W12143  36.813  38.094  14.440
47159W        W12144  26.246   6.204  12.074
47160W        W12145  18.135   7.326  13.344
47161W        W12146  32.394   1.992  12.966
47162W        W12147  33.863  17.721  14.478
47163W        W12148  29.184  11.409  14.460
47164W        W12149  36.055  23.113  14.362
47165W        W12150  22.523  21.661   0.460
47166W        W12151  40.168  38.474   1.812
47167W        W12152  28.138   9.986   1.304
47168W        W12153  25.197   5.468  14.277
47169W        W12154  33.041  35.760   1.855
47170W        W12155  12.575  23.452   3.265
47171W        W12156  34.391   2.286  10.970
47172W        W12157   1.694  21.472  11.488
47173W        W12158  18.207  13.841  14.761
47174W        W12159  29.059  14.671  14.032
47175W        W12160  39.290  26.323   4.303
47176W        W12161   1.970   2.721   3.633
47177W        W12162  28.787  11.854  14.500
47178W        W12163   5.165   2.737  11.107
47179W        W12164  36.625  35.096   4.200
47180W        W12165  28.225  31.082   0.447
47181W        W12166  25.481   3.508  14.794
47182W        W12167  43.975  15.034  12.415
47183W        W12168  25.243  18.658  13.864
47184W        W12169  25.291  28.733  11.192
47185W        W12170  33.610   6.000  13.835
47186W        W12171  31.031   2.481   4.696
47187W        W12172  17.775  29.382  12.019
47188W        W12173  18.774   7.565   4.021
47189W        W12174  27.438  18.889   0.816
47190W        W12175  43.051  23.912  11.658
47191W        W12176   5.371  37.045   3.174
47192W        W12177  32.885  41.826  11.604
47193W        W12178  34.296  28.001   0.141
47194W        W12179  10.243  37.084   2.209
47195W        W12180  15.661  36.372   3.596
47196W        W12181  34.138   3.791  13.518
47197W        W12182  35.661  44.977  13.875
47198W        W12183  26.843   4.437   4.234
47199W        W12184  28.250  11.379   1.796
47200W        W12185  25.542  14.723   4.548
47201W        W12186   6.179  28.602   1.421
47202W        W12187  20.801   9.820  12.059
47203W        W12188  39.735   5.814   4.247
47204W        W12189   4.917  26.191  11.537
47205W        W12190  13.080  37.050   2.238
47206W        W12191  39.091  28.978  14.249
47207W        W12192   1.871  18.171  11.480
47208W        W12193   7.346   9.311   1.685
47209W        W12194   0.109  42.435  14.620
47210W        W12195  16.064   3.520  12.151
47211W        W12196   8.092   0.534   1.773
47212W        W12197  42.468  22.884  13.863
47213W        W12198   2.434  21.132  14.245
47214W        W12199   9.905  21.534  12.535
47215W        W12200   4.966  34.547   4.173
47216W        W12201  35.010  24.071   3.305
47217W        W12202   3.243  16.886   0.823
47218W        W12203  35.080  39.253  12.161
47219W        W12204  37.324   3.382  12.521
47220W        W12205  15.052  11.850  13.415
47221W        W12206  16.311  41.499  14.762
47222W        W12207  15.697  13.663   2.712
47223W        W12208  30.680   9.300   1.769
47224W        W12209  15.134  43.342   1.663
47225W        W12210  33.970  15.098  11.515
47226W        W12211  21.452   0.785  11.909
47227W        W12212   7.478  30.393  13.802
47228W        W12213  36.200  28.927   1.007
47229W        W12214   2.769   1.660   0.438
47230W        W12215  26.195   8.252  13.682
47231W        W12216  13.312  36.397   0.866
47232W        W12217  29.433  40.630  12.431
47233W        W12218  24.665  33.117  13.026
47234W        W12219   4.243   2.556   2.363
47235W        W12220  38.937   1.591   0.401
47236W        W12221  18.183   6.908   4.091
47237W        W12222   0.459  20.715  12.393
47238W        W12223   1.703  39.028  13.520
47239W        W12224  25.086  17.960  11.138
47240W        W12225  11.364   0.728   0.352
47241W        W12226  36.235  21.543  10.458
47242W        W12227  35.011  23.581   3.150
47243W        W12228  42.910  31.924   3.173
47244W        W12229   3.339  30.414   3.838
47245W        W12230  29.541  42.181   1.860
47246W        W12231   9.291   7.204  12.206
47247W        W12232  29.558  26.895   1.893
47248W        W12233  15.335  19.292  13.414
47249W        W12234   2.769  42.981  14.832
47250W        W12235  12.170  24.228   4.268
47251W        W12236   9.398  35.831   2.779
47252W        W12237   8.250  33.784  13.133
47253W        W12238  31.066  34.308  14.170
47254W        W12239  10.439  30.365  11.571
47255W        W12240  38.916  44.916  12.501
47256W        W12241  19.334  26.139   1.723
47257W        W12242  24.504  25.075  13.602
47258W        W12243   5.139   6.189   0.322
47259W        W12244  35.884  28.974   2.980
47260W        W12245  26.193  19.747  11.942
47261W        W12246  20.197  21.156  14.975
47262W        W12247  44.437  43.183   3.254
47263W        W12248   9.836  23.162   3.555
47264W        W12249  27.792  28.020   1.303
47265W        W12250   3.131   5.749  12.113
47266W        W12251  40.286  42.450   2.903
47267W        W12252  14.812   4.528   0.741
47268W        W12253  34.577  36.634   3.373
47269W        W12254   9.236  26.036   2.699
47270W        W12255  11.316  27.964   1.172
47271W        W12256  42.950  28.458   2.448
47272W        W12257  22.929  27.441   1.256
47273W        W12258   3.367  26.523   1.859
47274W        W12259  17.996   7.744  13.828
47275W        W12260  39.901  18.336  11.046
47276W        W12261  30.031  20.786   3.708
47277W        W12262  43.931  24.105  10.214
47278W        W12263  14.052  21.797   1.853
47279W        W12264  29.940  36.454   4.389
47280W        W12265  18.282  35.951  12.654
47281W        W12266  44.535  39.690   3.629
47282W        W12267  35.508  10.638  12.185
47283W        W12268  13.203  12.138  10.778
47284W        W12269  36.390   6.520  14.464
47285W        W12270  28.184   4.978  12.443
47286W        W12271  12.192  24.548   0.250
47287W        W12272  12.683  21.728  13.004
47288W        W12273   3.933  39.712  12.584
47289W        W12274  39.109  13.292  10.301
47290W        W12275  37.691  26.714   4.998
47291W        W12276   3.263  24.265   0.658
47292W        W12277  43.257  13.879  10.680
47293W        W12278  40.142  15.643  13.100
47294W        W12279  15.515  32.480   2.683
47295W        W12280  15.297  15.618   3.695
47296W        W12281  28.408  39.564  11.483
47297W        W12282  15.861  37.496   4.192
47298W        W12283  32.495   2.338  11.743
47299W        W12284  15.835   8.724   3.444
47300W        W12285  39.884  11.897   1.028
47301W        W12286  16.836   4.315  13.835
47302W        W12287   9.728  12.573  14.086
47303W        W12288  35.659  33.337   1.765
47304W        W12289  25.094  16.262  12.927
47305W        W12290   4.799  32.241   2.562
47306W        W12291   0.557   4.837   2.762
47307W        W12292  14.424  11.699  10.972
47308W        W12293  41.602  33.896   4.939
47309W        W12294   6.610  22.090  14.895
47310W        W12295   9.161  30.338   1.843
47311W        W12296  38.001  39.540  12.141
47312W        W12297   8.180   8.343   3.392
47313W        W12298   1.309  20.982   3.884
47314W        W12299  39.329  34.848  10.193
47315W        W12300  33.267  31.089  12.443
47316W        W12301   9.437  19.704  10.207
47317W        W12302  25.841  25.491  13.605
47318W        W12303  10.204   3.747  10.443
47319W        W12304  23.646  30.689   3.298
47320W        W12305  18.652   7.228  12.004
47321W        W12306  36.865  16.583  10.991
47322W        W12307  12.505   1.475   2.069
47323W        W12308  42.263  17.894  14.379
47324W        W12309  33.616  29.174  11.061
47325W        W12310   6.348  38.303   2.582
47326W        W12311  21.225  11.226   1.860
47327W        W12312  17.242  32.405  10.600
47328W        W12313  44.336  18.482   3.576
47329W        W12314  26.803  30.026   2.914
47330W        W12315  35.249  14.669   3.789
47331W        W12316  29.456  36.441  10.826
47332W        W12317  20.992   2.151   0.815
47333W        W12318  25.639   0.249   1.657
47334W        W12319   4.337  21.168   2.488
47335W        W12320   6.727  20.285   3.239
47336W        W12321  31.695   2.695  13.256
47337W        W12322  37.956  12.265  14.841
47338W        W12323  44.000  36.737   4.126
47339W        W12324  13.072  43.023   1.421
47340W        W12325  10.228  14.211   0.043
47341W        W12326  16.265  39.659  11.931
47342W        W12327   3.155  31.118   1.297
47343W        W12328  14.574  42.478  13.256
47344W        W12329   4.360   3.851  12.153
47345W        W12330  11.835  31.363  14.129
47346W        W12331   3.432  30.696   4.269
47347W        W12332  20.771  16.686  14.334
47348W        W12333  27.592  11.840  10.633
47349W        W12334  27.252  38.968  12.736
47350W        W12335  25.327  34.470  11.048
47351W        W12336   7.695   0.522  14.461
47352W        W12337  26.812  13.756  14.736
47353W        W12338  24.840  17.523   1.265
47354W        W12339  22.632  43.867  10.182
47355W        W12340  18.202   5.161  13.878
47356W        W12341  24.885  20.317   3.444
47357W        W12342   3.270  44.273   1.917
47358W        W12343  43.330  27.274   3.318
47359W        W12344  36.037  35.889  13.528
47360W        W12345  32.434  16.218   1.791
47361W        W12346   8.788  24.421   2.236
47362W        W12347   3.863  32.636  12.101
47363W        W12348  17.749  44.118   4.693
47364W        W12349  11.317  33.513   4.687
47365W        W12350  20.085  23.127  11.401
47366W        W12351   7.347  37.606  11.814
47367W        W12352  14.985  40.551   2.686
47368W        W12353  42.248  38.852  11.166
47369W        W12354  44.273   6.163  11.151
47370W        W12355   2.294   8.623  13.283
47371W        W12356  36.432  34.811   1.119
47372W        W12357  19.599  11.419   3.668
47373W        W12358  23.053  16.703  11.595
47374W        W12359  39.056  23.616  13.388
47375W        W12360  29.215  36.190   1.854
47376W        W12361   1.463  21.739  13.484
47377W        W12362  11.763  27.173  14.742
47378W        W12363  11.322  21.201  13.530
47379W        W12364  25.691  19.567   4.301
47380W        W12365  28.772   9.089  11.374
47381W        W12366  18.614  26.478  14.843
47382W        W12367  44.683   0.444  14.527
47383W        W12368  37.349  18.302   4.884
47384W        W12369  31.020  18.710  11.352
47385W        W12370  29.968  38.122  14.419
47386W        W12371  21.272  22.542   2.206
47387W        W12372  20.568  28.132  10.440
47388W        W12373  34.440  33.152   2.733
47389W        W12374  17.351  31.545  10.361
47390W        W12375  12.422  27.700   3.228
47391W        W12376  36.716  32.623   0.462
47392W        W12377  41.528  19.805  10.655
47393W        W12378  31.480  13.625   4.894
47394W        W12379  23.577  18.106  14.518
47395W        W12380  27.950  32.169   5.066
47396W        W12381  24.756   6.442   2.217
47397W        W12382  35.317   0.981   0.881
47398W        W12383  41.373  38.211  11.464
47399W        W12384  30.449  20.713   2.306
47400W        W12385  28.610   0.759  11.744
47401W        W12386  36.229  44.401   3.295
47402W        W12387  24.480   2.505   4.195
47403W        W12388  24.181  32.557   1.262
47404W        W12389  22.875  19.469  10.256
47405W        W12390  14.240  25.732  14.888
47406W        W12391  30.126  37.269   4.686
47407W        W12392  41.268  19.170  13.889
47408W        W12393  18.548  15.875  11.688
47409W        W12394  22.437   2.188  12.971
47410W        W12395  29.902  37.407  14.996
47411W        W12396  19.636  43.065  12.580
47412W        W12397   4.012  11.509  12.150
47413W        W12398  35.377  21.036   1.702
47414W        W12399   3.960  38.802  12.672
47415W        W12400  41.010   5.880   3.815
47416W        W12401  32.899  39.891  14.598
47417W        W12402   8.126  27.434  13.560
47418W        W12403   7.185  38.457   2.405
47419W        W12404  37.895   5.836   3.657
47420W        W12405  30.530   4.123   2.310
47421W        W12406   6.204  44.909   1.862
47422W        W12407  14.585  33.289  13.503
47423W        W12408  42.891  21.082   0.703
47424W        W12409  41.513  18.197  12.378
47425W        W12410  17.775  43.323  12.436
47426W        W12411  37.951  42.102   2.939
47427W        W12412   0.881  13.317   4.616
47428W        W12413  12.848  13.773   3.288
47429W        W12414  13.064  39.659  12.407
47430W        W12415  21.522  23.541   0.236
47431W        W12416  32.787  36.368   1.388
47432W        W12417   0.581  12.360   1.161
47433W        W12418   6.066  23.403  14.572
47434W        W12419   9.673  33.574   2.781
47435W        W12420   6.659  15.769   1.024
47436W        W12421   3.671  12.886   0.473
47437W        W12422   4.024  44.923  12.074
47438W        W12423  20.645  24.812  13.464
47439W        W12424  21.441   9.314  13.476
47440W        W12425  39.965   0.993  12.390
47441W        W12426  35.567  21.639  13.013
47442W        W12427  36.603  39.826  12.360
47443W        W12428  13.856  17.741  14.919
47444W        W12429  22.890   2.022   2.765
47445W        W12430   2.252   5.976   2.318
47446W        W12431   5.782  26.951   1.725
47447W        W12432  33.942  13.997  12.547
47448W        W12433  36.031  38.583   3.236
47449W        W12434  10.804   4.936   2.705
47450W        W12435  15.262  40.949  14.814
47451W        W12436  25.040   7.273  14.919
47452W        W12437  36.027   8.679   0.725
47453W        W12438  13.303  33.363  11.817
47454W        W12439  19.131   9.421   3.819
47455W        W12440  26.693  16.914   1.479
47456W        W12441  33.495   6.475   4.007
47457W        W12442  18.148  18.457  12.170
47458W        W12443  16.170  17.748   1.875
47459W        W12444  12.678  13.128  13.596
47460W        W12445  38.514  39.772   1.888
47461W        W12446  11.644  15.616   3.228
47462W        W12447  15.497  24.053  14.774
47463W        W12448   2.760   0.810   2.344
47464W        W12449  31.563  16.699  13.916
47465W        W12450   7.875  44.272   0.050
47466W        W12451  26.183   0.404   0.732
47467W        W12452  23.550  20.851   3.739
47468W        W12453  12.478  25.979   0.914
47469W        W12454   2.301  40.188  13.008
47470W        W12455  39.819   7.084  12.632
47471W        W12456  44.796  29.004  14.337
47472W        W12457   4.196  10.272   2.236
47473W        W12458  19.323   5.225  13.905
47474W        W12459   4.946  18.006   5.130
47475W        W12460   9.264  42.356  11.211
47476W        W12461  13.672  40.609  13.339
47477W        W12462  18.071  30.407  13.807
47478W        W12463  31.759  27.036  12.493
47479W        W12464  20.956  22.961  14.114
47480W        W12465  21.737   1.222   2.404
47481W        W12466   6.892  42.887   2.267
47482W        W12467   9.778  15.870  12.883
47483W        W12468  13.029  18.112   1.168
47484W        W12469  19.699  11.616  14.461
47485W        W12470   0.231  42.241   0.949
47486W        W12471  39.722  31.445   3.606
47487W        W12472  20.835   3.864   3.072
47488W        W12473  21.675  22.976   4.979
47489W        W12474   0.766  35.372  11.186
47490W        W12475  42.322   8.664  11.816
47491W        W12476  32.121   5.793   0.480
47492W        W12477  24.302  16.830  11.603
47493W        W12478  29.547  25.640   4.298
47494W        W12479  17.319  13.852   2.283
47495W        W12480  33.020  40.836  14.367
47496W        W12481   7.318  34.196  13.993
47497W        W12482  11.378  26.120   0.259
47498W        W12483  16.270  20.754  13.366
47499W        W12484  24.332   2.899   2.031
47500W        W12485  17.134  16.683   0.267
47501W        W12486  22.975   0.806  14.992
47502W        W12487  34.026   8.439   1.645
47503W        W12488  27.805  41.006  12.054
47504W        W12489  32.869  38.226   1.560
47505W        W12490  18.810  26.024  12.593
47506W        W12491   0.483  21.308   2.798
47507W        W12492  40.369  43.365  10.737
47508W        W12493  43.349  28.175   4.129
47509W        W12494  12.877   7.756  12.161
47510W        W12495  41.516   6.177  11.477
47511W        W12496  17.629  42.289   4.469
47512W        W12497  32.934  14.653   3.838
47513W        W12498  29.573  28.123   3.901
47514W        W12499  30.899  28.642  14.811
47515W        W12500   6.809   5.202  12.628
47516W        W12501   9.758  23.181  12.485
47517W        W12502  25.022  20.383   4.285
47518W        W12503  16.343  44.091   0.559
47519W        W12504   4.375   2.913  10.735
47520W        W12505  28.646   8.057   0.773
47521W        W12506  19.285  38.213   2.929
47522W        W12507   1.367  29.497  13.834
47523W        W12508  10.710  37.802  12.850
47524W        W12509  15.142  23.121   1.262
47525W        W12510  16.661  20.410  10.305
47526W        W12511  37.025  27.678   2.996
47527W        W12512  13.548  13.386  11.438
47528W        W12513  16.368   3.020   1.922
47529W        W12514  25.029  42.869  11.132
47530W        W12515  30.440  17.665  11.168
47531W        W12516   5.441  27.686   3.898
47532W        W12517   6.834   7.148   4.635
47533W        W12518   9.036  28.921   1.641
47534W        W12519  13.823  30.908  11.720
47535W        W12520  24.246  17.034   2.393
47536W        W12521  20.496   6.946  14.124
47537W        W12522   2.748   9.204   4.572
47538W        W12523  17.560  18.653  13.007
47539W        W12524  13.135  24.687   2.625
47540W        W12525  12.962  31.622  12.010
47541W        W12526  16.781   1.906   2.194
47542W        W12527  40.955  13.836   4.257
47543W        W12528  23.560   6.981   3.679
47544W        W12529  20.099   7.593  12.962
47545W        W12530  26.245  16.821   3.115
47546W        W12531   6.490   1.292   3.279
47547W        W12532  27.815  29.899   4.494
47548W        W12533  19.728  15.718   0.400
47549W        W12534  27.722   6.582   4.154
47550W        W12535   0.507  36.854   3.653
47551W        W12536  20.674  10.067   4.156
47552W        W12537  44.304  29.613  10.743
47553W        W12538  30.887  29.598  12.110
47554W        W12539  35.448   5.687  13.568
47555W        W12540  20.199  43.238  14.964
47556W        W12541  44.417  21.910  11.094
47557W        W12542  27.635  23.147  10.708
47558W        W12543  15.080  22.441   4.642
47559W        W12544  10.252   4.409   0.830
47560W        W12545   0.216   3.218  12.546
47561W        W12546   3.173  15.743   1.432
47562W        W12547   1.514  39.342  13.159
47563W        W12548  36.999  41.889  13.920
47564W        W12549  23.693  17.935  10.983
47565W        W12550  27.166  29.494  12.812
47566W        W12551  31.412  21.894   2.895
47567W        W12552  33.033  39.131   0.387
47568W        W12553  41.265  36.517   1.679
47569W        W12554  28.451  41.475   1.733
47570W        W12555   4.660  32.564  10.863
47571W        W12556  13.237   0.727   4.102
47572W        W12557  17.839  17.266  14.467
47573W        W12558  26.059  31.292  14.693
47574W        W12559  17.813   0.030  12.986
47575W        W12560   8.393  40.559  13.341
47576W        W12561   8.736   3.208  14.872
47577W        W12562  35.426  11.703  14.495
47578W        W12563  42.950  41.005  14.843
47579W        W12564  38.972  43.819  11.014
47580W        W12565  10.085  16.568   0.190
47581W        W12566  43.765  32.079   4.627
47582W        W12567  28.556  40.051  10.550
47583W        W12568   6.320  29.561   0.425
47584W        W12569  17.599   1.386   3.100
47585W        W12570   1.174  40.308   3.552
47586W        W12571   3.026   8.334  13.988
47587W        W12572  41.840  19.067   1.736
47588W        W12573  20.142   3.941   2.343
47589W        W12574  32.360   9.040  14.053
47590W        W12575  21.435  20.728  11.191
47591W        W12576  12.849  19.939  11.155
47592W        W12577  12.102  26.866  11.509
47593W        W12578  42.380  33.819   0.350
47594W        W12579  39.342  21.035   2.789
47595W        W12580  42.400  12.214   2.786
47596W        W12581   9.176  19.082  13.347
47597W        W12582  29.907  32.953  14.321
47598W        W12583  15.197  42.029   0.684
47599W        W12584  24.752   0.416  10.630
47600W        W12585   1.714  10.680   1.315
47601W        W12586   0.870  25.034   0.791
47602W        W12587  23.598  43.343   4.211
47603W        W12588  25.026   3.229   1.633
47604W        W12589  36.401  39.601  11.080
47605W        W12590   3.350   9.215   3.255
47606W        W12591  21.592  36.220  12.101
47607W        W12592  10.592   9.383  14.853
47608W        W12593   8.843   1.461   0.190
47609W        W12594  28.224  44.559  14.395
47610W        W12595   1.963  24.302  13.669
47611W        W12596  12.625  30.513   2.877
47612W        W12597   0.062  37.812  13.456
47613W        W12598  28.647   3.071   5.127
47614W        W12599  29.447  19.483   2.614
47615W        W12600  12.123  44.981   1.912
47616W        W12601  15.572  26.022   4.143
47617W        W12602   2.269  24.865   1.929
47618W        W12603  11.654  34.376  11.191
47619W        W12604  36.597   2.939   0.812
47620W        W12605  16.350  35.302  13.900
47621W        W12606  14.481  14.172  10.609
47622W        W12607  28.023   7.055   1.130
47623W        W12608  10.233   0.867   4.338
47624W        W12609  44.245  23.053   1.158
47625W        W12610   1.908  24.634  14.398
47626W        W12611  18.649  39.628  10.563
47627W        W12612   7.223  33.527  13.087
47628W        W12613  29.606  16.198   4.644
47629W        W12614  16.073  11.276  14.579
47630W        W12615   4.708  33.309   0.252
47631W        W12616  44.387   1.392   1.382
47632W        W12617  28.950  42.591  14.120
47633W        W12618  41.701  15.573  14.473
47634W        W12619  37.654  26.549  10.486
47635W        W12620  40.375  30.243  14.962
47636W        W12621  21.518  14.596  12.404
47637W        W12622  24.545  19.193   1.243
47638W        W12623  15.571  33.110  12.952
47639W        W12624   4.846   1.932   1.315
47640W        W12625  22.540  18.698  11.179
47641W        W12626  33.669   4.032  14.732
47642W        W12627   6.092  39.136  14.885
47643W        W12628  40.335  12.343   0.908
47644W        W12629  31.038  42.028  13.991
47645W        W12630  10.575  27.268  14.342
47646W        W12631  22.953  16.698   2.681
47647W        W12632   2.731  17.402  10.573
47648W        W12633   3.951  15.176   2.250
47649W        W12634  36.996  17.308  10.442
47650W        W12635  38.371   3.276   0.086
47651W        W12636   1.342  18.358   0.637
47652W        W12637  40.427  13.336  12.529
47653W        W12638  20.297  25.149  12.717
47654W        W12639   1.013   8.221   2.829
47655W        W12640  28.572  42.208   0.333
47656W        W12641  17.235  27.948  12.088
47657W        W12642   8.630   9.257  10.587
47658W        W12643  18.665  44.280  10.327
47659W        W12644  10.258  24.074  14.383
47660W        W12645  33.385  16.824   1.281
47661W        W12646   6.097  20.984  14.366
47662W        W12647  42.422  17.633   3.165
47663W        W12648   1.095   9.339  12.818
47664W        W12649  20.603  36.479   2.143
47665W        W12650  22.524   1.138   2.901
47666W        W12651  37.901  23.709  13.781
47667W        W12652  34.085  25.674   3.262
47668W        W12653  36.926  35.835  11.683
47669W        W12654  10.450   4.703  10.543
47670W        W12655   1.445  29.199  12.135
47671W        W12656  36.528  20.721   1.287
47672W        W12657  11.266  21.087  12.587
47673W        W12658  19.230  10.135  12.916
47674W        W12659  11.077  36.551  12.477
47675W        W12660  17.230  36.919  14.927
47676W        W12661  16.872  21.020   2.730
47677W        W12662  11.204  13.042  12.963
47678W        W12663  17.334  15.156   3.245
47679W        W12664   8.621  26.647  12.575
47680W        W12665   3.438  22.671   1.203
47681W        W12666  25.547  25.515   2.635
47682W        W12667  29.487  10.287   4.982
47683W        W12668  28.837   7.438   3.970
47684W        W12669  23.511   3.357   0.667
47685W        W12670   9.789   5.310   4.927
47686W        W12671  40.662  26.085   2.792
47687W        W12672   1.191  29.819   1.355
47688W        W12673  17.115  27.423  14.300
47689W        W12674  19.964  11.977   1.649
47690W        W12675  12.427  12.679  11.470
47691W        W12676  39.305  20.579  10.856
47692W        W12677  14.797  15.219   0.551
47693W        W12678  25.966  41.315  13.894
47694W        W12679  21.826  31.974   3.805
47695W        W12680  28.404  37.872   0.278
47696W        W12681  25.134  27.549   3.932
47697W        W12682  30.532  41.906   0.761
47698W        W12683   8.806  39.224  11.899
47699W        W12684  43.814  26.517  14.171
47700W        W12685  30.128  17.780   0.752
47701W        W12686  23.972  42.922   2.176
47702W        W12687   5.633   6.968  11.916
47703W        W12688   7.360  37.481  10.826
47704W        W12689  33.171  18.676   4.432
47705W        W12690   6.922  28.619  12.096
47706W        W12691  16.271  33.585  14.367
47707W        W12692  19.667  36.947   1.382
47708W        W12693  31.441   6.757   2.203
47709W        W12694  13.846  20.056   3.052
47710W        W12695  23.009  18.327  12.377
47711W        W12696  11.408  33.596   2.303
47712W        W12697   0.417  16.564  12.075
47713W        W12698  44.583  43.687   0.361
47714W        W12699  37.534  41.800   2.951
47715W        W12700  10.525  24.901   5.029
47716W        W12701  17.587  25.195   0.987
47717W        W12702  18.276  42.947   2.351
47718W        W12703  32.858  17.842  14.472
47719W        W12704  11.671  37.351  10.746
47720W        W12705  34.528   7.300  11.897
47721W        W12706  29.808  13.097  10.902
47722W        W12707  42.764   9.379   0.942
47723W        W12708   6.718   9.132  14.100
47724W        W12709  23.178   8.922  12.884
47725W        W12710  25.148  11.273   4.566
47726W        W12711  43.820   2.264  14.795
47727W        W12712  21.003  26.189   2.386
47728W        W12713  14.276  19.667  13.507
47729W        W12714   3.013  15.680   4.047
47730W        W12715  11.387  36.694   1.343
47731W        W12716   3.241   9.800   3.028
47732W        W12717  17.570  38.332  11.067
47733W        W12718  30.068   5.130   4.267
47734W        W12719  26.530   4.254   3.662
47735W        W12720   4.369  32.034   2.697
47736W        W12721  39.921   6.790   0.802
47737W        W12722   6.243  40.773  12.892
47738W        W12723  27.524  29.405  11.576
47739W        W12724  34.993   5.468  11.842
47740W        W12725  18.498  42.922  13.886
47741W        W12726  28.126   2.725  10.735
47742W        W12727  11.192  14.131  13.801
47743W        W12728  39.275  33.595   4.315
47744W        W12729  23.976  34.402   0.303
47745W        W12730   2.857  27.034  13.223
47746W        W12731   4.942  36.374   1.345
47747W        W12732  16.645  15.625  11.165
47748W        W12733  33.484  34.100  13.719
47749W        W12734   6.194  41.502  11.518
47750W        W12735  31.222  44.305   2.351
47751W        W12736   7.492   1.923   2.563
47752W        W12737   2.944   8.270   2.722
47753W        W12738  44.028   8.942   3.728
47754W        W12739   8.777  15.608   4.056
47755W        W12740  11.394  15.398   3.628
47756W        W12741  17.774  36.424  14.361
47757W        W12742  38.378  30.187   0.053
47758W        W12743  20.172  36.752  11.583
47759W        W12744   3.865  44.997   0.565
47760W        W12745   6.232  19.751   3.643
47761W        W12746  32.884   0.997   1.240
47762W        W12747  38.907  40.249  14.682
47763W        W12748  43.093   3.500  12.088
47764W        W12749   8.271  23.567   4.158
47765W        W12750  28.095  17.976  11.969
47766W        W12751   8.108  17.423   2.513
47767W        W12752  25.067  12.364   3.220
47768W        W12753  21.782   1.028  11.501
47769W        W12754  43.860  36.830  10.806
47770W        W12755  15.239  31.818   2.180
47771W        W12756  10.444  38.500  11.240
47772W        W12757  39.195  10.849  12.286
47773W        W12758  25.749  38.438   2.249
47774W        W12759  11.410   6.762  12.013
47775W        W12760  42.813  15.397  11.257
47776W        W12761  21.969  42.684  11.502
47777W        W12762  34.011  29.101   3.847
47778W        W12763   5.215  28.522   0.783
47779W        W12764  19.748  13.797   4.621
47780W        W12765  24.681  19.782   0.066
47781W        W12766  38.817   9.883  14.240
47782W        W12767  29.615  39.758   2.249
47783W        W12768   0.520  43.818  10.990
47784W        W12769  17.707  29.403  13.868
47785W        W12770  40.306  14.194  10.707
47786W        W12771  15.354  31.066   2.921
47787W        W12772  42.899  40.793  12.443
47788W        W12773   1.394  32.530  10.595
47789W        W12774  25.744  21.721   4.749
47790W        W12775   7.625  29.222   1.654
47791W        W12776   6.447  35.797  12.545
47792W        W12777  26.681  35.068   3.561
47793W        W12778  14.060  38.091  14.314
47794W        W12779  39.396   7.732  11.151
47795W        W12780   1.818   9.176  12.051
47796W        W12781  38.427  11.323  12.741
47797W        W12782  16.721  37.672  12.154
47798W        W12783   8.256  10.366   4.523
47799W        W12784  36.903  39.799  11.921
47800W        W12785  22.256   3.910  13.307
47801W        W12786  42.309   5.679  11.863
47802W        W12787   7.855  22.269  13.024
47803W        W12788  33.226   0.522   0.070
47804W        W12789  24.671  19.828  11.916
47805W        W12790  33.926  19.508   3.778
47806W        W12791   7.819  27.193   0.707
47807W        W12792  43.759   5.880  13.921
47808W        W12793  35.570   6.891   1.788
47809W        W12794  17.215  12.940   2.177
47810W        W12795  41.250  16.473  13.409
47811W        W12796  25.463  11.159  14.916
47812W        W12797  33.626   4.736  10.645
47813W        W12798  21.389   8.164  11.926
47814W        W12799  34.217  25.141   5.118
47815W        W12800  42.994  39.132   4.466
47816W        W12801  32.946   9.498   3.356
47817W        W12802  15.836  26.417   9.892
47818W        W12803  16.877  20.160   0.325
47819W        W12804  33.507  26.874  13.238
47820W        W12805  17.733  29.026   1.968
47821W        W12806  31.060  10.865   0.767
47822W        W12807  30.507   4.419  11.941
47823W        W12808  22.104  13.931   2.241
47824W        W12809  17.288   0.964   3.834
47825W        W12810   0.486  36.658   0.979
47826W        W12811  43.061  17.934  11.699
47827W        W12812  30.606   6.097   4.250
47828W        W12813  37.510  17.627  10.909
47829W        W12814  36.830  36.560   0.381
47830W        W12815  42.262  24.568  11.278
47831W        W12816   4.909   6.901   2.104
47832W        W12817  21.965  21.145  14.266
47833W        W12818  13.585  17.305  12.120
47834W        W12819   4.346  43.674  13.881
47835W        W12820  16.561   1.423  13.652
47836W        W12821  26.488  22.696  14.292
47837W        W12822  13.287  39.631  11.686
47838W        W12823  21.565   6.637   3.010
47839W        W12824  21.659  41.113   4.457
47840W        W12825  16.362  12.303  13.134
47841W        W12826  29.413  10.287   1.865
47842W        W12827  13.664  38.935   1.966
47843W        W12828  30.680  31.880   4.646
47844W        W12829   7.962  17.572   0.018
47845W        W12830   2.400  26.506   2.252
47846W        W12831  16.650   6.367  11.206
47847W        W12832  29.906  31.138   3.091
47848W        W12833   3.156  25.978  12.873
47849W        W12834  13.609  15.672   2.444
47850W        W12835  20.092  10.380  14.438
47851W        W12836  29.060  22.722   3.314
47852W        W12837  10.662  42.923  13.597
47853W        W12838  44.306  22.225  10.696
47854W        W12839  19.333   1.145  14.392
47855W        W12840  27.407  14.723  11.085
47856W        W12841   6.201  43.925  12.208
47857W        W12842  28.012  37.981   0.948
47858W        W12843  33.981   2.972   4.691
47859W        W12844   3.618  11.751   0.880
47860W        W12845  35.533  27.582   1.303
47861W        W12846  10.659  13.306   3.107
47862W        W12847  12.212   2.115  12.788
47863W        W12848   2.976  32.129   0.240
47864W        W12849  26.058  38.965  10.372
47865W        W12850  39.021  19.949  10.289
47866W        W12851  11.114  13.235   2.330
47867W        W12852  17.653  12.815   1.867
47868W        W12853   0.945  40.080  13.553
47869W        W12854  29.640  39.007   1.520
47870W        W12855  17.688  11.722   0.855
47871W        W12856  16.321  21.659  14.961
47872W        W12857  16.069   6.005  14.460
47873W        W12858  22.695  27.562   1.722
47874W        W12859  13.820  42.974  11.894
47875W        W12860  10.147  15.123  12.472
47876W        W12861  18.194  11.893   4.224
47877W        W12862  14.507  41.757  12.549
47878W        W12863  27.364   3.001   5.461
47879W        W12864  37.950  16.591   1.842
47880W        W12865  26.933  19.611   2.590
47881W        W12866   9.648   3.266   0.490
47882W        W12867  33.074  39.172   4.623
47883W        W12868  18.076  16.842  14.256
47884W        W12869   7.373   6.838   3.648
47885W        W12870  40.751  23.711  11.177
47886W        W12871  23.057  33.678  14.319
47887W        W12872  21.019  33.627   1.245
47888W        W12873  23.765  33.887   0.397
47889W        W12874   0.601  21.563  10.708
47890W        W12875  32.559  35.513  12.116
47891W        W12876  21.258  13.448   0.888
47892W        W12877  21.586  11.484  13.805
47893W        W12878  13.938  20.361   2.657
47894W        W12879  37.882  44.778  13.399
47895W        W12880  22.138  35.086   3.184
47896W        W12881  30.455  40.656   4.270
47897W        W12882  24.822  25.641  13.610
47898W        W12883  39.446   1.791   4.705
47899W        W12884  20.296  35.958  14.170
47900W        W12885  33.424   3.774  12.595
47901W        W12886   9.650  30.171   0.364
47902W        W12887  44.411   5.252   4.392
47903W        W12888  40.461  11.689   4.432
47904W        W12889  33.915   5.638  10.534
47905W        W12890  22.043  36.592  10.996
47906W        W12891  29.469  24.145   2.575
47907W        W12892  40.641  38.491   1.490
47908W        W12893  31.106  16.293   0.911
47909W        W12894  44.530  19.739  12.046
47910W        W12895   5.708  21.320  14.427
47911W        W12896  32.400  18.377  12.201
47912W        W12897   7.390  31.614   0.325
47913W        W12898  40.517  26.928  11.102
47914W        W12899  12.486  12.427   2.155
47915W        W12900  17.644  18.219   5.137
47916W        W12901  44.838  22.498   4.059
47917W        W12902  31.199  21.156  10.185
47918W        W12903   7.474  41.295  14.110
47919W        W12904   9.295  39.250   3.267
47920W        W12905   7.215  30.194   1.232
47921W        W12906  10.082  43.790   2.357
47922W        W12907  19.133  42.427   2.765
47923W        W12908  19.100  32.126  14.954
47924W        W12909  17.125   5.839   2.257
47925W        W12910  22.735  34.220  13.521
47926W        W12911  21.565  24.289  12.953
47927W        W12912  35.606   7.824  14.297
47928W        W12913   0.602  29.703   2.826
47929W        W12914  17.113   1.406  13.529
47930W        W12915   4.902  18.788   3.571
47931W        W12916  37.012   8.385  12.462
47932W        W12917   1.802  10.688  14.847
47933W        W12918   0.863  28.566   0.937
47934W        W12919  29.870  30.355   2.019
47935W        W12920  28.525  26.083  11.405
47936W        W12921  11.993  42.994  13.955
47937W        W12922  25.552   6.193  13.337
47938W        W12923  43.263  24.563   0.190
47939W        W12924   3.923  40.977   0.338
47940W        W12925  23.130  39.507   0.337
47941W        W12926   2.357  12.226   3.199
47942W        W12927  25.412  17.731   0.473
47943W        W12928  17.721  18.709  12.514
47944W        W12929  15.068  42.935   0.764
47945W        W12930  28.853  19.213   4.608
47946W        W12931  15.509  27.569  12.565
47947W        W12932  21.798  31.165  11.081
47948W        W12933  18.692  39.359  13.509
47949W        W12934   4.195  25.642  11.318
47950W        W12935  43.507  31.823  10.672
47951W        W12936  12.362  24.849   3.154
47952W        W12937  14.062  20.084  14.929
47953W        W12938   0.978  38.526   3.661
47954W        W12939  32.509  20.199  13.443
47955W        W12940  20.868   0.078  12.139
47956W        W12941  10.674  31.851  14.518
47957W        W12942  14.934  14.373  10.467
47958W        W12943  10.176  28.372   1.831
47959W        W12944   8.268  13.555  13.739
47960W        W12945  27.910  24.601  12.424
47961W        W12946  44.496  32.610   4.595
47962W        W12947  17.837  19.451   3.204
47963W        W12948  13.699   5.116   3.178
47964W        W12949   9.387  20.772  12.521
47965W        W12950  34.073  33.436   1.344
47966W        W12951  43.512  31.934  12.196
47967W        W12952   2.346   2.400   1.521
47968W        W12953  30.817  23.617  12.661
47969W        W12954   6.027  13.782   2.600
47970W        W12955  25.587  17.160  11.579
47971W        W12956  41.281  14.264  11.896
47972W        W12957  30.865  27.037  11.352
47973W        W12958  24.373  43.530   0.372
47974W        W12959  33.905  20.702   2.026
47975W        W12960   8.849  27.149  14.434
47976W        W12961   5.781  30.047   1.026
47977W        W12962  29.451  18.679  10.156
47978W        W12963  34.419  20.732   3.638
47979W        W12964   4.792  31.114   2.297
47980W        W12965   8.615  21.316  12.953
47981W        W12966  33.304  18.373  13.500
47982W        W12967  29.034  35.130   0.877
47983W        W12968   6.891   7.672   4.647
47984W        W12969  39.586  31.489  12.384
47985W        W12970  25.758  38.888  11.658
47986W        W12971   3.767  35.504  14.209
47987W        W12972  43.651   8.298  12.098
47988W        W12973  30.214   7.777  13.499
47989W        W12974  39.983  14.140  12.594
47990W        W12975  21.636  39.184  11.626
47991W        W12976   5.713  44.706   1.772
47992W        W12977  14.077  40.205  10.326
47993W        W12978  29.733  41.664  11.596
47994W        W12979  43.730  23.630   1.715
47995W        W12980  12.894  17.554  14.043
47996W        W12981  38.540   2.367  14.726
47997W        W12982   4.851   1.927   0.255
47998W        W12983  39.371  44.050   4.256
47999W        W12984  34.050  18.103  14.890
48000W        W12985  39.027  41.771  13.951
48001W        W12986  44.962  15.209   3.297
48002W        W12987  36.458   0.935  11.503
48003W        W12988  38.402  31.245   1.933
48004W        W12989  18.278   9.206  13.272
48005W        W12990  22.236  19.081  14.858
48006W        W12991   0.242  31.487  11.285
48007W        W12992  28.194  16.274  13.135
48008W        W12993  35.901  24.418   3.796
48009W        W12994   6.088  42.490   2.159
48010W        W12995   0.108  25.130  13.497
48011W        W12996   4.173  35.293  12.968
48012W        W12997  43.841  30.959  14.071
48013W        W12998  22.757  21.023  11.174
48014W        W12999  22.515  29.193  12.228
48015W        W13000  24.770  27.671   4.265
48016W        W13001   0.887   3.390  13.608
48017W        W13002   6.431   6.049  13.839
48018W        W13003  43.833  34.572   0.507
48019W        W13004  39.218  24.490  14.949
48020W        W13005  36.027   8.869   3.379
48021W        W13006  24.951  40.989   1.270
48022W        W13007  39.586  28.704   0.413
48023W        W13008   8.257   6.763  12.925
48024W        W13009  13.665   8.614   2.744
48025W        W13010  27.558   0.734   0.960
48026W        W13011  43.818   2.159  12.822
48027W        W13012  27.079  28.229  14.844
48028W        W13013  19.463   9.891  12.065
48029W        W13014  31.040  41.071   2.353
48030W        W13015   9.622  27.458   2.282
48031W        W13016  18.135  39.509  11.432
48032W        W13017  19.164  31.397  14.053
48033W        W13018  31.836  16.300   1.700
48034W        W13019  13.692  35.468   4.226
48035W        W13020  44.049  39.123  10.083
48036W        W13021  38.594  41.403   3.826
48037W        W13022   1.006   1.424  11.210
48038W        W13023  10.298   4.966   0.990
48039W        W13024  12.281  29.628  14.455
48040W        W13025  37.087  13.285   1.973
48041W        W13026   6.194  11.647  14.009
48042W        W13027  34.055  29.013  14.959
48043W        W13028   9.577  13.741   3.693
48044W        W13029  27.075   3.455   4.258
48045W        W13030  36.485  43.167   2.649
48046W        W13031  23.461  10.077   1.360
48047W        W13032  36.005  11.548   9.862
48048W        W13033  13.802  30.509  14.422
48049W        W13034  13.398   6.231   1.040
48050W        W13035  12.819  38.977  12.830
48051W        W13036  30.142  32.705   5.046
48052W        W13037  38.742  22.064   0.878
48053W        W13038  34.644  11.690   1.353
48054W        W13039  10.826   2.599  10.673
48055W        W13040  34.992  16.796  10.473
48056W        W13041  30.397  29.213   3.152
48057W        W13042   2.311  19.028  11.798
48058W        W13043  19.695  22.448   4.557
48059W        W13044  17.251  40.803  13.958
48060W        W13045   8.898  34.580   3.755
48061W        W13046  23.628  17.201  10.644
48062W        W13047   6.310  21.965  13.588
48063W        W13048  21.121   8.314   4.182
48064W        W13049  19.746  34.885  10.015
48065W        W13050  22.065  42.292  14.032
48066W        W13051   6.290  30.262  14.328
48067W        W13052  35.966  38.365   3.718
48068W        W13053  11.005  28.998  12.539
48069W        W13054  29.512  44.510   1.376
48070W        W13055  24.169  13.598  14.728
48071W        W13056   5.775  25.143  12.318
48072W        W13057  20.540   1.313  13.009
48073W        W13058  23.232  42.583   1.779
48074W        W13059  29.452  18.247  10.956
48075W        W13060  17.182  28.465   3.301
48076W        W13061  41.990   8.648   2.956
48077W        W13062  38.028  13.045  14.434
48078W        W13063  16.603   7.934  11.208
48079W        W13064   6.681   1.984   4.283
48080W        W13065  29.041  43.055   2.127
48081W        W13066  44.264  15.531  11.216
48082W        W13067   8.391   8.359   2.814
48083W        W13068  31.984   2.676   5.086
48084W        W13069   4.979   2.091  13.062
48085W        W13070  24.010  29.585  14.857
48086W        W13071  43.926   3.924   3.100
48087W        W13072   6.307  28.612   3.770
48088W        W13073  23.837  20.178   4.930
48089W        W13074  29.177  44.991  12.113
48090W        W13075   1.060   4.530   0.762
48091W        W13076   8.184  31.040   3.144
48092W        W13077  25.027   3.738  14.062
48093W        W13078   0.113  34.904   0.892
48094W        W13079  33.538  29.050  14.903
48095W        W13080   4.203   8.978   0.312
48096W        W13081  33.406  26.071  12.623
48097W        W13082  17.100  20.115   2.895
48098W        W13083   7.185  39.968  14.479
48099W        W13084  30.038  20.403   2.229
48100W        W13085   6.647  12.292  11.205
48101W        W13086  13.324  15.248   4.635
48102W        W13087  28.466  32.397  14.377
48103W        W13088   2.308   9.649  14.868
48104W        W13089   2.999   2.274  14.900
48105W        W13090  31.096  23.244  12.956
48106W        W13091  19.101   2.775   2.369
48107W        W13092  36.808  19.532  13.426
48108W        W13093   4.751  28.731   0.959
48109W        W13094  44.250  37.829  10.763
48110W        W13095  19.031  38.352  11.200
48111W        W13096   4.675  18.559   1.075
48112W        W13097   4.479  17.822   2.269
48113W        W13098  29.908  44.078   4.917
48114W        W13099   8.375  16.825  12.030
48115W        W13100  15.759  40.292  13.513
48116W        W13101   3.257  21.648  12.696
48117W        W13102  33.873  14.309   2.979
48118W        W13103   8.778  41.271  11.444
48119W        W13104  32.406  29.084   1.318
48120W        W13105  39.814  32.490  11.127
48121W        W13106  17.830  24.054   2.572
48122W        W13107  13.760   2.902   1.906
48123W        W13108   9.335  40.464   1.908
48124W        W13109  26.941  32.610  13.509
48125W        W13110   8.209   3.442   1.520
48126W        W13111  34.079  40.465   3.860
48127W        W13112   0.292  36.374  14.497
48128W        W13113   1.477  16.997  12.434
48129W        W13114  21.634  26.481  12.500
48130W        W13115  37.044  22.292   0.108
48131W        W13116   5.379  38.449   0.359
48132W        W13117  13.744  15.351  13.009
48133W        W13118   5.942  44.970  12.054
48134W        W13119  10.648  18.326   1.733
48135W        W13120  15.775  30.645  11.086
48136W        W13121  35.060  16.272  10.649
48137W        W13122  31.873   1.779  12.912
48138W        W13123   5.048  23.983  11.973
48139W        W13124  40.210  30.194  13.448
48140W        W13125  12.860  13.850   1.879
48141W        W13126  35.494  24.513   4.410
48142W        W13127  17.821   9.830  12.942
48143W        W13128  20.064  17.547   2.148
48144W        W13129  18.565  34.440   3.569
48145W        W13130  44.007  36.513   0.345
48146W        W13131   8.004  20.464   4.497
48147W        W13132   1.715   3.327  13.782
48148W        W13133  18.493  28.956   4.158
48149W        W13134   5.575  20.754  11.959
48150W        W13135  18.546  26.658  12.514
48151W        W13136   6.288  11.613   4.173
48152W        W13137  12.352  29.901  11.564
48153W        W13138   5.029   6.745   3.154
48154W        W13139  31.030  11.575  13.832
48155W        W13140  27.929  19.462  12.062
48156W        W13141  36.800  26.176  11.388
48157W        W13142  20.489   5.980   3.827
48158W        W13143  28.220   9.191  13.004
48159W        W13144  15.176   6.760  14.812
48160W        W13145  20.101  10.417   1.234
48161W        W13146   0.177  17.728   1.275
48162W        W13147  10.836  41.993   4.129
48163W        W13148  33.680   3.833   0.212
48164W        W13149  38.882  21.040  11.558
48165W        W13150  23.686  15.736   0.516
48166W        W13151   5.208  30.390  10.349
48167W        W13152   1.912   0.437   4.630
48168W        W13153  19.012  18.468   2.353
48169W        W13154  14.030  34.079  13.072
48170W        W13155  31.564  39.738   3.610
48171W        W13156  10.972  37.838  11.029
48172W        W13157   6.878  32.121  13.008
48173W        W13158  29.442  12.873  11.166
48174W        W13159  31.026  10.556   5.160
48175W        W13160  39.034  37.103   3.177
48176W        W13161  19.036  19.777   1.798
48177W        W13162  24.492  31.605  13.891
48178W        W13163  23.491   8.220   0.939
48179W        W13164   8.726  29.410  14.854
48180W        W13165  19.465  26.183  13.731
48181W        W13166  33.506  22.253   1.196
48182W        W13167  24.197   8.336   3.321
48183W        W13168  20.416   3.495   2.334
48184W        W13169  27.565   5.184   2.763
48185W        W13170  15.034  37.036  11.679
48186W        W13171  27.522  34.489   3.354
48187W        W13172  30.909  43.838  14.755
48188W        W13173   0.930  38.399  14.950
48189W        W13174  10.903  11.754  10.919
48190W        W13175  16.562  18.639   0.010
48191W        W13176   4.160  44.043  14.667
48192W        W13177  28.309  29.998   4.620
48193W        W13178   0.785  13.683  13.291
48194W        W13179  42.950  44.277  14.820
48195W        W13180   1.884   3.210   1.891
48196W        W13181  20.108  24.474  14.962
48197W        W13182   7.323   2.985   4.643
48198W        W13183  35.562   6.173  11.244
48199W        W13184  44.613  28.225   2.148
48200W        W13185  39.348   2.816   1.209
48201W        W13186  26.911  16.284  11.314
48202W        W13187   2.979  31.469   0.040
48203W        W13188  40.465  32.143  13.587
48204W        W13189  23.658  24.946  10.759
48205W        W13190  18.372  13.376   4.369
48206W        W13191  22.577   1.376   1.706
48207W        W13192  29.807  17.622   3.314
48208W        W13193   6.674  13.652   0.357
48209W        W13194   6.455  25.615   1.574
48210W        W13195  44.845  16.797   2.383
48211W        W13196   8.416  15.497  12.102
48212W        W13197  16.049   4.714   3.161
48213W        W13198  36.561   1.342  14.510
48214W        W13199   0.908  36.364   4.111
48215W        W13200   1.965  15.148   3.370
48216W        W13201  22.964   7.596  10.795
48217W        W13202  35.155  28.002  12.139
48218W        W13203  33.924  22.714  14.050
48219W        W13204   8.406  13.087  12.999
48220W        W13205   2.493  39.618   4.548
48221W        W13206  39.433  18.467  13.616
48222W        W13207  30.818  34.221  12.928
48223W        W13208   6.963   1.431   3.098
48224W        W13209   2.193  17.727  11.396
48225W        W13210  30.153  40.637  14.931
48226W        W13211  11.005  33.822   2.057
48227W        W13212   0.893   1.738  10.454
48228W        W13213   6.963  35.845   4.172
48229W        W13214  27.376  33.957  12.537
48230W        W13215  27.988  22.023  11.762
48231W        W13216  43.731  40.295   1.848
48232W        W13217  34.996  19.060  12.541
48233W        W13218  18.014  13.092  13.610
48234W        W13219   0.030  16.206  13.101
48235W        W13220  24.140  33.092   1.846
48236W        W13221   8.392  39.498   0.464
48237W        W13222  24.110  36.835   4.740
48238W        W13223  18.765  31.132  12.361
48239W        W13224   8.470  12.281   0.251
48240W        W13225  12.896  27.122   3.839
48241W        W13226  25.108  15.181   3.598
48242W        W13227  12.123  21.635   2.675
48243W        W13228  23.570  16.666   1.939
48244W        W13229  35.833  44.940   4.098
48245W        W13230  39.477  15.776  13.697
48246W        W13231  13.251  20.232   4.657
48247W        W13232   7.310  22.769   4.614
48248W        W13233  39.001   2.502   1.453
48249W        W13234  13.864   6.050  11.564
48250W        W13235  44.048  18.457   3.149
48251W        W13236  21.618  34.083  11.109
48252W        W13237  16.556   6.433   1.273
48253W        W13238   0.313  31.765  12.194
48254W        W13239  27.009  13.216  10.947
48255W        W13240  28.152  21.172  14.374
48256W        W13241   0.976  25.142  13.894
48257W        W13242  19.676   4.501  12.904
48258W        W13243   1.094  21.745  10.776
48259W        W13244  24.085  15.139   0.450
48260W        W13245  17.512  37.057   4.594
48261W        W13246   6.827  33.903   0.340
48262W        W13247  21.921  10.099   1.485
48263W        W13248  42.605  20.042   5.021
48264W        W13249  33.607  10.927   4.040
48265W        W13250  26.264  43.788  10.309
48266W        W13251  35.672  38.622   4.273
48267W        W13252  12.048  41.032  12.151
48268W        W13253  37.996  39.335   3.643
48269W        W13254  20.343  41.550  14.394
48270W        W13255  29.721   1.853   1.762
48271W        W13256  15.095  38.384  14.984
48272W        W13257  31.563  19.736   4.656
48273W        W13258  29.927  11.656   0.874
48274W        W13259  30.732  22.559  14.762
48275W        W13260  40.367  33.828  11.235
48276W        W13261  37.082  23.017   1.301
48277W        W13262   9.335  29.210   4.627
48278W        W13263  32.510  30.367   3.232
48279W        W13264  20.886   0.144   2.160
48280W        W13265  44.079  27.923   3.577
48281W        W13266  43.496  31.633   3.224
48282W        W13267  32.434  17.362  11.958
48283W        W13268  36.863  23.291   2.632
48284W        W13269  22.574  30.163   0.892
48285W        W13270  14.239  35.284  13.551
48286W        W13271  23.246  34.720   4.581
48287W        W13272  16.309  24.058   4.820
48288W        W13273  33.357  38.362  12.954
48289W        W13274   4.262  31.141   1.029
48290W        W13275   2.695   7.775   1.437
48291W        W13276  10.573  39.433  10.534
48292W        W13277  29.054  36.088   3.688
48293W        W13278  18.540   0.287   1.894
48294W        W13279  42.477  23.042   1.894
48295W        W13280  36.155   5.670  12.935
48296W        W13281  42.988  15.694   2.818
48297W        W13282  15.755  38.977  14.014
48298W        W13283  44.779  30.986  12.855
48299W        W13284   4.520  39.373  13.097
48300W        W13285   2.945  36.490   3.594
48301W        W13286   3.488  43.166  12.331
48302W        W13287  28.090  32.919  11.875
48303W        W13288   4.312  29.016  12.351
48304W        W13289  26.560  36.055  11.997
48305W        W13290   3.712  25.013   4.555
48306W        W13291   7.703   9.702   4.216
48307W        W13292   2.456   6.150  10.280
48308W        W13293  44.413  31.321   0.054
48309W        W13294  19.451   7.893   3.654
48310W        W13295  37.504  44.079  12.783
48311W        W13296  37.464  16.878  14.910
48312W        W13297  25.603   6.605   2.199
48313W        W13298   9.729  15.661   4.381
48314W        W13299   6.366  21.786   4.689
48315W        W13300  23.247  19.860   3.666
48316W        W13301  32.054  32.617  11.197
48317W        W13302  36.121  36.819  11.077
48318W        W13303  37.437  29.703   2.677
48319W        W13304  36.364  29.880  14.625
48320W        W13305   2.508  35.322   2.246
48321W        W13306   5.348  43.436  13.042
48322W        W13307  41.885   2.138   4.179
48323W        W13308  31.300  19.158  11.946
48324W        W13309  28.692   2.700   2.630
48325W        W13310  33.279  39.823   3.216
48326W        W13311  42.930   1.894  10.336
48327W        W13312  39.601   2.498  13.481
48328W        W13313  43.486  39.560   0.615
48329W        W13314   6.864   8.187   2.315
48330W        W13315  28.463   9.353  12.586
48331W        W13316  21.656  26.632  10.733
48332W        W13317  37.658  10.542   0.816
48333W        W13318  29.934   5.160   0.406
48334W        W13319   5.490  32.653   2.828
48335W        W13320  20.508  15.290  14.412
48336W        W13321   4.763   4.869   4.706
48337W        W13322  10.939  20.738  10.516
48338W        W13323  31.382  28.085  14.353
48339W        W13324  36.050  27.628   3.839
48340W        W13325  30.881  22.159  11.639
48341W        W13326  34.162  31.594  10.672
48342W        W13327  35.761  26.224   4.354
48343W        W13328  19.581  17.884   3.627
48344W        W13329   1.835  41.362   0.092
48345W        W13330  44.958  16.872  13.552
48346W        W13331  14.896   7.282   0.413
48347W        W13332  29.858  26.059   4.314
48348W        W13333  21.839  11.732  11.124
48349W        W13334  40.994  26.490   2.732
48350W        W13335  41.025  29.823  13.543
48351W        W13336  35.689  37.474  14.784
48352W        W13337  27.744  20.613   2.297
48353W        W13338   5.742  14.795  11.887
48354W        W13339  25.228  16.004   2.701
48355W        W13340  27.672  17.273  11.727
48356W        W13341  37.595  40.817  13.035
48357W        W13342  10.450  23.827   0.659
48358W        W13343  29.566   8.899  12.832
48359W        W13344  34.935  13.232  11.075
48360W        W13345   6.653   4.308  13.474
48361W        W13346  26.179  37.710   4.656
48362W        W13347  26.625  23.880   3.110
48363W        W13348  44.733   3.956  14.620
48364W        W13349  12.038  41.573   1.814
48365W        W13350   0.362  36.318   2.896
48366W        W13351  13.355  19.361   1.072
48367W        W13352  40.797  34.351   1.928
48368W        W13353  39.771  12.147   1.455
48369W        W13354  30.252  30.096  13.541
48370W        W13355   9.744  21.241   4.524
48371W        W13356  13.724  17.089   4.015
48372W        W13357  13.851  40.317   0.672
48373W        W13358   4.015  31.547  11.940
48374W        W13359  32.139   0.837   4.566
48375W        W13360  27.049  32.797   1.165
48376W        W13361   7.366  40.556   4.866
48377W        W13362  42.914  42.021  13.047
48378W        W13363  21.632  38.901   1.405
48379W        W13364   4.373  15.389   3.188
48380W        W13365  28.967   4.980  11.756
48381W        W13366   4.404   1.372  10.911
48382W        W13367  31.115  19.631  11.950
48383W        W13368  22.193  19.320  14.390
48384W        W13369  43.008   9.448   5.199
48385W        W13370  22.281  43.190  14.504
48386W        W13371  16.742  21.483  13.953
48387W        W13372  26.630   4.737  10.305
48388W        W13373  17.587  18.000   2.779
48389W        W13374  31.616   3.982  12.880
48390W        W13375  19.239   8.200  13.163
48391W        W13376  28.467  28.332   3.996
48392W        W13377  33.567  42.345  13.024
48393W        W13378  40.290  36.865  11.195
48394W        W13379  21.974   4.668   1.811
48395W        W13380  18.724  34.050  11.482
48396W        W13381  36.826  44.933   3.900
48397W        W13382  17.883  40.058   0.742
48398W        W13383  17.171   8.239  13.440
48399W        W13384  43.037  35.651  12.664
48400W        W13385  29.569  41.723   1.613
48401W        W13386  22.870  34.139   2.854
48402W        W13387  17.028  10.656   2.590
48403W        W13388  37.107  39.512   3.619
48404W        W13389  35.394  43.753   3.328
48405W        W13390  27.131  17.423   3.250
48406W        W13391  44.461  34.078  11.706
48407W        W13392  27.427  22.554   2.908
48408W        W13393  10.202  15.311  11.976
48409W        W13394  44.458  15.057   0.463
48410W        W13395  12.189  29.417   2.198
48411W        W13396  37.853   3.435   0.167
48412W        W13397   2.463   6.879   2.643
48413W        W13398   8.316  30.507   2.187
48414W        W13399  42.592   9.909  12.164
48415W        W13400  23.905  20.301  12.089
48416W        W13401  21.823  22.989  14.369
48417W        W13402  42.851  10.809  14.704
48418W        W13403  16.607  17.739  14.741
48419W        W13404  28.180  11.275  14.345
48420W        W13405  37.543  31.496  13.368
48421W        W13406  41.237  11.945   0.525
48422W        W13407  22.510   3.839  11.608
48423W        W13408  24.747  18.081   2.872
48424W        W13409  28.907   0.058   4.832
48425W        W13410  43.834   2.789   4.124
48426W        W13411   4.842  21.199   2.610
48427W        W13412  24.130   7.299   4.298
48428W        W13413  20.301  22.705  14.905
48429W        W13414   8.351  32.858   2.606
48430W        W13415  17.213  24.269  10.743
48431W        W13416  14.207  14.639   0.376
48432W        W13417  36.426   7.600  13.341
48433W        W13418  26.009  40.257   3.142
48434W        W13419   1.803   1.273  14.920
48435W        W13420  19.601  14.227   2.335
48436W        W13421  37.473  20.135  11.874
48437W        W13422  12.663  27.379  13.379
48438W        W13423  28.084  29.948   3.238
48439W        W13424  43.836  20.236  12.457
48440W        W13425  37.786  15.731  10.344
48441W        W13426  39.507  33.865   1.248
48442W        W13427  38.731  16.850  11.146
48443W        W13428  28.528   2.013   1.319
48444W        W13429  23.158  25.246  14.357
48445W        W13430   8.139  13.860  13.342
48446W        W13431  39.653   8.146  11.983
48447W        W13432   8.417   6.653  10.507
48448W        W13433  36.560  21.228   1.289
48449W        W13434  42.260  20.147  11.886
48450W        W13435  31.429  10.634   2.187
48451W        W13436  39.548   0.850  11.200
48452W        W13437   5.251   3.572   3.719
48453W        W13438  43.000   3.386   4.885
48454W        W13439  15.837  42.871   1.735
48455W        W13440  44.898  37.480   3.556
48456W        W13441  21.931  27.509   1.481
48457W        W13442  38.922  10.935   2.353
48458W        W13443  24.385  33.209  12.522
48459W        W13444   1.717  42.288  11.933
48460W        W13445   4.318   7.674   0.795
48461W        W13446  41.406  36.581   3.514
48462W        W13447  30.168  34.307  10.837
48463W        W13448  43.148  22.550   0.490
48464W        W13449  15.064  42.402  13.107
48465W        W13450   6.774  30.305   0.955
48466W        W13451  33.870   8.795  11.322
48467W        W13452  39.877  23.845  11.451
48468W        W13453  22.758  11.180   1.938
48469W        W13454  13.558  39.901  13.906
48470W        W13455  30.769  11.644  11.492
48471W        W13456  44.679  36.622  14.423
48472W        W13457  10.959  15.244  12.578
48473W        W13458   1.067  29.251  13.488
48474W        W13459  17.121  42.768   0.399
48475W        W13460  14.733   1.271   0.313
48476W        W13461  32.924  28.161   0.300
48477W        W13462   6.959  40.907  10.720
48478W        W13463  15.983  14.302  12.071
48479W        W13464  19.676  22.254   4.069
48480W        W13465  21.014  20.690   0.680
48481W        W13466  37.363   1.325   3.644
48482W        W13467  32.036  42.843   0.631
48483W        W13468  21.055  29.444   3.839
48484W        W13469  24.017  27.733  11.986
48485W        W13470  31.534  14.772  12.292
48486W        W13471  41.871   8.799   1.335
48487W        W13472   7.834  19.982  10.293
48488W        W13473  17.091  16.270   0.568
48489W        W13474  18.551  40.875  13.411
48490W        W13475  29.230  18.521   0.486
48491W        W13476  27.219  12.676  12.130
48492W        W13477  43.880  20.660  13.875
48493W        W13478  38.767  25.656  13.344
48494W        W13479   1.320  37.299  10.729
48495W        W13480  26.900  33.651   1.825
48496W        W13481  26.566  44.215   4.561
48497W        W13482  39.627   3.046  14.822
48498W        W13483   6.825  31.949   3.715
48499W        W13484  33.316  43.073   4.988
48500W        W13485   6.469  28.653  14.938
48501W        W13486   7.364  15.215  12.423
48502W        W13487  42.832   3.890  11.808
48503W        W13488   9.753  31.839   0.736
48504W        W13489  12.150  32.354   4.441
48505W        W13490  30.430  14.314  10.770
48506W        W13491  40.117  22.231   1.250
48507W        W13492  23.315  12.551  11.422
48508W        W13493  31.499  39.402   4.035
48509W        W13494  38.548  13.340  14.418
48510W        W13495   2.654  24.054   0.222
48511W        W13496  38.014  39.917  10.773
48512W        W13497  29.539  12.357  12.994
48513W        W13498   4.417  33.947  12.612
48514W        W13499  40.040   4.137  14.810
48515W        W13500  19.217  15.218  12.509
48516W        W13501  18.186  37.088   4.243
48517W        W13502  10.380  24.543  14.721
48518W        W13503  44.718  21.766  13.947
48519W        W13504  24.367  44.856   3.680
48520W        W13505  13.176  17.170   1.818
48521W        W13506  44.808   7.007  14.778
48522W        W13507  27.017  20.024  14.366
48523W        W13508  36.873   7.868  13.312
48524W        W13509   6.646   2.263  14.032
48525W        W13510   5.738  23.247   0.259
48526W        W13511  34.392  39.912  13.003
48527W        W13512   0.304   7.177  12.910
48528W        W13513  38.000  30.208  10.966
48529W        W13514  31.603  14.864  10.788
48530W        W13515  23.581   0.217   1.854
48531W        W13516  36.390   4.369  13.549
48532W        W13517   4.747  32.932   3.773
48533W        W13518  19.234  14.362   4.152
48534W        W13519  17.928  28.241   2.888
48535W        W13520  15.668   3.192   4.100
48536W        W13521   3.941  13.281  13.564
48537W        W13522  34.221  40.919   3.641
48538W        W13523  18.811  27.069   9.532
48539W        W13524   7.475  44.454   4.550
48540W        W13525  43.316  34.569  14.760
48541W        W13526  36.620  30.824   4.008
48542W        W13527  25.287  43.802   2.171
48543W        W13528  21.693   9.253   2.810
48544W        W13529  23.596   0.184   0.579
48545W        W13530  39.292  38.734   1.937
48546W        W13531  34.888  42.981  13.136
48547W        W13532  40.020  43.830   3.058
48548W        W13533   2.354   0.465   2.365
48549W        W13534  44.349  16.765   1.625
48550W        W13535  36.772  13.783  10.780
48551W        W13536  39.756   1.712   1.459
48552W        W13537   9.808  22.275   4.521
48553W        W13538   5.012  21.562  13.681
48554W        W13539   8.627  27.619  14.318
48555W        W13540  16.144  21.530  11.099
48556W        W13541  34.786  23.539  11.601
48557W        W13542  18.996  24.706   0.387
48558W        W13543  25.894  17.581   1.412
48559W        W13544  14.621  10.137  13.003
48560W        W13545  42.303  29.237  13.738
48561W        W13546   0.218  11.476   0.687
48562W        W13547   0.527  18.969   0.695
48563W        W13548  32.603  38.870   2.311
48564W        W13549   8.924  31.387  14.415
48565W        W13550  31.564  21.020   1.698
48566W        W13551  25.206  23.631   1.140
48567W        W13552  29.429   0.467   1.183
48568W        W13553  20.755  43.517  13.905
48569W        W13554  22.831  18.121  14.723
48570W        W13555   7.229  43.335   2.243
48571W        W13556  38.586  26.067  13.073
48572W        W13557  21.292  35.509   3.877
48573W        W13558   4.815  39.988   1.913
48574W        W13559  44.522  44.239   4.996
48575W        W13560  26.579  21.137   1.890
48576W        W13561  42.839  22.480   0.890
48577W        W13562  27.703   1.782   0.781
48578W        W13563  11.956  30.967  10.415
48579W        W13564   5.788  14.775  10.976
48580W        W13565  22.216  35.531   3.972
48581W        W13566  17.288   5.009  12.164
48582W        W13567  23.809   5.691   3.190
48583W        W13568   6.637   8.810   1.663
48584W        W13569  37.464  43.284  12.500
48585W        W13570  35.057  31.614   2.868
48586W        W13571  26.088  12.849  14.346
48587W        W13572  10.985   3.516  10.180
48588W        W13573  37.419  25.644   4.993
48589W        W13574   4.739   5.772  10.288
48590W        W13575  39.879  11.628  13.713
48591W        W13576  10.838  37.994  13.328
48592W        W13577  24.361   2.231   3.755
48593W        W13578  21.509   3.467   2.742
48594W        W13579  13.941  21.656  10.673
48595W        W13580  28.882  32.462  13.201
48596W        W13581  25.004   8.592  11.195
48597W        W13582  32.433  15.105   0.910
48598W        W13583  20.881  25.243  11.359
48599W        W13584  43.416  17.019   0.715
48600W        W13585  30.687  32.514  14.363
48601W        W13586   3.194  15.097  14.023
48602W        W13587  34.548  27.192  12.444
48603W        W13588  44.896   2.657   1.377
48604W        W13589  17.717  39.744   3.144
48605W        W13590  19.637  16.463   0.906
48606W        W13591   2.701  21.287   2.375
48607W        W13592   1.408  17.514   0.389
48608W        W13593  31.537  22.535  14.554
48609W        W13594   8.670   8.503   2.157
48610W        W13595  22.113  39.874  13.356
48611W        W13596  23.052   8.603  12.472
48612W        W13597   6.275  16.823  11.692
48613W        W13598  37.792  34.815   9.469
48614W        W13599  34.678  23.556   0.469
48615W        W13600  40.221  37.014   4.589
48616W        W13601  11.295  38.661   1.900
48617W        W13602  20.768  33.317  13.908
48618W        W13603   4.872  38.073   2.384
48619W        W13604  21.490  20.658   2.554
48620W        W13605  43.336   5.175   4.836
48621W        W13606  19.795  19.697   3.368
48622W        W13607  10.138   2.433  12.963
48623W        W13608  15.194  28.299  12.444
48624W        W13609  15.246  31.155  10.309
48625W        W13610  39.821  43.398   4.067
48626W        W13611  26.158  37.480   0.786
48627W        W13612  29.776  16.307   0.347
48628W        W13613  18.607  39.704  11.679
48629W        W13614   6.638  27.748  14.465
48630W        W13615  32.632  28.602   4.832
48631W        W13616  18.568  25.445  14.998
48632W        W13617  43.721  31.551   0.771
48633W        W13618  38.321  25.869  11.612
48634W        W13619   1.691  15.711   0.292
48635W        W13620   6.386  39.607  10.196
48636W        W13621  44.213  40.412  10.687
48637W        W13622   7.202  37.008   0.238
48638W        W13623  28.535  36.218   2.231
48639W        W13624  30.007  30.619  12.141
48640W        W13625  28.856  24.120  11.217
48641W        W13626  24.686  14.213   3.405
48642W        W13627   3.972  14.055   1.330
48643W        W13628  40.692   2.843   2.795
48644W        W13629  11.452  32.207   0.696
48645W        W13630  36.343  12.807   1.677
48646W        W13631  23.450  14.229   1.299
48647W        W13632   0.230  30.479   3.842
48648W        W13633  21.510  22.168  12.000
48649W        W13634  40.449  26.764   2.299
48650W        W13635   7.220  40.019   0.811
48651W        W13636  29.115  28.842   4.065
48652W        W13637  14.174  17.802  11.200
48653W        W13638  39.838  43.337  10.751
48654W        W13639  12.744  18.636  14.486
48655W        W13640  38.498  21.603  10.723
48656W        W13641  15.881  44.519  11.359
48657W        W13642   9.311  24.710  11.918
48658W        W13643  27.078  34.449   1.911
48659W        W13644  41.133   2.223   3.304
48660W        W13645  42.482  18.286   0.838
48661W        W13646  12.265  36.783  14.836
48662W        W13647  34.905  31.424   4.201
48663W        W13648  34.052   5.936   4.724
48664W        W13649   4.791  17.738  11.785
48665W        W13650  43.521  33.774   1.926
48666W        W13651  37.947   2.213   4.228
48667W        W13652  24.969  16.833   3.390
48668W        W13653  28.979  37.999  14.254
48669W        W13654   7.120  22.060  12.452
48670W        W13655  38.913  13.350  14.006
48671W        W13656  41.117   1.428  14.323
48672W        W13657   6.376  32.854  12.510
48673W        W13658  11.671  13.108   2.224
48674W        W13659   7.264  33.629  11.172
48675W        W13660  41.092  33.369  14.377
48676W        W13661   2.306  40.608  13.910
48677W        W13662  10.275  28.806   3.620
48678W        W13663   8.581  29.049  13.076
48679W        W13664  28.332  33.362  11.674
48680W        W13665  22.727  28.672   2.753
48681W        W13666  23.361  21.710  10.645
48682W        W13667   5.726  32.594   1.286
48683W        W13668  21.737   4.437  14.007
48684W        W13669  31.191  35.475   2.413
48685W        W13670   3.178  43.152   4.337
48686W        W13671  34.010  11.276  12.869
48687W        W13672  33.942  28.631   0.833
48688W        W13673   5.554  18.935  12.040
48689W        W13674  13.190  38.553  14.403
48690W        W13675   3.271   7.304  10.816
48691W        W13676  40.516  28.242   9.508
48692W        W13677  32.482  33.161   2.322
48693W        W13678   1.425  30.917  14.966
48694W        W13679  36.349  11.217   2.567
48695W        W13680   4.097   8.126   4.468
48696W        W13681  38.542  30.635  14.538
48697W        W13682  41.801   5.971  13.945
48698W        W13683  20.036  15.288  12.731
48699W        W13684   1.216   1.642   0.694
48700W        W13685   3.506  33.999  14.337
48701W        W13686  21.264   0.404  12.285
48702W        W13687   2.676  39.223  13.794
48703W        W13688  20.196  24.272   1.004
48704W        W13689  29.996  36.507   1.464
48705W        W13690  20.763  30.622  11.451
48706W        W13691  29.531   5.831   3.089
48707W        W13692  29.518  30.968   0.387
48708W        W13693  31.957  11.685   1.299
48709W        W13694  15.556  13.710  11.265
48710W        W13695  24.575  36.870  14.527
48711W        W13696  40.419  26.495   4.514
48712W        W13697   2.944  25.880  14.933
48713W        W13698  42.494   5.361   2.441
48714W        W13699  28.096  30.179  10.128
48715W        W13700  12.037  16.795   0.363
48716W        W13701  37.575  28.721  13.024
48717W        W13702  19.737  44.268  11.513
48718W        W13703  34.320  12.647  13.236
48719W        W13704  31.515  10.347  14.124
48720W        W13705  28.605  12.101  14.932
48721W        W13706  26.033  20.806   2.838
48722W        W13707   3.416  43.076   3.305
48723W        W13708  39.002  19.356   3.659
48724W        W13709  42.248  43.300   3.138
48725W        W13710  35.172   7.591   2.395
48726W        W13711   9.823   3.693   0.764
48727W        W13712  18.650   9.829   1.192
48728W        W13713  34.066  37.724   4.293
48729W        W13714   6.682  16.652   3.316
48730W        W13715  29.219   1.788   1.715
48731W        W13716  32.363  42.424   4.117
48732W        W13717   0.733   6.922  12.176
48733W        W13718  26.593  25.086  13.914
48734W        W13719  40.002  42.799  12.783
48735W        W13720  19.128   6.779   4.042
48736W        W13721  19.558  10.150  12.515
48737W        W13722  16.080  31.625   2.750
48738W        W13723   0.148  14.522   2.702
48739W        W13724  30.096   1.186  13.162
48740W        W13725  35.587   9.669  11.787
48741W        W13726  20.209   6.898  13.325
48742W        W13727  26.695  39.993   3.627
48743W        W13728  35.934  39.770  11.633
48744W        W13729   8.290  12.951   3.012
48745W        W13730   6.795  44.382   1.435
48746W        W13731  23.073  32.394  14.969
48747W        W13732   3.760  15.032   1.370
48748W        W13733  26.038  10.025   0.371
48749W        W13734  41.966  35.102  14.311
48750W        W13735   7.671  13.020  12.635
48751W        W13736  42.928   2.497   4.657
48752W        W13737  31.991  36.291   3.116
48753W        W13738  34.351  23.972   0.662
48754W        W13739  26.166  20.917  14.743
48755W        W13740   3.993  32.171  11.482
48756W        W13741  26.714  15.859  14.236
48757W        W13742  12.031   7.623  13.030
48758W        W13743  28.982  23.191  10.354
48759W        W13744   6.145  27.606   2.216
48760W        W13745   6.533  25.464  11.487
48761W        W13746  32.373   4.799  12.891
48762W        W13747  27.188  24.126   1.611
48763W        W13748   6.314  29.584   4.690
48764W        W13749   4.151  35.957  11.814
48765W        W13750  13.165   2.124  10.600
48766W        W13751  42.866  21.222  14.205
48767W        W13752  21.234  23.713   2.910
48768W        W13753  27.142  21.996  14.378
48769W        W13754  23.034  43.391   4.117
48770W        W13755  24.951  18.651   1.773
48771W        W13756  11.132   4.232   1.812
48772W        W13757   9.146  23.993  13.798
48773W        W13758  19.505  33.971  14.831
48774W        W13759  26.188  17.498   2.775
48775W        W13760   9.035  28.086  12.046
48776W        W13761   9.894  30.149  13.504
48777W        W13762  33.940  29.594  14.825
48778W        W13763  43.832  44.435  14.667
48779W        W13764  40.305  29.090   4.006
48780W        W13765  18.058  10.433   3.258
48781W        W13766  13.215  23.464   4.074
48782W        W13767  29.771  31.974  12.457
48783W        W13768  28.106  12.845  10.176
48784W        W13769  19.135   7.268   4.240
48785W        W13770  37.937  38.379  11.530
48786W        W13771  42.443   3.662   2.624
48787W        W13772  23.133  10.888  14.836
48788W        W13773  28.560  25.556  11.176
48789W        W13774   4.422  20.089   1.669
48790W        W13775  44.182  44.712  12.947
48791W        W13776   3.310  37.129   4.296
48792W        W13777  44.024  23.724   3.680
48793W        W13778  18.534  21.579   0.789
48794W        W13779  33.788   0.291   4.907
48795W        W13780   8.126  10.222   0.500
48796W        W13781  34.647   3.380  11.405
48797W        W13782   6.817  33.860  14.301
48798W        W13783   6.571  35.498  13.074
48799W        W13784  24.592  39.494   1.209
48800W        W13785  31.428  19.298  12.436
48801W        W13786  20.705  36.102  13.015
48802W        W13787  37.107  13.829  12.156
48803W        W13788  29.931   9.713  13.458
48804W        W13789  29.293  43.267   3.199
48805W        W13790  10.684  29.867   2.378
48806W        W13791  26.996  10.651  10.628
48807W        W13792  20.063   8.840  11.687
48808W        W13793  16.056   9.274  14.398
48809W        W13794  18.319  43.422  14.579
48810W        W13795  23.268  11.384  12.057
48811W        W13796   6.827  38.517  13.138
48812W        W13797  35.991   8.455  11.354
48813W        W13798   4.107  38.882  10.963
48814W        W13799  20.937  42.456  10.696
48815W        W13800  32.857  34.489  14.835
48816W        W13801   6.878   7.501   0.769
48817W        W13802   3.291  17.800  12.213
48818W        W13803  29.111  21.341  12.081
48819W        W13804  24.970   3.434   0.715
48820W        W13805  34.601  44.270  11.968
48821W        W13806  14.112  38.377  13.472
48822W        W13807  30.479  23.430  14.917
48823W        W13808  12.601  36.399  10.770
48824W        W13809  20.128   2.917  12.328
48825W        W13810  23.117  37.410  14.728
48826W        W13811  37.054  26.558   4.181
48827W        W13812  34.922  40.529  11.211
48828W        W13813   4.453  30.568   2.917
48829W        W13814   5.995  18.087   0.465
48830W        W13815   1.351  31.453  11.524
48831W        W13816  15.582  22.636  12.080
48832W        W13817   3.957  14.103   3.336
48833W        W13818  30.197  43.919  11.859
48834W        W13819  41.924  28.506   0.872
48835W        W13820  27.938   9.461   2.221
48836W        W13821  44.839  35.550   4.707
48837W        W13822  34.319  35.410  14.660
48838W        W13823   0.822  27.377   0.242
48839W        W13824  34.170  30.090  13.484
48840W        W13825  36.659  14.102  11.166
48841W        W13826  34.399   0.669  13.928
48842W        W13827  16.791  13.032   2.728
48843W        W13828  26.997   9.936  12.089
48844W        W13829  22.054  25.669  12.621
48845W        W13830   8.165   0.718  11.967
48846W        W13831  43.936  13.681   3.904
48847W        W13832  14.413  15.426  14.228
48848W        W13833   4.418  22.481   4.122
48849W        W13834  38.987   6.368  10.198
48850W        W13835  29.879   5.601   4.244
48851W        W13836  26.088  20.477   1.015
48852W        W13837  40.024  31.626   3.203
48853W        W13838  32.404  22.098   4.615
48854W        W13839   7.581  43.832  13.926
48855W        W13840  37.143   9.523   0.884
48856W        W13841   0.519  27.950   2.259
48857W        W13842  42.682  21.779   2.818
48858W        W13843  34.937  22.465  14.011
48859W        W13844   1.232  43.764  11.534
48860W        W13845  35.677   2.505   0.700
48861W        W13846  18.368   4.118  14.726
48862W        W13847   4.917  15.338  11.972
48863W        W13848   1.984  16.328   1.258
48864W        W13849  44.483  41.379   0.408
48865W        W13850  17.155   5.858   0.227
48866W        W13851   3.432   3.482  13.346
48867W        W13852  21.183  38.926  13.527
48868W        W13853  41.301  44.345  10.781
48869W        W13854  33.268   6.872   4.264
48870W        W13855   9.446  25.107  11.628
48871W        W13856  44.055   7.851   1.627
48872W        W13857  32.215  33.611   5.060
48873W        W13858   9.761   7.829   0.223
48874W        W13859  28.400   7.495  12.569
48875W        W13860   0.584  40.281   4.203
48876W        W13861   3.966  17.504  10.216
48877W        W13862  11.719   2.181   3.148
48878W        W13863   4.548  27.393   0.801
48879W        W13864  25.707  15.124  12.076
48880W        W13865  30.578   5.439  11.181
48881W        W13866  38.182  21.163  12.114
48882W        W13867  38.286   8.100   0.827
48883W        W13868  38.900  29.209   4.337
48884W        W13869  32.698   9.277  14.408
48885W        W13870  12.775  10.721  12.886
48886W        W13871  14.101  35.802  14.398
48887W        W13872  23.667   2.883  14.887
48888W        W13873   6.723  18.824  10.823
48889W        W13874  28.424  26.507  14.078
48890W        W13875  26.245  29.389   9.642
48891W        W13876   6.902  37.365  13.559
48892W        W13877  16.669  40.221  14.636
48893W        W13878  42.100  37.100   5.149
48894W        W13879   3.445   0.767   3.598
48895W        W13880  43.749  18.482   1.270
48896W        W13881  29.607  10.843  10.981
48897W        W13882  12.962  24.100   0.048
48898W        W13883  24.915   9.120   2.736
48899W        W13884  44.663  39.132  14.926
48900W        W13885  21.188   4.860  14.340
48901W        W13886  18.025  38.496  11.200
48902W        W13887  18.003   3.330  14.306
48903W        W13888  11.453   5.937   2.354
48904W        W13889   4.279   0.324  10.630
48905W        W13890  32.338  22.680  13.391
48906W        W13891  32.937  13.379  13.822
48907W        W13892  39.437  11.739   2.660
48908W        W13893  12.675  14.421  14.860
48909W        W13894  35.972  10.866  12.456
48910W        W13895   7.880  21.560   3.675
48911W        W13896  21.267  10.583  12.656
48912W        W13897  42.405  31.923   3.819
48913W        W13898   4.862   7.836  13.229
48914W        W13899  28.452  36.840  11.133
48915W        W13900  29.555  15.816  13.853
48916W        W13901   1.689  33.125   1.202
48917W        W13902  43.736   6.526   4.170
48918W        W13903  21.225  23.316  12.162
48919W        W13904   8.726   8.639  14.933
48920W        W13905  36.967  43.438  14.815
48921W        W13906  19.559  42.125   0.399
48922W        W13907  43.846  41.130   2.797
48923W        W13908  25.203  12.399  11.904
48924W        W13909  22.231  16.843   3.666
48925W        W13910  19.640  33.605   1.882
48926W        W13911   3.261  37.071   2.518
48927W        W13912  22.756  44.458  13.697
48928W        W13913  15.637  18.925  12.128
48929W        W13914  31.941  17.101   1.628
48930W        W13915   9.541  11.144  11.817
48931W        W13916  15.013  35.532   3.799
48932W        W13917  39.712  30.369   0.560
48933W        W13918  20.905   6.941   4.385
48934W        W13919   0.965  15.180  13.116
48935W        W13920  27.459  11.131  13.332
48936W        W13921   0.759  41.375   4.711
48937W        W13922  38.808   9.188  13.019
48938W        W13923  27.087  31.020  13.948
48939W        W13924  24.499  35.702   1.098
48940W        W13925  13.181  32.510   3.968
48941W        W13926   9.427  19.266   3.572
48942W        W13927  20.701  18.137  10.194
48943W        W13928  36.623  15.163  10.424
48944W        W13929  22.981  12.189  11.316
48945W        W13930  24.498  22.072   4.590
48946W        W13931  30.851  28.120  12.022
48947W        W13932  10.426  42.836  14.062
48948W        W13933  24.042  15.943   3.204
48949W        W13934   2.807  23.677   4.716
48950W        W13935  31.948   4.988   1.814
48951W        W13936   2.328   4.188   4.305
48952W        W13937  30.367  23.959   2.997
48953W        W13938   3.020  29.105  11.455
48954W        W13939   6.073  22.010  12.563
48955W        W13940  38.811   5.689   1.534
48956W        W13941   8.423  40.082   3.381
48957W        W13942  32.666  43.828  13.550
48958W        W13943  28.079  13.446  13.421
48959W        W13944  32.908  18.507  12.996
48960W        W13945  25.057  24.617   1.841
48961W        W13946  20.091  19.305   2.715
48962W        W13947  16.345  37.299   4.147
48963W        W13948  42.099  13.290  12.453
48964W        W13949  43.795  18.491  12.592
48965W        W13950  31.877  32.023  14.507
48966W        W13951  35.620  41.245   2.566
48967W        W13952   0.678  27.129   9.710
48968W        W13953  15.608   0.940   4.316
48969W        W13954   7.687  37.896  14.486
48970W        W13955   7.812  25.595  11.209
48971W        W13956   9.747  19.307   2.744
48972W        W13957  30.676  14.366  13.898
48973W        W13958   1.990  18.631  13.508
48974W        W13959  30.145  22.776   3.662
48975W        W13960  41.755  39.880   2.754
48976W        W13961   7.268  14.627   1.605
48977W        W13962  30.633  15.366   0.708
48978W        W13963  14.514  35.410   3.692
48979W        W13964  26.094   8.250  12.911
48980W        W13965  17.005  14.178  11.154
48981W        W13966  41.862  31.968   0.362
48982W        W13967  29.510   0.499   2.096
48983W        W13968  33.500   5.896   4.712
48984W        W13969  21.018   6.978  13.386
48985W        W13970  13.883   1.413   0.469
48986W        W13971   7.974   9.129   3.090
48987W        W13972  41.630  19.506   3.636
48988W        W13973  44.926  18.613  11.260
48989W        W13974  10.384  21.319  11.781
48990W        W13975   9.731  33.159   1.925
48991W        W13976  21.160   5.967  13.453
48992W        W13977  14.644  39.103   1.363
48993W        W13978  15.014   9.109  14.551
48994W        W13979  25.985  24.966   3.675
48995W        W13980  41.454  27.938  12.437
48996W        W13981  14.239  11.281   4.667
48997W        W13982  22.598  31.470   3.780
48998W        W13983  39.255   2.942   4.054
48999W        W13984  18.799   1.713  10.727
49000W        W13985  42.525  26.201   2.045
49001W        W13986  22.304  28.875   1.863
49002W        W13987  15.857  38.885  12.219
49003W        W13988   7.260  33.675  14.042
49004W        W13989  44.842   0.163   3.390
49005W        W13990   2.458  27.044   2.398
49006W        W13991  23.982  21.003  11.024
49007W        W13992  23.946  44.781   1.865
49008W        W13993   0.217  29.189  14.624
49009W        W13994  39.800  20.483  12.096
49010W        W13995  23.457  11.843   1.737
49011W        W13996  40.861  39.115   2.802
49012W        W13997   9.120  18.662  14.786
49013W        W13998   9.657  38.932  13.308
49014W        W13999   7.305  42.407  13.125
49015W        W14000  40.054   9.865   0.008
49016W        W14001  18.884  22.685   2.260
49017W        W14002  32.307  20.284  14.354
49018W        W14003  31.401  36.313  14.338
49019W        W14004  10.277  24.430   1.248
49020W        W14005  36.580  35.991   4.610
49021W        W14006  19.892  29.247   3.041
49022W        W14007  22.721  41.686   4.433
49023W        W14008   9.661  21.258   3.104
49024W        W14009  15.809  21.139   2.290
49025W        W14010  28.405   4.130  14.886
49026W        W14011  21.314  13.267   1.375
49027W        W14012  41.521  28.930  12.294
49028W        W14013  40.072  44.150  14.391
49029W        W14014   0.303  42.395  12.501
49030W        W14015  14.366   3.586   4.448
49031W        W14016   6.437   7.775   0.924
49032W        W14017  15.333   0.245  12.578
49033W        W14018   6.815  28.221  12.699
49034W        W14019  11.495   7.725   3.250
49035W        W14020  16.536   4.287   1.016
49036W        W14021  32.727  31.013   2.711
49037W        W14022  20.810  18.628  11.588
49038W        W14023   3.246  42.323   2.637
49039W        W14024  18.921  36.168   4.878
49040W        W14025  40.694   0.311   0.196
49041W        W14026  13.198  41.759   2.774
49042W        W14027   4.557  32.094   0.747
49043W        W14028  30.068  22.920  12.476
49044W        W14029  12.696  27.924   4.438
49045W        W14030  27.012   5.914   1.230
49046W        W14031  12.649  27.667   4.894
49047W        W14032  44.780  40.070  14.775
49048W        W14033  36.017  43.533   1.840
49049W        W14034  41.416  32.221   3.462
49050W        W14035  25.283  25.116  11.442
49051W        W14036  36.052  10.146   2.371
49052W        W14037  16.502   7.901   9.841
49053W        W14038  30.050  45.000  11.112
49054W        W14039  37.567  30.650  14.824
49055W        W14040  21.088  25.826  13.758
49056W        W14041   7.774  13.274   3.854
49057W        W14042   0.884   2.177   0.410
49058W        W14043  11.221  32.252   3.397
49059W        W14044   5.309  22.619  11.161
49060W        W14045  17.815  24.478   0.825
49061W        W14046  19.494   6.319   0.903
49062W        W14047  31.103  14.085  13.865
49063W        W14048  19.326   0.631   2.233
49064W        W14049  39.144  21.169  11.127
49065W        W14050  35.789  15.659   4.560
49066W        W14051  10.855   4.198  13.506
49067W        W14052  25.995  12.839   3.182
49068W        W14053  34.304  19.086  12.212
49069W        W14054  12.276   4.318  10.679
49070W        W14055  41.263  14.050   2.372
49071W        W14056  13.357  13.346  14.307
49072W        W14057  31.431  21.495  10.550
49073W        W14058  26.414  34.641   4.612
49074W        W14059   3.898  43.021  11.042
49075W        W14060  35.242  39.338  11.676
49076W        W14061  13.522   2.509   1.653
49077W        W14062   9.416  35.852   0.950
49078W        W14063   1.370  42.254   0.263
49079W        W14064  44.796  37.559  11.583
49080W        W14065  23.069  42.988   0.333
49081W        W14066  14.572  33.852  12.522
49082W        W14067   9.689  38.209  14.716
49083W        W14068  25.583   7.148  12.462
49084W        W14069  30.004   2.853   1.316
49085W        W14070  14.365   8.351  13.932
49086W        W14071  29.699  33.531  11.699
49087W        W14072  42.952  44.675   1.304
49088W        W14073  23.657  43.737   4.551
49089W        W14074  32.399  13.226  11.888
49090W        W14075  41.462   0.836  14.865
49091W        W14076  35.075  18.072   4.653
49092W        W14077  18.507  15.884   2.743
49093W        W14078  39.454  42.509   1.274
49094W        W14079  14.766   5.888  12.628
49095W        W14080  28.923  41.923  13.218
49096W        W14081  31.430   3.783   4.592
49097W        W14082  38.539  28.769  10.680
49098W        W14083  31.011  11.529   2.551
49099W        W14084  14.630  34.023  14.562
49100W        W14085  41.091  44.056  12.110
49101W        W14086  27.704  38.487   1.499
49102W        W14087  28.929  28.660   5.004
49103W        W14088  18.084  36.276  10.534
49104W        W14089  34.420  40.324  11.220
49105W        W14090  36.045  23.135   4.137
49106W        W14091  16.444  37.025   3.699
49107W        W14092   0.028  39.435   1.937
49108W        W14093  20.980  25.083  10.867
49109W        W14094  31.866  29.909   2.356
49110W        W14095  13.970  27.109   4.574
49111W        W14096  39.315  24.177   2.542
49112W        W14097  44.730   8.930  13.293
49113W        W14098  37.589  36.535  11.663
49114W        W14099   9.960   0.708   0.258
49115W        W14100  41.944  36.875  11.857
49116W        W14101  12.123  21.172  14.771
49117W        W14102  16.888  42.789   4.053
49118W        W14103  35.520  11.083  11.883
49119W        W14104  43.811  23.266   0.305
49120W        W14105  19.712  20.458  11.999
49121W        W14106   5.364   9.033  12.990
49122W        W14107   3.784  19.677  13.045
49123W        W14108  19.576   5.173  11.924
49124W        W14109   7.955  42.262  14.355
49125W        W14110  21.252  33.567  13.921
49126W        W14111  24.979   4.753   1.059
49127W        W14112  26.603  17.089  12.677
49128W        W14113  32.805  16.718   3.219
49129W        W14114  19.308  17.644   2.710
49130W        W14115  39.043  38.986  14.064
49131W        W14116  11.227  42.019  12.210
49132W        W14117  38.214   9.334   3.795
49133W        W14118  13.620  23.992  10.582
49134W        W14119  42.418  16.138   2.259
49135W        W14120  38.147   7.117  11.552
49136W        W14121  33.484  28.657  13.983
49137W        W14122   3.105  26.078  12.011
49138W        W14123   6.177  43.349  14.678
49139W        W14124  24.274  34.449   3.606
49140W        W14125   1.838  22.334   4.185
49141W        W14126  33.903  32.374  12.629
49142W        W14127  11.352  39.555  14.537
49143W        W14128  36.079  39.678   2.663
49144W        W14129  16.146  36.404  11.467
49145W        W14130  17.536  35.623  11.747
49146W        W14131  43.571  42.447  14.947
49147W        W14132   6.442  37.404   0.365
49148W        W14133  24.486  39.590   0.281
49149W        W14134  38.274  23.721  14.926
49150W        W14135  17.051  31.552  14.907
49151W        W14136  42.977   8.769   2.341
49152W        W14137  15.819  39.265  13.332
49153W        W14138  29.494  35.845   2.137
49154W        W14139  33.227  25.112   0.098
49155W        W14140  16.164  36.856  10.742
49156W        W14141  42.278   1.394   0.789
49157W        W14142  38.964  38.508  13.069
49158W        W14143  40.443   7.989   5.072
49159W        W14144  21.105   1.834   1.351
49160W        W14145   9.755  20.729  11.730
49161W        W14146   3.459  27.374  12.481
49162W        W14147  32.498   6.644  14.746
49163W        W14148  30.612  39.990  13.552
49164W        W14149  28.605  30.166   4.093
49165W        W14150   0.515  25.530  11.132
49166W        W14151  25.628  38.905  13.589
49167W        W14152  13.795  29.117   3.709
49168W        W14153  41.262   0.393  12.164
49169W        W14154  27.728  24.111  12.378
49170W        W14155  25.384   8.816  10.311
49171W        W14156   7.957  25.605  13.557
49172W        W14157  17.635  30.898   4.464
49173W        W14158  18.014  40.382  13.119
49174W        W14159  12.776  31.577  14.657
49175W        W14160   5.001  29.104   4.289
49176W        W14161  16.964   1.337  14.011
49177W        W14162  44.124  44.974   1.899
49178W        W14163  12.798  25.092   3.050
49179W        W14164  43.895  25.782   1.003
49180W        W14165  43.187  15.298   0.042
49181W        W14166   0.383   6.268   2.915
49182W        W14167  18.243  32.372   0.240
49183W        W14168  41.329   3.265  12.491
49184W        W14169  26.515  39.318  14.413
49185W        W14170  12.154  20.689   1.411
49186W        W14171  33.563   2.521   2.855
49187W        W14172  23.515  27.140  10.480
49188W        W14173  11.623  42.450  13.872
49189W        W14174  37.045  41.810  11.197
49190W        W14175  44.899   8.934  11.162
49191W        W14176  18.225   1.585  12.116
49192W        W14177  16.759  24.202  14.414
49193W        W14178   7.751  41.287  14.555
49194W        W14179  42.022  16.084   2.610
49195W        W14180  12.111  33.804   3.733
49196W        W14181  37.278  28.742   4.012
49197W        W14182  20.307  21.196   1.470
49198W        W14183  36.402  34.605  11.647
49199W        W14184  17.720  21.115   4.877
49200W        W14185   2.924  10.632   0.284
49201W        W14186  13.595  35.094   3.319
49202W        W14187  18.730  21.600   1.308
49203W        W14188  40.557   7.453   1.280
49204W        W14189  44.755   7.635  12.962
49205W        W14190  24.571  20.035   0.515
49206W        W14191  41.456  43.532   4.519
49207W        W14192  29.634  14.305  10.280
49208W        W14193   4.080  44.547  12.993
49209W        W14194  37.886  18.702   1.375
49210W        W14195  27.717  23.570   1.163
49211W        W14196  15.802   9.203   2.233
49212W        W14197  40.509   2.585   3.386
49213W        W14198  35.564  18.779  10.681
49214W        W14199  34.635  19.280  14.948
49215W        W14200  16.308   4.455   1.425
49216W        W14201  31.164  10.204  11.189
49217W        W14202  11.415   9.231  12.206
49218W        W14203  26.497   4.226   2.785
49219W        W14204   0.763  42.747   2.445
49220W        W14205  32.495  33.066   0.239
49221W        W14206  19.005  25.740   2.650
49222W        W14207  23.572  21.916   0.996
49223W        W14208  31.119   8.614  10.255
49224W        W14209  21.729   1.222  12.451
49225W        W14210   2.223   1.306   3.895
49226W        W14211   5.202  28.042   0.310
49227W        W14212   2.533   6.394  13.965
49228W        W14213   5.271  30.214   0.409
49229W        W14214  30.612   6.310  11.608
49230W        W14215  17.985  22.863   4.217
49231W        W14216  29.121   6.273   2.567
49232W        W14217  19.541  24.080  12.569
49233W        W14218  39.634  13.679  11.131
49234W        W14219  18.839   7.845  13.486
49235W        W14220  27.702  12.479  14.841
49236W        W14221  42.297  30.691   3.230
49237W        W14222  26.639  24.280  13.418
49238W        W14223  35.984   3.607  11.208
49239W        W14224  40.949  22.659   2.743
49240W        W14225  30.674  13.311  12.872
49241W        W14226   2.428   1.188  12.364
49242W        W14227  23.074   8.284   2.245
49243W        W14228  42.765  38.020  12.074
49244W        W14229  14.056  41.331   1.285
49245W        W14230  41.424  22.244   2.358
49246W        W14231  31.182   9.345   1.871
49247W        W14232  12.650  12.331   3.040
49248W        W14233  15.122   7.551  10.693
49249W        W14234  15.605  19.308   1.243
49250W        W14235   6.877  30.071  14.408
49251W        W14236  29.453  12.109  10.734
49252W        W14237  10.220  34.284   2.389
49253W        W14238  27.710  43.564  14.428
49254W        W14239  11.842  42.745  12.632
49255W        W14240   5.846  28.187   1.420
49256W        W14241   4.200   7.345   4.229
49257W        W14242   8.721  14.440  14.220
49258W        W14243  10.284   8.246   1.918
49259W        W14244  30.993   9.383   3.860
49260W        W14245   2.260   4.312   0.921
49261W        W14246  16.832  18.710   5.466
49262W        W14247  15.622  40.655   0.670
49263W        W14248  23.592  33.433   4.436
49264W        W14249   0.251  16.701   1.802
49265W        W14250  22.706   0.875   3.717
49266W        W14251  32.855  29.481   0.460
49267W        W14252  25.381  39.035  14.481
49268W        W14253   1.241  43.783   2.663
49269W        W14254  44.243  31.581   0.839
49270W        W14255  11.257   9.070   3.670
49271W        W14256  28.004  40.476  14.012
49272W        W14257  43.776  38.256  12.512
49273W        W14258  44.575  17.337   0.205
49274W        W14259  21.726  25.578   3.282
49275W        W14260  27.330  13.525  12.797
49276W        W14261  39.967  34.594   1.771
49277W        W14262  35.597   8.845   0.510
49278W        W14263   7.821   6.423  13.502
49279W        W14264  35.022  30.122   0.240
49280W        W14265  24.568  37.016   1.510
49281W        W14266   4.001   7.150   2.490
49282W        W14267  20.929  12.895   1.413
49283W        W14268  44.254   0.312   2.274
49284W        W14269  10.379   8.155   4.171
49285W        W14270  38.671  37.579   1.244
49286W        W14271  24.374  19.866   4.077
49287W        W14272  18.329   5.347   9.855
49288W        W14273  10.411  24.906   1.439
49289W        W14274  44.893  35.904   1.229
49290W        W14275  18.849   2.592  11.101
49291W        W14276  12.367   2.025   1.937
49292W        W14277  35.579  42.612   2.328
49293W        W14278   1.171  26.829   4.206
49294W        W14279  17.802   3.533   4.257
49295W        W14280   9.298  20.332  14.454
49296W        W14281  28.818  42.696   5.009
49297W        W14282  21.459   8.914  11.517
49298W        W14283  31.651  30.650  14.305
49299W        W14284  38.935   8.552   1.312
49300W        W14285   1.011  23.803  12.482
49301W        W14286  36.884  30.109   0.240
49302W        W14287   9.225  22.176   4.638
49303W        W14288  17.340  35.909  14.295
49304W        W14289   2.940  12.238   2.429
49305W        W14290   4.659  21.181  11.716
49306W        W14291  40.763  40.719  11.612
49307W        W14292   9.303   0.007   1.368
49308W        W14293  39.333  42.572  10.946
49309W        W14294  14.254  43.708  14.020
49310W        W14295  14.070  20.728  11.149
49311W        W14296  44.951  32.429   4.393
49312W        W14297  12.137  43.511   1.916
49313W        W14298  25.650  36.906   4.648
49314W        W14299  39.812  13.703   2.768
49315W        W14300  23.224  33.130   2.666
49316W        W14301  38.797  24.047  13.459
49317W        W14302  11.021   7.376  12.924
49318W        W14303  23.589  14.909  12.839
49319W        W14304  11.746   4.636   4.505
49320W        W14305  28.625  29.862   3.183
49321W        W14306   3.037  30.262   2.716
49322W        W14307  44.661  16.044  13.938
49323W        W14308   6.428   9.207  14.524
49324W        W14309  35.557  36.156   2.170
49325W        W14310  13.731   0.858   1.334
49326W        W14311   0.984  20.703  12.339
49327W        W14312  38.727  27.266  13.572
49328W        W14313  43.786  34.537  14.987
49329W        W14314   6.317  44.415   1.746
49330W        W14315  22.931  31.972  13.112
49331W        W14316  16.075  35.022   4.156
49332W        W14317   9.235  36.714   1.773
49333W        W14318  32.443  20.799  12.216
49334W        W14319  11.805  44.966  11.668
49335W        W14320   4.468  35.899   4.181
49336W        W14321  18.766  35.542   1.834
49337W        W14322  19.023  39.955   1.383
49338W        W14323   4.254  37.812   4.497
49339W        W14324   2.667   7.251  13.010
49340W        W14325  43.211   3.383  10.645
49341W        W14326   7.905  21.255   4.150
49342W        W14327  38.936   4.688   2.893
49343W        W14328  21.511  41.088   3.137
49344W        W14329  44.543  13.287   1.394
49345W        W14330   3.848   2.453  13.968
49346W        W14331  16.632  37.402   3.379
49347W        W14332  42.915  27.619   3.974
49348W        W14333  20.524  34.839   1.029
49349W        W14334  43.724  34.928   4.604
49350W        W14335   5.214  26.768  13.864
49351W        W14336   0.730   6.693  11.727
49352W        W14337  35.609  20.811   4.313
49353W        W14338  36.596  30.699  10.958
49354W        W14339  27.212  19.053   1.920
49355W        W14340  16.085  36.509   4.538
49356W        W14341  20.203  37.010  14.711
49357W        W14342  38.370  22.555  10.763
49358W        W14343  19.738   7.915   3.223
49359W        W14344  30.663  27.408   0.047
49360W        W14345   6.320  19.042   2.506
49361W        W14346  30.211   9.413   2.829
49362W        W14347  22.372   8.246   3.402
49363W        W14348  24.183  21.432  10.732
49364W        W14349   1.271  23.111  10.909
49365W        W14350  26.120  11.550  14.239
49366W        W14351  24.058  34.715   1.648
49367W        W14352  36.524  34.402  14.358
49368W        W14353  12.802   4.939   1.591
49369W        W14354  12.391  28.743  14.335
49370W        W14355  43.210   1.873   1.302
49371W        W14356  34.515   2.896  13.342
49372W        W14357  43.393  36.580  10.639
49373W        W14358   9.627   6.965  12.972
49374W        W14359  23.046  31.985   0.467
49375W        W14360  34.321   4.765   1.539
49376W        W14361  16.822  43.800   3.299
49377W        W14362  22.772  16.789   0.792
49378W        W14363  23.915  26.923  10.729
49379W        W14364  10.239  27.552  12.920
49380W        W14365  37.584  15.104   0.358
49381W        W14366   7.732  20.616  12.928
49382W        W14367   6.101  26.616   3.920
49383W        W14368   2.763  32.623   1.491
49384W        W14369  11.178   8.346   1.620
49385W        W14370   0.858  24.199   0.011
49386W        W14371  31.137  19.995   3.862
49387W        W14372  21.717  35.965  12.977
49388W        W14373  39.960  17.404   2.187
49389W        W14374  23.515  24.556  11.578
49390W        W14375  20.969  31.630  12.074
49391W        W14376  24.240  33.988   1.444
49392W        W14377  31.144  12.163   3.156
49393W        W14378  24.898  28.511  12.609
49394W        W14379  29.718  12.526  12.523
49395W        W14380   3.497  18.075  13.356
49396W        W14381  24.198   2.883   0.785
49397W        W14382  30.542  44.051  10.037
49398W        W14383   3.428  37.502   2.265
49399W        W14384  31.525   7.518   2.797
49400W        W14385  34.147  29.118   1.850
49401W        W14386  11.263  12.566   3.343
49402W        W14387   9.134  17.363   3.549
49403W        W14388  10.165  37.051   4.022
49404W        W14389  30.821  19.349  10.735
49405W        W14390  12.636  14.877   1.889
49406W        W14391  21.689  11.741  11.594
49407W        W14392  29.917  13.179   0.610
49408W        W14393  37.052  23.996   1.054
49409W        W14394   8.916  25.931   2.291
49410W        W14395  32.897  44.620  11.157
49411W        W14396  19.298  25.118   3.904
49412W        W14397  39.917  10.761   4.617
49413W        W14398  39.874  12.004  13.338
49414W        W14399  40.296  33.583   4.030
49415W        W14400  16.736  23.775  11.516
49416W        W14401  32.098  43.709  11.518
49417W        W14402  23.943  43.333  10.755
49418W        W14403  14.600  26.094  14.358
49419W        W14404   6.216  15.146  10.580
49420W        W14405   4.187  22.022  11.442
49421W        W14406   2.607  36.936   4.281
49422W        W14407  29.472  35.128  14.376
49423W        W14408   5.909  20.643   1.430
49424W        W14409  36.770   8.660   1.775
49425W        W14410  33.758  30.429   3.383
49426W        W14411  26.604  22.393   3.599
49427W        W14412  37.060  16.139   3.172
49428W        W14413   3.951   1.778  12.129
49429W        W14414  20.688  37.062  14.508
49430W        W14415  17.492   2.380  11.543
49431W        W14416  22.111  21.122  12.897
49432W        W14417  30.892  33.627  12.008
49433W        W14418  13.505  29.579   3.753
49434W        W14419   2.868  37.707  14.907
49435W        W14420   1.299  14.542   1.699
49436W        W14421  26.441  40.483  10.612
49437W        W14422  38.835   1.796  12.558
49438W        W14423  38.997  13.240   3.830
49439W        W14424  43.187  29.714  12.947
49440W        W14425  13.881  37.140  13.457
49441W        W14426  42.383  40.251  13.042
49442W        W14427  37.559  30.636   2.916
49443W        W14428  27.861  25.077  11.075
49444W        W14429   7.321  33.313   3.298
49445W        W14430  22.726  44.415   1.228
49446W        W14431  26.075  36.306  13.009
49447W        W14432   1.244  26.998  13.478
49448W        W14433  19.185   8.831   4.570
49449W        W14434  13.654  39.286  10.888
49450W        W14435  10.506  10.088   4.159
49451W        W14436  44.014  35.316   1.968
49452W        W14437  38.056  32.086   0.425
49453W        W14438   3.771  39.513   3.095
49454W        W14439  16.301  17.170   0.335
49455W        W14440   4.915  24.307   2.837
49456W        W14441  31.935  44.681   3.523
49457W        W14442   0.999   0.684  12.866
49458W        W14443  36.874   0.926  14.727
49459W        W14444  30.369  23.913  13.778
49460W        W14445  20.692  36.645  11.158
49461W        W14446  30.357   9.279   2.346
49462W        W14447  24.766   4.168  14.458
49463W        W14448  42.430   3.336  14.788
49464W        W14449  27.091  23.014   1.746
49465W        W14450  32.494  24.810  13.938
49466W        W14451  20.682  11.843  13.746
49467W        W14452  35.930  24.924  11.646
49468W        W14453  31.117   2.356   4.175
49469W        W14454   7.261  26.668  14.653
49470W        W14455   6.648  21.215   1.715
49471W        W14456  24.941  14.719   0.340
49472W        W14457  36.936   0.051   1.536
49473W        W14458  15.721   9.664  13.447
49474W        W14459  10.273  13.446  10.484
49475W        W14460  43.750  35.010   2.304
49476W        W14461  43.732  14.828   2.590
49477W        W14462  34.358  28.586   1.777
49478W        W14463  19.123  43.769  13.786
49479W        W14464  14.583  24.468   4.310
49480W        W14465  26.720  20.079   2.630
49481W        W14466  10.372  35.089  14.888
49482W        W14467  29.164  31.586   1.342
49483W        W14468  24.416  43.838   0.885
49484W        W14469   1.490  23.202  12.004
49485W        W14470  28.640  12.049   2.896
49486W        W14471  10.414  16.875  14.882
49487W        W14472   3.672  12.846   4.511
49488W        W14473  17.092  41.273   4.529
49489W        W14474  14.816  25.018   1.922
49490W        W14475  11.494   2.951  11.966
49491W        W14476  25.059  21.187   1.731
49492W        W14477  42.055  39.412   2.633
49493W        W14478  30.135  31.934  14.965
49494W        W14479  38.083  12.289   3.351
49495W        W14480   3.007  44.147   2.341
49496W        W14481   3.832  37.992  11.032
49497W        W14482  31.968  33.883  12.672
49498W        W14483  39.530   8.722  14.785
49499W        W14484  23.818  42.837   9.835
49500W        W14485  31.396  24.019  10.464
49501W        W14486  10.355  12.635  14.303
49502W        W14487   6.415  21.075  14.770
49503W        W14488  41.438  33.460  14.761
49504W        W14489  39.035  44.501  12.201
49505W        W14490  35.444  15.356   2.193
49506W        W14491   6.652   6.719   2.408
49507W        W14492   3.745  36.929   0.912
49508W        W14493  28.979   4.313   3.699
49509W        W14494  23.337  14.044  13.278
49510W        W14495  42.820  10.367  13.498
49511W        W14496  12.390  17.329  14.001
49512W        W14497  22.618  33.546   1.480
49513W        W14498  26.007   7.640  13.481
49514W        W14499   2.990  28.929  11.925
49515W        W14500  35.739  11.215  14.463
49516W        W14501  17.833  10.065   2.960
49517W        W14502  36.702  27.110  11.863
49518W        W14503  16.013  32.563   2.792
49519W        W14504  21.261  30.207   1.323
49520W        W14505  27.488  23.110  13.985
49521W        W14506   2.439  14.452   2.781
49522W        W14507   1.090   3.323  14.561
49523W        W14508   0.620  14.858  13.340
49524W        W14509  38.820  14.286   1.312
49525W        W14510  12.799  34.579  12.571
49526W        W14511   2.779  35.523   1.433
49527W        W14512  40.981  40.069  11.674
49528W        W14513  17.552   3.123   0.832
49529W        W14514  13.755   5.824   1.807
49530W        W14515  36.822  35.143   3.727
49531W        W14516  21.687  14.419  10.909
49532W        W14517   6.092  19.425   2.762
49533W        W14518   9.921  16.053   1.959
49534W        W14519  40.929  28.781   3.163
49535W        W14520  11.300  44.316   4.689
49536W        W14521  26.973  35.871   3.238
49537W        W14522   4.473  12.112  14.926
49538W        W14523  35.806  19.531   1.633
49539W        W14524  35.322  19.017  14.426
49540W        W14525   1.305  44.110   3.643
49541W        W14526   5.613  40.573  12.237
49542W        W14527   3.245  29.195   0.291
49543W        W14528   3.413  39.083   2.380
49544W        W14529  22.256  44.522  12.172
49545W        W14530  29.550  42.649   2.774
49546W        W14531  38.340  38.378   2.216
49547W        W14532  30.608  17.269   0.345
49548W        W14533  38.457  22.186   4.223
49549W        W14534  38.849   1.272   4.322
49550W        W14535   7.776  35.317   3.243
49551W        W14536  29.149   5.855  11.324
49552W        W14537  39.329  22.504   1.634
49553W        W14538  22.211  24.100  12.417
49554W        W14539  32.987  17.096   1.974
49555W        W14540  27.973  27.540   1.450
49556W        W14541   5.423  19.688   4.448
49557W        W14542  26.073  25.261   0.383
49558W        W14543   0.430   8.383   3.681
49559W        W14544  18.801  36.309  12.821
49560W        W14545   2.535  20.317  11.767
49561W        W14546   1.376   4.454  10.730
49562W        W14547   6.969  43.427   3.295
49563W        W14548  26.110  22.567   3.708
49564W        W14549  13.443  44.055   0.456
49565W        W14550  16.626   1.507  12.079
49566W        W14551  41.112   6.290   1.339
49567W        W14552   0.462  36.036  11.573
49568W        W14553   6.933  25.760   4.547
49569W        W14554  11.535  33.320  11.284
49570W        W14555  29.727  11.374   1.273
49571W        W14556  24.814  44.466  11.512
49572W        W14557   5.880  13.248   0.515
49573W        W14558  23.560  16.658   4.090
49574W        W14559  10.353   7.218   1.781
49575W        W14560  16.234   3.740  13.285
49576W        W14561  44.878  13.267   3.108
49577W        W14562  42.813  14.809  12.071
49578W        W14563   7.305  22.652   4.096
49579W        W14564   2.397  34.508  12.741
49580W        W14565  44.566   9.828  14.899
49581W        W14566   7.852  38.756  14.238
49582W        W14567  15.546  17.101   1.872
49583W        W14568  19.922   8.703  10.066
49584W        W14569  35.596  12.346   4.102
49585W        W14570   3.258  23.684  14.759
49586W        W14571  42.061  24.142   3.581
49587W        W14572  35.370  40.402  14.775
49588W        W14573  40.541  41.049   1.896
49589W        W14574  28.406  19.329   1.266
49590W        W14575  15.793  14.632   0.011
49591W        W14576  14.787  19.249  13.058
49592W        W14577  38.889   2.023  11.707
49593W        W14578  28.634   5.910  13.582
49594W        W14579  26.028  29.907   4.026
49595W        W14580  15.421  16.565  12.400
49596W        W14581  34.502  22.607   4.244
49597W        W14582  21.012  11.232   0.607
49598W        W14583  39.101  20.337   0.490
49599W        W14584  25.440  44.595  14.438
49600W        W14585  18.766   4.519   1.635
49601W        W14586  43.705   4.732   1.900
49602W        W14587   0.877  22.469   0.971
49603W        W14588  44.666  20.609  10.708
49604W        W14589   2.391   8.054  13.343
49605W        W14590  35.198  40.877  13.924
49606W        W14591   4.415  20.204   2.185
49607W        W14592  20.738   0.857   1.718
49608W        W14593   4.490   3.404  10.646
49609W        W14594   3.420  25.504  14.378
49610W        W14595  38.083  28.161   1.936
49611W        W14596   7.700  27.821  10.447
49612W        W14597  12.409  20.538   0.260
49613W        W14598  35.347   0.289   4.704
49614W        W14599  26.261  31.650  11.223
49615W        W14600  44.186  32.825   1.202
49616W        W14601   3.259   0.938   4.611
49617W        W14602  35.759  16.254  11.166
49618W        W14603  41.764  11.138  12.412
49619W        W14604  21.520  19.595  13.952
49620W        W14605   3.421  32.549   0.320
49621W        W14606  10.813   3.210  14.443
49622W        W14607  13.442   2.280  11.022
49623W        W14608  27.050  30.560  12.156
49624W        W14609  29.735  19.173   4.689
49625W        W14610   1.367  36.206   0.412
49626W        W14611  39.277  36.859   0.398
49627W        W14612  15.765  27.623  14.500
49628W        W14613  37.118   4.389   0.730
49629W        W14614   0.274  16.313   3.159
49630W        W14615  10.450  13.646   0.400
49631W        W14616  32.051  22.569   3.856
49632W        W14617   4.411  15.590  14.509
49633W        W14618  36.368  41.833   3.853
49634W        W14619  20.204   8.962   0.792
49635W        W14620   6.750   1.556  12.533
49636W        W14621  17.738  36.332   1.197
49637W        W14622   7.392  14.687   3.536
49638W        W14623  13.177  18.954  12.010
49639W        W14624  31.505  13.580  14.992
49640W        W14625  29.809  28.530  11.165
49641W        W14626  12.186  33.639   1.452
49642W        W14627  28.020   2.515  12.993
49643W        W14628  10.261   9.806   0.757
49644W        W14629  43.499  35.795   0.378
49645W        W14630  15.113  33.450  11.555
49646W        W14631  30.182   4.037  12.050
49647W        W14632  20.529  18.665  14.538
49648W        W14633   4.795  16.543   1.461
49649W        W14634   9.620  36.113   3.604
49650W        W14635  41.809  12.141   1.576
49651W        W14636  20.046  27.459   2.324
49652W        W14637  10.196  11.216  14.912
49653W        W14638  13.828  25.212  14.132
49654W        W14639  20.344  33.508  14.998
49655W        W14640  40.826  22.137  11.818
49656W        W14641   0.402  42.230  14.977
49657W        W14642   2.975  13.555  11.996
49658W        W14643  12.751  41.755  12.493
49659W        W14644  43.818  42.220  12.371
49660W        W14645  33.658  34.908  14.776
49661W        W14646  34.475  10.753   1.874
49662W        W14647  16.483  35.846  12.131
49663W        W14648   3.041  29.639  13.412
49664W        W14649  37.780  10.798  13.773
49665W        W14650  44.521  24.941  14.963
49666W        W14651   6.149  12.798   4.622
49667W        W14652  13.644  27.652  13.822
49668W        W14653  35.563  44.258  14.590
49669W        W14654  22.219  32.984  13.695
49670W        W14655  19.613  16.176  13.104
49671W        W14656  23.162  17.684  12.972
49672W        W14657  23.957   1.828  13.493
49673W        W14658  43.748   0.478   1.790
49674W        W14659  40.540  11.729   4.930
49675W        W14660  25.921  36.482  11.612
49676W        W14661   1.770  42.043  12.408
49677W        W14662  42.001   1.318  11.648
49678W        W14663  28.714  28.535  11.696
49679W        W14664  25.201  19.950   2.680
49680W        W14665  31.276  36.479  14.840
49681W        W14666  39.978  44.396   1.690
49682W        W14667  20.043  36.062  11.107
49683W        W14668   9.666  29.608  11.391
49684W        W14669   3.769   3.382   4.579
49685W        W14670  19.508   5.390   2.223
49686W        W14671  20.550  18.241   4.534
49687W        W14672  42.992  31.490  13.821
49688W        W14673  28.619  28.180   1.172
49689W        W14674  16.808  34.866  12.360
49690W        W14675  14.344  17.509   3.634
49691W        W14676  17.879  25.962   0.300
49692W        W14677  22.539  38.247   1.238
49693W        W14678  42.017  44.307   4.233
49694W        W14679  29.478  39.952   0.357
49695W        W14680  20.835  42.102  11.055
49696W        W14681  24.977  29.053  10.617
49697W        W14682  19.074   0.463  12.464
49698W        W14683  15.604  10.793  12.064
49699W        W14684  44.214  40.857   4.073
49700W        W14685   1.741  44.932   0.783
49701W        W14686   0.884  34.140   1.176
49702W        W14687   0.509  35.176  13.627
49703W        W14688  38.554  37.782  13.829
49704W        W14689  10.630  27.193   2.737
49705W        W14690   7.867  18.470   2.852
49706W        W14691  23.552  21.232  11.209
49707W        W14692  30.672  13.159  12.387
49708W        W14693   8.344  10.802   4.932
49709W        W14694  41.382   5.454   2.752
49710W        W14695   5.283  44.197  14.098
49711W        W14696   1.064  33.427   0.367
49712W        W14697   7.588  37.361   1.407
49713W        W14698  22.151  15.535   3.265
49714W        W14699   1.237   7.246   0.785
49715W        W14700  25.477   7.733   1.356
49716W        W14701  22.719  18.700   4.101
49717W        W14702  21.256  38.090  13.343
49718W        W14703  34.385  25.081   2.227
49719W        W14704  18.044  15.640   3.177
49720W        W14705  11.096   5.752  14.336
49721W        W14706  14.698  10.700  11.202
49722W        W14707  34.501  38.576   3.354
49723W        W14708  17.717  28.975  11.044
49724W        W14709  17.912   1.444   1.652
49725W        W14710  26.160  38.946   4.100
49726W        W14711  32.480  11.473  13.080
49727W        W14712  43.320  38.549   2.172
49728W        W14713  21.660   5.440   4.581
49729W        W14714   1.423  13.248  10.841
49730W        W14715  10.110  44.298   1.598
49731W        W14716  11.256  30.976  11.600
49732W        W14717  41.968  36.933  12.368
49733W        W14718  24.007  23.727  12.580
49734W        W14719   0.362  33.048  12.090
49735W        W14720  23.669  20.343   0.956
49736W        W14721  18.276  42.039   3.190
49737W        W14722   3.901  27.615   4.469
49738W        W14723   4.312  25.646  13.894
49739W        W14724  13.408  35.475   0.831
49740W        W14725  14.660   3.355  11.098
49741W        W14726  35.627  41.676   3.356
49742W        W14727  23.045  20.210   1.422
49743W        W14728  32.323   5.756  11.564
49744W        W14729   3.299  43.762  14.754
49745W        W14730  35.589  33.219   3.300
49746W        W14731  30.525   8.429  14.240
49747W        W14732  21.701  35.065   2.880
49748W        W14733  30.023  40.070  11.092
49749W        W14734  13.325  18.225   2.184
49750W        W14735  42.912  40.789   1.775
49751W        W14736   4.572  24.237  11.216
49752W        W14737  38.128  35.560  12.050
49753W        W14738  23.478  38.913  14.557
49754W        W14739  17.200  25.407   1.739
49755W        W14740  34.603  20.264   1.768
49756W        W14741  15.073  17.796   2.679
49757W        W14742  13.634  37.938  14.027
49758W        W14743  18.133   4.139   1.222
49759W        W14744  15.891  13.925  12.903
49760W        W14745   7.125  13.878  11.572
49761W        W14746  26.029  23.700  10.621
49762W        W14747  22.623   4.069  12.973
49763W        W14748  35.084  23.651  13.427
49764W        W14749   8.101  14.821  13.450
49765W        W14750  26.437  44.217   0.484
49766W        W14751  42.969  36.052   9.666
49767W        W14752  28.455  35.941  11.961
49768W        W14753  32.276   9.524   4.992
49769W        W14754  21.455  35.497  12.941
49770W        W14755   8.793   1.270  12.438
49771W        W14756  30.210  31.117   4.132
49772W        W14757  26.962  24.031   0.237
49773W        W14758   2.622  44.616  13.341
49774W        W14759  41.843  24.003  13.030
49775W        W14760   2.917  15.995  12.854
49776W        W14761  38.156   9.670  14.923
49777W        W14762  43.437  11.426   1.104
49778W        W14763   5.705  12.912   3.790
49779W        W14764  41.050  12.384  13.908
49780W        W14765  22.684  16.019   0.453
49781W        W14766   6.923   2.512   1.401
49782W        W14767  25.169  18.623  11.581
49783W        W14768   5.353  18.131   4.015
49784W        W14769  17.310  32.944   2.899
49785W        W14770  42.437   0.355   1.772
49786W        W14771  36.567  32.213  10.047
49787W        W14772   7.159  40.276   1.241
49788W        W14773   5.507   0.786  11.242
49789W        W14774  24.105  18.035   4.156
49790W        W14775  13.662   7.345  14.252
49791W        W14776   9.840  42.304  12.610
49792W        W14777  12.453  39.140   4.032
49793W        W14778  40.361   4.393  13.885
49794W        W14779   9.506   7.232  14.969
49795W        W14780   4.626  24.772  14.520
49796W        W14781   2.881   6.479  12.424
49797W        W14782   3.727  15.763  13.327
49798W        W14783   6.312  18.425   0.703
49799W        W14784  32.521  39.760   3.805
49800W        W14785   8.659  38.425   1.318
49801W        W14786  15.189  40.533   1.190
49802W        W14787   7.823   3.844   3.389
49803W        W14788   7.267   0.227  14.532
49804W        W14789  29.466  43.535  13.793
49805W        W14790  22.310  18.066  14.716
49806W        W14791  39.516  34.112  14.120
49807W        W14792   6.139   9.800   2.194
49808W        W14793  43.939  40.318  13.858
49809W        W14794  25.611  21.127   2.936
49810W        W14795  19.297  10.771   4.356
49811W        W14796  13.738   1.386   4.036
49812W        W14797  25.583  44.435   3.643
49813W        W14798  34.605  41.263   1.867
49814W        W14799  32.449  34.430   4.114
49815W        W14800   5.937   0.856   2.445
49816W        W14801   0.717  10.012  10.271
49817W        W14802  13.773  38.765   0.528
49818W        W14803  29.928  35.690  13.516
49819W        W14804  25.675  22.288  12.909
49820W        W14805  11.825  15.398   4.734
49821W        W14806  19.556  32.199   0.299
49822W        W14807   6.662  26.978   2.943
49823W        W14808  24.736  18.538  13.952
49824W        W14809  25.002  14.115   2.191
49825W        W14810  38.565  22.052  13.327
49826W        W14811  39.331  13.529  13.793
49827W        W14812  39.579  16.776   2.742
49828W        W14813  36.204  35.366  13.563
49829W        W14814  23.003  40.450   4.427
49830W        W14815  11.464  28.773  12.466
49831W        W14816  39.378  39.667   5.067
49832W        W14817  40.079  42.884  13.747
49833W        W14818   9.892   2.485  13.447
49834W        W14819   8.151  37.846  11.593
49835W        W14820  36.930  13.342   0.035
49836W        W14821   6.528  20.037  12.536
49837W        W14822  32.855   1.318   3.341
49838W        W14823  36.330  31.062  10.685
49839W        W14824  22.633  41.192  14.231
49840W        W14825  38.797  20.511  11.645
49841W        W14826   3.103  16.917  14.925
49842W        W14827  38.962   6.611  10.656
49843W        W14828  31.631   6.776  13.342
49844W        W14829  35.205  13.699  12.359
49845W        W14830  22.534  39.952   3.876
49846W        W14831  34.061  25.617   2.330
49847W        W14832   1.299  10.137  13.319
49848W        W14833  44.168  15.826  11.679
49849W        W14834  27.189   9.388   0.362
49850W        W14835   5.856  18.757   0.702
49851W        W14836  26.677  42.993   2.822
49852W        W14837  35.213   2.251  11.663
49853W        W14838  27.427  28.477   1.931
49854W        W14839  20.155  39.603   3.376
49855W        W14840   4.281  33.611  12.989
49856W        W14841  22.964  13.305  13.921
49857W        W14842  38.836  17.336   4.664
49858W        W14843  33.629  42.772  13.320
49859W        W14844  43.806   7.456   2.869
49860W        W14845  18.055  37.934   4.466
49861W        W14846  40.801  25.305  14.417
49862W        W14847  39.568  12.824   2.817
49863W        W14848  21.684  43.255   1.806
49864W        W14849   8.886  36.401  10.410
49865W        W14850  12.784  44.581   2.267
49866W        W14851  17.319   4.447  14.746
49867W        W14852  40.177   0.945  13.277
49868W        W14853   2.762   0.929  12.071
49869W        W14854  44.414  41.830   3.717
49870W        W14855  24.316  44.476  10.817
49871W        W14856   2.229  25.245  12.005
49872W        W14857  25.130  27.877   5.184
49873W        W14858  28.933  12.883  13.482
49874W        W14859  36.486   2.491   4.713
49875W        W14860   6.717  38.310   3.354
49876W        W14861  44.551   9.436   4.111
49877W        W14862  14.180  35.815   2.227
49878W        W14863   5.010  19.570   2.218
49879W        W14864  37.565   7.852   1.389
49880W        W14865  19.483  31.020   1.360
49881W        W14866   8.298   1.642  11.027
49882W        W14867  24.767  20.786  10.871
49883W        W14868  36.591  24.595  13.070
49884W        W14869  24.054  11.767  12.673
49885W        W14870   8.599  16.632  13.395
49886W        W14871  18.355  14.423  12.156
49887W        W14872   1.914   8.283  13.142
49888W        W14873  21.272  13.912  12.836
49889W        W14874   1.932  44.036  13.520
49890W        W14875  30.079  44.651   0.289
49891W        W14876  37.967  33.915  11.439
49892W        W14877  28.209  33.909  11.471
49893W        W14878  17.718   6.305  12.644
49894W        W14879  21.302  11.702   0.371
49895W        W14880  22.768  23.016   4.692
49896W        W14881  41.048  43.949   3.821
49897W        W14882  16.300  13.786   0.521
49898W        W14883  28.604   3.894   2.833
49899W        W14884  36.503  27.816   3.689
49900W        W14885  25.065  16.804   4.722
49901W        W14886  30.151   4.852  12.435
49902W        W14887  40.646  18.498  12.533
49903W        W14888   2.312   8.094  11.685
49904W        W14889   6.949  34.186  13.326
49905W        W14890  17.259  42.977  10.077
49906W        W14891   9.882  41.754  10.972
49907W        W14892  27.570  19.656  11.751
49908W        W14893  29.054  12.949   1.595
49909W        W14894  35.724  41.476   1.071
49910W        W14895   4.827  27.931   3.421
49911W        W14896  40.223  17.907   2.800
49912W        W14897  12.958  28.457  10.283
49913W        W14898  42.740  36.498   1.647
49914W        W14899  32.072   4.564   4.500
49915W        W14900  34.032  35.660   3.319
49916W        W14901  37.607   7.863  14.922
49917W        W14902  11.181  40.582  12.879
49918W        W14903  35.645  17.163   4.212
49919W        W14904  40.547  40.477   0.502
49920W        W14905  15.789  42.276   3.170
49921W        W14906  11.710  34.863  12.030
49922W        W14907  43.998  18.967  12.618
49923W        W14908  15.566  22.989   0.676
49924W        W14909  10.659  34.506   4.685
49925W        W14910   9.785  38.848   0.343
49926W        W14911  40.264   7.678   2.855
49927W        W14912   2.269  33.466   3.631
49928W        W14913  13.392  28.721   1.660
49929W        W14914  19.159   0.531  13.393
49930W        W14915  18.273  19.574   1.322
49931W        W14916  19.924   3.384   1.279
49932W        W14917  30.392  31.842   9.966
49933W        W14918  14.142  26.487   2.409
49934W        W14919  36.577   9.747  14.924
49935W        W14920  14.787  29.484  11.805
49936W        W14921  34.992   3.479   0.365
49937W        W14922  37.719  33.786  11.954
49938W        W14923   4.249  40.904  13.893
49939W        W14924  26.576  38.574  10.662
49940W        W14925   1.590  13.751   1.686
49941W        W14926  34.958  12.090   3.137
49942W        W14927  18.609  37.420  11.996
49943W        W14928  10.828  20.091  12.132
49944W        W14929  40.802   1.317   0.182
49945W        W14930  28.454  37.128  12.486
49946W        W14931  32.632  11.401   0.204
49947W        W14932  21.546  11.703  12.457
49948W        W14933  25.848  32.053  14.047
49949W        W14934   9.865   9.887   0.451
49950W        W14935  18.100  44.511   2.351
49951W        W14936  10.209  20.532  11.569
49952W        W14937  17.677  26.737   0.761
49953W        W14938   5.643  30.683   4.616
49954W        W14939   3.782  28.137  11.574
49955W        W14940   2.707  40.331   3.568
49956W        W14941  43.462  26.268   2.215
49957W        W14942  30.397  18.355  11.543
49958W        W14943  23.915  36.355  12.932
49959W        W14944  43.539  14.630   1.968
49960W        W14945  39.390  31.165  11.610
49961W        W14946   9.874   8.242  11.146
49962W        W14947  44.022   9.821   4.347
49963W        W14948  12.262  27.604   4.549
49964W        W14949   3.279   6.421  14.843
49965W        W14950   5.185  43.488  13.547
49966W        W14951  25.335  17.259  12.488
49967W        W14952  20.282   2.765   3.025
49968W        W14953  26.690  32.459   4.949
49969W        W14954  20.785  17.003   2.646
49970W        W14955  33.563  19.212   1.778
49971W        W14956  22.494  10.908  12.990
49972W        W14957  40.285  35.637  12.079
49973W        W14958  22.716  25.511  14.253
49974W        W14959  28.972  30.039   3.719
49975W        W14960  19.847  16.319   3.653
49976W        W14961  17.521  10.055  14.366
49977W        W14962  36.626  24.019   1.464
49978W        W14963  20.008  37.449  12.096
49979W        W14964  44.981   7.690  11.378
49980W        W14965   9.302  14.838  12.357
49981W        W14966  16.471  30.153  14.376
49982W        W14967  29.416  26.231   3.738
49983W        W14968   9.365   8.412   3.066
49984W        W14969  41.385  41.562  12.935
49985W        W14970  38.381  24.232   0.807
49986W        W14971  27.587  40.917   1.543
49987W        W14972  11.288  39.674  11.071
49988W        W14973  34.166  37.480  10.803
49989W        W14974  44.505   5.394   1.235
49990W        W14975  11.243  38.031  12.994
49991W        W14976   4.495  35.976  14.987
49992W        W14977  31.577  35.560  11.972
49993W        W14978  38.779  24.203   3.198
49994W        W14979   9.966   7.664  11.666
49995W        W14980   8.195   4.703   1.425
49996W        W14981  30.522  36.552  14.073
49997W        W14982  30.020  33.685   0.873
49998W        W14983  29.683   0.659   2.960
49999W        W14984  29.921  20.965  14.698
50000W        W14985  37.961   8.731   3.232
50001W        W14986   8.063  19.570  14.949
50002W        W14987  11.524   9.701   0.792
50003W        W14988  23.045  10.919  11.964
50004W        W14989  10.381  35.639  12.920
50005W        W14990  31.892   8.404   4.026
50006W        W14991   8.858  10.671  11.447
50007W        W14992  19.085   6.674  14.945
50008W        W14993  41.530  20.219   2.296
50009W        W14994  31.794  44.423  11.221
50010W        W14995  16.636  31.109  14.432
50011W        W14996   0.963  12.158   3.152
50012W        W14997  28.452  10.121  14.772
50013W        W14998  36.507  40.319   0.743
50014W        W14999  20.276  38.557   3.375
50015W        W15000  34.817  25.447  13.941
50016W        W15001  40.496   8.726   3.138
50017W        W15002  19.288   9.756  10.746
50018W        W15003  30.039   5.907   3.857
50019W        W15004  33.111  42.997   1.469
50020W        W15005  22.517  15.701   2.410
50021W        W15006  14.641  44.931  14.377
50022W        W15007   6.407  36.496   3.682
50023W        W15008  19.135  37.468  11.922
50024W        W15009  33.020  39.179  10.947
50025W        W15010  32.019   9.878  10.172
50026W        W15011  40.563  23.997   3.696
50027W        W15012  19.137   4.331  11.399
50028W        W15013  39.010  15.153   0.376
50029W        W15014  27.656  43.447   1.212
50030W        W15015   9.924  12.925  12.143
50031W        W15016  23.997  24.978   4.528
50032W        W15017  26.461  39.547  13.947
50033W        W15018   5.751   2.715   0.618
50034W        W15019  19.236  40.408   1.199
50035W        W15020  30.424  11.395  14.951
50036W        W15021  33.561   7.014   5.372
50037W        W15022  23.942  44.651  14.852
50038W        W15023  42.706   9.105   4.882
50039W        W15024   0.868  20.841  14.830
50040W        W15025   7.318   3.356   5.056
50041W        W15026  25.141  24.428  13.052
50042W        W15027  30.285  39.355  10.694
50043W        W15028  39.373  24.313   2.034
50044W        W15029   1.760  10.049   1.910
50045W        W15030  40.328   8.869  11.638
50046W        W15031  37.364  43.968  10.888
50047W        W15032  18.946  28.542  10.848
50048W        W15033  13.790  14.209   5.076
50049W        W15034  40.808  32.345  12.938
50050W        W15035  30.349  10.702   3.832
50051W        W15036   9.257  18.243  13.004
50052W        W15037  11.779   8.806  13.933
50053W        W15038   5.427  23.981   4.223
50054W        W15039  31.987  41.508  14.777
50055W        W15040  37.325   0.505  13.994
50056W        W15041  35.925  37.558   3.079
50057W        W15042  29.527  30.140  13.004
50058W        W15043   7.020  41.888  11.666
50059W        W15044  31.393  11.081  11.539
50060W        W15045   4.898  40.137   4.217
50061W        W15046  26.507  35.142  11.512
50062W        W15047  32.099  29.215  11.017
50063W        W15048   4.088  32.907   2.523
50064W        W15049  14.191  16.218   1.845
50065W        W15050  34.159  36.598  13.004
50066W        W15051  33.100   5.567  12.615
50067W        W15052   8.127   8.761  14.093
50068W        W15053   7.886  42.910   4.830
50069W        W15054  13.654  19.550  11.658
50070W        W15055  36.940  16.195   0.063
50071W        W15056  42.228   5.836   0.285
50072W        W15057  24.675   1.367   3.256
50073W        W15058  19.592  32.913  13.844
50074W        W15059  11.179  27.475   1.381
50075W        W15060   4.823  39.561  13.956
50076W        W15061  40.614  15.249   3.190
50077W        W15062   8.423   2.230   0.181
50078W        W15063   1.856  27.684  14.279
50079W        W15064   0.267   0.831  13.421
50080W        W15065  37.348  35.984  14.909
50081W        W15066   1.051  22.059  13.532
50082W        W15067  16.170  19.933   4.719
50083W        W15068  44.647  43.028  14.646
50084W        W15069  28.995  26.571   0.898
50085W        W15070   5.500   9.727   0.264
50086W        W15071  37.200  40.944  11.171
50087W        W15072  37.651  25.298  11.970
50088W        W15073  26.613  30.873  11.078
50089W        W15074   7.915   9.781  10.890
50090W        W15075  21.745  43.324  13.520
50091W        W15076   8.775  34.535  13.247
50092W        W15077   6.810   5.727  14.923
50093W        W15078  42.496  44.247   4.028
50094W        W15079  38.802  18.853  11.018
50095W        W15080  43.062  39.551   3.625
50096W        W15081  43.790  24.130   1.872
50097W        W15082   1.482  40.958   4.734
50098W        W15083  22.670  34.899   0.447
50099W        W15084  44.891  20.318  14.848
50100W        W15085  27.085   9.301   2.881
50101W        W15086   0.433   6.882  13.627
50102W        W15087   7.251  27.595   3.864
50103W        W15088  11.879  32.849   3.329
50104W        W15089  20.749   4.788   3.696
50105W        W15090  24.084  43.397   4.552
50106W        W15091  27.953   2.843  11.614
50107W        W15092  35.550  24.096  14.777
50108W        W15093  20.330  14.819   1.859
50109W        W15094   9.070  12.845  11.248
50110W        W15095  36.364  11.855  10.091
50111W        W15096  36.993   2.514  14.896
50112W        W15097  21.718  33.286   0.097
50113W        W15098  34.532   1.423  12.518
50114W        W15099  34.074  15.745   4.071
50115W        W15100  15.019  42.040   4.469
50116W        W15101  38.796  27.659   3.674
50117W        W15102   9.913  36.850   0.355
50118W        W15103  37.334  35.879   0.987
50119W        W15104   6.393  13.260  12.510
50120W        W15105   8.470  22.955  14.025
50121W        W15106  44.896  14.989   4.708
50122W        W15107   3.214  17.631  12.683
50123W        W15108  22.181   5.168  12.446
50124W        W15109  23.789  13.769  11.266
50125W        W15110  14.544   0.798  11.549
50126W        W15111   0.366  12.236  13.574
50127W        W15112  17.008  20.163  11.055
50128W        W15113  33.143   6.168  14.013
50129W        W15114  27.148  14.765  13.949
50130W        W15115  11.275  43.702  14.279
50131W        W15116  34.362  31.995   4.563
50132W        W15117  42.338  30.455   0.093
50133W        W15118  30.661  11.881  14.401
50134W        W15119  17.623  42.820  12.332
50135W        W15120  30.510  23.668  14.451
50136W        W15121  36.449  25.684   0.871
50137W        W15122  10.179  32.956   0.330
50138W        W15123  18.158  17.438  12.454
50139W        W15124  43.510  11.684  13.495
50140W        W15125  26.162  19.616  11.022
50141W        W15126  15.527  34.809   1.885
50142W        W15127  38.846  24.803   4.147
50143W        W15128  33.007  36.670  14.876
50144W        W15129   2.457  16.895   2.670
50145W        W15130  21.080  34.608   0.018
50146W        W15131  28.615   4.421   2.853
50147W        W15132  34.633  16.115  13.610
50148W        W15133  15.977  12.104  14.928
50149W        W15134  38.614  40.481   0.055
50150W        W15135  44.289  42.327   3.740
50151W        W15136  39.305  30.023   0.521
50152W        W15137   6.439  37.808   4.249
50153W        W15138   4.825  21.713   3.952
50154W        W15139  16.110  19.041   0.417
50155W        W15140  19.760  14.975  14.812
50156W        W15141  20.531  14.085  12.068
50157W        W15142  19.687  18.023   4.837
50158W        W15143   9.907  11.733  11.195
50159W        W15144  18.105  20.150   0.815
50160W        W15145  37.948  40.716   1.254
50161W        W15146  30.936  14.371   2.805
50162W        W15147  37.942  44.777   1.951
50163W        W15148  22.142  14.273  10.687
50164W        W15149  31.792   4.977  14.837
50165W        W15150  25.652   1.754  13.957
50166W        W15151  36.476  16.249  14.296
50167W        W15152  17.765  38.800   4.173
50168W        W15153  29.631  10.332   1.345
50169W        W15154  43.785  23.593   4.666
50170W        W15155  31.601   0.167   4.555
50171W        W15156  39.305  14.585  14.897
50172W        W15157  21.594  34.587   1.875
50173W        W15158  38.814  11.728   1.955
50174W        W15159  22.553  38.071   1.743
50175W        W15160  39.552  36.985   1.921
50176W        W15161  27.398  40.266   3.348
50177W        W15162  33.532   7.375  13.751
50178W        W15163  21.563  15.284  11.105
50179W        W15164  42.519  39.374   2.891
50180W        W15165  20.456  10.669  12.120
50181W        W15166  10.841   1.302  12.825
50182W        W15167  11.446  26.541  14.956
50183W        W15168  34.890  44.963   3.463
50184W        W15169   8.133   2.727  14.021
50185W        W15170  43.399   2.203   2.016
50186W        W15171  41.484   8.195  14.329
50187W        W15172  39.379   5.137   2.141
50188W        W15173   7.463  32.085   4.548
50189W        W15174   9.804  35.165  14.237
50190W        W15175  14.084  39.080   2.878
50191W        W15176  14.228  30.476  12.423
50192W        W15177  33.950  11.702   4.253
50193W        W15178  38.835  36.933   4.057
50194W        W15179   4.382  11.823   4.888
50195W        W15180  30.917  15.140  10.469
50196W        W15181  28.419  33.506   0.794
50197W        W15182  28.949  39.925   0.400
50198W        W15183  20.113  25.157  14.286
50199W        W15184  13.668  41.410   0.227
50200W        W15185  44.736   3.027   3.961
50201W        W15186  20.069  37.858  12.957
50202W        W15187  15.873  17.398   2.152
50203W        W15188   0.515   7.766   0.079
50204W        W15189  10.487  25.506   3.063
50205W        W15190  38.200  18.622   1.782
50206W        W15191   4.986  27.471   3.766
50207W        W15192  20.059  25.454   1.955
50208W        W15193   5.477  41.288   4.147
50209W        W15194  36.516  44.785   3.509
50210W        W15195  41.972  41.854  13.569
50211W        W15196  19.125  27.968   1.821
50212W        W15197   8.672  11.860  14.937
50213W        W15198  38.765  36.471  12.461
50214W        W15199  37.440  26.154  14.253
50215W        W15200  36.776  23.677   0.773
50216W        W15201   2.475  41.159  13.063
50217W        W15202  41.845  35.309   1.328
50218W        W15203   0.192   9.305   3.311
50219W        W15204  14.638  13.123   4.311
50220W        W15205  44.312   3.671   2.321
50221W        W15206  16.383  33.070  12.098
50222W        W15207  26.873  43.387   0.760
50223W        W15208   4.885  12.720   0.894
50224W        W15209  17.692  11.660   2.910
50225W        W15210  43.881  19.826  12.781
50226W        W15211  37.809  20.476  11.664
50227W        W15212  26.247   0.694   3.506
50228W        W15213  36.977  17.509   4.452
50229W        W15214  30.643  43.188  12.021
50230W        W15215  26.399   0.215  13.834
50231W        W15216  20.281  33.351   4.187
50232W        W15217  29.878  37.847   3.840
50233W        W15218  37.453  20.978  11.467
50234W        W15219  32.716  44.800  14.831
50235W        W15220   5.834  22.434  12.798
50236W        W15221  12.674  44.769  12.454
50237W        W15222  26.240   4.938  13.379
50238W        W15223  31.989  10.722  10.605
50239W        W15224  10.655   1.778   1.600
50240W        W15225  36.647  16.641   4.392
50241W        W15226   6.737   6.828  14.355
50242W        W15227  38.897  32.579  13.964
50243W        W15228  31.899  42.362   0.851
50244W        W15229  30.399  10.303  14.047
50245W        W15230  35.955  29.024  14.862
50246W        W15231  44.378  30.948   2.842
50247W        W15232   2.550   3.859   3.127
50248W        W15233  44.901  39.952   1.798
50249W        W15234  39.105  12.691  10.939
50250W        W15235  25.658   1.231  13.931
50251W        W15236  44.014  42.670   1.702
50252W        W15237   0.610   5.490  11.082
50253W        W15238  13.815   3.899  13.112
50254W        W15239  41.505  34.916   1.704
50255W        W15240  26.921  19.239   3.269
50256W        W15241  18.614   3.129   1.612
50257W        W15242  21.009   2.293  11.903
50258W        W15243  26.805   7.238  13.613
50259W        W15244  28.020  14.550   3.400
50260W        W15245  44.384  39.362  13.303
50261W        W15246  28.907   6.529   4.540
50262W        W15247  20.287   8.199   2.280
50263W        W15248  42.013   5.784   3.318
50264W        W15249  11.074  14.578   3.516
50265W        W15250  19.648  11.608   1.053
50266W        W15251  34.334  18.959  14.095
50267W        W15252  43.942   3.287   4.878
50268W        W15253   0.916  26.678   9.965
50269W        W15254   5.840  30.431   0.675
50270W        W15255   1.242  31.898   0.791
50271W        W15256   7.241  11.576  13.878
50272W        W15257   2.230  44.355   3.739
50273W        W15258  24.973  27.725   2.972
50274W        W15259  41.374  14.269  12.507
50275W        W15260  23.551  14.916   2.777
50276W        W15261  20.272  13.034  11.868
50277W        W15262   3.982  33.196  11.909
50278W        W15263  44.012   6.161   3.241
50279W        W15264  34.257  36.830   2.630
50280W        W15265  20.296  28.575   0.540
50281W        W15266  15.654  32.229   3.683
50282W        W15267  39.482  17.361  10.644
50283W        W15268   1.598  44.417  13.568
50284W        W15269  35.331   6.917  14.512
50285W        W15270  20.843  37.455   1.453
50286W        W15271  32.933  42.903  14.509
50287W        W15272  27.087  16.491   4.330
50288W        W15273  31.912  20.557   3.636
50289W        W15274  12.536   7.337  11.948
50290W        W15275  41.968  17.780   3.339
50291W        W15276  15.350   4.498  11.494
50292W        W15277  13.071   3.789   2.205
50293W        W15278   1.778  21.348  13.782
50294W        W15279  35.440  31.844  12.102
50295W        W15280  42.387  11.592   0.966
50296W        W15281  32.391  34.003   1.183
50297W        W15282  29.556  24.696  14.373
50298W        W15283  23.005  14.880   0.498
50299W        W15284  30.383   7.602  13.987
50300W        W15285  15.837  28.958  10.822
50301W        W15286  37.297  42.978   3.716
50302W        W15287  29.163  43.651   4.822
50303W        W15288   8.746   4.338  10.732
50304W        W15289  17.329  18.327  14.196
50305W        W15290  30.480   1.664  12.502
50306W        W15291  38.952  13.875  14.761
50307W        W15292  31.358   6.138   1.601
50308W        W15293  28.557  21.986   4.628
50309W        W15294   5.318  39.825   4.176
50310W        W15295  11.485  12.959   0.840
50311W        W15296  13.534  44.980   2.842
50312W        W15297  23.172  39.241  13.811
50313W        W15298   6.821  10.008   2.650
50314W        W15299   6.741  18.878  13.706
50315W        W15300  10.817   5.085  14.939
50316W        W15301  23.219  27.644   1.746
50317W        W15302  20.173   9.445   1.472
50318W        W15303  37.532  30.436  10.460
50319W        W15304  11.277  42.738  11.010
50320W        W15305  35.478   8.087  12.582
50321W        W15306  28.175  15.338  14.416
50322W        W15307   9.827  13.829  14.251
50323W        W15308  32.156   2.251   4.267
50324W        W15309  30.029  13.146   4.138
50325W        W15310  15.407  40.075   1.327
50326W        W15311  40.497  37.018  10.736
50327W        W15312  40.833   7.981  13.300
50328W        W15313  21.728  27.162   1.815
50329W        W15314  40.273   9.151   3.369
50330W        W15315  39.595  38.498   1.216
50331W        W15316   4.584  16.181  13.816
50332W        W15317  13.513  42.476   3.803
50333W        W15318   0.521  21.477   0.955
50334W        W15319  40.949  27.192  11.006
50335W        W15320  44.807  26.844   2.911
50336W        W15321   6.198  40.537   1.329
50337W        W15322   3.689  17.196   3.219
50338W        W15323  41.524  37.416   2.182
50339W        W15324   0.704  43.096   2.842
50340W        W15325  44.986  33.068   3.768
50341W        W15326  23.038  10.345   0.877
50342W        W15327  31.895   1.736   3.645
50343W        W15328  35.543  30.189   3.465
50344W        W15329  39.429  28.550   3.875
50345W        W15330  42.130   3.477   4.159
50346W        W15331  32.516  20.462   0.713
50347W        W15332   4.718   0.501   0.361
50348W        W15333  36.752  40.524   3.726
50349W        W15334  43.460  25.750   2.169
50350W        W15335  26.600  30.830  12.252
50351W        W15336   1.869  23.959   3.242
50352W        W15337   2.169  27.650  12.881
50353W        W15338   0.040  41.910  13.325
50354W        W15339  40.737   5.864   0.406
50355W        W15340  28.177  16.939   0.283
50356W        W15341  16.180  13.260  14.593
50357W        W15342  44.353  41.239  10.146
50358W        W15343  14.997  27.399   1.420
50359W        W15344  21.450   4.726   4.227
50360W        W15345   5.442  29.715   3.168
50361W        W15346   5.211  26.048   3.306
50362W        W15347  26.014  33.091  14.869
50363W        W15348  17.705  33.502  14.863
50364W        W15349  14.210  37.037   0.260
50365W        W15350  24.030  39.446  14.051
50366W        W15351   5.034  31.863   4.111
50367W        W15352  36.435  37.020   4.867
50368W        W15353   1.481   0.557   4.367
50369W        W15354  21.202  43.496   1.844
50370W        W15355  35.870  14.041   1.241
50371W        W15356  19.545  34.481  12.495
50372W        W15357  32.234   7.929   4.569
50373W        W15358  36.831   5.786   1.831
50374W        W15359  20.006  26.761  13.211
50375W        W15360   6.240  14.686   4.109
50376W        W15361  27.572  18.636  11.567
50377W        W15362  12.677  29.750  12.646
50378W        W15363  11.707  28.390  10.668
50379W        W15364   6.793  25.919  12.361
50380W        W15365   8.143  44.893  14.874
50381W        W15366  42.075  19.191   5.423
50382W        W15367  19.233  16.133   1.012
50383W        W15368   5.881  38.602   0.314
50384W        W15369  10.014  43.431  11.219
50385W        W15370  20.610  10.795  13.006
50386W        W15371  34.517   6.566   1.357
50387W        W15372   6.784  21.760  11.557
50388W        W15373  30.485   3.008   5.209
50389W        W15374  37.053  31.412  14.295
50390W        W15375   9.991   2.916  13.706
50391W        W15376   3.773  44.762  10.554
50392W        W15377  37.998  29.167   1.145
50393W        W15378  20.741  30.317  12.398
50394W        W15379  25.310  42.566   0.212
50395W        W15380  11.014  41.253   0.223
50396W        W15381  29.543  42.031   0.118
50397W        W15382   2.941   1.878  14.452
50398W        W15383  25.974   5.373  13.413
50399W        W15384  20.716  35.565   2.674
50400W        W15385  20.624  32.714   4.145
50401W        W15386  18.652  10.344   2.528
50402W        W15387  40.860  13.292   0.931
50403W        W15388   7.660  43.014   3.493
50404W        W15389  18.115  25.242   3.184
50405W        W15390  21.794  19.057  13.608
50406W        W15391  22.086  30.170   5.063
50407W        W15392  13.695  31.238   2.393
50408W        W15393  30.921   6.509   3.078
50409W        W15394  39.800   3.661   2.209
50410W        W15395  18.796   6.664   4.986
50411W        W15396   5.796  37.986  12.391
50412W        W15397  31.008   3.789  11.411
50413W        W15398  22.746   9.190   0.299
50414W        W15399  12.665  30.133   0.441
50415W        W15400  25.687  44.515   0.885
50416W        W15401  27.699  27.885  11.121
50417W        W15402  30.020  15.565  13.851
50418W        W15403  15.145  38.525  12.368
50419W        W15404  39.919  22.121   2.126
50420W        W15405  24.691  31.809  14.349
50421W        W15406  30.073  29.977   3.539
50422W        W15407  32.980   1.303  13.393
50423W        W15408   6.876  16.608  10.967
50424W        W15409  17.305  39.285  13.960
50425W        W15410  14.749   9.853   5.187
50426W        W15411   8.652  35.334   3.316
50427W        W15412  28.850  17.550   0.514
50428W        W15413  16.641  30.145   1.369
50429W        W15414  18.768  40.049   4.001
50430W        W15415  27.172  44.447   0.861
50431W        W15416  20.640  40.394  14.734
50432W        W15417  17.573   2.844   2.141
50433W        W15418  38.102  19.444   1.642
50434W        W15419  20.016   9.322  10.592
50435W        W15420  32.681  36.789  14.345
50436W        W15421  18.088  32.052  10.568
50437W        W15422  18.734   7.457   3.486
50438W        W15423  22.002  19.124   1.733
50439W        W15424   8.221  12.381  11.571
50440W        W15425  13.731  37.926   1.674
50441W        W15426   3.366  43.876  11.089
50442W        W15427  21.682  44.751   3.725
50443W        W15428  42.716  19.351   4.769
50444W        W15429  17.507  37.750  12.456
50445W        W15430  32.036  29.990  13.402
50446W        W15431  18.194   3.021   4.653
50447W        W15432  44.494  40.839  11.028
50448W        W15433  23.112  30.102   9.911
50449W        W15434  35.161  26.701  14.713
50450W        W15435  24.009  34.140  10.760
50451W        W15436  32.085  27.696   3.702
50452W        W15437  15.132  33.337  14.250
50453W        W15438  35.755  40.357   3.908
50454W        W15439  28.644  39.496  14.344
50455W        W15440  14.157  15.729   0.272
50456W        W15441   1.459  19.501   4.690
50457W        W15442  16.863  43.834  14.396
50458W        W15443  25.056  36.362   3.080
50459W        W15444   5.772  31.839   5.219
50460W        W15445  13.809   6.806   3.302
50461W        W15446  21.944  14.098   3.055
50462W        W15447  28.395   4.968  13.045
50463W        W15448  23.207  17.220   4.876
50464W        W15449  30.649  15.698   0.295
50465W        W15450  23.997  22.994  11.939
50466W        W15451  42.330   4.549  13.866
50467W        W15452  23.160  12.114   4.024
50468W        W15453  41.463  28.735   3.028
50469W        W15454  30.451  32.067   3.126
50470W        W15455  39.388   0.777   3.675
50471W        W15456   9.437  11.659  14.767
50472W        W15457  40.026  30.858   0.875
50473W        W15458   6.808   3.985  13.077
50474W        W15459  32.534  32.963  14.687
50475W        W15460  42.425  38.154   0.947
50476W        W15461  15.678  40.535  11.838
50477W        W15462   8.934   8.278   1.251
50478W        W15463   4.328  38.571   0.615
50479W        W15464   5.915   9.801  10.859
50480W        W15465   6.083   5.430   0.944
50481W        W15466  35.337  16.147  12.534
50482W        W15467  37.527  34.797  13.739
50483W        W15468  34.050  29.960   2.187
50484W        W15469  30.582  25.768   4.149
50485W        W15470   3.431   9.302  12.528
50486W        W15471  16.159  27.181   0.910
50487W        W15472  28.935  34.213   3.145
50488W        W15473  33.391  35.036  11.358
50489W        W15474  34.386   8.385   0.422
50490W        W15475  13.058  37.365   4.521
50491W        W15476  36.281  32.659   4.471
50492W        W15477  10.188  35.114   1.425
50493W        W15478  10.981  31.459  13.905
50494W        W15479  33.446  25.330  10.285
50495W        W15480  29.962  28.135   4.484
50496W        W15481  25.990   1.916   1.870
50497W        W15482  44.962  34.396   5.473
50498W        W15483  33.104  39.099  12.201
50499W        W15484  11.808  12.341  14.548
50500W        W15485  26.225   0.057   0.303
50501W        W15486   8.927  16.305  10.849
50502W        W15487  13.259  22.863   2.244
50503W        W15488  32.579  25.624  14.448
50504W        W15489  23.135   7.597  11.677
50505W        W15490  14.980  29.654   3.264
50506W        W15491  14.461   4.836   5.009
50507W        W15492  40.029   1.698  12.951
50508W        W15493  39.003  16.167   1.933
50509W        W15494  26.343   9.577   3.255
50510W        W15495  19.654  30.389   1.884
50511W        W15496  19.597  40.316   0.273
50512W        W15497   1.824  35.322  14.609
50513W        W15498  36.082   0.363  12.670
50514W        W15499   0.831   6.407  12.185
50515W        W15500  42.585  22.469  11.026
50516W        W15501   0.893  11.281  11.481
50517W        W15502  40.494  31.189  13.453
50518W        W15503  41.834   7.552   4.721
50519W        W15504  41.977   8.379   3.811
50520W        W15505  12.713  21.314   1.603
50521W        W15506  12.112   9.223  14.889
50522W        W15507   3.785  14.565   2.863
50523W        W15508  10.125  19.651   0.932
50524W        W15509  40.548  10.384   1.825
50525W        W15510  14.238  12.907   4.572
50526W        W15511  39.304  37.569   3.678
50527W        W15512  39.010   6.851   0.972
50528W        W15513  43.071   9.878  12.406
50529W        W15514  38.056   3.675  11.614
50530W        W15515  35.038  40.018   3.128
50531W        W15516  36.994  21.128   4.500
50532W        W15517  30.887  21.627   0.828
50533W        W15518   2.915   2.194  13.590
50534W        W15519  20.355   3.133  14.813
50535W        W15520   9.279  42.030   0.297
50536W        W15521  39.885  23.116   1.278
50537W        W15522  15.044  22.195  12.985
50538W        W15523  21.790  10.061  12.068
50539W        W15524  44.316  19.485   0.711
50540W        W15525  35.519  41.739  14.401
50541W        W15526  42.994  44.998  11.419
50542W        W15527  15.063  28.619  12.020
50543W        W15528  41.111  23.678  14.340
50544W        W15529  43.251  44.359   2.311
50545W        W15530  42.099  17.342   4.531
50546W        W15531  26.251  13.316  14.481
50547W        W15532  27.644   0.163  12.888
50548W        W15533  24.244  39.252   2.299
50549W        W15534  16.405   5.893  11.622
50550W        W15535   3.306  40.426  11.552
50551W        W15536  13.493   5.590  13.298
50552W        W15537  16.379   0.699   4.061
50553W        W15538  28.563  19.982  11.586
50554W        W15539   7.135  44.751  11.610
50555W        W15540  20.571  36.641   4.560
50556W        W15541  18.782   9.159  13.401
50557W        W15542  23.597   9.357  12.019
50558W        W15543   1.489  39.826  12.411
50559W        W15544  10.859  13.750  13.980
50560W        W15545  11.731  30.501  11.109
50561W        W15546  43.876  14.942  13.478
50562W        W15547  23.112  30.043   0.170
50563W        W15548  12.944  16.999   4.876
50564W        W15549  43.390  30.010  12.312
50565W        W15550   7.261   1.862  10.956
50566W        W15551  16.609  26.614  13.548
50567W        W15552  39.536  16.248  12.976
50568W        W15553  40.212  14.216  12.134
50569W        W15554   8.624  37.349   4.530
50570W        W15555  44.427  16.799  14.265
50571W        W15556   3.191   9.249  11.079
50572W        W15557  29.153  15.312   1.015
50573W        W15558  20.662   5.301  10.807
50574W        W15559  15.272  21.554   3.564
50575W        W15560  10.525   9.827   3.011
50576W        W15561   2.727   9.358  12.109
50577W        W15562  40.081   0.234  12.885
50578W        W15563  17.289   8.292  12.445
50579W        W15564  41.802  39.529   3.295
50580W        W15565  33.977   7.600   0.840
50581W        W15566  40.499  31.132   1.002
50582W        W15567  25.964  19.207  10.741
50583W        W15568  39.119  40.005  11.585
50584W        W15569  25.003  39.327   0.936
50585W        W15570  24.850   1.954  12.106
50586W        W15571  15.283  28.345   1.287
50587W        W15572  43.520  11.361   2.758
50588W        W15573  24.234   3.711   1.041
50589W        W15574  36.446  25.656   4.146
50590W        W15575  42.519  29.045   5.042
50591W        W15576  34.431  27.390   3.876
50592W        W15577  14.631  34.991  14.172
50593W        W15578   4.614  41.835   3.489
50594W        W15579  32.329  19.647  11.572
50595W        W15580  36.558  31.119   0.417
50596W        W15581  34.451   8.251   1.854
50597W        W15582  34.079   8.893   1.386
50598W        W15583   0.961  44.226  12.902
50599W        W15584  34.424  29.193  14.008
50600W        W15585  20.977  37.114  11.736
50601W        W15586  13.109  28.198   0.370
50602W        W15587   8.477  20.785   0.496
50603W        W15588  10.190  36.381   0.508
50604W        W15589   9.998  23.991  11.087
50605W        W15590  27.569   0.212   3.023
50606W        W15591  15.879  19.063  14.926
50607W        W15592  36.663  15.634   1.454
50608W        W15593   8.834  24.283  13.092
50609W        W15594  30.988   6.504  12.851
50610W        W15595  43.490   2.886  11.302
50611W        W15596  43.773  26.058   1.824
50612W        W15597  41.922   6.118   2.911
50613W        W15598  42.293  39.575   4.203
50614W        W15599  12.095  12.492   1.789
50615W        W15600  36.045  11.266   0.497
50616W        W15601   1.902  37.779   0.253
50617W        W15602  37.282   7.412   0.527
50618W        W15603  11.179  16.072   2.689
50619W        W15604  20.533  16.782   0.489
50620W        W15605  10.774  42.009  11.950
50621W        W15606  32.465  17.551   3.146
50622W        W15607  21.439  33.706   0.319
50623W        W15608   9.263  14.350   0.388
50624W        W15609  10.356  21.153   1.921
50625W        W15610  19.558  15.246  10.991
50626W        W15611  24.110  11.490   1.814
50627W        W15612  25.493   9.409   4.516
50628W        W15613  12.653  32.470   1.728
50629W        W15614   4.938  41.445   3.054
50630W        W15615  34.031  16.402  13.063
50631W        W15616  11.312  42.508  11.463
50632W        W15617  27.460  16.105   2.168
50633W        W15618   2.931   8.717  10.463
50634W        W15619  44.975  16.397  12.601
50635W        W15620  12.682  18.339   0.812
50636W        W15621  29.646  40.586  14.357
50637W        W15622  42.818   9.096   3.837
50638W        W15623   0.371   6.417  12.483
50639W        W15624  26.470   6.883  14.081
50640W        W15625   5.425  21.222  10.270
50641W        W15626  40.449  25.666   3.535
50642W        W15627  40.230  15.165   2.816
50643W        W15628   0.007  22.839   4.426
50644W        W15629  36.549  18.183   3.152
50645W        W15630  19.439  15.907   3.210
50646W        W15631   5.372  17.948  12.071
50647W        W15632  41.761  31.374   1.319
50648W        W15633  24.305  15.839  13.452
50649W        W15634   6.439  17.124  10.178
50650W        W15635  10.287  12.090  11.140
50651W        W15636   4.873   0.565  11.154
50652W        W15637  15.359  25.623   0.732
50653W        W15638  12.135  25.827   3.070
50654W        W15639  29.064  25.516   0.813
50655W        W15640  10.210  32.696  14.869
50656W        W15641  33.911  33.352  13.796
50657W        W15642  25.066  26.516   5.347
50658W        W15643  22.795  15.549  11.293
50659W        W15644   2.401  18.553  13.857
50660W        W15645  20.795  18.245  14.727
50661W        W15646  39.822  20.104   1.760
50662W        W15647  27.099  19.250   0.546
50663W        W15648  38.152  15.695   9.964
50664W        W15649  42.115  31.198  14.815
50665W        W15650   8.256   4.045  11.143
50666W        W15651  13.716  33.181   3.123
50667W        W15652  15.111  35.839   2.411
50668W        W15653  28.144  42.932  12.896
50669W        W15654   6.903  18.682  13.070
50670W        W15655  22.879  20.761  10.600
50671W        W15656  43.262   3.584  14.705
50672W        W15657  10.125  27.188   2.781
50673W        W15658  27.025  15.087   3.938
50674W        W15659  39.399  32.168   1.893
50675W        W15660  25.047   8.186  11.519
50676W        W15661  17.165  22.561  12.780
50677W        W15662  37.232  33.608  11.995
50678W        W15663  31.912  17.257   0.675
50679W        W15664  39.920  37.086  10.665
50680W        W15665  43.982   8.760   2.144
50681W        W15666  25.296  30.056  13.847
50682W        W15667  31.546   5.235   0.979
50683W        W15668  19.579   0.723   3.707
50684W        W15669  28.213  41.331  10.761
50685W        W15670  14.873   1.328  10.677
50686W        W15671  30.872  10.686   3.839
50687W        W15672   3.754  40.684  11.576
50688W        W15673  32.702   5.878  12.473
50689W        W15674  24.752  15.627   1.414
50690W        W15675  21.597  43.040  11.493
50691W        W15676   9.280  12.776   3.089
50692W        W15677  44.838  13.819  11.662
50693W        W15678  43.982  34.104  11.887
50694W        W15679  16.626  38.534  13.873
50695W        W15680   2.957   1.409  10.721
50696W        W15681   5.459   4.758   2.279
50697W        W15682  40.418  27.597  12.674
50698W        W15683  25.235  36.513   4.000
50699W        W15684   3.335   2.526  11.618
50700W        W15685  32.808  15.571   4.278
50701W        W15686  44.733  34.413   0.171
50702W        W15687  20.748  15.134  13.378
50703W        W15688  42.763   2.829   4.268
50704W        W15689  24.598  16.836  14.904
50705W        W15690  39.988   9.838   2.832
50706W        W15691   3.889  42.652   1.785
50707W        W15692  44.285  26.144   3.172
50708W        W15693  44.480   6.874   4.567
50709W        W15694  21.467  21.312   2.809
50710W        W15695  31.848  41.596   0.326
50711W        W15696   3.234  19.727   3.888
50712W        W15697  44.225  27.681   9.960
50713W        W15698   5.762  31.664   1.662
50714W        W15699  38.092  42.015  11.107
50715W        W15700  38.345  23.738   4.141
50716W        W15701  27.685  40.501   1.207
50717W        W15702  18.155  15.297  13.370
50718W        W15703  24.162  14.345   1.806
50719W        W15704  37.776  10.846  11.984
50720W        W15705  12.288  35.346  12.053
50721W        W15706  32.058   4.794   2.306
50722W        W15707   5.778  30.043  11.956
50723W        W15708  30.437  14.251   4.733
50724W        W15709   0.759   6.156  11.726
50725W        W15710  40.054  29.658   3.402
50726W        W15711   0.729   7.238   0.766
50727W        W15712  17.627  18.233  11.265
50728W        W15713  39.516  29.242   1.209
50729W        W15714  39.272  42.119   2.837
50730W        W15715  13.755  35.120  14.350
50731W        W15716  33.275  11.586  10.697
50732W        W15717  27.732  17.037  10.447
50733W        W15718  23.645   6.267   1.299
50734W        W15719  27.013   8.455  13.857
50735W        W15720  18.321  23.671  12.188
50736W        W15721  37.943  20.386  11.180
50737W        W15722  24.195  12.307  14.832
50738W        W15723  33.104  18.840  12.011
50739W        W15724  16.504  33.066   4.277
50740W        W15725   2.891  40.565   0.904
50741W        W15726  18.878   9.813  14.418
50742W        W15727  34.923  27.493   0.777
50743W        W15728  30.493  38.750   1.936
50744W        W15729  14.710  16.037  13.063
50745W        W15730  33.981  17.190  12.192
50746W        W15731  14.801  11.282   3.841
50747W        W15732   7.504  11.446   0.666
50748W        W15733  43.023  37.812  12.493
50749W        W15734  29.081   8.725  12.977
50750W        W15735  13.616  20.256  13.864
50751W        W15736   2.560  33.088  10.595
50752W        W15737  37.386  13.105  13.419
50753W        W15738  27.041  11.212   3.374
50754W        W15739  32.978  14.168  14.820
50755W        W15740  16.556  13.154   2.276
50756W        W15741  14.892   5.904   0.406
50757W        W15742  15.984  19.192  11.862
50758W        W15743   2.846  39.417   1.816
50759W        W15744  24.507  16.830   1.722
50760W        W15745  30.967   9.630  12.590
50761W        W15746  44.167  18.747   1.387
50762W        W15747  39.284  11.339  12.491
50763W        W15748  26.163  27.559   1.478
50764W        W15749  14.799  38.654   2.186
50765W        W15750  20.769   6.303  12.112
50766W        W15751  27.165  16.517   3.355
50767W        W15752  43.845  18.044  11.105
50768W        W15753  21.257   2.591   5.006
50769W        W15754   9.973  39.139  12.919
50770W        W15755  15.344   7.956  11.899
50771W        W15756  35.906  11.696  14.729
50772W        W15757  16.535   4.917   3.137
50773W        W15758  13.985  35.737  10.785
50774W        W15759   6.745  36.006   2.025
50775W        W15760  43.278  31.674   0.567
50776W        W15761  42.431  34.170   9.299
50777W        W15762   0.954  32.894   0.432
50778W        W15763  42.949  40.681  13.344
50779W        W15764  36.537  39.420   4.731
50780W        W15765   9.721  29.413  14.964
50781W        W15766  17.764  13.191  13.136
50782W        W15767  23.636   8.159  13.067
50783W        W15768  23.180   4.006   9.758
50784W        W15769  19.539   6.203  14.990
50785W        W15770   1.956   8.757  12.928
50786W        W15771   8.899  10.609   3.006
50787W        W15772  33.378  26.071  11.232
50788W        W15773  29.599   3.269  13.378
50789W        W15774   8.355  35.640  12.861
50790W        W15775  18.592  35.439  12.074
50791W        W15776  13.751  12.716   1.448
50792W        W15777   3.485  30.116   3.006
50793W        W15778  24.177  24.036   4.580
50794W        W15779  20.229  24.328  13.056
50795W        W15780  23.606   8.690  13.139
50796W        W15781  27.915  19.829   3.613
50797W        W15782  13.182  18.317  14.414
50798W        W15783  17.674  38.480  14.689
50799W        W15784  24.260  29.953   3.772
50800W        W15785  12.191  32.694  12.593
50801W        W15786  26.108   5.090  13.855
50802W        W15787  10.710  33.151  13.738
50803W        W15788  34.935  16.538   1.421
50804W        W15789  19.598  41.497   1.657
50805W        W15790   0.340   3.982   2.150
50806W        W15791  23.161   2.067   1.897
50807W        W15792  32.103  34.115  14.045
50808W        W15793   5.683   5.264   1.222
50809W        W15794  20.254  36.479   4.978
50810W        W15795  41.073  26.471  11.581
50811W        W15796   0.693  32.571  14.896
50812W        W15797  39.644  33.460   2.014
50813W        W15798   0.325  41.287  11.473
50814W        W15799  40.796   9.204   0.877
50815W        W15800  13.583  31.371   1.666
50816W        W15801  17.758   0.758   4.852
50817W        W15802  27.879  41.764  10.738
50818W        W15803  31.929  37.393   4.111
50819W        W15804   5.513  31.067  14.238
50820W        W15805  25.248   3.052  14.862
50821W        W15806  24.768  28.830  14.404
50822W        W15807  22.752   8.116  10.777
50823W        W15808  42.274  10.716  12.984
50824W        W15809   5.535   2.816   4.224
50825W        W15810  20.184  10.345  11.574
50826W        W15811  16.970  39.212   1.703
50827W        W15812  11.444  17.357  10.750
50828W        W15813   9.206  11.783   3.162
50829W        W15814  21.933  33.299  11.227
50830W        W15815  35.361  43.019   1.391
50831W        W15816  16.228  42.072   3.815
50832W        W15817  34.058  10.460   0.295
50833W        W15818  15.474  15.557   0.916
50834W        W15819   5.086  33.677   0.219
50835W        W15820  34.922  16.589   2.337
50836W        W15821   5.230  32.164   2.821
50837W        W15822  17.458  28.170  13.453
50838W        W15823  24.590  33.073   2.348
50839W        W15824  40.988   7.073  13.012
50840W        W15825  16.989  37.418  13.631
50841W        W15826   1.427  32.676   0.362
50842W        W15827  26.755  41.520  11.608
50843W        W15828  30.558  16.283  10.830
50844W        W15829  44.093  17.076   5.276
50845W        W15830  40.924   3.901  13.292
50846W        W15831  33.756  20.509  12.066
50847W        W15832  43.905  31.050   1.457
50848W        W15833   7.781  16.215  14.052
50849W        W15834  29.101  23.551  14.898
50850W        W15835  11.861   7.086  11.002
50851W        W15836  44.740  28.994   4.087
50852W        W15837  27.190  14.098   0.862
50853W        W15838  23.835   8.565  10.336
50854W        W15839  23.070  19.493   4.096
50855W        W15840  44.748  27.617  13.258
50856W        W15841   5.110  15.233   3.723
50857W        W15842  25.322  24.693  13.540
50858W        W15843   9.837  24.468  13.427
50859W        W15844  28.648  14.806  12.516
50860W        W15845   4.890  19.105   4.462
50861W        W15846   1.510  17.004  13.412
50862W        W15847  34.913   4.391  11.990
50863W        W15848  40.252   0.471  10.766
50864W        W15849  35.026  42.379  13.515
50865W        W15850  44.766   7.608  12.456
50866W        W15851  32.112  29.750  11.002
50867W        W15852  28.172  29.736  11.853
50868W        W15853   1.152  41.415  12.358
50869W        W15854  27.437  10.633  12.489
50870W        W15855   2.455  10.434  14.386
50871W        W15856  33.319   7.628   2.304
50872W        W15857  34.982  12.196   0.595
50873W        W15858  43.921   7.113  12.909
50874W        W15859   5.454  25.171  10.994
50875W        W15860   9.672  15.254  10.670
50876W        W15861  43.739  42.024  13.295
50877W        W15862  14.922   9.875   1.274
50878W        W15863  23.681  37.748   2.895
50879W        W15864  17.827  35.881  11.405
50880W        W15865  30.371  10.205  11.766
50881W        W15866  41.543  12.860  14.429
50882W        W15867  24.647  31.849  13.454
50883W        W15868   0.436  43.092  12.104
50884W        W15869  14.810  31.640   3.837
50885W        W15870  37.470  34.665  11.348
50886W        W15871  11.135  36.836  12.016
50887W        W15872  31.908  31.757   4.792
50888W        W15873  15.299  25.454  10.278
50889W        W15874  10.158   6.217  14.955
50890W        W15875  16.084  42.796  11.447
50891W        W15876  20.248  15.856  11.139
50892W        W15877  10.779  43.857  14.380
50893W        W15878  13.537  27.543  11.654
50894W        W15879   7.889   8.204  11.949
50895W        W15880  22.035  10.666  11.166
50896W        W15881  19.714  16.516  11.537
50897W        W15882   3.192  39.834   0.671
50898W        W15883   9.220  41.787   3.122
50899W        W15884  22.708  22.146  13.479
50900W        W15885  41.518  20.009   3.649
50901W        W15886  27.731  31.625  11.103
50902W        W15887   7.598   9.359  13.899
50903W        W15888  23.313  14.349   3.674
50904W        W15889  24.353  41.904  12.904
50905W        W15890  35.438  31.373  14.726
50906W        W15891  31.062  33.387   0.298
50907W        W15892   0.920  20.322  10.961
50908W        W15893  16.125  40.621   0.839
50909W        W15894  13.425  40.950   1.146
50910W        W15895  33.537  16.715  11.468
50911W        W15896   3.475   7.298   1.706
50912W        W15897   0.189  41.417  13.352
50913W        W15898  43.448  26.472  12.463
50914W        W15899  14.027  29.146  11.561
50915W        W15900   7.262   4.299   5.169
50916W        W15901  14.245  23.739  12.558
50917W        W15902   4.638  10.475   4.485
50918W        W15903  13.711  29.006   2.825
50919W        W15904  27.140  23.529  13.443
50920W        W15905  32.172  18.623   0.237
50921W        W15906  12.995  16.477   9.800
50922W        W15907  36.918  29.686   3.907
50923W        W15908  18.143  16.062  11.266
50924W        W15909   0.898  41.925   1.837
50925W        W15910   8.990  38.519   2.708
50926W        W15911  24.605  30.188   3.059
50927W        W15912  22.034   3.268  13.648
50928W        W15913   0.383  23.137   3.602
50929W        W15914  24.159  33.143  14.764
50930W        W15915  24.806  34.552   2.205
50931W        W15916  20.652  39.325   3.360
50932W        W15917  32.000   4.834  13.271
50933W        W15918  35.677  36.072  12.173
50934W        W15919  31.054  43.080  13.967
50935W        W15920   2.426   8.207  11.196
50936W        W15921  39.462  27.545  11.140
50937W        W15922  16.736   5.720  11.967
50938W        W15923   9.398  28.803  13.428
50939W        W15924  18.399  28.516  12.872
50940W        W15925  39.061   6.417   3.190
50941W        W15926   6.506  15.903   2.401
50942W        W15927  36.859  38.584   3.634
50943W        W15928   3.900  19.128   2.995
50944W        W15929  33.314   2.463   1.350
50945W        W15930  36.625  35.352  14.535
50946W        W15931   5.030  26.717   2.418
50947W        W15932  11.316  41.360   4.582
50948W        W15933  40.012   6.730   3.114
50949W        W15934   1.359  18.235   1.153
50950W        W15935   5.711  15.681  13.654
50951W        W15936   4.947  21.247   3.133
50952W        W15937  39.915  27.706  12.780
50953W        W15938  33.101  41.832  11.135
50954W        W15939  20.548  39.997  13.488
50955W        W15940  20.776   8.975  11.095
50956W        W15941  15.000  31.998  11.687
50957W        W15942  40.741  22.647  14.433
50958W        W15943   1.787  43.195  11.920
50959W        W15944   9.100  10.146   3.878
50960W        W15945  33.464  26.933   0.869
50961W        W15946  12.666  44.051  11.117
50962W        W15947   5.864  33.092  13.808
50963W        W15948  11.382  20.669   3.976
50964W        W15949   1.218  29.674   0.288
50965W        W15950  22.418  24.268  11.985
50966W        W15951  12.737  39.485   3.321
50967W        W15952  29.469  37.543   2.227
50968W        W15953   2.697  25.165  10.309
50969W        W15954  27.391  36.404  10.760
50970W        W15955  34.349  36.002   1.860
50971W        W15956  30.026   2.296   4.711
50972W        W15957   7.485  34.438   2.751
50973W        W15958   5.418  23.721  10.765
50974W        W15959  24.966  29.465  12.976
50975W        W15960  40.767   2.368   1.593
50976W        W15961  11.588  24.977  12.864
50977W        W15962  16.482  29.646  10.285
50978W        W15963   5.428  19.933   3.109
50979W        W15964  29.542  24.037   3.092
50980W        W15965  28.952  20.796  12.098
50981W        W15966   3.683  27.946   4.127
50982W        W15967   1.516  30.630   3.140
50983W        W15968  19.799  20.757  10.251
50984W        W15969  44.922  13.289  10.770
50985W        W15970  11.317  33.115  13.214
50986W        W15971  44.178  38.533  11.301
50987W        W15972  41.709  15.751   9.687
50988W        W15973  28.218   5.279   1.974
50989W        W15974  11.772  29.234  11.636
50990W        W15975  34.024   6.249  12.665
50991W        W15976  29.531  15.760  11.670
50992W        W15977  22.780  19.140  14.803
50993W        W15978  11.599  35.767  11.739
50994W        W15979  26.942  15.678  10.982
50995W        W15980  43.022   5.279  11.626
50996W        W15981  21.950  24.490  12.610
50997W        W15982   8.811   8.806  10.423
50998W        W15983  34.984   4.773  14.928
50999W        W15984  22.296   8.710   2.215
51000W        W15985  42.931   0.521   1.621
51001W        W15986   1.961   4.420   0.305
51002W        W15987  31.106  43.979   1.217
51003W        W15988  19.053  28.035  10.781
51004W        W15989  11.877  21.108  11.884
51005W        W15990  27.584   5.651  12.318
51006W        W15991  15.938   7.623  11.176
51007W        W15992  30.227  23.280   2.911
51008W        W15993  44.697  12.121   0.312
51009W        W15994  18.216   0.125  12.428
51010W        W15995  19.689   9.804   3.125
51011W        W15996  35.060  41.554   3.742
51012W        W15997  37.096  10.618  12.248
51013W        W15998  40.262  24.160   4.095
51014W        W15999   8.323  36.579   0.854
51015W        W16000  43.460  13.047   2.271
51016W        W16001  29.500  21.292   0.748
51017W        W16002   6.935  10.909   2.297
51018W        W16003  20.741  33.567   1.744
51019W        W16004  33.960   3.367   3.835
51020W        W16005  15.672  28.980  13.146
51021W        W16006  33.364  32.645  10.941
51022W        W16007  37.588  32.425   4.035
51023W        W16008   9.161   3.164   0.609
51024W        W16009  44.342  26.053   0.949
51025W        W16010  20.817  17.079   4.142
51026W        W16011  25.527  15.248   3.270
51027W        W16012  25.094  35.532   1.957
51028W        W16013  31.409  15.335   4.241
51029W        W16014  40.554  21.757  11.030
51030W        W16015   6.926  28.070   1.486
51031W        W16016   3.962  33.012   2.013
51032W        W16017  22.139   1.557   4.775
51033W        W16018  28.617  20.533  11.685
51034W        W16019   8.755  38.513  10.671
51035W        W16020   0.886  27.876  10.246
51036W        W16021  26.483  15.780  13.775
51037W        W16022  26.616   8.929  11.576
51038W        W16023  18.130  18.152   2.234
51039W        W16024  23.986  15.789  10.751
51040W        W16025  26.188  22.141  11.688
51041W        W16026  31.433  23.954   2.213
51042W        W16027  14.796  44.640   4.622
51043W        W16028  25.625  33.947  10.919
51044W        W16029   2.456  29.967   0.979
51045W        W16030   0.030  24.104   4.620
51046W        W16031  13.791  26.566  11.169
51047W        W16032  36.529  21.443   2.708
51048W        W16033  36.450  10.150   1.283
51049W        W16034  31.214   4.460   4.226
51050W        W16035  22.545  26.090   1.362
51051W        W16036  19.761  29.580   3.612
51052W        W16037  18.282  26.736   1.633
51053W        W16038  32.859  27.597  14.557
51054W        W16039   5.908  18.704  12.662
51055W        W16040  15.049  18.569  10.713
51056W        W16041  39.759  30.379   1.955
51057W        W16042  11.204  16.532  12.743
51058W        W16043   1.457  12.988  10.393
51059W        W16044  36.061  43.004  14.761
51060W        W16045  21.776  33.589   4.176
51061W        W16046  12.735  38.894  14.783
51062W        W16047   9.248  14.334   2.165
51063W        W16048  29.099  16.496  14.747
51064W        W16049  19.694  22.505   1.384
51065W        W16050  44.061  33.993   0.738
51066W        W16051  17.020  10.698  10.373
51067W        W16052  15.237  23.205  13.539
51068W        W16053  15.070  38.127   4.215
51069W        W16054  25.717  33.467  13.957
51070W        W16055  40.538  16.008  13.079
51071W        W16056   9.409  13.197  12.991
51072W        W16057  15.660  32.069  10.479
51073W        W16058  14.791  36.300  11.277
51074W        W16059  33.453  24.237  11.288
51075W        W16060  30.034   3.923   4.774
51076W        W16061  43.267  32.466   1.592
51077W        W16062  41.903  17.193   1.625
51078W        W16063  13.179  27.916   4.209
51079W        W16064  30.690   9.888  13.887
51080W        W16065  25.373   2.259   2.635
51081W        W16066  44.899  40.431   0.909
51082W        W16067  38.792   8.153  14.280
51083W        W16068  32.677  34.914   2.906
51084W        W16069  40.384  25.225   1.111
51085W        W16070  38.544  33.960   2.092
51086W        W16071  19.883  30.148  13.450
51087W        W16072   8.871   1.155   4.089
51088W        W16073  42.749  34.840   0.731
51089W        W16074  25.701  20.567   1.762
51090W        W16075  39.547  14.645   3.684
51091W        W16076  29.602  30.239   3.176
51092W        W16077  28.350   2.933  10.287
51093W        W16078  22.601  36.391  12.486
51094W        W16079  15.339   9.420  13.057
51095W        W16080  10.705  37.099   4.133
51096W        W16081  17.572  23.032  11.293
51097W        W16082  24.424  10.885   2.968
51098W        W16083  41.821  37.524   4.411
51099W        W16084   2.826   5.978  12.593
51100W        W16085  36.542   9.145   0.382
51101W        W16086  20.546  42.298   1.249
51102W        W16087  16.158  11.630   3.757
51103W        W16088  24.906   0.315  12.447
51104W        W16089  28.642  43.021   2.456
51105W        W16090  10.778  44.833  10.796
51106W        W16091  16.717  35.009   2.820
51107W        W16092   8.437  22.101   0.489
51108W        W16093  30.033  26.200  12.879
51109W        W16094  23.655   4.844   4.063
51110W        W16095  17.515  40.112  14.910
51111W        W16096  42.918  41.840  12.557
51112W        W16097  40.747  43.295   4.152
51113W        W16098  16.511   0.909  13.547
51114W        W16099  31.940  19.704  13.800
51115W        W16100  24.165  36.833  14.844
51116W        W16101  37.410  18.630  12.501
51117W        W16102   0.770  29.188   2.877
51118W        W16103   6.600  23.121  14.922
51119W        W16104  30.606  15.185  12.491
51120W        W16105  28.950  14.490  11.173
51121W        W16106  44.845   7.381  11.987
51122W        W16107  23.178  15.745  11.599
51123W        W16108  26.960  19.234  13.999
51124W        W16109  13.107   7.125   1.272
51125W        W16110  33.218  40.525   3.422
51126W        W16111   5.327  30.515  14.956
51127W        W16112  25.037  26.186   4.948
51128W        W16113  13.129  43.616  10.488
51129W        W16114  19.287   1.860   4.899
51130W        W16115   5.010  33.970  14.497
51131W        W16116  32.200  44.332   2.082
51132W        W16117  25.222  29.499  10.725
51133W        W16118  35.495  14.432   5.154
51134W        W16119  29.296  25.097  11.711
51135W        W16120  43.619  41.868   1.326
51136W        W16121  21.250  31.559  11.620
51137W        W16122  10.296  32.932  12.459
51138W        W16123  13.243   1.002   2.330
51139W        W16124   2.076  35.892  11.212
51140W        W16125  31.165  25.888   1.309
51141W        W16126  30.570   9.158   4.161
51142W        W16127  25.800   5.811  13.101
51143W        W16128  35.186  31.536   1.244
51144W        W16129  41.206  25.495   4.061
51145W        W16130   3.170   9.774   0.744
51146W        W16131   6.439  28.731   2.871
51147W        W16132  17.256  38.262  13.080
51148W        W16133  21.723   5.934  13.054
51149W        W16134  19.172   2.247   4.172
51150W        W16135  18.322  40.336   3.820
51151W        W16136  20.755   8.094  10.605
51152W        W16137  31.165   7.200   3.697
51153W        W16138  25.831  43.505  14.049
51154W        W16139   9.633  15.200   1.282
51155W        W16140  25.724   6.855  10.701
51156W        W16141  12.165   1.527  11.594
51157W        W16142  25.210  17.719   0.955
51158W        W16143  30.954   9.209   1.336
51159W        W16144  26.002  15.393  14.395
51160W        W16145   0.294   1.327  11.433
51161W        W16146  43.746   8.421  12.586
51162W        W16147  27.182  43.783   3.907
51163W        W16148  16.236  32.975   1.153
51164W        W16149   5.338   3.454  12.970
51165W        W16150  27.223  31.062   2.204
51166W        W16151  26.455  16.159  10.445
51167W        W16152   6.382  16.080   2.878
51168W        W16153  30.099  32.428   4.590
51169W        W16154  36.106   9.752   1.335
51170W        W16155  21.195  35.933  12.879
51171W        W16156  19.078   4.955  13.524
51172W        W16157  19.024  25.885  11.557
51173W        W16158  30.179  12.281   3.252
51174W        W16159  30.951  18.069  14.325
51175W        W16160   1.944  19.768   3.894
51176W        W16161  28.701  39.066   4.138
51177W        W16162  16.705  42.001  12.076
51178W        W16163  31.023  17.545  11.221
51179W        W16164  39.311  30.961   1.161
51180W        W16165  39.506  27.570  13.056
51181W        W16166  42.513  25.333   0.916
51182W        W16167  34.750  20.019   3.938
51183W        W16168  33.275  17.312   0.652
51184W        W16169  18.037   0.623   4.098
51185W        W16170  34.536  18.990   3.255
51186W        W16171   2.772  23.283  10.732
51187W        W16172  20.542  24.089  10.259
51188W        W16173  18.916  27.943   5.091
51189W        W16174  10.847  38.601   2.587
51190W        W16175  27.052  34.686  13.793
51191W        W16176  44.044  16.694   4.422
51192W        W16177  19.671   4.900   3.135
51193W        W16178  12.657  41.934   4.336
51194W        W16179   7.057  37.524  14.451
51195W        W16180  33.828  42.503   0.499
51196W        W16181  32.111   1.704  13.426
51197W        W16182  15.209  21.199  11.481
51198W        W16183  29.766  29.007  10.923
51199W        W16184  11.274  13.170   4.755
51200W        W16185   5.839  14.193  13.798
51201W        W16186  30.482  18.681  12.667
51202W        W16187  43.581   1.290   1.856
51203W        W16188  40.350  12.216  10.994
51204W        W16189  17.001  14.124   3.319
51205W        W16190  19.985  38.756   2.983
51206W        W16191  31.076  40.995   3.666
51207W        W16192  40.411  44.435   1.971
51208W        W16193  13.525  16.059  11.075
51209W        W16194  17.265  23.149   0.749
51210W        W16195  12.601  38.895   1.230
51211W        W16196  41.278   2.251  10.427
51212W        W16197  13.759  17.229  13.982
51213W        W16198  23.269   9.449  10.821
51214W        W16199   1.748   9.442  13.341
51215W        W16200  32.943  26.931   0.767
51216W        W16201   0.304  26.618  14.776
51217W        W16202  31.977  27.541  14.574
51218W        W16203  19.023   1.785   3.997
51219W        W16204  10.815  36.445  11.468
51220W        W16205   5.838  36.864   0.800
51221W        W16206   5.845  31.872   1.014
51222W        W16207  39.370   1.344   4.423
51223W        W16208  20.964  29.558  11.009
51224W        W16209   7.323   7.776   3.249
51225W        W16210  36.668  29.056  12.077
51226W        W16211  32.988   8.893  12.113
51227W        W16212  31.779  11.830   5.012
51228W        W16213   8.143  37.561   2.782
51229W        W16214   7.554   7.431  10.926
51230W        W16215   7.405   4.924  14.891
51231W        W16216   1.726   1.602  13.924
51232W        W16217  14.158  31.364  12.505
51233W        W16218  21.293  44.874  12.954
51234W        W16219  41.510  30.692   3.696
51235W        W16220  16.525  13.682   4.156
51236W        W16221   9.759  40.148  11.646
51237W        W16222  43.460  27.630  13.765
51238W        W16223  21.314   2.947  13.389
51239W        W16224   3.165  33.393  13.099
51240W        W16225  28.563  28.455  12.405
51241W        W16226  37.343  24.418  14.077
51242W        W16227  20.516  24.223   5.320
51243W        W16228  26.561   8.912  10.723
51244W        W16229  39.800  40.080  13.857
51245W        W16230  17.546  32.950  10.813
51246W        W16231  20.261   5.130  13.858
51247W        W16232   9.410  19.544  12.015
51248W        W16233   6.217  31.874   1.779
51249W        W16234  12.260  39.312   4.697
51250W        W16235  22.618  17.265  14.944
51251W        W16236  28.129   9.622   2.669
51252W        W16237   5.987  31.201  11.135
51253W        W16238  38.616   2.267   2.907
51254W        W16239  26.005  13.759  14.327
51255W        W16240  36.628   8.109  11.143
51256W        W16241  12.199  22.729   3.664
51257W        W16242  22.972  34.469   0.332
51258W        W16243   7.616   4.284  13.563
51259W        W16244  17.567  14.370   0.276
51260W        W16245  21.471   1.312  11.991
51261W        W16246  16.908  27.957   1.677
51262W        W16247  12.208  43.646   1.021
51263W        W16248  27.688   4.753   0.717
51264W        W16249  33.651   7.681   0.419
51265W        W16250  12.676  17.726   1.272
51266W        W16251  30.178   3.378  12.632
51267W        W16252  37.450  16.732   4.116
51268W        W16253  44.204   4.867   1.918
51269W        W16254  27.992   7.675  12.051
51270W        W16255  13.054  32.733   1.913
51271W        W16256  21.442   8.261  14.967
51272W        W16257  10.322  12.100   2.706
51273W        W16258  13.726  38.540   2.774
51274W        W16259   4.040  20.193   3.667
51275W        W16260  22.148  20.945   4.257
51276W        W16261  28.193  39.315   4.835
51277W        W16262  43.928  17.236   9.941
51278W        W16263  23.226  27.741   3.995
51279W        W16264  26.399  34.948  11.997
51280W        W16265  22.059  15.577   1.159
51281W        W16266  33.262  39.499  12.616
51282W        W16267   5.700  25.221   0.447
51283W        W16268  31.266  30.415   3.814
51284W        W16269   1.800  32.426   3.015
51285W        W16270  11.791  30.511   0.359
51286W        W16271   0.475   1.267   0.312
51287W        W16272  11.695  25.160   1.396
51288W        W16273   7.683  32.818   2.254
51289W        W16274   0.793   4.425  12.025
51290W        W16275  30.163  43.356  10.384
51291W        W16276  36.364  41.275  13.494
51292W        W16277  10.137  30.533   4.134
51293W        W16278  13.216   7.811   1.435
51294W        W16279   5.412  22.577   0.356
51295W        W16280  33.853  41.446   1.385
51296W        W16281  18.841  44.897   1.730
51297W        W16282  28.381  38.760  10.181
51298W        W16283  18.284  13.199  13.119
51299W        W16284  37.526  40.929   3.889
51300W        W16285  28.030  23.943   4.791
51301W        W16286  20.402   6.897   4.546
51302W        W16287  31.582  20.248   4.534
51303W        W16288  25.676  26.927   4.859
51304W        W16289  23.201  33.143   0.908
51305W        W16290  15.170  43.181   9.911
51306W        W16291  20.311  27.699  14.202
51307W        W16292  44.417  42.007  14.917
51308W        W16293  38.605  43.713   3.150
51309W        W16294  40.283   5.245  14.355
51310W        W16295  14.633  15.849   1.078
51311W        W16296  41.995  30.487  12.893
51312W        W16297   4.775  26.640  13.320
51313W        W16298  16.596  25.460   4.676
51314W        W16299  37.435  15.337  10.268
51315W        W16300  40.959  40.568   3.673
51316W        W16301  33.852  31.489   3.311
51317W        W16302   0.765  38.558  11.587
51318W        W16303  37.362  11.948   4.085
51319W        W16304  36.799  21.756  13.989
51320W        W16305   3.342  14.591  13.813
51321W        W16306   4.338  43.778   1.657
51322W        W16307  43.519  31.404  14.502
51323W        W16308  38.347  33.037   2.860
51324W        W16309   2.229  24.185  11.607
51325W        W16310  38.479  17.240   1.532
51326W        W16311  28.029  24.865  14.855
51327W        W16312   5.259  33.268   4.513
51328W        W16313   0.302  19.209   2.199
51329W        W16314  33.368  37.918   2.413
51330W        W16315   0.835   6.453  11.290
51331W        W16316  28.428  18.232   3.590
51332W        W16317   6.871   3.714  13.585
51333W        W16318  23.605  14.480  13.124
51334W        W16319  39.453  18.769  12.799
51335W        W16320   9.888   5.744  12.584
51336W        W16321  13.160  31.886  13.542
51337W        W16322  33.979  12.828   4.477
51338W        W16323  18.938  24.483   2.269
51339W        W16324  22.681  31.776   1.331
51340W        W16325  41.767  43.542   4.941
51341W        W16326  27.175  24.947  14.380
51342W        W16327  34.967  16.078   2.250
51343W        W16328   4.504  10.684   2.340
51344W        W16329   6.683  41.369  10.647
51345W        W16330   0.772   7.327   2.246
51346W        W16331   9.141  40.349  12.978
51347W        W16332  28.689  30.384   2.994
51348W        W16333  32.063  26.612  12.636
51349W        W16334  14.925  34.328  11.067
51350W        W16335   4.827  25.530  14.982
51351W        W16336  30.570  28.044   1.441
51352W        W16337  21.345  35.031  14.900
51353W        W16338  32.846   3.539   0.442
51354W        W16339  20.259   9.679   1.929
51355W        W16340  41.247  43.431   2.345
51356W        W16341  13.376  18.099   3.723
51357W        W16342  42.277  34.033   3.178
51358W        W16343   9.810  30.042  11.107
51359W        W16344  30.431  35.469  13.286
51360W        W16345   1.304  36.417  14.695
51361W        W16346  26.260  10.826   2.758
51362W        W16347  17.882  16.809  14.756
51363W        W16348  11.220   5.779  11.026
51364W        W16349  22.071  43.950   2.221
51365W        W16350  13.750  36.028  11.135
51366W        W16351  13.660  37.423   3.648
51367W        W16352   2.852  30.624  14.094
51368W        W16353  17.949  25.491   1.220
51369W        W16354  19.180   8.393  11.990
51370W        W16355  31.509  17.682  13.973
51371W        W16356  20.044  12.394   2.386
51372W        W16357  30.762  17.555   3.742
51373W        W16358  10.733   9.346  12.655
51374W        W16359   4.189  33.460  14.369
51375W        W16360   4.037  27.928  13.096
51376W        W16361  35.600  29.262  13.210
51377W        W16362  35.487  33.655  13.412
51378W        W16363  16.471  38.654  12.102
51379W        W16364   3.424  20.631   4.299
51380W        W16365  19.705  29.435  12.151
51381W        W16366   6.991  17.571   1.743
51382W        W16367   7.864   0.463  11.631
51383W        W16368  38.889  44.527   2.875
51384W        W16369  21.540  43.791  13.534
51385W        W16370  13.201  42.428   1.082
51386W        W16371  21.640  33.763  10.290
51387W        W16372  16.891   8.789   4.942
51388W        W16373  16.120  36.802  13.171
51389W        W16374  41.063  41.283   4.733
51390W        W16375  18.704  39.618  13.962
51391W        W16376   2.867  10.468   1.857
51392W        W16377  14.421  23.146  14.922
51393W        W16378  29.695  29.645   2.326
51394W        W16379  23.096  40.422  11.363
51395W        W16380  14.249  35.186   2.813
51396W        W16381  40.686   7.356  11.624
51397W        W16382  20.657  32.500   1.718
51398W        W16383   5.442  21.266   0.015
51399W        W16384   5.510  11.669   3.078
51400W        W16385   4.159   8.970  13.500
51401W        W16386  16.582   8.681  13.262
51402W        W16387  31.376  33.943   4.112
51403W        W16388   5.788  20.660   3.860
51404W        W16389   0.878  15.575  14.047
51405W        W16390   7.630  28.574  12.493
51406W        W16391  33.060  27.711   4.173
51407W        W16392  39.177  35.805  13.395
51408W        W16393  19.259  12.248  11.133
51409W        W16394  13.860  19.459  12.534
51410W        W16395  36.160   6.170  14.954
51411W        W16396   5.710  43.983  12.028
51412W        W16397   8.265  14.221  14.051
51413W        W16398   4.017  41.389   0.704
51414W        W16399  19.169  24.233   3.276
51415W        W16400  19.593  22.976  10.734
51416W        W16401   7.464   2.858  12.445
51417W        W16402  20.180  32.516  14.260
51418W        W16403  12.578  44.381  13.619
51419W        W16404  21.733  19.736  13.006
51420W        W16405   1.927  32.544   3.501
51421W        W16406  33.004  20.540   3.653
51422W        W16407  18.038  22.999  11.113
51423W        W16408  43.566  16.426  11.738
51424W        W16409  17.312   5.461   0.509
51425W        W16410  25.936  25.269  11.985
51426W        W16411  33.443   6.202  14.837
51427W        W16412  43.733  43.535   2.762
51428W        W16413   8.199  26.003  12.455
51429W        W16414  29.769   0.006   2.170
51430W        W16415  42.774  20.221   4.535
51431W        W16416  37.358  30.299   0.850
51432W        W16417  11.885  23.771   4.253
51433W        W16418  31.527  23.085   2.295
51434W        W16419  41.492  29.921  12.464
51435W        W16420   8.586  22.198  11.076
51436W        W16421  40.002  30.440   3.771
51437W        W16422  21.693   9.345  14.391
51438W        W16423  13.111  39.679   1.711
51439W        W16424  12.757  20.297   3.732
51440W        W16425  18.689   5.860   1.785
51441W        W16426  10.706  14.192   3.597
51442W        W16427  38.750  34.941   0.077
51443W        W16428  27.107   0.289  14.492
51444W        W16429  18.383   6.875   4.564
51445W        W16430  15.595  43.197  13.539
51446W        W16431   5.499  34.171  12.512
51447W        W16432   5.421  11.605   3.564
51448W        W16433   8.867   5.233  14.079
51449W        W16434  29.239  36.570   3.732
51450W        W16435  40.584  11.863  13.100
51451W        W16436  35.668  29.639   1.261
51452W        W16437   7.734   6.769  13.061
51453W        W16438   0.709  23.382  12.076
51454W        W16439  31.561   3.751   3.728
51455W        W16440  13.237  38.257   1.758
51456W        W16441  12.172  16.781   1.727
51457W        W16442  43.239  12.901  14.543
51458W        W16443  16.075  13.325   0.510
51459W        W16444  42.832   6.203  13.036
51460W        W16445  23.630  13.278  13.503
51461W        W16446   1.983  34.082  13.001
51462W        W16447  30.488   0.340   3.627
51463W        W16448  41.011  21.654  14.362
51464W        W16449  24.372   9.032   4.137
51465W        W16450   9.690  17.179   2.614
51466W        W16451   9.408  31.285   3.637
51467W        W16452  34.562  34.157   1.865
51468W        W16453   9.128  37.418   4.598
51469W        W16454   2.613  15.126  11.821
51470W        W16455   5.672   8.702   1.358
51471W        W16456  25.793   9.894   2.786
51472W        W16457   8.388  41.137   3.221
51473W        W16458  16.011  34.337  13.981
51474W        W16459   8.877  27.023  13.915
51475W        W16460  38.089  30.857   2.200
51476W        W16461  33.053   5.240   3.890
51477W        W16462  10.104  30.049  12.999
51478W        W16463  35.307  18.033   1.221
51479W        W16464  14.256  12.686   3.075
51480W        W16465   0.838  36.441  11.581
51481W        W16466  30.687  17.674  10.713
51482W        W16467   8.968  33.332   0.819
51483W        W16468  29.997  15.580   2.424
51484W        W16469  30.586  20.755  11.260
51485W        W16470  28.961   4.761  12.209
51486W        W16471  26.873  16.221  13.548
51487W        W16472  39.686  18.842  11.113
51488W        W16473  25.338  31.123   1.382
51489W        W16474  23.583  38.802   1.853
51490W        W16475  24.693   0.209  11.097
51491W        W16476  10.685  22.129  12.416
51492W        W16477  25.508  21.063  13.441
51493W        W16478  22.939  31.142  12.305
51494W        W16479  30.869   9.692   0.198
51495W        W16480   4.879   6.985  13.926
51496W        W16481   0.817  24.369  10.297
51497W        W16482  31.572  16.648   4.125
51498W        W16483  11.551   5.986  11.991
51499W        W16484  29.461  28.548   0.988
51500W        W16485  14.517  42.394  11.535
51501W        W16486  44.291  37.076   0.993
51502W        W16487  44.224  34.545  11.586
51503W        W16488  41.557  32.281  13.364
51504W        W16489  21.468   8.851  14.461
51505W        W16490  32.032   9.889  11.068
51506W        W16491  28.107   5.826  13.454
51507W        W16492  41.513  39.254  14.389
51508W        W16493  12.074  11.722   2.784
51509W        W16494  20.447  26.985  14.029
51510W        W16495  25.598  18.420  11.323
51511W        W16496  18.686  23.642  14.449
51512W        W16497  38.269  15.658   3.709
51513W        W16498  24.871  36.056   0.946
51514W        W16499  27.951  22.480   4.149
51515W        W16500  37.867   7.688   3.207
51516W        W16501  15.038  34.577   4.623
51517W        W16502  15.915  35.472  14.174
51518W        W16503  27.130  34.813   3.374
51519W        W16504   9.721   8.571   0.674
51520W        W16505  41.953  20.996   2.710
51521W        W16506  40.536  32.076   4.095
51522W        W16507  26.658  24.518  11.145
51523W        W16508  28.799   9.950   3.239
51524W        W16509  30.422  17.863   1.538
51525W        W16510   3.343   9.564  12.973
51526W        W16511   9.842  15.744  14.339
51527W        W16512  21.514  41.029   4.933
51528W        W16513  37.500  11.714   3.654
51529W        W16514   1.603  28.102  14.066
51530W        W16515  31.956  17.317  11.670
51531W        W16516  28.355  42.905  14.816
51532W        W16517  27.483  26.258   0.971
51533W        W16518  22.057  17.676  11.179
51534W        W16519  37.344   4.445  13.246
51535W        W16520  10.693   8.948   0.838
51536W        W16521  10.974  18.107   4.789
51537W        W16522  32.455  16.110   0.809
51538W        W16523  19.656   6.840   4.060
51539W        W16524   1.490  37.834   2.690
51540W        W16525  10.370  40.587   3.711
51541W        W16526  10.289  12.494   4.743
51542W        W16527   3.449  40.090   2.572
51543W        W16528  18.386  22.945  11.497
51544W        W16529  38.708  27.619   1.632
51545W        W16530   2.935  36.801   0.515
51546W        W16531  31.192  10.385  11.987
51547W        W16532  18.302  13.366   0.007
51548W        W16533  31.417  44.835   4.121
51549W        W16534  40.327   4.354   1.403
51550W        W16535  28.441  13.213   0.416
51551W        W16536  17.201  24.469  11.215
51552W        W16537   8.697  37.187   3.855
51553W        W16538  15.814  26.595  10.733
51554W        W16539  15.287  21.960  12.580
51555W        W16540  18.087  36.298   0.798
51556W        W16541  37.900  20.183  10.734
51557W        W16542  37.508  34.976  12.183
51558W        W16543  31.078  10.024   5.098
51559W        W16544  16.006  20.565   2.614
51560W        W16545  22.033  32.705  11.956
51561W        W16546  18.953  44.439  10.717
51562W        W16547   8.436  30.035  12.045
51563W        W16548  29.380  27.405   0.361
51564W        W16549  37.389  30.817   0.755
51565W        W16550  42.048  40.419   4.471
51566W        W16551   5.699  22.751  11.974
51567W        W16552  10.118  22.304   2.278
51568W        W16553   4.950   7.903  14.954
51569W        W16554   5.420  44.287   2.268
51570W        W16555   3.024  39.591   4.625
51571W        W16556  10.543  14.298  14.618
51572W        W16557  43.316  36.665  12.869
51573W        W16558  28.484  18.648   3.891
51574W        W16559  22.759  24.234   1.498
51575W        W16560  10.682  20.297   0.881
51576W        W16561  37.641  30.599   0.342
51577W        W16562  20.802  29.209  11.433
51578W        W16563  40.864  32.878  12.990
51579W        W16564  30.943  15.553  13.994
51580W        W16565  41.471  33.565  11.449
51581W        W16566  37.342   9.170   1.240
51582W        W16567  27.537  28.071  14.669
51583W        W16568  11.786  35.630  13.041
51584W        W16569  33.468  14.547   4.672
51585W        W16570  34.041  43.938  13.126
51586W        W16571  30.485  21.728   1.211
51587W        W16572   7.180  26.005   4.157
51588W        W16573  20.956  11.548  13.427
51589W        W16574  17.230  10.350   1.186
51590W        W16575  25.296  21.241  12.837
51591W        W16576   9.205  22.618  12.940
51592W        W16577  32.514  34.150  10.695
51593W        W16578  34.006  23.673   0.931
51594W        W16579  28.000  12.212  11.906
51595W        W16580  30.109  27.257   4.210
51596W        W16581  13.134  33.943   1.226
51597W        W16582  37.541  31.187   5.139
51598W        W16583   2.054  23.762   3.701
51599W        W16584  34.996   1.898  12.894
51600W        W16585  37.393  32.015  12.631
51601W        W16586  30.667   2.208  13.936
51602W        W16587  14.299  22.498   3.062
51603W        W16588  21.068  44.950  11.092
51604W        W16589   4.516  20.187   3.490
51605W        W16590  25.508  19.005  12.039
51606W        W16591  12.170   3.102  12.500
51607W        W16592  12.165  13.822  13.051
51608W        W16593  16.865  25.844   3.495
51609W        W16594  17.388   3.588   4.604
51610W        W16595  25.755  38.153  12.198
51611W        W16596  35.909  34.450   2.426
51612W        W16597  28.097  42.839   3.734
51613W        W16598   0.783  29.527   4.627
51614W        W16599  13.359   7.396   0.249
51615W        W16600  17.607  12.294   0.753
51616W        W16601   2.754   3.314   3.215
51617W        W16602  28.075   4.367   3.633
51618W        W16603   4.392  43.181  12.244
51619W        W16604   5.893  12.075   2.456
51620W        W16605   7.791  16.812  14.458
51621W        W16606   2.214  31.474   1.634
51622W        W16607   4.729  36.345  14.361
51623W        W16608  37.907  36.430   3.247
51624W        W16609  16.587  13.744  10.476
51625W        W16610  36.156  22.066   1.296
51626W        W16611  43.089  43.048  13.282
51627W        W16612  22.156   0.940  12.491
51628W        W16613   2.034   9.280  11.577
51629W        W16614   7.173  41.525  13.271
51630W        W16615  39.437   4.380  12.087
51631W        W16616   7.934  39.277  11.931
51632W        W16617  14.818   8.666  14.335
51633W        W16618  42.802  44.447  10.676
51634W        W16619  23.021  18.017  13.878
51635W        W16620  10.271  14.197   3.199
51636W        W16621   6.148   8.383   1.763
51637W        W16622  10.010  24.473  12.898
51638W        W16623  36.923   3.727   0.495
51639W        W16624  28.750  17.179   4.284
51640W        W16625  31.405  13.163   0.816
51641W        W16626  29.965  24.967   0.994
51642W        W16627  39.767   4.002   4.511
51643W        W16628  33.144  12.185  14.023
51644W        W16629   2.244  44.720  11.576
51645W        W16630  38.818  11.321   3.740
51646W        W16631  41.577   7.254   1.237
51647W        W16632  12.787  34.899  13.757
51648W        W16633   3.266  35.498   0.496
51649W        W16634  30.421  14.813  13.874
51650W        W16635   7.953  30.132   3.228
51651W        W16636  27.280  18.703  11.995
51652W        W16637   7.662  27.151   1.861
51653W        W16638  41.331  41.010   0.467
51654W        W16639   9.752  43.958  14.906
51655W        W16640  37.032  29.313   0.851
51656W        W16641   9.202  31.348   2.667
51657W        W16642  43.836  16.034  14.537
51658W        W16643   2.185  33.946   0.907
51659W        W16644  26.956  27.370   2.227
51660W        W16645  18.330  33.455  12.991
51661W        W16646   9.340  34.773  10.538
51662W        W16647  29.206  26.569  11.634
51663W        W16648  27.440  20.771  13.430
51664W        W16649  27.771  31.795  10.422
51665W        W16650  11.318  41.818  11.257
51666W        W16651  25.033  18.706   2.321
51667W        W16652  34.175  24.262   1.708
51668W        W16653  40.578  33.446  14.385
51669W        W16654  36.330  14.758  14.927
51670W        W16655   5.376  34.520  10.572
51671W        W16656  13.796  15.028  10.912
51672W        W16657   0.297   6.153   3.822
51673W        W16658  43.509  21.866   1.185
51674W        W16659  26.118  32.853   4.038
51675W        W16660  11.681   0.902   1.709
51676W        W16661  17.047  16.224  14.989
51677W        W16662  14.512  40.398  12.385
51678W        W16663  19.562  27.175  11.551
51679W        W16664  19.761  38.281   2.211
51680W        W16665  43.400  23.629   4.344
51681W        W16666   3.884  13.017  10.865
51682W        W16667   7.336  37.532   3.158
51683W        W16668  36.117  32.857  13.460
51684W        W16669   5.462  28.902   3.780
51685W        W16670  10.637  38.209  13.820
51686W        W16671   9.677  22.719  12.764
51687W        W16672  25.047  31.441  14.459
51688W        W16673  23.155  16.453   2.126
51689W        W16674  34.619  43.804  11.308
51690W        W16675  30.604  16.210   4.430
51691W        W16676  41.498  37.621   1.359
51692W        W16677  44.269  39.620  11.818
51693W        W16678   9.255   4.344  11.694
51694W        W16679  10.759   9.418   2.783
51695W        W16680  23.069  33.908  11.935
51696W        W16681  28.966  24.775  11.953
51697W        W16682  32.065   3.968   3.153
51698W        W16683  38.623  20.309   4.773
51699W        W16684  10.416   9.368  11.130
51700W        W16685   3.837  10.623   0.429
51701W        W16686  26.485  36.416   5.028
51702W        W16687  37.193  25.762   3.094
51703W        W16688   0.976  30.289   1.311
51704W        W16689  29.055  20.056   2.952
51705W        W16690  31.446  14.368  10.799
51706W        W16691  17.037  34.405  13.844
51707W        W16692   7.186  20.263   1.765
51708W        W16693  38.610  18.244   4.444
51709W        W16694  41.878  43.448   0.824
51710W        W16695   6.644  42.288  13.867
51711W        W16696  20.435  35.042   1.822
51712W        W16697  16.351  42.760   1.720
51713W        W16698   0.777   3.302   1.238
51714W        W16699  34.276  21.180  10.716
51715W        W16700  37.060  19.994  14.230
51716W        W16701   0.328  21.168   4.694
51717W        W16702  24.735  26.455   3.197
51718W        W16703   9.814  35.018   2.774
51719W        W16704  32.779   5.909  11.352
51720W        W16705   5.771   0.766   1.886
51721W        W16706   5.343  31.127   0.199
51722W        W16707   7.650   5.033  14.452
51723W        W16708  42.458  28.577   0.853
51724W        W16709  37.539  41.941   3.805
51725W        W16710  32.222   5.817   2.661
51726W        W16711  14.834  13.674  13.192
51727W        W16712  43.631  20.157  13.508
51728W        W16713  43.191  21.388   0.374
51729W        W16714  32.040  29.456   2.194
51730W        W16715  41.633  25.974   0.088
51731W        W16716  26.072   3.918  14.979
51732W        W16717  37.935  19.055  13.813
51733W        W16718  11.457   9.317  13.125
51734W        W16719  39.387  11.109  10.605
51735W        W16720  37.417  14.163   1.962
51736W        W16721  26.108  22.500   4.217
51737W        W16722  19.674  16.824  14.552
51738W        W16723  13.728  19.662  12.999
51739W        W16724  36.846  43.595  12.985
51740W        W16725  26.702   4.899  10.795
51741W        W16726  22.629  39.381  11.653
51742W        W16727  37.349  15.819  14.858
51743W        W16728   8.354   1.223   3.279
51744W        W16729  30.359   2.711   9.815
51745W        W16730  25.581  16.328   0.870
51746W        W16731  36.878  11.608  13.864
51747W        W16732  28.429   5.827   2.635
51748W        W16733  37.451  27.628   2.634
51749W        W16734  12.569  44.270   4.521
51750W        W16735  22.394  12.809  14.389
51751W        W16736  19.844   5.397  11.095
51752W        W16737   5.597  39.448  10.401
51753W        W16738  27.080  34.421  11.943
51754W        W16739  11.224  32.558  10.663
51755W        W16740  39.174  38.545  10.314
51756W        W16741  20.128  26.545  10.626
51757W        W16742  13.763   1.034   2.339
51758W        W16743   7.632  26.314   4.741
51759W        W16744  20.181  16.712  11.588
51760W        W16745  16.675  22.249   0.290
51761W        W16746  21.730   7.784  12.763
51762W        W16747   3.542  27.622  10.689
51763W        W16748  25.566  38.888   2.899
51764W        W16749  16.698  19.798   1.456
51765W        W16750  31.843   9.832  11.575
51766W        W16751  15.843  23.022  14.422
51767W        W16752  16.751  27.611   3.250
51768W        W16753  37.691   7.623   2.714
51769W        W16754  28.162  33.010   2.671
51770W        W16755  21.107  29.882   4.096
51771W        W16756   5.333  41.715  11.898
51772W        W16757  31.939  42.323  13.263
51773W        W16758  34.894   9.470  11.752
51774W        W16759  40.383  39.042  11.960
51775W        W16760  31.587   0.956   1.775
51776W        W16761   7.641  13.270  11.621
51777W        W16762  14.633  34.866   2.686
51778W        W16763  43.522   6.197  13.592
51779W        W16764  38.320  33.518   2.276
51780W        W16765  14.664  31.997  10.830
51781W        W16766  30.681   2.573   1.043
51782W        W16767  43.371  22.830  14.174
51783W        W16768  44.392  14.404  12.148
51784W        W16769  33.626  10.147   3.691
51785W        W16770   5.136  27.420   0.136
51786W        W16771  41.379   2.824  12.802
51787W        W16772  24.061  29.484  13.822
51788W        W16773  19.589  17.836  10.661
51789W        W16774  16.568  31.354  14.896
51790W        W16775  19.295  41.554  12.511
51791W        W16776  24.164  17.830   2.808
51792W        W16777  37.492   5.338   0.772
51793W        W16778  20.554  37.565  10.715
51794W        W16779   3.125   0.247  13.770
51795W        W16780   7.542   3.968   4.450
51796W        W16781  26.079  17.829  11.914
51797W        W16782  34.982  34.191  10.102
51798W        W16783  42.742  15.581   1.440
51799W        W16784  36.667   0.877   4.530
51800W        W16785  22.950  44.245  13.235
51801W        W16786  35.361   3.157  14.480
51802W        W16787  29.880  29.544  10.648
51803W        W16788   8.707  34.992  13.539
51804W        W16789  11.195  30.594  13.337
51805W        W16790   5.919  28.745   4.517
51806W        W16791  40.205  19.696   3.775
51807W        W16792  26.050  17.074   0.811
51808W        W16793  27.959  36.022  12.060
51809W        W16794  10.775   4.931  12.785
51810W        W16795   8.777  23.050   2.045
51811W        W16796  38.942  10.727  11.375
51812W        W16797  11.368  18.924  14.835
51813W        W16798  42.944  27.818  10.993
51814W        W16799  27.078  36.557   1.295
51815W        W16800  20.957   5.585  12.006
51816W        W16801   4.828  22.565  11.966
51817W        W16802  12.546   6.804  11.363
51818W        W16803  27.371  19.163   4.604
51819W        W16804  37.087  18.276  10.630
51820W        W16805  19.286  29.296  10.355
51821W        W16806  29.417  28.960   1.312
51822W        W16807  14.110  41.054   3.684
51823W        W16808  29.693   5.168   1.794
51824W        W16809  29.486  29.094   4.492
51825W        W16810   2.976  23.205   4.601
51826W        W16811   5.886  24.055   4.460
51827W        W16812  33.847  35.934  11.505
51828W        W16813  13.149  36.349  10.722
51829W        W16814  43.958  22.030   2.756
51830W        W16815   3.867  18.516   3.216
51831W        W16816  42.202  13.254  11.093
51832W        W16817  12.835  42.030   1.005
51833W        W16818  32.964  26.794  12.277
51834W        W16819  29.975  15.060  13.798
51835W        W16820  19.313   8.629  12.428
51836W        W16821  31.583  12.877   1.670
51837W        W16822   1.491  30.595  11.188
51838W        W16823  22.834  10.725   1.189
51839W        W16824  34.398  31.325  13.080
51840W        W16825  31.794  28.001   2.785
51841W        W16826  36.568  25.008   4.964
51842W        W16827  41.351  27.604  10.566
51843W        W16828  15.350  14.096  11.552
51844W        W16829  23.126   4.309   4.757
51845W        W16830  39.409   0.521   3.223
51846W        W16831   7.733   8.700   2.363
51847W        W16832  41.485  38.649  11.208
51848W        W16833   0.346  40.987  12.537
51849W        W16834  20.478  39.035   4.146
51850W        W16835  26.138  23.741   3.081
51851W        W16836  20.823  37.526   2.879
51852W        W16837  36.900  30.572  12.039
51853W        W16838  34.214  35.439  13.373
51854W        W16839  25.101  30.315  13.430
51855W        W16840  44.303  33.833   3.707
51856W        W16841  36.891  14.579  11.205
51857W        W16842  13.170  25.738  12.882
51858W        W16843   4.609   8.010   1.213
51859W        W16844   0.787   0.315  10.572
51860W        W16845  28.743  13.336  11.600
51861W        W16846  26.417  14.105   3.010
51862W        W16847  10.383  32.190  14.793
51863W        W16848  10.615  31.658   3.323
51864W        W16849   4.532  28.830  13.595
51865W        W16850  42.257  33.469  13.509
51866W        W16851  14.181  10.783   2.011
51867W        W16852  34.258  15.237  11.120
51868W        W16853   0.282  39.140   1.092
51869W        W16854   8.430   1.793   4.552
51870W        W16855   3.535  28.642   1.264
51871W        W16856  25.302  11.298  14.430
51872W        W16857  43.755  24.504  13.033
51873W        W16858   7.186  40.936   2.847
51874W        W16859  35.605  33.510  12.423
51875W        W16860  11.791  27.672  14.507
51876W        W16861  23.614  21.341  13.963
51877W        W16862  15.803  30.699  12.549
51878W        W16863   2.017  27.140  11.620
51879W        W16864  11.479  34.315   4.223
51880W        W16865   4.478  36.648   2.752
51881W        W16866  30.072   6.523   4.567
51882W        W16867  31.067  35.255  13.110
51883W        W16868  21.055   5.369   3.684
51884W        W16869  27.217  30.646   1.187
51885W        W16870  35.459  44.653   2.304
51886W        W16871   5.632  34.575   4.587
51887W        W16872  19.798  23.446   1.871
51888W        W16873   1.715  36.155   2.800
51889W        W16874  24.451   2.491  14.006
51890W        W16875  19.626  24.517   5.161
51891W        W16876   7.752   2.386  13.157
51892W        W16877  14.616  14.740  11.681
51893W        W16878  33.625  44.792   0.773
51894W        W16879  24.613   1.300  11.938
51895W        W16880  34.643  29.248   0.374
51896W        W16881   9.148   4.392  14.024
51897W        W16882  27.462   4.462  10.804
51898W        W16883   7.351  15.514  10.673
51899W        W16884  10.632  41.035  12.020
51900W        W16885  25.642  20.029   1.822
51901W        W16886  42.573  19.272   5.475
51902W        W16887  10.650  22.088  13.367
51903W        W16888  15.823  36.429   0.733
51904W        W16889  18.253   1.375   0.312
51905W        W16890  37.458   3.398   4.613
51906W        W16891  41.975  33.402   4.703
51907W        W16892  22.371  41.892   1.504
51908W        W16893  33.079   8.821   1.431
51909W        W16894  32.918  34.076   1.056
51910W        W16895  43.503  13.774   0.257
51911W        W16896  17.165  18.127   0.241
51912W        W16897   1.332   8.169   2.384
51913W        W16898  10.204  25.505   3.500
51914W        W16899   7.143  43.521   2.741
51915W        W16900  32.733   0.815   4.143
51916W        W16901  19.823   1.151   3.855
51917W        W16902  27.961  14.579   4.802
51918W        W16903  10.656   0.346   2.761
51919W        W16904   5.832   7.523   1.766
51920W        W16905  28.418  23.939  11.575
51921W        W16906  32.466   1.948  14.335
51922W        W16907   3.084  39.413  12.973
51923W        W16908  38.922  44.257   4.084
51924W        W16909  41.524  26.409   2.808
51925W        W16910  35.954  24.011  12.758
51926W        W16911   8.295  32.929  13.067
51927W        W16912   4.379  28.893   2.778
51928W        W16913  11.655  36.531   0.904
51929W        W16914   4.360  17.787  10.426
51930W        W16915  20.901   8.368   0.829
51931W        W16916  38.829   7.461   4.654
51932W        W16917   5.855  36.471  12.426
51933W        W16918   1.025  39.921   0.013
51934W        W16919  18.108  24.194  13.818
51935W        W16920  21.983  41.563   0.802
51936W        W16921  31.500  44.692   4.712
51937W        W16922  44.234  34.553   4.978
51938W        W16923  36.303   6.646  11.104
51939W        W16924  43.036  18.788   1.952
51940W        W16925  44.368  27.272  13.972
51941W        W16926  23.130  24.741   4.118
51942W        W16927   7.108  16.552  13.365
51943W        W16928  31.079  26.672   0.941
51944W        W16929  15.613   4.635  11.066
51945W        W16930   8.757   7.504   2.285
51946W        W16931  26.066  44.272   1.880
51947W        W16932  42.428  40.216  14.020
51948W        W16933   3.736  40.944  13.931
51949W        W16934  22.890  28.505   2.079
51950W        W16935  12.638  29.238   4.252
51951W        W16936   2.165  13.420  11.560
51952W        W16937   1.248  35.038  12.580
51953W        W16938  22.203  39.595   1.310
51954W        W16939  30.820  25.124   0.310
51955W        W16940  37.004  22.525  12.098
51956W        W16941  15.534  24.144   1.678
51957W        W16942  40.458  15.568   4.329
51958W        W16943  25.905  14.661  14.453
51959W        W16944   7.693  20.515   1.375
51960W        W16945   2.974   7.810   2.456
51961W        W16946  14.365   5.713   5.524
51962W        W16947   6.887  27.942  14.055
51963W        W16948  19.169  12.612   0.866
51964W        W16949  18.164   2.292   0.217
51965W        W16950   2.983  31.949  13.395
51966W        W16951  35.484  31.493   0.208
51967W        W16952   7.370  15.394   2.314
51968W        W16953  41.010  34.816   1.882
51969W        W16954  36.851   1.885   1.198
51970W        W16955  44.447  27.203  10.665
51971W        W16956  32.003   2.865   0.889
51972W        W16957  14.574   6.415  11.837
51973W        W16958  38.624  27.604   0.364
51974W        W16959   7.343  17.075  11.252
51975W        W16960  20.551   0.276  12.934
51976W        W16961  43.874  14.091  11.186
51977W        W16962   6.337  31.835   3.581
51978W        W16963  17.318   4.832  13.436
51979W        W16964   0.966   7.689   0.838
51980W        W16965  12.321   0.752   0.424
51981W        W16966  38.799  29.861   0.245
51982W        W16967  21.818  14.833   2.654
51983W        W16968  30.015  41.891  10.523
51984W        W16969  14.264  43.012   0.718
51985W        W16970  33.871   1.210   3.244
51986W        W16971  38.531   1.293   1.216
51987W        W16972   1.480   2.246   3.050
51988W        W16973  29.567  14.103  12.731
51989W        W16974  31.535   0.769   2.241
51990W        W16975  26.682  26.532   0.357
51991W        W16976  30.456  30.727   1.396
51992W        W16977  24.078  32.496  13.726
51993W        W16978  22.235  36.866   3.514
51994W        W16979  22.766  21.272  10.729
51995W        W16980  38.510  18.265  12.881
51996W        W16981  19.918  12.902   2.385
51997W        W16982  32.520  20.692  10.752
51998W        W16983  43.808  31.877  14.446
51999W        W16984   2.740  27.555  13.273
52000W        W16985  41.350  13.341  10.764
52001W        W16986  11.850   7.131  13.287
52002W        W16987  31.512  42.295  12.969
52003W        W16988   5.700  11.882  13.913
52004W        W16989  18.172  11.136   1.173
52005W        W16990  31.151  41.189  12.555
52006W        W16991  44.548  19.625   3.197
52007W        W16992  43.255  44.993  12.762
52008W        W16993   7.286  35.761   0.379
52009W        W16994  22.633  35.039   1.884
52010W        W16995  25.595   0.199   4.160
52011W        W16996  14.782  12.132  11.530
52012W        W16997   4.635   0.290   2.425
52013W        W16998  30.792  22.521   1.826
52014W        W16999  33.999  41.341   4.907
52015W        W17000  11.790   6.852  12.443
52016W        W17001  42.980   8.048   3.719
52017W        W17002  23.215  40.130  10.931
52018W        W17003   7.764  32.151  11.471
52019W        W17004   4.130  21.041   3.404
52020W        W17005  27.495  43.843  10.823
52021W        W17006  25.128   5.725   2.726
52022W        W17007  44.731  17.130   2.860
52023W        W17008  23.446   6.240  10.603
52024W        W17009  12.069  18.552   0.927
52025W        W17010   3.174   1.878  13.262
52026W        W17011  20.617   4.400  13.872
52027W        W17012  12.235   6.873  13.497
52028W        W17013  29.668  41.922   3.270
52029W        W17014  19.260   5.735   3.324
52030W        W17015  17.026  12.891   3.631
52031W        W17016  43.083  33.828  12.230
52032W        W17017   0.720  17.178  14.969
52033W        W17018  23.137  14.964   4.899
52034W        W17019  40.362  35.013  13.871
52035W        W17020  30.367  12.245  12.098
52036W        W17021  10.868  24.610  14.884
52037W        W17022  16.001  23.255   3.275
52038W        W17023  42.010  19.812  14.442
52039W        W17024   3.833  31.041  10.656
52040W        W17025  31.083  36.854  12.079
52041W        W17026  35.607   8.453   2.865
52042W        W17027  14.544  28.108  13.911
52043W        W17028  21.264   5.996   9.948
52044W        W17029  12.326  32.929   4.081
52045W        W17030   4.235  44.938  14.726
52046W        W17031  33.575   7.248   3.599
52047W        W17032  31.440  33.490  12.044
52048W        W17033   6.561  40.099  13.378
52049W        W17034  15.028  36.353   4.407
52050W        W17035  44.406  35.098   3.082
52051W        W17036   1.268   3.490   3.589
52052W        W17037   4.248  41.917  12.888
52053W        W17038  33.717  27.392  14.423
52054W        W17039   4.934   9.768   9.952
52055W        W17040  32.112  16.272   4.615
52056W        W17041  11.778  17.746  12.029
52057W        W17042  40.839  25.766  12.097
52058W        W17043   3.196  12.860  14.251
52059W        W17044   1.066  26.563  14.186
52060W        W17045  12.418   9.355  10.995
52061W        W17046  19.681  21.124  13.844
52062W        W17047  40.512   6.323   0.341
52063W        W17048  14.622  21.169  10.673
52064W        W17049  40.818  40.328  11.265
52065W        W17050  35.385  37.019   4.135
52066W        W17051  35.386   8.209  14.001
52067W        W17052  10.787  15.160  12.040
52068W        W17053  37.343  14.261  11.933
52069W        W17054  18.089  26.974   5.465
52070W        W17055   2.251   4.173  10.801
52071W        W17056  28.119  23.150   1.993
52072W        W17057  28.001  43.690   4.568
52073W        W17058  37.981  44.743   2.466
52074W        W17059  40.784   5.321  14.456
52075W        W17060  25.253   8.079  14.499
52076W        W17061  19.177  36.762   3.511
52077W        W17062   0.541  14.852  10.322
52078W        W17063   7.885  35.377   4.155
52079W        W17064   6.852  16.107  13.483
52080W        W17065  12.236   1.357  10.733
52081W        W17066  37.118   1.100   0.808
52082W        W17067   7.462  19.112  11.172
52083W        W17068  20.096   0.799   3.558
52084W        W17069  31.992   8.769  13.352
52085W        W17070  10.649  19.059  10.767
52086W        W17071  12.315   2.833   4.321
52087W        W17072  25.217  33.994   3.998
52088W        W17073  30.385  21.696  14.258
52089W        W17074  11.398   3.810  14.074
52090W        W17075  11.369  19.516  11.319
52091W        W17076  43.590  37.926   4.361
52092W        W17077  31.463  40.558  14.462
52093W        W17078   8.872  44.553   2.348
52094W        W17079  12.623  40.604   1.757
52095W        W17080  34.088  20.230   1.897
52096W        W17081  42.999   4.005   3.112
52097W        W17082   5.059  35.341   1.248
52098W        W17083  21.524  11.097  10.611
52099W        W17084   3.889  23.559  14.736
52100W        W17085  12.347  21.845   0.730
52101W        W17086   3.188  40.467  13.175
52102W        W17087  29.649  29.018  14.767
52103W        W17088  32.070  40.632   0.449
52104W        W17089  16.593  18.733   4.077
52105W        W17090  22.897  16.048   3.056
52106W        W17091  20.002   6.191   3.354
52107W        W17092   0.705  12.623   4.136
52108W        W17093  21.843  25.602   1.519
52109W        W17094   3.815   0.236  13.370
52110W        W17095  16.595  15.972   4.962
52111W        W17096  10.403  33.985  10.484
52112W        W17097  10.332   1.444   0.466
52113W        W17098  23.900   7.989  11.095
52114W        W17099   1.403  29.635  12.689
52115W        W17100   3.715  12.744  12.065
52116W        W17101  41.462  37.740  11.656
52117W        W17102   7.732  12.876   1.257
52118W        W17103  20.070  33.071  14.907
52119W        W17104  44.984  20.841  14.771
52120W        W17105  43.046  33.786  11.666
52121W        W17106  29.532  38.757   2.677
52122W        W17107  29.940  29.500   2.765
52123W        W17108  33.760  12.269  10.409
52124W        W17109  32.918  44.331  14.497
52125W        W17110   5.665  22.533  14.865
52126W        W17111   7.719   9.084  14.878
52127W        W17112  39.782   8.463  10.622
52128W        W17113  13.188  21.548   0.175
52129W        W17114  28.152  10.140  13.017
52130W        W17115  28.545  42.926  11.883
52131W        W17116  16.377  40.489  12.200
52132W        W17117  43.083  28.677   4.075
52133W        W17118  23.422  11.893  12.046
52134W        W17119  41.450   7.314  14.301
52135W        W17120  13.084   0.901   3.639
52136W        W17121  34.646  19.863   1.331
52137W        W17122  10.938   6.913  13.513
52138W        W17123  32.077  18.387  13.398
52139W        W17124   6.364  20.567  12.640
52140W        W17125   4.581  11.486   2.856
52141W        W17126   3.592   9.313  11.418
52142W        W17127  41.719  17.564   4.255
52143W        W17128  21.615  17.368   3.687
52144W        W17129  26.059  39.314  12.870
52145W        W17130   7.689  29.926  13.924
52146W        W17131  28.694  31.788   4.470
52147W        W17132  30.867  40.920  11.260
52148W        W17133  37.982  18.067  14.774
52149W        W17134  19.047  12.190   4.782
52150W        W17135  14.237  17.571  13.423
52151W        W17136  12.272  31.257  14.983
52152W        W17137  24.747  28.982   1.864
52153W        W17138  21.014   3.991   4.549
52154W        W17139  17.846  40.333   1.581
52155W        W17140  31.012  24.688   4.331
52156W        W17141  18.247  39.897  10.778
52157W        W17142  12.108  40.593   2.826
52158W        W17143  39.772  16.752   3.209
52159W        W17144  27.722  10.778   2.823
52160W        W17145  43.369  23.365   2.275
52161W        W17146  36.111  24.683   0.905
52162W        W17147  43.240  29.589  14.838
52163W        W17148  37.119  23.548  12.138
52164W        W17149  26.572  15.797  12.353
52165W        W17150   7.330  31.091   0.009
52166W        W17151  34.191   4.296   0.778
52167W        W17152  44.174   5.654  11.146
52168W        W17153  21.620   6.654  11.653
52169W        W17154  14.810  19.483  12.550
52170W        W17155  24.438   2.400  14.735
52171W        W17156   8.910  23.125   4.725
52172W        W17157  40.601  17.678  14.956
52173W        W17158  23.661  10.735  14.858
52174W        W17159  39.396  39.928   4.588
52175W        W17160  26.656  20.487  13.953
52176W        W17161  11.827  18.665   3.135
52177W        W17162   1.215   0.082  13.036
52178W        W17163   3.701  31.680  11.478
52179W        W17164  19.994  31.217  14.486
52180W        W17165  40.521  35.800  13.413
52181W        W17166   6.588  22.019  12.382
52182W        W17167   4.815  20.806  10.781
52183W        W17168  41.278  30.941  13.574
52184W        W17169  16.306   8.875   3.674
52185W        W17170   8.726  43.209   0.278
52186W        W17171  33.797  20.632  14.408
52187W        W17172  39.983  27.560  11.945
52188W        W17173  22.410  36.851  14.163
52189W        W17174   1.871  36.037   0.310
52190W        W17175  10.267  36.874   0.751
52191W        W17176  18.251  29.843   4.321
52192W        W17177   1.852  26.692  14.804
52193W        W17178   7.630   6.816   0.353
52194W        W17179   2.339  24.194  14.825
52195W        W17180   8.695   6.364  10.181
52196W        W17181  17.631  21.243   0.398
52197W        W17182  31.917  14.244  14.408
52198W        W17183  18.857  41.032   3.707
52199W        W17184  38.017  18.767   2.262
52200W        W17185   3.123   3.820   0.461
52201W        W17186   6.663   9.616  12.913
52202W        W17187  21.520  28.959   1.330
52203W        W17188   9.315   7.436  13.673
52204W        W17189  34.974  36.991  14.740
52205W        W17190   3.900   4.929   0.091
52206W        W17191  12.577  42.804  14.798
52207W        W17192  10.902   2.508  13.511
52208W        W17193  28.104   4.663  14.052
52209W        W17194  35.837   0.874   3.279
52210W        W17195  14.531  20.679  12.463
52211W        W17196  33.787   3.451   4.820
52212W        W17197   7.657   2.021  10.641
52213W        W17198  44.396   1.049  11.969
52214W        W17199  43.298  41.596   2.207
52215W        W17200  26.590  32.192   3.225
52216W        W17201   6.791  11.408   2.297
52217W        W17202  17.223  28.007   0.015
52218W        W17203  43.091  11.593   1.868
52219W        W17204  20.518   7.663  10.301
52220W        W17205   4.264  41.263   1.657
52221W        W17206  16.435  19.217  11.622
52222W        W17207  10.367   8.786   2.264
52223W        W17208   8.168  43.444  13.447
52224W        W17209  34.704  36.340  11.520
52225W        W17210  21.607  42.815  13.486
52226W        W17211  28.060  42.411   0.111
52227W        W17212  33.877   3.325   0.415
52228W        W17213  35.569  42.013  11.224
52229W        W17214  25.932  13.229   0.833
52230W        W17215   2.906  44.926  11.997
52231W        W17216  33.664  24.617  13.954
52232W        W17217  42.428  31.429   2.757
52233W        W17218  20.082  38.337   4.626
52234W        W17219  27.165  11.648  13.332
52235W        W17220  31.476  17.802  12.093
52236W        W17221   5.270  25.198  13.852
52237W        W17222  20.452  12.327   3.262
52238W        W17223  22.521  42.039   0.257
52239W        W17224  41.369  38.971  13.029
52240W        W17225  19.508  11.865   4.067
52241W        W17226   8.244   2.007   1.219
52242W        W17227  23.141  23.099  10.722
52243W        W17228  21.971   7.885   3.263
52244W        W17229  44.985  15.488  10.756
52245W        W17230  31.184  32.446  14.207
52246W        W17231   3.206  15.923  14.083
52247W        W17232  23.566  15.063   4.080
52248W        W17233  25.151  23.872   3.277
52249W        W17234   7.612  37.949  10.655
52250W        W17235  35.945  12.668  12.872
52251W        W17236  14.185  30.643   0.506
52252W        W17237  13.872  37.611  14.436
52253W        W17238   0.320   5.889  11.624
52254W        W17239  10.209  22.152  14.841
52255W        W17240  14.212  22.993   1.365
52256W        W17241  10.254   5.424   2.270
52257W        W17242   4.681  30.712  12.917
52258W        W17243  14.087  29.651  11.464
52259W        W17244   3.225  30.973   3.098
52260W        W17245  40.006  41.500  14.939
52261W        W17246   0.051  27.761   5.485
52262W        W17247  30.406   0.796   2.304
52263W        W17248  15.501   9.252   2.667
52264W        W17249  25.144  14.324   1.724
52265W        W17250  44.785  26.619  13.513
52266W        W17251  44.400  32.173   1.780
52267W        W17252  35.946  30.215  11.574
52268W        W17253   1.312  43.386  14.535
52269W        W17254   0.814   6.709  12.646
52270W        W17255  11.148  35.062   2.646
52271W        W17256  18.546   6.644  12.521
52272W        W17257  10.467  18.122   4.749
52273W        W17258  37.450  37.028  11.525
52274W        W17259  32.042  30.025  10.571
52275W        W17260  20.002   3.379   0.713
52276W        W17261  24.973  31.353  12.594
52277W        W17262   3.217  17.824   0.743
52278W        W17263  31.117  15.341   0.510
52279W        W17264  38.338   9.755  14.137
52280W        W17265  36.875  31.610   2.292
52281W        W17266  35.516   6.455  14.293
52282W        W17267   0.437  26.401  11.404
52283W        W17268  13.736   1.769   1.411
52284W        W17269  36.398  19.535   2.667
52285W        W17270  10.850  30.432  11.026
52286W        W17271  43.490  34.511  12.463
52287W        W17272  27.560  33.158  13.102
52288W        W17273  40.938   3.635  11.900
52289W        W17274  10.049  13.877   3.535
52290W        W17275   6.176  22.422   3.099
52291W        W17276   9.665  23.805   4.646
52292W        W17277  37.987  33.755   4.889
52293W        W17278   8.848  27.408  11.592
52294W        W17279   0.812  18.506   2.785
52295W        W17280  38.175  10.628   9.791
52296W        W17281  18.014   3.581  13.838
52297W        W17282   4.218  38.920  14.880
52298W        W17283  32.182  31.622  13.459
52299W        W17284  36.104  30.964   4.161
52300W        W17285  24.643   7.808   4.818
52301W        W17286  16.496  28.765   1.969
52302W        W17287   7.896  42.568  10.896
52303W        W17288  31.609  32.031  11.214
52304W        W17289  20.698  26.704   4.580
52305W        W17290  38.655  28.336  11.652
52306W        W17291   2.769  40.761   3.260
52307W        W17292   2.284  21.550   3.565
52308W        W17293  28.704   8.682  14.672
52309W        W17294  36.139  27.949   1.902
52310W        W17295  12.141  42.256  12.929
52311W        W17296  34.391  12.018  12.494
52312W        W17297  12.825  30.665  10.314
52313W        W17298  39.155  20.590   1.824
52314W        W17299  43.900  22.231   3.225
52315W        W17300   7.143  28.586  14.402
52316W        W17301  42.514  40.606   3.315
52317W        W17302  35.845  22.781  10.996
52318W        W17303  29.711  28.620  10.281
52319W        W17304  37.044  28.675   1.375
52320W        W17305  18.710  29.903   4.054
52321W        W17306   3.768  30.670  14.354
52322W        W17307   6.300   2.774  14.960
52323W        W17308  34.049  13.251   4.777
52324W        W17309  17.257  30.306   3.714
52325W        W17310  26.172  38.039   0.893
52326W        W17311  31.935  40.359  10.498
52327W        W17312   9.823  13.312   1.825
52328W        W17313  30.659  35.910  14.520
52329W        W17314  11.817   4.860  13.098
52330W        W17315  23.005  16.882   0.345
52331W        W17316  12.529   6.690   2.481
52332W        W17317  31.169  35.074  14.839
52333W        W17318   4.561  21.575   3.111
52334W        W17319  31.646  42.703   1.457
52335W        W17320  19.340  17.653  11.087
52336W        W17321  39.431  29.104   2.611
52337W        W17322   7.746  22.812  13.370
52338W        W17323  19.789   5.224   3.561
52339W        W17324  36.548  24.675   4.569
52340W        W17325  38.005  19.194  11.588
52341W        W17326  17.679  24.497  13.738
52342W        W17327  35.755  30.536  11.958
52343W        W17328  21.171  25.987  14.250
52344W        W17329   0.099  12.311   3.821
52345W        W17330  32.142   3.306   2.906
52346W        W17331  16.393  10.460   1.438
52347W        W17332  43.868  18.144   5.096
52348W        W17333  25.778   5.338  12.913
52349W        W17334  10.030  23.636   0.011
52350W        W17335  39.415  16.998  14.107
52351W        W17336  19.497  41.238   0.771
52352W        W17337  41.044  18.613   0.016
52353W        W17338   2.892   9.653   0.274
52354W        W17339  24.587   7.187  12.735
52355W        W17340  42.309  32.220  12.837
52356W        W17341  25.151  23.114  14.476
52357W        W17342  27.327  36.595   3.483
52358W        W17343   2.660   8.437  13.585
52359W        W17344   6.754  16.265  10.595
52360W        W17345  42.838  31.647  12.311
52361W        W17346  12.123   8.253  14.525
52362W        W17347  32.182  12.392   3.773
52363W        W17348  15.927   5.690   2.804
52364W        W17349  34.641  43.747   3.852
52365W        W17350  43.578  30.774   4.946
52366W        W17351   9.405  33.384  10.818
52367W        W17352   6.228  28.044  10.759
52368W        W17353   9.616  39.190  11.919
52369W        W17354  44.396  38.318  13.972
52370W        W17355  40.942  28.094   0.364
52371W        W17356   5.520   9.222   1.872
52372W        W17357  17.607  40.781   0.280
52373W        W17358  41.834  31.480   3.834
52374W        W17359  36.278  17.779  11.932
52375W        W17360  31.221  18.037  14.773
52376W        W17361   1.563  17.794   2.068
52377W        W17362   3.752  44.244  14.468
52378W        W17363  14.378  10.582  10.284
52379W        W17364   0.315  18.870   4.588
52380W        W17365  19.408  13.222  12.942
52381W        W17366  13.478   8.701   1.934
52382W        W17367   1.744  13.610  12.072
52383W        W17368  42.398  13.996  11.528
52384W        W17369  17.366  10.699   4.230
52385W        W17370  27.483  38.475  14.965
52386W        W17371  13.399  40.294   3.674
52387W        W17372  25.165  21.267  14.746
52388W        W17373  28.270  26.461  12.495
52389W        W17374  19.788   1.792   4.719
52390W        W17375  18.191  32.970  14.329
52391W        W17376  24.514  19.747   2.748
52392W        W17377  38.908  31.904  11.883
52393W        W17378   7.857  21.594   4.569
52394W        W17379  37.328  22.810  12.981
52395W        W17380  17.171  20.410  10.629
52396W        W17381  34.324  25.740   2.764
52397W        W17382  38.920  10.086   3.685
52398W        W17383   1.123   1.596  12.040
52399W        W17384   7.513  34.938  11.501
52400W        W17385   7.581   7.395   5.074
52401W        W17386  24.448  44.857   1.905
52402W        W17387  42.082  25.819   1.182
52403W        W17388  31.808   2.427  12.256
52404W        W17389  32.960  30.663  10.457
52405W        W17390   7.084  20.317  11.787
52406W        W17391  27.622  18.978  12.506
52407W        W17392  24.692  17.591   3.607
52408W        W17393  29.546  16.555   3.380
52409W        W17394  29.935  34.448   3.569
52410W        W17395  35.655  29.381  13.690
52411W        W17396  25.663  11.123  11.622
52412W        W17397  21.837  40.822  14.869
52413W        W17398  18.250  32.615   2.192
52414W        W17399  37.466  24.100  14.692
52415W        W17400  27.704  43.532   0.383
52416W        W17401  18.834  34.937  12.848
52417W        W17402  32.478   8.275   0.464
52418W        W17403  10.253   1.486  12.994
52419W        W17404   9.795  19.613   3.700
52420W        W17405  14.659  39.427  10.508
52421W        W17406  23.035  44.923  11.151
52422W        W17407  20.191  21.537  14.190
52423W        W17408  33.698  31.086  11.085
52424W        W17409   0.635  41.394  12.413
52425W        W17410  12.292  21.188  13.785
52426W        W17411  24.730   5.428   4.158
52427W        W17412  31.689  22.140  11.873
52428W        W17413  29.963   4.763   2.690
52429W        W17414   7.935  19.173  11.720
52430W        W17415  37.208  33.111  12.090
52431W        W17416   7.729   1.930  13.651
52432W        W17417  10.549  28.421   3.841
52433W        W17418  16.522  36.251   1.083
52434W        W17419  23.012  13.425   2.211
52435W        W17420  19.357   6.763  13.108
52436W        W17421   8.225  16.976  12.495
52437W        W17422  33.514  43.920  11.904
52438W        W17423  39.024   7.102  11.668
52439W        W17424  41.429  43.280   1.013
52440W        W17425   0.949   5.704   3.747
52441W        W17426  30.228  31.473  10.303
52442W        W17427  20.217  44.976   4.097
52443W        W17428  23.169  21.923  12.934
52444W        W17429  19.664   6.209   2.711
52445W        W17430  27.037  21.246   4.161
52446W        W17431  17.303  14.172   1.853
52447W        W17432  22.438   2.427   0.831
52448W        W17433  22.999   7.794   2.358
52449W        W17434  15.878   5.323  13.127
52450W        W17435   3.895  26.006  13.831
52451W        W17436  36.615  41.769   1.296
52452W        W17437   1.648  44.987  10.946
52453W        W17438   1.289  30.741   1.355
52454W        W17439  14.978  23.032  13.043
52455W        W17440  41.547  27.988   1.398
52456W        W17441  13.786  41.023  12.404
52457W        W17442   1.204   3.092   1.440
52458W        W17443  32.332  22.956   1.354
52459W        W17444  10.767  41.302   0.713
52460W        W17445  38.449  34.925  10.026
52461W        W17446  35.422   0.778  14.770
52462W        W17447  12.195   0.545  14.957
52463W        W17448  25.014   5.544  10.490
52464W        W17449  28.542  13.665  13.462
52465W        W17450  14.342  15.720   5.028
52466W        W17451  13.180  31.404   4.528
52467W        W17452  10.745  16.629   3.155
52468W        W17453   0.936  27.582   4.606
52469W        W17454  10.665  20.856   2.697
52470W        W17455  26.867   0.625   5.039
52471W        W17456   5.480  34.843  12.337
52472W        W17457  36.062  29.101  13.478
52473W        W17458   9.936  37.938   3.519
52474W        W17459   0.234   5.096  11.119
52475W        W17460   7.910  26.101  14.600
52476W        W17461  26.250  17.329   1.755
52477W        W17462   1.224  10.618  10.704
52478W        W17463   9.673  37.929   2.547
52479W        W17464  24.192  28.444   0.489
52480W        W17465   7.581  19.105  12.085
52481W        W17466   3.073  21.160   5.101
52482W        W17467  15.649  43.794   0.708
52483W        W17468  28.185   8.312  12.996
52484W        W17469  30.958  16.077  13.902
52485W        W17470   0.410  11.360   2.268
52486W        W17471  33.645  11.180   1.826
52487W        W17472  32.630  38.217  12.040
52488W        W17473   3.400  26.748  14.884
52489W        W17474  22.445  15.571   0.284
52490W        W17475  28.509  28.722   1.157
52491W        W17476  28.942  23.187   4.169
52492W        W17477   7.240  16.807  13.813
52493W        W17478  35.807  18.725  14.350
52494W        W17479  22.523   2.735   2.854
52495W        W17480  20.792   5.155   0.827
52496W        W17481  37.050  41.331  13.901
52497W        W17482   8.155  43.756   0.832
52498W        W17483  16.429  40.042   3.797
52499W        W17484   0.281  21.541  11.121
52500W        W17485  35.785   4.149   1.745
52501W        W17486  19.467  10.633  13.376
52502W        W17487  18.381  16.698  13.086
52503W        W17488  29.221  34.207  11.390
52504W        W17489   5.867  42.253   4.314
52505W        W17490  35.493   9.323  13.056
52506W        W17491   7.161  20.642   4.130
52507W        W17492  10.088   6.006  14.292
52508W        W17493  32.138  18.291   1.385
52509W        W17494  13.725   0.341  12.318
52510W        W17495  30.528  26.232   1.837
52511W        W17496   7.005  28.697   3.148
52512W        W17497  17.704  10.349   1.988
52513W        W17498  28.469  39.446   3.082
52514W        W17499  43.826   6.648   3.268
52515W        W17500  44.320   0.400  12.529
52516W        W17501  25.075  24.966   0.411
52517W        W17502   6.221  41.623  14.954
52518W        W17503  28.506   5.700   2.141
52519W        W17504   8.631  40.332  12.936
52520W        W17505  36.629  17.588   4.864
52521W        W17506   6.878  18.706  14.180
52522W        W17507  25.704  32.938  13.951
52523W        W17508  16.694   9.364  11.164
52524W        W17509  36.939  34.446  11.958
52525W        W17510  36.190  30.662   2.907
52526W        W17511  15.796  30.106  13.609
52527W        W17512  44.676  23.636   9.929
52528W        W17513  15.575  43.821   1.230
52529W        W17514  30.021  29.212   1.017
52530W        W17515  35.899  40.972  14.365
52531W        W17516  35.887   1.207   4.468
52532W        W17517  13.142  21.498  13.011
52533W        W17518  37.482  22.678   5.064
52534W        W17519  30.525  43.687   2.398
52535W        W17520  19.496  21.197  10.356
52536W        W17521  18.820  18.175   3.093
52537W        W17522  43.326  29.611  13.853
52538W        W17523  36.526  22.431  11.219
52539W        W17524  42.860  30.669   1.481
52540W        W17525  36.880  11.183  11.639
52541W        W17526   8.656  22.096   3.345
52542W        W17527   1.767  36.598   1.386
52543W        W17528  11.144   9.327  14.003
52544W        W17529  15.376  17.322   4.481
52545W        W17530  42.037  19.520   1.957
52546W        W17531   7.303  30.660   3.656
52547W        W17532  34.955  41.363   3.267
52548W        W17533  34.539  34.471   3.177
52549W        W17534  33.671  12.624  11.475
52550W        W17535  15.233  33.171   3.571
52551W        W17536  39.898  20.723   3.695
52552W        W17537  34.387  34.433  12.104
52553W        W17538  20.506  35.259   1.354
52554W        W17539   5.908  18.576  12.165
52555W        W17540  29.941  34.033   3.870
52556W        W17541  41.306  13.803   1.468
52557W        W17542  43.707  43.869   4.009
52558W        W17543  30.164   0.378  14.043
52559W        W17544   8.751  36.897   4.298
52560W        W17545  19.711  10.427  11.241
52561W        W17546  31.072  25.638   3.952
52562W        W17547  15.893   8.875  10.788
52563W        W17548  25.616  35.832  13.363
52564W        W17549  33.355  11.728  13.881
52565W        W17550  35.404  27.141  14.914
52566W        W17551  40.496   8.970   4.160
52567W        W17552  39.507  38.809   5.249
52568W        W17553  37.881  23.980   4.271
52569W        W17554  21.086  32.467   4.030
52570W        W17555  21.018  33.142   1.389
52571W        W17556  35.888  20.915   2.157
52572W        W17557  13.798  44.977  13.439
52573W        W17558  17.504   1.750   0.781
52574W        W17559  44.694  39.906  12.015
52575W        W17560   9.034  13.171  14.283
52576W        W17561  13.699  26.900   1.317
52577W        W17562  39.971   5.619  12.830
52578W        W17563  34.722  13.898  12.559
52579W        W17564  28.692  38.871  12.920
52580W        W17565  19.157  36.339   4.387
52581W        W17566  20.492  26.282   3.282
52582W        W17567  38.853  37.108  10.790
52583W        W17568   2.369  16.736  12.619
52584W        W17569  19.639   4.122   4.302
52585W        W17570   7.913   8.331   1.370
52586W        W17571  32.563  27.503  12.882
52587W        W17572  33.619  18.105  13.189
52588W        W17573  40.401  38.271  11.517
52589W        W17574   4.719  31.354   4.345
52590W        W17575  34.372  42.723   4.531
52591W        W17576  30.412  18.544  14.840
52592W        W17577  31.595  43.774  12.000
52593W        W17578  17.760  15.599  13.100
52594W        W17579  28.154  38.372  13.536
52595W        W17580   7.826  36.954  11.365
52596W        W17581  38.461  13.086   0.712
52597W        W17582  24.663  20.550  13.936
52598W        W17583  26.250  25.144  12.876
52599W        W17584   7.953  34.524   1.925
52600W        W17585  25.473  22.562  13.302
52601W        W17586   8.713  40.400   1.448
52602W        W17587   7.963   2.960  12.474
52603W        W17588  35.148  39.957  13.874
52604W        W17589  13.812  18.209   2.344
52605W        W17590  15.875   3.674   0.715
52606W        W17591  15.194   0.945  13.261
52607W        W17592  13.399  32.014   0.001
52608W        W17593  28.517  39.365   1.274
52609W        W17594  40.758  21.178   2.293
52610W        W17595  12.080  13.557  11.729
52611W        W17596   5.451   8.826  14.613
52612W        W17597   1.507  13.652  12.564
52613W        W17598  11.324  17.067  12.049
52614W        W17599  16.348  34.665   3.346
52615W        W17600  26.204   2.408   1.261
52616W        W17601  19.023   0.339   0.889
52617W        W17602  30.429   8.830  14.941
52618W        W17603  38.035   1.685  11.587
52619W        W17604  38.343  13.716  11.370
52620W        W17605   1.740  22.996   0.469
52621W        W17606  19.173  33.875   3.085
52622W        W17607   6.129  25.641  13.876
52623W        W17608  42.326   1.871  12.674
52624W        W17609  42.451  32.863  10.822
52625W        W17610  10.830  19.260   0.763
52626W        W17611  10.365  11.149  10.842
52627W        W17612  37.949  36.870   3.999
52628W        W17613  22.128  11.952   2.131
52629W        W17614  41.856  24.619   2.443
52630W        W17615   8.262  24.664   3.402
52631W        W17616  36.042  18.880  10.858
52632W        W17617  33.932  13.574   2.373
52633W        W17618  18.616  26.539  11.250
52634W        W17619  21.497  15.027  11.602
52635W        W17620  18.369  10.122   3.912
52636W        W17621  16.722  11.114  11.379
52637W        W17622  26.624   1.829   2.588
52638W        W17623  15.272  11.135  11.832
52639W        W17624  16.098  35.927  14.423
52640W        W17625  23.001  17.069   1.320
52641W        W17626  26.617  23.821  11.458
52642W        W17627  39.809  23.049  14.393
52643W        W17628  37.510   1.195  13.548
52644W        W17629  34.918   2.877   2.558
52645W        W17630   9.829  20.625   0.456
52646W        W17631  34.241  40.862  12.046
52647W        W17632   9.369  14.523  11.103
52648W        W17633  31.702  15.191  13.324
52649W        W17634  21.487  28.436   0.821
52650W        W17635  34.836  37.916   2.399
52651W        W17636  21.678   7.547   4.572
52652W        W17637  26.562  28.127  14.782
52653W        W17638   2.866   7.139  12.211
52654W        W17639  14.115  33.536   2.669
52655W        W17640  13.723  42.376   0.921
52656W        W17641   8.678   8.781  14.039
52657W        W17642  27.657  33.800  14.236
52658W        W17643  19.352  40.050  14.396
52659W        W17644   4.491  26.380  14.395
52660W        W17645   5.331  30.390   1.431
52661W        W17646  20.053   0.516   1.746
52662W        W17647  36.818  41.303  11.225
52663W        W17648  10.755  13.355  12.321
52664W        W17649  39.461  36.502   2.105
52665W        W17650  35.938  28.341   4.523
52666W        W17651   6.721  18.656   0.492
52667W        W17652   1.640  22.851   2.197
52668W        W17653  24.016  20.536   5.344
52669W        W17654   6.671  29.381   1.842
52670W        W17655  25.701   4.859   2.630
52671W        W17656   4.259   5.648   2.269
52672W        W17657  24.052  13.361   1.491
52673W        W17658   0.832  12.085  12.901
52674W        W17659   4.476  22.757  13.178
52675W        W17660  41.300  12.274  12.512
52676W        W17661  36.313   3.906   4.162
52677W        W17662  22.939  26.486  12.359
52678W        W17663   6.141  31.848   3.115
52679W        W17664  26.062  36.130  14.015
52680W        W17665  24.070   9.410  12.968
52681W        W17666  41.416  38.780   4.636
52682W        W17667  38.082   1.411   0.920
52683W        W17668  20.145  19.946   4.608
52684W        W17669  35.325  32.034   2.768
52685W        W17670   3.704  27.882   5.107
52686W        W17671  12.349   2.846   0.389
52687W        W17672  11.480  41.484   0.125
52688W        W17673  25.613   7.634  12.633
52689W        W17674  13.063  22.934  12.195
52690W        W17675  32.508  13.625   3.466
52691W        W17676  38.011  11.767  12.066
52692W        W17677  19.120  36.208  12.097
52693W        W17678  36.632   4.756   3.139
52694W        W17679  17.234  19.801  11.335
52695W        W17680  31.103   6.301  11.848
52696W        W17681  18.701   2.895  14.194
52697W        W17682  36.080   1.828  13.760
52698W        W17683  19.431  43.784   4.127
52699W        W17684   5.126  36.108  11.047
52700W        W17685  10.920  10.157  11.218
52701W        W17686  34.559  25.429   3.926
52702W        W17687  26.306   6.210   0.424
52703W        W17688  11.424  20.320   1.796
52704W        W17689  37.031  12.398  13.416
52705W        W17690  24.495  11.889  10.740
52706W        W17691  37.593  15.330  14.900
52707W        W17692  36.613  39.335   0.690
52708W        W17693  20.425  34.650   2.712
52709W        W17694  36.338  13.151  12.113
52710W        W17695   9.290  30.911  13.373
52711W        W17696  34.913  19.294  11.016
52712W        W17697  29.684  36.005   3.084
52713W        W17698  15.097  35.369   0.346
52714W        W17699   3.617  13.079  13.913
52715W        W17700  33.995  30.986   1.111
52716W        W17701  22.809  32.743   1.078
52717W        W17702  11.026  15.039   3.738
52718W        W17703  18.222  30.892  13.039
52719W        W17704  20.330   0.227   2.729
52720W        W17705  18.842  15.307   4.846
52721W        W17706  14.186  14.172   2.252
52722W        W17707   5.883  37.591  12.847
52723W        W17708  24.191  35.848   4.733
52724W        W17709  38.888  35.770  14.525
52725W        W17710   9.568  21.501  11.731
52726W        W17711   6.234  22.646   0.772
52727W        W17712   9.294  13.128  14.950
52728W        W17713  34.224  11.355   1.346
52729W        W17714   3.817  39.408  11.912
52730W        W17715  23.253   4.155   0.810
52731W        W17716  11.759   6.404   2.739
52732W        W17717   9.313  11.306   1.488
52733W        W17718  16.529  17.054   0.799
52734W        W17719  41.368  14.362  10.862
52735W        W17720  18.838  14.800   4.686
52736W        W17721   3.856   6.520  10.153
52737W        W17722  15.281  33.438   3.145
52738W        W17723  15.405   2.766   4.110
52739W        W17724  37.044   4.410   4.161
52740W        W17725  14.574  17.958  13.484
52741W        W17726   6.189  17.231  11.159
52742W        W17727  38.879  19.010   2.458
52743W        W17728  25.121   4.846  12.516
52744W        W17729  18.608  23.516   0.447
52745W        W17730  18.540  35.467  13.490
52746W        W17731  18.430   9.000   2.770
52747W        W17732  15.832   2.498   9.953
52748W        W17733  17.287  30.466   2.201
52749W        W17734   8.418  37.813  13.385
52750W        W17735  30.084   7.342  12.394
52751W        W17736  21.260  15.741  11.215
52752W        W17737  18.434  41.708   2.140
52753W        W17738  19.809  16.699  13.232
52754W        W17739  43.266  20.862   0.433
52755W        W17740   9.829   8.905   2.161
52756W        W17741  14.108   6.445   4.857
52757W        W17742  44.993  17.614   0.388
52758W        W17743  36.900  32.601   2.336
52759W        W17744  20.270  44.873  14.899
52760W        W17745  44.488  20.588   3.345
52761W        W17746  32.306  11.739  10.620
52762W        W17747  12.710   4.966  14.207
52763W        W17748  27.589  38.887  11.407
52764W        W17749  13.565   7.809   1.024
52765W        W17750   9.006  35.553   3.027
52766W        W17751   4.913  35.205   3.626
52767W        W17752  30.912   1.456  11.070
52768W        W17753  32.008  28.346   4.266
52769W        W17754  12.122  33.255   3.675
52770W        W17755  32.946  11.046   0.420
52771W        W17756  22.489  18.974   1.605
52772W        W17757  25.639  30.038  12.579
52773W        W17758  25.640  10.570  12.908
52774W        W17759  24.633  22.092  13.097
52775W        W17760   5.002  40.918  13.414
52776W        W17761  37.022  28.596   2.224
52777W        W17762  10.543   2.930  13.624
52778W        W17763  18.061  33.616  13.501
52779W        W17764   1.783   3.604  11.632
52780W        W17765  27.080  41.806  11.159
52781W        W17766  17.014   6.211   3.224
52782W        W17767   2.026   6.551   3.678
52783W        W17768  24.466   0.440   0.112
52784W        W17769  16.320  26.691   4.108
52785W        W17770  15.058  36.338   2.248
52786W        W17771   3.899  31.849   2.793
52787W        W17772  11.078  38.913   1.474
52788W        W17773  41.937   8.841   2.418
52789W        W17774  13.578  38.332   0.786
52790W        W17775  12.577   9.378  12.667
52791W        W17776   7.497  44.811   1.309
52792W        W17777  36.911  44.102  14.916
52793W        W17778  20.607  38.554  12.079
52794W        W17779  30.859  20.085  12.017
52795W        W17780  17.662  14.588   4.640
52796W        W17781   9.705  11.151   1.827
52797W        W17782  16.912  36.555  13.048
52798W        W17783  40.668  28.585   5.060
52799W        W17784  13.134  40.588   1.867
52800W        W17785   9.402   2.624  14.466
52801W        W17786  44.927  40.551  11.136
52802W        W17787  29.975  27.395  13.810
52803W        W17788  42.853  32.540   2.284
52804W        W17789   1.087   7.165  14.379
52805W        W17790  16.560  39.324  10.762
52806W        W17791  33.334   0.313  13.019
52807W        W17792  13.821  36.571   2.525
52808W        W17793  37.556  13.682  13.395
52809W        W17794  44.755   7.695   0.798
52810W        W17795  24.588  26.161   0.705
52811W        W17796  31.384   8.854   2.693
52812W        W17797  33.520  20.793   3.773
52813W        W17798  24.232  37.988  10.735
52814W        W17799  40.261  24.003  14.353
52815W        W17800  17.126   4.929   1.115
52816W        W17801  44.361  25.958  12.454
52817W        W17802  33.495   3.027   5.001
52818W        W17803  39.130   2.285   2.948
52819W        W17804   2.995  16.782   2.337
52820W        W17805  28.141   8.196  12.098
52821W        W17806  17.196  42.498   1.333
52822W        W17807  24.558  29.550  13.906
52823W        W17808   4.212  27.520   2.568
52824W        W17809  34.883  41.846   2.186
52825W        W17810  12.436   6.482   0.737
52826W        W17811  36.392  30.603  13.464
52827W        W17812   1.901  30.873   0.373
52828W        W17813   9.286  26.990   4.126
52829W        W17814  37.978  34.564  13.617
52830W        W17815   3.406  11.261   3.143
52831W        W17816  23.913  31.535   0.384
52832W        W17817  38.753  42.283  14.716
52833W        W17818   4.412  13.107  10.977
52834W        W17819  16.178  19.454   4.470
52835W        W17820   0.999  29.312  11.083
52836W        W17821  41.545  19.497   1.772
52837W        W17822  30.061   8.856  12.091
52838W        W17823  31.979  24.146   0.490
52839W        W17824   0.099  29.876   2.526
52840W        W17825  35.857  23.536  12.992
52841W        W17826  34.932  12.791   4.144
52842W        W17827  13.669  25.557  12.209
52843W        W17828  33.939  22.056  10.499
52844W        W17829   4.164  10.741  13.728
52845W        W17830  31.044  29.154  14.796
52846W        W17831  17.051  23.486   2.692
52847W        W17832   2.788   6.035   1.836
52848W        W17833   2.269   0.910  12.755
52849W        W17834  44.398  14.640  14.709
52850W        W17835   6.821  16.732   4.821
52851W        W17836  43.073  35.107  11.960
52852W        W17837  21.686  42.663   0.377
52853W        W17838  41.088  18.662   0.555
52854W        W17839   0.005  17.368  10.246
52855W        W17840   6.041  42.335  11.799
52856W        W17841  37.329   9.205  14.896
52857W        W17842   2.032  33.002  10.605
52858W        W17843  10.158   6.434   0.905
52859W        W17844  40.925   5.794   1.337
52860W        W17845   8.839   8.010   2.183
52861W        W17846  35.143   2.865  14.093
52862W        W17847  37.586  28.269   1.829
52863W        W17848   9.390  17.809  14.986
52864W        W17849  39.401  10.333  12.046
52865W        W17850  18.009  41.547   3.169
52866W        W17851  23.326   9.211   4.221
52867W        W17852  27.628  24.382   2.868
52868W        W17853  18.659  39.436   0.711
52869W        W17854  16.746  28.774   4.932
52870W        W17855   5.665  35.589  14.100
52871W        W17856   0.272  26.218   2.382
52872W        W17857  38.107  36.866  10.259
52873W        W17858   4.320  28.612  12.646
52874W        W17859  44.594  13.818   4.705
52875W        W17860   6.924  11.846  11.983
52876W        W17861  40.705  28.905   2.695
52877W        W17862  33.587  14.975   1.618
52878W        W17863  40.063  24.093   3.615
52879W        W17864   2.991  13.975   0.785
52880W        W17865  38.554  30.086   3.825
52881W        W17866  36.407  11.967   0.822
52882W        W17867  17.367  25.493   0.623
52883W        W17868  33.786  28.450   2.452
52884W        W17869  36.114  11.775  13.299
52885W        W17870  41.712  10.759   4.073
52886W        W17871  12.645  39.788   1.494
52887W        W17872   5.510   2.797  14.323
52888W        W17873  41.381   6.392  12.086
52889W        W17874  14.287  20.686  13.617
52890W        W17875  43.192  18.758   3.251
52891W        W17876   1.951  19.693  10.663
52892W        W17877  41.515  38.771   3.702
52893W        W17878  15.792  20.796  11.199
52894W        W17879  11.600  24.944   2.381
52895W        W17880  26.827  44.234  11.527
52896W        W17881  30.237   6.374   3.974
52897W        W17882  41.743   2.038  10.133
52898W        W17883  10.335  29.663   4.468
52899W        W17884  11.586  20.338   4.327
52900W        W17885  39.913   2.251  10.561
52901W        W17886  38.305   1.848   1.855
52902W        W17887   3.733  21.734   4.583
52903W        W17888  18.321  18.154   3.155
52904W        W17889  32.573  12.211   3.441
52905W        W17890  41.840  37.496   3.433
52906W        W17891  33.841  20.666   3.327
52907W        W17892   4.628  17.435  14.284
52908W        W17893  13.124  18.768  13.430
52909W        W17894  10.306  18.715   1.374
52910W        W17895   3.287  27.572  12.016
52911W        W17896  35.760   5.877   1.384
52912W        W17897  18.586  15.002  13.455
52913W        W17898  25.941   8.162   3.663
52914W        W17899   7.173  39.127   4.533
52915W        W17900  11.001  16.665   0.692
52916W        W17901  30.461  33.916   0.692
52917W        W17902  16.166  24.683  13.904
52918W        W17903   3.553  23.634   2.528
52919W        W17904  25.725  36.081   0.531
52920W        W17905   5.354  25.084   4.679
52921W        W17906  21.517  17.975   3.678
52922W        W17907  23.158  18.982   4.146
52923W        W17908  15.559   0.004  13.018
52924W        W17909  17.340   1.891   4.196
52925W        W17910   7.492  33.303   2.218
52926W        W17911  25.484  34.122  14.005
52927W        W17912  20.202  35.964   4.836
52928W        W17913  39.574  15.121   2.323
52929W        W17914  14.496   5.479   4.132
52930W        W17915  44.934  12.892  13.469
52931W        W17916  25.981  35.896  11.178
52932W        W17917  37.301  10.806  14.485
52933W        W17918  21.490  34.059   3.418
52934W        W17919  25.541  33.973   2.829
52935W        W17920  27.555  12.559   2.338
52936W        W17921  42.944  23.553  12.050
52937W        W17922   4.777  30.258   2.651
52938W        W17923  30.015  15.395   2.989
52939W        W17924  40.559   2.896  12.151
52940W        W17925   5.495  35.337  12.161
52941W        W17926  30.161   2.330  13.979
52942W        W17927  34.815   4.305   1.655
52943W        W17928  38.464  40.316   4.253
52944W        W17929  21.456   5.665   3.779
52945W        W17930  20.598  38.060  11.538
52946W        W17931  39.856   7.102  13.175
52947W        W17932  22.483   9.173  10.719
52948W        W17933  29.037   5.683   0.843
52949W        W17934  34.455   2.693  11.266
52950W        W17935  34.681   9.318  14.242
52951W        W17936  24.732  10.901  13.486
52952W        W17937  25.014  33.846  12.599
52953W        W17938  43.594  14.620  13.837
52954W        W17939  33.227  22.479  12.438
52955W        W17940  23.300   1.876   1.426
52956W        W17941  23.452  34.442   1.229
52957W        W17942  12.802   9.319  13.600
52958W        W17943  33.642  34.565  13.491
52959W        W17944  28.658  33.418   0.294
52960W        W17945  35.625  11.048   0.719
52961W        W17946  16.668   0.756   1.421
52962W        W17947   0.534  31.664  14.679
52963W        W17948  19.629  42.000   2.831
52964W        W17949   4.421   6.717  13.907
52965W        W17950  27.815  24.943   2.300
52966W        W17951  16.506  19.393   1.202
52967W        W17952  33.122  19.556  14.336
52968W        W17953  26.440  14.766   4.662
52969W        W17954  16.870  28.307   1.283
52970W        W17955   1.202  33.245  11.598
52971W        W17956  42.368  25.647  13.975
52972W        W17957  14.308   7.210   0.602
52973W        W17958  37.626  29.695  12.072
52974W        W17959  12.594   9.312  14.060
52975W        W17960  15.834  39.272   1.225
52976W        W17961  41.912  29.127  11.619
52977W        W17962  38.497  20.969  13.789
52978W        W17963  35.879  28.653   4.123
52979W        W17964  27.274   4.361  11.250
52980W        W17965  28.240  31.063   1.360
52981W        W17966  39.409  15.326   1.826
52982W        W17967   0.403  27.903  12.974
52983W        W17968  13.240  44.347  12.825
52984W        W17969  42.023  23.063  12.936
52985W        W17970  13.492  37.564   1.395
52986W        W17971   3.018  27.189  12.777
52987W        W17972  39.834  33.378  13.790
52988W        W17973  20.223  37.577   2.056
52989W        W17974  39.651   4.218  14.502
52990W        W17975   4.237  29.078   3.723
52991W        W17976   0.731  44.863   4.266
52992W        W17977   6.784   2.628   3.593
52993W        W17978  25.600  11.658  12.385
52994W        W17979  12.160  33.339  13.733
52995W        W17980  30.485  15.303   4.354
52996W        W17981  17.365  29.588   1.237
52997W        W17982  11.546  39.011  13.147
52998W        W17983  38.696  18.772  12.079
52999W        W17984  20.970   8.138  12.251
53000W        W17985  13.795  21.736   4.836
53001W        W17986  29.991  18.837  10.889
53002W        W17987   2.976  23.501  11.617
53003W        W17988  20.645  39.751   3.651
53004W        W17989   3.784   7.879   0.723
53005W        W17990  25.370  10.127   0.736
53006W        W17991   5.438  31.747  14.921
53007W        W17992  38.362  26.596  14.253
53008W        W17993  33.022   5.635   5.456
53009W        W17994   2.298  22.997   3.791
53010W        W17995   6.170  37.554  10.626
53011W        W17996  44.664  11.407   4.901
53012W        W17997  22.581   2.267   3.642
53013W        W17998  19.227  28.569   4.599
53014W        W17999  30.162   4.820  13.778
53015W        W18000  33.929  23.125  11.430
53016W        W18001  18.752   3.034  11.319
53017W        W18002  43.034   8.891  14.967
53018W        W18003  42.041  12.891   1.215
53019W        W18004  42.809  35.033  14.738
53020W        W18005  36.856  13.688   1.692
53021W        W18006  23.871  31.064   3.583
53022W        W18007  10.804  39.309  12.734
53023W        W18008  30.914  36.582  12.911
53024W        W18009  34.538   0.669   4.934
53025W        W18010  10.869  18.736  11.092
53026W        W18011  11.895  14.210  12.848
53027W        W18012  40.410  10.322   3.600
53028W        W18013   2.531   4.164  12.066
53029W        W18014  32.589  41.773  14.806
53030W        W18015  36.979  42.541   1.501
53031W        W18016  43.084  38.069  13.362
53032W        W18017   0.222  41.788  11.567
53033W        W18018  44.812  12.846   2.195
53034W        W18019   7.374  16.533  14.250
53035W        W18020  27.605   3.709   2.045
53036W        W18021  11.236   0.912   1.379
53037W        W18022  43.443  40.109  14.917
53038W        W18023  23.660  15.604  12.715
53039W        W18024  42.104  17.363   0.646
53040W        W18025  32.971  37.572  10.382
53041W        W18026   1.894  43.435   1.729
53042W        W18027  40.395  26.008   1.573
53043W        W18028  23.538  37.904   1.735
53044W        W18029  35.471  21.571   0.913
53045W        W18030  14.668   8.342   2.272
53046W        W18031  35.086  14.217   3.545
53047W        W18032  11.741  37.382  12.412
53048W        W18033  11.836  33.097   2.223
53049W        W18034  16.505   4.319   4.027
53050W        W18035  11.234  17.738   5.050
53051W        W18036  30.223   8.361   2.708
53052W        W18037  36.561  29.636   4.593
53053W        W18038  25.584  14.188   0.960
53054W        W18039   7.626  14.700   3.021
53055W        W18040  38.283  17.831   4.312
53056W        W18041  35.819  31.430   4.141
53057W        W18042  29.469  42.565  11.581
53058W        W18043  32.006   7.652  13.005
53059W        W18044  29.642  17.918  13.991
53060W        W18045   1.353  32.462  11.101
53061W        W18046  35.388  32.760  12.989
53062W        W18047  44.726  22.581  12.542
53063W        W18048  36.434  16.581  12.072
53064W        W18049  32.889  14.580  13.322
53065W        W18050  38.555  17.323   2.040
53066W        W18051  11.899  27.499  13.875
53067W        W18052  26.919  15.801  14.695
53068W        W18053  26.750  25.193   2.210
53069W        W18054  28.057  18.077   3.907
53070W        W18055  42.556   7.794   3.587
53071W        W18056   4.390  35.565  11.552
53072W        W18057  42.300  35.080  14.911
53073W        W18058   6.248  33.003  14.134
53074W        W18059   2.341  35.496   1.776
53075W        W18060  37.334   8.676   4.596
53076W        W18061  36.838  28.106   2.202
53077W        W18062  13.294  12.736   1.169
53078W        W18063   6.669  17.623   1.333
53079W        W18064  44.508   3.877   1.892
53080W        W18065  25.505  12.055   2.669
53081W        W18066  10.139  20.289  12.010
53082W        W18067  35.766  18.201   0.451
53083W        W18068   0.357  17.975  11.722
53084W        W18069  19.824  34.470  13.592
53085W        W18070  10.229  44.565   2.738
53086W        W18071  12.731  36.973  12.609
53087W        W18072  27.996  18.320   1.314
53088W        W18073  22.777  12.716  11.142
53089W        W18074  36.628  14.197   2.193
53090W        W18075  19.364  35.628  13.115
53091W        W18076  36.895   8.519   0.676
53092W        W18077  34.571  43.076  10.452
53093W        W18078   0.834  28.327   4.176
53094W        W18079  41.999   9.461  13.902
53095W        W18080  22.202   1.973   3.926
53096W        W18081  15.172  11.776  12.923
53097W        W18082  15.941   5.195  12.286
53098W        W18083  29.531  29.815  11.104
53099W        W18084  37.750  30.146  11.849
53100W        W18085  42.438  39.614   2.198
53101W        W18086  15.545  26.363   0.474
53102W        W18087  33.557  26.584   4.560
53103W        W18088  32.368  41.826  11.588
53104W        W18089  17.139  41.863  14.845
53105W        W18090  17.268   2.256  13.343
53106W        W18091  42.005   1.869  13.936
53107W        W18092  23.705   7.320   4.048
53108W        W18093   4.970  34.123   0.501
53109W        W18094  14.873  12.834  14.892
53110W        W18095  33.980  20.520   3.788
53111W        W18096  15.485  25.178   0.986
53112W        W18097   7.116   6.671  11.705
53113W        W18098  13.610   9.134   4.854
53114W        W18099  42.579  25.374   3.137
53115W        W18100   6.784   0.165  11.744
53116W        W18101   2.774  35.112  13.429
53117W        W18102   7.353  36.898   3.833
53118W        W18103   9.298  37.988  13.150
53119W        W18104  26.616  32.799  11.587
53120W        W18105  18.084  12.067   0.852
53121W        W18106  19.178  30.564   0.939
53122W        W18107   1.315  11.831   0.852
53123W        W18108  21.313  20.092   0.782
53124W        W18109   7.877  41.882   4.146
53125W        W18110  36.302  44.269  12.870
53126W        W18111  42.188  27.616  12.023
53127W        W18112  28.470  29.139   2.372
53128W        W18113  26.155  15.548  12.486
53129W        W18114  15.158  33.667   4.854
53130W        W18115  13.796  20.866   2.762
53131W        W18116  10.697   1.328   4.958
53132W        W18117  17.113  19.142  10.689
53133W        W18118   2.827  21.770  12.965
53134W        W18119  38.924  32.203  10.536
53135W        W18120  30.903  44.076  12.943
53136W        W18121  13.690  18.450  12.395
53137W        W18122  29.941  35.794   3.769
53138W        W18123   6.612  17.817   2.857
53139W        W18124  10.669  38.373  14.321
53140W        W18125   6.419   2.505   4.444
53141W        W18126   7.160  39.978   4.158
53142W        W18127   3.590  15.328  12.642
53143W        W18128  11.358  19.514   3.523
53144W        W18129  39.985  19.286   2.724
53145W        W18130  19.452  15.216   4.129
53146W        W18131  28.110  33.878   0.576
53147W        W18132  30.192   1.285   2.291
53148W        W18133   4.066  13.717  14.391
53149W        W18134  20.693  10.319  11.462
53150W        W18135  44.049  43.375   2.374
53151W        W18136  22.516  18.549  13.438
53152W        W18137  15.028  32.217  13.866
53153W        W18138  42.272  19.166   0.283
53154W        W18139  42.585  44.484   2.902
53155W        W18140   4.919   7.189   0.349
53156W        W18141  31.151  27.684  12.936
53157W        W18142  26.987  37.937   3.403
53158W        W18143   2.488  11.855   2.827
53159W        W18144   0.799  13.839   1.326
53160W        W18145   1.238  33.087   3.200
53161W        W18146  30.079   5.215  10.941
53162W        W18147   1.738   3.242  11.102
53163W        W18148  28.962  29.339  10.504
53164W        W18149  39.302  16.398  11.536
53165W        W18150  31.106  25.756  14.085
53166W        W18151   5.491  44.230   3.123
53167W        W18152  29.649  31.614   9.753
53168W        W18153  44.578  14.428   2.798
53169W        W18154   8.748  34.910  12.523
53170W        W18155   4.407  22.157  10.431
53171W        W18156   9.078  40.438  11.158
53172W        W18157   6.404  13.261   4.353
53173W        W18158  27.133  37.887   3.921
53174W        W18159   8.895  13.222  12.105
53175W        W18160  37.302   9.220  11.344
53176W        W18161  19.168  10.574  11.172
53177W        W18162   2.710  11.845   3.295
53178W        W18163  28.802  40.816   1.877
53179W        W18164  27.624  39.770  10.903
53180W        W18165   7.593  43.237   4.012
53181W        W18166   6.883  17.419   3.109
53182W        W18167  16.781  34.357  12.466
53183W        W18168  16.598  18.276  10.793
53184W        W18169  22.474  33.324   2.757
53185W        W18170   7.893  21.570   0.705
53186W        W18171   8.868  42.971   2.900
53187W        W18172  17.562  16.292   0.787
53188W        W18173  17.738  38.920  14.389
53189W        W18174  34.283   3.344   4.934
53190W        W18175  24.035  20.089   4.454
53191W        W18176  41.109  27.801   1.949
53192W        W18177   7.833   2.934   0.375
53193W        W18178  34.542  19.638  11.010
53194W        W18179  29.041   8.779   4.496
53195W        W18180  44.860  24.005  14.756
53196W        W18181   1.706  11.352  12.335
53197W        W18182  16.196  32.436   1.255
53198W        W18183  22.079   5.766  13.832
53199W        W18184  16.381  27.415  11.697
53200W        W18185  29.020  40.919   4.201
53201W        W18186  21.637   4.241   4.654
53202W        W18187  42.366  39.424   1.283
53203W        W18188  23.158  37.366  13.303
53204W        W18189   6.674  30.695   0.472
53205W        W18190  24.415  40.303  10.546
53206W        W18191  42.810  24.765   1.346
53207W        W18192  37.866  10.358   3.305
53208W        W18193  20.733  42.846  11.672
53209W        W18194  24.280  30.588   5.516
53210W        W18195  24.350   4.632   4.484
53211W        W18196   0.862  28.469   1.473
53212W        W18197  40.096  43.081  12.373
53213W        W18198  24.028   4.334  12.727
53214W        W18199  20.764  39.391   0.872
53215W        W18200   0.257  20.511  13.951
53216W        W18201  11.196  36.610   1.844
53217W        W18202  14.176  11.594   4.254
53218W        W18203  37.942  33.429   0.334
53219W        W18204  37.012  21.174  12.595
53220W        W18205   2.942   5.893   1.316
53221W        W18206   5.883  24.519   4.697
53222W        W18207   0.075  44.712   3.560
53223W        W18208  36.390  19.804   0.633
53224W        W18209  35.464  27.148  11.669
53225W        W18210  16.953   8.854  10.757
53226W        W18211  17.127   0.025  11.008
53227W        W18212  33.010  23.141  13.871
53228W        W18213   3.909  40.202  11.242
53229W        W18214  19.768   5.550   4.066
53230W        W18215   7.409  36.952   4.348
53231W        W18216   4.138  42.815   5.022
53232W        W18217  30.357   4.372  12.446
53233W        W18218  35.465  44.211   0.085
53234W        W18219  14.111  34.534   4.775
53235W        W18220  25.991  10.418   2.157
53236W        W18221  22.010  25.683  14.900
53237W        W18222  18.929  30.523  13.786
53238W        W18223  14.094  12.881   0.560
53239W        W18224  37.497   9.191   4.608
53240W        W18225   2.430  32.803   0.355
53241W        W18226   3.259  22.989  14.080
53242W        W18227  41.470  27.525   0.964
53243W        W18228  35.038  37.963  13.256
53244W        W18229  27.559  25.969   0.520
53245W        W18230  31.268  11.156   9.915
53246W        W18231   4.958  12.179   0.303
53247W        W18232  42.607  35.302   0.460
53248W        W18233  39.862   6.513   1.256
53249W        W18234  41.215  39.989  11.233
53250W        W18235   9.929  11.783   2.418
53251W        W18236   3.310  36.621  12.675
53252W        W18237  17.740  40.338  10.813
53253W        W18238  27.242  24.942   4.194
53254W        W18239  39.883  37.913  13.918
53255W        W18240  16.111   5.043  12.750
53256W        W18241  42.998  33.427  11.299
53257W        W18242  10.951  40.555  11.447
53258W        W18243   6.732  40.522  11.672
53259W        W18244   5.145   1.631   0.976
53260W        W18245  18.039  41.974   4.081
53261W        W18246  21.365  41.147   0.724
53262W        W18247   7.287   2.768  11.907
53263W        W18248  37.372   3.404  13.479
53264W        W18249  19.159  32.915  12.005
53265W        W18250  28.089  35.246  12.529
53266W        W18251  11.273  34.555  12.992
53267W        W18252  15.393  26.174   9.761
53268W        W18253   2.482   3.831  11.112
53269W        W18254  20.674  34.694  14.188
53270W        W18255   1.800  18.583   0.547
53271W        W18256  27.104   4.324  10.207
53272W        W18257  11.377  39.002   2.334
53273W        W18258  15.811  18.095  14.808
53274W        W18259   8.269  35.823  13.352
53275W        W18260  11.674  40.140   0.092
53276W        W18261  37.755  17.195  14.008
53277W        W18262  20.061  22.798  13.981
53278W        W18263  16.761  36.994  11.440
53279W        W18264  26.123  10.804   0.983
53280W        W18265  10.464  32.538   2.280
53281W        W18266  31.422  32.951   0.861
53282W        W18267  39.442  20.211  11.214
53283W        W18268  11.761  13.078  14.986
53284W        W18269   9.780   5.852   4.988
53285W        W18270  38.939  22.151   3.292
53286W        W18271  26.252  36.006   2.278
53287W        W18272  11.706  40.638   0.229
53288W        W18273   3.414  17.678   1.970
53289W        W18274   3.891  24.992  14.789
53290W        W18275   3.965  15.559  12.892
53291W        W18276  33.845  43.321  11.438
53292W        W18277  35.666  25.621  14.140
53293W        W18278   7.270  26.474   0.670
53294W        W18279   7.650  29.786   2.508
53295W        W18280  36.119   7.266  11.994
53296W        W18281  13.666   7.664   0.546
53297W        W18282  37.271  41.739   4.210
53298W        W18283   1.378   5.670  12.437
53299W        W18284  40.907  43.695  12.442
53300W        W18285  43.663  25.220   9.790
53301W        W18286  29.628  24.108  13.017
53302W        W18287  35.224  31.112   1.741
53303W        W18288  32.578   1.683   2.275
53304W        W18289  19.949  43.520   3.643
53305W        W18290  13.777  39.520  11.433
53306W        W18291  24.058   7.129  10.917
53307W        W18292  15.608  36.024  14.610
53308W        W18293  40.443  14.281   0.039
53309W        W18294   6.787  44.435  13.546
53310W        W18295  14.167  41.578   1.835
53311W        W18296  20.824  21.681  11.963
53312W        W18297  10.837   7.572  14.352
53313W        W18298  17.550  21.091  13.088
53314W        W18299  43.249  44.530  12.551
53315W        W18300   4.993  13.672  13.037
53316W        W18301  27.428  37.027  12.049
53317W        W18302  17.529  22.638   0.686
53318W        W18303  31.858   9.283  14.915
53319W        W18304  40.422  26.638   0.836
53320W        W18305  19.668  12.818   0.923
53321W        W18306  44.341  36.975  14.072
53322W        W18307  33.862  30.520   3.880
53323W        W18308   9.428  41.543   0.383
53324W        W18309  23.570  38.916  12.829
53325W        W18310  18.701  23.832  11.897
53326W        W18311   2.380  39.822  13.373
53327W        W18312  42.318  43.552   2.670
53328W        W18313  32.666  32.332   3.572
53329W        W18314  44.645  44.008   4.179
53330W        W18315  19.367  28.106   3.795
53331W        W18316   5.345   2.002   0.043
53332W        W18317   2.233  10.156  12.921
53333W        W18318  39.934  32.939   1.900
53334W        W18319   8.346  11.984   1.236
53335W        W18320  37.619  27.196  12.941
53336W        W18321  23.074  30.484  13.984
53337W        W18322  41.069  40.339   3.219
53338W        W18323  27.605  14.205   4.924
53339W        W18324   7.280   4.456  10.821
53340W        W18325  33.855  12.345   4.237
53341W        W18326   0.436  33.068   0.440
53342W        W18327   1.090  19.696   1.700
53343W        W18328  42.831   0.004   1.700
53344W        W18329  29.230  20.218   3.408
53345W        W18330   3.341  25.637   3.737
53346W        W18331  35.945  25.649  10.933
53347W        W18332  13.093  31.899  11.552
53348W        W18333   8.286  15.307  10.325
53349W        W18334  35.813  13.922  10.511
53350W        W18335   9.140   7.080   4.631
53351W        W18336  30.737  25.264  11.398
53352W        W18337  33.062  37.937   0.276
53353W        W18338   1.624  18.466   2.415
53354W        W18339   4.757  41.493   4.559
53355W        W18340   4.368  26.695  14.006
53356W        W18341  14.190  20.462   1.771
53357W        W18342  41.046  22.837  10.445
53358W        W18343  34.542   9.384   2.265
53359W        W18344  41.471  19.515   0.773
53360W        W18345  41.195   3.519   2.966
53361W        W18346   8.157  14.938  12.915
53362W        W18347   1.388  21.465   4.119
53363W        W18348  18.480  33.869   2.346
53364W        W18349  12.838  25.531  14.411
53365W        W18350   7.863  14.225   3.717
53366W        W18351   1.703  31.178  13.875
53367W        W18352  31.667   0.295   0.326
53368W        W18353  26.637  25.695   2.297
53369W        W18354  36.193  37.299  14.771
53370W        W18355  38.402  30.697  11.486
53371W        W18356  25.719  30.154  14.803
53372W        W18357   1.415   5.480  10.808
53373W        W18358   1.378   7.747   0.295
53374W        W18359   0.779  18.047  12.132
53375W        W18360  31.248  36.668   4.332
53376W        W18361  30.689  41.911  14.785
53377W        W18362  37.511  16.766   2.760
53378W        W18363  23.674  25.756  11.135
53379W        W18364  10.394  27.536   1.850
53380W        W18365   3.011   4.886   0.825
53381W        W18366  14.625   2.539   0.852
53382W        W18367  23.829  26.466   1.144
53383W        W18368   2.924  23.274  14.744
53384W        W18369  40.779  43.505  12.934
53385W        W18370  32.532  22.154   1.313
53386W        W18371  16.697  30.743  13.558
53387W        W18372   0.367  14.659  12.455
53388W        W18373  36.067  11.842  10.860
53389W        W18374   0.274  36.507  10.921
53390W        W18375  34.908  21.137   0.714
53391W        W18376   2.727   4.642  13.332
53392W        W18377  31.137  15.169  12.424
53393W        W18378   9.972   7.660  12.539
53394W        W18379  28.740  26.649  10.736
53395W        W18380  18.820  11.008   4.121
53396W        W18381  37.061   1.456  14.496
53397W        W18382  43.629  15.643  11.938
53398W        W18383  15.719   2.685   0.297
53399W        W18384   1.118   5.566  11.232
53400W        W18385  19.688  12.048   2.174
53401W        W18386   7.391  10.235  12.068
53402W        W18387  31.114  34.601  14.585
53403W        W18388   3.712  35.516   4.225
53404W        W18389  36.446  14.696   2.895
53405W        W18390  33.431  12.839  11.002
53406W        W18391  44.287   4.416   1.388
53407W        W18392  39.506  18.183   3.293
53408W        W18393   1.745  10.770   2.857
53409W        W18394  27.712   4.391  14.386
53410W        W18395  25.237  30.704   0.583
53411W        W18396   3.980  18.114  13.131
53412W        W18397   5.848  20.173   3.281
53413W        W18398  13.657  13.660   3.860
53414W        W18399   4.484  24.412  12.529
53415W        W18400  19.662  24.666   3.910
53416W        W18401  18.069  14.242   4.742
53417W        W18402  42.092   3.089  12.072
53418W        W18403  28.220  18.789   2.184
53419W        W18404  38.945   9.090   5.028
53420W        W18405  18.599  40.802   1.726
53421W        W18406  10.973  15.687   4.529
53422W        W18407  37.839  34.375   0.440
53423W        W18408  32.456  28.520  10.940
53424W        W18409   4.386   8.854   3.287
53425W        W18410  43.933  16.137   2.223
53426W        W18411  11.897  31.184   2.478
53427W        W18412  33.374   1.700   2.223
53428W        W18413  24.738  42.515  14.456
53429W        W18414  20.253  33.699  11.309
53430W        W18415  30.292   4.875  11.875
53431W        W18416  13.360  44.225  11.937
53432W        W18417   0.266  11.117   4.362
53433W        W18418  17.565   4.485   2.250
53434W        W18419  32.735  16.496   2.685
53435W        W18420   4.898  21.103   4.466
53436W        W18421   9.153  42.780   3.303
53437W        W18422  13.880  31.322   3.236
53438W        W18423  19.674  12.376  11.391
53439W        W18424  14.229   3.001   2.895
53440W        W18425  13.214  42.049   3.174
53441W        W18426  17.584  29.239   3.930
53442W        W18427  17.614  13.701   0.948
53443W        W18428   6.131  12.360  11.211
53444W        W18429  13.711   4.182   4.052
53445W        W18430  12.965  10.813   2.325
53446W        W18431  24.441   0.788  11.966
53447W        W18432   8.136  11.888   4.124
53448W        W18433  44.330  40.022   0.033
53449W        W18434  13.261  19.576   2.974
53450W        W18435   2.220  29.206   4.596
53451W        W18436  23.355  28.069   2.783
53452W        W18437  41.812  20.497   2.633
53453W        W18438   2.104  29.220   1.615
53454W        W18439  29.377  29.778   0.404
53455W        W18440  13.139  25.803   1.992
53456W        W18441  17.146  12.712   0.401
53457W        W18442   5.964  31.980  11.572
53458W        W18443   5.454  20.010   2.300
53459W        W18444  41.398  41.784   2.645
53460W        W18445   1.786  21.827  12.816
53461W        W18446  42.652  14.377  10.135
53462W        W18447  32.120  41.175   0.434
53463W        W18448   2.430  37.404   1.205
53464W        W18449  35.910  21.346  11.555
53465W        W18450  33.316  20.991   5.054
53466W        W18451  25.063  13.340  12.093
53467W        W18452  35.157  19.679   3.233
53468W        W18453  10.944  24.073  11.186
53469W        W18454  31.301  33.527   2.180
53470W        W18455  20.099  13.118  10.588
53471W        W18456  21.443  31.632  12.259
53472W        W18457  30.430   8.845  12.466
53473W        W18458  35.005   5.699   2.096
53474W        W18459   5.760  33.370   4.727
53475W        W18460  35.060   8.231   2.642
53476W        W18461  10.325   4.195  11.190
53477W        W18462  11.237   7.893   1.265
53478W        W18463   0.524  22.153   3.760
53479W        W18464  12.114  27.308   1.417
53480W        W18465   7.339  39.103   3.538
53481W        W18466   3.495  13.902   4.242
53482W        W18467  30.863  41.089  10.781
53483W        W18468  10.745  42.481  13.349
53484W        W18469  21.732  16.916   3.921
53485W        W18470   9.687  38.050   4.302
53486W        W18471  39.909  19.973  11.332
53487W        W18472  20.011  16.510   4.117
53488W        W18473  15.601  27.452   2.537
53489W        W18474  33.034  44.541   1.404
53490W        W18475  30.113  35.210   3.053
53491W        W18476  12.281  40.420  10.942
53492W        W18477   4.855   0.552   0.870
53493W        W18478   1.214  43.903   3.171
53494W        W18479   1.423  35.952   1.232
53495W        W18480  23.917  10.278   1.289
53496W        W18481  21.153  44.786   3.753
53497W        W18482  40.468  40.282  13.278
53498W        W18483   6.692   2.404   4.023
53499W        W18484   2.014  25.209  14.904
53500W        W18485   5.306  43.231  12.161
53501W        W18486  35.323  13.295  12.063
53502W        W18487  29.527  33.292   0.468
53503W        W18488  19.111  43.751  12.909
53504W        W18489  13.079   7.736  12.955
53505W        W18490  20.504  24.483  14.415
53506W        W18491  22.553  20.654   0.347
53507W        W18492  25.414  20.272  11.988
53508W        W18493  40.356  20.257   0.729
53509W        W18494  12.294  20.947   4.320
53510W        W18495  26.221  30.737   2.191
53511W        W18496   4.781  35.075  10.242
53512W        W18497  28.975  28.448  13.877
53513W        W18498  13.684   0.585   4.680
53514W        W18499  30.668  41.400  14.968
53515W        W18500  24.923   0.191  13.904
53516W        W18501  34.669   7.987   0.244
53517W        W18502  40.838  34.436   4.723
53518W        W18503  24.527  10.356  14.603
53519W        W18504  14.199  22.530  13.058
53520W        W18505  10.641  44.116   0.406
53521W        W18506  11.314  18.650   3.224
53522W        W18507  37.095  27.054  12.811
53523W        W18508  19.441   6.365   5.171
53524W        W18509  29.199   6.110  14.195
53525W        W18510  41.791   0.826   3.689
53526W        W18511   9.784  30.946   4.143
53527W        W18512  38.264  10.267  12.474
53528W        W18513  32.638  31.412  14.914
53529W        W18514  30.139   3.434  14.899
53530W        W18515  15.634   3.198   0.309
53531W        W18516   0.528  12.888  11.691
53532W        W18517  30.121  40.891  13.033
53533W        W18518  10.406   4.397   3.121
53534W        W18519  37.824  29.228   0.284
53535W        W18520  37.041  23.206   4.057
53536W        W18521   9.339  27.899  13.133
53537W        W18522  37.918  37.997  10.490
53538W        W18523  34.806   6.910  14.562
53539W        W18524  21.169  35.582  12.521
53540W        W18525  28.037   2.482  10.288
53541W        W18526  31.247  19.097  10.935
53542W        W18527  38.478   6.538  10.386
53543W        W18528  12.136  31.086  11.649
53544W        W18529  25.957  33.462  13.501
53545W        W18530  10.161  36.644  12.116
53546W        W18531   3.723  14.086  12.518
53547W        W18532  10.231  28.844  10.722
53548W        W18533  27.211   0.529   2.670
53549W        W18534  20.736   7.512  11.661
53550W        W18535   7.795   3.166   1.227
53551W        W18536  14.247  24.743  11.211
53552W        W18537   3.396  32.440  12.970
53553W        W18538  36.072  24.659   2.380
53554W        W18539  42.437   4.404  13.000
53555W        W18540  26.517  38.571   4.751
53556W        W18541  41.247  35.401  13.009
53557W        W18542  40.834  31.813  13.689
53558W        W18543   4.212  43.777  13.399
53559W        W18544  42.299   6.911   3.383
53560W        W18545  37.786   5.435  12.900
53561W        W18546  43.032  44.229  12.920
53562W        W18547  14.735   2.062  14.901
53563W        W18548  33.945  29.071   4.363
53564W        W18549  30.691  30.141  14.785
53565W        W18550  12.300  44.933   4.574
53566W        W18551  32.408   2.724   1.179
53567W        W18552  11.687  41.211   1.001
53568W        W18553  42.973   1.829   2.216
53569W        W18554   8.610  36.892  13.620
53570W        W18555   7.473  25.039   5.078
53571W        W18556  40.377  44.927  10.721
53572W        W18557  11.835  22.576  13.488
53573W        W18558   2.478  40.037  12.536
53574W        W18559  43.816  14.787   3.080
53575W        W18560  11.133  25.662   0.438
53576W        W18561  32.963  20.754  12.540
53577W        W18562  34.621  30.595   3.146
53578W        W18563   6.923  37.855   1.473
53579W        W18564  32.537  14.182  10.907
53580W        W18565   0.231  37.229   2.770
53581W        W18566   3.080  40.072  11.222
53582W        W18567   7.727  32.549  10.673
53583W        W18568  26.518  40.521  12.491
53584W        W18569  10.484  30.187   3.157
53585W        W18570  39.384  40.881   1.002
53586W        W18571   6.487  27.720   2.638
53587W        W18572  32.938   9.943  10.677
53588W        W18573   0.317  12.553  11.308
53589W        W18574   4.753  31.894  12.106
53590W        W18575  17.267   2.708   4.648
53591W        W18576  12.355  25.622  14.549
53592W        W18577  26.673  28.891   5.031
53593W        W18578  39.830   2.933  12.611
53594W        W18579  44.177  35.438   0.951
53595W        W18580  15.738  21.838  11.426
53596W        W18581  19.088  26.012   1.271
53597W        W18582  39.988   0.423   2.482
53598W        W18583  35.089  30.442  10.634
53599W        W18584   9.454  33.789  13.556
53600W        W18585  30.614  24.673  14.008
53601W        W18586   4.132  44.468   4.054
53602W        W18587  38.954  24.329   4.376
53603W        W18588   4.971   3.760   2.271
53604W        W18589  10.386  31.965   2.981
53605W        W18590  43.995   1.772  12.515
53606W        W18591   8.960   0.760   4.596
53607W        W18592  43.074   6.809  14.819
53608W        W18593  19.260  41.907  12.037
53609W        W18594  31.057  11.389   0.725
53610W        W18595  38.857  27.318   1.227
53611W        W18596  10.719   9.868   0.517
53612W        W18597  27.399   9.881  11.082
53613W        W18598  16.627   5.910   3.041
53614W        W18599  44.673   3.118   5.022
53615W        W18600  42.497   5.471  12.819
53616W        W18601  31.081  24.438  10.358
53617W        W18602   4.357  34.668   3.265
53618W        W18603   2.792  24.824   4.864
53619W        W18604   3.430  35.952   4.130
53620W        W18605  15.658   2.040  13.044
53621W        W18606  36.047   8.653  14.727
53622W        W18607  44.343  35.864  13.399
53623W        W18608  15.431  43.776  10.700
53624W        W18609  41.007  18.141  12.464
53625W        W18610  32.088  17.778   3.840
53626W        W18611   7.010   1.697  14.798
53627W        W18612  11.728  23.097  11.085
53628W        W18613  16.364  38.596   1.795
53629W        W18614   1.473  27.493  10.734
53630W        W18615  15.668  16.592  12.852
53631W        W18616  12.341   3.338   3.288
53632W        W18617  30.993   7.208  14.482
53633W        W18618  38.273   6.921  12.085
53634W        W18619  24.513   9.343   1.827
53635W        W18620  13.447  24.532  14.801
53636W        W18621  37.024   0.519  13.131
53637W        W18622  38.802  35.345   3.867
53638W        W18623  41.034  18.577  12.090
53639W        W18624  17.393  29.932  14.583
53640W        W18625   4.690   4.037   4.117
53641W        W18626  24.614  38.594  13.992
53642W        W18627  23.254   8.548  13.500
53643W        W18628  31.154  26.221  12.970
53644W        W18629  11.473   3.868  11.942
53645W        W18630  27.414  13.065  11.215
53646W        W18631  38.377  39.426   2.249
53647W        W18632  42.730  32.152  11.211
53648W        W18633  24.535  22.988   3.956
53649W        W18634  32.838  20.811   3.221
53650W        W18635   3.613  26.143  11.990
53651W        W18636   1.621  18.922  11.313
53652W        W18637  10.907  38.883   2.168
53653W        W18638  34.375  14.244   4.689
53654W        W18639  36.867   6.638   0.369
53655W        W18640  15.796  11.130   3.174
53656W        W18641   0.023   1.881   4.397
53657W        W18642  25.396  22.480   3.047
53658W        W18643  35.250  29.635  13.439
53659W        W18644  26.306  43.268  14.960
53660W        W18645  11.350  19.814   3.077
53661W        W18646  18.294   8.507   2.705
53662W        W18647   1.593  15.557   3.247
53663W        W18648  10.917  39.273   4.079
53664W        W18649  42.799  42.354   0.419
53665W        W18650  18.384  25.705  13.171
53666W        W18651  37.467  25.635  14.472
53667W        W18652  43.824  19.448  12.439
53668W        W18653  42.448  39.928   1.413
53669W        W18654  29.643  18.197   0.690
53670W        W18655  23.005  42.517   3.813
53671W        W18656  19.388  28.589  11.618
53672W        W18657   7.653  26.536   2.363
53673W        W18658  34.181  16.153   3.590
53674W        W18659  35.984   6.117   2.841
53675W        W18660  21.580  41.540   2.892
53676W        W18661   6.368  42.876  11.415
53677W        W18662  10.773  14.381  13.640
53678W        W18663  10.804  22.586   1.041
53679W        W18664  14.086  40.512   1.956
53680W        W18665  30.705  27.903   0.782
53681W        W18666  14.700  38.803   4.273
53682W        W18667   9.241  13.329  13.833
53683W        W18668  28.919  15.330  13.355
53684W        W18669  40.126  12.542  14.636
53685W        W18670   2.148   9.862   0.705
53686W        W18671  22.632  21.288   2.287
53687W        W18672  33.123   5.604   2.427
53688W        W18673  33.405  40.263   9.844
53689W        W18674   4.383  20.351  14.588
53690W        W18675  43.650  27.449  10.717
53691W        W18676   5.888  27.049   0.756
53692W        W18677  17.996  42.949   0.942
53693W        W18678  26.979  26.082  11.529
53694W        W18679   6.372  23.152  12.396
53695W        W18680  33.551   7.581  11.999
53696W        W18681  30.407  34.550  12.842
53697W        W18682  44.395   8.499   4.893
53698W        W18683  27.999   9.212  14.254
53699W        W18684  31.089  21.981  11.193
53700W        W18685   7.136  24.948  14.409
53701W        W18686  30.958   1.244   1.811
53702W        W18687  14.225   8.852   4.499
53703W        W18688   4.795  16.075  14.811
53704W        W18689  19.392  20.807   0.031
53705W        W18690  17.312  38.593  14.355
53706W        W18691  16.178  31.910   1.268
53707W        W18692  23.584   1.374   5.090
53708W        W18693  13.540  27.718   9.794
53709W        W18694  21.790  29.002  12.261
53710W        W18695  23.035  27.032  11.157
53711W        W18696   7.391   4.122  10.429
53712W        W18697  10.127   9.253  13.955
53713W        W18698  22.896   8.205   1.736
53714W        W18699  30.149   1.525   3.357
53715W        W18700  24.603  19.106   4.620
53716W        W18701  16.792   8.121  13.041
53717W        W18702  42.361  19.285   1.632
53718W        W18703   9.133   7.493  11.466
53719W        W18704  31.376  14.672   0.798
53720W        W18705  29.437  41.101   0.300
53721W        W18706   2.043  34.514   3.446
53722W        W18707  41.005  41.200  12.003
53723W        W18708   9.600  22.563   9.788
53724W        W18709  42.290   5.788  11.368
53725W        W18710  32.573  19.795  12.015
53726W        W18711  39.547   9.637  10.805
53727W        W18712  14.227  12.204  10.794
53728W        W18713  14.613   9.654   4.196
53729W        W18714  32.511  40.057  11.220
53730W        W18715  44.994  41.114   2.741
53731W        W18716  19.074   9.172   0.856
53732W        W18717  28.334   0.511  14.353
53733W        W18718  15.082  32.034  14.345
53734W        W18719  22.943   2.775   1.937
53735W        W18720   4.929  12.613  13.161
53736W        W18721   6.860  29.613  14.693
53737W        W18722  31.560  27.209  13.873
53738W        W18723  41.441  36.605   5.408
53739W        W18724  12.045   1.649  11.115
53740W        W18725  22.249  12.638  13.612
53741W        W18726  37.118  42.100  14.383
53742W        W18727  12.191  10.611  12.873
53743W        W18728  33.979  34.405   2.295
53744W        W18729  11.758   6.857  11.445
53745W        W18730  13.309  21.129   4.175
53746W        W18731  26.993   5.573   0.305
53747W        W18732  43.336  43.361  11.144
53748W        W18733  18.340   7.710   0.909
53749W        W18734  23.065  24.292  14.424
53750W        W18735  10.317  11.724  12.853
53751W        W18736  10.085  26.668   2.752
53752W        W18737  10.475   4.870   3.343
53753W        W18738  16.280  11.810   4.246
53754W        W18739  12.025  17.841  11.596
53755W        W18740   0.355   7.600  14.599
53756W        W18741  32.649   9.743  11.963
53757W        W18742  31.937   6.437  12.173
53758W        W18743   2.336  23.546   4.555
53759W        W18744   5.753  13.178  11.734
53760W        W18745  25.655   4.034   0.289
53761W        W18746  17.037  41.311  13.035
53762W        W18747  14.837  17.302   3.696
53763W        W18748  41.556  37.941   4.211
53764W        W18749   8.918  41.672  12.964
53765W        W18750  19.212  35.418  14.870
53766W        W18751  14.177  18.374   4.118
53767W        W18752   2.564  40.131  10.984
53768W        W18753  21.752  39.618   0.414
53769W        W18754  17.124  11.609  12.509
53770W        W18755   4.510  15.228   0.965
53771W        W18756   5.913   4.977   2.413
53772W        W18757  29.644  43.914  11.925
53773W        W18758  15.710   2.002  14.572
53774W        W18759  28.456  21.832  14.479
53775W        W18760  22.386  16.823   1.667
53776W        W18761  25.707  10.206  11.518
53777W        W18762  12.542  13.963  11.137
53778W        W18763  22.564  32.002  12.194
53779W        W18764  37.922   2.683  11.711
53780W        W18765  28.355  28.758  12.037
53781W        W18766   2.540  41.341  10.111
53782W        W18767  25.008  32.690  11.959
53783W        W18768  15.084  22.177  11.216
53784W        W18769  15.722  32.103   4.823
53785W        W18770  36.790  20.169   4.562
53786W        W18771  16.483  11.130  14.936
53787W        W18772   2.953  36.103   1.848
53788W        W18773  39.254  44.089  10.677
53789W        W18774  17.333  30.358  14.312
53790W        W18775  43.419  16.438   9.821
53791W        W18776  39.166  24.924   3.701
53792W        W18777  19.315  15.669   0.769
53793W        W18778  37.489   5.913  13.620
53794W        W18779  38.402  19.158  14.005
53795W        W18780   1.969  36.642   2.661
53796W        W18781  21.998  44.938   4.603
53797W        W18782  25.700  42.029   0.954
53798W        W18783  39.801  31.566  14.425
53799W        W18784  15.928  32.184  11.903
53800W        W18785  30.611  40.812   4.784
53801W        W18786   1.832  21.073   5.040
53802W        W18787   2.707   2.679   2.312
53803W        W18788  38.353  19.586   4.238
53804W        W18789  28.704  41.545  10.661
53805W        W18790  34.146  43.423  12.350
53806W        W18791  36.625  27.165   0.949
53807W        W18792  32.370  25.938   0.911
53808W        W18793  26.051  18.666  14.717
53809W        W18794  18.062  34.762  11.765
53810W        W18795  14.154  38.248  12.444
53811W        W18796  32.023   0.888  11.550
53812W        W18797   6.884  23.398   0.956
53813W        W18798  23.419  21.723  13.700
53814W        W18799  13.193  22.146   4.416
53815W        W18800   3.777  22.133  14.304
53816W        W18801  36.955  35.560  12.779
53817W        W18802   7.967   8.412  10.619
53818W        W18803  43.030   4.387   3.908
53819W        W18804  14.531   2.731   3.239
53820W        W18805  24.091  34.926   2.761
53821W        W18806   3.183   1.693   4.952
53822W        W18807   1.401  19.016   3.793
53823W        W18808  14.297  26.196  13.964
53824W        W18809  34.569  15.591   3.186
53825W        W18810   9.306  33.019  11.464
53826W        W18811  17.542  11.217   3.668
53827W        W18812  11.810  18.596   4.633
53828W        W18813  44.491  20.780  12.054
53829W        W18814   0.743  28.075   4.601
53830W        W18815   3.395  42.502  11.622
53831W        W18816  28.092  25.807   2.229
53832W        W18817   1.252  22.022  11.238
53833W        W18818  43.947  42.561   2.629
53834W        W18819  39.666  19.590  11.100
53835W        W18820   6.927  10.747  13.975
53836W        W18821  36.928  42.325   3.251
53837W        W18822  19.202  42.789  12.534
53838W        W18823   2.859  26.740   3.102
53839W        W18824  15.318  12.271  12.825
53840W        W18825   5.784  20.267   0.796
53841W        W18826  43.418  35.535  12.319
53842W        W18827  34.450  11.156  11.119
53843W        W18828  26.543   5.751  14.162
53844W        W18829  19.893  17.739  13.425
53845W        W18830  38.402  39.912  13.057
53846W        W18831  32.940  23.785  12.062
53847W        W18832  33.299  20.099   3.180
53848W        W18833  28.347   2.477   0.409
53849W        W18834  34.394  25.985   1.438
53850W        W18835  39.267  21.968   1.652
53851W        W18836   6.449   7.134  13.434
53852W        W18837  15.279  30.110   3.249
53853W        W18838  13.148  14.775   1.847
53854W        W18839  26.245  40.956  12.973
53855W        W18840  24.414  29.028  11.745
53856W        W18841  14.131   4.370  11.086
53857W        W18842   2.038   1.422  11.094
53858W        W18843   4.326   6.177  14.808
53859W        W18844  18.013  37.772  11.586
53860W        W18845   3.649  39.573   0.668
53861W        W18846  44.065  16.363  11.539
53862W        W18847  21.599  42.881  14.923
53863W        W18848  28.369  39.993   1.888
53864W        W18849  15.093   9.255  14.046
53865W        W18850  38.414  29.658  14.302
53866W        W18851  31.191  29.885   0.397
53867W        W18852  40.479  42.324   0.283
53868W        W18853  38.327  24.231  14.886
53869W        W18854   2.104  35.875   4.522
53870W        W18855  17.334   2.216   3.298
53871W        W18856  43.403   5.020   2.245
53872W        W18857  10.785  20.540   2.289
53873W        W18858  32.965  17.104   1.463
53874W        W18859  33.404  36.941  10.511
53875W        W18860  11.725  34.235   0.786
53876W        W18861  29.722   2.533   0.014
53877W        W18862   4.709  32.378  11.565
53878W        W18863   4.977  32.482   3.911
53879W        W18864  32.553  12.180  14.420
53880W        W18865  19.354  39.449   1.287
53881W        W18866   2.551  15.567  14.966
53882W        W18867  27.323  37.507  12.214
53883W        W18868  37.602  40.844  13.959
53884W        W18869  14.702  42.784   2.393
53885W        W18870  18.103  19.820   0.231
53886W        W18871   3.479  15.247   0.923
53887W        W18872   6.350   1.571  11.577
53888W        W18873  36.528  41.810   4.819
53889W        W18874  18.900   1.224  11.472
53890W        W18875  16.256  14.168  11.661
53891W        W18876  38.622   9.278   2.426
53892W        W18877  17.185  19.909  11.846
53893W        W18878  19.544  11.784  12.622
53894W        W18879  28.891   8.895   2.622
53895W        W18880  44.726  27.311   2.664
53896W        W18881   6.629  40.214  12.073
53897W        W18882   9.944   0.669   1.642
53898W        W18883  40.735  28.213   4.522
53899W        W18884  24.758  18.833  12.529
53900W        W18885  41.778  26.367   0.449
53901W        W18886  18.378   9.702  11.859
53902W        W18887   5.002  40.014  11.597
53903W        W18888  28.090  39.765   2.849
53904W        W18889  43.288  29.220   0.697
53905W        W18890  30.104  15.354  12.470
53906W        W18891  19.717  44.855   0.896
53907W        W18892  13.824   0.369  11.340
53908W        W18893   7.830  12.080  13.525
53909W        W18894  44.352  29.532   1.765
53910W        W18895  37.317  21.843  14.142
53911W        W18896  21.123  24.963  10.391
53912W        W18897   8.147  18.204  12.996
53913W        W18898   3.947  40.519   0.725
53914W        W18899  17.666  25.925  13.897
53915W        W18900   0.744  10.886  13.447
53916W        W18901  40.262  43.480  13.023
53917W        W18902  29.011  35.386  11.558
53918W        W18903  37.297   8.781  13.881
53919W        W18904  36.494  21.466   1.841
53920W        W18905   1.014   8.969  10.709
53921W        W18906   6.669  30.187   3.378
53922W        W18907  15.555  44.202  10.362
53923W        W18908   3.953  16.200   3.814
53924W        W18909  43.521   5.135   4.374
53925W        W18910  35.918   6.211   4.227
53926W        W18911   3.434  15.651   0.449
53927W        W18912  10.808  42.727  10.713
53928W        W18913   7.642  37.753  13.978
53929W        W18914  26.934  21.789  14.811
53930W        W18915  24.561  20.570   3.097
53931W        W18916  11.635  12.050  14.952
53932W        W18917   9.160  30.338   2.625
53933W        W18918  15.539  20.315   0.488
53934W        W18919  43.339  36.554  13.368
53935W        W18920   5.294  15.310  13.040
53936W        W18921  14.876  31.475   2.334
53937W        W18922  33.157  29.215   4.223
53938W        W18923  12.251  23.658   3.621
53939W        W18924  36.558  44.985  12.674
53940W        W18925  32.426   2.723   2.213
53941W        W18926  15.048  23.056  11.587
53942W        W18927  22.552  30.882   4.145
53943W        W18928  36.598  34.383   1.387
53944W        W18929  35.325   1.798  10.493
53945W        W18930  34.922   3.772   0.826
53946W        W18931   2.776  15.818  10.458
53947W        W18932  21.828  39.312  14.943
53948W        W18933  14.540   4.638  14.415
53949W        W18934   6.043  41.513  12.365
53950W        W18935  27.650  10.375   4.151
53951W        W18936  18.078  17.587   3.344
53952W        W18937  37.319   4.436  12.566
53953W        W18938  38.771  27.156   2.967
53954W        W18939   9.556  18.761   0.912
53955W        W18940  15.291  40.555  10.599
53956W        W18941   7.586  40.549  11.990
53957W        W18942  40.933  21.648   0.754
53958W        W18943  24.531  40.805  13.513
53959W        W18944   7.677  41.945  13.980
53960W        W18945  43.819  28.635  11.557
53961W        W18946  14.757  42.948  11.041
53962W        W18947  36.989   7.514  11.350
53963W        W18948  25.936  44.820  14.953
53964W        W18949  31.145  35.305  12.091
53965W        W18950  32.084   3.778  10.243
53966W        W18951   4.317  42.704  13.941
53967W        W18952  42.421  43.838  12.057
53968W        W18953  26.663   3.720   4.528
53969W        W18954  24.669   2.156  11.625
53970W        W18955  38.820   4.103  11.950
53971W        W18956  17.802  19.212  14.009
53972W        W18957  12.339  33.147  11.551
53973W        W18958  36.043  24.259  14.734
53974W        W18959  21.508  16.318   1.645
53975W        W18960   2.594  28.441   2.709
53976W        W18961  38.743  20.113   3.127
53977W        W18962   6.110  30.513  10.076
53978W        W18963   1.264   5.377   2.259
53979W        W18964  26.738  17.612  14.283
53980W        W18965   1.497   4.695  12.508
53981W        W18966  22.586  27.289   9.935
53982W        W18967  31.110   9.349  11.199
53983W        W18968  26.024  29.437  10.110
53984W        W18969   7.290  28.196  12.531
53985W        W18970  30.925  28.562   1.947
53986W        W18971  29.565  18.147   2.533
53987W        W18972  32.944  15.292  11.092
53988W        W18973   8.739   1.285   3.605
53989W        W18974  36.584  29.219  13.589
53990W        W18975  10.921  24.823   0.786
53991W        W18976  31.213  22.634  14.949
53992W        W18977   5.453  15.085   2.389
53993W        W18978  28.903  12.172  12.148
53994W        W18979  17.369  21.863  10.455
53995W        W18980   5.173  19.496   4.037
53996W        W18981  21.983  10.441   4.112
53997W        W18982  38.488  28.608   1.853
53998W        W18983  35.785  38.400  11.625
53999W        W18984  28.946   9.460  13.481
54000W        W18985  20.698   4.815   0.456
54001W        W18986   6.773  32.376   4.035
54002W        W18987   0.776   4.741   0.378
54003W        W18988   6.476  34.814   3.763
54004W        W18989  29.988  10.886  11.462
54005W        W18990  19.173  17.322  12.836
54006W        W18991  20.272  10.854   0.976
54007W        W18992  41.753  23.670   0.778
54008W        W18993  29.493  28.593  10.745
54009W        W18994  14.897  44.762  11.799
54010W        W18995  41.731  29.152   3.181
54011W        W18996  27.954  33.865   3.191
54012W        W18997   3.537  37.483   0.246
54013W        W18998  38.789  41.132   4.792
54014W        W18999  20.680  37.369   3.339
54015W        W19000   2.543  29.546   1.857
54016W        W19001   9.575  39.653  12.128
54017W        W19002  27.416  34.727   4.991
54018W        W19003   0.884  27.729  13.425
54019W        W19004   7.381  43.255  12.901
54020W        W19005  17.401   6.903  13.385
54021W        W19006   8.389  10.213  12.958
54022W        W19007   2.964  42.948  10.650
54023W        W19008  23.148  20.308  10.591
54024W        W19009  14.097  38.468   3.921
54025W        W19010  12.607  42.021  12.936
54026W        W19011  10.766  29.617  14.308
54027W        W19012  44.834  37.553   2.618
54028W        W19013  41.416   8.845   2.227
54029W        W19014  21.573  35.313  13.436
54030W        W19015  10.667  32.115  12.409
54031W        W19016  43.881  26.407  12.858
54032W        W19017  26.389   1.973  12.125
54033W        W19018  34.592  21.225  14.746
54034W        W19019  30.885   6.994   1.808
54035W        W19020   8.728  10.125  13.330
54036W        W19021  11.946   7.974  11.801
54037W        W19022  31.939  17.068  14.977
54038W        W19023  37.508   5.249  13.285
54039W        W19024  29.682  23.238   1.818
54040W        W19025  32.631  34.461   1.224
54041W        W19026  14.663  23.501  13.202
54042W        W19027   2.270  21.238  13.533
54043W        W19028   5.349  21.708   3.759
54044W        W19029  11.000   7.204   0.985
54045W        W19030  23.664  21.386   0.909
54046W        W19031  33.032  11.922   3.673
54047W        W19032  28.025  19.555   2.724
54048W        W19033  21.487  38.554  13.327
54049W        W19034   4.932  31.119  14.399
54050W        W19035  41.391   5.620   3.579
54051W        W19036  29.191  36.941  14.101
54052W        W19037   7.429  36.633  11.554
54053W        W19038   1.737  33.937   4.698
54054W        W19039  29.554  38.546   1.735
54055W        W19040  22.148  41.069   0.786
54056W        W19041  29.908  30.933  10.455
54057W        W19042  15.066  26.680   3.277
54058W        W19043   5.789  12.809  14.170
54059W        W19044  31.930  35.434   2.744
54060W        W19045  37.110  22.493   1.393
54061W        W19046  31.580  30.667   4.127
54062W        W19047  15.280   3.404  14.984
54063W        W19048   5.378   0.370   0.007
54064W        W19049  12.729  25.002  14.449
54065W        W19050  41.649   1.704   3.945
54066W        W19051  32.330   4.289  11.602
54067W        W19052  34.500  32.924  10.623
54068W        W19053   5.760   7.967  14.270
54069W        W19054  27.408  12.316  13.216
54070W        W19055  32.948  16.276   1.684
54071W        W19056  19.318   8.938   1.757
54072W        W19057  14.419  34.893   4.546
54073W        W19058  41.931  11.393  13.736
54074W        W19059  12.770  15.332  14.524
54075W        W19060  11.532  30.085   3.176
54076W        W19061  10.887   7.236  10.121
54077W        W19062  19.337  24.808  13.228
54078W        W19063  16.602  14.128   2.665
54079W        W19064  30.309  15.824  12.311
54080W        W19065  15.728  33.873  10.421
54081W        W19066  20.709   2.994   2.828
54082W        W19067   2.234  15.382  12.057
54083W        W19068  29.690  20.523   0.384
54084W        W19069  19.063  44.618  14.358
54085W        W19070  38.494  24.000   0.330
54086W        W19071  26.029  28.338  11.873
54087W        W19072  23.229  24.607  11.992
54088W        W19073  41.319  23.533  10.061
54089W        W19074  24.543  43.720   4.644
54090W        W19075  22.217  31.403  14.832
54091W        W19076  43.781  32.763  12.121
54092W        W19077   6.686  15.680   0.016
54093W        W19078  18.775   1.383  12.940
54094W        W19079   9.447  32.019  10.986
54095W        W19080  32.161  37.259  12.595
54096W        W19081  42.225  38.579  10.257
54097W        W19082  15.586  10.802   1.487
54098W        W19083  36.059  10.173  11.224
54099W        W19084  16.826  40.321  10.721
54100W        W19085  43.996   0.876  14.767
54101W        W19086  42.033  33.677  13.050
54102W        W19087  23.139  31.883  14.975
54103W        W19088  24.756  19.248   0.783
54104W        W19089  44.312  39.823  13.060
54105W        W19090  34.816  38.584  14.932
54106W        W19091   4.063  23.145   4.542
54107W        W19092  25.502  12.665  13.813
54108W        W19093  10.841  11.026  13.829
54109W        W19094   4.345  25.987   2.327
54110W        W19095  37.956  42.390   0.787
54111W        W19096  31.963  30.877  13.959
54112W        W19097  13.772  22.098   2.424
54113W        W19098  42.429  30.861   2.743
54114W        W19099   0.831  16.284  12.226
54115W        W19100   8.369  27.178  14.033
54116W        W19101  38.711   4.535   1.636
54117W        W19102   0.685  29.231  13.840
54118W        W19103  39.956  24.561  11.896
54119W        W19104   1.390  34.644   2.195
54120W        W19105  43.488  20.079  13.001
54121W        W19106  43.979  35.610  11.499
54122W        W19107  21.290  19.701  14.415
54123W        W19108  14.634  34.746  11.095
54124W        W19109   0.021  41.726  12.030
54125W        W19110  27.001  36.784   0.843
54126W        W19111   2.560   1.326  12.864
54127W        W19112  27.928  23.772  10.165
54128W        W19113  10.836  27.556   0.542
54129W        W19114  30.542  43.223   3.495
54130W        W19115  38.539  23.080   1.935
54131W        W19116  15.550  14.234   1.335
54132W        W19117  25.673  11.438   0.348
54133W        W19118  11.106  44.740   2.271
54134W        W19119  27.416  23.389  13.041
54135W        W19120   1.895  15.900  13.441
54136W        W19121  31.834  35.993   4.086
54137W        W19122  32.051  35.627   4.838
54138W        W19123  28.021  25.304   4.629
54139W        W19124  11.698  43.605   2.197
54140W        W19125  34.556   2.183  12.960
54141W        W19126  23.106  19.797  10.616
54142W        W19127  31.171  23.904  11.751
54143W        W19128   4.915  31.676  10.042
54144W        W19129  30.291  27.109   4.698
54145W        W19130   9.381  16.202   3.392
54146W        W19131  15.967  43.263  12.210
54147W        W19132  34.813  22.704  12.066
54148W        W19133   4.100  39.901   0.767
54149W        W19134  42.540   7.843  10.704
54150W        W19135  43.039   3.355  12.995
54151W        W19136  28.093  19.194  13.076
54152W        W19137  43.340  18.632  12.431
54153W        W19138  32.389  16.052  11.124
54154W        W19139  41.913  19.876  13.513
54155W        W19140  26.779   7.948   0.717
54156W        W19141   2.227  17.835  10.881
54157W        W19142   8.620  38.977  11.060
54158W        W19143  21.080  34.476   1.877
54159W        W19144  13.639  30.240   2.103
54160W        W19145  13.343  10.636  13.640
54161W        W19146  25.471   4.675  11.584
54162W        W19147  43.293  30.499  14.762
54163W        W19148  10.752  20.353   2.764
54164W        W19149   8.264  33.085   4.231
54165W        W19150  35.092  32.405   2.268
54166W        W19151  12.786  33.873   3.377
54167W        W19152   7.839   0.460  12.573
54168W        W19153  42.684  15.784  14.127
54169W        W19154  20.969  17.127  14.533
54170W        W19155  34.281   6.100   1.243
54171W        W19156  16.568  41.491   0.296
54172W        W19157   2.953  18.138  12.023
54173W        W19158   2.228  18.807   0.696
54174W        W19159  23.170  18.358   1.883
54175W        W19160  32.846  39.289   2.612
54176W        W19161   4.872  39.271  12.530
54177W        W19162   6.211   6.196  14.496
54178W        W19163   0.031   8.841   1.314
54179W        W19164  20.770  34.971   3.390
54180W        W19165   5.547  40.111   0.384
54181W        W19166  10.858  28.130  10.869
54182W        W19167  11.236  43.655  12.586
54183W        W19168  22.463  14.716  10.641
54184W        W19169   4.790  11.832   4.551
54185W        W19170   0.028  26.572   3.617
54186W        W19171  27.129  28.622  13.053
54187W        W19172  14.299  22.160  10.859
54188W        W19173   0.377  35.597  10.375
54189W        W19174   9.485  15.595  11.024
54190W        W19175  21.103  23.273   2.684
54191W        W19176  22.523  29.019  14.011
54192W        W19177   7.053   1.661   2.633
54193W        W19178   6.708  36.546  14.490
54194W        W19179  27.997  44.906  14.685
54195W        W19180   4.359   8.148  13.697
54196W        W19181   7.219  16.810   0.186
54197W        W19182   3.051  42.516   1.673
54198W        W19183  21.893  40.507   0.315
54199W        W19184   0.931  26.446   0.257
54200W        W19185  15.969   8.966  11.661
54201W        W19186  23.106  22.117   4.056
54202W        W19187  44.212  27.751  13.974
54203W        W19188  28.408  43.893   2.203
54204W        W19189  17.257  25.072  14.765
54205W        W19190   1.726  10.237  12.999
54206W        W19191  21.628  32.352  13.484
54207W        W19192  43.824  36.824   0.877
54208W        W19193  14.549  42.687  14.856
54209W        W19194  15.772  24.224   3.066
54210W        W19195  26.697  15.463  11.988
54211W        W19196  16.665  37.922  11.700
54212W        W19197  39.975  27.134   1.617
54213W        W19198   6.122  11.343   4.604
54214W        W19199  22.733  13.821  14.045
54215W        W19200   0.993  42.927   5.014
54216W        W19201   0.522  43.138  14.853
54217W        W19202  32.623  34.969  13.854
54218W        W19203  20.024  38.480  11.213
54219W        W19204  11.763  36.927  14.951
54220W        W19205  19.582  27.644  13.877
54221W        W19206   9.328  27.189  14.223
54222W        W19207   0.928  21.144  13.062
54223W        W19208  31.383  35.961  12.467
54224W        W19209  28.702  22.521  12.775
54225W        W19210  13.159  10.942   2.783
54226W        W19211  35.528  34.071   2.403
54227W        W19212  32.225   9.227   4.584
54228W        W19213   4.719  33.671   2.157
54229W        W19214  12.851  23.233  14.776
54230W        W19215  31.982  36.404  12.005
54231W        W19216  35.217  27.513   4.297
54232W        W19217   6.425   6.950   3.658
54233W        W19218  13.133  24.469  11.914
54234W        W19219  11.817  15.030   4.377
54235W        W19220  39.942   3.193   1.112
54236W        W19221  13.535  14.766  13.025
54237W        W19222  28.243  26.485   2.840
54238W        W19223   8.198  28.932  14.064
54239W        W19224   2.499  13.568  11.186
54240W        W19225  33.602   8.779   1.595
54241W        W19226  38.613   3.960   2.685
54242W        W19227  28.158   9.794  11.476
54243W        W19228  41.428  27.515   4.584
54244W        W19229  31.530  17.603   3.102
54245W        W19230   4.914  25.568  10.724
54246W        W19231  40.533  41.022  13.047
54247W        W19232  26.673  44.424  14.076
54248W        W19233  26.430  29.950  12.116
54249W        W19234  11.154   7.932  14.547
54250W        W19235  18.049  40.058  13.562
54251W        W19236  20.658  33.206  11.266
54252W        W19237  10.638  23.407  11.702
54253W        W19238  21.460  26.888   2.167
54254W        W19239  25.525  10.896  13.884
54255W        W19240  44.834   1.140   3.152
54256W        W19241  24.899  37.802   1.769
54257W        W19242  16.996  30.235   3.041
54258W        W19243   2.656  40.209  14.098
54259W        W19244  33.360  12.027  14.815
54260W        W19245  36.084  41.939  12.079
54261W        W19246  22.087  36.605   0.264
54262W        W19247  27.006  22.475   4.111
54263W        W19248  37.028   9.315   2.361
54264W        W19249  30.176   5.822  12.180
54265W        W19250  15.299  24.901  10.678
54266W        W19251  23.951  43.444   1.409
54267W        W19252  37.446  16.543   2.293
54268W        W19253   1.028  41.036   4.446
54269W        W19254  20.206  18.764   1.802
54270W        W19255  15.672  35.767   9.295
54271W        W19256  12.216  20.716   2.402
54272W        W19257  24.718  39.914   2.008
54273W        W19258  15.214  34.808  11.157
54274W        W19259  24.403  29.056   0.474
54275W        W19260  34.698  29.518   4.176
54276W        W19261  13.903  26.882  14.438
54277W        W19262  14.109   6.335  10.248
54278W        W19263  33.504  16.171   4.787
54279W        W19264   1.264  35.955   2.151
54280W        W19265   5.197  21.359   2.271
54281W        W19266  44.076  27.774   4.460
54282W        W19267  37.521  10.220   3.691
54283W        W19268   4.733  38.982   2.504
54284W        W19269  13.883  25.102   3.152
54285W        W19270  15.837  27.003  14.327
54286W        W19271  27.512  10.367  11.119
54287W        W19272  15.580  38.931  14.503
54288W        W19273   4.741  32.767   4.270
54289W        W19274  33.552  39.747   3.633
54290W        W19275   4.777  18.767   2.631
54291W        W19276  43.093  14.143   3.644
54292W        W19277  34.293  18.279  10.629
54293W        W19278   4.320  31.039   0.521
54294W        W19279   6.201   6.072   0.413
54295W        W19280  43.887  34.117   0.263
54296W        W19281  44.175  40.964  12.046
54297W        W19282  43.938  38.402   0.811
54298W        W19283  11.710  22.813   3.592
54299W        W19284  35.618  13.731  12.035
54300W        W19285   7.404   6.842   1.191
54301W        W19286  21.598  31.811   3.339
54302W        W19287  26.602  31.704   4.448
54303W        W19288  27.290  44.359  11.321
54304W        W19289  25.466  42.823   3.684
54305W        W19290  17.354  38.745   2.410
54306W        W19291  12.824   3.224  12.995
54307W        W19292  23.282  43.377  14.702
54308W        W19293  44.395  11.874   4.553
54309W        W19294  17.117  25.537   3.810
54310W        W19295   6.166   8.746   0.282
54311W        W19296   9.129  31.596  13.980
54312W        W19297   2.351  26.435   4.566
54313W        W19298  15.623   9.346   0.299
54314W        W19299  44.892   6.481   2.783
54315W        W19300  39.310  13.048  13.009
54316W        W19301  13.090  21.251   4.659
54317W        W19302  11.205   6.510   5.507
54318W        W19303   8.295  33.653   1.964
54319W        W19304  21.226  13.134  14.119
54320W        W19305   4.470  31.329  14.237
54321W        W19306  36.972  40.849   1.158
54322W        W19307   1.829  16.707  14.550
54323W        W19308  26.967   3.017   3.195
54324W        W19309  20.978  16.142  11.450
54325W        W19310  37.048  10.423   3.566
54326W        W19311  34.475  26.895   4.779
54327W        W19312   5.420  35.454   3.663
54328W        W19313  39.426  43.833   0.008
54329W        W19314  12.260  43.214   3.711
54330W        W19315  30.506  29.979   4.371
54331W        W19316   5.914  14.255  14.305
54332W        W19317  22.433   0.282  10.571
54333W        W19318  22.662  25.103  14.581
54334W        W19319  36.039  14.998  11.239
54335W        W19320  10.271  29.947   2.726
54336W        W19321   0.910  37.610  10.713
54337W        W19322  26.403  22.565   3.165
54338W        W19323  36.872  28.347  14.798
54339W        W19324   9.235   1.009  10.738
54340W        W19325  28.040  28.135   0.403
54341W        W19326  11.082  42.448  12.938
54342W        W19327  29.046  37.274  11.516
54343W        W19328  30.550  39.516  13.335
54344W        W19329  18.999  10.503  10.066
54345W        W19330  19.829  43.629  10.599
54346W        W19331  40.699   0.252   4.078
54347W        W19332  40.504  11.850  12.561
54348W        W19333  16.084  11.817   1.815
54349W        W19334   7.001  27.971   4.176
54350W        W19335   8.914  30.417  12.667
54351W        W19336  14.395  17.834   3.237
54352W        W19337  27.235  24.648  14.859
54353W        W19338   7.596  39.278   1.228
54354W        W19339   4.923  21.687   4.952
54355W        W19340   2.333  35.794   1.314
54356W        W19341  13.162  15.707  10.895
54357W        W19342   3.335  22.414   2.047
54358W        W19343  13.103  23.104  14.351
54359W        W19344  22.751   9.556   0.657
54360W        W19345  39.156  37.324   0.754
54361W        W19346  27.616  23.026   2.883
54362W        W19347  22.559  15.079  11.172
54363W        W19348   4.889  10.039  13.921
54364W        W19349   6.021   6.436  10.286
54365W        W19350   2.983  10.679  13.117
54366W        W19351  20.177  39.064   3.360
54367W        W19352  35.258  41.903   0.332
54368W        W19353  43.961  31.038   0.122
54369W        W19354  23.522  13.352  11.177
54370W        W19355   3.448  30.604   2.836
54371W        W19356  22.446  22.126   0.719
54372W        W19357  25.242  24.195   0.783
54373W        W19358   7.144  36.756  12.003
54374W        W19359  23.783   8.396  14.410
54375W        W19360  13.558  31.156   4.115
54376W        W19361  25.957  30.451   1.784
54377W        W19362  43.224  27.947   4.571
54378W        W19363  39.539  28.085   1.192
54379W        W19364  16.155  37.009  12.703
54380W        W19365  14.717  22.449  10.983
54381W        W19366  42.910  17.235  11.657
54382W        W19367  34.891   3.728  14.027
54383W        W19368  23.040  37.077   1.781
54384W        W19369  15.224  34.295   0.350
54385W        W19370   6.487  32.095   0.482
54386W        W19371  11.272  14.854  12.474
54387W        W19372  14.311  38.203   1.059
54388W        W19373  22.205  12.208  13.340
54389W        W19374   8.489  36.389  11.512
54390W        W19375   8.020  28.211  11.937
54391W        W19376   9.658  29.693  12.374
54392W        W19377  30.405  34.988  13.495
54393W        W19378  25.864  34.965   4.275
54394W        W19379   9.918  27.974  13.506
54395W        W19380   9.789  29.005   0.838
54396W        W19381  38.883  41.847   2.606
54397W        W19382  34.068   9.592   2.337
54398W        W19383  42.183  16.268  12.543
54399W        W19384  27.961  24.130   1.196
54400W        W19385  21.320  22.391  14.802
54401W        W19386  20.654  28.691   1.345
54402W        W19387   7.122  10.314   4.142
54403W        W19388  40.218  15.568   0.398
54404W        W19389  10.810   3.774   1.293
54405W        W19390  31.575  22.053  14.210
54406W        W19391  42.245  26.681   1.196
54407W        W19392  12.158   6.339   2.365
54408W        W19393  28.019  21.104  13.852
54409W        W19394  28.441  17.690   3.585
54410W        W19395  23.235  14.193  10.754
54411W        W19396  44.148   4.362  13.447
54412W        W19397   8.778  26.244   2.769
54413W        W19398  20.557  11.871  14.823
54414W        W19399  26.095   6.239  12.544
54415W        W19400  28.737   5.894   1.197
54416W        W19401  38.621  16.054   4.328
54417W        W19402   0.328  12.249   4.303
54418W        W19403  10.778  43.207  10.891
54419W        W19404  28.119   2.586   2.848
54420W        W19405  37.971  40.287  14.831
54421W        W19406  13.557  32.642  11.063
54422W        W19407  37.913  32.583   1.222
54423W        W19408  30.534  35.163  14.367
54424W        W19409  27.425  37.228  11.049
54425W        W19410  26.162  10.107   4.293
54426W        W19411  17.873   0.821  13.640
54427W        W19412   2.784   2.824   4.750
54428W        W19413  19.851  37.538  11.247
54429W        W19414  24.006   5.158  14.364
54430W        W19415  37.953  20.777   0.781
54431W        W19416   1.878  12.031   4.816
54432W        W19417  11.420  20.841  10.333
54433W        W19418   2.173  38.911  11.506
54434W        W19419   5.940  36.129  12.830
54435W        W19420  23.611   7.105   2.318
54436W        W19421   0.203  39.666   3.189
54437W        W19422   1.619  14.145  11.822
54438W        W19423  36.092  33.690  12.544
54439W        W19424   1.699  12.235  11.973
54440W        W19425  25.931  22.567  10.759
54441W        W19426  14.358  43.321  11.505
54442W        W19427  11.000  26.723   3.173
54443W        W19428  17.567  22.678   1.697
54444W        W19429  24.015   2.134   5.062
54445W        W19430  35.576  41.994   4.433
54446W        W19431  13.855  14.166   4.571
54447W        W19432  30.471  42.565   0.143
54448W        W19433  32.635  41.496   2.829
54449W        W19434  33.657  33.425   5.030
54450W        W19435  39.490  19.810  14.829
54451W        W19436  41.236  28.555   3.855
54452W        W19437  38.066  42.557  12.446
54453W        W19438  26.197  17.120   1.302
54454W        W19439  44.950  44.449   4.403
54455W        W19440  21.622  33.382   2.181
54456W        W19441   4.213  40.978  14.885
54457W        W19442  31.802   3.462   1.546
54458W        W19443  44.939  31.485  12.408
54459W        W19444  14.156  13.959  12.020
54460W        W19445  43.725   1.317  14.689
54461W        W19446  17.082  15.349  11.031
54462W        W19447   0.731  13.612  10.679
54463W        W19448  19.645  21.121   4.552
54464W        W19449  18.762  35.490  12.559
54465W        W19450   3.789  21.160   1.019
54466W        W19451   4.144  41.780   4.162
54467W        W19452  40.930  27.489   3.211
54468W        W19453  10.285  32.488  11.168
54469W        W19454  15.619  35.645  13.254
54470W        W19455  31.150  36.832   3.167
54471W        W19456  11.256  20.722  13.939
54472W        W19457  41.080  18.874   1.041
54473W        W19458  23.627  24.208  11.222
54474W        W19459  27.611  20.859  11.974
54475W        W19460  41.563  36.371   2.613
54476W        W19461  12.558  29.194  13.003
54477W        W19462  26.711  34.536  11.173
54478W        W19463   8.247   1.227  12.920
54479W        W19464  28.045  40.519   0.828
54480W        W19465  44.689  39.782  13.416
54481W        W19466  39.206  41.410   3.003
54482W        W19467  29.455  12.932   4.105
54483W        W19468  20.860  28.563  12.946
54484W        W19469  44.581  37.130   2.719
54485W        W19470   7.852  30.658   2.626
54486W        W19471  24.563  10.901  12.087
54487W        W19472   3.001  38.095  11.082
54488W        W19473  23.945   9.754   4.584
54489W        W19474  24.671   0.270   3.632
54490W        W19475  28.122  12.331   0.770
54491W        W19476  24.803  12.172   2.146
54492W        W19477   3.918  43.638   4.292
54493W        W19478  21.278  14.124  13.308
54494W        W19479   1.767  23.474   3.358
54495W        W19480  42.966   9.430  10.321
54496W        W19481   3.033  10.402   1.388
54497W        W19482  13.675  40.457   1.155
54498W        W19483   0.518   5.409  13.917
54499W        W19484   5.442  16.014   0.411
54500W        W19485  17.627  41.904   3.597
54501W        W19486  14.517  39.860  13.928
54502W        W19487  13.546  19.097   3.062
54503W        W19488  33.081   9.805   2.883
54504W        W19489   2.349   6.786  12.957
54505W        W19490   7.389  42.400   4.197
54506W        W19491  38.485  42.685  13.090
54507W        W19492  19.023  41.442  12.951
54508W        W19493  23.642  11.239   3.985
54509W        W19494  34.811   2.027  13.377
54510W        W19495   8.975   8.564   3.423
54511W        W19496  11.863  19.552   4.704
54512W        W19497   9.662  23.749   4.100
54513W        W19498  40.008   4.806  12.349
54514W        W19499  19.663  26.964  12.032
54515W        W19500  37.801  31.871   4.979
54516W        W19501   6.700  27.535   3.132
54517W        W19502  16.494  37.410   2.336
54518W        W19503  21.775  35.109  12.982
54519W        W19504  20.032   1.424   3.134
54520W        W19505   0.261  17.096   4.155
54521W        W19506  10.172   6.307  11.842
54522W        W19507  26.232   1.810   0.895
54523W        W19508  14.262  30.330   1.385
54524W        W19509  29.629   3.481  14.798
54525W        W19510  43.310  18.200   1.245
54526W        W19511   6.863  33.480  11.462
54527W        W19512  31.999   8.101   0.398
54528W        W19513  22.517   3.021  10.636
54529W        W19514  11.178  18.192   3.071
54530W        W19515   0.111  30.763   0.093
54531W        W19516  11.092  19.120  12.081
54532W        W19517  15.248  31.347   3.847
54533W        W19518  36.071   3.075  13.704
54534W        W19519  41.031  34.589  14.519
54535W        W19520  39.577  41.558  10.992
54536W        W19521  14.244  38.580   2.914
54537W        W19522  44.318   3.464   0.180
54538W        W19523  42.566  32.771  11.604
54539W        W19524   1.145  20.622   1.144
54540W        W19525   6.533  37.052  11.368
54541W        W19526  22.300  11.180   3.657
54542W        W19527  18.304  26.650   3.001
54543W        W19528  30.105   3.787   3.407
54544W        W19529  36.715  28.946   1.055
54545W        W19530  35.347  31.995   3.641
54546W        W19531  21.510   1.201   1.222
54547W        W19532   3.739  35.154  12.148
54548W        W19533  20.739  31.330  13.981
54549W        W19534  12.480  22.209  10.618
54550W        W19535  24.109  10.194   3.392
54551W        W19536  29.439  14.357  10.756
54552W        W19537   4.970  38.478  12.978
54553W        W19538  31.060  27.053   1.814
54554W        W19539  27.714  29.701  14.796
54555W        W19540  15.674  28.095   3.291
54556W        W19541  35.813   0.888  12.589
54557W        W19542  26.956  15.906  11.966
54558W        W19543  12.155  41.554  13.980
54559W        W19544  26.497  38.088   2.718
54560W        W19545  38.406  41.864  13.817
54561W        W19546  39.937  36.805  13.897
54562W        W19547  40.969  10.671  13.099
54563W        W19548   3.054  37.679  12.021
54564W        W19549  27.437   6.247   1.281
54565W        W19550  24.242   4.426   3.298
54566W        W19551   6.950  11.696  14.304
54567W        W19552   3.384  26.891   3.128
54568W        W19553  11.553  37.132  12.009
54569W        W19554  20.261  30.601  11.624
54570W        W19555  14.024  19.960   1.857
54571W        W19556  31.160  14.646   1.775
54572W        W19557  21.998  17.583  12.635
54573W        W19558  12.194  16.611  12.020
54574W        W19559  36.251  26.957   4.102
54575W        W19560   8.284  27.272  11.822
54576W        W19561  29.721  24.184   1.615
54577W        W19562  35.217   6.664   4.137
54578W        W19563  39.789  19.153   0.321
54579W        W19564   9.222  10.833   1.673
54580W        W19565   3.962   4.916   1.152
54581W        W19566  18.888   5.409   5.703
54582W        W19567  32.397  28.913  12.448
54583W        W19568  12.201  20.658  14.802
54584W        W19569  39.978  24.266  13.265
54585W        W19570  42.781  15.637   3.296
54586W        W19571  24.755  32.086   2.832
54587W        W19572  10.044  43.713   4.312
54588W        W19573  24.464  38.598   3.819
54589W        W19574  22.246  44.690   2.677
54590W        W19575   9.694  23.306   0.295
54591W        W19576  27.031  19.626  14.739
54592W        W19577  21.607  35.925   1.919
54593W        W19578  31.518  12.282   0.075
54594W        W19579  32.932  39.258  11.449
54595W        W19580   0.378   1.489  13.928
54596W        W19581  27.546   5.838   2.374
54597W        W19582  32.026  28.303  11.176
54598W        W19583  21.050  31.199   2.892
54599W        W19584  32.968   0.766  11.487
54600W        W19585  16.512  16.794  14.016
54601W        W19586  23.498   1.896   5.081
54602W        W19587  12.411   0.483   3.275
54603W        W19588  35.085  33.547  12.557
54604W        W19589  24.063  26.235   0.721
54605W        W19590   4.595   9.396  11.412
54606W        W19591  32.712   2.930  14.648
54607W        W19592  23.167  24.779   0.278
54608W        W19593   7.119  17.039  10.787
54609W        W19594  32.528   4.386  12.122
54610W        W19595  25.300   2.550  10.663
54611W        W19596  28.207  43.040  13.524
54612W        W19597   6.340   4.237   2.425
54613W        W19598   4.466  35.582  10.730
54614W        W19599  31.048  27.463   4.406
54615W        W19600  10.615   5.876   2.733
54616W        W19601  43.771  31.060   0.960
54617W        W19602  23.633   2.467  11.193
54618W        W19603  17.184  26.286  11.157
54619W        W19604  34.208  10.634  10.210
54620W        W19605  32.855  30.643   0.807
54621W        W19606  13.266   9.435  10.698
54622W        W19607  41.428   3.876  13.154
54623W        W19608  13.308   4.401  10.666
54624W        W19609  27.228  29.465   0.085
54625W        W19610  27.508  19.913  13.993
54626W        W19611  30.961   5.867   4.563
54627W        W19612  27.042   6.891   3.189
54628W        W19613   8.101  21.026   1.944
54629W        W19614  35.400  22.720  13.801
54630W        W19615  44.323   5.140  11.117
54631W        W19616  40.022   9.676   0.497
54632W        W19617   3.946  13.247   2.132
54633W        W19618  39.833   5.324   2.310
54634W        W19619  41.262  34.291   2.128
54635W        W19620  16.630  31.280  11.151
54636W        W19621   3.942  42.012  10.761
54637W        W19622  19.803  16.929  10.602
54638W        W19623   4.848  43.253   0.544
54639W        W19624  23.105  16.196   4.476
54640W        W19625  25.950  21.666   3.356
54641W        W19626   5.716  11.665   0.304
54642W        W19627  25.198   8.277  12.025
54643W        W19628  40.108   6.474   0.019
54644W        W19629  22.882  34.421  13.986
54645W        W19630  33.226  26.681  10.523
54646W        W19631   0.604  39.039  11.646
54647W        W19632  19.584   8.698   3.838
54648W        W19633  43.690  26.619   5.077
54649W        W19634  21.668  12.797   0.952
54650W        W19635   8.131  41.369   0.301
54651W        W19636  13.790  29.774   4.176
54652W        W19637  12.159  26.417  12.444
54653W        W19638  43.701   8.225   2.385
54654W        W19639  20.133  12.149  10.698
54655W        W19640  18.103  24.221  14.920
54656W        W19641  22.053  33.465   2.454
54657W        W19642   4.031  19.666   5.064
54658W        W19643  24.336  19.118   3.357
54659W        W19644  32.300   4.823  11.977
54660W        W19645  28.468  43.835  12.057
54661W        W19646  15.319   1.067  10.838
54662W        W19647  30.917  37.021   0.389
54663W        W19648  11.770  43.737   0.747
54664W        W19649  18.416  10.874   2.718
54665W        W19650  36.941  18.662   0.983
54666W        W19651  22.952   8.168  13.367
54667W        W19652  21.752  13.646  11.568
54668W        W19653  23.147  21.628   1.058
54669W        W19654  39.901  13.161   3.068
54670W        W19655  34.344  39.792  14.306
54671W        W19656  43.232  15.133   0.844
54672W        W19657  28.515  34.364  14.803
54673W        W19658  25.166   1.613   0.229
54674W        W19659  26.172  26.046  10.318
54675W        W19660  32.837   7.358   4.070
54676W        W19661  36.574  33.357   1.940
54677W        W19662  30.930  19.726  14.259
54678W        W19663   6.755   7.625  12.013
54679W        W19664  13.805  38.173   1.230
54680W        W19665  37.666  33.559  12.876
54681W        W19666  34.030  21.613   2.893
54682W        W19667  22.557  38.600  13.537
54683W        W19668  31.107  24.206   0.507
54684W        W19669  16.675   9.667  14.347
54685W        W19670   9.177  11.757   1.697
54686W        W19671   7.779  19.821  12.491
54687W        W19672  23.515   0.017   2.591
54688W        W19673  32.978  20.515  10.608
54689W        W19674  14.662  11.666  12.924
54690W        W19675  40.582  24.769   0.876
54691W        W19676   6.414   7.903   2.312
54692W        W19677  42.631  13.125  11.592
54693W        W19678  41.994  35.561  12.517
54694W        W19679  17.860  14.903   3.819
54695W        W19680  38.457  44.499   4.088
54696W        W19681  22.829  40.263  14.212
54697W        W19682  12.127   8.646  12.540
54698W        W19683   5.862   8.583  14.864
54699W        W19684  24.514   0.354   0.654
54700W        W19685   6.133  14.249   2.821
54701W        W19686  18.140  40.799  12.202
54702W        W19687  33.037  18.035   2.824
54703W        W19688   3.380  40.466   5.024
54704W        W19689  34.287  19.452  11.392
54705W        W19690  32.590  37.908   1.275
54706W        W19691  18.569  36.054   0.746
54707W        W19692  17.368  22.312  12.026
54708W        W19693  16.859  37.483  13.038
54709W        W19694   2.732  19.320  11.762
54710W        W19695  13.590  34.978   0.700
54711W        W19696  42.237  19.828  11.125
54712W        W19697  13.328   1.070   2.836
54713W        W19698  44.046  21.518   2.320
54714W        W19699  37.846  23.463  11.689
54715W        W19700  30.011  19.828  13.967
54716W        W19701   0.248   0.156   3.708
54717W        W19702  29.817  20.752   1.270
54718W        W19703  24.523  15.864  10.782
54719W        W19704  14.382  32.303  11.145
54720W        W19705  19.564  22.234  12.329
54721W        W19706  15.030  42.494   0.473
54722W        W19707  27.663  35.444   3.783
54723W        W19708  40.870  42.636   0.207
54724W        W19709  20.689  37.726   3.701
54725W        W19710  40.457  14.413  11.185
54726W        W19711  35.989  38.344   0.219
54727W        W19712   8.922   4.849  12.017
54728W        W19713  40.273  37.809  14.498
54729W        W19714  21.440  19.778  12.446
54730W        W19715  28.496  25.188  12.828
54731W        W19716  17.554  27.225  13.059
54732W        W19717  26.129  13.822   0.795
54733W        W19718  24.193  19.306   0.810
54734W        W19719  36.825   3.226   0.430
54735W        W19720  13.253  43.359   2.862
54736W        W19721  38.415  27.463   2.390
54737W        W19722  42.257  40.983   0.618
54738W        W19723  42.036  19.368   9.843
54739W        W19724   3.774  12.329   0.142
54740W        W19725   3.933   5.240  13.328
54741W        W19726  14.690  11.773   1.095
54742W        W19727   8.114  26.569  12.453
54743W        W19728   3.826   4.146  11.603
54744W        W19729  22.285  33.573  10.768
54745W        W19730  20.936  13.153   0.478
54746W        W19731  10.604  34.824   1.322
54747W        W19732   4.885   6.792   0.705
54748W        W19733  13.731   6.376  14.278
54749W        W19734   9.740  15.236   0.766
54750W        W19735  15.081  32.337  13.377
54751W        W19736  40.033  21.307  14.345
54752W        W19737  18.410   9.275   3.214
54753W        W19738  41.357  30.407  10.588
54754W        W19739  19.221  43.041   1.284
54755W        W19740  10.594   8.893  10.966
54756W        W19741  29.632   5.504  12.078
54757W        W19742  25.105   7.253   4.085
54758W        W19743   8.854  10.522  10.948
54759W        W19744  18.319  12.393  12.089
54760W        W19745   0.048  34.373  10.471
54761W        W19746   2.447  36.064  14.878
54762W        W19747  43.150  15.321  13.472
54763W        W19748   9.679  28.142   2.929
54764W        W19749   5.165  12.881  14.782
54765W        W19750  37.307  44.579  13.913
54766W        W19751   7.896  22.608  12.475
54767W        W19752  14.037  40.571  12.168
54768W        W19753  41.065  15.095   3.523
54769W        W19754  12.363  26.766   3.210
54770W        W19755  23.624  13.514  13.965
54771W        W19756  30.262  25.061  10.665
54772W        W19757  37.021   9.143   1.842
54773W        W19758  12.577  26.670  13.947
54774W        W19759  35.635  21.150  12.822
54775W        W19760  38.005  19.079  14.336
54776W        W19761  26.507   8.380   0.945
54777W        W19762   8.749  12.304   1.469
54778W        W19763   3.836  40.217  11.747
54779W        W19764  15.705  37.216   2.051
54780W        W19765  41.512  23.734  10.507
54781W        W19766  32.983  22.741  14.834
54782W        W19767  14.881   2.336   0.447
54783W        W19768  34.511  30.113   2.430
54784W        W19769  19.775  34.293   4.997
54785W        W19770  17.193   0.016   4.180
54786W        W19771  28.136  37.951  12.924
54787W        W19772  27.307  10.127  12.466
54788W        W19773  17.086  30.214  13.886
54789W        W19774  23.790  20.862  11.505
54790W        W19775  24.887  35.553   0.763
54791W        W19776  31.652  37.142  11.014
54792W        W19777  26.433  25.647  14.488
54793W        W19778  38.862  40.315   2.749
54794W        W19779  31.304  24.558  11.348
54795W        W19780  26.029  34.058   4.652
54796W        W19781  16.090   6.726   3.238
54797W        W19782  13.296   2.628  11.970
54798W        W19783  28.906  36.774  11.407
54799W        W19784  10.689   9.176   4.200
54800W        W19785  33.694   1.334   0.910
54801W        W19786   9.789  16.204   1.470
54802W        W19787  24.076  19.832   0.127
54803W        W19788  40.407   4.508  14.874
54804W        W19789  37.574  26.564   4.148
54805W        W19790  10.747  22.582   4.784
54806W        W19791  26.427  34.490  13.054
54807W        W19792  23.735  33.124   2.861
54808W        W19793  21.236  25.028   3.831
54809W        W19794  29.345  42.281   4.034
54810W        W19795  32.098  36.906   0.027
54811W        W19796  44.292  10.832   1.446
54812W        W19797  36.119  23.121  12.068
54813W        W19798  24.738  11.204  12.966
54814W        W19799  35.187  26.070   0.307
54815W        W19800   0.337   7.669  11.987
54816W        W19801  18.381  15.192   1.913
54817W        W19802  39.086  10.580   3.632
54818W        W19803  42.810  41.753   1.785
54819W        W19804  28.025  15.641   2.858
54820W        W19805  13.613  29.005   4.601
54821W        W19806  16.333  21.985   1.186
54822W        W19807   5.320  43.898  14.508
54823W        W19808  31.109  29.930   3.701
54824W        W19809  39.406   1.357   0.651
54825W        W19810  20.951  39.908  12.527
54826W        W19811  18.031  18.737   2.312
54827W        W19812  17.987   8.734   9.954
54828W        W19813  10.822  31.584  14.941
54829W        W19814  28.507  26.073   2.409
54830W        W19815  12.724  42.619  14.299
54831W        W19816  13.435  11.807   3.660
54832W        W19817  28.984  31.147  14.844
54833W        W19818  12.603  11.291   4.587
54834W        W19819  24.709  31.524  11.862
54835W        W19820  44.507  31.039   4.592
54836W        W19821  26.519  43.843  11.606
54837W        W19822  11.670  33.594   1.380
54838W        W19823  16.650  33.483   0.717
54839W        W19824  21.472   4.811   1.754
54840W        W19825  26.864  21.142   1.233
54841W        W19826   2.605  33.095   3.794
54842W        W19827  22.456  34.632   4.148
54843W        W19828  21.113  12.712   3.730
54844W        W19829  30.805  36.585  13.550
54845W        W19830  40.648  29.121  14.078
54846W        W19831  34.144   0.840  11.216
54847W        W19832   7.944  21.470  10.537
54848W        W19833   1.384  26.668   2.039
54849W        W19834  36.960   5.886  12.198
54850W        W19835  19.950  29.873   0.966
54851W        W19836  43.516  31.053   4.497
54852W        W19837  15.775   6.368   0.171
54853W        W19838  40.217  30.416   0.457
54854W        W19839  39.750   0.002  13.278
54855W        W19840  39.262  17.550   4.327
54856W        W19841   6.737  38.855   0.939
54857W        W19842   2.916  42.995  11.164
54858W        W19843   0.772   9.711  12.974
54859W        W19844   9.441   9.095  12.507
54860W        W19845  14.562  34.124  12.963
54861W        W19846  31.982   3.449  11.458
54862W        W19847  33.655  37.366   0.693
54863W        W19848  27.464  33.431  12.433
54864W        W19849  38.830  11.581  13.501
54865W        W19850  33.874   8.200   3.519
54866W        W19851  24.655  13.131  11.853
54867W        W19852  15.041  13.882   4.182
54868W        W19853  34.274   9.764  11.152
54869W        W19854  23.909  29.780   4.103
54870W        W19855  20.343   5.368  11.198
54871W        W19856  27.389  35.819   3.564
54872W        W19857  33.244  25.888  14.924
54873W        W19858  40.349   9.523   3.023
54874W        W19859  27.388  21.105  13.018
54875W        W19860  36.876  28.636   0.213
54876W        W19861   0.951  41.944  12.865
54877W        W19862   2.564   7.835   4.324
54878W        W19863  27.827  27.603   1.946
54879W        W19864   4.381  19.392   3.245
54880W        W19865  12.009  35.127  12.453
54881W        W19866  44.993  15.046   3.799
54882W        W19867   8.348  26.711  14.960
54883W        W19868  29.172  42.057   1.444
54884W        W19869  34.158   4.430  12.964
54885W        W19870  36.682   7.799  11.644
54886W        W19871  24.107  17.305   2.844
54887W        W19872  21.585  18.597  14.450
54888W        W19873  41.365   2.287  10.930
54889W        W19874  19.290  19.395  11.733
54890W        W19875  13.141  24.673  14.415
54891W        W19876  17.436  10.433   5.068
54892W        W19877  31.221  32.560  11.562
54893W        W19878  14.841  40.215  14.856
54894W        W19879  12.766   7.296  13.943
54895W        W19880  24.028  27.746   2.216
54896W        W19881  32.540  40.994   3.092
54897W        W19882  15.198  34.073   3.933
54898W        W19883  18.942  15.687   1.180
54899W        W19884  15.640  37.487  13.592
54900W        W19885  22.431  18.036   3.720
54901W        W19886  14.813  30.055   3.624
54902W        W19887   1.508   8.811  10.640
54903W        W19888  37.215  25.048  11.884
54904W        W19889  39.412  40.924  11.530
54905W        W19890  27.281  19.793   0.688
54906W        W19891  23.731  10.125  13.566
54907W        W19892  35.864  12.681  13.424
54908W        W19893   4.724  37.067  14.847
54909W        W19894  44.329  14.139   2.213
54910W        W19895  36.347  29.442  12.363
54911W        W19896  40.562   6.338  11.666
54912W        W19897  37.079  12.469   2.337
54913W        W19898   4.443  34.107  13.956
54914W        W19899  13.756  19.606   2.804
54915W        W19900  22.650  14.846   4.755
54916W        W19901  27.096  25.746  10.664
54917W        W19902  28.402  12.681   2.297
54918W        W19903  12.344  34.109   3.214
54919W        W19904   5.691  14.784   3.200
54920W        W19905  14.620  17.978   2.811
54921W        W19906   2.974  30.546  11.731
54922W        W19907  21.166  35.558  11.059
54923W        W19908  37.686  15.800   0.739
54924W        W19909  33.477  16.560  12.623
54925W        W19910  44.969   0.915  12.994
54926W        W19911  33.815   4.095   3.313
54927W        W19912  23.969  11.410  13.341
54928W        W19913   4.937  23.569  14.940
54929W        W19914  28.616  17.051  12.585
54930W        W19915  44.732  29.524   2.476
54931W        W19916  33.491  22.192   9.939
54932W        W19917  16.216  35.800  13.918
54933W        W19918   8.269  11.036   1.616
54934W        W19919  19.203  37.102  13.103
54935W        W19920  23.450  31.116  12.025
54936W        W19921  43.478  34.312   4.525
54937W        W19922  33.076  16.063   0.356
54938W        W19923  29.538  32.101   2.480
54939W        W19924  15.806   0.907   2.867
54940W        W19925   4.873  42.331   1.604
54941W        W19926  36.597  42.744   1.787
54942W        W19927  34.512   7.437   3.551
54943W        W19928  39.444   8.147  14.839
54944W        W19929  40.990  17.375  14.374
54945W        W19930  17.119  35.259  13.498
54946W        W19931   2.716  32.552  12.495
54947W        W19932  33.411  37.043   3.456
54948W        W19933  34.005  30.533   4.375
54949W        W19934  18.684  13.480   4.916
54950W        W19935  36.131  20.259  14.725
54951W        W19936  15.779   4.639   0.410
54952W        W19937  10.265   9.793  13.914
54953W        W19938  41.777  42.434   1.295
54954W        W19939   6.181   3.161  11.970
54955W        W19940   9.756  10.088  14.537
54956W        W19941  11.817  30.547  14.421
54957W        W19942  19.070  43.323   4.060
54958W        W19943  39.537  31.013   4.520
54959W        W19944  33.354   0.676   1.931
54960W        W19945  20.952  27.731  12.498
54961W        W19946  36.775  21.637   3.592
54962W        W19947   9.919  28.276  11.926
54963W        W19948  37.051   2.312  12.032
54964W        W19949  34.635  40.359  12.889
54965W        W19950  22.585  14.084   1.312
54966W        W19951  36.604  19.362  13.864
54967W        W19952  33.691  32.079  10.157
54968W        W19953  14.809  19.529  11.134
54969W        W19954  23.191  31.600   3.740
54970W        W19955  24.232  31.550   0.782
54971W        W19956  36.455  11.436   0.810
54972W        W19957  35.887  24.879   1.933
54973W        W19958  32.459  10.312  13.706
54974W        W19959  35.672  20.006   2.355
54975W        W19960  20.836  41.884   1.491
54976W        W19961  23.256  21.259   0.234
54977W        W19962  11.417  42.107   2.625
54978W        W19963  22.307  33.020   2.336
54979W        W19964   3.143  34.868  14.736
54980W        W19965   6.912  44.202   3.711
54981W        W19966  41.655   9.791   3.854
54982W        W19967  33.838   4.872   2.813
54983W        W19968  44.852   6.530  14.945
54984W        W19969   6.229   8.287   4.356
54985W        W19970  31.175   4.809  12.441
54986W        W19971   5.181  32.980   1.318
54987W        W19972  25.728  31.187  12.158
54988W        W19973  26.488  22.223   2.201
54989W        W19974  15.788  13.186   1.818
54990W        W19975  14.448   8.420   1.804
54991W        W19976  33.647  20.791   2.840
54992W        W19977  11.247  29.680  14.111
54993W        W19978  37.194  37.493  11.641
54994W        W19979  14.809  22.012  13.405
54995W        W19980  29.620   0.242  11.528
54996W        W19981  10.290  21.244  12.287
54997W        W19982  33.048  38.593  12.061
54998W        W19983   1.545  24.784  14.735
54999W        W19984  18.000  17.883  11.311
55000W        W19985  36.937   7.762   1.916
55001W        W19986  32.081   8.826   1.914
55002W        W19987  29.651  24.093  10.652
55003W        W19988  15.049  44.928   2.756
55004W        W19989  37.530   2.412   3.680
55005W        W19990  36.538  17.759  11.259
55006W        W19991  44.219  40.577   3.627
55007W        W19992  10.554  26.662  12.446
55008W        W19993  42.045  12.397   3.794
55009W        W19994  44.385  40.988   0.052
55010W        W19995  19.684  13.315   4.444
55011W        W19996  30.656  19.674   4.320
55012W        W19997   1.690  17.078  14.876
55013W        W19998  11.350  33.309   4.199
55014W        W19999  39.989  43.876  11.052
55015W        W20000  37.403  22.518   2.693
55016W        W20001  42.772  23.883   0.799
55017W        W20002  10.311  13.829  14.700
55018W        W20003   5.895  21.060  13.016
55019W        W20004  16.341  31.798   0.780
55020W        W20005  44.376  27.649   1.852
55021W        W20006  35.961   5.798  13.429
55022W        W20007  43.601  38.029  13.368
55023W        W20008  26.645  16.048   4.996
55024W        W20009  23.686  27.424   3.523
55025W        W20010  24.588  25.497   1.682
55026W        W20011  36.121  42.784   2.591
55027W        W20012   5.965  27.909   4.185
55028W        W20013  33.744  26.586  10.604
55029W        W20014   7.759   6.225  11.188
55030W        W20015  24.233  25.634   3.311
55031W        W20016  31.984   3.899   0.743
55032W        W20017  35.050  42.447   4.973
55033W        W20018  27.107  39.547   1.914
55034W        W20019   3.208  29.683   1.189
55035W        W20020   3.772  40.848   3.307
55036W        W20021  33.932  28.001  10.691
55037W        W20022  24.512  14.657   4.667
55038W        W20023   4.961  33.140  13.891
55039W        W20024   6.226  21.487   3.075
55040W        W20025  27.128  31.393  11.677
55041W        W20026  31.947   5.347  10.996
55042W        W20027   6.788  15.698   0.518
55043W        W20028   2.845  37.794   0.447
55044W        W20029  26.632  11.450  10.687
55045W        W20030  29.940  37.673  14.158
55046W        W20031  25.356  41.897  12.649
55047W        W20032  29.665  20.726   4.893
55048W        W20033  16.257   8.198  13.821
55049W        W20034  17.199  36.367   1.860
55050W        W20035  12.344  42.056  12.407
55051W        W20036  11.062  22.137  13.672
55052W        W20037  10.790   1.769  14.621
55053W        W20038  31.617   3.191   2.887
55054W        W20039  35.921  18.596  13.273
55055W        W20040   4.342  14.105   4.365
55056W        W20041  32.420   6.540   2.839
55057W        W20042  26.104  38.458  10.469
55058W        W20043   9.962  44.727   4.232
55059W        W20044  35.967  22.873  11.517
55060W        W20045  30.626  28.546  11.836
55061W        W20046  35.145  41.816   4.183
55062W        W20047  34.431   0.011   3.274
55063W        W20048  22.233   6.872  11.164
55064W        W20049  44.947  26.025   5.036
55065W        W20050  37.221  39.465   0.026
55066W        W20051  33.579  40.259   3.144
55067W        W20052  10.660  20.000  13.906
55068W        W20053   9.062   0.336  14.525
55069W        W20054  25.323   9.601  12.543
55070W        W20055   9.169  42.529   0.185
55071W        W20056  27.507  26.096  12.925
55072W        W20057   9.698  16.608   3.351
55073W        W20058  32.483  16.982  13.490
55074W        W20059  30.105   6.857   4.187
55075W        W20060  32.386  15.718   4.020
55076W        W20061   8.846  18.564   0.217
55077W        W20062  23.640   1.389  13.396
55078W        W20063   2.549  19.226   3.257
55079W        W20064   7.407  31.428  11.191
55080W        W20065  39.072  16.419  12.010
55081W        W20066  11.090  14.766   3.005
55082W        W20067   1.492  41.037   1.837
55083W        W20068  36.987  27.631  14.464
55084W        W20069   6.283  27.109   2.040
55085W        W20070  29.092  35.653   0.847
55086W        W20071   2.444  27.485   4.366
55087W        W20072  12.835  39.537  11.137
55088W        W20073  29.460  34.063  10.891
55089W        W20074  28.839  35.908   0.459
55090W        W20075  26.455  14.665  11.675
55091W        W20076  23.203  43.486   4.595
55092W        W20077  29.095  14.073  12.960
55093W        W20078  28.533  18.537  11.655
55094W        W20079  43.640  42.977  14.917
55095W        W20080  26.115   1.979  14.878
55096W        W20081   1.366  14.315   0.067
55097W        W20082   6.880  20.597  11.139
55098W        W20083   8.793  43.844   4.591
55099W        W20084  24.732  14.561  11.609
55100W        W20085   8.714  34.523  13.763
55101W        W20086  20.137  32.338   3.304
55102W        W20087  22.546  11.264   4.132
55103W        W20088  13.879  22.097  11.695
55104W        W20089  40.334  33.957   5.327
55105W        W20090  44.434  36.201   0.448
55106W        W20091  40.426   6.254   3.566
55107W        W20092  18.739  42.462  13.894
55108W        W20093   6.474  40.732  10.781
55109W        W20094  22.520  39.065   3.282
55110W        W20095  41.777  37.180   1.366
55111W        W20096  19.715  21.084   0.824
55112W        W20097  40.476  20.047   2.183
55113W        W20098  27.662  38.997  11.930
55114W        W20099  43.420  16.567  13.801
55115W        W20100  12.342  44.646   3.326
55116W        W20101  24.067  32.458   2.999
55117W        W20102  24.143  10.125   4.272
55118W        W20103  27.540   2.831  13.393
55119W        W20104  25.096  22.117   2.833
55120W        W20105  25.142  14.436   0.766
55121W        W20106  20.741  32.784   0.922
55122W        W20107  37.771  34.538   1.105
55123W        W20108  31.658  39.262   2.233
55124W        W20109  43.385  22.857   1.392
55125W        W20110   5.327  34.347   1.727
55126W        W20111  37.100  24.296   2.777
55127W        W20112   2.902  36.164  13.709
55128W        W20113  38.637  11.263   1.789
55129W        W20114  13.795   0.431   1.691
55130W        W20115  31.802  44.920  11.285
55131W        W20116  18.628  14.598   0.306
55132W        W20117  44.197  29.095  14.158
55133W        W20118  40.349  41.978   0.689
55134W        W20119  23.752   4.282   3.335
55135W        W20120   0.286   4.928  12.617
55136W        W20121  30.421  37.184   2.966
55137W        W20122  14.749  36.335   3.835
55138W        W20123  11.449  21.075   2.683
55139W        W20124  38.616   7.780  11.946
55140W        W20125  43.867  20.755  11.332
55141W        W20126  13.547  39.326  14.914
55142W        W20127  43.867  44.430  11.484
55143W        W20128  23.290   1.594  14.576
55144W        W20129   2.885  23.013   0.253
55145W        W20130  38.940  27.648  11.886
55146W        W20131  27.674  13.601   0.662
55147W        W20132  36.646  28.670  12.479
55148W        W20133  41.825   5.434   2.302
55149W        W20134  24.192  18.158   4.640
55150W        W20135  33.638  10.638   2.783
55151W        W20136  41.580  21.575  11.098
55152W        W20137  41.983  42.579  13.912
55153W        W20138  21.152  15.071  13.723
55154W        W20139   0.840  18.084  11.574
55155W        W20140  31.477  29.563  11.605
55156W        W20141  37.743  20.650   3.416
55157W        W20142  28.082  18.778  11.596
55158W        W20143  23.155  35.690   4.874
55159W        W20144   0.224  18.692  10.085
55160W        W20145  44.799   8.151   3.335
55161W        W20146   6.486  15.524   9.989
55162W        W20147  20.566  38.483   2.137
55163W        W20148  35.427  35.679  11.594
55164W        W20149  27.928  40.548  11.091
55165W        W20150  15.023  40.983  11.548
55166W        W20151  16.077  28.945  14.440
55167W        W20152  41.315  23.631   2.739
55168W        W20153  40.882   6.648  12.084
55169W        W20154  13.387  41.057  14.653
55170W        W20155   9.843   8.861   2.765
55171W        W20156   2.715  28.059  10.330
55172W        W20157  19.792   1.777   1.900
55173W        W20158   4.668  18.573   3.129
55174W        W20159  30.161  33.428  12.667
55175W        W20160   3.449  24.670   0.914
55176W        W20161   3.941  31.552   1.202
55177W        W20162  30.125  16.794  14.482
55178W        W20163  15.737  43.708   0.134
55179W        W20164  40.867  26.127   0.778
55180W        W20165  29.677  17.100   3.247
55181W        W20166  19.739  14.223   4.277
55182W        W20167  22.983   3.700  12.933
55183W        W20168  25.031  44.283  12.787
55184W        W20169  29.082  19.326  10.681
55185W        W20170   9.934  16.154  12.481
55186W        W20171  35.941  33.732  14.965
55187W        W20172  11.642  34.034   4.653
55188W        W20173   8.703  20.310   3.754
55189W        W20174   0.963  34.697  14.764
55190W        W20175   3.279   6.158  12.400
55191W        W20176   0.618  16.587   2.884
55192W        W20177  22.461  37.930  11.117
55193W        W20178  17.148  20.696   1.367
55194W        W20179  36.811   1.389   0.506
55195W        W20180  42.849  33.481   1.438
55196W        W20181  16.268   9.732   0.545
55197W        W20182  21.118  33.158   2.757
55198W        W20183  23.273  24.227  13.341
55199W        W20184   5.833  39.946   3.208
55200W        W20185  24.011  44.160  11.079
55201W        W20186  12.195   2.084  14.720
55202W        W20187  25.558   0.890  14.724
55203W        W20188  35.244  32.417   1.395
55204W        W20189  10.177  36.107  13.039
55205W        W20190  43.951  31.826  11.965
55206W        W20191  36.601  18.158   3.678
55207W        W20192  19.741  40.908  13.058
55208W        W20193  29.396  22.606   3.697
55209W        W20194   6.407  23.532   0.734
55210W        W20195   5.652  17.500   1.204
55211W        W20196  22.433   4.824   3.387
55212W        W20197  34.373   2.768   2.431
55213W        W20198  43.736  20.628   3.876
55214W        W20199  29.609  23.931  12.114
55215W        W20200  13.948  22.119   1.418
55216W        W20201  29.699   4.658  13.379
55217W        W20202  43.672  32.236  13.497
55218W        W20203  19.628  10.012   4.013
55219W        W20204  34.570  16.251  11.584
55220W        W20205   8.924  23.123  13.792
55221W        W20206  33.175   2.255   1.815
55222W        W20207  41.549  28.898  10.820
55223W        W20208  22.168  10.132  10.189
55224W        W20209  44.489  21.207   1.737
55225W        W20210   3.261  29.645  14.487
55226W        W20211   5.854  23.005   3.802
55227W        W20212  18.164  16.798   4.977
55228W        W20213  13.780  30.905   0.274
55229W        W20214   0.957  29.507  14.256
55230W        W20215   0.703  31.490   0.152
55231W        W20216  31.563  34.096  14.043
55232W        W20217  39.545  24.094   3.684
55233W        W20218  25.456  12.952   0.331
55234W        W20219  38.467  12.026  13.866
55235W        W20220  43.105  30.067   0.001
55236W        W20221   5.656  23.572  11.206
55237W        W20222   0.120  25.004  14.873
55238W        W20223  12.296  18.300   1.780
55239W        W20224  23.631  39.259  12.435
55240W        W20225  21.696  24.585   2.834
55241W        W20226  41.950  16.035  11.166
55242W        W20227  17.220   4.896  14.422
55243W        W20228  23.962  35.946   1.769
55244W        W20229  19.151  35.812  12.689
55245W        W20230  12.664  17.063   4.338
55246W        W20231   0.154  31.440  10.781
55247W        W20232  15.544  12.194   2.913
55248W        W20233  35.034  17.671  12.789
55249W        W20234  16.246  42.404   2.939
55250W        W20235  32.627  25.307  13.578
55251W        W20236  19.805  35.696   0.875
55252W        W20237  24.030  16.864   1.919
55253W        W20238  43.502   8.899  12.967
55254W        W20239  22.961  39.986   1.786
55255W        W20240  44.391  28.023   5.083
55256W        W20241  30.177   9.239   1.849
55257W        W20242  31.649  36.449   0.435
55258W        W20243  27.654  17.153   4.046
55259W        W20244  16.788  40.605  11.148
55260W        W20245  13.903  35.036   4.658
55261W        W20246  22.170  29.544   4.232
55262W        W20247   7.403  43.840  14.499
55263W        W20248  16.696  12.660   4.268
55264W        W20249  41.785   9.397  11.045
55265W        W20250   2.829   1.284  14.509
55266W        W20251  25.886  44.227   2.878
55267W        W20252  43.349  14.831  11.215
55268W        W20253  17.763  30.569   2.363
55269W        W20254  44.740  20.658  11.210
55270W        W20255  22.222  35.303   1.707
55271W        W20256  44.319  38.546   1.732
55272W        W20257  41.029  41.002   1.688
55273W        W20258  43.074  40.598  14.080
55274W        W20259  11.309  22.546   0.318
55275W        W20260  17.274  11.285   3.178
55276W        W20261  14.203  21.657   4.548
55277W        W20262  29.319  33.289   5.067
55278W        W20263  23.721  42.411  13.212
55279W        W20264   6.819  13.658  14.324
55280W        W20265  11.886   8.421   3.653
55281W        W20266  13.249  16.165  13.971
55282W        W20267  26.162  25.644   1.939
55283W        W20268   0.525  25.073  11.967
55284W        W20269  27.868   4.570   1.716
55285W        W20270   9.426  42.283  11.758
55286W        W20271   5.217  40.940  14.876
55287W        W20272  34.885   2.398  11.214
55288W        W20273  17.477  36.835  14.427
55289W        W20274  10.891  41.663   4.550
55290W        W20275  33.371  21.947  14.298
55291W        W20276  23.456   9.901   0.359
55292W        W20277   3.847  26.281  11.561
55293W        W20278  11.578  25.225   3.628
55294W        W20279  20.218  21.652   0.231
55295W        W20280  22.072  41.315   2.754
55296W        W20281   2.010   2.726  12.413
55297W        W20282  10.768  29.647  13.312
55298W        W20283   2.852   5.627  14.385
55299W        W20284  34.916  21.546   0.010
55300W        W20285  23.574  33.412  10.348
55301W        W20286  26.395  28.066  10.739
55302W        W20287  38.838  24.586  13.952
55303W        W20288   4.218  12.737  12.045
55304W        W20289   1.805   7.628   4.672
55305W        W20290   7.456  11.513   0.146
55306W        W20291   9.288  24.598   2.676
55307W        W20292  34.564  37.682   4.102
55308W        W20293  17.574  40.527   4.095
55309W        W20294  22.671  32.087  14.776
55310W        W20295   0.635  12.562   3.142
55311W        W20296  18.023   9.610  13.484
55312W        W20297  11.033  28.643   3.814
55313W        W20298  21.128   9.514  11.705
55314W        W20299   0.313   0.000   0.688
55315W        W20300  29.364  35.557   2.925
55316W        W20301  40.875  25.925   4.765
55317W        W20302   8.281  16.331  11.861
55318W        W20303  21.704  20.650   1.261
55319W        W20304  19.131  29.857  14.982
55320W        W20305  31.888  43.983  14.903
55321W        W20306  22.646  26.094  10.680
55322W        W20307  20.134   9.156   1.928
55323W        W20308  24.013  42.265  12.485
55324W        W20309  35.889  27.002  11.461
55325W        W20310  20.180  21.970  10.229
55326W        W20311  40.605  23.631  14.331
55327W        W20312  25.933  32.165  14.927
55328W        W20313  20.617  34.146   2.850
55329W        W20314  18.118  19.370   1.792
55330W        W20315  35.984  23.022   1.577
55331W        W20316   4.224  31.164   4.096
55332W        W20317  39.806  31.337  11.942
55333W        W20318   7.741   0.441   0.855
55334W        W20319  26.509  26.491   5.376
55335W        W20320  44.266  36.147   2.763
55336W        W20321  42.815  19.564   2.370
55337W        W20322  25.579  43.260  13.680
55338W        W20323  29.481  20.611  13.483
55339W        W20324  35.024  11.437  12.869
55340W        W20325  39.638  20.403   0.452
55341W        W20326  34.964  34.623  11.819
55342W        W20327  18.517  43.903   2.862
55343W        W20328   0.995  28.142  11.581
55344W        W20329  40.880   3.316  11.492
55345W        W20330   3.106  12.351  11.686
55346W        W20331   4.975  44.840  12.802
55347W        W20332   8.301  44.746  13.315
55348W        W20333  20.956  11.684   1.732
55349W        W20334  37.850  43.481   0.490
55350W        W20335  26.419  13.283  12.866
55351W        W20336   1.363  12.407   2.908
55352W        W20337   0.471  23.787  12.406
55353W        W20338   6.003   7.325   3.601
55354W        W20339  12.062  32.868  13.533
55355W        W20340   7.695  39.330   3.227
55356W        W20341  21.407   5.442  10.853
55357W        W20342  35.458  23.326   3.233
55358W        W20343  29.893   6.670   3.209
55359W        W20344   9.838  13.181   4.165
55360W        W20345  29.621  13.442   4.064
55361W        W20346   4.008  11.998  13.790
55362W        W20347  28.403  26.180   3.780
55363W        W20348  14.707  25.178  14.517
55364W        W20349  11.320  31.914  13.404
55365W        W20350  30.644   3.158  12.367
55366W        W20351  15.901  26.555   4.949
55367W        W20352  12.344  22.576  13.494
55368W        W20353  16.680  23.707   1.328
55369W        W20354   5.899  31.404  14.348
55370W        W20355  28.452  15.351  13.571
55371W        W20356   6.342  38.337   0.331
55372W        W20357  40.287  13.092  13.962
55373W        W20358  44.987  35.228   4.345
55374W        W20359  37.600  38.375   1.409
55375W        W20360  41.473  35.222  11.583
55376W        W20361  35.591   9.702   1.372
55377W        W20362  12.784  38.884  14.271
55378W        W20363  17.197  35.105   4.963
55379W        W20364  39.358  20.801   4.433
55380W        W20365  21.192  37.753  10.410
55381W        W20366  29.029  17.100  11.445
55382W        W20367  21.440  18.019   1.127
55383W        W20368  22.075  20.562   0.832
55384W        W20369  37.574  44.979   4.974
55385W        W20370  29.697  23.559   3.271
55386W        W20371  12.183  24.422   2.926
55387W        W20372  31.103  10.662  10.968
55388W        W20373  13.244  25.256   0.287
55389W        W20374  18.708  35.984  10.426
55390W        W20375  37.368  44.822  10.576
55391W        W20376  31.474   7.541  13.080
55392W        W20377  38.403  29.086  11.125
55393W        W20378   6.715  26.573   4.764
55394W        W20379  39.382  13.632  10.629
55395W        W20380  21.052  12.657  14.874
55396W        W20381  22.761   3.961  10.620
55397W        W20382  22.000  25.665  11.066
55398W        W20383  11.167   1.036   0.801
55399W        W20384  36.254   5.286   3.259
55400W        W20385  10.364  28.470   3.146
55401W        W20386   0.025  37.607   1.346
55402W        W20387  24.367  29.679   4.959
55403W        W20388  31.699  35.527  11.479
55404W        W20389   1.301  13.154   3.324
55405W        W20390   1.357  21.238  13.478
55406W        W20391  32.572   1.991  11.343
55407W        W20392  27.189  10.961   1.253
55408W        W20393  44.262   2.957   0.253
55409W        W20394  21.616   1.982   2.797
55410W        W20395  32.854   5.172  10.764
55411W        W20396  38.439   9.368  11.472
55412W        W20397  31.908   6.241   0.337
55413W        W20398  11.349  40.515  10.476
55414W        W20399  30.080   4.370  10.693
55415W        W20400  43.421  10.777  13.603
55416W        W20401   0.945  22.687  11.029
55417W        W20402  23.262  15.336   4.539
55418W        W20403  42.559  29.157  11.986
55419W        W20404   2.975  31.987  14.308
55420W        W20405  35.550   9.122  12.522
55421W        W20406  21.944  11.194   4.490
55422W        W20407  42.010  13.633   0.641
55423W        W20408  28.123   6.640  13.881
55424W        W20409  37.155  26.766  14.990
55425W        W20410  32.474  16.792   0.273
55426W        W20411  13.330  24.506  13.969
55427W        W20412   3.978  15.000  11.029
55428W        W20413  28.376  27.139  14.317
55429W        W20414  28.096  39.876  10.709
55430W        W20415  16.635  43.401   4.939
55431W        W20416  32.469  41.285   2.167
55432W        W20417  39.283  18.194  11.598
55433W        W20418   0.232   7.140   2.093
55434W        W20419  27.563  21.649   2.861
55435W        W20420  39.920   6.761   2.603
55436W        W20421  43.725  28.164   4.480
55437W        W20422   4.684  22.708   3.724
55438W        W20423  13.927   0.506  14.436
55439W        W20424  38.999  22.088  14.822
55440W        W20425  36.484  14.333   0.690
55441W        W20426  31.133  22.242   2.560
55442W        W20427   3.949  29.148  11.486
55443W        W20428  13.751  36.438  13.959
55444W        W20429  13.108  22.208   4.918
55445W        W20430  34.564   5.740  12.094
55446W        W20431  18.273   6.591   3.677
55447W        W20432  24.530  33.937  11.750
55448W        W20433   4.485  40.435   4.130
55449W        W20434   5.382  44.107  12.415
55450W        W20435  28.051   3.858   3.406
55451W        W20436  24.312  37.346  11.613
55452W        W20437  10.430  41.332   0.309
55453W        W20438  30.459  42.368  14.673
55454W        W20439  29.209  36.379   2.801
55455W        W20440  38.805  44.016   2.770
55456W        W20441  42.495  30.636   2.253
55457W        W20442   3.272  43.340  10.989
55458W        W20443  27.106   0.494   0.819
55459W        W20444  39.878  25.766   1.701
55460W        W20445   3.847  23.246   2.720
55461W        W20446  14.741  40.236   3.061
55462W        W20447   0.827  23.089   4.782
55463W        W20448   5.213   5.159   0.416
55464W        W20449  24.438  39.403  10.722
55465W        W20450  37.517  16.967  11.650
55466W        W20451   7.227   0.040   1.731
55467W        W20452   1.848  17.782   0.509
55468W        W20453  10.664  16.581   4.577
55469W        W20454  13.972  25.870  12.489
55470W        W20455  11.708  15.727  12.263
55471W        W20456  25.647   4.636   1.332
55472W        W20457  43.358  38.084   0.808
55473W        W20458  34.189  18.981   2.606
55474W        W20459   5.947  30.621  14.167
55475W        W20460  42.268  19.611  10.246
55476W        W20461  30.904   6.179  14.748
55477W        W20462  24.722  44.887   2.329
55478W        W20463  43.506  15.283   1.276
55479W        W20464  29.687   0.025  12.002
55480W        W20465  36.260  20.758  12.708
55481W        W20466  33.187  17.541   2.690
55482W        W20467  32.136   1.529   4.961
55483W        W20468  32.000  37.042   3.722
55484W        W20469  15.425  11.355  11.161
55485W        W20470  17.187  37.577   1.367
55486W        W20471  40.261   6.800  14.463
55487W        W20472   0.390  17.272   3.667
55488W        W20473  21.579  33.655   0.841
55489W        W20474   2.901  10.335  12.199
55490W        W20475  41.949  27.247   3.208
55491W        W20476  35.338   1.478  11.375
55492W        W20477  29.432   2.270   1.738
55493W        W20478   0.037  29.589  14.318
55494W        W20479  10.377  23.106  12.701
55495W        W20480   0.208  19.404  12.145
55496W        W20481  20.953  43.546  12.994
55497W        W20482  10.205   7.357   2.253
55498W        W20483  33.284  35.850   0.892
55499W        W20484   6.361  26.072  13.605
55500W        W20485  10.447  11.033   4.311
55501W        W20486  23.240  27.043   3.628
55502W        W20487   1.746  12.771  10.776
55503W        W20488  16.353  36.067   4.622
55504W        W20489   7.467  14.179   4.110
55505W        W20490  17.770  14.340  10.729
55506W        W20491  27.893  22.711   4.588
55507W        W20492   9.671  24.435   2.355
55508W        W20493   5.313  11.216  10.917
55509W        W20494  22.045   6.276  13.965
55510W        W20495  19.776   0.754   0.934
55511W        W20496  17.130  40.131   1.333
55512W        W20497  35.360  23.213  13.255
55513W        W20498   4.297   4.724   4.966
55514W        W20499  20.573   3.020  12.021
55515W        W20500  40.819  28.995  14.964
55516W        W20501  10.187  15.107   1.010
55517W        W20502   2.474   3.271   4.748
55518W        W20503  31.959   5.880   3.319
55519W        W20504  29.524  31.497  12.415
55520W        W20505  31.305   5.696   2.823
55521W        W20506  18.175  10.150  10.034
55522W        W20507  15.704   8.696  14.845
55523W        W20508  27.202  18.429  10.742
55524W        W20509  18.460  42.230   3.950
55525W        W20510  40.035  32.591   1.425
55526W        W20511   8.611  34.354  14.238
55527W        W20512   6.182  37.009  13.955
55528W        W20513   5.971  40.969  13.366
55529W        W20514   2.807  19.856  14.850
55530W        W20515  33.352   8.186   1.271
55531W        W20516   4.810   8.658   3.957
55532W        W20517  12.134  34.523   1.930
55533W        W20518  26.876   2.332   0.251
55534W        W20519   0.176  11.844   2.279
55535W        W20520  24.422  15.127   3.213
55536W        W20521  33.146   7.224  11.961
55537W        W20522   8.100  31.831   3.997
55538W        W20523   3.328  34.133   3.298
55539W        W20524  28.118  43.495   2.424
55540W        W20525   7.422  18.913  14.755
55541W        W20526   2.051  17.369  11.040
55542W        W20527   5.725  27.250   2.861
55543W        W20528  17.360  34.357   4.136
55544W        W20529  24.213   5.669   1.914
55545W        W20530   9.588  40.264   4.084
55546W        W20531  13.156  23.214  12.605
55547W        W20532  41.532  33.818   0.378
55548W        W20533  11.425  38.127   4.628
55549W        W20534   3.658  14.337  12.954
55550W        W20535  24.491  38.639   2.921
55551W        W20536   0.230  41.328   4.610
55552W        W20537   7.396   6.731  13.539
55553W        W20538  22.139  20.142   4.582
55554W        W20539  12.813  29.397  10.156
55555W        W20540  33.773  32.297   0.741
55556W        W20541   2.406  37.801  13.525
55557W        W20542  35.023  21.178   4.957
55558W        W20543   5.232  44.584   4.153
55559W        W20544  11.824  33.346   3.184
55560W        W20545  20.829  43.424   4.473
55561W        W20546  35.191   0.304  12.570
55562W        W20547  38.917   4.521  11.228
55563W        W20548  17.118  22.233   2.330
55564W        W20549   3.853  16.556  14.321
55565W        W20550   9.986   8.591  14.374
55566W        W20551  17.581  34.980  12.808
55567W        W20552   4.048  29.553   4.132
55568W        W20553  36.892   8.963   2.776
55569W        W20554  26.270   4.405   3.233
55570W        W20555  26.434  40.790  13.551
55571W        W20556  40.802   5.688  14.923
55572W        W20557  19.893  28.777   3.249
55573W        W20558  43.970  39.787   4.482
55574W        W20559  28.575   2.958   0.238
55575W        W20560  38.787   1.033  11.468
55576W        W20561  30.010  18.929   4.043
55577W        W20562  21.726  33.616   1.738
55578W        W20563  34.041   9.612   0.845
55579W        W20564  31.349  29.972   2.336
55580W        W20565   5.680  26.600  14.861
55581W        W20566  20.528  22.520   0.383
55582W        W20567  30.380  31.029  10.621
55583W        W20568  31.136  26.798   0.061
55584W        W20569  43.354  19.323  12.141
55585W        W20570  36.507  12.478  11.359
55586W        W20571  33.318  16.656  14.033
55587W        W20572   8.361  34.839   3.799
55588W        W20573  42.564  43.984  10.666
55589W        W20574  20.560   8.315  11.946
55590W        W20575   7.198  33.375   4.406
55591W        W20576  31.640  44.703  10.355
55592W        W20577  18.224  12.334  10.659
55593W        W20578  25.978  32.365   3.991
55594W        W20579  29.437   6.946  12.035
55595W        W20580  17.142  33.773  10.275
55596W        W20581  29.599  10.084  11.404
55597W        W20582  14.223   1.700  13.761
55598W        W20583  30.614  31.390   4.894
55599W        W20584  20.722   0.236   3.099
55600W        W20585  25.994  42.503   3.376
55601W        W20586   1.373  15.323  14.898
55602W        W20587  24.465  13.740  10.674
55603W        W20588  35.742  27.562   0.003
55604W        W20589  19.967  33.273  13.648
55605W        W20590   6.215   8.811  10.487
55606W        W20591  20.714  10.629   1.182
55607W        W20592  31.609  26.435  12.850
55608W        W20593  13.584  10.819   5.001
55609W        W20594  33.315  38.124   0.743
55610W        W20595  22.501  28.539  13.833
55611W        W20596  17.141  20.490  13.933
55612W        W20597  12.641  37.403   3.145
55613W        W20598  20.465  31.971  11.667
55614W        W20599  15.720  14.397  13.034
55615W        W20600  16.773   7.902   4.132
55616W        W20601  20.567  20.744  13.589
55617W        W20602  41.218  37.074   3.867
55618W        W20603  27.636   4.614   2.770
55619W        W20604  12.233  40.877  11.226
55620W        W20605   3.862  24.871  12.084
55621W        W20606  35.575   2.313   2.695
55622W        W20607  22.137  16.046  13.961
55623W        W20608  36.075  19.552  13.266
55624W        W20609  29.072  17.099   2.363
55625W        W20610  34.555  32.166  12.470
55626W        W20611   3.869  19.038   0.371
55627W        W20612  10.378  14.621   0.321
55628W        W20613  36.613   6.485  14.930
55629W        W20614  38.521  11.181  11.744
55630W        W20615  23.495  39.495   1.029
55631W        W20616  27.233  10.794  11.073
55632W        W20617  20.159  26.789  11.957
55633W        W20618  26.759  15.758  13.328
55634W        W20619  13.329  33.709  12.549
55635W        W20620  27.372  43.151   1.957
55636W        W20621   2.365  44.880   3.765
55637W        W20622  12.817  34.433  13.490
55638W        W20623  17.815  25.843   2.583
55639W        W20624   4.806  27.042  10.588
55640W        W20625  39.364  19.030   1.195
55641W        W20626  17.596  38.298   2.407
55642W        W20627  21.223  23.762   1.404
55643W        W20628  29.018   6.358   1.577
55644W        W20629  38.071   1.272  12.050
55645W        W20630  15.205  42.554   2.614
55646W        W20631  26.015   5.936   4.607
55647W        W20632  43.375   2.398   0.464
55648W        W20633  23.375  22.466  12.884
55649W        W20634  31.831  27.321   3.404
55650W        W20635  15.094  39.276  14.876
55651W        W20636   7.538  18.414  10.287
55652W        W20637  36.211  15.178  11.683
55653W        W20638  32.161  17.242  14.435
55654W        W20639  34.042  37.328  13.217
55655W        W20640  31.929  40.994   3.874
55656W        W20641  19.792  42.022   4.123
55657W        W20642   5.198  34.127  12.935
55658W        W20643  11.665  13.523   0.908
55659W        W20644   2.754   3.761   4.092
55660W        W20645  17.100  10.051  12.192
55661W        W20646   9.729  21.063  10.547
55662W        W20647  27.268  15.883  14.302
55663W        W20648  10.591   7.686  12.908
55664W        W20649   6.399  40.373   4.664
55665W        W20650  11.683   6.147  13.569
55666W        W20651  44.748  43.911  14.476
55667W        W20652  21.629  15.567   1.876
55668W        W20653  21.255  40.354   3.071
55669W        W20654   0.387  12.213   1.966
55670W        W20655   9.189  43.991   4.306
55671W        W20656  16.079  21.911   2.952
55672W        W20657   4.961  11.243  13.588
55673W        W20658  21.599  24.707  11.039
55674W        W20659  18.316  24.906  14.288
55675W        W20660  33.782  26.755  12.806
55676W        W20661  32.431  28.972  10.682
55677W        W20662  14.667   8.526   2.794
55678W        W20663  26.449  10.309  12.223
55679W        W20664  41.851  31.130  14.045
55680W        W20665  14.395  10.684   3.277
55681W        W20666   7.769  15.730  10.921
55682W        W20667  20.314  20.214   0.365
55683W        W20668  18.130  12.405   4.181
55684W        W20669  34.381   4.929  13.936
55685W        W20670   0.567  36.991  11.554
55686W        W20671  33.350   3.446   0.320
55687W        W20672  20.200  25.535  13.951
55688W        W20673  42.284   0.496  14.346
55689W        W20674  41.051  15.169   1.278
55690W        W20675  39.365  24.520  12.698
55691W        W20676   6.191  32.660   2.292
55692W        W20677  18.082  23.644   2.733
55693W        W20678   9.296  39.024  14.707
55694W        W20679   1.830  19.242  12.852
55695W        W20680  34.036   6.811   5.483
55696W        W20681  14.524   7.261   3.181
55697W        W20682   9.101  26.571  13.766
55698W        W20683  10.461  18.564  10.698
55699W        W20684  12.752   1.107  12.150
55700W        W20685  41.552  38.915  12.552
55701W        W20686  11.244   0.363  10.686
55702W        W20687  26.907  24.520   4.637
55703W        W20688  42.123  15.974   1.833
55704W        W20689  13.311  12.690   3.097
55705W        W20690  41.736   3.999  14.912
55706W        W20691   3.437   8.865   4.214
55707W        W20692  21.725   5.696   1.707
55708W        W20693  36.339  37.144   1.896
55709W        W20694  11.081  43.257   0.497
55710W        W20695  17.997  34.311  11.987
55711W        W20696  37.049   5.663  11.356
55712W        W20697   2.497  26.447  12.529
55713W        W20698   3.722  44.880  12.508
55714W        W20699   1.477  41.805   1.216
55715W        W20700  14.176  28.168  13.391
55716W        W20701  29.193  37.702   2.641
55717W        W20702  36.544  34.101  11.443
55718W        W20703  27.834  36.427   3.309
55719W        W20704  19.296   2.451  14.856
55720W        W20705  18.922  34.850   4.962
55721W        W20706  37.153  11.893   1.076
55722W        W20707  34.861   9.970  14.453
55723W        W20708   0.249   1.201  14.351
55724W        W20709  35.371   3.463  11.998
55725W        W20710  23.320  38.557   0.770
55726W        W20711  21.684  44.853   0.881
55727W        W20712  42.377  30.226   3.449
55728W        W20713  44.029  41.455  13.916
55729W        W20714  12.111   2.676  12.859
55730W        W20715  24.629   9.756  13.967
55731W        W20716  24.731  13.876  13.905
55732W        W20717  39.441  22.092   4.100
55733W        W20718  38.373  17.997  10.099
55734W        W20719  20.005  40.865   1.824
55735W        W20720  18.523  32.157  10.847
55736W        W20721  44.105  34.883  14.786
55737W        W20722  41.836  29.017   9.736
55738W        W20723  16.564  25.671   0.234
55739W        W20724  26.665  44.404  13.542
55740W        W20725  19.057  17.116  10.540
55741W        W20726  12.747  22.203  12.837
55742W        W20727  37.887  32.635  13.166
55743W        W20728  31.706  19.239  13.997
55744W        W20729  27.132   3.546  14.040
55745W        W20730  17.057  38.072  12.529
55746W        W20731  26.462  21.831  12.843
55747W        W20732  11.632  14.773  12.125
55748W        W20733   4.189  23.063   1.461
55749W        W20734  16.800  40.985   2.204
55750W        W20735  13.846   7.352  13.218
55751W        W20736   3.656  43.340  10.653
55752W        W20737  21.203   7.175  14.327
55753W        W20738   5.004   2.841  14.342
55754W        W20739   7.590  37.410  14.401
55755W        W20740  22.254   8.665   0.840
55756W        W20741   5.701  42.046  12.048
55757W        W20742  18.848   1.797   3.260
55758W        W20743  18.231  23.950   3.584
55759W        W20744   8.336  39.272   0.948
55760W        W20745   8.240  31.035  10.698
55761W        W20746  23.667   8.281   3.273
55762W        W20747  38.824  35.471  12.543
55763W        W20748  18.706  36.506   1.687
55764W        W20749  44.532   1.965  10.289
55765W        W20750  14.244  19.227  11.997
55766W        W20751  32.342  37.595   4.449
55767W        W20752   1.334   5.902   0.193
55768W        W20753   1.899  25.209  13.758
55769W        W20754   2.658   9.166  10.296
55770W        W20755  18.804  25.991  13.120
55771W        W20756  11.257  21.717  13.375
55772W        W20757  18.656  13.182   1.765
55773W        W20758   4.598  18.237  10.443
55774W        W20759  39.538   0.353  11.518
55775W        W20760  44.949   4.658   2.955
55776W        W20761  14.087  42.734  11.509
55777W        W20762  12.779  31.840   0.978
55778W        W20763  41.990  41.376  13.364
55779W        W20764  31.368   9.891  14.405
55780W        W20765  19.576  22.027  10.151
55781W        W20766  19.279  17.055   5.386
55782W        W20767  15.318   0.500   4.377
55783W        W20768  13.805   6.969   5.071
55784W        W20769   8.783  27.378   4.719
55785W        W20770  38.352  20.795  11.084
55786W        W20771  10.139  31.698   4.106
55787W        W20772  15.830  13.107  11.864
55788W        W20773  37.213  18.740   3.707
55789W        W20774   6.912  21.119  12.847
55790W        W20775  31.703  21.079  14.752
55791W        W20776  31.579  24.167   0.800
55792W        W20777  22.896   8.693   4.726
55793W        W20778   0.502  20.708   0.348
55794W        W20779   2.554  17.193  11.002
55795W        W20780  23.641  29.639   1.966
55796W        W20781  23.445   1.980  12.068
55797W        W20782  36.957   3.240   3.838
55798W        W20783  22.005   7.830  11.138
55799W        W20784  32.976  31.430   0.350
55800W        W20785  30.587  24.300   0.712
55801W        W20786  19.539  42.417   1.919
55802W        W20787  42.343  14.606  12.115
55803W        W20788  34.989  34.914  14.271
55804W        W20789   3.201  22.131  12.937
55805W        W20790  11.713  17.059   3.303
55806W        W20791  35.583  23.163   0.279
55807W        W20792  23.686  37.354  14.459
55808W        W20793   9.896  33.539  13.747
55809W        W20794  19.734  34.895   2.223
55810W        W20795  34.553   4.782  11.120
55811W        W20796  14.360  21.281   1.016
55812W        W20797  16.614  15.690  13.905
55813W        W20798  44.713   5.770  14.910
55814W        W20799  33.468  36.907   1.429
55815W        W20800  42.838   1.029   2.609
55816W        W20801  41.014  40.806  12.942
55817W        W20802   0.332  38.914  10.624
55818W        W20803   9.870  19.826   2.733
55819W        W20804  15.192  22.226   0.778
55820W        W20805  28.116  29.534   2.282
55821W        W20806  32.682  17.677   2.704
55822W        W20807  25.233  20.862  11.150
55823W        W20808  37.635  23.796   2.174
55824W        W20809  21.544  43.285  11.967
55825W        W20810  25.955  16.882  10.775
55826W        W20811  10.330  18.049  14.003
55827W        W20812   4.985   3.358   2.946
55828W        W20813  27.702  12.755   3.561
55829W        W20814   8.981  25.615   1.828
55830W        W20815  40.044  32.041   0.112
55831W        W20816  13.829  29.524  11.890
55832W        W20817   5.856   5.781   2.379
55833W        W20818  39.090  19.600   1.863
55834W        W20819   9.883  18.079  12.479
55835W        W20820   7.722  21.575  13.317
55836W        W20821  33.446  13.274   1.103
55837W        W20822  39.738  30.702   4.138
55838W        W20823  24.723  39.541  12.932
55839W        W20824  14.193  25.523  11.524
55840W        W20825  33.461  16.399   0.417
55841W        W20826  13.224  23.950  13.100
55842W        W20827   6.291  13.886   3.193
55843W        W20828  11.420  22.055   2.715
55844W        W20829  14.579  11.639   2.582
55845W        W20830  29.397  39.394  13.812
55846W        W20831   3.848  37.590   1.532
55847W        W20832  20.773   9.765   2.066
55848W        W20833  11.468  41.395   3.280
55849W        W20834  40.040  38.067  14.894
55850W        W20835   5.327  27.634   0.620
55851W        W20836  42.266  27.356  11.584
55852W        W20837   1.370  34.117   2.299
55853W        W20838  26.988  43.027  14.731
55854W        W20839  41.991  32.234   2.186
55855W        W20840  31.807  13.086   0.425
55856W        W20841  24.771   2.387   5.386
55857W        W20842   0.009  34.332   3.163
55858W        W20843  12.873  21.625   0.897
55859W        W20844  24.958  23.440  13.881
55860W        W20845  36.492  17.531   1.388
55861W        W20846  42.406   1.502  11.381
55862W        W20847  20.940  10.077  13.328
55863W        W20848  19.222   7.233  14.044
55864W        W20849  41.838  18.628   4.190
55865W        W20850  31.622  20.485  10.685
55866W        W20851   6.076   5.213  14.974
55867W        W20852  39.977  42.911  14.937
55868W        W20853   9.884  42.880   3.770
55869W        W20854  13.559   0.796  12.529
55870W        W20855  28.566   7.251   4.372
55871W        W20856  16.216  21.497   3.297
55872W        W20857   3.196  40.054   4.794
55873W        W20858  25.239  15.779  14.437
55874W        W20859  26.888   8.914  12.038
55875W        W20860  35.735  28.144   3.347
55876W        W20861   2.018  26.190   5.015
55877W        W20862  25.461  14.663   0.415
55878W        W20863  36.624  12.876  13.973
55879W        W20864  25.774  27.972  11.585
55880W        W20865   4.785   1.375   3.772
55881W        W20866  13.596  22.198   4.760
55882W        W20867  27.916  15.582  14.781
55883W        W20868  41.893  17.109  11.461
55884W        W20869   2.656   1.192   3.622
55885W        W20870   7.976  36.859  10.897
55886W        W20871   8.429  44.475  11.203
55887W        W20872  43.063  28.972  13.407
55888W        W20873  39.717  22.649  10.807
55889W        W20874   7.413  19.781   0.631
55890W        W20875  42.011  11.901  11.029
55891W        W20876  31.432  22.741  11.720
55892W        W20877  43.834  27.063   2.056
55893W        W20878  30.173  41.765  12.952
55894W        W20879   1.610   3.297  10.272
55895W        W20880  20.724  34.562   4.707
55896W        W20881  27.990  26.501   3.707
55897W        W20882   8.151  30.642   0.753
55898W        W20883  38.630  11.816   3.885
55899W        W20884  21.468  11.144   4.652
55900W        W20885  16.582  30.359  12.962
55901W        W20886  39.987   9.270  14.247
55902W        W20887  26.280  20.819   4.584
55903W        W20888  13.314   6.393   0.518
55904W        W20889  12.312  22.998   3.256
55905W        W20890   3.777  34.123   3.571
55906W        W20891   0.596  10.718  12.967
55907W        W20892  19.156  34.791   3.000
55908W        W20893  37.198  13.129  11.151
55909W        W20894  15.806  24.196   1.189
55910W        W20895   6.938  34.422   1.936
55911W        W20896  23.663  20.563   0.416
55912W        W20897  43.898  22.773   3.250
55913W        W20898  16.277  10.337  11.757
55914W        W20899  15.288  40.870   4.742
55915W        W20900  41.055  25.281  12.142
55916W        W20901  38.140  27.154  11.887
55917W        W20902  44.855  31.789  11.946
55918W        W20903  32.623  41.424   3.349
55919W        W20904   1.695   5.950  14.806
55920W        W20905  12.733  43.485   0.193
55921W        W20906   4.347  37.073   3.770
55922W        W20907  14.696  30.388  11.822
55923W        W20908  17.188   3.706  14.263
55924W        W20909  44.144   6.647  12.921
55925W        W20910  44.603  20.154  11.071
55926W        W20911  15.712  10.905  12.896
55927W        W20912  42.738   9.204   4.347
55928W        W20913  27.948   4.611  10.714
55929W        W20914   8.846   3.673   2.665
55930W        W20915  32.200  16.697   1.772
55931W        W20916  11.768  30.030   4.947
55932W        W20917   5.434  37.679  11.089
55933W        W20918   4.473  30.837   1.964
55934W        W20919  17.173  37.805  10.508
55935W        W20920  12.677   4.736   4.556
55936W        W20921   3.084  18.306  10.807
55937W        W20922   4.501  17.284  12.982
55938W        W20923   3.113  39.780  14.231
55939W        W20924   3.294  17.140   0.378
55940W        W20925  44.543  43.913  11.170
55941W        W20926   2.703  20.027   2.817
55942W        W20927   0.844  15.768  12.527
55943W        W20928  24.057   8.755  13.575
55944W        W20929  39.788  20.755   2.811
55945W        W20930  43.853   6.924  11.975
55946W        W20931   9.134  19.620   0.813
55947W        W20932  24.460  42.756   3.559
55948W        W20933   2.668   5.135  12.102
55949W        W20934  12.943   6.422   0.854
55950W        W20935  19.098   3.185   1.777
55951W        W20936   0.815  27.002  10.877
55952W        W20937  10.868  40.238   0.839
55953W        W20938   3.905  17.789  13.533
55954W        W20939  43.586   7.894  11.157
55955W        W20940  13.339  44.308   0.028
55956W        W20941  41.044  20.323   0.336
55957W        W20942  12.805   1.713  13.539
55958W        W20943   5.092  28.076   3.848
55959W        W20944   2.854  31.500  13.568
55960W        W20945  19.197  22.689   1.364
55961W        W20946  14.202  14.549  12.549
55962W        W20947  36.565  12.499  14.937
55963W        W20948  11.597  31.907   3.327
55964W        W20949   5.000  17.301   0.684
55965W        W20950  19.462   5.097   2.688
55966W        W20951   0.975  37.128  11.970
55967W        W20952  18.061   7.514   1.275
55968W        W20953   9.600  22.326   3.231
55969W        W20954  20.247  13.683   0.039
55970W        W20955   6.715  20.719   0.029
55971W        W20956  34.169   2.141  14.757
55972W        W20957  22.172   7.287   1.316
55973W        W20958  28.464  13.282  13.841
55974W        W20959  31.232  23.063  12.053
55975W        W20960  33.135  36.768  12.076
55976W        W20961  36.895  14.778  14.004
55977W        W20962  14.842  25.295  12.108
55978W        W20963  40.530  43.909   3.769
55979W        W20964   0.179  14.574   3.716
55980W        W20965  34.415   5.056  10.699
55981W        W20966  34.113  11.753  11.109
55982W        W20967  24.550  42.277   3.274
55983W        W20968  12.387   6.157   4.570
55984W        W20969  13.110   8.022   0.943
55985W        W20970  26.139  35.628   1.372
55986W        W20971  12.670  34.135   2.152
55987W        W20972   5.756  10.002  13.298
55988W        W20973  24.242  19.612  14.655
55989W        W20974  19.719  22.114   0.792
55990W        W20975  27.605   8.270  11.134
55991W        W20976   5.917  23.570  10.729
55992W        W20977  43.300   7.303   2.889
55993W        W20978   0.851  43.238  11.812
55994W        W20979  36.064  13.750  13.493
55995W        W20980   6.159  25.914   4.641
55996W        W20981  34.495  27.273   3.389
55997W        W20982   1.448  17.595   4.621
55998W        W20983  32.934  22.230  14.953
55999W        W20984  23.745  15.249   0.072
56000W        W20985  11.712  25.420  11.560
56001W        W20986  24.264  44.990  14.405
56002W        W20987  28.963   6.540   1.092
56003W        W20988  38.890   5.878   3.833
56004W        W20989  10.849  23.166  12.360
56005W        W20990  21.298  23.622  11.166
56006W        W20991  27.300  37.461   5.077
56007W        W20992   2.874  32.418   1.994
56008W        W20993  14.851  32.924  11.463
56009W        W20994   9.436  21.609  14.984
56010W        W20995  13.511  40.685   0.725
56011W        W20996  42.106  21.141  13.921
56012W        W20997  11.666  11.231   3.562
56013W        W20998  14.326  32.888  12.630
56014W        W20999  38.531   3.318   0.561
56015W        W21000  44.316  34.905  11.972
56016W        W21001   3.787  39.071   4.013
56017W        W21002  39.666  34.880   2.803
56018W        W21003  40.955  37.163   4.291
56019W        W21004  36.932  22.226   0.974
56020W        W21005   5.227  43.274   0.917
56021W        W21006  26.052  26.993  13.010
56022W        W21007  41.528   1.170  11.173
56023W        W21008  29.641   4.960  11.128
56024W        W21009  14.373   4.269  10.631
56025W        W21010   4.670  32.306  12.426
56026W        W21011  21.425   7.696   0.418
56027W        W21012  34.483  37.818  14.142
56028W        W21013  11.347  17.244  13.379
56029W        W21014   1.226  44.883  11.234
56030W        W21015  23.472  21.521   1.444
56031W        W21016  44.011   3.296  11.721
56032W        W21017  17.528  32.693   2.277
56033W        W21018  17.197   6.720   1.706
56034W        W21019  28.879  35.496   3.072
56035W        W21020  11.673  27.154  11.583
56036W        W21021  30.419   7.120  13.775
56037W        W21022  43.683   5.360   3.014
56038W        W21023  26.657  17.153  14.023
56039W        W21024   9.153   0.644  11.977
56040W        W21025  42.422   1.264  13.364
56041W        W21026  24.784  24.989  14.958
56042W        W21027  22.107   4.855  14.792
56043W        W21028  28.444  14.769  12.009
56044W        W21029  18.551  20.727  10.693
56045W        W21030  26.926  29.241  13.694
56046W        W21031   8.844  40.202   4.201
56047W        W21032  28.640  26.659   4.379
56048W        W21033  24.928  27.420   1.291
56049W        W21034   7.851  36.908   3.134
56050W        W21035  18.105   8.408  11.110
56051W        W21036  23.150   6.766  11.175
56052W        W21037  28.978  34.789  12.410
56053W        W21038   5.383  33.952  14.859
56054W        W21039  17.509  38.581   4.580
56055W        W21040  23.276  20.476  13.883
56056W        W21041  31.278  14.871   4.046
56057W        W21042  15.149  18.013  12.537
56058W        W21043  42.798  35.801   0.764
56059W        W21044  39.178  33.534   3.814
56060W        W21045  43.695  12.591   0.956
56061W        W21046  34.194  14.082   4.239
56062W        W21047   8.340  27.066   4.092
56063W        W21048  17.341  17.808  11.137
56064W        W21049  39.219  26.204   0.352
56065W        W21050  38.508  12.584   0.736
56066W        W21051  42.473  15.613  10.912
56067W        W21052  14.058  43.170   3.683
56068W        W21053  16.276  31.687  11.105
56069W        W21054  28.963  13.392  13.572
56070W        W21055   4.414  14.851   3.136
56071W        W21056  35.062  26.445  13.795
56072W        W21057  27.944  16.683  12.919
56073W        W21058  36.521  35.884   5.108
56074W        W21059  33.484  16.845  11.998
56075W        W21060  26.956  30.446   1.644
56076W        W21061  28.148  27.285  12.177
56077W        W21062  18.445  34.443  11.678
56078W        W21063  10.924  33.575   3.386
56079W        W21064  18.700  27.147   5.103
56080W        W21065   5.299   7.141  11.534
56081W        W21066  15.424   9.959   1.173
56082W        W21067  24.244  39.067  12.068
56083W        W21068  18.344  15.588  14.850
56084W        W21069  35.390   6.428  12.527
56085W        W21070  18.158  20.562   1.182
56086W        W21071  19.661  16.301   4.534
56087W        W21072   8.943  26.884   1.145
56088W        W21073  40.066  28.451  11.576
56089W        W21074   8.660  13.764  13.487
56090W        W21075  22.937  18.632   0.763
56091W        W21076  40.129  14.643   2.775
56092W        W21077  12.930  18.213  11.434
56093W        W21078  44.161  12.154   2.837
56094W        W21079  13.111  39.794   4.139
56095W        W21080  24.171  14.237   0.417
56096W        W21081  12.279  39.710  13.335
56097W        W21082   3.167  38.852  14.280
56098W        W21083  15.812  41.890  14.050
56099W        W21084  44.122  22.275  12.938
56100W        W21085  20.527  29.912  14.740
56101W        W21086  29.123   0.451  11.450
56102W        W21087  30.060  17.097  12.648
56103W        W21088  14.343  20.222  12.641
56104W        W21089   4.284   8.816   1.661
56105W        W21090  29.423  25.249  13.831
56106W        W21091  20.222  23.208   2.295
56107W        W21092  23.188  32.896  10.936
56108W        W21093  41.829  20.714  14.018
56109W        W21094  11.766  43.711  13.431
56110W        W21095  23.939  32.910   0.190
56111W        W21096  11.971  19.225  14.258
56112W        W21097  27.395  31.095   0.890
56113W        W21098  17.269  30.429  11.263
56114W        W21099  13.852  44.424  14.997
56115W        W21100  42.416  29.412  11.529
56116W        W21101  26.614  19.640   4.351
56117W        W21102  31.499  11.808  14.912
56118W        W21103   2.660  17.651   4.010
56119W        W21104  11.410   5.942  13.943
56120W        W21105  37.472  20.956   0.165
56121W        W21106  44.445  18.432   2.799
56122W        W21107   3.355   7.804   1.841
56123W        W21108  24.928   5.266  14.710
56124W        W21109  39.763  38.412   2.246
56125W        W21110  22.481  38.430  10.593
56126W        W21111   2.014  13.821   3.278
56127W        W21112  25.438   2.865   3.219
56128W        W21113   8.851   2.219   0.893
56129W        W21114  33.786  25.435  12.889
56130W        W21115  40.489  24.970  11.561
56131W        W21116  40.933  34.473  12.110
56132W        W21117  18.433  25.166   2.242
56133W        W21118  41.297  21.526  12.004
56134W        W21119  11.832  42.282  13.407
56135W        W21120  34.990  16.389  12.870
56136W        W21121  28.765   0.931  13.087
56137W        W21122  28.169  21.218   1.865
56138W        W21123  29.094   0.234  13.949
56139W        W21124   3.929  33.372  13.304
56140W        W21125  28.014  33.413  12.083
56141W        W21126  23.344   8.895   4.616
56142W        W21127   1.555   2.538  12.002
56143W        W21128  17.278  15.777  13.504
56144W        W21129  14.832   7.187   2.242
56145W        W21130   6.685   1.381  11.203
56146W        W21131  16.028  22.527  10.914
56147W        W21132  28.540  42.479   1.653
56148W        W21133   7.265  24.769  13.937
56149W        W21134  11.419  33.348  11.807
56150W        W21135  35.650  27.984  11.196
56151W        W21136  39.831  41.345   4.621
56152W        W21137  42.273  27.169   2.810
56153W        W21138  12.262  18.574  12.432
56154W        W21139  37.955  27.710   0.980
56155W        W21140  37.711  10.634  10.684
56156W        W21141  17.201  12.518   5.005
56157W        W21142  43.812   5.349   2.529
56158W        W21143  37.634  23.278   2.142
56159W        W21144  13.229  11.380   3.404
56160W        W21145   8.884  23.901   5.099
56161W        W21146  44.690  28.151  10.495
56162W        W21147  12.758   0.715   1.251
56163W        W21148  40.704  15.305   2.670
56164W        W21149  21.107   7.189  12.891
56165W        W21150  24.389  17.647   0.340
56166W        W21151  26.697  40.105   0.290
56167W        W21152   4.908  16.442  14.423
56168W        W21153  33.520  30.033  11.484
56169W        W21154  31.364  11.512  10.264
56170W        W21155   6.936   3.845  11.162
56171W        W21156  18.280  42.768   4.809
56172W        W21157  32.326  21.667  10.570
56173W        W21158  15.439  41.409   0.021
56174W        W21159   6.679  39.182  11.148
56175W        W21160  37.106  41.822  11.976
56176W        W21161   3.281  31.572   2.418
56177W        W21162  29.773  29.401   0.447
56178W        W21163  37.173  24.784   2.875
56179W        W21164   2.421  34.919  13.046
56180W        W21165  10.461  24.163   2.107
56181W        W21166  10.161  20.996   0.205
56182W        W21167  21.705  39.364   0.883
56183W        W21168  31.711  44.959  14.918
56184W        W21169  30.958  25.601  13.566
56185W        W21170  29.252  36.808   0.569
56186W        W21171   9.330  41.985   2.659
56187W        W21172  28.734  20.617   2.197
56188W        W21173  11.192  34.577  11.271
56189W        W21174  26.883  44.903  11.102
56190W        W21175  12.924  33.133   2.387
56191W        W21176   0.645  42.713   3.717
56192W        W21177  15.080   0.587  10.789
56193W        W21178  32.057  19.330   2.411
56194W        W21179  35.352   4.057   2.358
56195W        W21180  16.149  35.579  11.654
56196W        W21181  20.202   4.205   1.847
56197W        W21182  31.322   9.806   5.500
56198W        W21183  34.179  38.065  11.984
56199W        W21184   8.453  27.860   0.497
56200W        W21185  16.128   3.414   4.819
56201W        W21186   1.755  25.632   3.821
56202W        W21187  29.626  30.421  12.437
56203W        W21188   8.923  11.104  12.963
56204W        W21189  23.642  17.782   3.058
56205W        W21190   0.381  23.768   2.402
56206W        W21191  17.773   4.794  12.225
56207W        W21192  22.646  34.558  11.401
56208W        W21193  44.782  15.190   0.862
56209W        W21194  27.093  19.017  13.543
56210W        W21195   3.292  10.564  10.553
56211W        W21196   6.677   1.217   1.733
56212W        W21197  27.498  24.485   0.411
56213W        W21198   3.922  22.792   0.395
56214W        W21199   7.215   4.864   1.204
56215W        W21200  40.214  26.235  11.602
56216W        W21201  23.588  41.793   3.404
56217W        W21202  21.230  37.068   1.756
56218W        W21203  13.610   9.389   0.826
56219W        W21204   6.658  23.721  12.998
56220W        W21205  40.283   8.734   3.727
56221W        W21206   1.250  38.856   4.714
56222W        W21207  31.698  28.259  10.636
56223W        W21208  26.511  21.501  13.987
56224W        W21209  24.541  24.479   1.799
56225W        W21210  29.759   7.295   5.041
56226W        W21211  39.756  29.505  14.475
56227W        W21212   3.478  28.196  14.217
56228W        W21213  32.333   5.755  13.884
56229W        W21214  17.438  27.671   1.200
56230W        W21215  13.216  36.671  13.564
56231W        W21216  24.843   3.189  14.408
56232W        W21217  11.139  12.026   0.910
56233W        W21218  41.118  10.353   2.810
56234W        W21219  27.254   9.427   4.199
56235W        W21220   7.164  32.059   4.130
56236W        W21221  17.592  36.054  13.872
56237W        W21222   2.769   2.835   1.807
56238W        W21223  32.179  34.749  12.582
56239W        W21224  42.264  29.653   1.312
56240W        W21225  40.037  21.959  12.989
56241W        W21226  38.992   7.889  14.703
56242W        W21227  14.607  31.865  14.483
56243W        W21228  29.192  40.849   3.303
56244W        W21229  14.620  38.758  13.020
56245W        W21230  17.969  20.606   2.140
56246W        W21231   5.337  37.929   4.953
56247W        W21232  10.181   6.450   5.457
56248W        W21233  35.007  18.728   3.587
56249W        W21234  26.069   8.379  14.753
56250W        W21235  35.386  33.066  12.586
56251W        W21236  20.756  15.065  11.120
56252W        W21237   7.197   4.883   2.634
56253W        W21238  34.113  30.543   3.032
56254W        W21239  10.803   1.577  11.981
56255W        W21240  38.382  20.974   9.858
56256W        W21241  33.002   3.194   3.764
56257W        W21242  44.331   9.070   0.171
56258W        W21243   2.146   1.477   2.536
56259W        W21244   7.626  12.355   1.379
56260W        W21245  23.626   1.355  10.970
56261W        W21246  24.896   9.759   3.249
56262W        W21247  34.004   9.647  11.594
56263W        W21248  34.668  18.639   0.898
56264W        W21249  30.649  19.690   2.209
56265W        W21250  31.185  29.651  14.755
56266W        W21251   0.243  23.668  13.070
56267W        W21252  40.902  31.688  11.021
56268W        W21253  29.226  10.457   4.544
56269W        W21254  10.383  10.388   3.735
56270W        W21255  33.108  13.544  11.508
56271W        W21256  26.077   6.733  13.773
56272W        W21257  40.823  23.233   4.124
56273W        W21258  33.989   2.456  11.230
56274W        W21259  29.685  38.761  11.103
56275W        W21260  37.831  36.523  14.030
56276W        W21261  42.859   7.265   1.899
56277W        W21262  18.327  26.211  10.960
56278W        W21263  21.186   1.684   2.740
56279W        W21264   3.828  25.911   0.358
56280W        W21265  42.426  14.401   0.114
56281W        W21266  24.810  10.061   0.579
56282W        W21267  34.545  26.052  10.968
56283W        W21268  43.042   3.888  14.327
56284W        W21269   1.577  34.304   1.831
56285W        W21270  30.483   8.631   4.219
56286W        W21271   7.465  17.563   0.817
56287W        W21272  37.379  24.706  10.603
56288W        W21273   3.198  42.361   0.780
56289W        W21274  42.477   5.662  12.343
56290W        W21275  24.439   6.929   4.126
56291W        W21276  31.059  36.978  14.863
56292W        W21277  10.779  13.289   4.568
56293W        W21278   0.524  42.827  13.399
56294W        W21279  44.035  30.205   4.828
56295W        W21280  33.129   9.686  14.724
56296W        W21281  36.991  30.878   4.528
56297W        W21282  15.153  32.562  14.289
56298W        W21283  31.208  41.252   1.779
56299W        W21284  44.327  28.503   2.502
56300W        W21285  10.887  42.334  12.446
56301W        W21286   0.481  33.950  14.948
56302W        W21287  24.969   3.477  12.047
56303W        W21288   6.105   4.233  11.995
56304W        W21289  37.993  29.698   1.196
56305W        W21290  22.615  29.846   0.442
56306W        W21291  22.476  31.997  11.175
56307W        W21292  28.559  14.597   1.267
56308W        W21293  31.375  31.583  11.059
56309W        W21294  11.089  30.606   2.728
56310W        W21295  24.530  41.381   3.281
56311W        W21296  26.761  13.361   3.654
56312W        W21297  34.459  25.242   2.706
56313W        W21298  30.063  27.838  14.154
56314W        W21299  29.074  29.560  11.123
56315W        W21300   5.906   3.739  14.038
56316W        W21301  10.884   3.322  13.479
56317W        W21302  24.826  26.592   4.698
56318W        W21303  36.062   9.769  11.555
56319W        W21304  10.163  19.058  13.956
56320W        W21305  10.280  20.674   0.942
56321W        W21306   6.864  38.291  12.011
56322W        W21307  40.385   6.545   3.992
56323W        W21308  12.156   4.420   0.872
56324W        W21309  41.917   1.861   0.012
56325W        W21310  38.272  36.611   0.383
56326W        W21311   9.402  40.877   4.586
56327W        W21312  29.405  27.044   2.936
56328W        W21313  14.702  10.257  10.544
56329W        W21314  24.057  40.285  11.751
56330W        W21315  11.058   3.239   4.600
56331W        W21316  21.148   8.442  13.520
56332W        W21317  34.461  12.590  14.322
56333W        W21318  17.482  24.250   5.024
56334W        W21319  44.831  22.035  13.512
56335W        W21320  18.547   7.901  13.963
56336W        W21321   7.757  23.762   2.325
56337W        W21322  44.838  13.995   2.770
56338W        W21323  24.608  37.605   3.226
56339W        W21324  23.508  18.220  12.369
56340W        W21325  20.602  31.701   2.871
56341W        W21326  40.691  43.706  13.883
56342W        W21327  31.309  35.039   1.276
56343W        W21328  31.683  37.723   1.388
56344W        W21329  35.424  15.285   1.215
56345W        W21330   7.202  11.181  14.213
56346W        W21331  15.327  32.002   2.655
56347W        W21332  14.134   5.432  14.248
56348W        W21333  21.500  29.208  13.016
56349W        W21334  17.161  25.994   0.751
56350W        W21335   9.513  20.585   3.866
56351W        W21336  39.126  27.206  12.230
56352W        W21337  38.871  32.516   0.955
56353W        W21338   2.332   0.696   0.879
56354W        W21339  44.623  33.087   1.289
56355W        W21340  31.103  17.684   1.006
56356W        W21341  19.101  14.270   2.350
56357W        W21342   3.219  38.512  12.621
56358W        W21343   0.941   6.747  13.530
56359W        W21344  43.977   1.819   2.489
56360W        W21345  33.496  26.551   1.354
56361W        W21346  12.431  16.570  12.480
56362W        W21347  25.281  40.820   0.277
56363W        W21348  40.889   3.899  11.471
56364W        W21349  16.259  41.782   4.247
56365W        W21350  22.300  23.926   2.360
56366W        W21351  36.292  29.006   3.294
56367W        W21352   6.652  37.479   3.671
56368W        W21353   0.433  20.554   2.043
56369W        W21354  12.979   2.880   1.069
56370W        W21355  30.100   4.149  11.157
56371W        W21356  18.885  30.678   1.353
56372W        W21357  31.943   3.571  12.969
56373W        W21358  23.247  42.274  11.457
56374W        W21359  21.241  27.567  12.102
56375W        W21360  36.826  39.296   4.304
56376W        W21361   4.345  19.681   2.232
56377W        W21362  24.003   0.457  12.333
56378W        W21363  23.536  17.045  11.958
56379W        W21364  27.647   8.343   1.631
56380W        W21365  40.197  32.879   4.491
56381W        W21366  36.234  36.271   4.931
56382W        W21367   7.374  27.092   2.664
56383W        W21368  31.868  19.032   0.919
56384W        W21369  11.101  36.455   0.412
56385W        W21370  35.659  17.711  10.747
56386W        W21371   8.756  13.668   4.738
56387W        W21372  17.290  31.521   3.998
56388W        W21373   9.858  38.397   3.112
56389W        W21374  13.698  16.792  12.789
56390W        W21375  23.333   5.306   4.082
56391W        W21376  44.748  14.991   1.753
56392W        W21377   5.175  44.719   1.715
56393W        W21378   4.726  31.540   3.834
56394W        W21379  26.619   2.391  14.290
56395W        W21380  19.694   1.486  12.966
56396W        W21381   9.158  43.115  12.826
56397W        W21382  23.711  32.850  13.024
56398W        W21383  15.691  21.307  11.317
56399W        W21384  38.772   6.811   4.031
56400W        W21385   3.494  26.677  14.364
56401W        W21386   8.341  10.086  11.021
56402W        W21387  41.415  10.167  11.575
56403W        W21388   5.188  31.593   0.360
56404W        W21389   6.436  43.799  14.504
56405W        W21390  37.969  27.151   4.943
56406W        W21391  29.440  25.204   2.890
56407W        W21392   3.651   3.967  10.710
56408W        W21393  38.718  31.445  13.000
56409W        W21394   4.487  25.177   2.998
56410W        W21395  41.804   1.662   0.859
56411W        W21396   3.970  14.163   2.308
56412W        W21397  22.666  18.572  10.661
56413W        W21398  39.487  33.447   1.531
56414W        W21399  14.307   5.532  10.770
56415W        W21400   7.583  35.392   1.528
56416W        W21401  34.177   7.270  10.204
56417W        W21402  34.132  23.036   2.289
56418W        W21403  32.672  37.360  12.595
56419W        W21404  13.529  16.615   4.132
56420W        W21405  38.700  38.513   4.523
56421W        W21406  40.301  28.004  13.021
56422W        W21407  39.621   2.685   3.800
56423W        W21408  16.146  11.306  14.078
56424W        W21409  44.000   9.112  13.863
56425W        W21410  11.910  29.590   0.382
56426W        W21411  22.322  30.154   1.358
56427W        W21412  19.320  37.931  14.934
56428W        W21413   9.843  24.763   2.712
56429W        W21414  39.654  42.468   3.764
56430W        W21415  23.736  24.612   1.328
56431W        W21416  15.910   1.843  11.170
56432W        W21417  12.465  24.022   0.186
56433W        W21418   8.370  13.634  14.726
56434W        W21419  10.424  36.902   4.912
56435W        W21420  17.667  35.085  14.308
56436W        W21421  40.241  12.119   4.637
56437W        W21422  12.382  10.907   3.148
56438W        W21423  30.393  24.889   4.897
56439W        W21424  32.661  42.026   2.778
56440W        W21425   3.430  32.103  11.444
56441W        W21426  12.609  19.498   2.357
56442W        W21427  18.741  16.939   0.019
56443W        W21428   7.430   4.975  10.716
56444W        W21429  34.643  28.944  12.114
56445W        W21430   0.356  18.674   1.468
56446W        W21431  44.383   9.778  10.700
56447W        W21432  41.422  44.496   4.931
56448W        W21433  32.534  31.016  11.562
56449W        W21434  25.999  30.353  13.172
56450W        W21435  31.909  34.334   1.972
56451W        W21436  30.552   2.243  14.794
56452W        W21437   3.190   2.888   2.139
56453W        W21438  37.057   5.181  13.992
56454W        W21439  39.819   5.939   1.940
56455W        W21440   2.365   1.988   4.599
56456W        W21441  41.008  29.747  12.391
56457W        W21442  24.264  18.154   0.043
56458W        W21443   3.129  20.213  12.438
56459W        W21444   9.005  40.477  12.023
56460W        W21445  12.629  39.870   0.993
56461W        W21446  35.480  18.820  12.465
56462W        W21447  25.309  14.584   5.002
56463W        W21448  19.085   4.912   0.967
56464W        W21449  15.680   9.399   4.293
56465W        W21450  20.309  31.515  10.726
56466W        W21451  34.910  36.156  13.480
56467W        W21452  17.534  41.904   4.111
56468W        W21453  25.144  36.076  13.480
56469W        W21454  28.619   6.494   0.352
56470W        W21455  44.025   7.817  11.431
56471W        W21456  17.346  26.644   2.996
56472W        W21457  11.693  18.449  14.041
56473W        W21458  23.684  16.779  12.886
56474W        W21459  34.491  43.533   1.218
56475W        W21460   9.509  28.892   2.985
56476W        W21461  41.667  40.653  10.576
56477W        W21462  43.206  41.240   4.128
56478W        W21463  14.581   7.288  13.630
56479W        W21464  34.902  22.021   1.657
56480W        W21465  41.616  42.856   4.051
56481W        W21466  38.149  18.149   4.691
56482W        W21467  16.102  38.156   1.662
56483W        W21468   5.646  36.535  14.292
56484W        W21469  37.252  35.181  13.500
56485W        W21470  20.939  24.110   5.035
56486W        W21471  17.736   7.029  10.863
56487W        W21472  44.965   0.679  13.821
56488W        W21473   3.467  16.758   2.152
56489W        W21474  22.141  41.916  11.365
56490W        W21475   9.605  30.086  11.580
56491W        W21476  12.905  26.623  11.054
56492W        W21477  21.133  40.469  11.508
56493W        W21478  10.497   6.006   5.418
56494W        W21479   5.737  43.690  11.598
56495W        W21480  42.872   2.732  11.745
56496W        W21481  44.941  33.632  14.757
56497W        W21482  33.554  25.967   4.458
56498W        W21483  16.360  42.851  11.873
56499W        W21484  33.346   4.322  13.475
56500W        W21485   7.952  31.507  13.438
56501W        W21486  37.608  11.423   1.866
56502W        W21487   6.450  11.089  11.673
56503W        W21488  41.913  13.759   4.632
56504W        W21489   6.453  31.332   0.993
56505W        W21490  36.820  33.868  10.502
56506W        W21491   5.831  28.780   2.003
56507W        W21492   5.771  42.419   2.914
56508W        W21493  16.045  36.276  14.028
56509W        W21494  34.344  30.551  12.616
56510W        W21495  43.402  42.190  12.907
56511W        W21496  37.087   1.249  12.404
56512W        W21497   5.691   2.057  13.647
56513W        W21498  16.894   7.584   4.559
56514W        W21499  31.774  18.240  11.092
56515W        W21500  38.599  30.928  13.135
56516W        W21501  20.147  43.086   3.422
56517W        W21502  16.091  29.636  13.732
56518W        W21503  27.736  38.337   3.196
56519W        W21504  14.809  26.583   2.770
56520W        W21505  38.652   2.465  10.602
56521W        W21506  27.912  27.172  14.534
56522W        W21507  19.591  13.186   0.258
56523W        W21508  10.593  35.000  13.405
56524W        W21509  42.507   4.931  10.773
56525W        W21510  39.782  18.130  14.237
56526W        W21511   3.471   7.198  13.932
56527W        W21512  17.428  11.576  11.977
56528W        W21513  28.101   5.923   4.590
56529W        W21514  23.957   0.453  12.889
56530W        W21515  27.913  16.972   3.236
56531W        W21516  41.355  29.180  12.986
56532W        W21517  42.998  43.191   0.794
56533W        W21518  43.382   3.249  12.446
56534W        W21519  41.881  36.916  12.864
56535W        W21520  13.732  44.397  10.415
56536W        W21521   6.898  29.278   1.015
56537W        W21522   8.817  28.788   3.993
56538W        W21523  37.384  41.760  12.495
56539W        W21524  12.600  35.840  11.933
56540W        W21525   5.224  21.188  14.544
56541W        W21526  11.324  15.216  12.114
56542W        W21527   8.195  32.164  12.406
56543W        W21528   4.890  20.060   2.354
56544W        W21529  22.703  42.499   2.618
56545W        W21530  18.264   5.649  14.987
56546W        W21531  28.046  24.567   1.522
56547W        W21532   9.500  18.295  14.282
56548W        W21533  10.605  30.963  12.774
56549W        W21534   5.006  24.985   3.361
56550W        W21535   9.408   0.391   4.547
56551W        W21536  33.894   7.228  14.456
56552W        W21537  30.521  41.389   0.905
56553W        W21538  24.361  20.161  13.452
56554W        W21539  18.052  13.689  11.288
56555W        W21540   1.271  16.940  10.710
56556W        W21541   7.236   4.594   9.932
56557W        W21542   1.397  37.813  14.498
56558W        W21543   9.649  11.217  14.980
56559W        W21544  39.560  40.988  13.982
56560W        W21545  17.191  24.553  13.557
56561W        W21546   0.479  34.142   3.172
56562W        W21547   5.393  25.578   3.094
56563W        W21548  12.525  24.044   1.937
56564W        W21549  30.073  13.866  12.405
56565W        W21550  40.474  24.951  11.036
56566W        W21551  15.083  43.709   1.314
56567W        W21552  31.582   2.942  13.804
56568W        W21553  31.241   6.825   1.383
56569W        W21554   1.977  18.774  12.596
56570W        W21555  36.368  33.625   9.893
56571W        W21556   3.705   1.578  14.986
56572W        W21557  27.577  26.722   4.658
56573W        W21558   9.399  15.240  13.209
56574W        W21559  34.896  31.021   2.111
56575W        W21560  22.648  10.570   2.037
56576W        W21561  15.475  43.728   1.791
56577W        W21562  12.641   3.162   3.744
56578W        W21563  44.562  26.760   3.767
56579W        W21564  39.231  34.114   3.162
56580W        W21565  18.437  24.638   2.334
56581W        W21566  12.588   0.063  11.163
56582W        W21567   1.998  39.028   0.892
56583W        W21568  42.591  25.965  12.378
56584W        W21569  29.496  27.091  10.910
56585W        W21570   5.187  37.360  13.839
56586W        W21571  16.313  37.608   4.557
56587W        W21572  25.441  21.614   3.271
56588W        W21573   8.446   7.986   3.148
56589W        W21574   1.878   7.782  12.942
56590W        W21575   1.541  12.144   3.911
56591W        W21576  12.259  36.034  11.547
56592W        W21577   9.964   4.715   3.276
56593W        W21578  40.335  22.318   0.238
56594W        W21579  13.182  10.159   2.359
56595W        W21580  19.205   4.992   4.627
56596W        W21581  14.215  15.054  14.517
56597W        W21582   5.976  12.713  11.605
56598W        W21583  37.136  36.755   3.726
56599W        W21584  28.392  21.719   3.204
56600W        W21585  33.218  41.017   3.641
56601W        W21586  21.524  10.256   9.827
56602W        W21587  22.698  24.615  10.427
56603W        W21588   7.937  20.060  12.054
56604W        W21589  13.646  31.553  10.278
56605W        W21590  29.682  33.534  10.296
56606W        W21591  32.539  31.144   0.349
56607W        W21592  41.270  11.395  11.098
56608W        W21593   3.765   6.231   2.879
56609W        W21594  36.524  16.193  11.257
56610W        W21595  33.025  35.264  12.136
56611W        W21596  41.901   5.184   0.231
56612W        W21597  33.310  17.114   3.777
56613W        W21598  20.287   7.217   5.002
56614W        W21599   0.282  42.946  11.019
56615W        W21600   5.925  25.492   0.819
56616W        W21601   4.884   8.255   2.648
56617W        W21602  12.354   1.379  13.063
56618W        W21603  41.588   1.229   1.295
56619W        W21604  37.060  41.385  14.883
56620W        W21605  11.716  32.997   0.340
56621W        W21606  20.332  15.879  13.874
56622W        W21607  36.101  40.574   2.010
56623W        W21608   2.670  14.169  12.260
56624W        W21609   9.724  32.519  14.944
56625W        W21610  36.853  15.691  14.923
56626W        W21611  19.886  39.972   1.083
56627W        W21612  18.050   8.229   1.847
56628W        W21613  34.482  44.696   0.514
56629W        W21614  18.069  29.594  13.531
56630W        W21615  42.463  27.626   2.171
56631W        W21616   8.836  41.757  11.748
56632W        W21617  14.579  41.163  13.869
56633W        W21618  18.029   0.383   4.568
56634W        W21619  21.031  13.658  12.455
56635W        W21620  37.330  25.889   2.294
56636W        W21621   3.904  13.188   3.408
56637W        W21622  13.893   1.856  14.573
56638W        W21623  43.402  37.412   1.521
56639W        W21624  26.259  36.073  11.578
56640W        W21625  36.174  14.802   4.206
56641W        W21626  23.736  39.989  12.173
56642W        W21627  20.665  16.148  13.584
56643W        W21628   7.637  14.597  11.885
56644W        W21629  10.402  12.858  11.782
56645W        W21630   5.674  15.675  13.135
56646W        W21631  30.708  42.354   3.691
56647W        W21632  21.908   4.303   0.955
56648W        W21633  44.245  22.543   1.465
56649W        W21634   4.288  39.425   4.187
56650W        W21635  21.715  40.785   0.816
56651W        W21636  19.139   5.467  13.497
56652W        W21637  14.114  14.255   3.249
56653W        W21638  14.262  16.260  13.148
56654W        W21639  22.066  37.344   0.933
56655W        W21640   0.589  37.813  13.413
56656W        W21641   1.896   3.025   3.226
56657W        W21642   0.479   6.847   0.556
56658W        W21643  38.872  13.291   1.359
56659W        W21644  17.058  11.438   3.616
56660W        W21645   9.589   7.194   4.216
56661W        W21646  15.120  39.781  14.815
56662W        W21647  21.005  30.915  13.824
56663W        W21648  24.817   7.139   2.788
56664W        W21649  40.930  37.592   2.095
56665W        W21650  28.967   9.686   1.551
56666W        W21651  41.476  38.976   3.207
56667W        W21652  43.596  18.330  10.739
56668W        W21653   3.759  27.144  11.024
56669W        W21654  10.769  25.740  12.145
56670W        W21655  17.897  13.139  12.054
56671W        W21656  11.855   5.440  12.359
56672W        W21657  14.887  36.371  13.019
56673W        W21658  37.920  27.136  10.596
56674W        W21659  41.428  21.121  11.253
56675W        W21660  36.321  18.550  10.577
56676W        W21661   6.478   2.260   1.984
56677W        W21662  41.972  37.994  10.823
56678W        W21663  37.924  17.335  10.149
56679W        W21664  19.215  18.084  10.389
56680W        W21665  21.677  39.525   2.251
56681W        W21666  29.287  15.219   2.389
56682W        W21667  10.740   1.293  11.099
56683W        W21668  25.052   8.285  14.931
56684W        W21669   7.443  26.582   4.306
56685W        W21670  41.483  15.483  13.490
56686W        W21671  27.257   1.384  11.047
56687W        W21672  15.988  34.087   0.882
56688W        W21673   0.167  24.983   2.865
56689W        W21674  39.317   6.474  12.964
56690W        W21675  37.562  16.083   1.178
56691W        W21676  24.693  26.094  12.500
56692W        W21677   3.916  36.206   1.783
56693W        W21678  19.812  14.290   4.777
56694W        W21679  37.286   1.017  14.369
56695W        W21680  16.394  32.320   0.758
56696W        W21681   3.852  27.225  10.519
56697W        W21682  28.146  34.442   2.221
56698W        W21683  26.038  41.948  12.057
56699W        W21684  32.440   0.053  14.335
56700W        W21685  13.376  16.742   2.704
56701W        W21686   3.686  32.215  12.369
56702W        W21687   2.951  25.751  14.241
56703W        W21688   4.792   5.285  10.386
56704W        W21689  39.424  15.607  11.070
56705W        W21690  30.102   6.609  12.834
56706W        W21691  28.468   0.433   1.237
56707W        W21692  12.864  40.292  11.498
56708W        W21693  26.719   5.003  11.278
56709W        W21694  16.821  39.351  11.196
56710W        W21695  36.514  23.097   0.094
56711W        W21696  44.529  37.505  12.011
56712W        W21697   0.932  37.555  14.279
56713W        W21698   3.210  16.103   4.327
56714W        W21699  16.832  16.296  12.577
56715W        W21700  11.345   9.043  14.477
56716W        W21701  27.251  40.865  14.374
56717W        W21702   7.284  35.346  13.607
56718W        W21703  14.545  13.088   1.331
56719W        W21704  21.990  42.900  12.355
56720W        W21705  17.492  42.337  14.324
56721W        W21706  15.764   0.488   4.087
56722W        W21707  23.903  24.473   4.533
56723W        W21708  22.636   5.806   2.552
56724W        W21709  43.649   5.695  14.827
56725W        W21710  17.048   3.379  10.702
56726W        W21711   3.493  21.808  10.794
56727W        W21712   5.935   4.212  12.851
56728W        W21713  44.915  18.191   0.835
56729W        W21714  41.028  40.588  10.469
56730W        W21715  40.464  21.835   0.944
56731W        W21716  35.019   9.989   4.883
56732W        W21717   5.013  33.401  10.455
56733W        W21718   8.384  29.647   1.986
56734W        W21719  13.875  18.712   3.279
56735W        W21720  27.967  32.367   4.205
56736W        W21721  41.110  28.111  14.864
56737W        W21722  38.254  33.540  13.457
56738W        W21723  34.579  28.664   3.152
56739W        W21724  44.606  16.798   0.189
56740W        W21725  30.317  21.772  13.755
56741W        W21726  20.914  33.747   0.157
56742W        W21727   6.309   8.230  12.994
56743W        W21728  42.451  22.050   4.180
56744W        W21729  16.566  12.279  11.189
56745W        W21730  42.808  31.832   4.987
56746W        W21731  43.868  24.732   3.094
56747W        W21732  13.935  33.926  14.087
56748W        W21733   4.369  21.162   4.445
56749W        W21734  37.883  12.255  12.952
56750W        W21735   3.295  41.199  10.935
56751W        W21736  32.982  26.240  13.522
56752W        W21737  23.010  27.096  10.649
56753W        W21738  43.366  12.638   1.355
56754W        W21739  39.161  17.720   5.377
56755W        W21740  12.605   1.464   2.578
56756W        W21741  27.700  14.821  10.623
56757W        W21742  30.165  24.087  10.515
56758W        W21743  32.891  31.701   3.085
56759W        W21744  28.389   4.785   1.709
56760W        W21745  12.097   2.442   1.339
56761W        W21746   8.495  10.904   3.225
56762W        W21747  31.929  17.267   5.118
56763W        W21748  15.254  20.835  12.779
56764W        W21749  33.825  36.641  14.480
56765W        W21750  24.145  14.671   0.706
56766W        W21751  22.162  43.019   9.987
56767W        W21752  42.315   5.805   2.641
56768W        W21753   4.230  36.918  14.709
56769W        W21754  41.749  28.026   3.622
56770W        W21755  37.419  14.423   4.671
56771W        W21756  16.794  24.465  12.014
56772W        W21757  14.817  32.394  11.428
56773W        W21758  19.411  29.287   2.669
56774W        W21759  22.015  31.056  11.527
56775W        W21760  41.996   3.254   5.077
56776W        W21761  13.133  41.273   3.778
56777W        W21762  25.715  32.289   0.764
56778W        W21763  26.881  28.022  13.434
56779W        W21764   6.405  39.731   2.402
56780W        W21765   5.660   4.410   1.143
56781W        W21766  18.649  19.109  12.778
56782W        W21767  27.619  44.812   3.337
56783W        W21768  43.076  23.419  11.547
56784W        W21769  38.334  32.320  13.066
56785W        W21770  33.839  31.108  11.641
56786W        W21771  16.091   5.799  13.040
56787W        W21772  14.889  39.115   3.858
56788W        W21773  22.105  10.719  14.776
56789W        W21774  20.081   3.913   4.131
56790W        W21775   2.232  39.829  11.236
56791W        W21776  17.546  28.832  12.019
56792W        W21777  42.520  24.043   3.357
56793W        W21778  35.978  41.749  14.860
56794W        W21779  18.380   6.346  11.819
56795W        W21780   2.655  44.758  14.179
56796W        W21781   0.969  14.054   0.702
56797W        W21782  19.845  32.021   4.845
56798W        W21783  28.156  12.853   0.684
56799W        W21784   4.842  12.379   3.795
56800W        W21785  16.724  19.633   0.381
56801W        W21786  25.926  10.936  13.438
56802W        W21787  36.882  38.116   4.790
56803W        W21788  40.780   1.265   4.264
56804W        W21789  28.522  13.166  13.337
56805W        W21790  19.889  15.043   1.724
56806W        W21791   9.163   1.004   3.655
56807W        W21792  27.547  39.238   1.926
56808W        W21793  27.499  16.666   4.067
56809W        W21794  28.696  42.030  11.991
56810W        W21795  35.295  39.540  12.548
56811W        W21796  30.986  21.657   1.335
56812W        W21797  14.706  42.532  12.740
56813W        W21798  16.792  20.005  12.156
56814W        W21799  27.568   5.688   2.904
56815W        W21800   3.890   8.395   1.576
56816W        W21801  34.083  19.604   3.280
56817W        W21802   5.707  21.058  13.977
56818W        W21803   1.078  12.243   4.114
56819W        W21804   1.273  38.869  13.268
56820W        W21805  34.515  20.084  11.300
56821W        W21806  22.985  12.162   4.494
56822W        W21807  17.748  30.409   1.339
56823W        W21808  19.289  44.292   2.695
56824W        W21809  10.048  38.867   2.105
56825W        W21810   2.133  42.272   3.759
56826W        W21811  11.111  38.438   0.607
56827W        W21812  10.321  44.102   3.420
56828W        W21813  42.751  14.232   5.462
56829W        W21814  17.841  28.144   3.675
56830W        W21815  16.087  41.997  12.442
56831W        W21816  34.176  17.109   0.132
56832W        W21817  21.490   8.053   3.181
56833W        W21818  41.612   5.336  14.821
56834W        W21819   9.662  18.319  11.576
56835W        W21820  34.911  44.944  13.542
56836W        W21821  13.233  42.795  10.836
56837W        W21822  10.271   4.911  10.098
56838W        W21823  27.640  41.871  13.667
56839W        W21824  26.230  19.124  11.164
56840W        W21825   5.219  27.543   2.870
56841W        W21826  41.486  42.476  14.915
56842W        W21827  36.021  26.600  11.191
56843W        W21828  24.010   2.811  13.860
56844W        W21829  38.230  36.315   4.270
56845W        W21830  38.874  20.996  13.409
56846W        W21831  15.876  34.958  11.499
56847W        W21832  39.132  23.474  11.998
56848W        W21833  14.638  30.474  12.783
56849W        W21834  10.570  35.335   4.234
56850W        W21835  39.965  23.257  13.390
56851W        W21836  13.930  31.045   0.745
56852W        W21837  32.444  30.428  13.364
56853W        W21838  36.548  39.823   2.813
56854W        W21839  37.598  29.219   2.685
56855W        W21840  11.587  23.410  11.475
56856W        W21841  32.139   9.840  12.005
56857W        W21842  19.275  26.115   4.557
56858W        W21843  10.281   9.553  12.500
56859W        W21844   0.834  37.362   0.638
56860W        W21845  23.733  23.085  13.733
56861W        W21846   0.688  36.349  12.919
56862W        W21847  41.355  36.208   4.384
56863W        W21848   4.645   7.318  13.091
56864W        W21849  41.992  32.379   1.266
56865W        W21850  41.821  29.881  14.046
56866W        W21851  12.332  20.818   3.833
56867W        W21852   2.716  42.057  12.102
56868W        W21853  35.756  11.268   2.955
56869W        W21854  16.771   4.947   3.588
56870W        W21855  22.748  22.046  11.213
56871W        W21856  32.010  35.717   1.317
56872W        W21857  25.623   3.300  13.752
56873W        W21858  19.520   5.437  11.483
56874W        W21859   4.649  28.575   2.125
56875W        W21860  34.449  23.207   2.687
56876W        W21861  13.618  35.748   3.758
56877W        W21862  24.190  19.983  11.788
56878W        W21863  24.196   2.778  10.618
56879W        W21864  38.947  24.523  12.377
56880W        W21865  28.582  24.969   1.186
56881W        W21866  32.569  39.547  13.098
56882W        W21867  38.365  29.006   0.609
56883W        W21868  35.901   3.839  10.763
56884W        W21869  22.714  23.967   0.524
56885W        W21870  35.642  40.331  13.079
56886W        W21871  12.278  31.739   0.905
56887W        W21872  40.716   8.939   3.554
56888W        W21873  37.625  21.442  14.242
56889W        W21874  27.395  27.480  11.890
56890W        W21875   4.732  33.052  10.717
56891W        W21876   2.541  29.837  14.068
56892W        W21877  11.390  31.722  12.928
56893W        W21878   6.946  36.955   3.466
56894W        W21879  43.194  28.930   0.295
56895W        W21880   6.221   9.106  13.501
56896W        W21881  21.372  14.802  14.870
56897W        W21882  31.530  36.051  13.827
56898W        W21883  40.847  23.174  14.313
56899W        W21884  23.445  26.657   0.271
56900W        W21885  21.673  29.602  13.892
56901W        W21886   8.434  11.802   2.269
56902W        W21887  25.600  33.616   4.119
56903W        W21888  13.319   3.141  12.842
56904W        W21889  43.472  34.129   2.755
56905W        W21890  43.739  32.647   1.404
56906W        W21891  17.762   4.570   4.334
56907W        W21892  39.462  23.044  14.800
56908W        W21893  37.088   6.144   3.136
56909W        W21894  42.250  30.329  10.761
56910W        W21895  15.719   9.152  13.355
56911W        W21896  19.748  34.091   4.134
56912W        W21897  42.250  16.271   1.376
56913W        W21898  41.627  26.863   3.094
56914W        W21899  37.878  11.294  10.189
56915W        W21900  21.698  27.839   0.075
56916W        W21901   8.296  38.514   3.155
56917W        W21902  33.834  40.816   2.716
56918W        W21903  37.304   2.550  11.529
56919W        W21904   9.506  17.116   3.235
56920W        W21905  12.250  11.406   3.155
56921W        W21906   6.914   2.431  12.610
56922W        W21907  41.081  17.539  14.844
56923W        W21908  24.569  27.027   0.963
56924W        W21909  25.182  43.504  13.158
56925W        W21910   0.858  42.808  12.140
56926W        W21911  34.166  29.524   4.148
56927W        W21912   4.184   9.797  14.912
56928W        W21913  16.138  26.519  13.879
56929W        W21914  26.531  27.885   4.207
56930W        W21915  35.603  33.962  11.703
56931W        W21916  26.203  26.326   0.456
56932W        W21917  24.191  32.404   0.205
56933W        W21918   4.708  23.109  12.014
56934W        W21919   3.538  38.992  13.915
56935W        W21920  41.979  43.928  13.542
56936W        W21921   9.409   0.080   2.734
56937W        W21922  22.125  25.187   1.726
56938W        W21923  38.789  14.624   4.915
56939W        W21924   4.511  21.528  13.417
56940W        W21925  10.787  29.088   2.743
56941W        W21926  17.510  44.767   1.232
56942W        W21927  34.794  28.519   3.596
56943W        W21928  37.384   4.197   0.207
56944W        W21929  10.703   4.560   0.998
56945W        W21930   1.256   1.512  10.768
56946W        W21931  34.153  31.867   3.175
56947W        W21932   0.607   4.672   3.685
56948W        W21933   8.890   8.183  11.981
56949W        W21934  33.989  22.989   3.060
56950W        W21935  43.478  33.422   3.672
56951W        W21936  16.806  20.594   3.018
56952W        W21937   2.569  25.008  13.358
56953W        W21938  27.486   3.944  11.047
56954W        W21939  40.940  42.771   1.493
56955W        W21940  42.874  37.898   0.848
56956W        W21941   6.284  40.241  12.929
56957W        W21942   2.493  32.291   0.424
56958W        W21943  31.306  44.267   0.383
56959W        W21944  26.960  38.824  13.150
56960W        W21945  11.344   7.255   3.937
56961W        W21946   9.417  27.918   2.464
56962W        W21947  10.318  26.040   3.568
56963W        W21948  26.176  12.249   2.802
56964W        W21949  16.273  32.425  10.451
56965W        W21950  41.612  39.499  11.459
56966W        W21951  37.947   1.058  14.345
56967W        W21952  20.486  20.263   4.910
56968W        W21953   7.221  43.475   4.276
56969W        W21954  33.922  20.855  12.423
56970W        W21955   5.329  32.134   3.732
56971W        W21956  28.955  37.250  12.386
56972W        W21957  30.954   7.733  14.384
56973W        W21958  25.490   9.835   4.805
56974W        W21959  32.545  29.156  14.020
56975W        W21960  30.117  21.927  11.178
56976W        W21961   2.457  28.623  12.698
56977W        W21962  11.890  40.105   1.930
56978W        W21963  44.398  17.647   1.178
56979W        W21964  23.244  28.437  13.071
56980W        W21965   1.123  31.504  11.043
56981W        W21966  26.473  24.546  13.878
56982W        W21967   2.461   9.117   0.779
56983W        W21968  36.626   2.452   2.621
56984W        W21969  16.645  32.156   1.197
56985W        W21970  11.290  36.996  13.826
56986W        W21971  22.556  24.156  14.922
56987W        W21972  22.772   2.288  10.889
56988W        W21973  26.185  29.055   4.989
56989W        W21974  40.712  41.478   3.318
56990W        W21975  39.552  17.673   1.302
56991W        W21976  24.399  18.567   1.662
56992W        W21977  29.500  26.578  13.300
56993W        W21978   3.659   5.040  12.945
56994W        W21979   4.536  24.736   4.670
56995W        W21980  25.489  41.031   3.086
56996W        W21981  18.121  25.661   1.685
56997W        W21982  34.086  15.927   1.441
56998W        W21983  39.788  39.815  11.114
56999W        W21984  15.610  22.801  11.059
57000W        W21985  18.304  29.511  12.128
57001W        W21986  41.249  17.509   1.042
57002W        W21987  37.289   3.998  10.559
57003W        W21988  16.543  27.546  12.447
57004W        W21989  12.786  16.196   0.767
57005W        W21990  41.936  41.949   3.182
57006W        W21991   1.617  27.523   2.787
57007W        W21992   5.372  35.527   0.864
57008W        W21993  11.284   6.947  13.104
57009W        W21994   3.028  38.708  14.777
57010W        W21995  22.052  43.797   1.205
57011W        W21996  24.249  11.838  14.060
57012W        W21997  28.611  23.642   0.752
57013W        W21998  37.606  29.997   3.737
57014W        W21999  26.454   3.259   1.937
57015W        W22000   1.002  25.934   0.443
57016W        W22001  41.504   8.488  13.882
57017W        W22002   3.076   9.633   4.511
57018W        W22003  19.898   4.744   4.995
57019W        W22004   5.765  16.829  11.661
57020W        W22005  22.141  26.445   4.197
57021W        W22006  18.237  11.262   2.160
57022W        W22007  37.069  31.569  10.697
57023W        W22008  11.841  23.154   4.043
57024W        W22009  10.223  33.610   4.958
57025W        W22010  15.128  36.534  11.612
57026W        W22011  40.224  34.865  13.406
57027W        W22012  34.399   1.869  10.655
57028W        W22013   8.600  12.072  13.923
57029W        W22014  39.019  39.953  14.260
57030W        W22015  15.932  25.600   5.389
57031W        W22016  43.549   6.300   2.318
57032W        W22017  18.738  12.891  14.000
57033W        W22018   6.387  43.288   1.118
57034W        W22019   0.432  20.842  14.446
57035W        W22020  34.419  10.472   5.357
57036W        W22021   0.010  14.236   4.087
57037W        W22022  29.840  15.795  12.534
57038W        W22023   8.541  22.441  13.966
57039W        W22024  21.929  35.548  12.776
57040W        W22025  41.141  18.638   4.923
57041W        W22026  32.447  30.688  11.170
57042W        W22027  20.890  31.115  12.319
57043W        W22028  29.300  20.971  11.755
57044W        W22029  34.794   7.382  11.469
57045W        W22030   9.201  16.685   3.286
57046W        W22031  25.710  41.826   4.787
57047W        W22032  23.477  17.507  14.972
57048W        W22033  27.198   8.183   0.085
57049W        W22034  29.581  31.166  12.835
57050W        W22035  28.004  28.046  11.680
57051W        W22036  26.696  42.926   0.202
57052W        W22037  15.884  11.841   4.583
57053W        W22038  28.489  32.065  13.845
57054W        W22039  10.338   7.161   3.102
57055W        W22040   9.479  21.269  12.341
57056W        W22041  17.482  25.221   3.328
57057W        W22042   8.650   1.774  10.663
57058W        W22043  42.466  41.067   2.232
57059W        W22044   7.791  43.432   3.172
57060W        W22045  39.097  18.712  13.923
57061W        W22046  27.527   9.313  14.059
57062W        W22047  26.581   1.663  14.856
57063W        W22048  42.114  29.012  11.152
57064W        W22049  41.511  25.635  12.436
57065W        W22050  20.455  18.534   0.958
57066W        W22051  17.950  19.766   2.797
57067W        W22052   9.370   0.178  11.085
57068W        W22053  42.617  13.765   1.496
57069W        W22054  20.672   4.423  11.864
57070W        W22055  18.572  33.640  10.668
57071W        W22056  22.432   0.875   0.011
57072W        W22057  38.266  20.024  12.451
57073W        W22058   5.207  16.845  11.291
57074W        W22059  16.708  20.499  10.831
57075W        W22060  20.049  15.574  14.475
57076W        W22061  31.950  32.541   2.918
57077W        W22062   1.274   8.145  14.550
57078W        W22063   6.843   0.327   0.991
57079W        W22064  38.480  15.315  10.187
57080W        W22065  29.445  41.894   3.739
57081W        W22066  33.667  31.405   0.008
57082W        W22067  33.265  44.910   4.050
57083W        W22068  42.756   6.656   3.283
57084W        W22069  17.243  40.373   2.342
57085W        W22070   8.408  32.857  14.785
57086W        W22071  15.231  17.345   2.848
57087W        W22072  42.945  38.693  11.492
57088W        W22073  37.761  18.641   2.724
57089W        W22074  32.673  27.871   2.756
57090W        W22075  22.503  39.690   0.882
57091W        W22076  19.767  28.159   4.925
57092W        W22077   1.599  19.729  11.049
57093W        W22078  12.872  31.904  11.037
57094W        W22079   5.376  41.746  10.968
57095W        W22080  37.815  33.891  14.809
57096W        W22081  43.273  41.524   1.693
57097W        W22082  37.796  23.086  12.892
57098W        W22083  28.656  35.399  14.747
57099W        W22084   3.447   0.193  12.900
57100W        W22085  32.480  15.257   4.728
57101W        W22086  12.519  30.033   1.294
57102W        W22087  27.534   5.136  14.774
57103W        W22088  40.290  28.216   2.297
57104W        W22089  35.410  20.125   0.489
57105W        W22090  37.949  24.926   0.266
57106W        W22091   5.146  39.304   3.523
57107W        W22092  32.155   6.782  12.517
57108W        W22093  39.387  39.976   1.415
57109W        W22094  26.551  38.085   4.601
57110W        W22095  13.835  30.394   0.204
57111W        W22096  33.686  14.226  12.167
57112W        W22097   0.740  17.140   0.894
57113W        W22098  20.786  23.579   3.675
57114W        W22099  42.745  17.755   0.118
57115W        W22100  41.208  23.075  13.593
57116W        W22101   3.451  18.762   0.366
57117W        W22102   8.344   4.829  12.596
57118W        W22103   3.913  20.138  13.278
57119W        W22104  12.341   3.323   4.110
57120W        W22105   0.891   3.093   1.885
57121W        W22106  24.651   5.881  14.910
57122W        W22107  27.228   5.308  14.393
57123W        W22108  37.494  12.578   4.898
57124W        W22109  15.316   8.591  12.563
57125W        W22110  40.075  31.575  14.864
57126W        W22111  34.053   7.361  13.459
57127W        W22112  34.361   5.453   0.339
57128W        W22113  38.477  15.252  10.694
57129W        W22114  17.015  32.522   3.661
57130W        W22115  21.216   1.269  13.952
57131W        W22116  37.054  30.928  11.101
57132W        W22117  43.985  15.808  12.930
57133W        W22118  41.851  30.002  11.110
57134W        W22119   1.983   2.897   0.937
57135W        W22120  13.072  30.911  14.708
57136W        W22121  37.770  12.772  12.065
57137W        W22122  21.722  18.096  10.768
57138W        W22123  23.253   0.878  12.877
57139W        W22124  39.013  26.244  13.340
57140W        W22125   5.142  12.721   2.928
57141W        W22126  44.765  15.873  13.415
57142W        W22127   7.636  22.570  11.005
57143W        W22128  14.626  31.510   0.468
57144W        W22129  42.658  38.972   5.437
57145W        W22130  26.933  12.144  13.421
57146W        W22131  20.264  17.466   3.003
57147W        W22132  17.216   3.415  14.693
57148W        W22133  40.581  44.594   2.432
57149W        W22134  32.420  30.888   0.942
57150W        W22135  14.596  37.947  12.485
57151W        W22136  39.861  23.792   3.987
57152W        W22137   4.201  27.050   3.843
57153W        W22138  12.659  13.771  14.551
57154W        W22139  40.739  34.778  13.309
57155W        W22140  29.188  40.488   3.919
57156W        W22141  15.426   7.747   1.013
57157W        W22142  37.311   6.906   0.409
57158W        W22143  11.387  39.533   0.923
57159W        W22144   1.220  24.058   4.000
57160W        W22145  20.639   7.371   4.557
57161W        W22146   0.061  10.584   2.181
57162W        W22147  10.842  23.533   0.015
57163W        W22148  23.679  17.850   3.932
57164W        W22149  15.282  26.220   2.206
57165W        W22150   3.881  11.821   3.799
57166W        W22151  21.668  10.329   1.874
57167W        W22152  17.162  17.523  12.576
57168W        W22153  31.193  42.032   2.225
57169W        W22154   2.638  40.372  13.586
57170W        W22155  28.395  22.312   1.052
57171W        W22156  43.945  24.530   1.619
57172W        W22157  10.531  39.340   0.871
57173W        W22158  32.954   8.386  12.558
57174W        W22159   3.528  32.856  14.911
57175W        W22160   1.207  12.778   0.970
57176W        W22161  34.279  23.731  14.436
57177W        W22162  38.577  13.647   4.664
57178W        W22163  14.348  29.048  14.012
57179W        W22164  35.451   9.332   3.480
57180W        W22165   8.498  43.616  14.982
57181W        W22166   5.417   1.916   4.129
57182W        W22167  36.106  16.372   0.001
57183W        W22168  38.400   9.698   0.794
57184W        W22169  26.217   3.415   3.181
57185W        W22170   4.335  13.587   2.210
57186W        W22171  12.532  11.075   1.484
57187W        W22172  15.546  15.560  13.031
57188W        W22173  19.853  42.883  14.292
57189W        W22174  42.506  11.983  11.074
57190W        W22175  39.002  44.515  13.696
57191W        W22176  10.838  20.555   4.022
57192W        W22177  21.555  26.232  12.036
57193W        W22178  12.799   8.337  11.688
57194W        W22179  43.917   1.801  13.802
57195W        W22180  42.084  23.214   0.912
57196W        W22181  37.569  19.767  13.136
57197W        W22182  24.790  39.077  11.998
57198W        W22183  10.864  25.672   2.083
57199W        W22184  36.972  20.723   1.688
57200W        W22185   7.454  11.162   1.533
57201W        W22186  33.297   4.375  12.751
57202W        W22187   6.892  41.985   3.190
57203W        W22188  16.717  15.382   4.130
57204W        W22189  30.060   2.707  10.248
57205W        W22190  39.245  27.093  11.002
57206W        W22191  43.273  35.579   0.842
57207W        W22192   4.897  13.577  11.031
57208W        W22193   3.283  19.661  14.887
57209W        W22194  28.058  29.753   0.723
57210W        W22195  37.896  34.422   2.140
57211W        W22196  28.355  12.683   4.176
57212W        W22197  14.603  18.572  14.763
57213W        W22198   9.607  29.281   2.657
57214W        W22199   0.189   8.332   4.250
57215W        W22200  17.636  36.349  11.251
57216W        W22201  23.692   6.130   4.749
57217W        W22202  23.120  29.174   4.101
57218W        W22203  38.289   8.803   3.656
57219W        W22204  14.352  33.094   0.366
57220W        W22205   1.575  44.613  12.165
57221W        W22206   0.964  13.118  10.537
57222W        W22207  10.175   2.871  10.344
57223W        W22208   6.348  17.624  10.392
57224W        W22209  36.645   2.289   3.179
57225W        W22210  20.026  14.588   0.476
57226W        W22211  12.212  12.284  11.206
57227W        W22212  16.076  17.073  14.005
57228W        W22213  43.745  21.111  12.106
57229W        W22214  23.543  27.623   2.176
57230W        W22215  22.104  26.444   1.370
57231W        W22216  26.741  18.817   0.285
57232W        W22217  23.160  40.410   2.381
57233W        W22218  40.306  40.066  13.884
57234W        W22219  14.753  29.035  12.108
57235W        W22220   1.456  43.586   0.003
57236W        W22221   1.934   0.657   1.729
57237W        W22222  23.768  24.435  10.772
57238W        W22223  38.823  33.550   2.311
57239W        W22224  12.778   9.116  10.670
57240W        W22225  18.156  10.624  12.243
57241W        W22226  20.506  40.063   0.925
57242W        W22227  25.747   6.000   4.187
57243W        W22228  19.647  39.878   0.561
57244W        W22229  44.685  18.078  12.983
57245W        W22230  29.823  42.907  14.437
57246W        W22231  34.707   1.085   1.524
57247W        W22232  21.658   9.607  11.191
57248W        W22233   9.711   9.661   1.428
57249W        W22234  17.763  27.560   1.888
57250W        W22235  18.175  29.126   3.752
57251W        W22236  20.748  14.534   1.692
57252W        W22237  10.287  10.334  13.799
57253W        W22238  18.730  12.583   4.497
57254W        W22239  42.585  30.184  14.320
57255W        W22240   3.001   6.160   3.809
57256W        W22241  18.254  30.720   1.820
57257W        W22242  27.519  29.726   1.832
57258W        W22243  17.231  26.084   2.339
57259W        W22244  11.961  13.700  12.562
57260W        W22245   3.329  37.036   1.999
57261W        W22246  33.036  37.140  14.691
57262W        W22247  40.018   1.041  11.172
57263W        W22248   1.557  16.598  13.778
57264W        W22249  24.571  18.060   2.380
57265W        W22250  27.142  15.187  11.105
57266W        W22251  19.204  42.866   3.800
57267W        W22252  40.350  41.989   5.053
57268W        W22253   1.196  42.678   3.661
57269W        W22254  28.677   5.700   0.001
57270W        W22255   1.245  27.518   1.658
57271W        W22256   3.402  30.594  11.997
57272W        W22257   3.039  17.397   1.031
57273W        W22258  25.645  11.429  14.061
57274W        W22259  10.304   4.348  14.750
57275W        W22260  43.949  28.487   1.706
57276W        W22261   4.317   2.092   0.178
57277W        W22262  10.146   7.811   0.894
57278W        W22263   6.768  19.554   4.729
57279W        W22264  23.217  41.772   2.157
57280W        W22265  38.994  30.120   2.277
57281W        W22266  11.809  37.886  14.603
57282W        W22267  14.752  30.985  14.882
57283W        W22268  42.229  22.220  11.992
57284W        W22269  13.328  42.886   5.166
57285W        W22270  40.697   0.794   2.829
57286W        W22271  20.522  25.475  11.042
57287W        W22272   1.724  41.431  11.496
57288W        W22273  17.394  31.992  13.948
57289W        W22274   2.962  34.057   2.657
57290W        W22275  36.876   3.660  13.833
57291W        W22276  21.255  36.887  10.735
57292W        W22277  15.642   4.890  12.936
57293W        W22278  41.555  10.592   5.071
57294W        W22279   6.437  41.614  14.468
57295W        W22280  16.093  37.994  14.412
57296W        W22281  36.319  25.710   1.696
57297W        W22282  41.463   9.936  12.049
57298W        W22283  16.850  13.172   1.811
57299W        W22284  13.102  16.745  14.477
57300W        W22285  10.698  14.775  13.956
57301W        W22286  44.313  19.532  14.418
57302W        W22287  40.028  30.429   2.916
57303W        W22288   3.653  43.101  12.843
57304W        W22289   8.916   4.768  10.975
57305W        W22290  34.874  35.956   0.961
57306W        W22291   2.832  12.396   1.912
57307W        W22292   0.970  43.372  14.946
57308W        W22293  40.547   9.318  11.595
57309W        W22294  11.395  20.880  13.072
57310W        W22295  20.377  21.486   2.703
57311W        W22296  37.556   0.050  13.801
57312W        W22297  10.031   8.510  13.493
57313W        W22298  42.949  27.409   2.178
57314W        W22299  35.779   4.791  12.000
57315W        W22300  32.042   6.805   3.754
57316W        W22301  12.174  17.623  13.297
57317W        W22302   0.811  15.038  12.004
57318W        W22303   7.056   7.230   1.217
57319W        W22304  27.126   5.226  10.680
57320W        W22305  32.118  14.907   0.521
57321W        W22306  33.537  40.637  14.334
57322W        W22307   8.917   9.106   4.835
57323W        W22308   3.792  38.553   4.040
57324W        W22309  36.901   8.828   9.759
57325W        W22310  33.398  14.291  14.558
57326W        W22311  20.731  26.209   2.830
57327W        W22312  34.066  20.083  10.813
57328W        W22313  40.898  11.753   2.647
57329W        W22314  10.582  38.009   2.272
57330W        W22315  20.648  36.343   3.160
57331W        W22316  33.657  10.003  12.943
57332W        W22317  26.058  26.977  12.082
57333W        W22318  38.107   6.463  14.866
57334W        W22319   8.577  32.829   3.259
57335W        W22320  22.662   2.400  13.398
57336W        W22321  37.701  35.553  11.091
57337W        W22322   8.371  19.152  10.576
57338W        W22323  30.692   0.749  12.325
57339W        W22324   3.957  12.991   2.585
57340W        W22325  42.669  10.552   3.086
57341W        W22326  17.772   0.908   2.933
57342W        W22327  24.607  16.686   2.584
57343W        W22328  24.978  44.267  14.293
57344W        W22329  31.075  31.165  13.564
57345W        W22330  34.120  25.244   4.203
57346W        W22331   3.055  13.655   1.372
57347W        W22332  24.418  13.829   0.615
57348W        W22333  13.356  10.162  13.403
57349W        W22334   2.348  15.173   1.270
57350W        W22335  41.030  26.388   4.575
57351W        W22336  37.415  24.175  13.323
57352W        W22337  43.846   9.727   0.397
57353W        W22338  16.282   4.109   4.835
57354W        W22339  24.771  13.258   4.940
57355W        W22340  43.402   1.339  11.530
57356W        W22341  27.487  32.648  12.177
57357W        W22342   5.269  34.805   1.968
57358W        W22343  29.611  32.067   1.972
57359W        W22344  28.691  37.381  11.977
57360W        W22345   5.452  29.871   1.377
57361W        W22346  17.127  31.383   1.757
57362W        W22347  17.636   1.432  12.966
57363W        W22348  25.448   3.782  13.747
57364W        W22349   4.608  10.300  11.615
57365W        W22350  28.755  32.861  13.503
57366W        W22351   2.868  33.517   1.243
57367W        W22352   0.799  13.057   3.239
57368W        W22353  16.248   7.714   3.258
57369W        W22354  18.754  36.545   2.711
57370W        W22355  21.998  30.274  11.738
57371W        W22356  29.175  29.682   2.364
57372W        W22357  34.852   2.754  11.601
57373W        W22358  35.918   6.921  10.927
57374W        W22359  43.508  39.001   4.451
57375W        W22360  34.252   6.387   2.260
57376W        W22361  22.250  10.197  11.244
57377W        W22362   1.420  16.072   0.584
57378W        W22363  24.250   4.908  13.229
57379W        W22364  44.105  39.341  14.786
57380W        W22365  43.579  30.771   1.764
57381W        W22366  34.911  27.900   2.969
57382W        W22367  34.343  21.846  14.150
57383W        W22368  43.855   9.509  12.426
57384W        W22369  35.363   5.237  13.811
57385W        W22370  40.500  41.826  11.183
57386W        W22371  43.298  18.780   1.192
57387W        W22372  27.166   4.954   3.849
57388W        W22373  39.827   7.313   3.782
57389W        W22374  15.345   1.361  12.555
57390W        W22375   9.712  29.126   4.243
57391W        W22376  20.026   8.938  14.420
57392W        W22377  21.680  36.806  13.431
57393W        W22378  25.448   8.395  10.616
57394W        W22379  27.055  44.897   4.097
57395W        W22380  42.542  40.709  14.064
57396W        W22381  16.902   2.681  14.760
57397W        W22382  14.407   2.949  12.423
57398W        W22383  33.683   2.456   1.725
57399W        W22384  21.098  29.725   1.428
57400W        W22385   4.263  16.388   1.458
57401W        W22386  27.924  15.587  10.918
57402W        W22387   3.671  29.643   1.382
57403W        W22388  26.724  40.730   1.063
57404W        W22389  15.635  25.256   4.399
57405W        W22390  32.394  20.553   4.830
57406W        W22391  27.987   3.889  14.485
57407W        W22392   0.305  37.076  10.097
57408W        W22393   4.862  26.049  12.555
57409W        W22394  44.915  39.292   2.987
57410W        W22395   9.710  18.241   2.751
57411W        W22396  23.959  32.457  10.698
57412W        W22397  41.741  29.040   2.680
57413W        W22398  17.169  24.533  14.539
57414W        W22399  42.668  32.295  14.399
57415W        W22400  13.839  42.966  13.381
57416W        W22401  20.270  17.222  11.575
57417W        W22402  39.484  34.918  12.539
57418W        W22403  29.973  39.386   2.232
57419W        W22404  30.999  32.150   0.886
57420W        W22405   0.356  21.734  14.503
57421W        W22406  10.740  40.098   4.475
57422W        W22407  37.901  23.991  13.253
57423W        W22408   6.879  39.539  10.401
57424W        W22409  25.544  44.901  14.011
57425W        W22410   1.969  22.773  12.933
57426W        W22411  17.267  44.776  12.563
57427W        W22412   1.488  32.455  12.001
57428W        W22413  44.259  28.104  10.785
57429W        W22414   1.653  44.774   2.199
57430W        W22415  40.701  19.176  14.397
57431W        W22416  17.074  29.129  14.370
57432W        W22417  33.092  32.427  13.022
57433W        W22418   0.893  34.653  12.565
57434W        W22419  22.990  28.935   2.343
57435W        W22420  27.214  15.049   5.070
57436W        W22421   8.145  43.493  11.451
57437W        W22422  20.989  20.297   5.538
57438W        W22423  17.726   9.430   4.432
57439W        W22424  37.012   6.796   1.428
57440W        W22425  18.764  29.009  10.709
57441W        W22426  43.027  29.554  13.433
57442W        W22427  11.815  16.478  10.722
57443W        W22428   7.382  38.411   1.475
57444W        W22429   4.849  29.460   3.668
57445W        W22430  27.654  11.145  14.347
57446W        W22431   2.811  33.183  11.998
57447W        W22432  12.133  19.749  12.561
57448W        W22433  40.605  18.743   0.754
57449W        W22434   6.201  44.531   3.613
57450W        W22435  13.873  25.109  12.062
57451W        W22436   1.759  13.280   3.591
57452W        W22437  25.105  26.201  14.828
57453W        W22438  22.532  12.278   1.857
57454W        W22439   1.309  13.030   4.808
57455W        W22440  31.427   5.804  12.891
57456W        W22441   1.000  33.794  11.130
57457W        W22442  36.077  19.657   4.167
57458W        W22443  38.883  33.170   3.227
57459W        W22444  33.920  21.132  14.343
57460W        W22445   4.831  38.269  12.529
57461W        W22446  10.337  38.936  11.478
57462W        W22447  37.652   6.006   0.444
57463W        W22448   7.662  29.456  12.238
57464W        W22449  23.713   6.339  11.915
57465W        W22450  17.500   5.414   3.412
57466W        W22451   8.703  20.627  11.080
57467W        W22452   8.866  23.312  10.931
57468W        W22453  14.773  43.117   3.351
57469W        W22454  10.454  34.995   4.726
57470W        W22455   8.662  16.295   2.676
57471W        W22456  28.996  36.394   0.379
57472W        W22457  40.010   1.241  14.760
57473W        W22458  36.778  16.946  12.994
57474W        W22459  35.568  42.092   2.369
57475W        W22460  35.156  17.765  10.696
57476W        W22461   8.927   4.194  11.193
57477W        W22462   1.163  23.262  14.850
57478W        W22463  42.063  38.909  13.883
57479W        W22464  35.652  19.733   3.367
57480W        W22465  20.823  41.334  14.393
57481W        W22466  20.512   5.646  14.507
57482W        W22467   6.390  24.248   2.716
57483W        W22468  22.720  19.117   2.655
57484W        W22469  37.918   3.832  14.148
57485W        W22470  35.880  35.870  11.724
57486W        W22471  37.433  28.975  13.996
57487W        W22472   0.973  44.969   3.814
57488W        W22473  25.378  11.429  11.940
57489W        W22474   4.870  17.781   1.869
57490W        W22475  24.567  32.605  13.941
57491W        W22476  24.549   7.486   1.109
57492W        W22477   6.337  29.563  11.432
57493W        W22478  19.175  12.471   3.360
57494W        W22479  15.087   0.972   4.278
57495W        W22480   6.408  13.209   0.514
57496W        W22481   4.241  37.600  13.664
57497W        W22482  19.551  18.392   0.800
57498W        W22483  27.619   9.795  13.362
57499W        W22484   1.223  24.647  13.929
57500W        W22485   2.719  23.275   3.211
57501W        W22486  42.269  11.682   4.498
57502W        W22487  24.671   5.445   1.850
57503W        W22488  41.698  33.483  10.236
57504W        W22489  35.960  26.910   1.432
57505W        W22490  29.483  44.392   4.850
57506W        W22491  11.743  16.220  12.022
57507W        W22492   5.298  21.831  10.497
57508W        W22493   5.937  41.600  11.057
57509W        W22494   3.704  40.058  14.870
57510W        W22495  15.851  39.771  11.633
57511W        W22496  18.081  17.814  14.334
57512W        W22497  43.083  39.588  14.058
57513W        W22498   0.866  35.088  12.897
57514W        W22499  42.854  24.551  13.543
57515W        W22500  39.542  15.699  14.468
57516W        W22501  18.246  14.757  13.064
57517W        W22502  37.956   1.189  10.715
57518W        W22503  13.405  35.481  14.908
57519W        W22504  36.010  43.209  12.555
57520W        W22505   8.633  26.052   1.870
57521W        W22506  12.423  12.281   1.410
57522W        W22507  25.691  24.504   2.748
57523W        W22508  27.123  41.981  13.435
57524W        W22509  37.934  37.774  10.967
57525W        W22510  18.204  28.961  14.938
57526W        W22511  11.605  42.392  12.955
57527W        W22512  14.946  15.054  10.757
57528W        W22513  21.098  22.810   1.287
57529W        W22514  22.770  22.031   1.652
57530W        W22515   4.778  27.393  10.981
57531W        W22516   1.288  13.856  12.091
57532W        W22517  44.484  36.168   5.014
57533W        W22518  10.663   7.156   1.368
57534W        W22519  30.040  14.813   3.727
57535W        W22520  21.744  31.895   2.788
57536W        W22521   3.759  24.248   0.881
57537W        W22522  19.260  18.731   2.787
57538W        W22523  15.356   5.309  12.997
57539W        W22524   6.057  15.220  11.097
57540W        W22525  11.638  25.694   1.386
57541W        W22526  24.336  14.408  12.479
57542W        W22527  17.197  30.728   5.103
57543W        W22528  37.498  21.527  10.710
57544W        W22529  23.729  32.849  11.641
57545W        W22530  38.953  12.659   4.681
57546W        W22531  41.146  35.106  13.427
57547W        W22532  12.646   6.273   2.154
57548W        W22533  26.918  43.833   0.333
57549W        W22534  17.113  17.541   1.590
57550W        W22535  39.120  39.245  14.690
57551W        W22536  22.284  19.153   0.744
57552W        W22537  39.198  42.604  14.701
57553W        W22538  14.307  24.388  13.336
57554W        W22539  34.560  11.744  13.353
57555W        W22540   7.667   7.878  10.683
57556W        W22541  29.247  31.071  13.591
57557W        W22542  17.168  44.391   4.454
57558W        W22543  27.637   3.063   4.634
57559W        W22544  39.585  13.170   4.461
57560W        W22545  18.560  10.221   1.486
57561W        W22546  41.760  41.771  12.540
57562W        W22547  17.276   2.182   0.521
57563W        W22548   0.847  11.564  11.898
57564W        W22549   3.556  19.473  11.001
57565W        W22550   5.993  36.407  13.898
57566W        W22551  37.606  10.797   2.650
57567W        W22552  25.125  25.682   0.906
57568W        W22553   9.629  22.521   2.264
57569W        W22554  25.186  38.439   2.252
57570W        W22555  29.041  42.808  11.143
57571W        W22556  15.025  20.167  13.968
57572W        W22557  13.635  24.201   4.080
57573W        W22558  16.300  15.713   0.305
57574W        W22559  16.534   8.413   5.012
57575W        W22560  19.654   7.587  12.175
57576W        W22561  26.243  33.015   2.217
57577W        W22562  39.090  29.643  11.184
57578W        W22563  11.180   4.891   9.959
57579W        W22564   5.693  16.911  13.502
57580W        W22565  34.933  13.335  14.387
57581W        W22566   8.708  25.567  10.534
57582W        W22567  29.331  13.168  13.252
57583W        W22568  18.942  22.854   5.002
57584W        W22569  21.023  37.081  13.604
57585W        W22570  10.749  39.016   4.585
57586W        W22571  22.387  18.419  11.593
57587W        W22572  28.640  37.532  10.614
57588W        W22573  42.041  20.190   2.249
57589W        W22574  19.064  23.411  13.471
57590W        W22575   6.880  23.254  13.063
57591W        W22576  35.718  19.277  14.171
57592W        W22577   8.236   5.718   2.729
57593W        W22578   3.604  11.698   1.401
57594W        W22579  19.094  12.885  11.832
57595W        W22580  29.617  26.076  13.705
57596W        W22581  29.180  22.836  13.965
57597W        W22582  41.074  37.412   0.630
57598W        W22583  16.044  42.316  11.641
57599W        W22584  25.756  24.320  11.190
57600W        W22585  32.404  30.352  10.767
57601W        W22586  10.645  16.979  13.848
57602W        W22587  28.762  12.263   0.550
57603W        W22588  33.375  14.793  12.435
57604W        W22589   6.950  31.892   0.280
57605W        W22590  30.651  30.828  11.907
57606W        W22591  12.268  26.713   4.143
57607W        W22592   3.612  20.537  13.400
57608W        W22593  34.386  19.719   2.615
57609W        W22594  37.763  12.579   2.274
57610W        W22595  21.825  40.942  11.548
57611W        W22596  10.235  16.585  13.117
57612W        W22597   4.891   0.431   3.298
57613W        W22598  35.206  11.687   2.197
57614W        W22599  27.703  33.850   2.726
57615W        W22600  33.548  42.090  11.087
57616W        W22601  23.766   0.489  10.991
57617W        W22602  42.353  44.727  14.597
57618W        W22603  25.565  34.035  12.626
57619W        W22604  21.521  22.016  14.253
57620W        W22605  17.557  12.860  14.406
57621W        W22606  42.923  18.470   4.545
57622W        W22607  11.123  27.082   2.806
57623W        W22608  11.359   6.563  12.673
57624W        W22609   7.257  23.053  10.470
57625W        W22610  37.956  30.870   5.014
57626W        W22611  22.140  42.231   1.186
57627W        W22612  28.639  10.381   1.717
57628W        W22613  27.861  30.649  12.342
57629W        W22614  39.372  31.568   2.801
57630W        W22615  27.977  31.503  11.956
57631W        W22616  15.570  36.411   4.489
57632W        W22617   2.963  11.415  13.508
57633W        W22618  42.122  33.130  12.484
57634W        W22619  22.578  42.839  10.975
57635W        W22620  31.150  14.546  14.090
57636W        W22621  44.408  23.197  14.758
57637W        W22622  18.674  15.980  12.192
57638W        W22623  11.052  32.581   3.785
57639W        W22624  43.454  40.437  12.013
57640W        W22625  29.562  44.515  12.001
57641W        W22626  33.192  24.622  13.396
57642W        W22627  10.216   0.780  10.561
57643W        W22628  34.980  13.290   1.683
57644W        W22629   2.892   1.884   1.533
57645W        W22630  26.061  39.287   4.493
57646W        W22631  17.237  16.066  13.075
57647W        W22632  16.620  26.013  10.609
57648W        W22633  40.995  33.885   1.921
57649W        W22634  26.064  13.306   1.853
57650W        W22635  27.982   6.701   3.189
57651W        W22636  33.382  16.858  10.449
57652W        W22637  20.799  27.830  14.046
57653W        W22638  27.197   9.038   4.997
57654W        W22639  28.065  21.173  11.213
57655W        W22640  20.481  10.781  11.619
57656W        W22641  25.357  32.389  11.653
57657W        W22642  25.581  27.178  12.118
57658W        W22643  35.057   3.876  12.039
57659W        W22644  15.134   2.716  13.329
57660W        W22645  22.460  36.871  11.710
57661W        W22646  34.873  17.529  13.599
57662W        W22647  11.865  11.227   4.072
57663W        W22648  13.340   1.389   0.666
57664W        W22649  35.472  22.516   2.833
57665W        W22650  37.805   2.798  14.441
57666W        W22651  38.000  36.860  11.214
57667W        W22652  17.046  13.884  10.665
57668W        W22653   5.308  27.158   3.234
57669W        W22654  35.169  32.248   3.227
57670W        W22655  36.141  25.274   5.104
57671W        W22656  12.290   0.469   3.817
57672W        W22657  24.533  21.695  10.445
57673W        W22658   4.320  10.369   0.228
57674W        W22659  11.932   5.979  11.579
57675W        W22660   4.045   9.543   0.357
57676W        W22661   5.437  18.581   0.964
57677W        W22662  43.611  18.179  14.925
57678W        W22663  19.219  21.412  13.895
57679W        W22664   6.422  26.997  13.824
57680W        W22665   9.844  13.667  11.578
57681W        W22666  21.217   4.613  13.886
57682W        W22667  31.942  35.558   4.337
57683W        W22668  15.452  41.342   3.060
57684W        W22669   8.950  21.648   1.690
57685W        W22670  40.367  41.396   3.971
57686W        W22671   9.121  30.076   1.401
57687W        W22672  35.531  20.533   1.731
57688W        W22673  29.048   0.493   3.828
57689W        W22674  36.028  18.261   2.439
57690W        W22675   3.771   2.403  11.152
57691W        W22676  28.623  28.897   1.762
57692W        W22677  41.975   6.973  12.068
57693W        W22678   0.723  24.248  12.492
57694W        W22679  25.736  36.290   3.807
57695W        W22680  27.095  22.614  11.612
57696W        W22681   4.664   4.746  12.981
57697W        W22682  34.071  35.100   4.194
57698W        W22683  19.711  24.068   2.494
57699W        W22684  44.739  37.605   1.791
57700W        W22685  22.537  23.453   1.695
57701W        W22686  20.788  28.232  12.551
57702W        W22687  27.835  39.285   0.687
57703W        W22688  34.848   1.414   0.084
57704W        W22689  22.126  32.992  14.926
57705W        W22690   9.112  19.621   1.691
57706W        W22691  28.125  20.980  14.868
57707W        W22692  35.058  17.048  14.473
57708W        W22693   3.972   8.619   4.581
57709W        W22694  30.319   2.422   1.386
57710W        W22695  43.115  28.619   1.486
57711W        W22696  28.325  12.204   3.301
57712W        W22697  13.745  14.598  11.187
57713W        W22698  42.281  18.132  13.889
57714W        W22699   7.872  27.949   1.356
57715W        W22700  23.467  18.248   1.243
57716W        W22701  33.387   9.230   3.177
57717W        W22702  21.459  16.224   1.120
57718W        W22703   1.466  28.167   1.431
57719W        W22704   6.985   1.250  10.597
57720W        W22705  33.485  35.339   0.739
57721W        W22706  37.973  13.054   4.694
57722W        W22707   3.553  26.555   1.357
57723W        W22708  37.364   4.458   4.727
57724W        W22709  23.093  24.254   0.757
57725W        W22710   4.391  40.062  11.484
57726W        W22711  20.261  39.411   1.047
57727W        W22712  38.893  21.268   2.656
57728W        W22713  21.150   5.678  13.961
57729W        W22714  27.585   2.405  14.455
57730W        W22715  25.103   0.610   5.231
57731W        W22716  11.670  14.785  11.609
57732W        W22717  35.205  36.159  13.059
57733W        W22718   3.437  20.768  10.618
57734W        W22719  20.097  12.752  10.956
57735W        W22720  12.482  19.774  12.975
57736W        W22721   7.332  28.081  10.704
57737W        W22722   8.915   2.459  14.393
57738W        W22723  12.758   7.242   4.284
57739W        W22724  12.699  38.157   3.765
57740W        W22725   0.751  35.049   5.190
57741W        W22726   6.902  34.783  14.709
57742W        W22727   5.677  29.041   0.031
57743W        W22728  11.261  10.871  10.533
57744W        W22729   2.432  24.436  13.473
57745W        W22730  25.020  25.137  13.611
57746W        W22731  10.716  40.326  12.836
57747W        W22732  25.642  42.253   2.229
57748W        W22733  38.412   1.550   4.222
57749W        W22734  21.567   5.974   4.603
57750W        W22735  23.922  21.830  13.804
57751W        W22736  17.997  41.913   4.600
57752W        W22737  23.735  24.624  13.267
57753W        W22738  29.456  11.171   2.313
57754W        W22739  13.855  33.577  11.111
57755W        W22740   1.949  29.197   3.794
57756W        W22741   9.129  17.196  12.896
57757W        W22742  26.871   9.020  11.129
57758W        W22743   4.832  34.281  11.851
57759W        W22744  15.827  31.564  14.482
57760W        W22745  15.666  34.626   2.350
57761W        W22746  13.815   0.867   2.833
57762W        W22747  38.331  16.259  12.461
57763W        W22748   0.327  26.238   3.316
57764W        W22749  40.085  12.348   3.577
57765W        W22750   8.750   1.342  13.827
57766W        W22751  25.648  20.867  12.994
57767W        W22752  43.799  40.005  11.894
57768W        W22753  27.939  16.141  10.293
57769W        W22754   1.239  37.807   2.213
57770W        W22755  10.242  15.309   2.811
57771W        W22756   4.624  10.767  11.903
57772W        W22757   0.416  25.978  12.809
57773W        W22758  40.094  32.258  12.435
57774W        W22759  25.116  27.244   2.200
57775W        W22760  16.810  31.145   5.089
57776W        W22761  41.513  42.050   2.224
57777W        W22762  20.990   4.779  10.103
57778W        W22763   4.336  31.693  13.533
57779W        W22764   6.840   9.858  13.806
57780W        W22765   1.883  32.122   3.808
57781W        W22766  24.958  35.624  10.675
57782W        W22767  27.725   5.439  10.424
57783W        W22768  13.937  18.292   0.455
57784W        W22769  23.990   7.851   3.254
57785W        W22770   3.272  33.422  11.904
57786W        W22771  37.333  16.203   4.147
57787W        W22772  35.874  41.658  11.640
57788W        W22773  37.026  28.498   3.110
57789W        W22774  35.588   2.977   1.409
57790W        W22775   7.674  42.442   4.745
57791W        W22776  27.440  35.414   4.786
57792W        W22777  41.099   0.466   2.698
57793W        W22778  26.233   0.306  14.303
57794W        W22779  18.632  19.157   3.329
57795W        W22780  14.210  20.256   3.532
57796W        W22781  40.816   5.321   4.584
57797W        W22782  29.913   6.886  13.722
57798W        W22783   3.521  42.327   1.672
57799W        W22784  29.272  27.968  13.770
57800W        W22785  16.169  39.886   0.829
57801W        W22786   3.773  16.476   2.837
57802W        W22787  16.899   1.896  10.972
57803W        W22788  41.042  24.111   2.803
57804W        W22789  29.734  36.625   0.090
57805W        W22790  17.801  39.445  14.417
57806W        W22791  30.532  36.479   5.040
57807W        W22792   8.731  26.709  11.175
57808W        W22793   3.936   8.779  13.050
57809W        W22794  16.900  33.130   1.027
57810W        W22795   0.013  35.341  10.026
57811W        W22796  27.658  15.422   0.653
57812W        W22797  13.990  16.367  14.447
57813W        W22798  43.519   5.770   2.633
57814W        W22799  33.927  27.694   0.897
57815W        W22800  26.479  20.800   1.206
57816W        W22801   7.331  29.925  11.102
57817W        W22802  37.428  26.190   4.904
57818W        W22803  33.104  28.158   3.357
57819W        W22804   7.617  12.718   1.744
57820W        W22805  42.955  39.882   2.302
57821W        W22806  19.557  13.331  13.484
57822W        W22807  31.524  22.193   3.901
57823W        W22808  44.209  27.472  14.415
57824W        W22809   7.024  16.744   4.321
57825W        W22810  29.866  26.917  14.599
57826W        W22811  27.016  36.644  13.349
57827W        W22812  22.181  42.053  10.882
57828W        W22813   3.112  44.327  10.973
57829W        W22814   1.446  22.558   1.736
57830W        W22815   7.577  24.219   2.707
57831W        W22816  18.590   8.757   2.332
57832W        W22817  16.640  43.325   3.182
57833W        W22818  30.506  25.413   1.486
57834W        W22819  21.087  36.425  12.857
57835W        W22820  16.023  42.976   5.106
57836W        W22821  31.676   6.239   3.575
57837W        W22822  13.691  15.296   3.734
57838W        W22823  15.661  33.358   2.814
57839W        W22824   6.954  23.291  10.825
57840W        W22825   2.379  40.127  10.489
57841W        W22826  33.449   6.470  11.381
57842W        W22827  26.453   0.708  13.990
57843W        W22828  39.375  16.263   1.577
57844W        W22829  36.949  20.854   4.018
57845W        W22830  43.485  27.245  13.411
57846W        W22831  34.679  36.850   0.936
57847W        W22832  16.195   4.117  10.585
57848W        W22833  16.116  33.145   0.638
57849W        W22834  17.304   2.954  14.891
57850W        W22835   0.648  21.298  14.587
57851W        W22836  27.980  17.069   1.719
57852W        W22837   7.124  13.373  11.509
57853W        W22838  22.195  16.624  12.157
57854W        W22839  36.351   7.390  12.465
57855W        W22840  35.970  24.458  10.635
57856W        W22841   6.237  24.587  11.205
57857W        W22842  44.464  33.175  11.521
57858W        W22843  29.570  42.839  12.025
57859W        W22844  21.700   7.324   0.767
57860W        W22845   5.410  11.031  13.785
57861W        W22846   4.133   2.239   1.966
57862W        W22847  16.829  10.211   3.694
57863W        W22848  12.865  18.490   0.344
57864W        W22849   5.814  22.743   3.338
57865W        W22850  30.402  36.023   2.297
57866W        W22851   3.832  12.308   3.619
57867W        W22852   0.626  15.983  14.965
57868W        W22853  39.819  31.116  10.662
57869W        W22854  28.545  43.536  11.620
57870W        W22855  18.279  23.063   3.826
57871W        W22856  10.955  32.348   0.447
57872W        W22857  18.528  24.552   0.036
57873W        W22858  15.176  36.333   1.366
57874W        W22859  23.945  21.878   2.289
57875W        W22860  39.044  28.610   0.212
57876W        W22861  15.197  41.356  11.039
57877W        W22862  12.593  19.932  13.875
57878W        W22863  35.223  26.594  10.613
57879W        W22864   9.876  30.640   1.326
57880W        W22865  21.567   7.686   2.105
57881W        W22866  42.825  10.560  14.253
57882W        W22867  10.593   0.935  11.464
57883W        W22868  37.404   6.442  10.271
57884W        W22869   7.768   8.157   2.258
57885W        W22870  13.267  23.990  10.187
57886W        W22871  19.116   4.749  14.517
57887W        W22872  14.987  12.621  12.065
57888W        W22873   1.749  24.704  13.910
57889W        W22874   5.587   4.363   3.154
57890W        W22875  14.263  43.398  14.439
57891W        W22876  26.342   8.115   0.490
57892W        W22877  20.082  44.480  14.426
57893W        W22878  37.354   0.465  11.607
57894W        W22879  37.993  12.181  13.453
57895W        W22880  35.240  35.266   3.254
57896W        W22881  13.283   0.451   1.798
57897W        W22882   2.551  17.724  13.531
57898W        W22883   6.219  21.988   2.204
57899W        W22884  39.791  35.483   2.146
57900W        W22885  15.404  28.763  12.376
57901W        W22886  12.569   9.437  14.859
57902W        W22887  21.532   5.850  14.558
57903W        W22888   3.460   6.031  11.276
57904W        W22889  22.489   5.384   1.295
57905W        W22890  29.596  29.661  11.602
57906W        W22891  22.607  44.310  10.508
57907W        W22892   2.328  20.242  13.493
57908W        W22893   1.777  44.084   3.857
57909W        W22894  41.114  35.086   0.259
57910W        W22895   3.888  28.778   2.968
57911W        W22896  38.272  10.368  11.157
57912W        W22897  29.460  34.401   1.971
57913W        W22898  28.766  31.973  12.397
57914W        W22899  28.916  14.780  13.026
57915W        W22900  37.936  31.687   3.646
57916W        W22901  29.126  26.173   4.849
57917W        W22902  23.628  23.113   4.446
57918W        W22903  28.204  36.008   1.880
57919W        W22904  44.266  42.923   2.453
57920W        W22905  26.508  37.398  11.079
57921W        W22906  27.198  39.852  11.354
57922W        W22907  14.062  36.829   0.719
57923W        W22908  22.257  42.493   4.565
57924W        W22909   5.298  11.557  13.879
57925W        W22910  40.158   4.948  14.766
57926W        W22911  28.124  44.790   4.165
57927W        W22912  31.664  13.063   4.648
57928W        W22913  43.290  28.685  12.973
57929W        W22914  22.783  35.860   2.162
57930W        W22915   9.893   6.392  14.552
57931W        W22916  10.283  20.313  11.060
57932W        W22917  42.174  27.650   0.449
57933W        W22918  24.097  12.245  12.870
57934W        W22919  32.350  34.988  13.388
57935W        W22920  38.720  27.043   2.486
57936W        W22921  44.507  29.591   3.327
57937W        W22922  22.696   0.163  11.913
57938W        W22923   6.767   3.458  12.106
57939W        W22924  13.731  39.978   2.380
57940W        W22925  40.977   2.695  10.671
57941W        W22926   1.852  27.612  13.774
57942W        W22927   5.137  26.781   3.685
57943W        W22928   3.239   5.906  13.532
57944W        W22929   1.866   2.300   1.358
57945W        W22930  27.480  16.606  13.825
57946W        W22931  28.105  35.829   0.995
57947W        W22932  15.484  40.048  13.892
57948W        W22933  29.136   2.020   3.267
57949W        W22934  42.639  44.313  11.921
57950W        W22935  42.440  20.042  14.880
57951W        W22936  24.468  22.662   2.417
57952W        W22937  41.996  18.335  14.625
57953W        W22938  26.737  35.162   4.063
57954W        W22939   8.291  25.138  13.480
57955W        W22940  35.667  14.285   4.650
57956W        W22941  26.088  28.671  11.510
57957W        W22942  22.140  29.183   0.785
57958W        W22943  34.550  36.901   0.429
57959W        W22944   2.829   1.208   1.238
57960W        W22945  31.550  10.037  12.120
57961W        W22946  33.011   2.803   1.855
57962W        W22947  38.840   6.055   2.859
57963W        W22948  35.333  43.784   4.237
57964W        W22949  33.615  10.602   4.964
57965W        W22950   0.711  24.211   1.369
57966W        W22951  30.624   8.493   2.407
57967W        W22952  25.622  17.146   2.287
57968W        W22953  38.004   6.785  13.334
57969W        W22954   2.616  14.369  10.728
57970W        W22955  34.537   0.791   2.780
57971W        W22956  37.813  32.222  12.866
57972W        W22957  15.120   6.801   0.321
57973W        W22958  44.900  26.371  14.984
57974W        W22959  15.860  39.545  11.151
57975W        W22960  43.049  33.619   3.880
57976W        W22961  34.614  31.495   2.655
57977W        W22962  23.507  12.285  13.061
57978W        W22963  35.837   3.353   2.760
57979W        W22964   7.867  14.358   0.315
57980W        W22965  35.068  30.788  12.732
57981W        W22966  19.078  20.638   0.428
57982W        W22967  42.070  16.974  11.927
57983W        W22968   7.253  24.343  10.984
57984W        W22969  11.200  29.733   2.284
57985W        W22970  31.598  17.614   3.606
57986W        W22971  41.030  23.696   4.190
57987W        W22972  12.651  43.475  13.036
57988W        W22973  26.675  17.820  11.734
57989W        W22974   4.633  18.198  10.951
57990W        W22975  11.176  20.536  11.282
57991W        W22976  36.039  18.258  14.439
57992W        W22977  10.519  32.080  10.950
57993W        W22978  38.515   3.289  14.592
57994W        W22979  20.681  24.840  13.980
57995W        W22980  12.386  28.242  11.091
57996W        W22981  31.642  18.198   4.344
57997W        W22982  40.955  10.667   3.701
57998W        W22983   0.318  19.748  10.932
57999W        W22984  24.452  30.145   5.177
58000W        W22985  40.291  26.191  14.301
58001W        W22986  24.993  14.630  10.753
58002W        W22987  19.220   3.741   1.883
58003W        W22988  29.735  31.965   3.925
58004W        W22989  10.916  17.438   2.707
58005W        W22990  11.593  22.802   2.297
58006W        W22991  10.619  14.576   0.823
58007W        W22992  36.805  33.404   3.568
58008W        W22993  15.084  26.440  10.093
58009W        W22994  28.535  38.567  11.554
58010W        W22995  28.943  28.116  10.628
58011W        W22996  13.711  31.188  12.163
58012W        W22997  17.772  28.002  13.838
58013W        W22998  35.100  34.969   2.722
58014W        W22999  17.823  17.176  11.668
58015W        W23000  28.529  25.654  11.672
58016W        W23001   7.317  42.749  11.524
58017W        W23002  23.196  29.966   3.029
58018W        W23003   9.825  12.236  13.416
58019W        W23004  10.697   6.486   5.464
58020W        W23005  24.119   1.505   0.203
58021W        W23006  26.347  44.653  13.187
58022W        W23007   0.982   7.791   4.270
58023W        W23008  36.479  14.108   1.669
58024W        W23009  21.218   4.685   1.310
58025W        W23010   5.903  13.611   1.324
58026W        W23011  44.701  36.316  10.262
58027W        W23012   0.526  15.044   2.271
58028W        W23013  42.238   9.798  12.961
58029W        W23014   5.893  36.440   2.136
58030W        W23015  31.512   8.401   4.944
58031W        W23016  35.966   6.901   1.164
58032W        W23017  44.585  15.895  12.045
58033W        W23018   8.909  16.906   3.650
58034W        W23019  34.342  39.071   0.466
58035W        W23020   0.978  12.763  11.177
58036W        W23021  35.285  19.107  12.103
58037W        W23022  30.406  15.389  12.040
58038W        W23023  44.470  41.816   4.579
58039W        W23024   8.009  33.413  14.457
58040W        W23025  14.169  24.551   2.339
58041W        W23026   7.204  32.510   4.401
58042W        W23027   2.454  36.084   0.877
58043W        W23028  23.521  41.623  12.996
58044W        W23029  42.493  43.746  13.523
58045W        W23030   1.298  44.280  12.485
58046W        W23031  18.054  40.166   3.246
58047W        W23032   5.146  35.303  13.506
58048W        W23033   3.309  12.855   4.150
58049W        W23034  32.493  33.185  10.512
58050W        W23035  30.453  11.840  10.128
58051W        W23036  44.956  26.469   5.406
58052W        W23037  25.719  17.277   4.636
58053W        W23038  25.054  25.684  14.888
58054W        W23039  13.421   2.144  11.903
58055W        W23040  15.632  12.419   3.763
58056W        W23041  25.119   7.587  14.487
58057W        W23042  36.429  27.111   1.431
58058W        W23043  38.405  25.500   5.515
58059W        W23044  38.784  24.062  12.196
58060W        W23045  18.933   8.345   0.001
58061W        W23046  17.611  20.791   1.745
58062W        W23047  15.710  37.447   0.964
58063W        W23048  17.872  43.193  14.305
58064W        W23049  36.954  23.671   3.807
58065W        W23050  23.506   7.798   0.613
58066W        W23051  29.352  19.533   0.443
58067W        W23052  29.436   3.975  13.945
58068W        W23053   0.889   4.681  13.389
58069W        W23054  17.502  21.594   2.716
58070W        W23055  10.429   8.868   1.729
58071W        W23056  23.456  30.904  10.621
58072W        W23057  37.699  36.008   1.360
58073W        W23058  41.862  14.297  10.682
58074W        W23059  22.532  37.320  14.003
58075W        W23060   9.806  24.631   0.923
58076W        W23061  28.599  10.180   2.247
58077W        W23062  33.457  32.122  12.823
58078W        W23063  39.588  30.153  12.314
58079W        W23064  20.315  27.628  11.601
58080W        W23065  28.205  29.596  10.990
58081W        W23066  14.312  26.646  12.975
58082W        W23067  37.645  27.875  12.617
58083W        W23068  33.436   4.803   1.768
58084W        W23069  36.129  28.851   1.872
58085W        W23070  30.352  36.763   4.637
58086W        W23071   2.335   2.503   3.262
58087W        W23072  34.961  28.229  12.576
58088W        W23073  44.908  33.284  11.992
58089W        W23074  38.922  43.264   3.112
58090W        W23075  39.259  29.462  14.324
58091W        W23076  35.136   1.584  14.233
58092W        W23077  22.160  26.127   0.179
58093W        W23078  34.195   8.987  13.515
58094W        W23079  30.579  11.976   1.855
58095W        W23080  44.994  36.799   0.833
58096W        W23081  29.197  36.912   1.363
58097W        W23082  28.044  26.700  14.350
58098W        W23083   1.738  24.445   3.157
58099W        W23084  28.056   2.985   3.225
58100W        W23085  32.200  12.926  14.402
58101W        W23086  44.888   4.924  13.559
58102W        W23087   1.763   4.326   1.026
58103W        W23088  13.850   9.690  14.473
58104W        W23089  35.181   6.079   3.567
58105W        W23090  33.167  28.788   1.188
58106W        W23091  22.667  29.414   4.223
58107W        W23092  20.955   1.634   0.851
58108W        W23093   6.229   0.624   0.986
58109W        W23094   4.282  17.291   4.510
58110W        W23095  43.505  28.692  11.980
58111W        W23096  32.001  28.654   0.405
58112W        W23097   8.341  25.181   2.488
58113W        W23098   8.162  38.752   1.792
58114W        W23099   4.794  43.910  14.121
58115W        W23100  44.453  44.773   0.354
58116W        W23101  24.673  43.732   2.875
58117W        W23102  14.303  37.385   3.284
58118W        W23103  31.677   2.172  11.517
58119W        W23104  25.064  16.647   0.716
58120W        W23105  41.467  24.499   2.787
58121W        W23106  19.176  27.016   4.994
58122W        W23107  32.651  17.965   0.054
58123W        W23108   1.763  34.499   1.366
58124W        W23109  19.944  43.144  11.733
58125W        W23110   6.973  36.919   4.633
58126W        W23111  17.449  33.956   2.327
58127W        W23112  26.498  27.231  13.042
58128W        W23113  12.259  42.248  14.189
58129W        W23114  10.733  25.588  13.978
58130W        W23115   1.357   2.048  12.179
58131W        W23116  16.736  22.247  12.497
58132W        W23117  42.356  34.328   0.252
58133W        W23118  15.858  25.533   0.769
58134W        W23119  20.634  32.004  12.164
58135W        W23120  11.813  18.698  12.189
58136W        W23121  19.120   6.301  13.096
58137W        W23122  36.433  37.690   1.675
58138W        W23123  34.368  13.575   0.282
58139W        W23124   6.988   6.660  10.753
58140W        W23125   1.469  17.229   1.285
58141W        W23126  25.925  24.030  11.586
58142W        W23127  28.519  24.979  11.415
58143W        W23128  32.841  21.199   4.308
58144W        W23129   7.161   4.840   0.340
58145W        W23130  43.768  10.523  12.562
58146W        W23131  10.123  24.185   3.764
58147W        W23132   4.293   1.331   3.969
58148W        W23133  16.403  27.999  11.675
58149W        W23134   6.692   9.249  10.871
58150W        W23135  18.580  44.065   1.905
58151W        W23136  12.583  29.200  14.415
58152W        W23137   9.789  20.751   4.659
58153W        W23138  18.841  26.964  14.761
58154W        W23139  19.616  31.122   0.390
58155W        W23140   6.348  18.147  14.316
58156W        W23141  32.958  34.799   4.686
58157W        W23142  27.605  23.284  13.507
58158W        W23143  10.241  26.762  12.058
58159W        W23144  11.030  30.153   3.095
58160W        W23145  36.537  44.678   2.948
58161W        W23146  44.067   6.770  14.070
58162W        W23147  15.129   4.762   1.562
58163W        W23148  43.738  12.169  11.520
58164W        W23149  31.612  19.427   3.089
58165W        W23150   2.722  23.908   5.169
58166W        W23151  20.037  19.259  13.895
58167W        W23152  20.109  16.067   0.264
58168W        W23153  22.745  14.605   0.128
58169W        W23154  41.252  13.811   3.817
58170W        W23155  18.776  27.920   1.427
58171W        W23156  22.267   3.469   3.881
58172W        W23157  34.977  11.928   2.601
58173W        W23158  12.632  30.622   2.358
58174W        W23159  25.773  21.557   0.963
58175W        W23160  15.694  44.015  11.349
58176W        W23161   0.580   0.493  12.548
58177W        W23162  30.859  10.195  11.618
58178W        W23163  32.647  32.024  11.047
58179W        W23164  29.501   4.108   2.953
58180W        W23165  14.359  38.042  11.990
58181W        W23166  18.449   7.377   0.203
58182W        W23167  16.336  28.656   1.393
58183W        W23168   9.982  24.673   4.100
58184W        W23169  12.585   7.705   4.106
58185W        W23170  21.682  22.741  10.768
58186W        W23171  35.032  23.236   1.295
58187W        W23172   0.903  33.171  10.507
58188W        W23173  17.519  42.611   5.054
58189W        W23174  26.114  22.664  12.979
58190W        W23175  10.991  12.614   0.859
58191W        W23176  21.170  43.242   1.387
58192W        W23177  19.157  31.910   0.411
58193W        W23178  35.054   8.887   1.248
58194W        W23179   1.715  21.999  10.631
58195W        W23180   3.136  43.311  11.922
58196W        W23181  35.131  17.288   1.923
58197W        W23182  42.492  32.155   2.328
58198W        W23183  26.318  34.481  10.833
58199W        W23184   0.211  15.248  14.449
58200W        W23185  15.820  35.547  12.793
58201W        W23186  40.560  41.765  13.549
58202W        W23187  13.212   5.505  10.301
58203W        W23188  38.913   0.034   0.935
58204W        W23189  41.592  14.158   4.595
58205W        W23190  33.999  37.335   2.376
58206W        W23191  41.297  43.056   1.844
58207W        W23192  32.750   8.758   0.441
58208W        W23193  23.410  40.511  10.618
58209W        W23194  18.091  14.320   2.246
58210W        W23195  35.343   0.787  12.402
58211W        W23196  44.279  43.693  11.589
58212W        W23197  29.697   6.916   1.336
58213W        W23198   0.961  29.498   0.708
58214W        W23199  38.838  32.994  12.888
58215W        W23200  32.923   5.256   1.673
58216W        W23201  29.766   6.546  12.110
58217W        W23202  16.752  32.935   3.829
58218W        W23203  23.553  39.321   4.066
58219W        W23204  37.465  35.262  13.964
58220W        W23205   4.758   1.513   1.849
58221W        W23206  31.183  14.049   5.061
58222W        W23207  20.258  20.373   3.685
58223W        W23208  33.209  20.064  14.531
58224W        W23209  12.028   2.173  11.102
58225W        W23210  11.474  19.103  12.435
58226W        W23211  36.895  29.510  11.140
58227W        W23212  18.722   4.935  14.768
58228W        W23213  15.693   5.830   1.908
58229W        W23214  17.302  30.100  11.673
58230W        W23215   0.906  19.502  12.848
58231W        W23216  25.716  32.767  11.644
58232W        W23217   2.363  44.421   1.394
58233W        W23218  30.672  11.166   2.705
58234W        W23219  24.011   8.635  12.148
58235W        W23220  19.532  17.089  10.194
58236W        W23221  40.033  10.410  10.674
58237W        W23222   3.798  40.011   4.364
58238W        W23223  27.705  33.216  14.923
58239W        W23224  40.079  40.057  10.695
58240W        W23225  41.750  21.243   2.318
58241W        W23226  21.280  22.049   1.920
58242W        W23227  38.703  22.193   4.675
58243W        W23228  12.334  42.295   2.143
58244W        W23229   9.351   7.855   1.312
58245W        W23230  32.371  29.079  11.614
58246W        W23231  18.708  28.350   3.347
58247W        W23232  41.019  11.584  14.334
58248W        W23233  16.655  42.546   1.369
58249W        W23234  18.556  40.786   2.242
58250W        W23235  26.638  11.382   4.738
58251W        W23236  20.752  20.792   3.231
58252W        W23237  14.608   2.519  13.980
58253W        W23238  23.578   6.617  11.493
58254W        W23239  26.169   8.348  14.185
58255W        W23240  19.593  20.212  14.298
58256W        W23241  40.300  15.084   0.566
58257W        W23242  33.142  17.669   4.627
58258W        W23243  32.001  13.030  13.126
58259W        W23244  13.625  38.438  12.156
58260W        W23245   0.952  18.676   0.728
58261W        W23246   3.347  43.653   2.636
58262W        W23247  27.091  15.127  12.125
58263W        W23248  16.191   4.697  11.315
58264W        W23249   5.637  13.313  14.776
58265W        W23250  22.598  20.014   3.399
58266W        W23251   6.257  15.623  11.919
58267W        W23252  39.366   3.889  10.625
58268W        W23253   6.926  36.925   1.934
58269W        W23254  42.309   3.607   2.120
58270W        W23255  26.573   8.870   0.248
58271W        W23256  22.748   4.575  12.973
58272W        W23257  39.092  38.415  14.960
58273W        W23258   8.553  12.581  13.884
58274W        W23259  25.229  37.119   2.744
58275W        W23260  22.780  13.841   0.860
58276W        W23261  10.567  24.404  13.595
58277W        W23262  25.013  14.885  14.044
58278W        W23263  12.067   9.148  10.643
58279W        W23264  35.126   9.268  10.375
58280W        W23265  43.200   4.279  10.524
58281W        W23266   7.942  28.322   4.140
58282W        W23267  24.194  28.982   4.385
58283W        W23268  20.670  28.933  14.729
58284W        W23269   4.870  15.284   4.186
58285W        W23270  22.772  21.652  14.357
58286W        W23271  26.511  39.309  13.490
58287W        W23272  30.370  41.267   1.416
58288W        W23273  33.612  10.887  12.039
58289W        W23274  18.109   9.276   4.781
58290W        W23275  14.067  39.332  14.971
58291W        W23276  44.116  31.359  12.098
58292W        W23277  13.795  12.239   2.919
58293W        W23278  34.261  29.574  13.430
58294W        W23279  38.873  40.440   4.563
58295W        W23280   3.825  27.375   0.269
58296W        W23281  24.780  17.271   1.717
58297W        W23282  27.178   4.840  11.030
58298W        W23283   7.872   4.472   0.270
58299W        W23284  35.893   6.317  13.564
58300W        W23285   0.325  43.306  13.591
58301W        W23286  22.630  38.500   4.913
58302W        W23287  29.472  37.556  10.258
58303W        W23288  16.005  41.164   2.316
58304W        W23289  24.216   2.000   0.989
58305W        W23290  12.386  27.778   1.930
58306W        W23291   2.492   9.399   2.054
58307W        W23292   3.810  21.037  13.018
58308W        W23293  31.093  28.608   1.447
58309W        W23294  39.121  44.346   4.595
58310W        W23295  33.955  36.090   4.238
58311W        W23296  12.211   4.713   3.908
58312W        W23297  38.007   4.434   3.305
58313W        W23298  30.129  14.502   1.290
58314W        W23299  27.579  22.731  11.427
58315W        W23300  44.750   9.854   2.760
58316W        W23301   5.347   9.367  10.724
58317W        W23302  26.272  37.101  13.762
58318W        W23303  17.087   8.428   3.679
58319W        W23304   0.626  39.543  11.881
58320W        W23305  24.724  12.858   2.639
58321W        W23306  33.648  44.066  12.785
58322W        W23307  42.012  14.227  13.792
58323W        W23308   5.179  25.684   4.078
58324W        W23309  34.994  37.388   4.085
58325W        W23310  27.352  22.715  12.437
58326W        W23311  22.281  21.451  10.760
58327W        W23312  14.200  11.351  14.413
58328W        W23313  31.655  10.172  14.922
58329W        W23314  30.349  44.171   2.328
58330W        W23315  40.436  35.894   1.419
58331W        W23316  43.335  35.717  13.066
58332W        W23317   0.453  20.330  14.409
58333W        W23318  37.881  11.385   4.231
58334W        W23319   7.392   7.192   5.494
58335W        W23320  43.573  24.020  13.868
58336W        W23321   1.669  27.940  14.992
58337W        W23322  28.000   5.276  11.213
58338W        W23323   8.664  16.671  13.970
58339W        W23324   7.226  10.192  12.536
58340W        W23325   7.613   5.106   0.926
58341W        W23326  11.229  18.318   3.668
58342W        W23327  34.922  22.234  11.919
58343W        W23328  26.006  21.325  10.258
58344W        W23329  16.770  26.321   3.677
58345W        W23330  22.586  14.803   3.341
58346W        W23331  11.804   3.723   0.818
58347W        W23332   3.784  43.944  14.005
58348W        W23333   5.552  34.463   2.731
58349W        W23334  25.621   0.901  12.328
58350W        W23335  29.560  28.120   3.268
58351W        W23336  27.845  17.706   0.485
58352W        W23337  14.402  40.594   4.773
58353W        W23338  31.114   6.691  13.322
58354W        W23339  33.565  25.010  13.119
58355W        W23340  43.909   8.798   0.346
58356W        W23341  44.314   7.119  13.271
58357W        W23342   0.457  20.260  12.635
58358W        W23343  15.160   2.831   4.560
58359W        W23344  22.899  18.967  10.399
58360W        W23345  18.151  28.059  11.795
58361W        W23346   3.988  25.115  13.892
58362W        W23347  40.108  18.683   2.208
58363W        W23348   1.632   2.284  11.093
58364W        W23349  13.243   3.937  10.464
58365W        W23350   4.992   2.022  10.384
58366W        W23351   2.609  23.895   2.749
58367W        W23352  23.109  42.243   2.813
58368W        W23353   7.949   1.776   2.752
58369W        W23354  32.588  12.427   0.370
58370W        W23355  31.359   6.750  13.783
58371W        W23356   5.361   2.837   1.460
58372W        W23357  24.386   1.292   2.800
58373W        W23358  19.409  25.664   2.953
58374W        W23359  32.343  26.497  13.061
58375W        W23360  17.761  35.559  14.019
58376W        W23361  34.491  10.869  11.564
58377W        W23362  29.989  29.309  11.511
58378W        W23363  25.951  42.425   1.378
58379W        W23364  36.102   3.739   1.991
58380W        W23365  19.742  14.480  14.890
58381W        W23366  32.623  40.587  13.060
58382W        W23367   2.162  27.737   4.733
58383W        W23368  15.846   3.723  10.661
58384W        W23369  13.876   6.563  11.508
58385W        W23370   9.252   9.415   3.195
58386W        W23371  32.978  20.944  14.423
58387W        W23372  30.025  13.282   2.635
58388W        W23373  28.998  44.393   0.867
58389W        W23374   4.888  28.043   2.879
58390W        W23375  35.043   2.355   2.684
58391W        W23376   3.499  17.912   4.318
58392W        W23377  22.485  32.543   0.702
58393W        W23378  11.227  29.125  10.749
58394W        W23379  15.683  23.977  13.544
58395W        W23380  19.144  39.514   3.112
58396W        W23381  13.975  21.018  12.804
58397W        W23382  26.468  20.974   2.392
58398W        W23383  23.745  20.354  12.862
58399W        W23384  27.355   3.295  11.112
58400W        W23385   1.922   9.827   3.333
58401W        W23386  32.259  40.014  11.669
58402W        W23387  34.027   9.480  13.594
58403W        W23388   9.564   8.390   4.442
58404W        W23389  17.316   0.751   2.635
58405W        W23390   3.587   6.685   3.161
58406W        W23391  33.075  40.249   1.019
58407W        W23392  41.373  31.688  14.404
58408W        W23393   3.389  10.782  12.557
58409W        W23394  13.948  24.700  14.754
58410W        W23395  14.360  29.168  14.915
58411W        W23396  12.806  13.780  11.989
58412W        W23397   7.017   8.069  12.010
58413W        W23398   7.338  21.368  13.004
58414W        W23399   7.042  13.709   2.165
58415W        W23400  39.766  27.602   1.975
58416W        W23401  32.541  13.792   2.445
58417W        W23402  32.617  37.004  13.867
58418W        W23403  37.615   1.895  11.096
58419W        W23404  36.126  32.090   0.608
58420W        W23405  10.089   9.048   4.987
58421W        W23406  35.938  10.214   1.149
58422W        W23407  44.864  36.556  11.750
58423W        W23408  16.144   9.591   4.284
58424W        W23409   8.278  39.848  14.309
58425W        W23410  16.741  43.531  13.020
58426W        W23411  15.120  20.951   1.661
58427W        W23412  33.580  39.413  14.451
58428W        W23413  11.575  10.624  11.094
58429W        W23414  16.947  22.564  11.736
58430W        W23415  44.276  38.189  13.100
58431W        W23416  40.156  21.811   4.191
58432W        W23417   0.343  33.555   0.721
58433W        W23418  23.074  39.508   1.946
58434W        W23419  12.752  36.490   3.182
58435W        W23420  31.068   1.594  11.973
58436W        W23421  37.352  24.169   0.210
58437W        W23422  39.422  38.085  13.613
58438W        W23423   7.759  30.566  13.339
58439W        W23424   4.864   8.243   3.165
58440W        W23425  38.889  33.567   0.852
58441W        W23426  34.395  33.163  13.847
58442W        W23427   2.260  40.925   3.279
58443W        W23428  42.751   9.154  11.157
58444W        W23429  14.990  10.376   1.844
58445W        W23430  32.020   6.915  12.041
58446W        W23431  12.797  43.454   3.075
58447W        W23432  29.018  22.261   4.538
58448W        W23433  29.546  11.076  11.641
58449W        W23434  44.856  34.851   0.441
58450W        W23435  42.981  19.779   4.737
58451W        W23436  23.727  28.997  10.796
58452W        W23437  21.149  32.463  12.325
58453W        W23438  11.760  34.859   3.210
58454W        W23439  24.243  17.342  14.285
58455W        W23440  34.009   3.933   2.673
58456W        W23441  10.939   5.368  13.981
58457W        W23442   7.123  21.849   2.981
58458W        W23443  38.409   5.042  13.219
58459W        W23444  28.712  13.662   0.332
58460W        W23445  34.903   0.734   1.862
58461W        W23446   7.203  39.275  11.197
58462W        W23447   8.668  11.771   3.152
58463W        W23448   2.325  15.300   2.461
58464W        W23449  33.449  41.140  14.404
58465W        W23450  28.091  17.682  11.549
58466W        W23451  25.672  14.757   3.184
58467W        W23452  33.678   9.664   3.546
58468W        W23453  13.776  23.695  14.557
58469W        W23454   3.268  13.090   0.792
58470W        W23455   4.470  34.592   4.184
58471W        W23456   3.294  41.844  12.718
58472W        W23457  30.134   3.310  11.621
58473W        W23458  21.860   9.224  11.620
58474W        W23459  35.373  40.638   4.719
58475W        W23460  25.118  22.314   2.346
58476W        W23461  36.175  39.346  11.469
58477W        W23462  37.386  34.756   0.286
58478W        W23463  26.125  32.546   4.440
58479W        W23464  25.828  19.490   1.668
58480W        W23465   2.020   5.337   0.276
58481W        W23466   1.886  14.960   5.012
58482W        W23467  14.089   7.875  14.960
58483W        W23468   5.269  42.793  11.491
58484W        W23469   9.231   2.392   3.195
58485W        W23470  37.815  16.663  13.970
58486W        W23471  19.891  32.448   5.133
58487W        W23472  36.436  16.995   2.250
58488W        W23473  27.075  25.692  14.921
58489W        W23474  34.859  33.705   3.361
58490W        W23475  20.152  35.247   0.150
58491W        W23476  34.968  24.218  14.454
58492W        W23477  17.582   3.085  14.469
58493W        W23478  42.610  28.603  12.049
58494W        W23479  13.158  31.399  14.310
58495W        W23480  16.165  29.639  10.714
58496W        W23481  39.503  36.193  13.508
58497W        W23482  12.285  28.044   4.809
58498W        W23483   4.266  40.701   1.703
58499W        W23484  31.846  10.979   4.541
58500W        W23485  10.555  28.401   2.195
58501W        W23486  26.738  23.664  14.311
58502W        W23487   1.021  11.877  11.010
58503W        W23488  34.588  25.583   2.321
58504W        W23489  12.205  10.431   2.283
58505W        W23490   3.711  41.397   1.172
58506W        W23491  31.672  31.294   0.044
58507W        W23492   3.682  25.247   2.642
58508W        W23493  36.097   7.087  11.478
58509W        W23494  29.929  39.848   4.281
58510W        W23495  30.965   9.867   3.769
58511W        W23496  37.656   4.491   2.362
58512W        W23497  38.670  17.009  10.485
58513W        W23498   8.112   1.364   1.795
58514W        W23499  37.797  34.076  13.797
58515W        W23500  41.596  18.490   3.770
58516W        W23501  43.945  30.688   2.133
58517W        W23502  39.122  40.487   2.325
58518W        W23503  16.958   9.297   3.752
58519W        W23504  26.033  20.025   0.468
58520W        W23505  40.094  13.714   0.668
58521W        W23506   8.195  35.187   2.852
58522W        W23507  23.498  24.056  14.604
58523W        W23508  36.935  22.802  12.527
58524W        W23509  25.582  14.369   1.438
58525W        W23510  40.545  35.708   2.915
58526W        W23511  23.928  33.093  10.132
58527W        W23512   8.788  23.637  14.005
58528W        W23513  24.481  15.647   3.176
58529W        W23514  27.966  14.094   4.547
58530W        W23515   2.751  38.668   0.230
58531W        W23516  30.920  35.652   1.958
58532W        W23517  15.048  24.785  14.537
58533W        W23518  20.979  21.702  13.442
58534W        W23519  16.230  18.904  10.273
58535W        W23520   8.282  43.243   2.281
58536W        W23521  22.161  11.222  14.619
58537W        W23522  37.114   2.920   0.784
58538W        W23523  26.415  33.128  14.450
58539W        W23524  10.189  29.152   4.040
58540W        W23525   4.943  22.638   1.264
58541W        W23526  18.297   9.871   4.360
58542W        W23527  15.681  16.191  12.111
58543W        W23528  21.214  21.239  11.205
58544W        W23529  36.567  44.764   1.777
58545W        W23530  31.838  23.692  14.554
58546W        W23531  22.937  20.698  14.498
58547W        W23532   1.289  23.752   3.340
58548W        W23533  37.488  21.003  10.622
58549W        W23534  19.965  15.110   4.096
58550W        W23535  32.365  22.198   3.203
58551W        W23536   3.313  11.220  11.105
58552W        W23537   1.899   8.737   1.901
58553W        W23538  28.451   7.962   1.883
58554W        W23539   9.840  42.007  11.642
58555W        W23540  32.334  22.633  10.290
58556W        W23541  31.370  36.388   3.399
58557W        W23542  41.547  25.137   0.332
58558W        W23543   8.227  36.404   3.724
58559W        W23544  20.914  21.183   4.610
58560W        W23545  40.754  15.449  11.510
58561W        W23546   1.600   4.707  11.139
58562W        W23547  31.047  43.360   3.671
58563W        W23548   0.256  28.316   4.771
58564W        W23549  42.422  41.936  13.313
58565W        W23550  41.534  31.208  12.600
58566W        W23551   7.839  13.233  12.129
58567W        W23552  18.343  16.574   2.293
58568W        W23553  32.434   5.720  12.895
58569W        W23554  25.597  28.504  11.577
58570W        W23555   5.204  28.832  11.118
58571W        W23556  30.729  30.112  13.393
58572W        W23557  28.122  20.645  10.513
58573W        W23558  33.647  43.996  10.823
58574W        W23559   1.382   9.665  12.115
58575W        W23560  30.115  27.620   2.200
58576W        W23561  34.530  12.164  11.992
58577W        W23562  39.997  41.972   1.968
58578W        W23563  30.922   8.231  14.545
58579W        W23564  35.504  42.524  13.794
58580W        W23565   7.879   8.386  13.835
58581W        W23566   9.696   4.118   4.550
58582W        W23567   3.786  41.822  12.574
58583W        W23568  20.751  32.314  14.888
58584W        W23569  11.598   0.664  10.342
58585W        W23570  24.954  34.795  13.030
58586W        W23571  37.938  16.354   1.383
58587W        W23572  11.243   5.311   4.626
58588W        W23573  11.312   0.511   4.079
58589W        W23574  11.418  32.005   3.815
58590W        W23575  28.439  38.934   4.587
58591W        W23576  11.848  20.008   1.935
58592W        W23577  21.920   5.388  14.535
58593W        W23578  17.645   2.429   0.248
58594W        W23579  30.985  39.466   4.671
58595W        W23580   7.318  12.688   3.264
58596W        W23581   1.124  40.971  13.019
58597W        W23582   6.234  11.373  13.448
58598W        W23583  16.757  16.824  12.586
58599W        W23584  17.850   7.738  13.275
58600W        W23585   7.961  28.491  14.996
58601W        W23586  15.536  44.733  11.676
58602W        W23587   7.940   9.311   0.293
58603W        W23588   9.826  20.208   4.750
58604W        W23589   0.611   4.926  13.030
58605W        W23590  33.857  38.085   0.819
58606W        W23591  22.965  26.738  14.283
58607W        W23592  23.151  21.392   3.327
58608W        W23593   4.817  22.178   5.127
58609W        W23594  29.767   9.879  12.995
58610W        W23595   1.694  40.532  10.991
58611W        W23596  28.208  17.116  12.995
58612W        W23597  32.008  22.780  11.966
58613W        W23598  44.373   9.136   2.275
58614W        W23599   9.691  21.231   0.281
58615W        W23600  25.044  36.928   1.832
58616W        W23601  33.030   0.419   4.283
58617W        W23602  39.837  12.374   2.737
58618W        W23603   1.596  43.585   1.283
58619W        W23604  40.879   8.784  14.031
58620W        W23605  26.690  44.570   5.506
58621W        W23606  26.439  21.597   1.700
58622W        W23607  39.337  16.317   4.202
58623W        W23608  32.422  17.243   0.789
58624W        W23609  28.258  37.790   2.703
58625W        W23610  29.689  44.283  12.885
58626W        W23611  41.996  20.653  10.813
58627W        W23612   9.313  19.624   3.920
58628W        W23613  13.313   7.263  13.209
58629W        W23614  21.438  24.539  12.496
58630W        W23615  16.672  29.122   4.101
58631W        W23616   0.418  28.573   3.501
58632W        W23617   8.836   8.954   1.936
58633W        W23618  29.196  40.854   4.684
58634W        W23619  23.090  34.097  12.791
58635W        W23620   1.975  39.104  12.044
58636W        W23621  14.622  31.800  13.615
58637W        W23622  26.117  12.679  10.616
58638W        W23623  40.434   5.152   0.213
58639W        W23624  21.029   8.178   3.357
58640W        W23625  17.654  26.438  14.042
58641W        W23626   2.317  34.458  14.262
58642W        W23627  20.220  31.772  11.176
58643W        W23628  27.056   2.956  13.343
58644W        W23629  16.168   7.243  13.898
58645W        W23630   3.541  13.135  11.245
58646W        W23631  11.972  38.480  13.118
58647W        W23632  17.733   6.448  14.129
58648W        W23633  37.857  36.802  10.723
58649W        W23634  22.650   6.903   3.794
58650W        W23635  33.634  19.885  11.973
58651W        W23636  43.786  25.716  11.059
58652W        W23637  22.747  14.829  11.609
58653W        W23638  22.663  41.322   3.708
58654W        W23639   6.800  44.353   0.906
58655W        W23640  40.603  32.441   5.326
58656W        W23641  33.985  33.963  14.866
58657W        W23642  28.966  11.535   4.227
58658W        W23643  27.048  30.661   2.607
58659W        W23644  34.027  18.558   2.848
58660W        W23645  38.849  41.358  11.287
58661W        W23646  35.124  10.757  11.211
58662W        W23647  40.605  37.494  11.922
58663W        W23648   4.890   4.002  11.950
58664W        W23649  19.404  16.687  12.317
58665W        W23650  32.661  31.509  11.784
58666W        W23651  19.067   3.874   1.329
58667W        W23652   5.333  35.293  12.639
58668W        W23653  22.528   7.187   4.764
58669W        W23654  12.904   8.153  10.230
58670W        W23655  40.471  29.609   4.853
58671W        W23656   4.498  26.050  11.247
58672W        W23657  39.393  15.063   0.045
58673W        W23658   2.274  22.082   1.333
58674W        W23659  26.188  26.202  12.335
58675W        W23660  32.929  16.807  12.115
58676W        W23661   8.326  32.387  11.096
58677W        W23662  34.059  30.079   0.635
58678W        W23663  32.973  22.329  12.012
58679W        W23664  23.495  19.552  12.420
58680W        W23665   1.995   4.046  12.383
58681W        W23666  36.220  16.250  13.335
58682W        W23667  21.062  38.344  14.228
58683W        W23668  40.834  23.561   3.721
58684W        W23669  15.280  40.832  11.077
58685W        W23670   5.932  23.552  11.629
58686W        W23671  30.717  11.312  12.540
58687W        W23672  35.652  44.072   1.049
58688W        W23673   2.698   8.400   3.207
58689W        W23674  33.076   0.336   3.780
58690W        W23675   3.226   6.331   2.264
58691W        W23676  31.192  34.578   3.701
58692W        W23677  11.074  24.200   1.638
58693W        W23678  34.184  38.956   3.149
58694W        W23679   8.771   3.411  11.197
58695W        W23680   6.321  20.721  13.146
58696W        W23681  19.609  33.161  12.030
58697W        W23682   6.825   3.306  12.607
58698W        W23683  40.719  33.363   2.775
58699W        W23684   9.170  40.275   3.801
58700W        W23685  23.745   7.307  12.137
58701W        W23686   2.369  23.700  14.951
58702W        W23687  29.712   1.419   4.612
58703W        W23688   0.356  28.659  11.103
58704W        W23689   3.972  10.226   3.730
58705W        W23690  10.410  27.846  14.402
58706W        W23691   4.867  39.224   0.823
58707W        W23692  22.196  44.553   1.791
58708W        W23693  20.071  13.094   4.671
58709W        W23694  19.170  14.305  12.053
58710W        W23695  29.809  28.365   1.335
58711W        W23696  41.932  13.119   1.829
58712W        W23697  34.765  41.753  14.122
58713W        W23698   7.376  11.602  12.076
58714W        W23699  29.867  18.292  11.609
58715W        W23700  38.197   0.832   4.398
58716W        W23701  11.344  31.045  13.548
58717W        W23702   0.400   3.340  11.672
58718W        W23703  20.118  38.014   2.456
58719W        W23704  34.991  29.237  11.154
58720W        W23705  12.118  30.466   2.816
58721W        W23706   3.262  19.292   4.153
58722W        W23707  43.016  30.162   4.667
58723W        W23708   3.968   8.327   2.738
58724W        W23709  27.979  12.030  14.803
58725W        W23710  28.211  21.937  12.227
58726W        W23711   2.370  11.227   1.214
58727W        W23712  38.409   8.873  12.958
58728W        W23713  22.733   8.350   4.378
58729W        W23714  25.892  33.468   0.801
58730W        W23715  15.881  29.925   1.838
58731W        W23716  33.296  20.706  13.037
58732W        W23717  16.788  39.556  12.045
58733W        W23718  10.632   0.941  10.277
58734W        W23719   0.528  43.827  13.990
58735W        W23720  44.514  23.661  14.559
58736W        W23721  33.474  36.934  14.896
58737W        W23722   4.829  18.069  14.571
58738W        W23723  35.737   7.393  11.684
58739W        W23724  25.211  44.396  13.290
58740W        W23725  17.840  11.356   1.810
58741W        W23726  35.698  39.365   2.843
58742W        W23727  10.810   7.281   3.319
58743W        W23728  25.200  20.200   3.844
58744W        W23729  44.565  14.509   1.888
58745W        W23730   0.570  15.940   0.709
58746W        W23731  11.126   5.174  12.491
58747W        W23732  29.277  23.712  12.920
58748W        W23733   4.852  26.417   3.413
58749W        W23734  40.475  18.854  10.654
58750W        W23735  18.430  28.577  14.687
58751W        W23736  10.648  11.382   9.874
58752W        W23737  16.101  31.569  12.636
58753W        W23738  21.131  21.228  12.049
58754W        W23739  11.668   6.385   3.646
58755W        W23740   6.761  28.348   3.813
58756W        W23741  28.377  40.498   1.954
58757W        W23742   0.509  35.882   3.187
58758W        W23743  42.904  26.983  14.509
58759W        W23744   8.317  37.132   3.066
58760W        W23745  23.924  10.699   2.118
58761W        W23746   2.230  12.905   4.184
58762W        W23747  21.066   4.649  12.413
58763W        W23748  18.158  20.257   2.486
58764W        W23749  44.828  16.800   1.453
58765W        W23750  40.310  30.805   2.684
58766W        W23751   6.840  37.963   0.965
58767W        W23752  13.207  12.920   0.184
58768W        W23753  22.516  28.185  11.420
58769W        W23754  44.252  41.633  10.508
58770W        W23755  13.883   4.889  14.784
58771W        W23756  28.063  14.468  13.349
58772W        W23757  18.295  30.900   0.975
58773W        W23758   2.182   7.963   4.628
58774W        W23759  21.585  24.077  11.153
58775W        W23760   2.815   7.616  11.248
58776W        W23761  38.939  38.067  13.994
58777W        W23762  44.691  19.203  12.033
58778W        W23763   7.824   7.680   3.110
58779W        W23764  37.489   6.978  10.166
58780W        W23765  22.776  22.020   1.137
58781W        W23766  15.782   3.545   5.564
58782W        W23767   7.900  18.972   4.547
58783W        W23768  38.856  38.571   2.388
58784W        W23769  30.029  18.675   2.636
58785W        W23770   0.467   7.900  11.529
58786W        W23771  39.296  19.204  14.091
58787W        W23772   7.149   2.790  13.806
58788W        W23773   8.694  28.923  13.881
58789W        W23774  29.276  31.013   4.360
58790W        W23775  40.422  20.780  13.307
58791W        W23776  23.459  24.715   4.557
58792W        W23777  26.508  29.609   2.791
58793W        W23778  22.037  38.942  12.574
58794W        W23779  22.984  20.499   4.357
58795W        W23780   0.248  44.452   0.723
58796W        W23781  42.004  21.721   1.165
58797W        W23782  14.796  24.600  13.195
58798W        W23783  24.095  33.633   4.527
58799W        W23784  10.696  30.266   2.692
58800W        W23785  12.646  37.140   0.994
58801W        W23786  33.641   2.808  13.400
58802W        W23787  27.438  25.204  13.538
58803W        W23788  43.480  17.633   1.698
58804W        W23789  18.111  15.550   2.690
58805W        W23790  42.550  39.471  13.446
58806W        W23791   0.725   9.331  10.457
58807W        W23792  40.426  38.791  10.690
58808W        W23793   8.148  25.683  14.786
58809W        W23794  34.115  21.632  12.102
58810W        W23795   1.298  36.263  11.856
58811W        W23796   2.900  24.323   4.927
58812W        W23797  29.097   6.974   4.321
58813W        W23798  35.400  23.234  13.782
58814W        W23799  21.679   3.902  13.132
58815W        W23800  19.082   6.403  14.502
58816W        W23801  42.705  27.092  11.559
58817W        W23802  27.591  14.768  14.224
58818W        W23803  26.051  44.280  12.980
58819W        W23804  21.587   6.206   1.868
58820W        W23805  18.229  15.290  12.406
58821W        W23806  41.938  44.858  11.365
58822W        W23807  35.418  37.533   0.360
58823W        W23808  26.698  36.099   0.146
58824W        W23809   0.845   6.195   2.382
58825W        W23810  24.260   5.371  12.991
58826W        W23811  15.774  18.616   2.643
58827W        W23812  29.494  35.549  13.777
58828W        W23813  12.173  38.777  13.544
58829W        W23814  24.984   0.872  10.769
58830W        W23815   5.658  20.509   1.891
58831W        W23816  42.234   5.315   3.442
58832W        W23817   3.943  43.587   0.384
58833W        W23818  36.022  19.665  14.727
58834W        W23819  14.907  36.815  11.236
58835W        W23820  34.322  37.713  13.647
58836W        W23821   9.744  25.472  13.699
58837W        W23822   2.124  35.235  13.847
58838W        W23823   2.016  16.490   0.771
58839W        W23824  37.869   6.704  11.451
58840W        W23825   3.446  13.265  13.449
58841W        W23826  12.332   7.337  14.249
58842W        W23827  19.415  40.982  12.658
58843W        W23828  23.655  33.544  11.319
58844W        W23829   0.328  29.724   0.534
58845W        W23830  27.418   4.334   4.190
58846W        W23831  13.795  31.653  13.510
58847W        W23832  14.257  27.489   0.398
58848W        W23833  18.243  16.844   0.581
58849W        W23834  32.888  38.020  12.476
58850W        W23835  24.228  20.338   0.256
58851W        W23836  40.827  39.462  10.302
58852W        W23837  25.524  16.914   5.001
58853W        W23838  44.933  26.526   9.702
58854W        W23839  33.082  43.300  10.852
58855W        W23840   6.026   6.858   3.324
58856W        W23841  21.965   0.137  11.275
58857W        W23842  12.717  27.256   2.564
58858W        W23843   0.337   9.758   3.970
58859W        W23844  25.204   9.164   1.455
58860W        W23845  43.670   8.057  13.874
58861W        W23846  37.139  40.283   0.752
58862W        W23847  28.094  32.408  11.669
58863W        W23848   9.684  28.573  11.564
58864W        W23849   8.257  25.496  13.114
58865W        W23850  25.885   3.376  12.040
58866W        W23851  31.221   2.412  10.919
58867W        W23852  42.504  29.184  14.223
58868W        W23853  40.282   7.507  14.919
58869W        W23854   8.203  12.963  11.362
58870W        W23855   3.155  14.085   3.827
58871W        W23856   1.270  32.753  12.569
58872W        W23857   1.276   5.014  13.701
58873W        W23858  18.524  44.003  14.963
58874W        W23859   7.789   1.134   4.110
58875W        W23860  27.114  19.594  12.005
58876W        W23861  16.761   2.345  12.013
58877W        W23862  25.833   8.973  11.135
58878W        W23863  15.694  33.615   0.958
58879W        W23864  43.418  26.723  13.459
58880W        W23865   9.258   8.767  10.711
58881W        W23866   8.940  43.374   0.723
58882W        W23867   1.808  33.512  14.484
58883W        W23868  28.960  28.198  13.405
58884W        W23869  12.195  30.139  12.003
58885W        W23870  18.461  15.916   1.794
58886W        W23871  25.226   5.754   1.038
58887W        W23872  11.183  18.349  10.973
58888W        W23873   0.970  22.556   4.724
58889W        W23874  13.280  11.213  10.520
58890W        W23875  18.520   1.975  11.925
58891W        W23876   9.740  28.779   1.345
58892W        W23877  28.895  35.395   0.431
58893W        W23878  11.438  39.512   2.241
58894W        W23879  22.828  14.856   1.019
58895W        W23880  17.588  43.216  10.582
58896W        W23881  15.661  43.178  11.040
58897W        W23882   2.691  20.244   2.236
58898W        W23883   9.296  28.482   1.704
58899W        W23884   7.625  12.831   4.134
58900W        W23885  14.882   0.706   1.895
58901W        W23886  26.133  33.548   4.594
58902W        W23887  10.640  35.010   2.557
58903W        W23888  25.991  33.037  10.465
58904W        W23889  42.483  30.592  13.073
58905W        W23890   6.469   4.415   2.894
58906W        W23891  12.208  42.318   1.235
58907W        W23892  41.053  15.904   1.770
58908W        W23893   6.598  43.257  13.370
58909W        W23894  15.119  35.858  12.141
58910W        W23895  37.635   4.778  13.523
58911W        W23896  42.938  43.707  11.142
58912W        W23897  25.786  29.701   1.264
58913W        W23898   4.873  39.567  13.432
58914W        W23899  33.962  13.341  14.464
58915W        W23900  25.018   2.402  10.247
58916W        W23901  11.771  44.737  14.912
58917W        W23902  25.755  29.968   0.295
58918W        W23903  39.321  35.907   1.787
58919W        W23904  11.114  19.182  11.013
58920W        W23905  36.545  12.861  11.722
58921W        W23906  16.103  22.059  12.941
58922W        W23907  26.318   7.232  13.359
58923W        W23908   4.757  11.512   2.346
58924W        W23909  30.439  12.742  11.421
58925W        W23910   6.824  24.682   2.007
58926W        W23911  22.735  31.867  13.947
58927W        W23912   4.971  19.253   2.711
58928W        W23913  21.187  40.372  12.423
58929W        W23914  17.300  35.847   1.895
58930W        W23915  21.959   6.160  12.406
58931W        W23916  10.960  15.278  14.647
58932W        W23917  29.693  25.911   1.600
58933W        W23918   1.828  20.000  12.422
58934W        W23919   1.950  39.386   2.739
58935W        W23920  31.919  36.801   4.762
58936W        W23921  33.381  16.912   0.337
58937W        W23922   6.282  36.528  13.026
58938W        W23923  35.562   6.436   3.637
58939W        W23924  31.525  23.060  14.862
58940W        W23925  36.551  24.524   1.263
58941W        W23926   1.467  24.004  10.927
58942W        W23927   2.015   3.860   3.106
58943W        W23928  26.246  28.270   4.043
58944W        W23929  25.599  27.132  11.600
58945W        W23930   2.436  16.057  13.782
58946W        W23931  26.639  35.982   4.680
58947W        W23932  12.638   1.339  11.627
58948W        W23933  21.688  41.525  12.389
58949W        W23934  15.559  37.870   3.269
58950W        W23935  16.022  10.195   3.270
58951W        W23936  18.473   7.407   2.085
58952W        W23937  30.960  31.650  13.579
58953W        W23938   5.836  22.916   1.529
58954W        W23939  20.994  43.679  10.357
58955W        W23940  43.417  43.174  11.642
58956W        W23941  44.560  13.091   3.946
58957W        W23942  29.154  23.519   2.362
58958W        W23943  27.717  37.058  12.925
58959W        W23944   0.187  22.160   0.424
58960W        W23945  40.333  12.852  11.467
58961W        W23946  25.322  19.202   3.105
58962W        W23947   0.970  26.485   1.788
58963W        W23948  34.192  40.889   4.707
58964W        W23949  36.339  24.191   2.397
58965W        W23950  43.390  37.956  11.169
58966W        W23951  25.263   8.215   1.271
58967W        W23952   1.839  23.652   4.725
58968W        W23953   3.310   1.004   1.299
58969W        W23954   0.879  38.008   4.880
58970W        W23955  26.508  44.419  10.670
58971W        W23956   0.738   9.878   1.062
58972W        W23957  13.859  24.788   2.730
58973W        W23958  19.580  13.244  11.438
58974W        W23959  26.769  22.004   2.585
58975W        W23960   6.839  27.512   0.786
58976W        W23961   1.317  33.806  13.048
58977W        W23962  20.458  26.133   2.395
58978W        W23963   3.284  14.750   2.889
58979W        W23964  21.788  43.947  14.559
58980W        W23965  40.988  22.423  14.838
58981W        W23966  15.607  30.528  13.884
58982W        W23967  15.755  20.947  11.691
58983W        W23968   2.794  20.762  12.859
58984W        W23969  31.357   4.876  14.469
58985W        W23970  32.184  30.222   0.395
58986W        W23971  19.248  21.335   0.729
58987W        W23972  36.960  21.726   1.830
58988W        W23973  34.102   6.344   5.172
58989W        W23974  18.127  25.530  11.947
58990W        W23975  25.735  40.793  10.442
58991W        W23976  37.265  22.077   4.252
58992W        W23977  16.452   4.038  12.439
58993W        W23978   6.362  18.674  11.949
58994W        W23979  11.910  25.885  11.532
58995W        W23980  11.486  16.209  12.459
58996W        W23981  27.406  44.840   4.712
58997W        W23982  24.548  22.829  11.272
58998W        W23983  34.917  12.814  14.406
58999W        W23984  28.655  23.661  12.062
59000W        W23985   2.845  18.348  11.272
59001W        W23986   8.329  23.414  14.189
59002W        W23987   5.705   0.098   4.618
59003W        W23988  33.868  25.648   0.630
59004W        W23989  44.221  21.654   4.077
59005W        W23990  36.066  11.046  14.055
59006W        W23991  27.181  26.783  12.878
59007W        W23992   6.205  41.909   1.337
59008W        W23993  39.103  44.493  14.331
59009W        W23994  16.188  30.061  10.409
59010W        W23995  11.377  10.956   2.216
59011W        W23996  31.445  35.430  10.691
59012W        W23997  26.485  17.696  12.205
59013W        W23998  33.970  29.008   3.297
59014W        W23999  26.611  43.822  10.691
59015W        W24000  35.034  30.014   3.631
59016W        W24001  21.322  25.126  12.661
59017W        W24002   9.025  34.120  14.441
59018W        W24003  38.645  39.646  10.137
59019W        W24004  31.040  24.810   2.176
59020W        W24005   1.217   7.332   4.325
59021W        W24006  44.370  20.090   3.330
59022W        W24007   5.692  44.915   0.881
59023W        W24008  13.106  27.448  12.473
59024W        W24009   3.882  39.900   1.278
59025W        W24010  25.054  36.031  12.580
59026W        W24011  27.512  29.902   2.335
59027W        W24012  30.187  28.084   2.685
59028W        W24013  34.089   0.236  13.339
59029W        W24014   6.304  43.710   3.822
59030W        W24015  16.086  43.027   4.593
59031W        W24016  37.794  15.759  13.033
59032W        W24017  37.507  11.881  12.133
59033W        W24018  24.533  41.416  12.989
59034W        W24019   1.785  32.424   2.141
59035W        W24020   1.494  44.051   0.861
59036W        W24021  40.201  24.234   3.028
59037W        W24022   0.523  25.310  14.814
59038W        W24023  15.347  38.835  14.951
59039W        W24024  11.684  17.585   0.135
59040W        W24025  33.284  20.281  12.095
59041W        W24026  22.983   9.466   3.371
59042W        W24027  31.941  25.928   0.475
59043W        W24028  33.618   7.788   1.889
59044W        W24029  35.882  14.003  13.044
59045W        W24030  29.648  32.365   1.534
59046W        W24031  40.493  25.722  14.446
59047W        W24032  21.933  21.135   2.949
59048W        W24033  27.050   8.901   0.437
59049W        W24034  31.621  22.568   5.257
59050W        W24035   6.182  35.431   4.914
59051W        W24036   9.622  22.749   1.795
59052W        W24037  19.292  43.194   4.527
59053W        W24038  17.122  26.916   9.859
59054W        W24039  28.759  35.377   4.288
59055W        W24040   3.892  22.984   0.894
59056W        W24041  14.993   9.390  12.645
59057W        W24042  39.135  18.039   2.973
59058W        W24043  41.553  28.725  12.800
59059W        W24044  30.390  42.054  11.639
59060W        W24045   5.466  20.977   5.086
59061W        W24046  35.098   7.901  14.335
59062W        W24047  10.118  35.825   0.449
59063W        W24048   6.235  41.850  13.284
59064W        W24049  42.190  14.156  11.989
59065W        W24050  40.068  12.344   1.825
59066W        W24051  42.729   8.820  14.261
59067W        W24052   9.826  18.507   1.254
59068W        W24053   8.734  10.903   1.458
59069W        W24054  25.503  41.392   4.608
59070W        W24055  40.376   0.840   3.691
59071W        W24056  25.693  19.097   2.742
59072W        W24057  11.194  40.502  11.944
59073W        W24058  43.590   6.689  13.792
59074W        W24059  40.476   2.513   0.750
59075W        W24060  34.510  10.233   0.252
59076W        W24061   7.536   4.601  10.368
59077W        W24062  23.935  14.581   3.651
59078W        W24063  41.438  20.695  10.929
59079W        W24064  34.141  20.052   4.649
59080W        W24065  12.902   4.818   2.101
59081W        W24066  42.892  41.065   3.728
59082W        W24067  18.555  42.464  12.211
59083W        W24068   3.973  12.285  11.965
59084W        W24069  16.238  13.406  11.726
59085W        W24070  28.236  15.882   2.389
59086W        W24071  35.457  21.649  13.523
59087W        W24072  34.406   3.387  14.358
59088W        W24073  26.150  44.789  11.644
59089W        W24074  34.505  36.650  10.683
59090W        W24075  17.728  23.747   1.411
59091W        W24076  43.520  24.740  11.839
59092W        W24077   7.790  28.888  10.555
59093W        W24078  12.309  25.359   0.939
59094W        W24079  14.641  41.060   3.636
59095W        W24080  27.583   2.982   1.326
59096W        W24081  38.474  28.312  14.411
59097W        W24082  26.266  36.891   0.313
59098W        W24083  36.470  17.316   0.729
59099W        W24084  11.381   1.897   2.692
59100W        W24085  31.525   5.478   1.472
59101W        W24086   2.983   1.365  11.609
59102W        W24087  31.371  18.966   0.954
59103W        W24088  34.628  14.742   2.208
59104W        W24089  30.990  25.632  14.578
59105W        W24090  44.481  40.302  11.124
59106W        W24091  36.647  22.222   1.406
59107W        W24092  18.121  11.737   0.055
59108W        W24093  26.492  11.034   4.023
59109W        W24094  39.318   5.062   3.130
59110W        W24095  34.670  14.506  12.991
59111W        W24096  26.940   3.406  12.039
59112W        W24097  19.103   6.729   1.422
59113W        W24098   2.374   3.736   1.785
59114W        W24099  29.479  17.766  11.095
59115W        W24100  31.591  33.458   4.323
59116W        W24101   5.451   2.477  10.734
59117W        W24102   7.143  24.248   2.281
59118W        W24103   5.971  24.506  13.505
59119W        W24104  39.169  26.509  14.472
59120W        W24105  24.678  29.130  14.970
59121W        W24106  14.289  35.522  13.110
59122W        W24107  16.532  14.185  14.108
59123W        W24108   0.951  24.913   1.911
59124W        W24109  26.931  16.921   2.378
59125W        W24110  21.812   9.868  14.293
59126W        W24111  42.820  35.494   1.802
59127W        W24112  41.497  18.819  10.818
59128W        W24113   0.939   9.493   0.771
59129W        W24114  34.176   8.079   4.500
59130W        W24115  40.275  22.439   1.917
59131W        W24116  35.355  18.559  14.174
59132W        W24117  41.556  43.234  11.695
59133W        W24118  35.146   4.505   0.330
59134W        W24119  32.417  37.926  13.390
59135W        W24120  16.167  14.587  12.475
59136W        W24121  43.368  40.877   4.437
59137W        W24122  37.128   8.474   5.023
59138W        W24123  27.467  27.987  11.626
59139W        W24124   9.367  24.735  13.357
59140W        W24125  35.566  23.813   0.705
59141W        W24126  31.038  29.987   4.568
59142W        W24127  19.034  27.640   3.643
59143W        W24128  17.620  22.094   4.207
59144W        W24129  39.742  43.360   4.569
59145W        W24130  32.471  34.875   1.888
59146W        W24131  40.019  33.990  13.441
59147W        W24132  13.676  32.676   1.280
59148W        W24133   5.981  14.120  12.970
59149W        W24134  29.460  28.030   4.404
59150W        W24135  18.169   5.419   2.400
59151W        W24136  30.101  10.339   3.565
59152W        W24137   5.182  18.178  12.556
59153W        W24138   6.778  25.130   0.848
59154W        W24139  11.610   8.819  14.891
59155W        W24140  39.403  43.523  14.529
59156W        W24141   6.652  25.166  10.601
59157W        W24142  28.692   1.364   1.357
59158W        W24143  33.441  38.476   3.199
59159W        W24144  22.666  37.294  12.878
59160W        W24145  26.136  25.459  14.884
59161W        W24146  37.807  20.288   1.675
59162W        W24147  38.417  36.558  11.149
59163W        W24148   8.560   9.397   2.482
59164W        W24149  11.012  34.090  12.095
59165W        W24150  23.713  21.270   4.061
59166W        W24151  24.100  18.601   2.078
59167W        W24152  33.590  39.940  11.400
59168W        W24153   3.599  37.074  10.876
59169W        W24154  10.336   4.791  12.496
59170W        W24155  17.034   8.818  13.495
59171W        W24156  17.007  33.029   3.326
59172W        W24157  24.493  28.133  13.877
59173W        W24158  10.927  24.628   3.588
59174W        W24159  41.878   0.550   2.162
59175W        W24160  35.070  24.234   4.275
59176W        W24161   2.032  10.288   1.059
59177W        W24162   9.755  36.295  14.786
59178W        W24163   7.196  27.418  13.925
59179W        W24164  12.109  37.872   2.234
59180W        W24165   8.786   1.462   2.535
59181W        W24166  35.051  18.769   3.074
59182W        W24167  44.827  30.145  14.324
59183W        W24168   2.136  23.938   0.349
59184W        W24169  39.670   2.415  12.002
59185W        W24170  17.776  18.656  10.989
59186W        W24171   6.931  25.622   0.644
59187W        W24172  43.397  39.643   0.121
59188W        W24173  28.590  31.736   0.936
59189W        W24174  14.134  33.326   1.853
59190W        W24175  13.702  29.968   1.507
59191W        W24176  13.584  16.774   1.251
59192W        W24177  18.636  32.568  12.082
59193W        W24178   8.087   5.218  12.899
59194W        W24179  34.800  41.069  12.432
59195W        W24180  33.835  40.914  13.422
59196W        W24181  40.271   1.462   4.092
59197W        W24182  18.087  32.905  12.817
59198W        W24183  25.332  22.226  13.695
59199W        W24184  22.337  35.148  14.267
59200W        W24185   9.866  30.587  12.775
59201W        W24186  16.782  16.614  13.616
59202W        W24187  12.704  17.470  12.048
59203W        W24188  32.277  39.612   0.783
59204W        W24189   3.437  29.411   0.808
59205W        W24190  23.770  41.919  13.401
59206W        W24191  13.845  22.594  10.854
59207W        W24192  38.041  42.903  13.001
59208W        W24193  27.056  30.162   2.469
59209W        W24194  16.292  39.988  12.359
59210W        W24195  41.509  11.112  10.740
59211W        W24196   5.247  24.244   2.459
59212W        W24197  21.987  37.032  13.901
59213W        W24198  29.704   8.347  13.842
59214W        W24199  25.136  26.607  13.902
59215W        W24200   7.650  38.836   0.323
59216W        W24201  35.376  23.508   1.857
59217W        W24202  11.187  28.946  11.611
59218W        W24203  42.522  21.819   1.195
59219W        W24204  32.512  35.463  13.561
59220W        W24205  11.144  39.007  14.013
59221W        W24206  21.784   6.029   9.873
59222W        W24207  18.036  15.653   0.870
59223W        W24208  16.112  41.011  10.483
59224W        W24209  27.068   8.566   2.303
59225W        W24210  24.146  44.797   4.499
59226W        W24211  40.299   4.843  12.860
59227W        W24212  30.624   4.432   4.823
59228W        W24213   6.131  41.911   4.032
59229W        W24214   9.160  18.755  12.515
59230W        W24215  20.667   7.309  12.114
59231W        W24216  19.193  12.187   3.797
59232W        W24217  34.297  31.157   0.303
59233W        W24218  29.633  42.134   2.748
59234W        W24219  15.235  43.348  10.425
59235W        W24220  10.140  22.368   3.124
59236W        W24221  28.081  27.982   0.890
59237W        W24222   1.482  29.574   0.978
59238W        W24223  19.783  35.549  13.870
59239W        W24224  17.103  23.218  11.370
59240W        W24225  42.728  23.196  10.713
59241W        W24226  43.920  43.410   3.283
59242W        W24227   6.667   0.411   0.095
59243W        W24228  27.280  12.861  11.662
59244W        W24229   1.437  16.244   3.789
59245W        W24230   1.906  20.154   5.097
59246W        W24231   3.003  43.732   1.184
59247W        W24232  31.293  34.800   4.144
59248W        W24233  19.823  18.042   3.174
59249W        W24234  35.888  26.480   0.740
59250W        W24235  18.683  34.846   3.838
59251W        W24236  38.289  10.717  12.056
59252W        W24237   4.148  10.900  12.016
59253W        W24238  27.562  24.148  11.408
59254W        W24239  36.130   3.395  11.651
59255W        W24240  14.577  23.723  10.752
59256W        W24241   1.826   6.921   3.970
59257W        W24242  10.624  12.529   2.701
59258W        W24243   4.451  18.331  13.035
59259W        W24244  40.288  26.163  12.566
59260W        W24245   6.244  41.449   2.080
59261W        W24246   0.812  32.369  13.863
59262W        W24247  44.848  40.031  10.867
59263W        W24248  36.058   8.437   2.555
59264W        W24249   8.626  26.981  10.753
59265W        W24250  14.303  15.487   2.767
59266W        W24251   6.212   1.433   1.719
59267W        W24252   3.695  31.585   0.262
59268W        W24253  17.630  41.504  12.392
59269W        W24254  23.153   8.811   1.312
59270W        W24255  11.886  25.963  10.664
59271W        W24256  38.786  27.947   3.217
59272W        W24257   6.162  13.106  13.071
59273W        W24258  12.426   6.110  11.671
59274W        W24259  12.650  17.105   2.039
59275W        W24260  11.981  15.626   5.163
59276W        W24261   6.965  33.055  12.338
59277W        W24262  25.319  44.443  11.575
59278W        W24263  28.269   9.473   4.355
59279W        W24264  26.232  34.537  14.423
59280W        W24265  20.619  34.533  10.654
59281W        W24266   6.191  13.895  12.132
59282W        W24267  37.310  41.004  13.560
59283W        W24268  30.902  34.297   4.038
59284W        W24269  41.910  29.575  12.396
59285W        W24270   7.856  29.505  14.833
59286W        W24271   9.104  30.325   5.049
59287W        W24272  41.313  25.948   1.064
59288W        W24273   1.012  37.914  12.497
59289W        W24274  44.301   2.273   1.747
59290W        W24275  20.656  14.094   4.959
59291W        W24276  33.710   7.960  14.325
59292W        W24277  40.321  25.012   4.172
59293W        W24278   9.433   9.619   0.472
59294W        W24279   3.910   5.407   0.811
59295W        W24280  36.525  27.410  14.466
59296W        W24281  12.650  28.511  12.113
59297W        W24282  26.288  41.750   4.052
59298W        W24283  31.907  38.766   0.636
59299W        W24284  34.906  31.831   3.382
59300W        W24285   4.809  42.841  13.877
59301W        W24286  27.204   4.637  12.463
59302W        W24287  37.385  10.980   0.922
59303W        W24288  35.622   4.640   3.156
59304W        W24289  22.386  13.306   0.057
59305W        W24290  15.323  44.033   4.999
59306W        W24291  30.849  36.014  10.285
59307W        W24292   7.810  16.500   2.882
59308W        W24293  18.542  16.698  11.074
59309W        W24294  13.885   5.972   4.671
59310W        W24295  27.966  32.311   1.480
59311W        W24296   5.598  10.484   1.954
59312W        W24297   2.996  43.430  13.951
59313W        W24298  27.497  20.296  13.126
59314W        W24299  26.217  40.098   3.848
59315W        W24300   3.343  27.366   1.842
59316W        W24301  42.433  24.003   4.358
59317W        W24302   9.722   6.162  11.633
59318W        W24303  13.138   5.911   0.453
59319W        W24304  19.569  24.719  10.416
59320W        W24305  40.440  32.814   3.608
59321W        W24306  24.404   6.491   3.192
59322W        W24307  36.759  35.115   1.414
59323W        W24308  40.271  43.920  12.465
59324W        W24309  23.666  30.606   1.777
59325W        W24310  13.046  24.661   3.179
59326W        W24311  10.118  17.069   0.300
59327W        W24312   1.116  24.884  14.377
59328W        W24313  19.140  30.882   0.500
59329W        W24314  40.053  20.670  10.271
59330W        W24315  33.350   7.355   4.050
59331W        W24316  18.336   3.833   1.956
59332W        W24317  20.224  33.852   3.651
59333W        W24318  30.971  23.497   1.628
59334W        W24319  24.126  37.823   3.181
59335W        W24320   0.858   9.453   1.393
59336W        W24321  16.232  24.649  12.076
59337W        W24322  37.447   1.774  12.627
59338W        W24323  32.944  37.299  12.147
59339W        W24324  24.406   1.697  13.264
59340W        W24325  30.897  19.746   1.187
59341W        W24326  38.004  32.077  13.927
59342W        W24327  43.865  16.265   3.172
59343W        W24328  42.414  22.939  12.604
59344W        W24329  26.060  42.580   4.381
59345W        W24330  41.021  22.608  11.223
59346W        W24331  36.511  39.480   1.933
59347W        W24332   3.529  16.906   4.152
59348W        W24333  35.875  15.246   2.907
59349W        W24334  16.590  44.296   2.284
59350W        W24335  27.240  10.843  14.062
59351W        W24336  25.129  17.557   0.046
59352W        W24337   3.010  34.368  11.567
59353W        W24338  42.393  17.226   1.415
59354W        W24339  35.856  32.024   3.159
59355W        W24340  32.962  41.467   0.032
59356W        W24341  44.862  44.031  13.473
59357W        W24342  35.109   0.434   0.058
59358W        W24343   5.245  42.928   4.150
59359W        W24344   7.154   4.866  11.136
59360W        W24345  38.005  43.905   2.154
59361W        W24346  30.369  28.552   2.840
59362W        W24347  39.856  41.746   2.402
59363W        W24348   0.767  25.672  13.091
59364W        W24349   1.756   5.109   2.890
59365W        W24350   3.476  29.006  12.082
59366W        W24351  44.543  44.940  12.666
59367W        W24352  40.777   6.563  12.926
59368W        W24353  17.631  20.664   3.094
59369W        W24354  37.084  41.829   3.220
59370W        W24355   6.863  42.604   0.340
59371W        W24356  34.194  32.987   4.214
59372W        W24357  16.530   4.187  13.435
59373W        W24358   8.798  15.592   2.222
59374W        W24359   6.435  13.325  13.471
59375W        W24360   2.294   7.021  13.397
59376W        W24361  16.879  19.523  10.395
59377W        W24362  38.440  27.802   0.801
59378W        W24363   7.708  34.270   3.347
59379W        W24364  15.023  26.730  13.437
59380W        W24365  29.911  14.030   1.354
59381W        W24366  18.745  21.626  13.894
59382W        W24367  31.845  16.892  10.712
59383W        W24368  19.605  14.598   3.095
59384W        W24369   6.914  35.580   3.733
59385W        W24370  12.066  26.344  13.298
59386W        W24371   5.791  31.080   0.480
59387W        W24372  38.942  12.041  10.787
59388W        W24373  36.574  32.092   0.307
59389W        W24374  11.834  40.466  14.715
59390W        W24375  11.091  19.956   0.899
59391W        W24376  18.557  24.575   4.775
59392W        W24377  20.681  16.641  12.111
59393W        W24378  23.065  44.229  14.432
59394W        W24379   2.154  36.884  12.937
59395W        W24380   4.276  12.166   2.626
59396W        W24381   4.362  42.402   1.781
59397W        W24382   2.300   1.987   3.252
59398W        W24383  18.046  34.948   1.329
59399W        W24384  44.528  13.630   1.804
59400W        W24385   5.292  36.637  10.950
59401W        W24386  34.880  27.886   4.619
59402W        W24387  37.841   0.656  11.475
59403W        W24388   6.324  33.375   1.732
59404W        W24389  30.169  18.088  14.848
59405W        W24390   4.258  17.058  14.323
59406W        W24391   3.344  21.385   1.684
59407W        W24392  25.610  13.361  13.510
59408W        W24393  14.858  24.062   4.062
59409W        W24394  31.704  36.305  13.350
59410W        W24395   9.541  20.249   2.673
59411W        W24396  33.525  33.373  11.417
59412W        W24397  42.994   9.194  14.539
59413W        W24398   7.475  32.892   3.611
59414W        W24399   7.335  44.234  14.909
59415W        W24400  12.822  38.394   2.470
59416W        W24401  24.971  24.748   2.760
59417W        W24402   5.796  41.908   0.008
59418W        W24403  13.135   6.615  11.973
59419W        W24404  32.644  21.168  12.528
59420W        W24405  39.754  20.597   4.162
59421W        W24406  25.609   1.420  12.306
59422W        W24407  21.075  42.712   3.652
59423W        W24408  16.791  16.804  14.881
59424W        W24409  40.573   4.399  12.913
59425W        W24410  24.462   4.834  10.096
59426W        W24411   7.600  40.808   1.970
59427W        W24412  41.842  36.038  10.106
59428W        W24413   3.704   6.417   4.194
59429W        W24414  22.203  11.937  14.934
59430W        W24415  26.749  23.991   1.808
59431W        W24416  32.409   9.809  13.527
59432W        W24417  39.689  42.055   4.213
59433W        W24418  39.074   4.217  10.349
59434W        W24419  24.017  25.571   2.399
59435W        W24420  32.454   4.768   3.248
59436W        W24421   1.386   6.892   1.137
59437W        W24422  35.697  15.134  11.627
59438W        W24423  21.006  14.674   3.459
59439W        W24424  40.804  44.351   0.595
59440W        W24425  26.051  41.867   3.150
59441W        W24426  33.850   9.851  14.047
59442W        W24427  16.848  31.913   0.795
59443W        W24428  43.182  10.195  12.008
59444W        W24429   7.680  26.515  13.886
59445W        W24430  15.725  14.849  11.630
59446W        W24431  21.057   1.508  12.997
59447W        W24432  44.229  34.896   4.572
59448W        W24433  24.218  39.218   1.421
59449W        W24434  12.815  30.686   4.262
59450W        W24435  18.743  34.142  10.969
59451W        W24436  14.970   1.278   2.979
59452W        W24437  18.030   9.701   2.214
59453W        W24438   1.392  29.613  10.888
59454W        W24439  29.958   0.922   4.621
59455W        W24440  21.880  27.111   4.757
59456W        W24441   9.815  16.543   4.982
59457W        W24442  13.763  31.138  13.423
59458W        W24443  39.694  11.533  10.634
59459W        W24444  14.197  26.097   3.257
59460W        W24445   4.463  25.533  11.750
59461W        W24446  15.290  32.609  11.340
59462W        W24447  14.581  27.054  12.000
59463W        W24448  39.619   1.833  14.026
59464W        W24449  39.117  33.849  13.349
59465W        W24450  15.592  44.131   2.581
59466W        W24451  38.178  29.428  12.928
59467W        W24452  40.526  12.603   3.900
59468W        W24453  32.983  15.201   4.575
59469W        W24454  42.050  24.124  11.723
59470W        W24455  17.413  17.125   2.929
59471W        W24456  12.018  13.184   4.051
59472W        W24457  39.226  15.183   0.893
59473W        W24458  16.000  20.665   5.186
59474W        W24459  30.115  43.594   2.714
59475W        W24460   4.292   9.175  12.047
59476W        W24461  20.147  37.854  10.782
59477W        W24462  18.162   6.960   0.400
59478W        W24463  17.301  32.541   3.219
59479W        W24464  36.775  41.871   0.337
59480W        W24465   3.407  17.538   4.701
59481W        W24466  13.273   3.974  13.964
59482W        W24467  17.104  44.381  12.179
59483W        W24468   7.673  36.830   1.458
59484W        W24469  42.241  18.189   2.301
59485W        W24470  37.467  17.064   3.325
59486W        W24471   3.798   8.752   3.642
59487W        W24472  23.511  27.122   2.371
59488W        W24473  36.653  13.006   0.731
59489W        W24474   1.000  16.262   0.870
59490W        W24475  23.933  22.791  13.348
59491W        W24476  36.459  24.038  13.475
59492W        W24477  37.421  11.165   1.403
59493W        W24478   6.612  29.677  11.038
59494W        W24479  35.562  27.610  10.733
59495W        W24480  18.592   4.125   3.993
59496W        W24481  12.384  34.241  12.597
59497W        W24482  21.921  17.087  12.827
59498W        W24483  12.335  19.714  11.022
59499W        W24484  25.890  19.038  13.097
59500W        W24485  31.779  40.867  11.677
59501W        W24486  28.238  25.953  12.383
59502W        W24487   7.295  34.845  13.447
59503W        W24488  15.832  16.757   2.211
59504W        W24489   6.394  26.585   4.334
59505W        W24490  23.182  27.756  10.929
59506W        W24491   1.971   7.129   4.758
59507W        W24492  21.601   4.915  11.114
59508W        W24493  25.077  19.553   4.603
59509W        W24494  29.602  15.393   4.290
59510W        W24495  34.431  37.778  12.504
59511W        W24496  32.862  15.396   2.765
59512W        W24497  25.525  38.426   1.410
59513W        W24498  12.139  29.201   1.711
59514W        W24499  20.146  23.262  12.930
59515W        W24500  14.160  17.728   2.716
59516W        W24501  12.610  41.827  13.900
59517W        W24502   7.611  12.959   4.707
59518W        W24503  34.398  41.494   2.316
59519W        W24504  24.635  36.053  11.450
59520W        W24505   2.745  33.400   9.799
59521W        W24506  28.127  16.045  10.769
59522W        W24507   1.876   4.123   4.055
59523W        W24508  19.337  29.112  11.541
59524W        W24509  30.906  37.440  14.022
59525W        W24510  12.186  12.097   0.985
59526W        W24511  20.433  30.997  10.784
59527W        W24512  16.369  24.551  13.451
59528W        W24513   7.847  18.257   2.380
59529W        W24514   0.421   9.173   1.475
59530W        W24515   9.835  11.894  14.399
59531W        W24516  25.338   5.663  12.873
59532W        W24517  30.104  31.233  12.941
59533W        W24518  24.425   5.224  12.001
59534W        W24519  22.080   1.537   3.649
59535W        W24520   2.312   2.314  11.608
59536W        W24521  26.759  24.841  14.834
59537W        W24522  39.622  38.385   1.736
59538W        W24523  28.081  44.801   0.178
59539W        W24524   5.943  25.784  13.418
59540W        W24525  17.581  23.176   3.294
59541W        W24526  41.358  36.890  11.026
59542W        W24527   6.802  21.562   3.816
59543W        W24528  20.918   4.807  12.910
59544W        W24529  28.482  13.731  10.711
59545W        W24530  29.983  25.204   0.048
59546W        W24531  28.608   0.331  11.468
59547W        W24532  25.560   7.332  14.935
59548W        W24533  25.714  20.136  14.914
59549W        W24534  14.318   1.954  12.363
59550W        W24535   9.850  38.193  12.030
59551W        W24536  31.074  22.951  11.001
59552W        W24537  19.818  44.413  12.248
59553W        W24538  30.082  28.782   3.226
59554W        W24539   2.592  26.912  10.271
59555W        W24540  41.494  23.079   0.902
59556W        W24541   5.182  25.126   3.822
59557W        W24542   1.651  12.095  14.196
59558W        W24543  23.020  10.612   2.683
59559W        W24544  42.759  25.578  13.221
59560W        W24545  19.545  12.161   3.109
59561W        W24546  23.743   5.743   4.056
59562W        W24547  35.021  10.851   4.618
59563W        W24548   3.778  42.762   0.760
59564W        W24549  34.406  11.713   4.560
59565W        W24550  12.400   7.636  13.803
59566W        W24551  40.493  12.141  14.824
59567W        W24552   1.854  29.453   0.601
59568W        W24553  13.933  40.824   0.469
59569W        W24554   5.874  18.078  12.010
59570W        W24555  24.735  20.336   0.106
59571W        W24556   4.729  22.105   4.271
59572W        W24557  38.890   0.484  10.709
59573W        W24558  44.395  16.617   1.141
59574W        W24559   0.923   1.169  13.858
59575W        W24560   2.318  37.253  14.319
59576W        W24561  41.596  13.226   2.669
59577W        W24562  38.807  20.685   0.228
59578W        W24563   3.780  18.027   1.315
59579W        W24564   3.208  38.020  12.899
59580W        W24565  40.584  33.028  14.061
59581W        W24566  32.346  25.914  11.045
59582W        W24567   1.668  15.906  11.317
59583W        W24568   0.703  41.656  11.425
59584W        W24569  12.146  33.231   1.776
59585W        W24570  21.417   4.853  10.411
59586W        W24571  25.271  38.188  12.065
59587W        W24572   1.850   2.672  14.450
59588W        W24573  42.101  14.800  10.700
59589W        W24574  23.482   2.925  14.396
59590W        W24575  22.706  30.700  11.964
59591W        W24576  11.367  17.119   0.524
59592W        W24577   6.744   2.049  12.293
59593W        W24578   0.797  12.278   4.541
59594W        W24579  11.951  36.923  14.440
59595W        W24580  37.269   4.423   2.022
59596W        W24581  42.581  20.350   2.733
59597W        W24582  17.796  10.968   0.401
59598W        W24583  24.850  26.464   2.644
59599W        W24584  32.756  40.503   3.857
59600W        W24585  24.414  35.488  13.859
59601W        W24586   9.349  19.250  11.454
59602W        W24587  19.252   5.161  10.278
59603W        W24588  29.006  44.013   1.326
59604W        W24589  18.594  35.014  12.400
59605W        W24590  39.945   3.762  13.773
59606W        W24591   5.413  21.207   4.584
59607W        W24592  40.844  37.219   1.374
59608W        W24593  32.225  26.802   4.179
59609W        W24594  28.949   5.464  13.498
59610W        W24595  32.147  33.150   4.163
59611W        W24596   6.487  13.496  12.970
59612W        W24597  21.836  41.560  14.488
59613W        W24598  28.108  10.692  10.773
59614W        W24599  42.376   8.003   2.117
59615W        W24600  44.542  33.018   3.332
59616W        W24601  15.195  27.640  13.038
59617W        W24602  42.387  34.862  14.449
59618W        W24603   4.378  12.672  10.691
59619W        W24604  12.137  44.528   1.633
59620W        W24605  10.628  22.179   3.187
59621W        W24606  14.252  36.553   3.865
59622W        W24607  42.325  32.785   0.427
59623W        W24608   7.837  11.847  11.931
59624W        W24609  31.085  35.491   1.447
59625W        W24610   2.730   1.295   4.128
59626W        W24611  37.449  25.682   4.485
59627W        W24612  20.809  10.744  12.510
59628W        W24613   2.915   9.493   3.299
59629W        W24614  36.919  10.826  13.223
59630W        W24615  23.200  36.381   3.278
59631W        W24616  41.932  22.295   2.329
59632W        W24617  24.097   5.729   0.679
59633W        W24618  18.355  33.808   0.668
59634W        W24619  44.336  44.201  11.553
59635W        W24620  12.866  20.262   0.206
59636W        W24621  38.438   6.372  14.483
59637W        W24622  38.136  19.064   3.710
59638W        W24623   7.562   4.642   4.493
59639W        W24624  41.804  13.223   0.361
59640W        W24625  18.718  22.566  12.987
59641W        W24626   7.858  33.479  12.487
59642W        W24627   1.877  21.304  12.838
59643W        W24628  42.390  38.542  13.447
59644W        W24629  21.728   3.334   4.640
59645W        W24630  36.606  15.624   1.960
59646W        W24631  42.431  19.338   2.868
59647W        W24632   2.942  44.754  13.721
59648W        W24633  21.899  13.126  11.118
59649W        W24634  15.394   3.807  10.935
59650W        W24635  13.849  33.614  12.493
59651W        W24636  16.109  44.230  13.012
59652W        W24637   4.799  26.470  13.828
59653W        W24638  16.048  38.490   1.161
59654W        W24639  24.014  20.570  14.422
59655W        W24640   5.944  23.711  14.990
59656W        W24641  13.179  34.084  14.150
59657W        W24642  31.661  21.255  12.882
59658W        W24643  12.648  22.606   2.821
59659W        W24644   6.668  26.077  10.960
59660W        W24645   3.759  21.227  14.528
59661W        W24646  32.368  40.565  14.969
59662W        W24647   5.192   2.871   2.935
59663W        W24648   0.980  12.766  12.465
59664W        W24649   0.014   0.154  10.481
59665W        W24650  38.254  12.358  11.216
59666W        W24651  15.648  39.770  13.452
59667W        W24652  11.291  44.253  13.375
59668W        W24653  25.107  28.837   4.060
59669W        W24654  34.086  43.659   0.921
59670W        W24655  16.823  28.206  11.902
59671W        W24656  17.440  34.823  10.008
59672W        W24657  35.870  32.934  13.014
59673W        W24658  29.112   8.174  10.726
59674W        W24659  23.475   2.867   1.917
59675W        W24660  44.838  24.446   9.569
59676W        W24661  37.572  44.278  13.382
59677W        W24662  31.203   7.670  13.675
59678W        W24663   0.923  19.326   4.656
59679W        W24664  44.604  14.102  10.202
59680W        W24665  11.514  33.473   0.451
59681W        W24666  43.336   6.661  10.631
59682W        W24667  15.587  36.018  12.883
59683W        W24668  20.804  18.133  12.897
59684W        W24669  26.072  12.427  14.989
59685W        W24670  32.707  24.294  13.951
59686W        W24671   2.797  30.997   0.787
59687W        W24672   7.765  19.437   2.775
59688W        W24673  27.929  43.992  12.857
59689W        W24674  34.030  27.509   2.303
59690W        W24675  28.886  22.244  10.537
59691W        W24676  43.055  31.179  11.102
59692W        W24677  43.581  42.062  14.071
59693W        W24678  23.652  41.936  11.523
59694W        W24679  31.112   8.875  12.059
59695W        W24680  10.629  28.043   4.202
59696W        W24681  14.405   6.637   0.892
59697W        W24682  37.310  30.091  14.886
59698W        W24683  10.970   2.070  11.971
59699W        W24684   5.317  27.531   4.363
59700W        W24685  16.748   6.319   4.262
59701W        W24686  44.307  36.879   2.314
59702W        W24687  19.750  15.273   4.545
59703W        W24688   2.942  25.270  13.919
59704W        W24689   3.042  23.006  13.428
59705W        W24690  34.391  29.084  12.563
59706W        W24691  35.826  33.904  12.157
59707W        W24692  31.107  31.890   2.822
59708W        W24693  44.875  27.047  10.426
59709W        W24694  26.624  31.683   3.126
59710W        W24695   2.320  38.579  12.372
59711W        W24696   9.349  16.547  11.182
59712W        W24697  27.035   2.528   4.720
59713W        W24698  19.614  44.015  11.966
59714W        W24699  29.048  24.129   2.908
59715W        W24700  31.923  17.169  12.651
59716W        W24701  29.516  21.051  14.372
59717W        W24702  31.145  30.761  10.214
59718W        W24703  28.446  32.039  14.770
59719W        W24704  41.014  27.114   5.343
59720W        W24705  43.398   3.482   2.543
59721W        W24706  40.949   7.151   2.049
59722W        W24707  16.767   2.424   1.468
59723W        W24708   5.142   2.349   4.136
59724W        W24709  38.370  29.893   0.519
59725W        W24710  22.925  37.349  12.425
59726W        W24711  11.843  43.699  11.629
59727W        W24712   6.527  28.949   1.210
59728W        W24713  15.615  22.460   1.685
59729W        W24714  10.160  35.004   2.372
59730W        W24715  11.786   9.942  11.696
59731W        W24716   2.830  31.551  14.088
59732W        W24717  33.418  26.670   9.792
59733W        W24718  29.198  27.550  11.708
59734W        W24719  23.184  32.137   4.952
59735W        W24720   3.887  19.204  12.342
59736W        W24721  26.260  35.624  11.870
59737W        W24722  44.799  40.265   2.468
59738W        W24723  17.176  34.358   0.293
59739W        W24724  31.911  15.883   2.577
59740W        W24725   4.485  37.393  12.913
59741W        W24726   2.245  13.869  12.988
59742W        W24727  42.289  24.494  13.672
59743W        W24728  19.780  36.528  12.034
59744W        W24729  44.050  10.672  11.147
59745W        W24730  12.655  44.177   2.692
59746W        W24731  18.976  27.663  14.276
59747W        W24732   9.422  37.780  14.801
59748W        W24733  26.584  37.056  10.663
59749W        W24734  25.526  27.174   3.217
59750W        W24735  32.682  29.641   1.472
59751W        W24736  26.080   5.868  14.458
59752W        W24737  24.781   0.948   5.524
59753W        W24738  19.198  12.324  13.117
59754W        W24739   3.447  20.884  14.307
59755W        W24740  28.146   3.366   2.247
59756W        W24741  18.769  38.262  11.627
59757W        W24742   4.320  31.808  10.723
59758W        W24743  41.484   7.260   4.455
59759W        W24744  11.981  34.979   2.189
59760W        W24745  27.465  38.346  12.693
59761W        W24746  42.907  20.711  11.352
59762W        W24747   0.730  40.566  13.002
59763W        W24748   9.949  14.273  12.188
59764W        W24749  29.034  38.504   1.832
59765W        W24750  36.930   7.640  10.852
59766W        W24751  16.079  18.589  14.776
59767W        W24752  14.679   7.381  11.426
59768W        W24753  26.588   7.688   1.337
59769W        W24754  38.198   1.159   1.727
59770W        W24755  44.483  14.222  11.634
59771W        W24756  34.397  42.971  12.128
59772W        W24757  17.679   7.925  12.391
59773W        W24758  28.478  30.701   3.336
59774W        W24759  38.033  23.748   1.311
59775W        W24760  26.227  33.564   1.218
59776W        W24761  37.905  11.818   2.106
59777W        W24762  42.891  13.023   2.873
59778W        W24763  31.694  19.175   0.377
59779W        W24764  26.087   1.375   0.372
59780W        W24765  26.075  18.271   0.371
59781W        W24766  19.286  38.728   2.707
59782W        W24767  39.599  28.153  11.733
59783W        W24768   3.935   8.715  10.659
59784W        W24769  23.955   5.424  12.132
59785W        W24770  34.521   4.802  12.230
59786W        W24771  19.609  10.392  13.811
59787W        W24772  12.490  34.767  11.585
59788W        W24773  44.914  24.706   0.238
59789W        W24774   4.934  16.052  12.570
59790W        W24775  23.212  33.599  11.548
59791W        W24776  11.597  31.411   0.455
59792W        W24777  24.998  21.604  12.510
59793W        W24778  29.540   8.242  14.867
59794W        W24779  43.155   8.514  10.768
59795W        W24780  35.395  20.678  14.905
59796W        W24781  12.166  29.676  11.015
59797W        W24782  13.615  42.313   4.268
59798W        W24783  34.189  26.023   4.782
59799W        W24784   8.949  31.430  13.524
59800W        W24785   8.781  37.635  11.925
59801W        W24786   4.641   2.206  11.675
59802W        W24787  16.774  11.055   2.192
59803W        W24788  19.235   3.464  10.431
59804W        W24789  20.078  16.123  14.370
59805W        W24790  42.920   1.295   4.424
59806W        W24791   9.243   1.334  12.047
59807W        W24792  23.991  19.124   0.330
59808W        W24793   4.785  42.524  11.986
59809W        W24794  40.609  39.273  12.886
59810W        W24795  20.331  11.181  11.972
59811W        W24796  27.497   9.675   1.832
59812W        W24797  31.429  40.857   4.085
59813W        W24798  17.341  15.846   3.713
59814W        W24799  19.900   5.726   4.614
59815W        W24800   9.088  35.082   0.478
59816W        W24801  17.224   2.300  11.074
59817W        W24802  12.596  28.386   0.580
59818W        W24803  39.561  42.997  11.214
59819W        W24804   0.264  37.473   4.752
59820W        W24805   0.085   9.162  12.996
59821W        W24806   2.807  16.104   3.021
59822W        W24807  26.471  35.990   3.086
59823W        W24808  44.740  19.708   0.888
59824W        W24809  31.013   5.709  14.538
59825W        W24810   9.901  34.404   3.080
59826W        W24811  42.806  27.180   0.866
59827W        W24812   5.197  40.831  10.529
59828W        W24813  40.006  19.054   0.791
59829W        W24814  41.214  32.088  10.918
59830W        W24815  28.686  42.572  11.443
59831W        W24816  29.618  12.976   2.322
59832W        W24817  15.310   2.883   2.738
59833W        W24818   0.848  12.700   2.298
59834W        W24819  40.089  12.668   2.216
59835W        W24820  31.901  33.835   3.213
59836W        W24821  31.786  41.377  13.805
59837W        W24822  38.484  17.806  13.092
59838W        W24823  19.617  36.079  14.901
59839W        W24824  12.938   9.775  14.791
59840W        W24825   0.951  34.433   2.353
59841W        W24826  25.756  42.396  11.165
59842W        W24827  38.930   4.200   3.036
59843W        W24828  36.372  37.321   0.921
59844W        W24829  11.211  23.763  11.538
59845W        W24830  26.614  28.744   1.863
59846W        W24831  19.164  31.403   0.449
59847W        W24832  38.107   3.327  11.998
59848W        W24833  12.288   3.864   2.883
59849W        W24834  25.996  20.973  11.938
59850W        W24835  11.882  39.355  12.154
59851W        W24836  26.725  28.618  14.803
59852W        W24837  30.871  21.124   0.711
59853W        W24838   1.283  16.548   0.469
59854W        W24839  44.766  35.897   2.155
59855W        W24840  13.094  18.608  14.851
59856W        W24841  15.633   2.467  14.808
59857W        W24842   1.335  39.023  12.793
59858W        W24843  41.403  24.552   0.400
59859W        W24844  25.175  36.075   1.376
59860W        W24845  38.566   8.467  11.428
59861W        W24846  33.457  39.909   2.722
59862W        W24847  16.796  18.714   2.715
59863W        W24848  23.763  36.314  13.826
59864W        W24849  19.089  43.733   3.718
59865W        W24850   1.819  31.814  13.441
59866W        W24851  12.563  11.268  14.393
59867W        W24852  27.250  38.316   1.620
59868W        W24853  16.702  22.360   1.160
59869W        W24854  32.496  13.088  13.313
59870W        W24855  11.615  12.130   3.410
59871W        W24856  39.580  32.918  14.820
59872W        W24857  34.557  12.724   1.244
59873W        W24858  12.011   0.610  12.490
59874W        W24859   4.738  22.653  13.892
59875W        W24860  27.549  25.190  14.071
59876W        W24861  23.405  23.126   1.923
59877W        W24862  12.121  43.371   0.551
59878W        W24863  12.148   0.528  10.454
59879W        W24864  21.466  28.955   3.240
59880W        W24865  18.718   4.397  13.793
59881W        W24866  23.963   4.448   2.862
59882W        W24867  23.779   1.082   0.867
59883W        W24868  12.098   9.187   0.724
59884W        W24869  39.326  11.707   2.098
59885W        W24870  12.757  30.648   4.776
59886W        W24871  10.193  38.839  13.305
59887W        W24872  14.675   1.222  13.311
59888W        W24873  41.394  41.730   0.978
59889W        W24874  44.483  27.777   2.365
59890W        W24875  41.545  38.327  13.629
59891W        W24876  18.740  41.900  12.048
59892W        W24877  23.016  39.050   4.699
59893W        W24878  40.997  35.444  12.541
59894W        W24879  41.491  29.813   0.873
59895W        W24880  44.569  13.512   4.257
59896W        W24881  24.679  38.348   1.520
59897W        W24882  28.399  21.292   1.395
59898W        W24883  30.066   8.124   0.558
59899W        W24884   9.446  36.585   0.377
59900W        W24885   4.928  29.425  12.885
59901W        W24886   6.237  28.172  10.252
59902W        W24887  20.236  24.501   0.472
59903W        W24888  38.612  34.760   2.126
59904W        W24889   1.885  16.178   0.350
59905W        W24890  13.859  22.664   3.346
59906W        W24891  13.959  44.238   0.450
59907W        W24892   7.389  39.304  13.936
59908W        W24893  27.706  25.788   1.813
59909W        W24894  16.149  35.467   0.376
59910W        W24895  20.017  42.752  14.864
59911W        W24896  40.390  22.216  12.654
59912W        W24897  39.249  10.405   0.653
59913W        W24898  44.557   5.426  11.528
59914W        W24899  41.997  43.369  14.818
59915W        W24900  40.299  23.013   2.389
59916W        W24901  29.496  41.839  13.845
59917W        W24902  38.772  15.683   3.680
59918W        W24903  34.900  41.581   4.570
59919W        W24904   6.977  24.661  13.507
59920W        W24905  35.495  21.593  12.446
59921W        W24906  26.079  26.354   3.259
59922W        W24907   6.165  14.590   4.610
59923W        W24908  30.865  41.627   0.424
59924W        W24909  12.330   6.840   4.290
59925W        W24910  39.987  22.187  10.741
59926W        W24911  11.076  37.950  13.933
59927W        W24912  17.381   9.607   1.790
59928W        W24913  10.691   4.245   9.647
59929W        W24914   2.547  27.267   1.734
59930W        W24915  28.553  18.819   4.379
59931W        W24916   7.544  40.325  14.232
59932W        W24917   8.893   1.629   1.474
59933W        W24918  37.331  13.606  11.441
59934W        W24919  37.016  27.498  12.033
59935W        W24920  27.496  30.947  14.560
59936W        W24921  16.355  29.686  14.188
59937W        W24922   9.593  39.026  11.031
59938W        W24923   6.227  28.170  11.665
59939W        W24924  22.446  14.084  13.190
59940W        W24925  32.175  32.507  14.579
59941W        W24926  31.622  12.690   3.801
59942W        W24927  36.682  44.328  11.496
59943W        W24928  26.009  33.115   3.631
59944W        W24929   8.553  30.210   1.801
59945W        W24930  14.646   6.774  14.773
59946W        W24931  16.698  28.034  12.358
59947W        W24932   8.346   1.010  12.370
59948W        W24933  33.373  35.360  14.840
59949W        W24934   7.562   7.262   2.919
59950W        W24935  13.599  40.462   1.667
59951W        W24936  39.770  42.311   2.869
59952W        W24937  31.202   5.955  13.792
59953W        W24938  26.665  11.347  14.372
59954W        W24939  37.301  14.653  10.762
59955W        W24940   4.907  29.726   5.113
59956W        W24941  29.687   7.775  13.412
59957W        W24942  17.386  21.683  11.448
59958W        W24943  34.804  14.842   2.862
59959W        W24944  38.116   2.193  13.078
59960W        W24945  38.346  44.253  12.925
59961W        W24946  43.184   4.151  13.446
59962W        W24947  10.131   3.445  12.097
59963W        W24948  41.816   7.417  13.859
59964W        W24949  37.479   0.207  12.024
59965W        W24950   3.418  13.770  10.797
59966W        W24951  25.764  21.098  10.685
59967W        W24952  13.873  11.165   1.276
59968W        W24953   1.918  34.978   3.630
59969W        W24954  38.660  40.495   3.245
59970W        W24955  37.345  32.430   4.511
59971W        W24956  17.087  28.432   1.770
59972W        W24957   1.327  22.470   1.230
59973W        W24958   7.832  37.337  10.992
59974W        W24959  14.282   1.958  11.450
59975W        W24960  34.880  21.605  13.058
59976W        W24961  30.380   6.021   0.419
59977W        W24962  44.708  29.574  12.861
59978W        W24963  28.959   6.863   1.903
59979W        W24964   3.216  44.506  13.302
59980W        W24965  12.706  42.981   3.287
59981W        W24966  24.123  40.034   3.726
59982W        W24967   9.159  43.696  11.100
59983W        W24968  35.078  30.187  13.385
59984W        W24969  37.040  42.818   2.884
59985W        W24970   7.692  39.724  10.719
59986W        W24971  22.208   3.470  11.415
59987W        W24972  22.066  27.611   4.641
59988W        W24973  10.021  28.547   4.629
59989W        W24974  32.262  19.735  13.371
59990W        W24975  29.913   2.356  13.508
59991W        W24976  42.787  21.740   1.863
59992W        W24977  30.623  10.801  13.865
59993W        W24978  10.346   8.695  13.093
59994W        W24979   1.338   2.261   1.192
59995W        W24980  25.940  34.662  10.493
59996W        W24981   7.834   4.846   2.366
59997W        W24982   8.656   2.005  12.902
59998W        W24983  30.001   0.951  12.140
59999W        W24984  25.527  22.740   1.189
60000W        W24985  24.913  19.211  12.890
60001W        W24986  16.203  25.589  14.820
60002W        W24987   0.215  40.198  12.979
60003W        W24988  15.481  12.774  12.025
60004W        W24989  19.801  41.696   5.057
60005W        W24990  26.623   6.137  14.505
60006W        W24991  22.844  26.876  10.188
60007W        W24992  41.900  24.801  13.388
60008W        W24993  23.674   2.927  11.943
60009W        W24994  37.304  12.093  12.572
60010W        W24995   6.953  35.375  14.024
60011W        W24996  30.459  31.471   4.413
60012W        W24997  11.079  31.857  11.688
60013W        W24998  22.888  22.035   4.522
60014W        W24999  19.856  18.517   4.862
60015W        W25000  21.248  14.358  11.175
60016W        W25001   8.187  20.718   3.576
60017W        W25002  38.379  42.124  12.397
60018W        W25003  39.204  35.422  14.259
60019W        W25004   5.563  16.738   4.329
60020W        W25005  25.051   4.387  11.707
60021W        W25006   9.669  38.418  13.397
60022W        W25007  27.976  17.691  10.061
60023W        W25008   9.300  44.986  11.557
60024W        W25009  38.981  18.011   3.483
60025W        W25010  28.059  14.659  14.022
60026W        W25011  17.296  40.776   3.291
60027W        W25012  31.005  31.620   2.386
60028W        W25013  17.839   2.804   1.687
60029W        W25014  29.993  15.628   0.834
60030W        W25015  40.293   1.744   3.630
60031W        W25016  10.223  18.262   0.967
60032W        W25017  10.003  33.534   0.878
60033W        W25018  27.246   2.277   2.162
60034W        W25019  10.155  37.677  11.185
60035W        W25020   0.259   9.267   0.377
60036W        W25021   5.412  16.077  13.721
60037W        W25022  29.821  22.577   3.999
60038W        W25023  16.061  40.778   4.103
60039W        W25024  24.209  27.043   4.125
60040W        W25025  34.671  28.367  14.976
60041W        W25026  42.422  17.789  13.520
60042W        W25027   1.409  38.784  11.199
60043W        W25028  34.431   2.918  12.495
60044W        W25029  10.161  26.157   4.570
60045W        W25030  15.769  28.154   1.197
60046W        W25031  36.004  22.398  11.287
60047W        W25032  34.531   5.250  11.966
60048W        W25033  20.777  39.155   2.682
60049W        W25034  31.744  35.552  13.839
60050W        W25035   6.266  27.047  12.536
60051W        W25036  15.978  23.243  13.048
60052W        W25037  10.948  17.562  12.466
60053W        W25038   6.409  28.273   0.712
60054W        W25039  12.412   1.372   4.364
60055W        W25040  18.689  32.118   0.290
60056W        W25041  11.270  27.730   0.277
60057W        W25042  22.040  18.309  14.336
60058W        W25043  12.772  19.169  13.599
60059W        W25044  20.381   6.166   4.297
60060W        W25045  13.557  31.934   0.973
60061W        W25046   6.215  43.328   0.178
60062W        W25047   9.320  11.313   0.982
60063W        W25048   3.070  38.434   1.254
60064W        W25049  38.852  39.897  12.805
60065W        W25050  43.574  29.991  14.791
60066W        W25051  29.998  20.620   3.181
60067W        W25052  13.741  24.495  12.471
60068W        W25053  14.406  35.445   0.838
60069W        W25054  34.564   9.084  12.722
60070W        W25055  25.360  37.410   1.251
60071W        W25056  25.558  29.682  10.077
60072W        W25057  24.456  42.388  14.027
60073W        W25058  10.023  26.440   3.782
60074W        W25059  19.891   7.769   4.564
60075W        W25060  44.192  11.845   0.681
60076W        W25061  30.747   8.261  12.940
60077W        W25062  27.446  16.041   3.406
60078W        W25063  26.984  14.194   4.268
60079W        W25064   2.730  10.200  13.039
60080W        W25065  29.912   7.531  13.823
60081W        W25066  44.819  14.862   2.934
60082W        W25067  26.666   0.547  14.462
60083W        W25068  11.945   7.594   4.665
60084W        W25069   1.514  16.318   1.495
60085W        W25070  18.158  36.372  13.465
60086W        W25071  17.731   3.822  14.955
60087W        W25072   5.276  29.912  12.578
60088W        W25073  11.447  17.249   3.746
60089W        W25074   8.641  38.418   4.518
60090W        W25075  20.452   4.996   4.947
60091W        W25076  19.037  25.538  12.406
60092W        W25077   8.834  26.216  12.858
60093W        W25078   2.196  32.437  11.201
60094W        W25079  37.065  33.097  13.641
60095W        W25080  44.112   0.990   0.626
60096W        W25081   0.436  13.243   1.011
60097W        W25082  35.994  43.785   4.529
60098W        W25083  35.500  22.156   0.055
60099W        W25084  38.058  27.017   0.355
60100W        W25085  22.628  43.225   1.829
60101W        W25086  44.790  42.284  14.236
60102W        W25087  29.106   1.236  13.873
60103W        W25088  24.914  44.496   2.565
60104W        W25089  19.442   7.469   0.382
60105W        W25090  26.035  40.374   4.656
60106W        W25091  25.248  35.083  13.944
60107W        W25092   1.380  23.035  11.400
60108W        W25093  16.745  24.425  10.968
60109W        W25094  15.138  31.036   2.224
60110W        W25095  23.114  17.261  10.464
60111W        W25096  34.420   8.961  12.224
60112W        W25097  16.086  22.050   4.647
60113W        W25098  41.539  29.068   2.208
60114W        W25099  20.071   1.126  12.861
60115W        W25100   5.646  34.433  11.075
60116W        W25101  20.956  31.902   0.782
60117W        W25102  14.049   5.675   3.850
60118W        W25103   5.706   5.957  13.461
60119W        W25104  33.118  25.160  12.850
60120W        W25105  31.938  15.405   3.618
60121W        W25106  38.245  35.058   9.532
60122W        W25107  36.989  16.780   2.313
60123W        W25108  38.894   3.832   2.249
60124W        W25109  25.062  43.022   0.337
60125W        W25110  35.476  11.595   9.800
60126W        W25111   7.273  10.046   0.541
60127W        W25112  18.181  32.673   0.761
60128W        W25113  22.892   4.372  11.708
60129W        W25114  35.986  42.455  12.128
60130W        W25115  10.721  31.133   3.065
60131W        W25116   4.618   6.002   2.338
60132W        W25117  37.472   3.346   3.760
60133W        W25118  37.495  25.226  11.481
60134W        W25119   8.127  28.479  12.371
60135W        W25120  24.402  19.626  10.992
60136W        W25121  39.375   1.790   0.990
60137W        W25122  21.673  23.508  13.407
60138W        W25123  39.529  37.152   3.321
60139W        W25124  16.753  40.307   2.785
60140W        W25125  28.554  26.223   0.895
60141W        W25126   5.178   3.270  12.049
60142W        W25127  26.074  10.475  12.590
60143W        W25128  22.996  32.285   9.913
60144W        W25129   0.377  20.044   2.108
60145W        W25130  22.953  13.921   4.345
60146W        W25131  15.854   2.502  12.352
60147W        W25132  23.214  42.480   3.314
60148W        W25133  18.417  32.049   2.949
60149W        W25134   2.382  23.118   1.006
60150W        W25135  28.907  44.182  13.962
60151W        W25136  13.586  21.693   2.102
60152W        W25137  21.076  23.894  12.423
60153W        W25138  38.940  12.264   3.777
60154W        W25139   3.908  10.227   1.450
60155W        W25140   4.932  14.286   4.191
60156W        W25141  37.451  39.652  14.570
60157W        W25142  13.740  22.498   0.669
60158W        W25143   9.116  43.465  13.817
60159W        W25144  44.875  26.249  13.145
60160W        W25145  35.263  39.425   1.927
60161W        W25146   7.318   8.430   2.272
60162W        W25147   4.795  26.051  14.939
60163W        W25148  38.250  30.250  11.962
60164W        W25149  20.505  22.256   2.258
60165W        W25150   4.396  22.485  11.281
60166W        W25151  15.578  26.596  12.535
60167W        W25152   9.647  24.105  13.994
60168W        W25153  34.144  30.669  11.769
60169W        W25154  25.263  37.269  12.997
60170W        W25155  26.926  23.730   1.360
60171W        W25156  25.152  37.017  11.678
60172W        W25157   9.057   9.887   4.338
60173W        W25158   9.969  28.582   2.804
60174W        W25159  31.320  43.901   4.235
60175W        W25160  34.760  19.068   2.380
60176W        W25161  34.101   7.356   3.243
60177W        W25162  26.825  28.859   1.405
60178W        W25163  39.786  16.465  13.373
60179W        W25164   6.522  42.878   5.056
60180W        W25165  17.825   7.106   3.765
60181W        W25166  18.645  36.045   2.653
60182W        W25167  27.110  31.152   2.700
60183W        W25168  25.384  17.056   3.168
60184W        W25169   3.451   1.821   0.841
60185W        W25170  26.134  16.555  13.401
60186W        W25171  28.433  15.258   1.848
60187W        W25172  24.731  10.561   2.701
60188W        W25173  23.181   5.561  14.721
60189W        W25174  30.376  39.631   3.410
60190W        W25175  42.480  22.550   1.243
60191W        W25176   5.433  22.008  12.046
60192W        W25177   2.333  42.728  12.826
60193W        W25178  44.105   2.870   0.736
60194W        W25179  16.826   1.389   1.431
60195W        W25180  44.349  12.332   0.780
60196W        W25181  16.088   1.533  13.416
60197W        W25182  34.992  38.098   4.648
60198W        W25183  28.157   1.282  13.802
60199W        W25184  37.780  12.089   4.368
60200W        W25185  31.974  44.811  13.613
60201W        W25186  31.629   5.839  12.401
60202W        W25187   0.720   7.218  12.612
60203W        W25188  31.930  37.750  12.547
60204W        W25189  24.595  42.500  13.534
60205W        W25190  20.569  37.120  13.030
60206W        W25191  26.689  22.607   0.886
60207W        W25192  41.820  40.306   0.723
60208W        W25193  21.847  14.109   0.847
60209W        W25194  16.991  40.121  11.177
60210W        W25195  41.445  10.181  14.793
60211W        W25196  21.711  21.318  12.081
60212W        W25197  43.085   2.187   3.786
60213W        W25198  12.723  34.720  13.077
60214W        W25199  35.972   3.256  10.076
60215W        W25200   9.021  24.351  11.699
60216W        W25201  15.401   5.014  14.627
60217W        W25202  44.423  31.836  12.238
60218W        W25203  17.125  33.920   1.926
60219W        W25204  28.514  10.144  11.321
60220W        W25205   9.255  34.804  12.505
60221W        W25206   8.227  25.995   4.141
60222W        W25207   9.241  38.978   2.819
60223W        W25208  43.901  11.122   3.518
60224W        W25209  13.070  38.320   3.006
60225W        W25210  31.411  22.996   3.292
60226W        W25211  28.231  22.491  14.028
60227W        W25212  37.963  40.892   3.269
60228W        W25213   1.192  42.357   4.125
60229W        W25214  31.691  32.577  12.342
60230W        W25215  19.730  37.758   2.186
60231W        W25216   1.022  43.586   1.431
60232W        W25217  17.570  13.383  12.370
60233W        W25218   6.478  13.261  14.316
60234W        W25219  20.254   5.964  14.812
60235W        W25220  15.064   3.101   9.830
60236W        W25221   2.282  29.829  12.003
60237W        W25222  12.578  14.159  11.738
60238W        W25223  19.592  33.438  12.614
60239W        W25224  26.995  29.226  10.738
60240W        W25225  19.600  16.675   1.393
60241W        W25226  33.960   4.310  11.642
60242W        W25227  13.433  44.063   1.696
60243W        W25228  32.601  42.786  14.899
60244W        W25229  23.247  37.827  11.578
60245W        W25230  18.526  17.733   2.302
60246W        W25231  21.168  23.009   4.743
60247W        W25232  39.835  44.728  10.725
60248W        W25233   1.173  17.152   4.608
60249W        W25234  22.712  30.184  13.346
60250W        W25235  38.969   9.322  11.600
60251W        W25236  37.947   5.846   1.354
60252W        W25237  41.033  19.568  12.070
60253W        W25238   9.749   2.107   3.837
60254W        W25239   5.870  24.611   1.884
60255W        W25240   9.739  29.912   2.136
60256W        W25241   5.781  11.313   2.052
60257W        W25242  29.138  41.303  10.507
60258W        W25243  13.160  38.733  11.565
60259W        W25244  34.494   3.411   4.124
60260W        W25245   1.333  17.496  11.590
60261W        W25246  14.171   3.382  10.723
60262W        W25247  11.176  40.486   1.937
60263W        W25248  42.446  24.747   1.756
60264W        W25249  35.991  33.309   4.478
60265W        W25250  10.377  43.007   3.733
60266W        W25251  14.180  38.481   4.427
60267W        W25252  25.160  11.332  13.912
60268W        W25253  34.482  37.290  11.685
60269W        W25254  38.265   9.142   2.837
60270W        W25255  31.208  28.908   3.705
60271W        W25256  30.853  39.340   2.497
60272W        W25257  22.115  16.559  14.031
60273W        W25258   9.193   3.386   3.603
60274W        W25259  16.673   3.827  13.014
60275W        W25260  43.604  15.526  13.670
60276W        W25261  29.168   0.464   4.683
60277W        W25262  19.111  13.316   2.408
60278W        W25263  27.869   8.778   1.755
60279W        W25264  10.823   9.394   3.715
60280W        W25265  13.291  27.544   2.089
60281W        W25266  35.515  24.140   0.284
60282W        W25267  11.579  21.177   0.424
60283W        W25268  22.162  40.880   3.084
60284W        W25269   0.872  42.618   0.529
60285W        W25270   9.469  42.233   3.255
60286W        W25271  21.988  35.629  11.527
60287W        W25272  31.357  43.900   0.756
60288W        W25273  14.785  32.577   1.611
60289W        W25274  34.715  25.383  11.744
60290W        W25275  32.066  18.962  11.611
60291W        W25276  11.226  23.490   2.532
60292W        W25277  29.960  30.515  13.564
60293W        W25278  31.597  31.701  14.128
60294W        W25279  32.402  32.182   2.204
60295W        W25280  30.163  35.930  13.904
60296W        W25281  11.460  10.621  12.370
60297W        W25282  30.382  16.734   4.676
60298W        W25283  11.299  43.591   0.956
60299W        W25284  43.969  19.689  14.904
60300W        W25285  14.511   5.906   3.792
60301W        W25286  16.654  14.907   3.303
60302W        W25287  29.214  29.480  12.035
60303W        W25288  38.593  10.964   4.280
60304W        W25289  32.508  42.902  11.535
60305W        W25290   0.486  44.993  14.749
60306W        W25291  12.758  35.828  11.436
60307W        W25292  15.488  32.550   0.782
60308W        W25293  30.701  44.503   2.523
60309W        W25294  17.816  33.336  12.943
60310W        W25295  23.494   6.098  11.441
60311W        W25296  30.742  21.486   4.802
60312W        W25297  16.784   3.193   5.019
60313W        W25298  19.762   5.738   3.550
60314W        W25299   6.659  22.413  12.022
60315W        W25300  11.731  31.418   3.196
60316W        W25301  17.691   8.431   5.025
60317W        W25302  16.560  21.602   4.494
60318W        W25303   7.371   3.629  11.357
60319W        W25304  13.355  42.755  13.533
60320W        W25305  37.079  17.059  13.396
60321W        W25306  30.879  14.876   0.742
60322W        W25307  19.342  13.317   1.429
60323W        W25308   1.842  16.099  10.864
60324W        W25309  20.707   0.222  14.787
60325W        W25310   3.885  21.503   0.008
60326W        W25311   7.440   5.730   2.199
60327W        W25312  20.017  28.905  12.973
60328W        W25313   7.507  34.994  12.980
60329W        W25314  20.012  39.048   0.763
60330W        W25315  30.687  44.884   3.371
60331W        W25316  31.938  36.126  12.488
60332W        W25317  14.568  11.193  13.868
60333W        W25318  21.036  37.325   0.751
60334W        W25319  20.481   6.765   0.468
60335W        W25320   3.279   6.827   3.564
60336W        W25321  26.429  23.982   0.333
60337W        W25322  12.594  16.524   4.244
60338W        W25323  12.404   1.877  13.258
60339W        W25324  44.335  21.041   4.598
60340W        W25325   6.202  11.100   3.305
60341W        W25326   7.951   8.475  11.462
60342W        W25327  12.335  14.340  12.136
60343W        W25328   9.683   1.206  12.429
60344W        W25329  44.085  16.117  12.522
60345W        W25330   3.364   6.520   2.726
60346W        W25331  19.226  24.006   0.842
60347W        W25332  11.864  33.414  12.108
60348W        W25333  26.531  27.223   1.858
60349W        W25334  31.110  37.671   0.824
60350W        W25335  11.192   8.065   4.568
60351W        W25336  13.368   2.255   0.348
60352W        W25337  21.430   5.507   0.334
60353W        W25338  31.868  24.592  13.095
60354W        W25339  21.245   4.160   3.208
60355W        W25340  38.928   9.597   5.036
60356W        W25341  40.002  40.383  13.479
60357W        W25342   7.940  11.408   0.373
60358W        W25343  36.402  24.056  14.268
60359W        W25344   1.918  43.288  11.161
60360W        W25345  26.311  44.728   3.151
60361W        W25346   2.942  31.818   5.079
60362W        W25347  23.846  23.307   3.363
60363W        W25348  39.041  28.508  12.939
60364W        W25349  16.795  17.433   3.639
60365W        W25350  10.889  41.997   1.304
60366W        W25351  18.041  15.077   0.434
60367W        W25352   5.429   1.404   3.095
60368W        W25353  25.557   6.817  12.859
60369W        W25354   6.130   3.439  13.237
60370W        W25355  18.080  29.907   2.389
60371W        W25356   4.375  21.029   1.253
60372W        W25357  18.089  30.241   1.701
60373W        W25358  43.782  22.174  13.802
60374W        W25359  25.578  20.735   0.233
60375W        W25360  11.765  42.973  14.419
60376W        W25361  29.621  43.654   1.838
60377W        W25362  16.120   1.773   2.923
60378W        W25363  36.656  13.248   1.173
60379W        W25364   6.358   4.793   0.038
60380W        W25365  17.776  42.828   4.131
60381W        W25366  35.790   9.862  14.392
60382W        W25367  24.717  10.818   3.864
60383W        W25368   4.941   2.050   2.666
60384W        W25369  22.697  32.877  14.378
60385W        W25370  37.932  39.175   0.998
60386W        W25371   3.883  30.391  11.161
60387W        W25372  17.578  30.053   2.357
60388W        W25373   1.325  19.992  14.771
60389W        W25374   5.879  11.635   1.006
60390W        W25375  38.676  35.863  13.503
60391W        W25376  31.478   8.835   4.636
60392W        W25377  20.808  23.950   0.251
60393W        W25378   0.680  40.821   0.803
60394W        W25379  15.474  32.122  11.482
60395W        W25380  38.417  29.836  11.675
60396W        W25381  44.002  35.382   4.585
60397W        W25382   0.442   0.960  13.889
60398W        W25383  16.301   1.328  14.944
60399W        W25384  29.861   0.357   0.848
60400W        W25385  41.928  36.662   3.610
60401W        W25386  43.408   0.724   3.224
60402W        W25387  39.175  43.381  11.162
60403W        W25388  18.030  36.022   1.623
60404W        W25389  19.018  10.901  13.388
60405W        W25390  28.962  21.892  12.681
60406W        W25391  15.236   1.837  12.805
60407W        W25392   0.955   4.928   1.054
60408W        W25393  38.994  38.032   3.168
60409W        W25394  15.050  34.664  14.017
60410W        W25395  20.674  11.219   0.991
60411W        W25396   1.841  30.970   2.281
60412W        W25397  29.903  23.776  11.713
60413W        W25398   3.910   8.618   2.308
60414W        W25399  28.030   4.258  13.378
60415W        W25400   4.347  20.086  13.580
60416W        W25401  20.690  42.360  14.198
60417W        W25402  16.579  30.012   4.244
60418W        W25403  28.926   1.265   2.848
60419W        W25404   6.132  26.293   1.055
60420W        W25405  15.723  20.974   2.777
60421W        W25406   3.778  28.377   3.844
60422W        W25407  11.648   7.488   2.043
60423W        W25408   5.239   6.726  13.652
60424W        W25409  11.801  31.488  11.053
60425W        W25410  31.186   7.751  10.158
60426W        W25411  42.846  37.465   0.147
60427W        W25412   2.575  42.365   4.682
60428W        W25413   9.657  10.367  10.608
60429W        W25414  31.519  19.728   2.666
60430W        W25415   5.834  18.111   4.276
60431W        W25416  34.159   7.143   4.783
60432W        W25417   0.065  44.910  12.645
60433W        W25418   0.060  34.406   0.677
60434W        W25419   6.356   5.717  14.683
60435W        W25420  19.170  32.439  13.887
60436W        W25421   7.775  24.944  11.275
60437W        W25422   8.890  38.872   4.675
60438W        W25423  13.357   5.225   3.584
60439W        W25424   9.419   6.946   1.443
60440W        W25425   8.163  27.450  14.466
60441W        W25426  26.456  36.153  12.564
60442W        W25427  28.402   7.778   3.185
60443W        W25428   7.128  30.276   2.194
60444W        W25429  23.509  33.704   9.912
60445W        W25430  41.739  43.655  13.177
60446W        W25431  33.027  16.998  11.630
60447W        W25432  19.110  42.249   1.694
60448W        W25433  43.942  18.810   3.517
60449W        W25434  20.171  39.811   2.892
60450W        W25435   6.723  14.854   3.233
60451W        W25436  22.458  22.473  12.738
60452W        W25437   6.577  20.759   3.351
60453W        W25438  37.006   9.272   9.467
60454W        W25439  31.471   6.345  12.409
60455W        W25440  34.682  29.442  14.412
60456W        W25441  39.911   7.918  14.772
60457W        W25442  38.396  31.261  12.217
60458W        W25443   0.044   2.817  13.387
60459W        W25444  28.438   6.734   0.996
60460W        W25445  26.529  30.474  11.418
60461W        W25446  37.510  43.988   3.710
60462W        W25447  21.027  39.777  10.814
60463W        W25448  21.080   7.665   1.912
60464W        W25449  12.432  42.837   4.652
60465W        W25450  28.593  18.774   4.935
60466W        W25451  22.268  28.654  11.135
60467W        W25452  21.522  27.451   4.574
60468W        W25453   5.644   6.578   4.997
60469W        W25454  34.488  13.871  10.473
60470W        W25455   6.169  27.641  11.074
60471W        W25456   6.996  17.458  13.464
60472W        W25457   1.259   3.923   1.831
60473W        W25458  41.030  21.098  12.151
60474W        W25459   2.888  22.176   1.902
60475W        W25460  26.542  16.135   1.845
60476W        W25461  21.220   4.192  13.112
60477W        W25462   3.027  43.543   3.620
60478W        W25463   9.171   6.903   3.436
60479W        W25464   1.683  38.294  13.789
60480W        W25465   3.756  26.947  12.480
60481W        W25466  43.300  28.159   0.796
60482W        W25467   0.550  35.952  14.789
60483W        W25468  11.716  39.539   3.210
60484W        W25469   2.256  27.479  11.159
60485W        W25470  24.762  11.621  11.136
60486W        W25471   2.943  36.011   3.293
60487W        W25472   4.685   3.150  14.002
60488W        W25473   5.233  20.267  14.965
60489W        W25474  42.103  36.979   0.475
60490W        W25475   0.241  15.064   2.705
60491W        W25476  43.130  25.120   9.805
60492W        W25477  24.902   7.910  14.128
60493W        W25478  44.857  36.857  10.950
60494W        W25479   7.233  19.789   3.552
60495W        W25480  40.859  13.587  11.289
60496W        W25481   3.126  27.668  14.798
60497W        W25482  20.575  29.480   2.305
60498W        W25483   8.426   3.857  14.509
60499W        W25484  16.787  32.513   3.199
60500W        W25485   0.444  44.503  12.757
60501W        W25486   2.205   9.281  13.506
60502W        W25487   6.032  40.663  14.914
60503W        W25488   2.007   8.933  12.458
60504W        W25489  17.135   0.228   1.880
60505W        W25490  39.612  36.331   1.644
60506W        W25491  24.354  22.396  11.526
60507W        W25492  10.762  36.303  12.885
60508W        W25493  14.291  18.808  11.211
60509W        W25494  10.114  27.441  14.306
60510W        W25495  12.127   0.085  12.527
60511W        W25496   5.203  37.919  11.498
60512W        W25497  27.163   9.710  13.553
60513W        W25498  31.494  24.927   2.428
60514W        W25499  36.831   7.419   0.782
60515W        W25500  24.034  39.047   1.854
60516W        W25501   8.856  40.317  13.441
60517W        W25502  40.309  13.578  12.968
60518W        W25503  25.652  29.030   4.993
60519W        W25504  16.033   6.277   1.934
60520W        W25505  34.179  29.624  12.570
60521W        W25506  21.283  33.754  12.322
60522W        W25507   4.627  29.519  14.222
60523W        W25508  14.756  23.256   0.329
60524W        W25509  20.519  18.410   1.464
60525W        W25510  14.336  18.460  10.420
60526W        W25511  37.967   2.847   2.860
60527W        W25512   5.258  20.875   2.586
60528W        W25513  11.136   9.718  12.978
60529W        W25514  27.433   8.761  12.837
60530W        W25515  19.700   6.708   1.865
60531W        W25516  28.320   0.501  12.087
60532W        W25517  27.163  13.131   1.922
60533W        W25518  29.562  21.000  12.974
60534W        W25519   9.289  39.018  11.470
60535W        W25520  24.534   5.145  14.371
60536W        W25521  21.002  22.106   2.328
60537W        W25522  39.312   4.256   4.448
60538W        W25523   1.515   4.159   1.449
60539W        W25524  35.585  35.574  12.307
60540W        W25525  25.698  37.552   4.590
60541W        W25526  10.744  33.089   3.325
60542W        W25527  21.681   2.587  11.446
60543W        W25528  10.498  23.857  13.982
60544W        W25529  44.228  17.221  12.183
60545W        W25530  17.833   4.625   5.413
60546W        W25531  28.540  20.335   1.316
60547W        W25532  30.137   5.697  11.176
60548W        W25533  12.722   2.023   0.953
60549W        W25534  13.230  28.568  11.445
60550W        W25535  12.590  37.161  13.071
60551W        W25536  24.901  41.499   1.439
60552W        W25537  34.358   3.774   2.326
60553W        W25538   4.457  20.179  12.381
60554W        W25539  33.107  35.980  12.930
60555W        W25540  17.566   1.392  11.190
60556W        W25541  27.805  21.379  10.825
60557W        W25542  16.865   1.105   3.576
60558W        W25543   5.843   3.188  14.241
60559W        W25544  11.238  25.705   2.432
60560W        W25545  40.520  28.081   1.488
60561W        W25546  17.640   4.058   3.488
60562W        W25547  41.963  17.186   1.115
60563W        W25548  25.726  33.087  12.614
60564W        W25549  23.074  20.259  13.429
60565W        W25550  17.516  19.295  14.433
60566W        W25551  19.065  44.406   1.813
60567W        W25552  20.702  30.020   2.350
60568W        W25553  16.434  26.156   0.473
60569W        W25554  14.776  28.497  12.979
60570W        W25555  25.932   9.319  14.514
60571W        W25556  36.034  40.694  11.378
60572W        W25557  18.800  31.399   1.020
60573W        W25558  19.745  35.967   9.825
60574W        W25559  12.126   4.269   3.671
60575W        W25560   6.117  28.995  14.736
60576W        W25561  29.894  44.805  13.771
60577W        W25562  19.395  31.883   3.580
60578W        W25563   3.380  26.627  12.674
60579W        W25564  42.339   6.475   4.238
60580W        W25565  21.579  14.185   0.420
60581W        W25566  35.980  31.174   1.456
60582W        W25567  30.434   5.762  11.595
60583W        W25568   3.535  22.264   3.657
60584W        W25569  24.150  11.584   3.761
60585W        W25570  11.645  41.478   1.450
60586W        W25571  11.423  39.813   4.146
60587W        W25572  24.314  15.128   2.279
60588W        W25573  41.064  18.078  13.340
60589W        W25574  28.914   8.430  11.685
60590W        W25575   1.309   5.166   1.395
60591W        W25576   5.162   4.761   5.015
60592W        W25577  27.412  29.541   3.224
60593W        W25578  10.294  31.439  10.570
60594W        W25579  35.718  10.288  13.480
60595W        W25580  34.157  22.041  14.709
60596W        W25581  26.761  13.599   0.232
60597W        W25582   0.516  28.085  13.459
60598W        W25583  32.318  41.119   2.628
60599W        W25584  44.492  18.070  14.883
60600W        W25585  16.364  15.622  10.704
60601W        W25586   0.493  32.554  12.108
60602W        W25587   4.421  12.922   1.541
60603W        W25588   5.433  14.826  14.961
60604W        W25589  11.117  26.118   1.264
60605W        W25590  13.539  29.818   9.871
60606W        W25591  26.994  23.515   1.829
60607W        W25592  32.134   2.342   0.927
60608W        W25593  29.522   5.674  11.615
60609W        W25594  10.280   5.320  11.949
60610W        W25595  20.577  15.922  10.740
60611W        W25596  35.112   3.692   4.784
60612W        W25597  22.000  44.387  11.743
60613W        W25598  16.871  18.109  13.973
60614W        W25599   4.620  20.623  13.428
60615W        W25600  43.625  28.789  13.418
60616W        W25601  21.966   0.988  10.892
60617W        W25602  44.395  11.179  10.822
60618W        W25603  41.426  23.735   1.681
60619W        W25604   7.362   9.681  14.614
60620W        W25605  34.514  20.478   3.175
60621W        W25606  41.685  14.049  11.100
60622W        W25607  30.683   2.492  11.523
60623W        W25608  24.928  25.397  11.734
60624W        W25609  44.410  13.095   1.889
60625W        W25610  31.363  21.088   4.201
60626W        W25611  32.837  40.423   2.004
60627W        W25612  17.688  23.072  13.887
60628W        W25613  20.693  24.544  13.002
60629W        W25614  15.238   2.848   0.183
60630W        W25615   3.670   2.625  12.031
60631W        W25616   6.511  17.300  13.387
60632W        W25617  33.585  15.303   0.348
60633W        W25618  24.093  26.922   1.199
60634W        W25619  16.756  39.813   2.895
60635W        W25620  38.105  16.330   3.231
60636W        W25621  32.134  20.169   0.915
60637W        W25622   0.001   5.388  12.479
60638W        W25623  41.498  12.390   3.287
60639W        W25624   8.677   7.028  13.967
60640W        W25625  25.975  26.665   4.095
60641W        W25626   3.255   9.892   2.533
60642W        W25627  16.803  35.973   1.839
60643W        W25628  16.984  25.859   4.534
60644W        W25629   5.695  33.938   4.115
60645W        W25630  24.504   1.268   1.416
60646W        W25631  43.334  40.578   2.028
60647W        W25632   9.115  32.421   1.043
60648W        W25633  16.653  14.568   4.728
60649W        W25634  28.663  20.363  12.532
60650W        W25635   8.568   2.444  12.058
60651W        W25636  27.099   7.272  13.143
60652W        W25637  31.876  43.909   2.797
60653W        W25638  39.990  35.852  13.462
60654W        W25639  32.573  25.578   4.596
60655W        W25640  39.568  26.744  10.760
60656W        W25641  44.486  17.176  10.963
60657W        W25642   8.124  36.892   1.226
60658W        W25643  18.433   7.804   3.721
60659W        W25644  41.202   1.003   0.284
60660W        W25645  16.062   0.632  11.564
60661W        W25646  29.741   2.014  10.153
60662W        W25647  42.731  41.524  10.704
60663W        W25648  10.646  10.122  14.085
60664W        W25649  11.917  16.053   3.245
60665W        W25650   9.037  41.779  14.917
60666W        W25651  30.717  15.490  13.513
60667W        W25652   3.992  25.090   1.642
60668W        W25653   1.733  27.384  11.980
60669W        W25654   9.108  28.935  13.018
60670W        W25655  36.607  27.488  10.592
60671W        W25656  42.965   0.851  14.759
60672W        W25657  17.303  33.164  12.308
60673W        W25658  16.420  40.945  11.891
60674W        W25659   1.977   4.873  12.547
60675W        W25660   7.817  37.452  11.507
60676W        W25661  11.849  40.467  12.088
60677W        W25662   4.929  13.142   4.616
60678W        W25663  13.903  41.647   3.792
60679W        W25664  23.895  22.796   3.304
60680W        W25665  23.247   9.074  11.795
60681W        W25666  35.113   9.503  14.486
60682W        W25667  29.909  26.675   1.393
60683W        W25668  25.728  14.396  10.343
60684W        W25669  29.883  34.005   0.011
60685W        W25670  41.451  39.503   2.242
60686W        W25671  15.546  38.144   0.223
60687W        W25672  40.088  43.965  12.992
60688W        W25673  33.109   6.883   0.186
60689W        W25674  42.070  10.158   0.373
60690W        W25675  42.661   3.748  12.263
60691W        W25676  30.220  31.742  12.940
60692W        W25677  33.423  40.525  11.189
60693W        W25678  13.536  31.438   2.864
60694W        W25679  13.564   0.428  14.818
60695W        W25680   0.915   8.203  11.554
60696W        W25681  11.619   7.883   4.352
60697W        W25682   0.799  26.482   3.213
60698W        W25683  40.878  37.171  14.630
60699W        W25684   5.875   1.728  11.240
60700W        W25685   9.073  38.045  11.764
60701W        W25686   7.687  18.849  13.437
60702W        W25687  18.225  40.593   4.686
60703W        W25688  27.479  13.360   2.802
60704W        W25689   1.639   8.332  10.917
60705W        W25690  12.308  27.656  13.003
60706W        W25691   6.783  34.344  14.477
60707W        W25692  23.080  12.192  13.318
60708W        W25693   9.200  22.000   3.339
60709W        W25694  23.535  33.517   1.247
60710W        W25695  31.126  28.366   4.547
60711W        W25696  15.374  12.352  12.311
60712W        W25697  24.288  11.854   4.203
60713W        W25698  41.751   5.346   3.212
60714W        W25699  38.588  38.351   0.036
60715W        W25700  29.131  41.022   2.282
60716W        W25701   1.195  27.900  12.469
60717W        W25702  23.789  31.119   0.691
60718W        W25703  13.729  37.777  12.504
60719W        W25704  32.848  35.973  10.529
60720W        W25705  21.967  21.729  14.925
60721W        W25706  38.019  23.793   1.831
60722W        W25707   7.214  44.708   0.811
60723W        W25708  44.806  16.180   0.279
60724W        W25709  24.682  17.859   0.917
60725W        W25710  34.473  13.602   2.148
60726W        W25711  22.777  34.079  12.366
60727W        W25712  31.716   2.003  13.558
60728W        W25713  15.088  40.754   1.880
60729W        W25714  12.951  37.504   0.165
60730W        W25715  18.481   8.765  14.250
60731W        W25716  41.573   2.467  12.468
60732W        W25717  28.544  24.557   1.671
60733W        W25718   2.169  23.595   0.814
60734W        W25719   2.442  22.823   1.971
60735W        W25720  35.785  31.450  12.978
60736W        W25721  25.506   3.743  12.099
60737W        W25722  44.450  39.439   3.151
60738W        W25723   7.657  15.264   2.754
60739W        W25724  31.116  27.800  13.431
60740W        W25725  13.790  26.135  13.988
60741W        W25726   0.543   5.975  14.493
60742W        W25727  38.931   6.246  11.850
60743W        W25728  21.479  18.119   2.301
60744W        W25729  12.163  31.678  11.654
60745W        W25730  29.502  24.041  11.161
60746W        W25731  21.044  43.857   4.695
60747W        W25732  31.551  10.765  13.304
60748W        W25733  37.329  19.782   3.039
60749W        W25734  27.609  30.073   9.933
60750W        W25735  42.771  38.288  12.548
60751W        W25736  35.191  21.715   1.364
60752W        W25737  42.560  21.685   2.323
60753W        W25738  23.681  27.547  14.778
60754W        W25739  12.909  24.259   1.456
60755W        W25740  15.327  25.834   5.018
60756W        W25741  23.955  26.685  11.199
60757W        W25742  26.819  17.537  12.557
60758W        W25743  43.321   7.098  11.487
60759W        W25744  35.218  11.230   4.900
60760W        W25745  34.009  38.768   3.609
60761W        W25746  17.197  26.546   3.865
60762W        W25747   2.350   1.074   4.463
60763W        W25748  42.151   8.924  13.446
60764W        W25749  43.273  32.175  13.151
60765W        W25750  43.502   5.512   3.465
60766W        W25751  11.486  18.176   0.359
60767W        W25752  14.513  25.174  11.273
60768W        W25753  31.409   4.974   4.147
60769W        W25754   6.229  39.345  13.241
60770W        W25755  34.966  31.198  11.821
60771W        W25756  37.525  18.529  10.717
60772W        W25757  10.214  36.446   1.035
60773W        W25758   0.045  34.961   1.761
60774W        W25759   1.628  17.221  11.950
60775W        W25760  18.858  24.025  14.147
60776W        W25761  43.458  15.736   0.231
60777W        W25762  43.895  18.891   1.822
60778W        W25763  27.342  39.910  12.362
60779W        W25764   3.869  32.495  13.451
60780W        W25765  16.068  18.362   3.525
60781W        W25766  10.194  34.146   3.848
60782W        W25767  27.044  22.801   1.243
60783W        W25768  35.253  30.723  11.950
60784W        W25769   6.176  10.312  14.070
60785W        W25770  34.844   0.227  11.531
60786W        W25771  35.452  26.902  11.218
60787W        W25772  12.894  15.254   0.041
60788W        W25773  36.827  18.730   1.492
60789W        W25774  20.939  27.642  11.112
60790W        W25775  28.711  24.627  11.056
60791W        W25776  26.371  41.378  10.788
60792W        W25777  11.239  35.089  11.337
60793W        W25778  27.605  13.128  12.630
60794W        W25779   4.647  35.898  11.143
60795W        W25780   1.629  15.877   4.146
60796W        W25781   4.546  18.071   0.935
60797W        W25782  11.211   9.170  10.774
60798W        W25783   2.018  17.186   2.755
60799W        W25784  25.149  35.996  11.655
60800W        W25785   0.038  37.311  10.752
60801W        W25786  33.513  24.626   2.140
60802W        W25787  38.768  38.476   2.895
60803W        W25788  35.916  38.831   0.427
60804W        W25789  19.103   7.899   2.495
60805W        W25790  32.989  15.299  14.872
60806W        W25791   4.540  14.858   0.381
60807W        W25792  41.876  13.284  13.341
60808W        W25793  14.745  42.497  14.391
60809W        W25794  36.441   6.897   1.784
60810W        W25795  12.078   3.947   2.390
60811W        W25796  23.835  30.981  13.975
60812W        W25797  11.084  29.719  11.356
60813W        W25798  30.031  27.161   2.445
60814W        W25799  24.606   4.965   0.739
60815W        W25800  31.836  19.372  14.472
60816W        W25801   0.280  44.622  10.505
60817W        W25802  12.622  42.754  11.545
60818W        W25803  31.138  13.166  10.687
60819W        W25804  34.032  12.608   2.106
60820W        W25805  16.824  20.210   9.610
60821W        W25806  28.096  39.992   3.703
60822W        W25807  39.298  27.515   3.585
60823W        W25808   1.442   8.754  12.103
60824W        W25809  38.969  12.792  12.274
60825W        W25810   0.994  32.179   3.184
60826W        W25811  22.460   4.983   4.175
60827W        W25812   2.857  17.044  12.913
60828W        W25813  30.742  36.363   0.002
60829W        W25814  12.824  29.937   2.651
60830W        W25815  36.958  22.203  14.180
60831W        W25816  14.642  25.241   0.491
60832W        W25817   2.987  12.480   3.927
60833W        W25818  43.703  22.008   2.313
60834W        W25819   9.243   2.043   3.673
60835W        W25820  14.350  31.708   9.853
60836W        W25821  19.317  32.687   2.437
60837W        W25822  34.924  21.492   3.429
60838W        W25823  25.786  40.674  11.638
60839W        W25824  10.585  40.396  11.124
60840W        W25825   6.662  18.710   3.873
60841W        W25826  27.923  10.308  14.761
60842W        W25827  27.566  26.491   0.496
60843W        W25828  42.512   2.257   1.802
60844W        W25829  33.806  34.579   0.980
60845W        W25830   1.274  24.663   3.303
60846W        W25831  28.762  29.537   0.495
60847W        W25832  15.307  29.523   1.705
60848W        W25833  26.681  25.654  12.327
60849W        W25834  34.499  40.472   3.189
60850W        W25835   5.771  11.987   1.381
60851W        W25836  22.564  28.413  14.697
60852W        W25837  37.517   3.912  11.205
60853W        W25838  12.670  42.125   3.865
60854W        W25839   6.979  29.817   0.887
60855W        W25840  36.450  27.097   4.557
60856W        W25841  28.480  40.324   1.003
60857W        W25842  44.706  29.041   2.668
60858W        W25843  11.728  33.150   4.743
60859W        W25844  35.649   0.250  13.380
60860W        W25845  30.084  29.838   5.244
60861W        W25846  15.196  35.324  12.067
60862W        W25847  21.968   1.558   0.223
60863W        W25848   8.322   4.366   0.001
60864W        W25849  41.273  10.094  12.495
60865W        W25850  21.492   1.911   0.965
60866W        W25851  33.900  36.485   4.596
60867W        W25852  13.526   3.255   3.605
60868W        W25853  39.600  13.426  11.610
60869W        W25854   7.167  34.647  11.203
60870W        W25855  35.468  32.438   1.893
60871W        W25856   3.839  22.251  11.132
60872W        W25857  31.932  37.855  13.607
60873W        W25858  26.644  29.641  13.464
60874W        W25859  38.415  13.164   3.851
60875W        W25860  10.175   3.779  12.784
60876W        W25861  33.934  29.599   3.668
60877W        W25862   3.770  31.342   3.744
60878W        W25863  35.345  43.824  13.018
60879W        W25864   3.309  35.285  12.935
60880W        W25865  38.132  23.636   2.824
60881W        W25866   8.365  31.968   0.196
60882W        W25867   4.514  29.580  11.029
60883W        W25868  15.436  43.130   1.292
60884W        W25869   1.246  24.438   1.739
60885W        W25870  18.327  28.874  11.597
60886W        W25871  35.158  24.695  12.066
60887W        W25872   4.284  31.602   2.421
60888W        W25873  33.862  39.588  14.983
60889W        W25874  30.428  13.741  14.989
60890W        W25875  34.332   5.449  11.031
60891W        W25876  30.061  42.668  14.834
60892W        W25877  16.083   1.790   1.962
60893W        W25878   8.109  33.446  10.307
60894W        W25879  42.828  44.682  12.830
60895W        W25880  18.170  29.395   2.362
60896W        W25881   0.025  38.156  10.968
60897W        W25882  19.195  37.608   2.121
60898W        W25883  19.273   9.154   0.300
60899W        W25884  35.019  18.311   2.810
60900W        W25885   2.101  22.725   0.714
60901W        W25886  36.014  25.958   4.703
60902W        W25887  29.129  29.676  12.507
60903W        W25888  39.328  41.439  11.432
60904W        W25889   9.129  23.537   0.437
60905W        W25890   8.170  44.006  12.594
60906W        W25891  43.744  10.654   1.257
60907W        W25892  37.212   2.183  12.890
60908W        W25893   9.636  14.235  10.756
60909W        W25894  36.878  42.250  12.167
60910W        W25895  22.751  13.039   1.267
60911W        W25896   3.219  25.475  12.937
60912W        W25897  15.779  44.357  13.835
60913W        W25898  38.785  39.405  12.880
60914W        W25899  25.567   9.132   1.066
60915W        W25900  19.405  30.435  13.980
60916W        W25901   7.906  22.119   0.500
60917W        W25902  26.061  24.215  14.002
60918W        W25903  24.144  22.218   4.185
60919W        W25904   5.460  24.428  14.574
60920W        W25905  42.330  16.815   0.465
60921W        W25906   7.117  17.778  13.840
60922W        W25907  16.948  31.189  12.395
60923W        W25908  35.027   8.926  12.489
60924W        W25909  14.680  22.037   3.734
60925W        W25910   5.929   8.706   3.734
60926W        W25911  13.919   4.182  11.516
60927W        W25912   1.654   9.918   3.784
60928W        W25913  11.752  10.134  13.535
60929W        W25914   6.285   2.605   3.697
60930W        W25915  39.051  33.079   2.213
60931W        W25916  16.053   2.295  12.782
60932W        W25917  32.202  28.459  14.956
60933W        W25918  30.032  31.618   4.142
60934W        W25919  17.920  36.320  12.618
60935W        W25920  18.525  36.568   0.748
60936W        W25921  36.953  35.453  10.578
60937W        W25922   6.764  13.073  12.837
60938W        W25923  18.521  44.833   4.083
60939W        W25924  29.169  16.515   1.700
60940W        W25925  43.273   6.209  14.039
60941W        W25926  23.283  32.190   1.279
60942W        W25927  28.022  32.994   2.178
60943W        W25928   8.603   0.749  13.380
60944W        W25929   4.766  35.486   4.384
60945W        W25930  20.094  35.345  14.627
60946W        W25931  26.668  28.845  13.872
60947W        W25932  35.277  28.637  12.491
60948W        W25933   7.146   3.672  11.815
60949W        W25934   4.443  38.125  10.351
60950W        W25935  40.305  19.311   1.166
60951W        W25936  17.083   8.344   2.818
60952W        W25937  20.659  10.100   3.358
60953W        W25938  21.430  35.279   1.370
60954W        W25939   8.774  25.127   1.808
60955W        W25940  28.536   0.793  12.445
60956W        W25941  10.517  43.066  11.563
60957W        W25942  23.152  17.870   2.028
60958W        W25943  29.652   3.185   4.565
60959W        W25944   4.432   8.331   2.924
60960W        W25945  19.654   8.792  11.213
60961W        W25946   7.313  42.262  14.544
60962W        W25947  18.661  25.701   4.460
60963W        W25948   4.784  30.139  13.542
60964W        W25949   4.660  25.012   3.762
60965W        W25950  44.993  26.193   1.941
60966W        W25951  24.539  41.983  11.585
60967W        W25952  20.638  44.152  11.981
60968W        W25953  37.765  14.227   0.656
60969W        W25954   7.163  11.475  13.356
60970W        W25955  29.950  42.533  12.048
60971W        W25956  19.510   4.287   2.664
60972W        W25957  24.057  42.920   4.738
60973W        W25958  37.036  41.855   4.681
60974W        W25959  11.442   2.563  14.890
60975W        W25960   6.466  42.958  14.858
60976W        W25961  32.168  44.937   3.123
60977W        W25962  17.560  32.985   3.335
60978W        W25963  21.440  21.874  14.788
60979W        W25964  29.484  13.099   1.363
60980W        W25965  16.241   5.788  12.165
60981W        W25966  40.978  31.476   4.541
60982W        W25967  44.834  28.299   2.607
60983W        W25968   3.432  19.531   1.305
60984W        W25969   0.382  14.192   4.913
60985W        W25970  39.272  22.561   3.917
60986W        W25971  23.891   5.492  14.775
60987W        W25972  34.680  10.416   2.367
60988W        W25973  21.039   0.029  13.399
60989W        W25974  13.369  18.276  10.567
60990W        W25975   4.223   9.773   0.782
60991W        W25976  16.634   4.557  10.306
60992W        W25977  13.726  11.751  13.009
60993W        W25978  22.279  20.439  11.903
60994W        W25979  34.522  37.147   4.114
60995W        W25980   3.188   9.437   3.749
60996W        W25981   6.243  34.470  13.321
60997W        W25982  39.334  33.328  14.556
60998W        W25983  43.065  10.083   1.693
60999W        W25984   3.887  35.562  12.420
61000W        W25985  35.832   0.806   4.155
61001W        W25986  40.884  10.680   0.333
61002W        W25987  29.606  11.846  11.184
61003W        W25988   5.924  35.582  10.443
61004W        W25989  34.987  43.601   2.772
61005W        W25990  24.929  13.345   3.154
61006W        W25991   5.271  14.640   2.183
61007W        W25992  30.969  44.482  10.923
61008W        W25993   3.207  19.143   2.689
61009W        W25994   6.712  42.230   4.621
61010W        W25995  19.679  23.251   4.121
61011W        W25996  14.211  28.993  11.049
61012W        W25997  16.844  35.796   0.227
61013W        W25998  40.258   1.922  12.509
61014W        W25999  11.860  20.570   0.990
61015W        W26000  18.075   0.915   2.116
61016W        W26001   0.435  15.692  14.298
61017W        W26002   4.631  16.362   0.214
61018W        W26003   0.577  13.557   4.157
61019W        W26004  16.793  37.434   4.374
61020W        W26005  13.516  42.932  14.689
61021W        W26006   3.911   7.527  12.585
61022W        W26007  10.813  15.861   2.388
61023W        W26008  19.696   2.251   4.262
61024W        W26009  13.232  10.016  12.493
61025W        W26010  36.375  25.274  12.265
61026W        W26011   0.221  33.553  12.324
61027W        W26012   9.943  41.852   4.254
61028W        W26013  43.082   4.827   2.664
61029W        W26014  31.110  25.048  13.317
61030W        W26015   1.057  38.407   1.306
61031W        W26016  15.461  13.610   4.037
61032W        W26017  10.429  21.949   0.439
61033W        W26018  12.022  13.739   3.001
61034W        W26019  26.738  12.846  10.699
61035W        W26020  39.571  29.457   3.378
61036W        W26021  38.857  39.765  13.812
61037W        W26022   0.529  21.487  11.562
61038W        W26023  35.816  23.521  10.724
61039W        W26024   8.215  26.944  10.404
61040W        W26025  18.591  30.039  13.048
61041W        W26026  12.009  14.683   3.474
61042W        W26027  33.143  31.485  12.063
61043W        W26028  32.142  43.830  10.616
61044W        W26029  39.834  44.889   2.642
61045W        W26030  22.097  13.652   4.324
61046W        W26031   8.187  25.280   4.607
61047W        W26032  34.152   2.745  10.778
61048W        W26033  33.650   1.048  12.618
61049W        W26034  15.758  39.362   3.598
61050W        W26035  40.002  39.805  13.477
61051W        W26036  25.541  11.176   0.801
61052W        W26037   6.648   6.960   4.155
61053W        W26038  12.077  29.057   3.029
61054W        W26039  15.500  27.330   0.018
61055W        W26040  39.451   7.121   0.210
61056W        W26041  39.368  22.479   2.898
61057W        W26042   0.982  40.536  12.077
61058W        W26043   6.339  18.035   1.518
61059W        W26044   2.326  31.866   3.727
61060W        W26045  14.604  17.593  11.413
61061W        W26046  17.843   9.608  14.339
61062W        W26047  42.279  22.181   0.926
61063W        W26048   3.736  34.612  14.745
61064W        W26049  28.982  24.002   2.402
61065W        W26050  29.672  41.380   0.698
61066W        W26051   0.367  34.905  14.062
61067W        W26052  43.226  29.358   3.695
61068W        W26053  38.761  40.312  13.078
61069W        W26054   5.690  23.170   1.103
61070W        W26055  42.739   3.699   4.574
61071W        W26056   7.983  15.364   0.338
61072W        W26057  22.316  40.320   2.018
61073W        W26058  35.372  43.272   4.103
61074W        W26059  18.959  16.060   1.905
61075W        W26060   2.718  15.386  11.379
61076W        W26061  14.576  12.823   1.849
61077W        W26062   0.485  36.043  10.681
61078W        W26063  44.579  32.404   0.346
61079W        W26064  35.300  37.662   2.408
61080W        W26065   0.950   3.030   0.793
61081W        W26066  33.534  25.072   2.794
61082W        W26067  44.735  27.960  14.926
61083W        W26068  34.443  26.428   5.025
61084W        W26069  44.813  38.655  12.594
61085W        W26070   8.766  33.948   0.446
61086W        W26071  42.909   3.923   3.647
61087W        W26072  31.448  25.937   0.781
61088W        W26073   1.468  39.056  10.747
61089W        W26074  27.531  17.558   0.002
61090W        W26075  28.354  19.255  14.964
61091W        W26076  29.086  16.271  11.040
61092W        W26077  39.072  21.189   3.656
61093W        W26078  36.861  28.590  11.998
61094W        W26079  37.747  17.945  11.904
61095W        W26080  42.706   0.935   0.648
61096W        W26081  27.004  22.204   2.097
61097W        W26082  27.759  21.701  12.072
61098W        W26083  42.678  40.368   1.078
61099W        W26084  39.768  34.712   2.253
61100W        W26085  13.263   8.039  13.856
61101W        W26086  19.761  31.491  11.437
61102W        W26087  24.252   4.890   0.310
61103W        W26088  30.652  15.574  11.148
61104W        W26089  21.687  13.584   3.794
61105W        W26090   4.443  35.387   2.161
61106W        W26091   1.934  39.439  10.780
61107W        W26092  10.571  19.567  10.736
61108W        W26093  22.686  15.578   3.923
61109W        W26094  20.069  35.290   2.193
61110W        W26095  21.281  24.088   2.310
61111W        W26096  28.577  15.541   0.326
61112W        W26097  25.477  19.317   5.163
61113W        W26098  25.497   7.588  11.374
61114W        W26099  16.709  23.724   4.339
61115W        W26100  28.597  27.946  12.410
61116W        W26101  37.644  15.844  11.164
61117W        W26102   5.456   7.603  14.042
61118W        W26103  23.571  40.869   0.306
61119W        W26104  10.777   4.222  10.540
61120W        W26105  13.404  36.442  11.194
61121W        W26106   1.535   3.210   2.555
61122W        W26107   8.991   4.404   1.279
61123W        W26108  41.500  28.424   0.550
61124W        W26109  19.567  13.276   3.889
61125W        W26110  10.209   3.888   3.840
61126W        W26111  23.671  12.690   4.123
61127W        W26112   0.932  25.221   1.350
61128W        W26113  25.087  40.004  11.602
61129W        W26114  16.190  40.414   3.171
61130W        W26115  14.705  38.837   2.952
61131W        W26116   4.530   9.298  10.385
61132W        W26117  12.750  20.771   4.123
61133W        W26118  19.974  34.959  10.972
61134W        W26119  39.603  22.913   5.507
61135W        W26120  31.436  33.545  10.741
61136W        W26121  36.569  19.959  14.508
61137W        W26122  18.845  43.303   1.026
61138W        W26123  14.443  18.435  13.333
61139W        W26124  12.078  14.589  10.778
61140W        W26125  35.526  15.590   4.103
61141W        W26126   6.442  34.019  11.052
61142W        W26127  33.387  19.320   2.485
61143W        W26128  11.562   5.280  13.282
61144W        W26129  11.627  38.458  12.237
61145W        W26130  18.213  11.146   0.664
61146W        W26131  11.559  29.134   0.386
61147W        W26132  31.023   3.341  11.683
61148W        W26133  33.878   3.927  12.410
61149W        W26134  25.659   7.191   3.352
61150W        W26135   9.847  24.422   0.437
61151W        W26136  29.213  27.310   3.328
61152W        W26137  25.767  13.670   2.187
61153W        W26138  29.084  24.536   0.802
61154W        W26139  39.666  27.544   3.210
61155W        W26140  41.851  40.125   0.236
61156W        W26141  37.305  28.080   2.359
61157W        W26142   5.847  18.489   0.184
61158W        W26143  33.480  31.518  12.656
61159W        W26144  19.862  38.272  11.680
61160W        W26145  30.972   4.864   2.529
61161W        W26146   6.182  40.957   1.942
61162W        W26147  39.379  41.032   0.442
61163W        W26148  36.869  43.902  10.716
61164W        W26149  11.601   9.261   3.321
61165W        W26150  14.731  31.798  12.494
61166W        W26151   9.065   9.771  11.375
61167W        W26152  21.090  25.273   1.800
61168W        W26153  16.821  26.985   1.580
61169W        W26154  26.341  16.725  12.434
61170W        W26155  16.586  33.318   3.063
61171W        W26156  38.391  10.476   4.232
61172W        W26157  43.463  10.183  14.275
61173W        W26158  16.418  23.409  13.267
61174W        W26159  43.478  18.668   3.691
61175W        W26160  20.203  14.722   0.017
61176W        W26161  32.572   4.925  12.424
61177W        W26162  44.084  15.729  12.186
61178W        W26163  10.149   4.241  13.926
61179W        W26164   6.160   7.469   2.175
61180W        W26165  12.334  26.138  12.897
61181W        W26166  29.844  16.944  11.174
61182W        W26167  34.081   8.976  12.622
61183W        W26168   5.479  19.717  11.446
61184W        W26169  37.409  32.001   0.119
61185W        W26170  39.377  33.030   3.089
61186W        W26171   5.671   6.160   1.216
61187W        W26172  41.600   9.403  11.984
61188W        W26173  10.676  12.444  14.947
61189W        W26174  44.813   7.867   1.344
61190W        W26175   9.505   3.385   1.008
61191W        W26176   4.434  10.271   4.042
61192W        W26177   3.134   1.879  12.753
61193W        W26178  28.381   3.801   0.938
61194W        W26179  21.661  15.896  12.532
61195W        W26180   6.544  29.295   4.318
61196W        W26181   4.265  30.942  10.945
61197W        W26182  23.977   3.947   1.427
61198W        W26183   0.113  28.341  12.903
61199W        W26184  24.145   7.992   1.672
61200W        W26185  12.801  32.530  12.043
61201W        W26186  40.755  11.772   2.166
61202W        W26187  44.166  20.893  14.476
61203W        W26188  30.110  14.228   2.487
61204W        W26189   2.000  35.456   2.279
61205W        W26190  33.491  42.396   2.854
61206W        W26191  38.889  39.312  10.427
61207W        W26192  43.535   0.840  11.604
61208W        W26193  36.553  29.875  12.560
61209W        W26194  14.371   8.702   0.299
61210W        W26195  21.736  34.126   0.455
61211W        W26196   1.289  10.612   3.600
61212W        W26197  25.336  33.955  12.176
61213W        W26198  21.237   7.667  14.033
61214W        W26199  34.097  36.342  10.739
61215W        W26200  35.399   1.031  11.661
61216W        W26201  42.893  41.579   1.009
61217W        W26202   5.581  15.993   2.144
61218W        W26203  43.133  20.108  13.704
61219W        W26204  30.865  19.581  11.511
61220W        W26205  15.067  33.603   4.336
61221W        W26206  25.544  25.060   4.515
61222W        W26207  35.285  38.119  10.737
61223W        W26208  22.555  10.737   4.906
61224W        W26209  37.760  44.751  14.193
61225W        W26210  28.253  20.504   0.373
61226W        W26211  26.245  16.850   2.240
61227W        W26212   1.926  35.795   1.824
61228W        W26213  22.501  20.229  12.757
61229W        W26214  11.107   3.530  14.916
61230W        W26215   5.520  26.143  12.777
61231W        W26216   7.665  44.354  12.526
61232W        W26217  24.617  19.558   3.245
61233W        W26218  26.712  25.183   3.119
61234W        W26219   9.144  40.012   2.667
61235W        W26220  44.205  27.897  12.607
61236W        W26221  29.015  11.215   0.564
61237W        W26222  35.924  44.055   0.595
61238W        W26223  33.732  36.104  10.450
61239W        W26224  29.875  44.877  10.133
61240W        W26225  14.553  22.985   2.616
61241W        W26226  28.855  12.455   2.281
61242W        W26227  16.762  25.940   2.131
61243W        W26228  33.078   5.261  14.017
61244W        W26229  18.134  21.865   4.202
61245W        W26230  42.279   9.772  14.192
61246W        W26231  21.756  15.282  10.621
61247W        W26232  37.405  21.618  12.870
61248W        W26233  13.759  17.954   4.647
61249W        W26234  32.503  39.080  14.881
61250W        W26235  34.398   2.869  14.372
61251W        W26236  20.162  24.843   3.765
61252W        W26237  10.193  11.425   1.767
61253W        W26238  17.614   7.974   4.780
61254W        W26239  16.261  38.364  10.624
61255W        W26240   3.700  40.911  10.748
61256W        W26241   3.209  21.153   3.545
61257W        W26242  14.648  16.463   1.763
61258W        W26243  20.896  10.091  14.505
61259W        W26244  40.439   0.693   4.175
61260W        W26245   5.374   1.678   4.617
61261W        W26246  12.778  15.161   3.781
61262W        W26247   5.715  22.715   0.782
61263W        W26248  28.210  18.809   0.424
61264W        W26249   8.769  11.696  13.556
61265W        W26250  26.059   9.357   2.748
61266W        W26251  36.925  36.441   1.931
61267W        W26252  25.073  15.363   1.858
61268W        W26253   5.288  22.500  12.171
61269W        W26254  28.598   1.171  12.080
61270W        W26255   9.724  38.931   4.185
61271W        W26256  18.085  11.931   1.535
61272W        W26257  40.730  22.652  10.798
61273W        W26258   3.481  11.044   4.928
61274W        W26259  34.363  23.372  13.057
61275W        W26260  30.188   7.648  10.484
61276W        W26261  22.019  32.547  12.471
61277W        W26262  29.956   1.108  12.655
61278W        W26263  23.241  39.123  11.918
61279W        W26264  10.692  27.692   4.600
61280W        W26265  16.270  43.831  14.499
61281W        W26266   4.397  13.048   2.305
61282W        W26267   3.967  29.814   0.670
61283W        W26268  22.640  35.044   2.413
61284W        W26269   6.377  17.542   3.229
61285W        W26270   5.308   5.110   2.645
61286W        W26271   6.660   2.848  12.792
61287W        W26272  17.243  21.573   1.195
61288W        W26273  15.077  26.637   0.487
61289W        W26274  32.808  22.587  11.539
61290W        W26275  41.418  28.235   2.903
61291W        W26276  44.490  25.920  10.261
61292W        W26277  18.186  27.683  13.122
61293W        W26278  17.762  40.711  10.426
61294W        W26279  29.722  24.510  11.124
61295W        W26280   8.382  19.952  13.794
61296W        W26281  41.468   7.367  12.076
61297W        W26282   7.363  32.936  13.127
61298W        W26283  33.624  25.963  13.106
61299W        W26284  32.119  22.885  12.974
61300W        W26285   0.773  21.598  12.795
61301W        W26286   8.896  19.113   0.010
61302W        W26287  32.978   9.792  12.478
61303W        W26288  22.160   9.130   3.117
61304W        W26289  26.551  18.135  12.714
61305W        W26290  32.927  15.270   3.626
61306W        W26291  24.713  10.407   1.922
61307W        W26292  33.419  16.215   4.281
61308W        W26293   9.949  14.831  13.956
61309W        W26294   8.702  14.730   4.939
61310W        W26295  17.317  18.519   1.011
61311W        W26296  32.738  36.359  13.015
61312W        W26297  16.878  25.075   3.899
61313W        W26298   6.961  43.733   4.644
61314W        W26299  35.730  11.823   5.345
61315W        W26300   0.652   6.569  14.439
61316W        W26301  15.754  24.784  11.941
61317W        W26302   6.356  44.281  14.750
61318W        W26303  32.571  40.502  12.556
61319W        W26304   1.867  33.139   3.749
61320W        W26305  26.828  40.088  12.359
61321W        W26306  17.587  31.467   2.703
61322W        W26307  26.783   1.422  11.270
61323W        W26308  38.859  19.761   2.767
61324W        W26309  17.183  40.887  14.991
61325W        W26310  11.323  10.849  13.942
61326W        W26311  40.833  40.072   2.817
61327W        W26312  31.183  36.812  14.367
61328W        W26313  34.187  34.368  14.586
61329W        W26314  34.609  25.610  10.739
61330W        W26315  33.957  35.865   4.728
61331W        W26316  40.937  26.617  11.105
61332W        W26317  19.305  11.126  14.801
61333W        W26318  26.123  38.732  10.934
61334W        W26319  31.096  16.375   2.442
61335W        W26320  31.450   9.636   3.733
61336W        W26321   9.222  20.944  10.576
61337W        W26322  14.684  11.786   0.161
61338W        W26323   6.169  28.722   0.909
61339W        W26324  32.144  27.164   3.786
61340W        W26325   7.123   3.873   1.668
61341W        W26326  36.087  31.389  13.380
61342W        W26327   5.933  13.309   4.560
61343W        W26328  25.736  41.810   3.578
61344W        W26329  31.870  37.676   3.622
61345W        W26330   0.365   0.830  11.614
61346W        W26331  28.400  18.071  14.408
61347W        W26332  38.115  16.562   3.689
61348W        W26333  29.081  15.501  11.524
61349W        W26334  29.829  39.896   1.810
61350W        W26335  38.073  40.415  10.540
61351W        W26336  36.807  20.583   3.609
61352W        W26337  14.329  42.216  14.953
61353W        W26338   7.180  23.678  12.977
61354W        W26339  15.161  14.605  12.929
61355W        W26340  26.287  11.483   5.112
61356W        W26341  12.882   1.413  13.131
61357W        W26342  20.046  37.062   2.232
61358W        W26343  13.205  43.285   3.847
61359W        W26344   6.354  44.015  12.714
61360W        W26345   7.011   1.006  13.971
61361W        W26346  23.665  11.806   3.683
61362W        W26347   2.224  32.922   2.932
61363W        W26348  37.935  39.036   3.202
61364W        W26349  30.389  14.056  13.575
61365W        W26350  17.165  14.393   3.738
61366W        W26351   9.746  34.128   4.534
61367W        W26352  38.949  42.534  10.075
61368W        W26353  33.587  10.370  11.156
61369W        W26354  32.453   9.597  10.229
61370W        W26355  43.510  17.518   0.632
61371W        W26356   2.793  21.569  12.442
61372W        W26357  33.564  20.552   2.376
61373W        W26358   6.739  35.816  14.165
61374W        W26359  43.302  28.115  14.792
61375W        W26360  43.489  17.678   1.164
61376W        W26361  23.738  35.034  11.884
61377W        W26362  14.242  44.880  10.730
61378W        W26363  33.967  44.410   4.372
61379W        W26364  11.705  24.808  14.357
61380W        W26365   0.409   0.313  13.429
61381W        W26366  25.564  17.820  14.982
61382W        W26367   5.810  11.407  14.814
61383W        W26368  32.008  44.874   0.350
61384W        W26369  43.866  39.782  14.884
61385W        W26370  33.092  23.150  10.508
61386W        W26371  29.652  34.433   4.019
61387W        W26372  14.309  33.586   4.418
61388W        W26373  10.043  44.722  11.204
61389W        W26374   2.247  32.067  14.792
61390W        W26375  39.120   9.207   4.135
61391W        W26376   4.839  15.613   3.077
61392W        W26377   7.234   9.417   2.205
61393W        W26378  35.344   5.842  10.407
61394W        W26379  32.076  33.134  14.913
61395W        W26380  19.194   2.926   0.992
61396W        W26381  22.550  32.331   2.710
61397W        W26382  43.291  16.732   0.309
61398W        W26383   1.444  40.998  10.640
61399W        W26384   4.430  23.969   1.366
61400W        W26385  13.373  27.153  13.870
61401W        W26386  20.136  27.252  14.405
61402W        W26387   3.337  23.198   0.033
61403W        W26388  20.462   4.189  14.415
61404W        W26389  12.352  36.381   3.840
61405W        W26390  36.448  14.089   3.885
61406W        W26391  41.079  38.519   1.158
61407W        W26392  43.070  33.126   3.727
61408W        W26393   4.897  37.874  13.316
61409W        W26394  43.844  42.232  11.561
61410W        W26395  39.920  26.637  12.948
61411W        W26396  33.890  29.228  13.431
61412W        W26397  41.061   1.671   0.880
61413W        W26398  22.461   2.298   2.585
61414W        W26399  13.096  40.352   4.110
61415W        W26400  17.063   8.704   0.323
61416W        W26401   0.415  23.625   2.915
61417W        W26402   7.364  10.324   3.705
61418W        W26403  13.958  16.351  12.750
61419W        W26404  34.411  37.657  13.114
61420W        W26405   7.111  38.010  10.701
61421W        W26406   3.191  10.873   1.242
61422W        W26407  20.874  10.077   2.507
61423W        W26408  35.549  39.083  12.143
61424W        W26409   2.714   3.767   1.343
61425W        W26410  11.947  16.040  13.406
61426W        W26411  42.461  36.611  14.964
61427W        W26412   4.451   2.748   1.448
61428W        W26413   0.749  44.579  14.539
61429W        W26414  22.625  17.459  12.569
61430W        W26415  29.934   0.043  12.492
61431W        W26416  17.647  41.685  10.862
61432W        W26417  29.755  31.621   3.216
61433W        W26418  44.997  28.406  14.760
61434W        W26419  27.455  37.486  11.486
61435W        W26420   4.240   3.930  12.982
61436W        W26421  28.598  42.283  14.328
61437W        W26422  24.435  34.867  14.495
61438W        W26423  41.871   0.706  12.835
61439W        W26424  35.100  15.557   3.204
61440W        W26425  12.766  11.109  13.939
61441W        W26426  36.934  29.175  14.245
61442W        W26427  30.116  32.795  11.985
61443W        W26428  22.564  10.199   0.257
61444W        W26429  29.180  37.588   1.781
61445W        W26430  35.638  14.009   1.878
61446W        W26431  28.995  13.239  14.621
61447W        W26432  13.633  22.600   2.466
61448W        W26433  35.101  26.429   1.109
61449W        W26434  34.205  27.762   4.154
61450W        W26435   9.608   7.241  10.565
61451W        W26436  17.522   8.248   1.071
61452W        W26437  12.750   4.530  13.391
61453W        W26438  11.255   6.031   3.579
61454W        W26439  41.597  40.577   0.308
61455W        W26440   0.293  36.159  12.451
61456W        W26441  26.602  23.098   1.879
61457W        W26442  13.394   4.703   2.227
61458W        W26443  30.610  16.414   2.254
61459W        W26444  38.135  41.314  10.805
61460W        W26445  25.670  37.303  14.322
61461W        W26446  22.189  10.487  12.958
61462W        W26447  32.743   8.198  14.336
61463W        W26448  24.743  40.423   4.128
61464W        W26449  14.082  21.798  12.116
61465W        W26450   5.823  30.075  10.898
61466W        W26451  18.116  26.557   3.556
61467W        W26452   0.548  28.017   1.324
61468W        W26453   2.089   6.009   2.814
61469W        W26454  22.721  39.637   2.614
61470W        W26455   9.344  26.218   3.591
61471W        W26456  44.350  10.700  14.389
61472W        W26457  29.205  36.389  11.269
61473W        W26458  35.326  26.002  13.939
61474W        W26459  35.304  39.508   1.303
61475W        W26460  44.257   2.868   4.769
61476W        W26461  26.669  21.812  10.911
61477W        W26462  24.610  19.241  11.247
61478W        W26463  35.107   5.006  14.478
61479W        W26464  33.370  25.136   1.428
61480W        W26465  22.111  26.154  14.675
61481W        W26466  32.522  18.248  10.778
61482W        W26467  21.103   5.193  11.654
61483W        W26468  15.812  17.181  13.557
61484W        W26469  33.960  31.581  11.449
61485W        W26470  22.763  33.061  13.856
61486W        W26471  17.720  40.174  11.626
61487W        W26472   5.892  21.068  10.053
61488W        W26473  24.402  41.328   0.522
61489W        W26474  28.869  43.489  12.971
61490W        W26475  10.208  40.715  12.066
61491W        W26476  14.650   0.209  10.699
61492W        W26477   3.217  17.987   1.247
61493W        W26478  13.150  22.634   2.693
61494W        W26479  35.069  21.561   2.911
61495W        W26480  13.377  22.984  13.928
61496W        W26481  32.997  27.631  12.502
61497W        W26482  17.244  12.452  12.816
61498W        W26483  11.346  24.021  13.433
61499W        W26484   0.070  38.923   2.097
61500W        W26485  30.908  26.351   1.366
61501W        W26486   3.923  42.124   4.478
61502W        W26487  15.055  16.807  13.029
61503W        W26488  37.554  11.197  14.184
61504W        W26489  26.159  41.517  12.301
61505W        W26490  23.330  25.693  13.398
61506W        W26491  10.871  26.951   2.343
61507W        W26492  12.087   4.406   2.672
61508W        W26493  22.640  15.342   3.391
61509W        W26494  37.391  34.413  12.865
61510W        W26495   4.286  44.847   0.230
61511W        W26496  44.028  27.435  12.794
61512W        W26497  33.681  37.962  12.877
61513W        W26498  18.103  38.919   3.626
61514W        W26499  23.950  27.426   1.258
61515W        W26500  27.271   7.332   3.374
61516W        W26501  36.056  43.287  11.015
61517W        W26502  10.725   0.035  13.672
61518W        W26503  24.575  20.376   1.146
61519W        W26504   7.344  10.732   4.824
61520W        W26505   6.753  22.064  13.873
61521W        W26506  36.375   3.372   4.519
61522W        W26507  23.046  26.211   3.215
61523W        W26508  25.197  15.464   2.669
61524W        W26509  23.938  20.508   3.680
61525W        W26510  30.894  28.611   0.711
61526W        W26511  25.747  19.503  14.261
61527W        W26512  25.069  27.937  12.053
61528W        W26513  37.025  15.604   3.244
61529W        W26514  25.426  12.159  13.678
61530W        W26515  40.085  40.584  13.955
61531W        W26516  36.999  24.576   4.242
61532W        W26517  19.685  25.242  11.564
61533W        W26518  40.233  31.947   4.506
61534W        W26519  29.783  15.704  13.410
61535W        W26520  10.175  22.569  11.910
61536W        W26521  29.214  10.731   0.454
61537W        W26522   4.333  29.149  12.853
61538W        W26523   4.196  15.487  13.349
61539W        W26524   6.819  20.115  10.418
61540W        W26525  14.834   4.894  14.768
61541W        W26526  29.032  31.171  12.716
61542W        W26527  26.974  13.117   0.302
61543W        W26528  14.700  17.667  14.837
61544W        W26529  32.624  10.207   0.191
61545W        W26530  42.864  35.037  13.695
61546W        W26531  19.143  27.097   0.428
61547W        W26532  20.215  42.847  10.263
61548W        W26533  28.586  10.923  10.868
61549W        W26534   0.240  44.799   4.090
61550W        W26535  19.009  31.865   4.947
61551W        W26536  43.261  36.437   1.696
61552W        W26537  21.101   2.257  10.659
61553W        W26538  39.392  19.184   2.437
61554W        W26539  39.571  31.944   1.415
61555W        W26540  11.207   2.452  13.092
61556W        W26541  38.290  10.364  10.256
61557W        W26542  14.919  35.420  14.864
61558W        W26543  27.009  39.184  13.533
61559W        W26544  44.265  11.863  13.892
61560W        W26545  10.389  36.007   4.776
61561W        W26546  15.266  44.771   0.224
61562W        W26547  24.464  21.975  11.948
61563W        W26548  31.976  34.214  14.924
61564W        W26549  24.563  36.934   0.986
61565W        W26550   5.484  38.759  11.471
61566W        W26551   3.387  17.053  13.562
61567W        W26552  36.394  33.600  10.631
61568W        W26553  29.715  40.883   4.703
61569W        W26554  13.346  30.998   3.672
61570W        W26555  21.632  19.811   9.904
61571W        W26556  24.905   6.389   3.777
61572W        W26557  14.296  39.799  10.597
61573W        W26558  11.240  14.999   2.177
61574W        W26559  33.412  24.937   3.651
61575W        W26560  21.140  18.705   2.820
61576W        W26561  38.412  10.168  12.007
61577W        W26562  34.995  22.736   1.083
61578W        W26563  16.077  15.696   3.212
61579W        W26564  39.805  32.621   0.942
61580W        W26565  10.446   3.856  11.830
61581W        W26566  17.795  14.488   1.342
61582W        W26567  30.295  30.469   3.697
61583W        W26568  10.622   5.448  13.395
61584W        W26569   0.552   2.505  12.033
61585W        W26570  16.404   3.746   9.961
61586W        W26571   7.228   1.874  13.429
61587W        W26572  23.552   0.578   3.254
61588W        W26573  44.822  14.353   2.326
61589W        W26574  33.090  33.449  12.080
61590W        W26575  39.815   1.288  10.670
61591W        W26576  37.016   7.993   2.385
61592W        W26577  26.457  39.636   0.276
61593W        W26578  44.679  12.762   0.815
61594W        W26579  41.402   6.261   0.063
61595W        W26580   5.743  30.424  14.648
61596W        W26581   4.376  10.552   3.605
61597W        W26582   7.343  11.909  11.654
61598W        W26583  25.358  42.822   1.344
61599W        W26584  42.763  11.089   1.811
61600W        W26585  20.179   2.185  10.717
61601W        W26586   3.926  14.377   4.721
61602W        W26587  17.352  39.034  12.767
61603W        W26588  17.244  38.546  12.632
61604W        W26589  36.797  14.995   2.614
61605W        W26590   8.721  29.520  12.472
61606W        W26591  22.919  39.316  10.640
61607W        W26592  27.663  35.075  11.957
61608W        W26593   3.365   5.241   2.592
61609W        W26594  28.381  37.038  14.383
61610W        W26595  25.684  34.886   1.561
61611W        W26596  38.305   8.016   0.292
61612W        W26597  40.632  33.893   0.441
61613W        W26598  30.852  10.595   2.764
61614W        W26599  15.569  42.949   0.823
61615W        W26600  16.827   7.864  12.120
61616W        W26601  41.432  11.162  13.793
61617W        W26602  43.945  11.897   3.256
61618W        W26603  35.641  26.920   1.839
61619W        W26604  33.617  43.297   2.868
61620W        W26605   0.693  22.202   0.529
61621W        W26606   3.994   3.695   2.188
61622W        W26607  43.251  44.688  13.166
61623W        W26608  11.935  13.806   4.596
61624W        W26609  43.824  21.949  14.798
61625W        W26610   8.705  39.652   2.743
61626W        W26611   3.965   9.817  13.604
61627W        W26612  24.788  23.257  12.390
61628W        W26613  40.515  39.819  13.473
61629W        W26614  43.333  42.008  10.497
61630W        W26615  34.940  40.928  13.452
61631W        W26616  16.030  37.406   0.396
61632W        W26617  15.069  13.075   1.360
61633W        W26618   0.948   8.082  14.148
61634W        W26619  40.114  15.345   3.645
61635W        W26620  16.518  17.980   4.207
61636W        W26621  29.416  28.446  13.530
61637W        W26622  16.209  18.317  10.415
61638W        W26623  35.697  18.759  11.596
61639W        W26624  29.567  37.149   3.263
61640W        W26625  24.234  19.041  12.556
61641W        W26626   4.822  20.345   1.903
61642W        W26627  24.634  16.359   0.849
61643W        W26628   0.896  24.235   2.701
61644W        W26629  44.498  30.166   4.579
61645W        W26630   8.899  40.924   2.262
61646W        W26631   0.886  15.931  14.455
61647W        W26632   7.078   1.948  11.927
61648W        W26633   5.022  23.341   4.700
61649W        W26634  31.516  26.813   1.873
61650W        W26635  23.218  17.041   0.827
61651W        W26636  40.976  44.566   2.753
61652W        W26637   0.437  33.200   2.407
61653W        W26638  37.540  19.097  14.563
61654W        W26639  18.470  30.695   0.525
61655W        W26640  33.404  19.427   3.824
61656W        W26641  27.133  27.945   4.919
61657W        W26642  10.031   0.173   1.509
61658W        W26643  34.012  16.034   2.327
61659W        W26644  27.069  32.491   0.377
61660W        W26645  28.251  30.115  13.461
61661W        W26646  26.248  33.075   0.756
61662W        W26647  17.246  26.446   0.270
61663W        W26648  15.801  17.285  11.274
61664W        W26649  34.957  29.918   2.628
61665W        W26650  31.371   1.771  13.050
61666W        W26651  42.481  30.944  12.359
61667W        W26652   4.456  30.791   3.808
61668W        W26653  26.710  10.870  14.067
61669W        W26654   7.251  40.335  13.795
61670W        W26655  39.529  27.139   1.881
61671W        W26656  18.683  37.314   2.208
61672W        W26657  26.164  37.522   2.155
61673W        W26658  16.054  37.966   4.015
61674W        W26659  12.890  23.428  13.486
61675W        W26660  34.501   3.822   2.830
61676W        W26661   8.622   4.304   1.977
61677W        W26662  17.481  37.455   2.405
61678W        W26663  44.332  32.346  13.077
61679W        W26664  43.287  42.959  10.815
61680W        W26665   2.145   3.807  13.126
61681W        W26666  42.489  17.446  11.134
61682W        W26667   4.604  14.109  12.266
61683W        W26668  13.630  41.760   2.504
61684W        W26669   9.448  37.097   0.316
61685W        W26670  12.882  24.068   0.559
61686W        W26671   4.185  20.260  10.956
61687W        W26672  20.660  22.557   1.520
61688W        W26673  34.085  19.347   1.817
61689W        W26674   2.229  17.577  13.942
61690W        W26675  41.926  21.572  12.517
61691W        W26676  22.736  27.624  10.658
61692W        W26677  21.041  17.346  12.832
61693W        W26678  23.288  14.801  11.557
61694W        W26679  36.884  24.150   4.569
61695W        W26680   7.923  28.113  14.641
61696W        W26681   3.455  44.427  11.377
61697W        W26682  21.059   2.418   1.281
61698W        W26683  35.377  13.043   2.751
61699W        W26684   4.239  20.167  11.443
61700W        W26685   6.011  29.081   1.249
61701W        W26686  44.088  28.211  13.449
61702W        W26687   8.710  23.182  13.270
61703W        W26688  30.954  41.572   2.231
61704W        W26689  36.844  31.155   3.085
61705W        W26690  39.789  35.385  12.921
61706W        W26691  24.773  26.153  14.379
61707W        W26692  11.650  13.483   4.941
61708W        W26693   1.986  34.890   2.194
61709W        W26694  41.337  28.076   2.399
61710W        W26695  18.073  30.466  11.428
61711W        W26696  23.243  21.938  11.085
61712W        W26697  38.402   6.754   4.974
61713W        W26698  20.320  35.383   3.545
61714W        W26699  36.336  19.575  11.493
61715W        W26700  13.760  36.964  11.321
61716W        W26701  30.361  16.312  12.110
61717W        W26702  42.091  20.240  12.943
61718W        W26703  43.741   8.764   1.689
61719W        W26704   3.223  39.515   2.161
61720W        W26705  39.938  35.150  12.481
61721W        W26706   4.805  29.001   4.988
61722W        W26707  28.163  40.653  11.915
61723W        W26708  36.907   4.945  14.841
61724W        W26709   0.707  33.658   4.147
61725W        W26710  37.452   8.932   3.280
61726W        W26711  33.507  32.665  12.821
61727W        W26712   0.529  33.005  10.176
61728W        W26713  31.888   8.105   3.150
61729W        W26714  29.021  25.297  12.091
61730W        W26715   8.722   1.532  11.994
61731W        W26716  30.244   8.238  11.626
61732W        W26717  31.431   1.445   1.818
61733W        W26718  44.255   4.212  12.010
61734W        W26719  18.219  39.769  14.516
61735W        W26720  42.278  15.230  14.766
61736W        W26721  21.182  22.908  14.819
61737W        W26722   7.502  43.555   4.716
61738W        W26723  12.599  31.890   3.125
61739W        W26724   2.925   7.291  11.746
61740W        W26725  23.736  25.521   3.283
61741W        W26726  29.150  40.832  10.740
61742W        W26727  16.482  14.171  11.189
61743W        W26728  41.711  42.402  14.411
61744W        W26729   9.908  20.992  12.574
61745W        W26730  33.991  31.055   2.161
61746W        W26731  38.688  33.124  11.012
61747W        W26732  35.375  33.346   2.198
61748W        W26733  43.799   5.565   4.464
61749W        W26734  37.843   1.508   3.665
61750W        W26735  27.604   9.786   2.441
61751W        W26736   0.709  34.415   0.209
61752W        W26737  44.031   9.383   1.403
61753W        W26738  11.229  11.573   3.166
61754W        W26739  41.267  30.479   4.117
61755W        W26740  41.997  33.105   0.200
61756W        W26741  16.572  24.676  14.248
61757W        W26742   8.436   7.268   1.877
61758W        W26743   3.791   4.169  13.032
61759W        W26744  15.683  35.977   0.936
61760W        W26745  41.075  31.631   2.332
61761W        W26746  29.044  39.599  11.950
61762W        W26747  20.318  33.591  13.921
61763W        W26748  32.592  20.702   2.008
61764W        W26749  14.070  38.235  11.599
61765W        W26750  12.757  16.092  10.705
61766W        W26751  15.642  22.763   1.258
61767W        W26752  19.151   6.767  11.699
61768W        W26753  25.727  33.181   4.471
61769W        W26754  10.883  27.527  12.112
61770W        W26755  36.131   0.880   1.215
61771W        W26756  14.490  27.441  14.923
61772W        W26757  42.370   4.642  12.062
61773W        W26758  39.360  15.099  13.124
61774W        W26759  43.876   9.376  13.367
61775W        W26760  26.798  33.660  13.587
61776W        W26761  26.493  36.376  13.609
61777W        W26762  13.579  43.608  11.105
61778W        W26763  37.395  29.647  11.591
61779W        W26764  41.055  10.731  13.605
61780W        W26765  31.153  18.293   2.170
61781W        W26766  34.761  16.162  14.233
61782W        W26767   6.179  26.103   4.149
61783W        W26768   6.643  33.552   1.160
61784W        W26769   8.594  32.479   2.334
61785W        W26770  27.945  39.583   1.124
61786W        W26771   2.839   2.920  10.880
61787W        W26772  18.978  33.961  11.953
61788W        W26773  17.871  42.547  13.556
61789W        W26774  36.181  33.951  13.020
61790W        W26775  36.574  37.401  13.141
61791W        W26776  38.227  11.375   0.429
61792W        W26777  39.116   8.295  13.874
61793W        W26778  30.092  13.855  11.506
61794W        W26779  39.817  14.639  12.663
61795W        W26780  41.050   8.678  12.224
61796W        W26781  22.684  38.840  12.957
61797W        W26782  27.662  32.144   0.968
61798W        W26783  19.753  15.818   3.634
61799W        W26784  37.406   9.224  10.515
61800W        W26785  38.297  41.808  10.676
61801W        W26786   0.778  27.631   1.869
61802W        W26787  38.103   6.864  10.623
61803W        W26788  24.530  31.120   2.808
61804W        W26789   6.846   5.930  13.494
61805W        W26790  20.555  22.777  14.412
61806W        W26791   7.758  13.775   1.502
61807W        W26792  40.563  26.128   3.309
61808W        W26793  19.259  15.136   4.609
61809W        W26794  37.492  40.472   4.685
61810W        W26795  17.665  26.611  13.570
61811W        W26796  17.209  25.637  14.779
61812W        W26797   9.977  31.441  14.260
61813W        W26798  13.782  10.616   3.813
61814W        W26799  38.680  23.532  10.741
61815W        W26800  22.430  37.241  14.533
61816W        W26801  18.166  29.563  12.639
61817W        W26802  26.628  35.601   0.290
61818W        W26803  28.361   9.016   3.468
61819W        W26804  26.876   0.041   0.346
61820W        W26805  29.028  28.140  11.514
61821W        W26806  26.168  29.681   2.174
61822W        W26807  25.602  26.764  13.801
61823W        W26808  31.378  14.080  14.304
61824W        W26809  37.421   7.883   4.248
61825W        W26810  35.818  16.296   4.333
61826W        W26811  40.291  33.544   0.817
61827W        W26812   1.864  11.183   1.367
61828W        W26813  33.037  13.179  11.157
61829W        W26814  22.373  27.172   4.612
61830W        W26815  30.879  29.046   1.199
61831W        W26816  20.843   7.771  11.250
61832W        W26817   0.016  13.196  13.896
61833W        W26818  38.085  10.555  11.601
61834W        W26819   7.966  43.059  11.109
61835W        W26820  22.626   3.180   1.258
61836W        W26821  32.486   8.622   0.847
61837W        W26822   9.488   7.194   0.807
61838W        W26823   1.178  31.210  13.979
61839W        W26824  37.220   7.755   9.924
61840W        W26825  32.397  20.808   2.919
61841W        W26826  37.474  20.745  11.928
61842W        W26827  25.601  40.307  10.309
61843W        W26828  30.223   7.317   0.909
61844W        W26829  11.727  39.952   1.463
61845W        W26830   5.179  22.905  13.665
61846W        W26831  26.275  25.793   4.636
61847W        W26832  15.748  24.673  14.805
61848W        W26833   3.995  19.624  14.565
61849W        W26834  11.831  29.020   4.733
61850W        W26835  29.320  21.790  13.974
61851W        W26836  15.383  22.109  13.916
61852W        W26837  13.803  42.289   2.468
61853W        W26838  35.965  33.211   0.080
61854W        W26839  27.182   4.387   4.637
61855W        W26840  11.687  23.756  14.373
61856W        W26841  27.565  33.818  11.243
61857W        W26842  38.398   4.368  13.235
61858W        W26843   2.757  18.168   4.541
61859W        W26844  28.402  19.664  10.660
61860W        W26845  34.771  25.533  13.077
61861W        W26846  39.271  19.768   4.815
61862W        W26847  44.053  32.873  11.690
61863W        W26848  16.593  23.769   2.693
61864W        W26849   0.964  36.063   3.649
61865W        W26850  31.653  21.702   0.502
61866W        W26851   7.311  20.354  13.106
61867W        W26852  32.170  34.394  11.043
61868W        W26853  33.196   6.885  12.512
61869W        W26854  34.115   8.804   0.242
61870W        W26855   6.196   3.990  11.554
61871W        W26856  40.047   3.094   4.547
61872W        W26857  13.718   9.879  12.556
61873W        W26858  15.376  35.722   0.610
61874W        W26859   5.890  44.176   0.333
61875W        W26860  22.187   2.745  13.535
61876W        W26861  18.253  44.768  12.976
61877W        W26862  23.436   3.719   2.689
61878W        W26863  38.526  28.431   4.085
61879W        W26864   3.304  36.889   2.996
61880W        W26865  33.970   3.418  14.086
61881W        W26866   3.879  26.736  13.851
61882W        W26867  43.981  44.390  13.280
61883W        W26868  43.938  17.528   1.357
61884W        W26869  22.741  25.509   4.183
61885W        W26870   5.017  41.075   3.898
61886W        W26871   8.804  21.726   0.632
61887W        W26872  41.583  23.501   3.155
61888W        W26873  19.489  36.130   0.806
61889W        W26874   6.305  24.152  10.953
61890W        W26875  37.371   3.114   5.063
61891W        W26876  40.404  29.644   2.863
61892W        W26877  44.530  21.634  13.378
61893W        W26878  39.749  37.083   2.389
61894W        W26879  20.740  37.577  10.211
61895W        W26880  20.662   3.502  10.680
61896W        W26881  21.690  20.347  14.794
61897W        W26882  14.269   1.885  13.255
61898W        W26883  41.804  40.559   1.212
61899W        W26884  15.194  22.292  14.371
61900W        W26885  17.707  33.430  12.027
61901W        W26886  17.668  20.599  13.893
61902W        W26887  38.904   0.705   0.247
61903W        W26888  34.004  38.782   4.555
61904W        W26889  39.372  19.027  13.600
61905W        W26890  12.738  31.452   3.821
61906W        W26891   2.206  31.774  10.384
61907W        W26892  23.717  26.553  13.030
61908W        W26893  27.143  39.835  10.380
61909W        W26894  22.436  36.300  13.015
61910W        W26895  44.815   9.566   0.953
61911W        W26896   6.415  12.552  10.767
61912W        W26897   6.996  34.878   2.207
61913W        W26898  16.246  16.143  12.013
61914W        W26899  21.355  28.857  12.006
61915W        W26900  25.057  40.479   1.305
61916W        W26901   5.898  25.334   3.125
61917W        W26902  27.173  18.695   1.235
61918W        W26903  12.563  42.964   1.396
61919W        W26904  19.080  36.835  13.557
61920W        W26905   6.880  13.101   1.155
61921W        W26906   1.557  33.202  12.451
61922W        W26907  19.184  27.161   3.457
61923W        W26908  14.785   2.822  11.122
61924W        W26909  30.335  32.922  11.540
61925W        W26910   3.840  32.765  11.138
61926W        W26911  11.421  12.066   1.358
61927W        W26912  17.069  17.679  13.531
61928W        W26913   5.203  27.551  10.645
61929W        W26914  16.230  29.754  12.090
61930W        W26915  34.360  16.842  12.244
61931W        W26916  23.749  35.983  10.459
61932W        W26917  44.428   0.881  12.945
61933W        W26918  17.742  23.171  14.409
61934W        W26919   7.361  32.457   1.819
61935W        W26920   4.509  35.052  14.751
61936W        W26921   3.342  20.119  11.577
61937W        W26922  13.842  10.202   4.142
61938W        W26923  17.384  20.499  14.891
61939W        W26924  31.013   8.258   5.014
61940W        W26925  32.520  26.162   1.351
61941W        W26926  29.323  27.948  12.802
61942W        W26927  37.964   1.041   1.295
61943W        W26928  30.622  35.534  11.472
61944W        W26929  34.323  33.547   3.580
61945W        W26930  14.243   3.068   4.511
61946W        W26931  31.642  11.932   3.242
61947W        W26932  14.461   5.556   9.890
61948W        W26933   9.106  21.824  12.384
61949W        W26934  12.259   0.851  12.090
61950W        W26935  31.418  11.862  10.660
61951W        W26936   5.735  43.186  14.987
61952W        W26937  25.584  29.386   4.561
61953W        W26938  40.850  23.110  11.926
61954W        W26939  38.812  44.883  11.599
61955W        W26940  37.951  43.088   2.923
61956W        W26941  32.899  26.065  14.458
61957W        W26942  16.159  42.339  14.024
61958W        W26943   7.640  18.574  12.046
61959W        W26944  40.844  26.069   1.282
61960W        W26945  15.350  44.084  14.937
61961W        W26946  20.248   1.745   3.885
61962W        W26947  17.315  17.420  14.497
61963W        W26948   0.781   4.110   1.704
61964W        W26949  22.626  12.677   2.195
61965W        W26950  12.071  11.880   9.906
61966W        W26951  20.669  42.590  12.124
61967W        W26952   1.914   2.748  10.926
61968W        W26953  20.589  31.532   0.559
61969W        W26954  35.028  33.137  12.970
61970W        W26955   2.384  36.496  11.905
61971W        W26956   3.903  19.549   1.506
61972W        W26957  19.054   6.120  11.096
61973W        W26958  19.325   5.222   3.300
61974W        W26959  31.331   5.447   0.510
61975W        W26960  13.926  30.913  12.571
61976W        W26961  18.259   3.856  13.379
61977W        W26962  24.957  13.346  12.994
61978W        W26963  21.862  22.556  11.217
61979W        W26964  26.591  25.934  14.067
61980W        W26965  17.752  11.190   2.305
61981W        W26966   8.221  20.055  14.292
61982W        W26967   9.162   1.273   1.844
61983W        W26968  26.014  15.763  12.013
61984W        W26969  14.060  18.061  13.410
61985W        W26970  19.205  44.720   4.609
61986W        W26971  15.763   1.942  14.016
61987W        W26972  33.120  32.007   1.734
61988W        W26973   1.894  33.930   4.103
61989W        W26974  21.663  24.197   4.675
61990W        W26975  33.300  17.492   4.159
61991W        W26976   2.073   7.181  11.513
61992W        W26977  34.510  35.618   3.644
61993W        W26978  29.669  36.054  13.871
61994W        W26979  22.522  21.512  14.973
61995W        W26980  13.379  35.503  13.474
61996W        W26981   1.332  37.097   0.290
61997W        W26982  26.954  10.460  12.298
61998W        W26983  40.045  31.009  13.745
61999W        W26984  12.844  41.898   1.497
62000W        W26985  37.409   0.713  14.904
62001W        W26986  29.219  25.120  14.313
62002W        W26987  33.421   2.135  14.486
62003W        W26988  43.673   8.658  11.524
62004W        W26989  44.071   8.839   1.304
62005W        W26990  32.092  19.541  11.137
62006W        W26991  21.035  36.316   2.379
62007W        W26992  36.000  44.499  14.720
62008W        W26993  16.129   9.242  12.428
62009W        W26994  33.126  19.744   4.112
62010W        W26995  37.634  25.260   1.247
62011W        W26996  26.556  29.398   5.168
62012W        W26997   5.716  38.085  13.345
62013W        W26998  38.888  35.393   3.325
62014W        W26999  12.349  25.936   2.589
62015W        W27000  35.846  39.630   4.131
62016W        W27001  19.260  26.639   1.627
62017W        W27002  29.629   9.091  11.481
62018W        W27003  19.273   7.591  12.574
62019W        W27004  41.448  21.333  12.451
62020W        W27005   5.408  27.557  11.702
62021W        W27006  19.700  26.613   1.943
62022W        W27007  28.468  30.373  14.835
62023W        W27008  25.193  34.413  14.326
62024W        W27009  31.521  25.082   3.787
62025W        W27010  26.480  39.953  14.834
62026W        W27011  37.316  28.153   1.403
62027W        W27012   1.504  18.329   3.236
62028W        W27013  14.382  18.953  12.970
62029W        W27014  24.027  13.501   0.671
62030W        W27015  31.804  31.924   1.309
62031W        W27016  42.992  20.252  12.948
62032W        W27017  17.662  12.349  14.324
62033W        W27018  43.827  32.469   2.297
62034W        W27019   4.422  29.768  10.524
62035W        W27020  35.571   3.735   1.991
62036W        W27021  44.443   2.433   4.991
62037W        W27022   7.345  27.438   0.711
62038W        W27023   3.390  20.718  12.935
62039W        W27024   3.771   6.648  14.341
62040W        W27025  44.876  27.713   1.215
62041W        W27026  41.009  37.941   3.331
62042W        W27027   7.993  41.410  10.289
62043W        W27028  22.272  36.880  14.870
62044W        W27029  34.540  15.020   1.173
62045W        W27030   2.237  19.969  12.104
62046W        W27031  38.825  43.190  11.483
62047W        W27032  11.924  20.502   1.856
62048W        W27033  44.082   8.973  11.725
62049W        W27034  33.231  19.951   1.123
62050W        W27035  23.584  32.358  12.982
62051W        W27036  31.818  44.344   0.331
62052W        W27037  41.058  24.640  14.984
62053W        W27038  27.696  11.740  11.117
62054W        W27039   1.300   5.429   3.086
62055W        W27040  30.894  24.272   3.595
62056W        W27041  16.017  16.863   1.742
62057W        W27042  14.765   2.777   2.766
62058W        W27043  33.488  20.970  14.063
62059W        W27044  44.293  28.261  14.004
62060W        W27045  20.285  44.819  12.986
62061W        W27046  36.980   0.438  12.023
62062W        W27047  32.007   8.232  14.068
62063W        W27048  12.638  36.967  12.094
62064W        W27049  15.724  19.728   4.877
62065W        W27050  23.341   4.317  12.058
62066W        W27051  31.488   1.886  11.945
62067W        W27052  11.886  26.549   1.542
62068W        W27053   5.998  17.627   4.182
62069W        W27054  30.482  11.074   4.700
62070W        W27055  22.548  44.054   0.487
62071W        W27056  31.020  23.757   4.266
62072W        W27057  23.633   2.395   3.013
62073W        W27058   1.821  12.290   3.116
62074W        W27059  11.712  16.084   1.318
62075W        W27060   9.331  29.930   2.884
62076W        W27061  28.360  30.571  12.219
62077W        W27062  19.732   2.059   0.336
62078W        W27063  27.243  34.155  10.534
62079W        W27064  32.595  36.006  12.001
62080W        W27065   3.930  42.421   1.309
62081W        W27066   0.292  16.952   0.737
62082W        W27067   7.631  36.300   1.500
62083W        W27068   4.766   1.324  12.592
62084W        W27069  42.877  42.899   0.363
62085W        W27070   4.360   2.254  12.496
62086W        W27071  30.437   0.706  11.884
62087W        W27072  15.153  27.537   2.845
62088W        W27073  11.063  20.538   1.440
62089W        W27074  29.578   7.256  12.952
62090W        W27075  42.724   8.352  11.682
62091W        W27076   4.009  26.958  10.090
62092W        W27077  29.214  23.098   4.589
62093W        W27078  33.563  20.112  11.177
62094W        W27079  11.888  41.999  14.514
62095W        W27080  36.153  11.958   2.207
62096W        W27081   4.817  24.921  12.537
62097W        W27082   1.250   0.382   3.944
62098W        W27083   6.928  17.740   4.196
62099W        W27084  10.146   9.704  12.973
62100W        W27085   2.676  24.974  14.271
62101W        W27086  33.542  31.535  14.527
62102W        W27087  37.993   7.750   4.981
62103W        W27088  17.541  37.901   2.751
62104W        W27089  40.848  22.470  12.610
62105W        W27090  27.254   2.929   4.965
62106W        W27091  14.835  35.036  13.716
62107W        W27092  16.783  35.337   1.207
62108W        W27093  19.976  10.415  13.451
62109W        W27094  12.548  13.308   4.148
62110W        W27095  40.305   3.478   3.172
62111W        W27096  10.691  33.854   3.814
62112W        W27097  10.256  39.402   1.358
62113W        W27098  16.512  10.364   4.104
62114W        W27099  37.325  24.494  11.061
62115W        W27100   4.980  31.161  11.066
62116W        W27101  29.380   0.788  13.945
62117W        W27102  41.333  42.427   0.426
62118W        W27103  44.795  41.393   0.965
62119W        W27104  31.138   4.528   4.738
62120W        W27105  35.594  12.017   3.699
62121W        W27106  24.440  21.737   1.381
62122W        W27107  32.456   0.298   4.101
62123W        W27108  32.851  25.175   1.473
62124W        W27109   0.725  11.686   4.747
62125W        W27110  27.552  10.681   4.700
62126W        W27111   1.160  10.621  13.322
62127W        W27112  35.668  35.511   1.353
62128W        W27113  10.723   4.222   5.666
62129W        W27114  42.505   2.314  14.440
62130W        W27115   9.397  11.317   2.913
62131W        W27116  19.867  22.745  11.145
62132W        W27117   1.223   1.583  13.848
62133W        W27118  17.000  27.577  14.770
62134W        W27119  30.736  15.923  13.214
62135W        W27120  14.010  17.111   3.545
62136W        W27121   2.992   1.763  14.983
62137W        W27122  10.745  27.437  13.103
62138W        W27123   0.803  10.777  11.498
62139W        W27124  28.559  44.206   3.623
62140W        W27125  15.060  38.004  13.553
62141W        W27126  12.775  37.860  12.406
62142W        W27127   9.267  33.403  14.930
62143W        W27128   1.463  32.933  13.344
62144W        W27129  33.142  30.005   3.743
62145W        W27130  39.089   5.015  14.389
62146W        W27131   9.359  14.077   4.024
62147W        W27132  16.864  29.039  14.832
62148W        W27133  17.593  37.357  12.142
62149W        W27134  16.543  10.654  14.734
62150W        W27135  39.234   3.241  14.563
62151W        W27136  39.538  12.044  12.933
62152W        W27137  19.469  37.654   0.901
62153W        W27138  13.676  41.286   2.724
62154W        W27139  26.700  23.779  11.996
62155W        W27140  32.086   9.632   1.407
62156W        W27141  22.762  38.312  14.035
62157W        W27142   9.900  11.240  11.041
62158W        W27143  39.603   0.495   0.788
62159W        W27144  37.394  11.171  13.700
62160W        W27145  37.167  15.430   5.058
62161W        W27146  34.286   0.896   3.218
62162W        W27147  21.513  16.200  12.051
62163W        W27148  15.555  16.266  10.755
62164W        W27149  38.275  32.655   2.255
62165W        W27150   3.040   5.903  13.052
62166W        W27151  30.879  28.279   1.111
62167W        W27152   1.035  28.939   1.402
62168W        W27153  25.019  32.453   0.428
62169W        W27154  44.283  35.900  11.976
62170W        W27155  41.202  26.410  10.693
62171W        W27156  14.903  42.595   3.289
62172W        W27157  16.035  14.247   4.293
62173W        W27158  42.310   5.941  12.762
62174W        W27159  40.966  27.756   4.639
62175W        W27160  17.889  32.059  12.389
62176W        W27161  16.993   2.285  14.451
62177W        W27162   1.251   9.752   1.282
62178W        W27163  37.837   9.917   2.467
62179W        W27164  24.935  25.675   4.324
62180W        W27165  29.927   1.540  10.178
62181W        W27166  29.297   2.503   1.264
62182W        W27167  12.193  30.655  13.743
62183W        W27168  12.274  20.124  11.618
62184W        W27169  24.427  39.614   3.630
62185W        W27170  12.155  35.832   1.223
62186W        W27171  30.961  36.542   1.320
62187W        W27172   6.714  36.555   2.795
62188W        W27173  43.962  29.541  14.299
62189W        W27174  25.848   6.697   5.325
62190W        W27175  29.950  43.442   0.890
62191W        W27176  29.277  30.466   3.646
62192W        W27177  18.199  20.773   2.609
62193W        W27178  44.284   7.247   3.523
62194W        W27179   1.502  33.035  10.676
62195W        W27180  21.841   7.286   4.147
62196W        W27181  25.098  18.004  14.711
62197W        W27182  23.828  17.181  11.553
62198W        W27183  24.692   3.337   0.281
62199W        W27184  28.562  25.613   2.106
62200W        W27185  10.557  43.436  14.764
62201W        W27186  34.547  22.941  13.848
62202W        W27187   6.779  28.543   5.064
62203W        W27188  20.201  23.809  12.978
62204W        W27189  32.810   2.213  13.834
62205W        W27190  24.504   8.618  13.343
62206W        W27191  28.425  12.211  13.345
62207W        W27192  25.040   5.253   0.907
62208W        W27193  25.660   7.418   0.876
62209W        W27194  27.175  21.570  12.899
62210W        W27195  27.598  40.760  12.490
62211W        W27196  23.249  27.899  11.666
62212W        W27197  16.705  42.471  10.404
62213W        W27198  36.630  22.259   2.298
62214W        W27199  17.179  34.799   0.963
62215W        W27200  31.362  24.719   4.729
62216W        W27201  19.559   9.336  11.268
62217W        W27202  33.372  10.486  12.955
62218W        W27203  44.543  37.342  10.609
62219W        W27204   3.024  19.117  12.798
62220W        W27205  26.978  22.939  14.349
62221W        W27206  31.019   3.154  13.058
62222W        W27207  41.058  28.826  13.948
62223W        W27208  28.399  23.633   3.666
62224W        W27209  32.596   0.863   3.262
62225W        W27210  32.719  13.793   4.160
62226W        W27211  30.214   7.816   1.345
62227W        W27212   2.425  36.008   3.263
62228W        W27213  26.976  10.939  14.520
62229W        W27214   8.545  34.820   2.453
62230W        W27215  44.041  43.874  11.123
62231W        W27216  22.912   2.188  14.861
62232W        W27217  25.893  15.796   0.279
62233W        W27218  11.465  41.422   5.071
62234W        W27219  39.270  43.867  12.536
62235W        W27220  29.743  43.476   1.367
62236W        W27221  33.456   8.871   2.567
62237W        W27222  39.369  22.930   1.951
62238W        W27223  43.380  37.782   2.891
62239W        W27224  44.669   4.348  13.518
62240W        W27225   3.717  41.927   1.263
62241W        W27226  32.890  32.502   1.785
62242W        W27227  22.439   4.943   5.063
62243W        W27228  23.861  21.546   0.391
62244W        W27229   1.809  19.943   2.130
62245W        W27230  17.194   4.233  14.268
62246W        W27231  44.095  10.891   3.042
62247W        W27232  33.781  23.639  11.543
62248W        W27233  20.734  10.319   4.676
62249W        W27234   7.414   9.751  10.482
62250W        W27235  36.772  28.606   2.679
62251W        W27236  23.221   3.804  14.884
62252W        W27237  24.633   3.673  14.466
62253W        W27238  26.986  12.962   1.370
62254W        W27239  29.470  35.409  13.282
62255W        W27240   8.396  31.459  14.429
62256W        W27241  18.582  31.218  10.529
62257W        W27242  22.240  33.613  11.585
62258W        W27243  43.021  15.216   3.067
62259W        W27244   8.334  30.673   1.674
62260W        W27245  20.704  25.715  10.623
62261W        W27246  41.484  13.813  11.712
62262W        W27247   4.701  27.041   3.683
62263W        W27248  31.474   2.960  12.858
62264W        W27249  17.087  32.906   2.429
62265W        W27250  39.453  10.581  13.685
62266W        W27251  22.409  43.216  12.061
62267W        W27252  40.601  27.903   1.977
62268W        W27253   0.883  12.813   4.591
62269W        W27254   6.948   8.035  13.862
62270W        W27255  30.637  24.531  12.508
62271W        W27256  20.505   1.897   0.849
62272W        W27257  28.489  28.908   4.659
62273W        W27258  24.850  28.939  12.277
62274W        W27259  20.666  10.728  11.125
62275W        W27260  11.890  32.813   3.832
62276W        W27261  14.977  15.393   1.048
62277W        W27262  43.686  29.684   2.413
62278W        W27263  23.049  25.532   4.600
62279W        W27264  37.233  17.153  10.866
62280W        W27265  10.301  12.282  12.470
62281W        W27266  30.045  25.172  11.957
62282W        W27267   4.223  13.883   1.764
62283W        W27268  40.603  39.252   3.745
62284W        W27269  42.967  38.099  14.294
62285W        W27270  29.428   1.486   5.036
62286W        W27271  31.274  18.249  10.981
62287W        W27272  30.499  32.427   0.758
62288W        W27273  43.715  24.059  12.424
62289W        W27274  36.318   5.858   1.859
62290W        W27275   1.472  21.665   0.816
62291W        W27276   9.113  37.606  11.522
62292W        W27277  34.842   0.622  12.378
62293W        W27278  28.182  37.447  11.642
62294W        W27279  38.684  39.604  13.343
62295W        W27280  35.062  39.447  14.504
62296W        W27281  38.448   5.623   2.357
62297W        W27282  39.063   2.671  10.346
62298W        W27283  40.883   8.925   2.283
62299W        W27284  10.824   3.452  11.022
62300W        W27285  43.975  27.191   9.929
62301W        W27286  34.574  26.895  11.058
62302W        W27287  10.092  28.893   1.734
62303W        W27288   0.376  16.442   0.869
62304W        W27289  14.732  44.723   2.064
62305W        W27290  28.553   7.253  11.194
62306W        W27291   8.089  27.887   2.727
62307W        W27292  10.319  17.879  13.481
62308W        W27293  20.033  27.434  10.845
62309W        W27294  36.449   3.527   5.002
62310W        W27295  20.510  34.414  12.404
62311W        W27296  24.169  33.911  13.568
62312W        W27297  41.770  23.087   0.043
62313W        W27298  43.906  15.313   2.565
62314W        W27299  15.301  26.292  13.330
62315W        W27300  41.483  37.528   4.964
62316W        W27301  15.834  26.913  11.172
62317W        W27302  35.790  36.154   3.517
62318W        W27303  35.688  18.257   0.953
62319W        W27304  27.575  17.065  14.049
62320W        W27305  32.858  42.258  12.206
62321W        W27306  19.873  11.455  13.419
62322W        W27307  19.989  10.371  12.051
62323W        W27308  31.297  12.638  14.778
62324W        W27309   0.840  33.475   3.702
62325W        W27310  39.302   7.651   0.077
62326W        W27311  27.589  31.094   3.074
62327W        W27312   6.149  18.259  12.531
62328W        W27313  34.864  28.927  13.948
62329W        W27314  15.228  10.703   3.841
62330W        W27315  29.722  21.746  14.909
62331W        W27316  30.176  42.021   3.238
62332W        W27317   9.832  25.710  14.156
62333W        W27318  22.961   5.766  12.177
62334W        W27319  41.777   5.991  14.825
62335W        W27320  16.821   8.676   1.774
62336W        W27321   8.212  32.897   0.667
62337W        W27322  38.825  14.331   0.759
62338W        W27323   4.848  25.817   0.442
62339W        W27324  23.519   3.005   4.192
62340W        W27325  26.225  24.813  12.025
62341W        W27326  42.536  23.315  14.135
62342W        W27327   1.005  35.974  11.407
62343W        W27328  17.272  27.094   1.887
62344W        W27329  44.764   6.388   1.822
62345W        W27330   6.238  31.064  11.601
62346W        W27331  13.636  25.592  10.281
62347W        W27332  11.832  44.505  14.445
62348W        W27333  28.109   1.280   3.156
62349W        W27334   0.177  24.237  12.469
62350W        W27335  30.689  30.689   3.266
62351W        W27336  38.055   8.805  12.123
62352W        W27337  18.821  18.005  13.847
62353W        W27338  28.379  28.425   1.706
62354W        W27339  36.915  30.157  13.817
62355W        W27340   7.357  28.602  13.491
62356W        W27341  13.791   6.629   1.736
62357W        W27342  34.534  31.053   2.914
62358W        W27343  12.127  43.503  13.053
62359W        W27344  10.441   1.260  10.653
62360W        W27345  13.360  36.606   2.255
62361W        W27346  12.306  13.238   0.339
62362W        W27347  36.538  43.727   3.674
62363W        W27348  22.986  43.742  12.501
62364W        W27349  26.197   2.385  13.352
62365W        W27350   1.381  18.049   1.649
62366W        W27351  16.024  20.740  13.811
62367W        W27352  10.748  44.721  14.101
62368W        W27353  22.191  44.731   4.131
62369W        W27354  34.117  20.836   0.316
62370W        W27355  39.276   9.791   4.237
62371W        W27356  24.054  19.591  14.152
62372W        W27357  20.793   7.510   9.881
62373W        W27358  39.430  12.721   0.274
62374W        W27359  34.064  13.913   1.997
62375W        W27360   3.966   1.488   4.918
62376W        W27361  34.578   0.619  11.933
62377W        W27362  34.417  18.833   4.160
62378W        W27363   1.714  38.793  14.949
62379W        W27364  14.627  10.239   0.988
62380W        W27365  37.910   1.783  12.097
62381W        W27366  20.300  42.956  11.426
62382W        W27367   0.270   8.720   0.436
62383W        W27368  30.893  26.945   0.511
62384W        W27369  29.861   4.330  12.626
62385W        W27370  15.150  15.395  11.107
62386W        W27371  34.641  31.663  12.535
62387W        W27372  23.076   2.561   3.613
62388W        W27373  32.804  32.710   0.961
62389W        W27374  19.686  35.794  10.837
62390W        W27375  27.489  21.055   0.397
62391W        W27376  28.220  17.575  13.809
62392W        W27377  31.262  21.171  14.269
62393W        W27378   4.717  15.673   2.557
62394W        W27379  43.369  14.822   0.192
62395W        W27380  23.182  10.609  11.531
62396W        W27381   7.276  31.133  11.611
62397W        W27382  22.311  13.191   4.272
62398W        W27383  18.029  15.799  13.989
62399W        W27384  43.419  41.677   0.873
62400W        W27385  28.172  16.242   0.857
62401W        W27386  41.798  20.257  12.073
62402W        W27387   7.485  44.285   2.501
62403W        W27388  17.878   8.847   3.646
62404W        W27389  16.423  24.258  11.379
62405W        W27390  12.127  21.479  10.562
62406W        W27391  25.998   8.384   0.945
62407W        W27392   8.380   1.496   2.840
62408W        W27393  21.126  10.932   1.056
62409W        W27394  24.237  29.933   2.785
62410W        W27395  27.568   9.667   3.819
62411W        W27396  28.353  18.277  13.434
62412W        W27397  12.518   8.659   4.014
62413W        W27398  22.660  38.647   2.930
62414W        W27399  28.851  40.503  11.519
62415W        W27400  41.959  43.917   3.343
62416W        W27401  44.558   2.276   1.306
62417W        W27402  34.354  27.607  11.691
62418W        W27403  40.216  29.508   0.382
62419W        W27404  21.542  21.649  11.216
62420W        W27405  22.774  15.036  14.837
62421W        W27406  40.808  37.510   3.540
62422W        W27407  41.017   2.216  14.900
62423W        W27408  24.085   5.925   2.343
62424W        W27409  27.986  26.425  12.023
62425W        W27410  33.751  25.100  12.106
62426W        W27411  42.275   6.336   2.613
62427W        W27412  10.125   3.259  14.905
62428W        W27413  27.843  35.014   5.260
62429W        W27414   1.374  16.766  12.912
62430W        W27415  31.901  20.799  12.917
62431W        W27416  17.584  20.656  14.417
62432W        W27417  12.862  41.076   1.796
62433W        W27418  21.358  44.848  10.667
62434W        W27419  25.568  25.751  14.026
62435W        W27420  17.587  36.027   2.432
62436W        W27421  25.989  23.263  13.041
62437W        W27422   1.487  27.993   4.027
62438W        W27423  38.132  25.628  12.350
62439W        W27424  28.182  40.273   2.881
62440W        W27425  42.271  36.060  13.521
62441W        W27426  42.427  17.066   4.230
62442W        W27427  31.017  32.564  10.665
62443W        W27428  19.672  41.148   2.607
62444W        W27429   9.134   8.031   1.748
62445W        W27430  22.632  10.814   4.382
62446W        W27431   4.722  35.099   1.637
62447W        W27432  14.676  28.362  13.476
62448W        W27433   7.382  10.670  14.254
62449W        W27434   7.294   3.809  13.991
62450W        W27435  10.924   4.035  10.074
62451W        W27436   4.644  34.717  11.067
62452W        W27437  20.106  17.675   5.336
62453W        W27438  13.235  36.024  14.212
62454W        W27439  18.002  27.525   2.372
62455W        W27440  21.024  11.720  11.215
62456W        W27441  32.182  37.729   3.112
62457W        W27442   6.488   6.387   0.726
62458W        W27443  43.032  24.851  11.958
62459W        W27444  34.047  23.306  12.426
62460W        W27445  25.440  11.484   1.214
62461W        W27446  44.870  41.869   1.648
62462W        W27447   0.351   1.191   4.612
62463W        W27448  44.209   5.838  12.407
62464W        W27449  35.707  31.009   1.866
62465W        W27450   0.930   3.458   3.176
62466W        W27451  23.132  41.768  13.414
62467W        W27452  41.040   1.354   3.435
62468W        W27453  24.601  36.289   2.769
62469W        W27454  10.590   0.260  12.767
62470W        W27455   6.694  44.853   0.837
62471W        W27456  41.034  35.615  14.329
62472W        W27457  24.744  28.876  11.362
62473W        W27458  19.141  13.939   0.542
62474W        W27459  31.110  42.237  12.656
62475W        W27460  16.131  24.724   2.275
62476W        W27461  16.912  35.969  11.860
62477W        W27462   3.435  41.018   2.216
62478W        W27463   7.577  22.705  13.865
62479W        W27464  29.940  42.028   2.284
62480W        W27465  26.744  29.349   1.345
62481W        W27466  34.919  24.444  11.680
62482W        W27467  20.597  17.876   1.494
62483W        W27468  13.994  35.058  12.659
62484W        W27469  10.628  36.596   2.841
62485W        W27470  26.179  43.523  10.743
62486W        W27471  16.615  44.077  13.083
62487W        W27472  43.903  36.129  12.266
62488W        W27473  34.016  43.932   4.593
62489W        W27474  36.652   3.937  13.400
62490W        W27475  29.560  17.426   4.195
62491W        W27476   0.462  16.813  11.627
62492W        W27477  30.670  14.151   3.787
62493W        W27478  35.578   0.833   2.825
62494W        W27479  10.254  14.047  13.211
62495W        W27480  20.735  14.130   2.889
62496W        W27481   1.339  21.787  14.869
62497W        W27482  16.259  40.387   2.663
62498W        W27483  37.934   4.378   1.368
62499W        W27484  36.384  40.873   3.844
62500W        W27485  29.046  39.797   4.511
62501W        W27486  13.248  19.270  13.410
62502W        W27487  22.113  29.384  10.586
62503W        W27488   0.736  24.596   3.676
62504W        W27489  34.106  32.599  14.552
62505W        W27490  25.954   9.733   4.588
62506W        W27491  28.228  12.985  14.991
62507W        W27492  32.383   7.733   3.271
62508W        W27493  31.352   8.452   1.781
62509W        W27494  42.519  15.241   2.207
62510W        W27495  16.604  26.658  12.503
62511W        W27496  44.519  28.566  10.960
62512W        W27497  28.960   1.700   2.264
62513W        W27498  19.781   4.150  12.500
62514W        W27499  30.195  12.333   0.521
62515W        W27500  15.395  10.654  12.550
62516W        W27501  11.136  16.154   0.700
62517W        W27502  13.623  44.155  14.632
62518W        W27503  38.786  42.830   2.206
62519W        W27504  33.881  23.494  12.944
62520W        W27505  28.827   8.770  10.993
62521W        W27506   8.045  44.377   1.833
62522W        W27507   9.517   1.170   3.975
62523W        W27508  34.179  26.903  11.404
62524W        W27509  43.243  12.541   4.631
62525W        W27510  11.531  12.229  14.119
62526W        W27511   8.626   5.052  11.623
62527W        W27512   6.514  36.934  13.554
62528W        W27513  13.086  10.337   3.198
62529W        W27514   2.808  15.116   2.284
62530W        W27515  40.340  37.954   0.974
62531W        W27516  43.383  11.060  11.652
62532W        W27517  28.463  20.693   3.086
62533W        W27518  40.600  30.012  12.565
62534W        W27519  26.030   6.829   3.087
62535W        W27520  21.130  28.477   1.667
62536W        W27521  22.087  10.231  10.715
62537W        W27522  36.282  19.549  14.240
62538W        W27523  35.644  13.284  14.737
62539W        W27524  37.236  17.655  14.595
62540W        W27525  10.873   2.263  14.418
62541W        W27526  13.095  44.436   2.652
62542W        W27527   6.904  16.097  14.825
62543W        W27528  30.060   1.537   0.951
62544W        W27529  17.647  29.379   0.265
62545W        W27530   9.636  21.470  13.781
62546W        W27531  27.481   5.447  11.446
62547W        W27532  25.453  33.448  14.396
62548W        W27533   1.935  40.476  14.762
62549W        W27534  31.102  26.507   1.856
62550W        W27535  35.604  25.691   0.774
62551W        W27536  35.893  41.031   2.123
62552W        W27537  39.084   4.821   1.357
62553W        W27538   8.349   3.404   2.008
62554W        W27539  42.861   7.219  13.100
62555W        W27540  43.654  10.870   2.764
62556W        W27541  34.147  28.050  12.037
62557W        W27542  33.325   7.224   4.958
62558W        W27543  13.391  22.058   3.312
62559W        W27544  21.796  41.535   2.335
62560W        W27545  11.217  30.131  13.875
62561W        W27546  15.120  30.372   1.109
62562W        W27547  13.211  21.477   1.703
62563W        W27548  28.538   8.749  13.665
62564W        W27549  36.451  29.130   3.764
62565W        W27550   4.100  28.987   4.216
62566W        W27551   6.952  34.863   1.675
62567W        W27552  16.137  29.991   1.400
62568W        W27553   7.011  23.167   4.793
62569W        W27554  19.065  22.130  14.623
62570W        W27555  27.918  16.177   4.646
62571W        W27556  30.659   2.454   3.942
62572W        W27557  20.101  11.575  14.798
62573W        W27558   4.686   3.670   2.676
62574W        W27559  38.590  25.882   3.123
62575W        W27560  22.563  31.624   4.273
62576W        W27561  26.996  19.667   0.258
62577W        W27562  26.441   4.049   4.142
62578W        W27563  12.190  30.246  12.883
62579W        W27564  22.906  20.297   3.736
62580W        W27565  23.691  15.258  14.559
62581W        W27566  20.119  32.905  11.945
62582W        W27567  41.937  14.619   2.202
62583W        W27568  35.679  24.002  10.771
62584W        W27569  15.737  22.043   1.969
62585W        W27570  16.764  23.527   2.234
62586W        W27571  44.327  41.834  11.499
62587W        W27572  34.645  16.526   1.900
62588W        W27573  15.572  38.048  14.340
62589W        W27574  23.045  23.208   0.815
62590W        W27575  28.126   1.160  13.299
62591W        W27576  28.982  40.083  11.786
62592W        W27577  40.508  13.930   4.505
62593W        W27578  14.401   9.808  13.914
62594W        W27579  38.369  32.070  13.547
62595W        W27580  21.491  30.644   2.262
62596W        W27581  11.755  15.187  13.061
62597W        W27582  31.411   0.717  10.404
62598W        W27583   7.839  13.610  14.001
62599W        W27584  31.044   4.232   1.372
62600W        W27585   1.375  19.621   1.239
62601W        W27586   4.273  40.904   4.221
62602W        W27587  28.472  36.932  13.481
62603W        W27588  32.268  19.324  11.985
62604W        W27589  29.570  29.407  12.482
62605W        W27590   9.315   3.934  14.909
62606W        W27591  13.759  18.642   0.873
62607W        W27592   2.917  17.720   2.199
62608W        W27593  10.486   9.653   4.518
62609W        W27594   0.026   5.287  13.938
62610W        W27595   9.427  16.734  12.885
62611W        W27596  23.041  12.558   0.996
62612W        W27597  18.688  16.280  11.377
62613W        W27598  13.279  11.843   4.143
62614W        W27599  31.003  21.067  13.345
62615W        W27600   1.885  24.962   2.292
62616W        W27601  14.555  23.072   0.761
62617W        W27602  30.536  20.456  14.424
62618W        W27603   0.482  40.504  12.097
62619W        W27604   0.000  11.841  12.846
62620W        W27605  20.443   9.589   4.087
62621W        W27606  21.748  44.344   2.938
62622W        W27607   8.905   4.022   1.650
62623W        W27608  13.702  41.405  12.826
62624W        W27609   9.608  32.592  13.174
62625W        W27610   2.774  44.279   1.021
62626W        W27611   1.234  27.227   1.208
62627W        W27612  21.591  13.884  14.011
62628W        W27613  22.980  36.781   0.401
62629W        W27614   3.495  44.493   0.577
62630W        W27615  32.937   1.011  12.001
62631W        W27616  21.672   1.312   4.871
62632W        W27617  21.755  32.331   3.427
62633W        W27618  33.730  11.498   1.438
62634W        W27619  44.994   8.119  12.898
62635W        W27620   3.938  44.065   4.601
62636W        W27621   8.100  30.154   4.565
62637W        W27622   7.093  12.916   4.693
62638W        W27623  16.710  25.426  14.803
62639W        W27624  20.405  26.714   0.174
62640W        W27625  19.980  42.170  10.876
62641W        W27626  33.327  16.751  13.507
62642W        W27627  19.826  22.022  10.608
62643W        W27628  42.448  16.585   3.222
62644W        W27629  37.852  10.911   1.170
62645W        W27630  13.231  35.158  14.201
62646W        W27631  42.588   6.981  14.828
62647W        W27632  31.491   3.440   3.326
62648W        W27633  34.604   4.024  12.248
62649W        W27634  29.692  23.019   3.758
62650W        W27635   7.402  31.087   4.407
62651W        W27636   6.574  40.677   1.676
62652W        W27637   7.765  16.037   4.204
62653W        W27638  35.795  39.770   0.827
62654W        W27639  44.165  16.671   4.928
62655W        W27640  16.155  36.736   1.911
62656W        W27641  24.379   3.543  14.925
62657W        W27642  33.951  25.391   2.819
62658W        W27643   2.195  42.408   2.766
62659W        W27644  11.597   6.317  14.891
62660W        W27645  36.007  11.138  11.139
62661W        W27646  40.934  28.689   4.241
62662W        W27647   1.381  18.849   2.666
62663W        W27648  38.381   8.183   4.293
62664W        W27649  10.351  16.726   1.422
62665W        W27650  29.893  33.822  12.892
62666W        W27651  29.439   7.750   1.830
62667W        W27652  32.519   6.146  10.966
62668W        W27653  41.122  28.904  12.602
62669W        W27654  23.800  18.917  10.072
62670W        W27655  18.277  38.470   0.376
62671W        W27656  26.314  40.359   0.936
62672W        W27657  23.822   9.114   4.233
62673W        W27658   6.205  15.534   0.176
62674W        W27659  23.633  33.966  14.499
62675W        W27660  36.523  26.310  10.969
62676W        W27661  40.756  29.186   4.257
62677W        W27662  13.656  17.220   3.140
62678W        W27663   1.880  27.685   3.795
62679W        W27664  34.065  22.717   1.004
62680W        W27665   6.799  28.349   2.833
62681W        W27666  30.679   6.965  12.970
62682W        W27667  15.478  17.004  14.851
62683W        W27668  22.558  24.448   2.707
62684W        W27669  44.759  10.705  11.624
62685W        W27670  37.567  30.507  13.487
62686W        W27671  13.817  35.487  12.919
62687W        W27672  17.786  21.345   0.982
62688W        W27673  22.980  28.354  11.719
62689W        W27674  43.115  26.115   9.681
62690W        W27675  31.572   2.488   3.535
62691W        W27676  39.944  19.331  14.846
62692W        W27677  23.035  38.116  12.878
62693W        W27678  20.528  33.421   2.188
62694W        W27679  11.237  28.300  12.412
62695W        W27680  11.303  27.572  12.812
62696W        W27681  23.735   0.970   4.067
62697W        W27682  38.040  27.838  13.392
62698W        W27683  41.302  40.850   4.498
62699W        W27684  39.268  21.653   9.969
62700W        W27685  15.600  44.938  11.205
62701W        W27686   6.577  44.153  11.466
62702W        W27687  18.505  10.745   2.225
62703W        W27688  40.818   3.261  12.496
62704W        W27689  42.429  21.446  12.549
62705W        W27690  41.820  27.914   9.804
62706W        W27691  25.157   7.993   1.748
62707W        W27692  19.722  36.542  13.076
62708W        W27693  15.566  13.712  12.545
62709W        W27694   4.668  33.416   3.143
62710W        W27695  18.741  33.418  14.853
62711W        W27696  26.097   6.710  12.829
62712W        W27697  37.788  10.124  11.580
62713W        W27698  30.390  29.446  10.561
62714W        W27699  34.405  43.902  14.336
62715W        W27700  20.534   8.394  12.898
62716W        W27701  18.591  40.561  10.708
62717W        W27702  43.273  15.810  13.390
62718W        W27703  42.046  23.172  13.976
62719W        W27704  15.890  40.049   2.543
62720W        W27705   5.726  18.601   1.792
62721W        W27706  20.604  36.744  12.087
62722W        W27707  29.712  24.185   2.121
62723W        W27708  26.611  28.838  12.413
62724W        W27709  35.005  24.175  12.109
62725W        W27710  17.872  14.312   4.238
62726W        W27711   9.485  35.457   3.158
62727W        W27712   6.624  12.236   1.198
62728W        W27713  19.812  37.022   5.077
62729W        W27714  17.587  41.890  14.564
62730W        W27715  33.327   9.871  14.035
62731W        W27716   2.408  35.395  10.470
62732W        W27717   9.148   9.915  13.579
62733W        W27718  29.682   4.770   2.238
62734W        W27719  25.080  18.350  14.290
62735W        W27720  19.892  29.421   9.725
62736W        W27721   7.018  34.429   2.446
62737W        W27722  29.626   0.432   4.477
62738W        W27723  41.387  24.525   3.669
62739W        W27724   4.320  30.024  12.603
62740W        W27725   1.234  20.140   1.422
62741W        W27726   3.845  23.528  14.233
62742W        W27727  26.527  40.579   0.452
62743W        W27728  41.575  42.407  12.118
62744W        W27729  40.160  34.436   0.842
62745W        W27730  19.373   4.685   1.919
62746W        W27731  40.863  11.244   2.100
62747W        W27732   8.736  28.452  11.567
62748W        W27733  31.374  31.910  11.689
62749W        W27734   3.893  14.035   2.819
62750W        W27735  33.846  23.736   1.679
62751W        W27736  32.856  21.026  10.511
62752W        W27737   3.795  39.031   0.749
62753W        W27738  40.870  44.227  14.164
62754W        W27739  43.340  27.690   2.384
62755W        W27740   2.168  14.160   2.414
62756W        W27741   5.376   0.515  11.638
62757W        W27742  19.639   3.861   2.419
62758W        W27743  25.687  38.766  10.669
62759W        W27744  31.528  23.995   0.296
62760W        W27745  33.760  16.138  12.735
62761W        W27746  13.266   2.766  11.057
62762W        W27747  35.193  18.589   0.860
62763W        W27748  15.622  41.924   1.901
62764W        W27749   6.218  33.640   4.601
62765W        W27750  17.635   5.746   2.175
62766W        W27751   9.190   8.901  14.907
62767W        W27752  23.624  23.899  13.119
62768W        W27753  44.889   0.885  12.066
62769W        W27754  10.421  23.433  14.765
62770W        W27755  24.022  16.062  13.814
62771W        W27756  24.678   4.701   4.095
62772W        W27757  29.823   2.269   0.470
62773W        W27758   2.223  30.018   3.204
62774W        W27759  11.188   7.285   1.944
62775W        W27760  36.412  25.100  13.260
62776W        W27761  43.962   6.553  11.145
62777W        W27762   8.466   2.579   0.929
62778W        W27763  13.065  37.749  14.632
62779W        W27764  30.592  18.311  13.004
62780W        W27765  28.437  26.235  10.593
62781W        W27766   8.612   3.381  12.194
62782W        W27767  27.517  39.463  12.141
62783W        W27768  29.171  14.889  12.602
62784W        W27769  22.611  17.765   0.015
62785W        W27770  16.624  44.104  14.760
62786W        W27771  19.518   3.599   3.808
62787W        W27772  42.453   1.430  11.879
62788W        W27773  39.802  19.670   0.251
62789W        W27774  37.505  37.454   9.994
62790W        W27775   5.011  18.498  11.118
62791W        W27776  10.499  16.255  10.762
62792W        W27777  28.520  26.650  10.247
62793W        W27778  19.750  18.112   1.236
62794W        W27779  39.862   0.228   3.468
62795W        W27780  37.933  31.620  11.146
62796W        W27781   6.176  18.998  10.741
62797W        W27782  25.767  44.666  10.390
62798W        W27783  29.520  13.361   0.904
62799W        W27784  20.099  16.380  12.953
62800W        W27785  37.399  27.692   3.687
62801W        W27786  10.670  11.914  12.513
62802W        W27787  18.841   0.975  12.638
62803W        W27788  37.602  14.332  11.040
62804W        W27789  35.446  29.196   3.202
62805W        W27790  23.105  10.854  13.291
62806W        W27791   5.619  18.137  10.762
62807W        W27792  27.201  22.027   1.106
62808W        W27793  41.062  22.991   4.556
62809W        W27794  22.699  10.252  11.924
62810W        W27795  22.669   3.284   4.622
62811W        W27796  20.536   5.807  10.023
62812W        W27797  44.771  14.653  11.899
62813W        W27798  16.527  34.362  11.099
62814W        W27799   7.307  33.856  13.543
62815W        W27800  43.955  44.788   2.942
62816W        W27801  27.118  28.034   0.353
62817W        W27802  11.164  41.580  13.680
62818W        W27803  11.629   3.339  10.852
62819W        W27804  20.375  35.830  10.802
62820W        W27805   7.227  38.187   1.926
62821W        W27806   9.540  44.606   5.024
62822W        W27807  22.850  21.783  10.788
62823W        W27808  33.901  17.733   2.076
62824W        W27809  22.226  36.986  13.447
62825W        W27810  21.964  39.384  13.329
62826W        W27811   6.800  43.590  11.011
62827W        W27812  29.205  31.484  10.291
62828W        W27813  22.605   6.845  12.460
62829W        W27814  42.239  43.059  11.670
62830W        W27815   8.887   2.846   3.496
62831W        W27816  27.483  44.450   1.307
62832W        W27817  21.752  41.953   3.181
62833W        W27818   5.961   0.362  10.637
62834W        W27819  32.667  22.624   1.562
62835W        W27820   2.308  33.143  13.515
62836W        W27821  42.684  11.262   0.617
62837W        W27822  44.904  22.013  11.260
62838W        W27823  38.445  39.867   4.542
62839W        W27824  20.992  43.706  14.793
62840W        W27825   0.034   5.310   1.835
62841W        W27826  28.396  44.352   4.119
62842W        W27827  13.231  43.541   4.846
62843W        W27828  12.349  16.718  10.798
62844W        W27829  18.087   7.453  11.558
62845W        W27830  38.787  42.529   0.730
62846W        W27831  28.558   4.958   0.363
62847W        W27832   4.667  33.635  14.844
62848W        W27833  41.485  26.434  14.896
62849W        W27834  35.134  44.771  10.624
62850W        W27835  32.613  17.671   4.674
62851W        W27836  37.895  12.791   1.385
62852W        W27837  32.183   7.201  13.809
62853W        W27838  41.579  23.446  14.456
62854W        W27839  22.231  25.476   4.171
62855W        W27840  33.208  40.830   4.421
62856W        W27841  28.873  32.950  12.979
62857W        W27842  42.389   7.480   3.174
62858W        W27843  13.666  24.135  13.871
62859W        W27844  41.769  14.129   2.345
62860W        W27845   5.941   3.950   1.281
62861W        W27846   8.223   1.187   0.951
62862W        W27847  32.241   6.795   3.276
62863W        W27848  27.263   0.457   9.560
62864W        W27849  34.553  21.188  11.157
62865W        W27850  22.599  19.625  12.073
62866W        W27851  10.324  11.112  11.357
62867W        W27852  19.244  28.530  13.420
62868W        W27853  20.610  16.987  10.420
62869W        W27854  27.958  35.141   2.780
62870W        W27855  44.197  10.384   4.236
62871W        W27856  12.690  38.017  14.883
62872W        W27857   9.363  30.249   4.590
62873W        W27858  11.591  42.293   4.071
62874W        W27859   4.243  17.322   0.487
62875W        W27860  28.673  39.860   0.841
62876W        W27861  12.610  44.166  12.449
62877W        W27862  15.712  40.591   1.210
62878W        W27863  19.572  21.604  13.553
62879W        W27864  32.669  26.369   0.751
62880W        W27865   3.640  22.509   0.755
62881W        W27866  29.977   1.414   4.183
62882W        W27867  37.224  33.192   4.113
62883W        W27868  44.396   6.253   2.852
62884W        W27869  20.169   1.409  11.268
62885W        W27870  25.253   2.602   9.816
62886W        W27871   4.901   8.614   4.467
62887W        W27872  18.286  12.714  13.831
62888W        W27873  14.548  25.148  12.551
62889W        W27874  39.822  36.608  14.511
62890W        W27875  44.074   7.284  14.317
62891W        W27876  31.037  20.220  13.544
62892W        W27877  38.859  37.067  12.957
62893W        W27878   1.274   9.231   0.472
62894W        W27879  42.773  44.301  13.896
62895W        W27880  44.823  36.385  12.540
62896W        W27881  10.530  43.507  11.265
62897W        W27882   0.497  35.468   2.545
62898W        W27883  43.538  10.618  11.152
62899W        W27884  17.596  19.377   0.688
62900W        W27885  27.626  25.125  13.047
62901W        W27886   2.395  23.668  10.794
62902W        W27887  35.643  30.003  11.219
62903W        W27888  22.523   7.224  14.952
62904W        W27889  16.113  44.370   3.836
62905W        W27890   1.195   3.177  11.057
62906W        W27891  24.479  23.503  10.787
62907W        W27892   4.248  40.359   3.651
62908W        W27893  30.587  34.510   1.448
62909W        W27894  11.763   9.219  13.612
62910W        W27895  32.095  28.964  13.920
62911W        W27896  17.273  30.482   1.672
62912W        W27897  25.944  35.629  14.080
62913W        W27898  20.404  15.575  11.990
62914W        W27899  42.380  21.139  14.357
62915W        W27900  42.616  28.927   3.288
62916W        W27901   8.192  17.004   1.586
62917W        W27902  11.061  42.719  14.939
62918W        W27903  30.935  11.148  14.877
62919W        W27904   6.171  34.606  11.935
62920W        W27905  30.523   8.104   4.145
62921W        W27906  33.196   5.373  12.125
62922W        W27907   3.621   2.958   3.078
62923W        W27908  41.988   0.148   4.142
62924W        W27909   3.628  29.963  14.040
62925W        W27910  28.072  37.873   4.046
62926W        W27911   9.108  31.943   4.207
62927W        W27912   5.753   6.842  12.948
62928W        W27913  23.148  40.603   0.243
62929W        W27914  40.379  14.159  14.026
62930W        W27915  16.177  27.892  14.258
62931W        W27916  33.492  18.186   0.499
62932W        W27917  15.821  25.957   4.996
62933W        W27918  32.943  27.884  12.939
62934W        W27919  36.089  41.485  13.074
62935W        W27920  20.525  17.715   3.575
62936W        W27921  34.323  43.459  10.690
62937W        W27922  18.200  39.291  12.295
62938W        W27923  21.303  24.925   0.818
62939W        W27924  29.938  22.279   1.847
62940W        W27925  42.022  33.570   3.237
62941W        W27926  34.392  13.082  11.100
62942W        W27927  29.538  19.600  10.680
62943W        W27928  27.185  37.576  10.291
62944W        W27929   6.756   9.812   4.111
62945W        W27930  42.745  41.139   2.682
62946W        W27931   1.272  10.109  12.804
62947W        W27932  30.141  33.189   0.679
62948W        W27933  32.935   0.657   1.629
62949W        W27934  33.311  22.187   3.619
62950W        W27935  23.772  21.411  13.483
62951W        W27936  30.661   1.562  14.376
62952W        W27937  22.122  11.430   2.207
62953W        W27938  19.204   0.537   4.037
62954W        W27939  31.061  17.063   3.117
62955W        W27940  21.215   2.287  13.813
62956W        W27941   4.394   6.836   4.221
62957W        W27942  29.404  37.497   0.023
62958W        W27943  36.048  44.336  13.381
62959W        W27944   3.032   1.498   3.767
62960W        W27945  19.068  30.866  14.618
62961W        W27946   5.264  22.275   2.226
62962W        W27947  22.160  35.538   2.911
62963W        W27948  24.161  44.297   4.120
62964W        W27949  44.237   2.279   2.269
62965W        W27950  30.115  19.466  14.908
62966W        W27951  20.340  21.188  13.234
62967W        W27952  16.199  20.810   2.203
62968W        W27953   5.754  26.011  13.907
62969W        W27954  33.365  38.848  10.775
62970W        W27955  33.580  22.374   1.730
62971W        W27956   5.180   2.606   3.694
62972W        W27957   1.678  11.733  13.268
62973W        W27958  20.303  11.572   0.270
62974W        W27959  36.251  35.469   4.949
62975W        W27960  19.034  19.191   0.949
62976W        W27961  33.875  16.046  11.263
62977W        W27962  10.817  41.872  11.429
62978W        W27963  40.351  11.925   0.331
62979W        W27964  17.757  27.177   3.670
62980W        W27965   6.790   4.657  12.601
62981W        W27966  36.611  15.080   3.682
62982W        W27967  15.319  15.675   1.872
62983W        W27968  20.700  13.108   2.361
62984W        W27969  17.685  42.462  10.874
62985W        W27970  13.345  11.031  14.592
62986W        W27971  12.549  12.352   4.449
62987W        W27972   0.093  34.594   2.121
62988W        W27973  33.534  22.100   3.111
62989W        W27974  43.498  34.564  13.714
62990W        W27975  35.311  27.658   1.755
62991W        W27976   3.318  31.863  12.616
62992W        W27977  21.530  25.397   0.670
62993W        W27978  35.043  37.139  13.376
62994W        W27979  13.278  11.534  14.798
62995W        W27980   4.017   1.464   0.394
62996W        W27981  24.742   8.070  12.192
62997W        W27982  30.474  19.561  13.921
62998W        W27983   1.950  40.902  10.753
62999W        W27984  33.142  32.597   3.542
63000W        W27985   1.282  15.401   4.157
63001W        W27986  15.947  18.061  12.236
63002W        W27987  38.788  13.143  13.066
63003W        W27988   3.940  28.929  14.219
63004W        W27989  30.469   0.369   2.019
63005W        W27990   3.662   7.559   3.152
63006W        W27991  36.602  18.387  14.746
63007W        W27992  43.707  28.959  12.892
63008W        W27993  19.225  23.295  10.547
63009W        W27994  32.624  32.410   1.346
63010W        W27995   4.924  35.557   4.983
63011W        W27996   2.808  26.419  11.448
63012W        W27997  13.441  23.458   0.906
63013W        W27998  24.134  20.778   3.262
63014W        W27999  21.509  16.749   0.303
63015W        W28000  17.276  40.509  10.980
63016W        W28001   9.706  18.738  12.524
63017W        W28002  25.461  39.279   0.657
63018W        W28003  15.667  12.394   2.426
63019W        W28004  34.717  33.022   4.154
63020W        W28005  21.978  32.587  13.956
63021W        W28006  25.223  18.811   3.448
63022W        W28007   5.172   1.791   1.711
63023W        W28008   8.661  19.666   4.491
63024W        W28009  24.715  27.559  12.653
63025W        W28010  12.333   6.202   0.292
63026W        W28011  22.955  14.148   0.005
63027W        W28012  41.808   6.762  14.399
63028W        W28013   6.391  16.968  13.029
63029W        W28014  17.699  15.848   2.814
63030W        W28015   7.284  38.563  11.879
63031W        W28016  21.773   4.270   3.375
63032W        W28017  31.520  23.964   4.238
63033W        W28018  42.775  40.343   1.580
63034W        W28019   6.867  22.108   1.750
63035W        W28020  32.522   0.986  11.685
63036W        W28021   5.268  44.209   1.741
63037W        W28022  40.958   2.910   4.123
63038W        W28023  25.198  24.457  10.921
63039W        W28024  31.062  21.920   3.735
63040W        W28025   0.928  11.088   2.241
63041W        W28026   9.159   1.811  14.734
63042W        W28027  20.403   6.418   0.024
63043W        W28028  43.893  38.568   2.857
63044W        W28029  19.619  24.532   1.135
63045W        W28030   5.318  11.340  12.806
63046W        W28031  23.423  11.437  11.163
63047W        W28032  37.606  39.944  11.113
63048W        W28033  23.731   4.328  11.720
63049W        W28034  34.345   6.498   0.437
63050W        W28035  30.157  22.548   2.241
63051W        W28036  37.313   5.710   2.733
63052W        W28037  30.930  18.099   0.749
63053W        W28038  12.456  43.866   3.118
63054W        W28039  22.602   2.725   3.879
63055W        W28040   8.953  17.634  14.067
63056W        W28041  36.906  26.248   1.410
63057W        W28042  44.567  35.783   3.651
63058W        W28043  15.849   0.465  10.237
63059W        W28044   7.897  34.312   0.004
63060W        W28045  24.567  41.581   2.220
63061W        W28046  27.724  38.331  11.706
63062W        W28047  16.771  29.642   1.282
63063W        W28048  42.865  13.164   0.370
63064W        W28049  39.719  39.786   3.639
63065W        W28050   5.232  17.615   3.915
63066W        W28051  29.122  10.608  14.955
63067W        W28052  41.277  32.558  14.247
63068W        W28053  21.588  40.331   2.697
63069W        W28054   6.668  15.027  13.825
63070W        W28055  32.650  31.370  13.522
63071W        W28056  33.554  33.903   2.988
63072W        W28057  36.977  20.213   1.754
63073W        W28058   9.456  34.349   1.846
63074W        W28059  37.033  41.290   1.434
63075W        W28060  20.561   2.023  12.021
63076W        W28061   1.478  33.735   0.475
63077W        W28062  44.782  15.224   4.237
63078W        W28063  16.567  10.179  14.484
63079W        W28064  36.515   9.921  11.342
63080W        W28065  37.494  32.215  12.071
63081W        W28066  38.606  14.055  14.364
63082W        W28067  34.605   3.919  11.749
63083W        W28068  28.404  25.442   0.294
63084W        W28069  17.433   0.281   2.390
63085W        W28070  15.093   9.463   0.343
63086W        W28071  40.226   0.125   1.354
63087W        W28072  10.305  13.378  11.008
63088W        W28073  15.576  24.510   4.989
63089W        W28074  28.970  32.961   1.299
63090W        W28075  18.028  14.811  12.433
63091W        W28076  23.729   7.700  14.775
63092W        W28077  17.635  32.348  12.707
63093W        W28078  25.029  13.435  11.576
63094W        W28079   9.420  25.178  12.460
63095W        W28080  34.781  19.027  12.068
63096W        W28081  17.090  24.564   1.258
63097W        W28082   9.267  11.759   0.721
63098W        W28083  42.402  38.655   0.768
63099W        W28084  10.029  22.954  13.518
63100W        W28085  37.793  41.749  10.756
63101W        W28086   2.113  31.939   0.367
63102W        W28087   0.352  24.178   3.344
63103W        W28088  14.105   8.628  13.526
63104W        W28089  24.416  36.952   2.492
63105W        W28090  43.820  40.140  14.485
63106W        W28091   4.353  31.549  12.416
63107W        W28092  22.131  22.594  14.613
63108W        W28093  25.421  13.778  11.600
63109W        W28094  40.947  34.646   2.378
63110W        W28095  14.103   7.213   3.463
63111W        W28096  23.768  14.106   3.541
63112W        W28097  25.001  13.010   4.010
63113W        W28098  32.665  12.461  11.626
63114W        W28099  12.762  19.086  10.423
63115W        W28100   8.136  44.687   0.875
63116W        W28101  15.133   1.855  13.791
63117W        W28102  12.157  13.694   4.140
63118W        W28103  31.061  24.419   1.853
63119W        W28104  32.558  30.908   4.127
63120W        W28105  23.664   2.416  14.309
63121W        W28106  44.122  27.556   4.930
63122W        W28107  19.858  13.758   2.250
63123W        W28108  22.936  33.139   1.376
63124W        W28109  16.799   3.000  12.582
63125W        W28110   5.708  39.296   1.689
63126W        W28111  25.678  37.066   3.053
63127W        W28112  19.818  29.625   2.684
63128W        W28113   8.048  22.073   4.717
63129W        W28114  28.635  31.509  11.570
63130W        W28115  12.936  23.586   0.829
63131W        W28116  41.574  20.198   0.980
63132W        W28117  15.046  26.080  12.912
63133W        W28118  39.815   4.145  10.640
63134W        W28119  42.013   9.737   2.385
63135W        W28120  22.254  39.015   0.286
63136W        W28121  10.082  22.686  13.071
63137W        W28122  23.237  23.278  14.299
63138W        W28123  20.593  15.446   3.615
63139W        W28124  15.779  20.257  12.115
63140W        W28125  35.483  40.480  12.594
63141W        W28126  20.059   8.246   9.851
63142W        W28127  11.866  12.839  12.333
63143W        W28128  26.185  15.852  14.202
63144W        W28129  11.288   7.596  12.511
63145W        W28130  25.903  33.339   1.922
63146W        W28131  16.832  24.184   0.862
63147W        W28132   9.256   1.496   2.302
63148W        W28133  35.286  12.151  14.279
63149W        W28134  41.600   1.599  14.435
63150W        W28135  27.402  13.847   2.971
63151W        W28136  24.182  17.611   2.317
63152W        W28137   9.334   3.880   0.930
63153W        W28138   2.718  34.687  14.984
63154W        W28139  22.348  35.934   2.471
63155W        W28140  24.234  38.443  12.508
63156W        W28141  18.581  15.391   2.869
63157W        W28142  15.258  34.242  13.806
63158W        W28143  11.564  26.240  13.353
63159W        W28144  32.107  38.253   4.382
63160W        W28145  22.599   6.493   4.246
63161W        W28146  38.281  44.287   3.622
63162W        W28147  35.112  43.484   1.826
63163W        W28148   4.975  26.488   1.126
63164W        W28149  14.316  33.626   0.357
63165W        W28150  44.730   3.656   0.492
63166W        W28151  15.186   0.807  14.500
63167W        W28152  34.567  31.139  10.924
63168W        W28153  18.238  18.033  10.790
63169W        W28154  41.409  14.444   0.539
63170W        W28155  17.664  33.544   0.794
63171W        W28156  23.130   2.815  11.733
63172W        W28157  19.005   9.326   5.319
63173W        W28158  43.564   1.815  11.470
63174W        W28159  22.611  23.971  12.983
63175W        W28160   8.517  34.660   0.443
63176W        W28161  29.013  19.866   5.094
63177W        W28162  21.241  25.759  14.847
63178W        W28163   8.181   8.758  14.983
63179W        W28164   4.428  41.804  10.908
63180W        W28165  41.009  32.609   2.349
63181W        W28166  14.247  24.520   1.428
63182W        W28167  41.559   3.065  12.012
63183W        W28168  38.031  16.076   1.846
63184W        W28169  43.887  11.726   2.764
63185W        W28170  28.430  16.561  12.436
63186W        W28171  13.001  32.465  12.902
63187W        W28172  18.541   9.732  12.606
63188W        W28173   1.747  28.256   4.405
63189W        W28174  34.028  37.577  12.759
63190W        W28175  38.997   6.368   1.880
63191W        W28176  20.159   5.195  13.360
63192W        W28177  36.040  28.739   0.282
63193W        W28178  33.013   1.751  13.648
63194W        W28179  28.679  24.990  12.349
63195W        W28180  40.398  24.020   4.569
63196W        W28181   8.698  35.617   3.751
63197W        W28182   9.319  25.103   4.756
63198W        W28183  44.769  17.866   1.932
63199W        W28184  21.462  24.773  14.847
63200W        W28185  43.296  31.236  12.926
63201W        W28186  39.765  26.853   3.544
63202W        W28187  11.802  37.638  13.561
63203W        W28188  17.703  12.920   2.385
63204W        W28189   7.764   3.444   3.985
63205W        W28190  43.938   4.223   4.580
63206W        W28191  20.661  37.408   4.643
63207W        W28192   6.914   3.106   1.097
63208W        W28193  11.636   7.876  12.798
63209W        W28194   7.852  21.738  11.371
63210W        W28195  34.717  16.279   1.006
63211W        W28196  11.286  43.213   0.032
63212W        W28197  22.826  25.157   3.741
63213W        W28198  34.554  13.092   0.307
63214W        W28199  27.434  37.077   3.706
63215W        W28200   7.965  12.384  13.137
63216W        W28201  11.137  14.252  10.625
63217W        W28202  31.957  38.204   3.045
63218W        W28203  27.989  35.634  13.496
63219W        W28204  19.604  41.039  12.176
63220W        W28205  20.187  15.486   4.398
63221W        W28206  11.851  15.236  12.145
63222W        W28207  21.127  31.226   1.277
63223W        W28208   2.987  39.358   2.591
63224W        W28209  10.248  41.436   0.833
63225W        W28210  11.261  11.457   2.240
63226W        W28211  21.322  20.468  13.933
63227W        W28212   4.358   0.230   1.990
63228W        W28213  39.866  36.896  12.938
63229W        W28214  10.002  27.012   3.275
63230W        W28215   2.641  18.439  14.326
63231W        W28216  42.982  43.564  13.398
63232W        W28217  16.025  17.137   0.911
63233W        W28218  16.751  42.935   4.544
63234W        W28219  16.752  43.312  12.514
63235W        W28220  12.002   0.957  11.637
63236W        W28221  41.691   1.391  14.948
63237W        W28222  26.047  20.051  10.633
63238W        W28223  21.242   3.072   3.094
63239W        W28224  11.298  39.414  11.522
63240W        W28225  19.463  20.598   2.448
63241W        W28226  36.898  24.042   5.169
63242W        W28227  27.572  38.100   2.725
63243W        W28228   6.340  12.826  11.215
63244W        W28229  40.714  29.599  11.975
63245W        W28230  27.658  36.552  12.097
63246W        W28231  19.959  35.888   2.703
63247W        W28232  15.228  28.075   3.550
63248W        W28233  37.731  40.053   2.042
63249W        W28234  39.695  32.916  10.857
63250W        W28235  36.675   1.050  11.054
63251W        W28236  20.520   6.140   3.332
63252W        W28237  40.908  32.035  12.151
63253W        W28238  36.484   2.886   4.370
63254W        W28239  17.678  22.544  10.538
63255W        W28240  38.999  23.022   4.430
63256W        W28241  29.462  14.742   2.136
63257W        W28242  29.370  40.939   1.799
63258W        W28243  30.008  16.057  13.931
63259W        W28244  18.307  13.883  12.118
63260W        W28245   4.349  19.813  14.027
63261W        W28246  39.948  38.013   1.968
63262W        W28247  18.708  19.595   0.846
63263W        W28248  13.192   7.370   4.609
63264W        W28249  10.688   4.882  14.046
63265W        W28250   5.911   9.099   2.829
63266W        W28251  13.828  22.109  11.101
63267W        W28252  14.616  17.805   1.373
63268W        W28253   2.491   6.210  11.130
63269W        W28254  27.461  14.066   0.436
63270W        W28255  29.893  24.481  14.746
63271W        W28256  22.683  20.089   4.668
63272W        W28257  16.574  39.980   4.675
63273W        W28258  38.135  36.732  14.877
63274W        W28259  35.430  18.960   1.128
63275W        W28260  42.864  36.942  12.848
63276W        W28261   4.362   5.188   0.905
63277W        W28262  37.635  23.995  14.181
63278W        W28263  17.290  26.478  12.051
63279W        W28264   4.019  24.268  11.172
63280W        W28265   8.401   4.316  12.611
63281W        W28266  17.749   4.399  14.033
63282W        W28267  27.896   0.253   4.018
63283W        W28268   9.712  33.042   0.056
63284W        W28269   8.299  30.519   3.237
63285W        W28270  25.512  41.935  11.181
63286W        W28271  10.379  43.806   1.110
63287W        W28272   4.669  37.878  12.820
63288W        W28273  38.104   0.135   3.353
63289W        W28274  11.695  14.039   0.928
63290W        W28275  16.867  16.607  11.347
63291W        W28276  38.336  33.997  14.690
63292W        W28277  10.329  35.170   3.797
63293W        W28278  23.211  42.703   2.596
63294W        W28279  35.406   7.561   0.217
63295W        W28280  25.471  41.483  13.831
63296W        W28281  22.817  24.585  10.947
63297W        W28282   7.628  34.625  13.881
63298W        W28283  34.869  18.171  12.064
63299W        W28284  30.550  35.998   3.251
63300W        W28285  34.895  32.976   2.848
63301W        W28286   0.400  35.885   1.316
63302W        W28287  10.820  29.376  11.669
63303W        W28288  10.120  44.249  12.450
63304W        W28289   2.782  21.545   0.633
63305W        W28290  27.883  37.331  11.238
63306W        W28291  13.427  13.186   3.738
63307W        W28292  25.267   2.902   4.642
63308W        W28293  14.875   8.078   2.666
63309W        W28294  21.277  39.790  12.162
63310W        W28295   8.846  39.381   1.300
63311W        W28296   9.156  16.365   2.450
63312W        W28297   4.963  20.256   3.720
63313W        W28298  28.046  18.565   1.749
63314W        W28299  18.087  38.267  14.876
63315W        W28300  21.671  36.757   0.987
63316W        W28301  19.729  39.478   0.920
63317W        W28302   7.446   1.174  10.364
63318W        W28303  31.098  38.761  12.405
63319W        W28304   8.112  13.631   4.094
63320W        W28305  33.818  36.407  14.016
63321W        W28306   3.710   8.228  10.599
63322W        W28307   0.016  32.691   0.422
63323W        W28308  27.933  31.063  11.615
63324W        W28309   2.034  15.663  14.893
63325W        W28310  23.398  31.531   0.500
63326W        W28311  28.590  15.274  14.865
63327W        W28312   8.832  24.424   4.962
63328W        W28313  12.261  37.138  12.410
63329W        W28314  31.481  26.218   1.650
63330W        W28315  35.158  21.242   1.168
63331W        W28316  40.719  30.439   0.549
63332W        W28317  13.351  13.064  10.661
63333W        W28318  33.620  39.305  10.794
63334W        W28319   3.600  35.386  11.160
63335W        W28320   0.117  19.937  14.467
63336W        W28321   5.878  29.584   1.308
63337W        W28322  25.573  44.267   0.442
63338W        W28323  18.639   0.934  14.364
63339W        W28324  42.385  29.886   3.905
63340W        W28325  19.263  36.575   4.831
63341W        W28326  31.671  10.318   0.431
63342W        W28327  41.847  31.450   4.342
63343W        W28328  20.204   4.919   1.314
63344W        W28329  14.049  16.259   3.768
63345W        W28330  42.876   0.812  11.940
63346W        W28331   7.625  21.165   0.884
63347W        W28332  36.518  32.136   1.270
63348W        W28333  36.929   4.704  13.034
63349W        W28334   5.395  12.970  11.432
63350W        W28335  11.247  25.652  11.827
63351W        W28336  42.328  35.144   1.412
63352W        W28337  31.458  38.095   2.775
63353W        W28338  11.283  43.835   2.449
63354W        W28339  20.159  30.093   9.948
63355W        W28340  41.038   9.230  11.536
63356W        W28341  33.276  33.767   2.144
63357W        W28342  41.927  14.276   0.016
63358W        W28343  27.346  22.543  14.442
63359W        W28344  20.211  44.440   3.660
63360W        W28345  38.478   8.852   2.150
63361W        W28346   6.227  39.405  11.102
63362W        W28347   5.681  25.610   1.235
63363W        W28348  32.350  43.781  11.082
63364W        W28349  10.827  23.857   1.941
63365W        W28350  39.879  20.662  14.575
63366W        W28351  21.728   8.410  12.868
63367W        W28352  37.761  42.613   2.975
63368W        W28353  15.651  12.313  11.148
63369W        W28354  32.801  29.372  11.651
63370W        W28355  30.560  41.026  14.507
63371W        W28356  23.321  42.930   3.075
63372W        W28357  37.483  25.453  12.962
63373W        W28358   9.717   5.542   1.664
63374W        W28359  20.787  25.930  14.584
63375W        W28360  14.791  21.809  12.521
63376W        W28361  37.748  43.032   1.305
63377W        W28362  31.536  39.712   0.458
63378W        W28363   9.618  26.163  11.258
63379W        W28364  10.152   6.780  12.053
63380W        W28365   9.690  18.121  11.047
63381W        W28366  41.071  12.125   1.956
63382W        W28367  17.805   4.564   3.592
63383W        W28368  34.936  12.072   1.110
63384W        W28369  29.326   9.680   0.582
63385W        W28370  40.193  38.022  11.114
63386W        W28371  37.412  14.270  14.842
63387W        W28372  31.567  17.692   2.606
63388W        W28373   5.392   5.121  13.952
63389W        W28374  36.385  10.086   3.127
63390W        W28375  38.114  39.081   4.083
63391W        W28376  34.028  29.496   3.166
63392W        W28377  42.941  39.755   0.316
63393W        W28378   1.156  15.068  11.560
63394W        W28379   6.169   2.237   4.084
63395W        W28380  40.246  35.628  12.944
63396W        W28381  43.986  16.265   4.131
63397W        W28382   7.773  38.377  12.047
63398W        W28383  38.817  15.479  11.927
63399W        W28384   1.835  20.502  12.410
63400W        W28385  33.216  43.103  12.582
63401W        W28386  31.967  25.745   2.463
63402W        W28387  25.725   9.246  11.579
63403W        W28388  36.550   3.084  11.811
63404W        W28389  43.442  44.765   0.432
63405W        W28390  24.063  20.277   3.177
63406W        W28391  38.240  36.413  12.475
63407W        W28392  32.131  20.830  13.935
63408W        W28393  24.607  36.825  10.990
63409W        W28394  32.599  18.010   1.340
63410W        W28395   8.701  15.843  12.377
63411W        W28396  35.782  28.063  14.017
63412W        W28397  12.306  41.064   4.203
63413W        W28398  12.263  25.227   1.788
63414W        W28399  29.610  37.162   4.241
63415W        W28400   0.014   4.831  12.191
63416W        W28401  31.820  39.399  11.074
63417W        W28402   3.946  26.034  13.319
63418W        W28403  36.910   1.980  14.766
63419W        W28404  36.339  41.474  11.450
63420W        W28405  26.528  40.648   1.908
63421W        W28406  33.968   0.329   4.381
63422W        W28407   7.400  24.634   3.773
63423W        W28408  11.676  22.799  13.001
63424W        W28409  13.077  14.728   3.332
63425W        W28410  34.108   2.764  13.624
63426W        W28411  38.050  25.117   5.507
63427W        W28412  42.706   2.163   1.317
63428W        W28413   7.788  20.848   2.336
63429W        W28414  14.128  39.378  13.205
63430W        W28415  24.564  13.577  13.524
63431W        W28416  26.266  16.051   0.739
63432W        W28417   6.420  36.407  13.515
63433W        W28418   3.729   3.049  11.084
63434W        W28419  29.282   7.727   2.305
63435W        W28420  28.646   3.131   2.275
63436W        W28421   3.378  35.838  14.485
63437W        W28422  11.817  30.680   2.440
63438W        W28423  42.952  22.908   3.962
63439W        W28424  14.943  40.065   1.135
63440W        W28425   5.735  26.536   0.769
63441W        W28426  15.632   1.790  13.520
63442W        W28427  13.640   9.264  13.973
63443W        W28428  12.640   5.914  12.750
63444W        W28429  12.183  34.043   0.631
63445W        W28430  22.632  12.246   4.109
63446W        W28431  19.408  24.897   4.891
63447W        W28432  35.973  29.459  12.006
63448W        W28433  13.775  20.787   1.701
63449W        W28434   0.070  33.435   0.279
63450W        W28435  16.382   0.185  11.605
63451W        W28436  34.095   7.212   3.771
63452W        W28437  26.544  41.999   0.400
63453W        W28438  29.699  38.150   4.220
63454W        W28439   0.267  15.074   0.929
63455W        W28440   9.650  31.232   0.549
63456W        W28441   1.468  33.501  11.223
63457W        W28442  13.697  10.630  14.023
63458W        W28443  31.515  25.652   2.207
63459W        W28444  44.534  14.588   0.245
63460W        W28445  43.757  25.054  11.494
63461W        W28446   2.987  26.489  12.361
63462W        W28447  10.655  12.225   3.691
63463W        W28448  35.055  22.574  14.535
63464W        W28449  35.900   2.824   2.203
63465W        W28450  29.092   0.818  13.510
63466W        W28451  33.493  27.934   3.089
63467W        W28452  14.625  12.284   3.863
63468W        W28453  17.532  17.284  14.042
63469W        W28454  23.563  36.325  14.287
63470W        W28455  40.614   5.657   2.149
63471W        W28456  35.353  37.259  12.258
63472W        W28457  12.719  13.441   0.042
63473W        W28458  44.355  43.756   1.257
63474W        W28459   7.759   2.410   1.988
63475W        W28460  24.734  31.624  12.993
63476W        W28461  35.892  19.598  12.448
63477W        W28462  27.054  17.386   2.177
63478W        W28463   6.706  39.010  13.027
63479W        W28464   9.576  24.275  12.522
63480W        W28465  33.506   6.899   1.882
63481W        W28466  13.004  35.083  13.292
63482W        W28467  37.272  30.964   3.698
63483W        W28468  22.954  31.900  10.888
63484W        W28469  21.835  18.099   3.284
63485W        W28470  16.314  44.186  13.828
63486W        W28471   3.755  16.002   4.253
63487W        W28472  20.290  23.581  11.115
63488W        W28473  29.269  12.152   0.393
63489W        W28474  23.407  19.468  10.277
63490W        W28475  40.589  43.437  13.420
63491W        W28476  31.510  14.758   1.369
63492W        W28477  28.268  41.364   5.061
63493W        W28478   0.566  29.426  10.777
63494W        W28479  31.844  16.298  11.683
63495W        W28480  34.999  20.580   3.310
63496W        W28481  21.697  37.907  12.654
63497W        W28482  12.873  16.590   3.273
63498W        W28483  17.755  37.527   4.653
63499W        W28484  43.640  17.139   0.269
63500W        W28485  20.281  28.938   0.159
63501W        W28486  13.328  21.318   0.769
63502W        W28487  12.797  17.832   0.770
63503W        W28488  42.895  27.936  14.180
63504W        W28489  38.902  44.008  12.054
63505W        W28490  44.429  35.303   4.881
63506W        W28491  30.230  38.777   2.380
63507W        W28492  41.194  13.990  13.815
63508W        W28493  38.363  44.961   1.699
63509W        W28494   8.807  37.324   3.325
63510W        W28495  42.769  12.313   3.170
63511W        W28496  41.066  15.066   3.008
63512W        W28497   2.913  44.238  13.602
63513W        W28498  41.265  41.439  14.331
63514W        W28499  13.477  37.331  12.422
63515W        W28500  42.578  35.521   2.298
63516W        W28501  44.809  26.342   4.015
63517W        W28502  21.429  12.037  11.122
63518W        W28503  29.159  36.843  10.966
63519W        W28504  11.111   5.307   3.236
63520W        W28505   6.797  28.121   4.733
63521W        W28506  24.112  40.399  13.783
63522W        W28507   5.261  40.744   3.585
63523W        W28508  27.981  36.540   4.579
63524W        W28509  43.911  34.709   3.709
63525W        W28510  34.579  24.583  14.525
63526W        W28511   9.714  13.271   2.718
63527W        W28512   5.695  19.586   0.044
63528W        W28513  15.492  39.875  11.063
63529W        W28514  13.766  14.426   0.953
63530W        W28515  39.770  10.288  13.383
63531W        W28516  12.051  35.973   3.691
63532W        W28517   9.911   8.382  12.007
63533W        W28518  27.978  13.581   1.917
63534W        W28519  24.320  44.771   1.148
63535W        W28520   1.969  37.564   2.306
63536W        W28521  22.474  19.121  10.094
63537W        W28522  26.703  35.354  11.972
63538W        W28523  41.267   9.742  12.910
63539W        W28524   1.331  37.698   3.889
63540W        W28525  31.714   7.775  13.501
63541W        W28526  20.953  17.131   0.550
63542W        W28527   0.577  27.154   1.840
63543W        W28528  41.927  34.817  13.339
63544W        W28529   2.835  32.188  11.990
63545W        W28530  18.172  31.110  13.504
63546W        W28531  28.178  12.674   1.735
63547W        W28532  35.972  41.482   2.884
63548W        W28533  15.081   2.264  14.518
63549W        W28534  17.311  17.245  13.583
63550W        W28535  25.401  35.353   3.843
63551W        W28536  16.208  41.509   0.721
63552W        W28537  28.227   4.151   3.042
63553W        W28538   2.452  24.379   2.678
63554W        W28539  33.614  40.055  13.879
63555W        W28540  38.599  25.249   1.823
63556W        W28541  37.732  42.476  12.814
63557W        W28542  41.158  38.475   0.570
63558W        W28543   5.219  40.284   3.839
63559W        W28544  39.270  17.684   2.607
63560W        W28545   0.246  35.852   4.626
63561W        W28546  30.610  16.977  11.570
63562W        W28547   6.318  33.839   2.871
63563W        W28548  26.575  14.735   1.811
63564W        W28549   0.460  25.680  10.650
63565W        W28550  27.983  27.768  10.237
63566W        W28551  29.881  22.089   3.224
63567W        W28552  23.604  38.609  14.989
63568W        W28553  41.825   9.823  12.623
63569W        W28554  32.174  13.623   1.164
63570W        W28555  39.743  22.572  14.633
63571W        W28556   3.930  15.515  11.089
63572W        W28557   1.591   3.694   2.175
63573W        W28558  11.559  22.096  13.541
63574W        W28559  30.042  33.211   4.123
63575W        W28560  16.113  43.459   4.917
63576W        W28561  11.876  21.828   3.620
63577W        W28562  24.527  32.569  11.160
63578W        W28563   0.222  34.502   1.591
63579W        W28564  20.609   3.975   2.102
63580W        W28565  36.998  34.611   2.194
63581W        W28566   8.788   1.598   2.032
63582W        W28567   0.574  30.642  14.931
63583W        W28568  11.146  32.503   4.297
63584W        W28569  37.746   3.386  13.880
63585W        W28570  33.669  35.329   3.223
63586W        W28571   6.777  33.634  10.971
63587W        W28572  37.588  30.481  11.455
63588W        W28573  32.113  25.032  12.898
63589W        W28574  24.569  40.183  12.376
63590W        W28575  29.987  10.736  10.624
63591W        W28576  31.986  18.293   3.978
63592W        W28577  19.656  32.086   3.122
63593W        W28578   8.806  39.268   3.069
63594W        W28579  34.610  17.630  14.023
63595W        W28580  30.685  42.431   4.588
63596W        W28581   5.294  18.958   3.246
63597W        W28582   8.301  11.655  13.881
63598W        W28583  28.123   4.432   2.619
63599W        W28584  40.639  24.510  11.761
63600W        W28585   7.368  42.324  11.159
63601W        W28586  29.491   0.728   0.721
63602W        W28587   3.107   7.022   1.991
63603W        W28588  20.158  23.286  13.835
63604W        W28589  16.182   3.425  11.652
63605W        W28590  44.944  29.906  12.522
63606W        W28591  24.414  12.964   5.181
63607W        W28592  30.732  38.356   0.457
63608W        W28593  20.225  16.196   2.687
63609W        W28594   9.215  23.284   2.882
63610W        W28595   2.378  16.803  11.832
63611W        W28596   3.973  15.054  13.599
63612W        W28597  25.778  15.936   1.904
63613W        W28598  26.988  25.056   1.767
63614W        W28599  38.263  27.571  14.996
63615W        W28600   3.784  37.004   4.150
63616W        W28601   1.411  38.568   3.396
63617W        W28602  25.057  41.230   3.351
63618W        W28603  21.303  17.569   0.746
63619W        W28604  29.943  34.590   2.287
63620W        W28605  23.143   4.531   1.155
63621W        W28606  23.203  26.035  12.390
63622W        W28607  15.135  17.284  13.891
63623W        W28608  33.190  22.321  13.584
63624W        W28609  10.676   0.043   0.091
63625W        W28610  38.480  20.992   1.373
63626W        W28611   9.133  28.781   0.258
63627W        W28612   0.208  20.283  12.181
63628W        W28613   5.355  29.539   4.938
63629W        W28614   8.671  41.392   2.288
63630W        W28615   5.277  25.452  14.328
63631W        W28616   8.230  38.581  10.629
63632W        W28617   4.481   9.235   2.854
63633W        W28618  38.507  13.055  13.960
63634W        W28619   7.963  41.118  12.466
63635W        W28620  23.488  28.573  14.828
63636W        W28621  24.266  26.663   3.271
63637W        W28622  23.806   1.848   1.338
63638W        W28623  37.923  34.874  11.532
63639W        W28624   5.186  31.221   2.605
63640W        W28625   8.475  26.149  13.350
63641W        W28626  40.207  43.233   1.208
63642W        W28627  12.621  42.432   0.745
63643W        W28628  24.939  27.923   1.011
63644W        W28629  35.076  28.605  12.989
63645W        W28630   9.380   8.808   1.755
63646W        W28631   9.868  22.201  12.147
63647W        W28632   3.967  15.503  12.091
63648W        W28633  41.807  34.175  10.804
63649W        W28634   3.117   3.582  10.127
63650W        W28635  39.354  30.446  11.166
63651W        W28636  39.357  15.324   2.772
63652W        W28637  38.813  21.604  10.251
63653W        W28638  15.046  38.442   0.910
63654W        W28639   1.267  14.698  13.853
63655W        W28640  27.128  34.786   2.301
63656W        W28641   5.778  18.451  11.659
63657W        W28642  37.944  27.517   1.468
63658W        W28643  26.595  11.053   3.177
63659W        W28644  16.205  31.394   3.656
63660W        W28645   8.269   2.277   1.911
63661W        W28646  31.864  38.697  13.412
63662W        W28647  13.133  27.011  10.226
63663W        W28648  38.440  43.811  11.851
63664W        W28649   1.229  11.418  11.134
63665W        W28650  29.358  35.981  12.515
63666W        W28651  20.221  19.763  10.190
63667W        W28652  14.649  42.814   1.023
63668W        W28653  30.842  17.996  11.086
63669W        W28654  20.167  24.649  11.173
63670W        W28655  34.858  22.595  10.672
63671W        W28656  32.907  36.031  11.052
63672W        W28657   4.644   7.737  14.525
63673W        W28658  17.383  24.938  11.237
63674W        W28659   7.360  23.190  12.836
63675W        W28660  15.676   3.909   2.891
63676W        W28661  37.237  28.111  12.832
63677W        W28662  40.273  38.881   4.612
63678W        W28663  39.072  38.648   4.167
63679W        W28664   7.840  37.859  12.034
63680W        W28665  35.351  23.469  11.709
63681W        W28666  25.750  24.982  14.463
63682W        W28667  19.588  33.666  10.789
63683W        W28668  18.320  42.921  14.377
63684W        W28669  24.591  15.801   0.007
63685W        W28670  32.418  26.405  10.820
63686W        W28671   8.782   8.406  12.487
63687W        W28672   7.469   5.854  11.992
63688W        W28673  40.097   3.680  11.096
63689W        W28674  23.765  14.149   3.028
63690W        W28675  16.974  25.285   3.411
63691W        W28676   3.449  24.268  12.021
63692W        W28677  14.600   7.008   3.629
63693W        W28678   8.053  30.607  12.391
63694W        W28679  30.377  18.213  11.036
63695W        W28680  28.014  42.929  11.983
63696W        W28681  35.052  29.516   3.783
63697W        W28682  28.418  22.789   3.570
63698W        W28683  34.625  11.168  12.051
63699W        W28684  39.683   3.175   0.659
63700W        W28685  43.759   3.748   4.588
63701W        W28686  42.990  11.363  13.842
63702W        W28687   0.751  34.546  14.304
63703W        W28688  14.611  28.335  11.659
63704W        W28689  35.705  20.720  12.542
63705W        W28690  21.137   8.959   4.501
63706W        W28691  28.666  27.580  14.443
63707W        W28692   6.681   8.817  12.348
63708W        W28693   5.113   6.482  10.008
63709W        W28694  14.328  39.562   0.404
63710W        W28695  37.943  34.605   3.747
63711W        W28696  29.678  22.993  13.995
63712W        W28697   0.780   6.193  12.693
63713W        W28698  40.031   8.422   1.656
63714W        W28699  13.587  18.602  10.928
63715W        W28700  41.094   6.679  14.861
63716W        W28701   9.599  37.088   3.688
63717W        W28702  15.862  12.123   4.133
63718W        W28703  42.771  26.731   3.644
63719W        W28704   0.301  37.645  13.026
63720W        W28705  22.998  40.404   3.366
63721W        W28706  10.120   0.349   3.404
63722W        W28707  32.682  24.637   0.280
63723W        W28708  15.054  42.914   4.252
63724W        W28709   1.270   0.033   1.930
63725W        W28710  37.894  32.132  13.372
63726W        W28711   9.155   1.077   1.368
63727W        W28712   9.849  32.626   3.168
63728W        W28713  30.642  40.835   1.437
63729W        W28714  20.702  34.998   4.434
63730W        W28715  34.822  15.530   4.558
63731W        W28716  14.484  19.371   0.473
63732W        W28717  31.888  11.452   1.853
63733W        W28718  34.484  13.619  14.411
63734W        W28719  26.576  22.983   2.912
63735W        W28720  15.458   3.899  12.654
63736W        W28721  22.018  34.659   3.481
63737W        W28722   7.720  29.294   2.663
63738W        W28723  10.176   8.913   3.165
63739W        W28724  39.316   1.655  12.441
63740W        W28725  30.087  30.734  14.035
63741W        W28726  28.425  14.092   1.087
63742W        W28727  15.797   4.341  10.354
63743W        W28728  25.341  40.814  11.366
63744W        W28729   4.159   6.963   3.426
63745W        W28730  20.849  41.782  13.897
63746W        W28731  16.786  27.496  12.921
63747W        W28732  42.962  14.203  12.787
63748W        W28733  35.369   9.803   2.714
63749W        W28734  33.916  34.461   0.012
63750W        W28735  41.095  31.128   2.357
63751W        W28736  44.813  13.720   1.376
63752W        W28737  25.230   6.308  11.158
63753W        W28738   6.763  31.015  14.238
63754W        W28739  27.947  17.941  13.422
63755W        W28740  39.268  33.098   9.444
63756W        W28741  44.322  32.131   0.751
63757W        W28742  35.813  19.604  11.479
63758W        W28743   9.085  11.843  11.576
63759W        W28744  26.522  37.193   4.076
63760W        W28745  40.524  10.399  13.053
63761W        W28746  33.869  18.688  11.531
63762W        W28747  10.689   3.747  13.226
63763W        W28748  38.362  25.535   3.682
63764W        W28749  41.492   7.407   2.675
63765W        W28750   5.234  41.018  12.906
63766W        W28751  19.417  41.861   1.993
63767W        W28752   3.708   6.342   2.375
63768W        W28753  32.589  40.394  11.616
63769W        W28754  33.622  15.383  14.498
63770W        W28755  34.419  32.635  13.841
63771W        W28756   0.280  10.112   0.984
63772W        W28757  38.188   0.272  11.356
63773W        W28758  20.574  23.736   5.057
63774W        W28759  35.904   5.158   1.885
63775W        W28760   7.625   5.409  14.811
63776W        W28761  33.499  37.003  14.265
63777W        W28762  34.908  32.458  11.044
63778W        W28763  19.046  11.185   4.558
63779W        W28764  40.334  26.265   2.399
63780W        W28765  43.045   0.003  10.896
63781W        W28766   4.828  14.750   4.402
63782W        W28767  11.253  16.081  13.016
63783W        W28768   9.859   7.749  14.283
63784W        W28769  13.306   8.545  13.863
63785W        W28770  26.616  17.867   1.136
63786W        W28771  20.470   1.494  12.026
63787W        W28772  11.945  15.069  14.992
63788W        W28773  27.936  24.864  14.147
63789W        W28774   1.531  39.346   1.366
63790W        W28775  12.594   5.493   4.012
63791W        W28776  25.763  21.703   2.864
63792W        W28777  12.602  18.173   3.526
63793W        W28778   8.731  14.735   3.972
63794W        W28779  25.601  31.578   1.361
63795W        W28780  44.148  28.703  13.286
63796W        W28781  27.529  28.450   0.016
63797W        W28782  35.510  36.616   0.328
63798W        W28783   1.315  29.658   2.382
63799W        W28784  12.077   7.313   1.792
63800W        W28785  24.940   8.570   2.736
63801W        W28786  11.750   0.745   4.944
63802W        W28787  16.057  24.693   3.177
63803W        W28788  27.497  40.486   2.189
63804W        W28789  39.057  11.350   3.283
63805W        W28790  15.067  40.397  12.392
63806W        W28791  10.360   4.526  14.280
63807W        W28792   0.980  32.390   0.299
63808W        W28793  33.874  28.541   1.953
63809W        W28794   0.734   8.445  12.448
63810W        W28795  37.985  38.162   3.142
63811W        W28796  40.049   6.106  13.443
63812W        W28797   2.791  16.668   3.725
63813W        W28798  31.980  24.865  13.966
63814W        W28799  22.115  10.804  13.359
63815W        W28800  20.174  31.689  14.613
63816W        W28801  21.017  39.810  11.733
63817W        W28802  41.200  22.467  10.764
63818W        W28803   9.278  37.512  13.546
63819W        W28804  32.426  32.125  13.014
63820W        W28805   6.317  32.387  13.273
63821W        W28806  25.573  25.178   3.033
63822W        W28807  35.377  29.195   0.541
63823W        W28808  44.372  25.968   2.663
63824W        W28809  37.906   6.929  12.850
63825W        W28810  25.768  33.120   2.386
63826W        W28811   1.732   4.192  11.592
63827W        W28812  43.871  40.827  13.765
63828W        W28813   8.714   1.668   3.263
63829W        W28814  40.989   4.835  14.281
63830W        W28815  11.326  21.231  14.052
63831W        W28816   8.172  19.455  10.933
63832W        W28817  16.219  30.110  13.907
63833W        W28818  25.196  38.310   3.683
63834W        W28819  18.754  21.123   0.677
63835W        W28820   7.174  27.691   1.161
63836W        W28821  29.559  16.144  11.193
63837W        W28822  43.859  12.772   1.404
63838W        W28823   1.417  39.093   1.847
63839W        W28824  33.096  20.269  12.609
63840W        W28825   0.199  41.957   3.241
63841W        W28826  14.310  11.661  13.861
63842W        W28827   4.722  12.255  10.723
63843W        W28828  43.270   0.310   1.966
63844W        W28829  15.926  37.166  11.080
63845W        W28830   5.983  38.372  11.115
63846W        W28831  35.090   0.005  14.585
63847W        W28832  13.409  15.303  10.663
63848W        W28833  32.732  13.714  11.131
63849W        W28834   8.134  17.188  12.996
63850W        W28835   0.472  42.516  14.267
63851W        W28836  41.433  39.949   3.158
63852W        W28837  17.667   8.505   3.985
63853W        W28838   4.370  36.888  14.217
63854W        W28839   1.847  15.591   4.525
63855W        W28840  23.996  19.797   2.213
63856W        W28841  31.882  35.555   3.809
63857W        W28842  24.235  14.030   3.193
63858W        W28843  42.453  44.270  14.370
63859W        W28844  12.285  43.932  11.443
63860W        W28845  14.293   1.201  12.816
63861W        W28846  20.093  33.387   4.690
63862W        W28847  32.643  41.314  13.518
63863W        W28848  38.356   7.895  13.966
63864W        W28849  13.035  44.422  12.359
63865W        W28850  34.317  10.335  13.443
63866W        W28851  28.063  11.905   1.202
63867W        W28852  15.679  36.583  13.333
63868W        W28853  20.610   8.579  11.472
63869W        W28854   8.062   7.165   4.036
63870W        W28855   1.402  34.471   2.684
63871W        W28856  21.032  16.543  10.241
63872W        W28857  38.435  38.342  11.636
63873W        W28858   4.952  42.844   4.596
63874W        W28859  10.259   7.117  12.471
63875W        W28860   2.662  40.445  11.369
63876W        W28861  14.325  26.533   1.918
63877W        W28862  17.133  34.162  11.631
63878W        W28863  39.275  38.735   0.867
63879W        W28864  17.326  30.532   0.757
63880W        W28865  18.545  25.329  12.187
63881W        W28866   9.495  43.299  11.181
63882W        W28867  40.773  33.573   2.280
63883W        W28868   4.893  14.522  12.413
63884W        W28869  41.083   1.000   1.882
63885W        W28870  16.050   6.734  13.078
63886W        W28871  12.372   0.239   0.379
63887W        W28872  39.442  27.805   0.745
63888W        W28873  28.147  10.245   1.795
63889W        W28874  43.792  16.675  12.907
63890W        W28875  22.020  41.935  12.378
63891W        W28876   4.903   2.691  11.590
63892W        W28877   3.262  21.362  14.389
63893W        W28878  33.156  11.276   3.316
63894W        W28879   5.351  22.113  12.539
63895W        W28880   9.865  34.597  14.302
63896W        W28881  44.357  31.209  11.647
63897W        W28882  11.207  12.819   1.275
63898W        W28883  42.596  15.335  12.087
63899W        W28884   7.817  21.552   1.238
63900W        W28885  28.681  16.103  14.000
63901W        W28886  17.226  40.539  13.504
63902W        W28887  32.901  17.329   4.953
63903W        W28888  43.380  22.408   3.695
63904W        W28889  26.566   8.875   3.746
63905W        W28890   1.300   1.489   4.011
63906W        W28891  16.973   8.697  13.996
63907W        W28892  41.546  15.751  13.988
63908W        W28893   0.978  20.244  12.601
63909W        W28894  38.808  34.901  11.558
63910W        W28895   3.004  37.826   2.377
63911W        W28896  27.295  13.393   3.698
63912W        W28897  37.441  31.125   4.625
63913W        W28898  24.707   2.175  14.330
63914W        W28899   3.382   0.287   0.037
63915W        W28900  41.430   7.825  13.367
63916W        W28901  34.520  22.929  13.285
63917W        W28902  11.217  40.069   2.832
63918W        W28903  36.074  17.821   3.859
63919W        W28904  19.228  34.540  11.993
63920W        W28905  21.271  38.949   0.397
63921W        W28906  22.463  23.691  12.574
63922W        W28907  11.588  42.983   1.200
63923W        W28908   2.021  19.224   3.230
63924W        W28909  34.448  37.617   2.252
63925W        W28910   5.585  23.297  14.391
63926W        W28911  34.594   5.198   2.684
63927W        W28912  18.498   3.861  12.471
63928W        W28913  12.552  13.662  11.564
63929W        W28914   0.920  10.630  14.452
63930W        W28915  33.422   5.365  10.555
63931W        W28916  34.459   2.031   4.675
63932W        W28917   1.091  16.642   2.692
63933W        W28918  44.035  18.675   2.287
63934W        W28919  10.875  20.250   1.851
63935W        W28920  38.003  31.484   3.180
63936W        W28921  36.258   2.710   2.905
63937W        W28922  34.401   5.305  13.013
63938W        W28923  15.292   4.917  13.339
63939W        W28924  36.610  20.899  14.401
63940W        W28925  13.260  11.323   4.411
63941W        W28926  13.115  35.475  10.744
63942W        W28927   8.086  44.464  14.586
63943W        W28928   7.421  14.094   2.224
63944W        W28929   5.150  31.919  13.819
63945W        W28930  26.506  43.612   1.831
63946W        W28931  21.409  43.612  14.451
63947W        W28932  21.167  25.466  10.603
63948W        W28933  10.935   2.467   3.841
63949W        W28934   7.439   2.341   1.298
63950W        W28935   7.376   7.892  11.112
63951W        W28936   9.672  21.947  13.462
63952W        W28937  27.946  43.781  11.577
63953W        W28938  36.997  31.394   4.577
63954W        W28939  40.837   5.195   2.222
63955W        W28940  15.203  35.570  12.581
63956W        W28941   8.100  22.603  13.733
63957W        W28942  28.561  20.735   0.049
63958W        W28943   4.288  40.889   3.343
63959W        W28944  23.347  38.141   4.508
63960W        W28945   8.175  28.858   0.367
63961W        W28946  37.952  21.571   4.535
63962W        W28947  26.607  28.904   9.831
63963W        W28948   1.896  37.853   1.864
63964W        W28949   8.206  28.013   0.939
63965W        W28950  28.605   6.195  14.922
63966W        W28951   7.951  40.200  11.619
63967W        W28952  39.531  37.378  12.912
63968W        W28953  38.992  37.010  13.918
63969W        W28954   6.555   5.931   3.513
63970W        W28955  15.033  29.945  12.569
63971W        W28956   3.508  30.552  13.571
63972W        W28957   8.910   8.175   3.078
63973W        W28958  23.723  28.153   2.381
63974W        W28959  11.803   1.970   4.127
63975W        W28960  26.987   5.642   0.801
63976W        W28961  21.903  43.790  12.554
63977W        W28962  34.856  11.807  10.439
63978W        W28963  31.843  43.854  13.052
63979W        W28964  18.068  38.377   2.286
63980W        W28965  11.280  27.396  11.367
63981W        W28966   6.799   5.433   0.382
63982W        W28967  26.505  32.652   5.384
63983W        W28968  24.262  32.459  11.621
63984W        W28969  10.104  32.899  11.982
63985W        W28970   2.041  37.366   5.059
63986W        W28971  41.540  32.662  11.655
63987W        W28972  42.005  30.560   3.636
63988W        W28973  38.743   0.822   2.311
63989W        W28974  30.445  14.078   1.249
63990W        W28975  36.105  10.884   2.852
63991W        W28976   9.214  15.294   1.918
63992W        W28977  32.720   4.964   0.377
63993W        W28978  44.821   3.695   1.340
63994W        W28979  37.532  26.988  10.272
63995W        W28980  22.075  27.534   3.365
63996W        W28981  15.814   7.547   2.867
63997W        W28982  34.540  23.842  13.381
63998W        W28983   9.987   5.899   3.641
63999W        W28984  34.675   3.874  11.231
64000W        W28985  34.065  26.007  11.134
64001W        W28986  18.117   7.246  12.023
64002W        W28987   7.659  41.421   0.045
64003W        W28988  25.718  15.308  12.557
64004W        W28989  23.531  12.359   1.722
64005W        W28990   0.761  30.759   1.250
64006W        W28991  25.768  16.643   2.248
64007W        W28992   6.391   3.318   4.978
64008W        W28993   1.319  24.918   1.548
64009W        W28994  35.652  34.701  13.429
64010W        W28995  44.621  13.864   0.908
64011W        W28996   6.943  22.978  14.020
64012W        W28997  13.370  32.813  13.054
64013W        W28998  26.502  28.349  12.397
64014W        W28999  42.402  16.143  14.476
64015W        W29000  29.128  17.460   4.521
64016W        W29001  37.906   2.468   3.328
64017W        W29002  22.511   9.577  11.053
64018W        W29003  19.051   5.471   1.907
64019W        W29004  31.800  36.974  12.226
64020W        W29005  23.725   3.811  14.980
64021W        W29006  10.182  32.352  13.147
64022W        W29007  31.387  27.784   1.976
64023W        W29008  20.308  18.873  14.100
64024W        W29009  11.265  15.685   4.085
64025W        W29010   3.671   5.319   1.282
64026W        W29011  18.672   8.068   4.104
64027W        W29012  25.489   4.531  12.364
64028W        W29013   6.584   7.132   0.950
64029W        W29014   0.071  41.305  14.004
64030W        W29015   3.868  39.868  10.675
64031W        W29016  26.184  23.530   0.164
64032W        W29017   7.825  22.212   2.460
64033W        W29018  37.596  19.479   1.726
64034W        W29019   6.435  25.520   0.760
64035W        W29020  31.849  29.914   3.249
64036W        W29021   7.295  17.241  12.728
64037W        W29022  37.547   2.202   3.071
64038W        W29023   0.804  33.918  12.890
64039W        W29024  24.085  20.572   2.748
64040W        W29025  23.281  24.519   3.619
64041W        W29026  35.594   3.888  12.198
64042W        W29027  21.347  18.478  14.898
64043W        W29028   5.302  29.371   3.946
64044W        W29029  38.575  38.598   1.297
64045W        W29030  24.738  30.872  14.512
64046W        W29031   9.829  28.084   0.004
64047W        W29032  17.048  18.529   2.272
64048W        W29033  10.322  20.808   2.315
64049W        W29034  11.805  31.969   1.740
64050W        W29035  23.925   8.102   0.684
64051W        W29036   3.281   1.335  11.136
64052W        W29037  40.438   5.700  12.574
64053W        W29038  23.559  18.294   0.300
64054W        W29039  26.152  26.062  11.778
64055W        W29040   2.806   0.970   0.771
64056W        W29041   3.449  20.687  14.806
64057W        W29042  12.234  43.356   0.043
64058W        W29043   0.902  29.967  14.484
64059W        W29044   9.849  25.952  13.560
64060W        W29045   8.845  15.197  11.632
64061W        W29046  16.472   2.454   3.369
64062W        W29047  13.563  15.631  12.438
64063W        W29048  43.018  38.569   2.639
64064W        W29049  42.390   2.894  12.997
64065W        W29050  25.121  14.370   3.191
64066W        W29051  11.226  38.420   2.879
64067W        W29052  43.322  39.920  12.087
64068W        W29053  17.233   3.690   1.198
64069W        W29054  31.485  25.988  12.606
64070W        W29055  34.038  42.442  10.747
64071W        W29056  14.189  43.201  13.929
64072W        W29057  31.343  26.153   2.161
64073W        W29058  31.087  34.498   4.520
64074W        W29059   7.459  41.887  14.890
64075W        W29060   1.160  12.304  14.066
64076W        W29061  32.562  21.583   3.732
64077W        W29062  32.404  30.379   0.839
64078W        W29063   6.236  14.590   0.055
64079W        W29064  34.573  41.349   3.642
64080W        W29065  30.391  44.673   3.759
64081W        W29066  25.757  28.544  12.266
64082W        W29067  17.074   9.221  12.328
64083W        W29068  24.902  17.650   0.498
64084W        W29069  34.351  31.144  11.722
64085W        W29070  32.086  29.568  14.772
64086W        W29071   4.802  20.709  12.445
64087W        W29072   8.732  32.726  13.265
64088W        W29073  42.195  38.093   5.559
64089W        W29074  42.546  35.328   2.761
64090W        W29075  21.750  23.387  12.130
64091W        W29076   1.884  39.258  13.943
64092W        W29077  41.538  15.731  11.029
64093W        W29078  37.478  36.472  13.071
64094W        W29079  26.756  30.853   2.114
64095W        W29080  13.211  32.552   2.935
64096W        W29081  34.020   9.068   4.198
64097W        W29082  33.154  10.484   2.751
64098W        W29083   2.115  25.217   1.520
64099W        W29084  37.836   8.454   3.675
64100W        W29085  35.115  40.234  10.799
64101W        W29086  44.278  29.067  13.635
64102W        W29087  29.461  16.745  12.627
64103W        W29088  33.174   0.884   2.556
64104W        W29089  41.262  26.605  12.903
64105W        W29090  32.449  20.758  13.483
64106W        W29091  24.573   3.239  11.703
64107W        W29092  15.250  22.643  12.821
64108W        W29093  27.020   8.688  10.735
64109W        W29094  14.361  35.934   1.747
64110W        W29095  17.797  32.453   0.485
64111W        W29096  17.586   1.876  14.967
64112W        W29097  18.162  10.176  12.570
64113W        W29098  15.466  17.033   0.909
64114W        W29099  11.276  30.698  11.170
64115W        W29100  29.869  19.167   1.713
64116W        W29101  33.057   7.372  13.940
64117W        W29102  26.479  20.806   0.296
64118W        W29103  31.328  21.931  13.302
64119W        W29104   0.690  30.966  13.926
64120W        W29105  20.779  40.472   4.345
64121W        W29106  38.155  42.911   4.223
64122W        W29107  33.615  37.815   4.540
64123W        W29108  19.699  29.115   2.218
64124W        W29109   5.806  36.853  12.075
64125W        W29110  13.942  19.115   4.447
64126W        W29111  40.275  12.133   1.374
64127W        W29112   7.765  19.296  12.525
64128W        W29113  22.487  36.584  10.676
64129W        W29114  14.347   0.349  12.355
64130W        W29115  28.441  12.257  12.356
64131W        W29116  44.637  26.201   1.568
64132W        W29117   8.221  34.894   0.798
64133W        W29118  15.043  31.670  12.879
64134W        W29119  37.962  36.867  14.397
64135W        W29120   3.763  11.044   4.190
64136W        W29121  15.665  41.732   2.381
64137W        W29122  10.387  27.353  10.917
64138W        W29123  43.315  19.928   5.425
64139W        W29124  10.828  18.322   5.240
64140W        W29125   5.457  19.178   3.707
64141W        W29126  27.534   8.605   3.882
64142W        W29127  28.134  10.881   2.507
64143W        W29128  18.246  28.954   0.905
64144W        W29129  38.753  19.898  12.552
64145W        W29130  29.037  30.161   0.305
64146W        W29131  39.054  38.660   0.415
64147W        W29132  21.121   2.727   2.675
64148W        W29133  11.817  44.826  14.004
64149W        W29134  18.311   9.792  13.090
64150W        W29135  19.032  30.050  13.985
64151W        W29136  13.791  35.961   4.768
64152W        W29137  30.389  19.699   1.198
64153W        W29138  28.280  30.605  12.845
64154W        W29139  20.000   3.397   5.034
64155W        W29140   6.905   6.254  12.506
64156W        W29141  13.376   9.663   1.213
64157W        W29142  29.004   3.960  14.359
64158W        W29143   9.755  33.192   2.455
64159W        W29144   8.572  30.020  11.531
64160W        W29145  20.715  17.015   0.988
64161W        W29146  31.096   9.205  11.673
64162W        W29147  21.499  14.864   1.363
64163W        W29148  13.107  32.958  12.078
64164W        W29149  19.809   7.957   2.366
64165W        W29150  24.269  43.273  14.279
64166W        W29151  19.725   9.751  14.797
64167W        W29152  44.486  44.804  13.977
64168W        W29153  18.211  28.449   3.284
64169W        W29154   6.767  36.462  12.243
64170W        W29155  43.324  23.201   0.511
64171W        W29156  31.709  38.365  10.343
64172W        W29157  15.516  32.874   3.009
64173W        W29158  17.260  26.221   4.267
64174W        W29159  33.491  14.310  12.643
64175W        W29160  11.260   3.588   4.928
64176W        W29161  41.046  41.559  11.145
64177W        W29162  32.409   5.430   1.764
64178W        W29163  42.936  30.595  13.303
64179W        W29164  17.348  23.990   3.714
64180W        W29165  16.213  12.533   0.968
64181W        W29166  19.555   5.602   2.686
64182W        W29167  17.325  10.117   1.713
64183W        W29168   5.413  34.871  14.880
64184W        W29169  11.176  36.384   0.955
64185W        W29170  24.022   5.420  13.475
64186W        W29171  17.587  31.203   3.486
64187W        W29172  30.075  43.915  11.361
64188W        W29173  18.322  39.003  13.726
64189W        W29174  42.506  11.865   1.402
64190W        W29175  17.539  10.860  11.489
64191W        W29176  14.025  16.756   0.931
64192W        W29177  36.056  11.857   4.886
64193W        W29178  32.974   3.919   1.473
64194W        W29179  37.838  44.433  12.987
64195W        W29180  20.062   8.712   0.367
64196W        W29181  11.235   6.611  14.357
64197W        W29182   4.807  40.288  11.220
64198W        W29183   3.103   9.877   4.041
64199W        W29184  39.264  28.057  13.091
64200W        W29185  33.830  15.770   1.911
64201W        W29186  40.973  26.773   4.946
64202W        W29187  13.203   8.539   1.123
64203W        W29188   4.518  31.480  11.908
64204W        W29189  40.477  38.020   2.013
64205W        W29190   3.340  33.382   1.406
64206W        W29191  36.616  42.460   0.856
64207W        W29192   2.219  39.141   4.551
64208W        W29193  33.269  26.281   2.287
64209W        W29194  12.212  29.409  11.471
64210W        W29195   6.606  34.028   1.841
64211W        W29196   5.114   6.157  10.412
64212W        W29197  19.676   0.970  10.746
64213W        W29198  39.134   2.819  14.880
64214W        W29199  12.872  16.179   4.520
64215W        W29200  29.637  31.365   1.314
64216W        W29201  28.668   6.925  13.281
64217W        W29202  12.003  39.981  14.244
64218W        W29203  39.452  20.690   0.870
64219W        W29204  23.555   7.429  13.530
64220W        W29205  25.921  30.126   2.424
64221W        W29206  13.041  44.512  13.327
64222W        W29207   7.305  22.036  10.713
64223W        W29208  11.877  26.956   0.661
64224W        W29209  11.703  32.396   3.594
64225W        W29210  43.029   6.168  11.701
64226W        W29211   7.324  12.951  14.937
64227W        W29212  23.727  42.650   3.254
64228W        W29213  17.726  39.433  11.109
64229W        W29214  21.087  22.625  11.604
64230W        W29215  20.284  29.582  10.026
64231W        W29216   8.360   9.843   4.598
64232W        W29217  41.897  11.655   3.114
64233W        W29218   0.490  40.823  11.638
64234W        W29219  41.941  20.092   1.334
64235W        W29220   0.357  44.973   3.210
64236W        W29221   7.379  24.626  12.567
64237W        W29222  36.406  12.975   4.159
64238W        W29223   2.426  13.146   1.709
64239W        W29224   6.107  36.438   0.337
64240W        W29225   3.356  13.181  14.693
64241W        W29226  38.882   5.470   0.223
64242W        W29227   5.771  11.360  13.910
64243W        W29228  27.594  11.198   4.591
64244W        W29229  24.920  17.560  12.372
64245W        W29230  18.306  20.877  12.678
64246W        W29231  32.604  14.901  11.510
64247W        W29232  40.865   5.536   2.626
64248W        W29233  44.812   2.192  13.814
64249W        W29234  26.651  42.272  10.749
64250W        W29235   4.697  41.468   1.433
64251W        W29236   8.115   4.220   4.573
64252W        W29237  11.632  29.426  12.979
64253W        W29238  19.177   6.409   4.709
64254W        W29239  25.477  36.471   0.202
64255W        W29240  38.571  20.029  13.518
64256W        W29241  38.791  34.328   4.306
64257W        W29242  13.973  18.311  11.969
64258W        W29243  38.009  32.801   3.161
64259W        W29244  19.640   9.320   2.128
64260W        W29245  26.160  36.939   3.241
64261W        W29246  38.988  37.635   4.553
64262W        W29247  19.187   4.787   1.467
64263W        W29248  21.691  18.536  13.066
64264W        W29249   1.221  40.583   1.761
64265W        W29250  19.672   8.052  11.863
64266W        W29251   1.848  33.898   2.204
64267W        W29252   9.059  21.190  14.359
64268W        W29253  24.990   8.641  13.574
64269W        W29254  34.469  12.845  12.792
64270W        W29255  21.243  38.439  13.755
64271W        W29256  10.520  29.972   0.268
64272W        W29257  16.764  30.766  11.225
64273W        W29258   9.669  27.050   3.740
64274W        W29259  41.002  39.603   0.018
64275W        W29260  15.564  35.959   1.432
64276W        W29261   2.399  20.056  13.990
64277W        W29262  30.566  40.493  14.581
64278W        W29263  17.886  20.794   4.501
64279W        W29264  38.093   7.808  10.718
64280W        W29265  19.305  41.000   4.876
64281W        W29266  31.000   4.675  12.984
64282W        W29267  26.614  32.335  13.979
64283W        W29268  39.914  22.725  13.511
64284W        W29269  16.720  44.521   0.551
64285W        W29270   4.399  23.842   0.460
64286W        W29271  13.194  15.623   2.033
64287W        W29272  23.669  33.927   4.608
64288W        W29273  36.032  42.883   5.130
64289W        W29274  33.096   2.258   0.013
64290W        W29275   5.277  20.147   1.798
64291W        W29276  16.851  42.974  14.447
64292W        W29277  21.622  39.789   1.788
64293W        W29278   8.094  13.321  13.321
64294W        W29279  36.088  26.135  12.994
64295W        W29280  14.288  11.409   2.201
64296W        W29281  32.551   4.916   2.431
64297W        W29282  19.618  19.214   4.073
64298W        W29283   1.371  14.822   0.348
64299W        W29284  39.977  21.087  13.433
64300W        W29285  19.387  13.353  14.559
64301W        W29286   9.298   8.959   2.243
64302W        W29287  17.900  32.146   2.898
64303W        W29288   0.794   2.670   3.607
64304W        W29289  44.563  38.355   3.185
64305W        W29290  32.019  39.473   1.224
64306W        W29291  18.053  22.605   3.768
64307W        W29292  41.879  10.098   3.367
64308W        W29293  40.393   1.540  14.973
64309W        W29294  42.214  39.756  13.965
64310W        W29295   3.905  15.197   4.049
64311W        W29296  15.175  42.281   1.477
64312W        W29297   8.450  31.459  13.471
64313W        W29298  25.593  14.711   0.927
64314W        W29299  44.045  20.735  12.347
64315W        W29300  15.830  21.972  12.490
64316W        W29301  30.777  24.538   4.766
64317W        W29302  18.659   2.436  13.000
64318W        W29303   1.873  37.386  10.790
64319W        W29304   7.110  11.948  14.860
64320W        W29305  35.555  22.552   3.686
64321W        W29306  23.934   7.838   0.243
64322W        W29307  31.921  19.788   1.193
64323W        W29308   6.143  30.941   2.391
64324W        W29309  18.837   2.094  11.240
64325W        W29310   7.495  19.654  12.088
64326W        W29311  23.639  28.617   1.673
64327W        W29312   5.364  40.329  10.557
64328W        W29313  28.302  33.413  14.885
64329W        W29314  33.116  14.232   3.575
64330W        W29315  22.797   3.166  12.817
64331W        W29316  41.254  22.330  11.588
64332W        W29317   6.144  14.075   0.984
64333W        W29318  35.163  22.041  13.764
64334W        W29319   6.328  11.580  10.749
64335W        W29320  19.014  19.162   2.005
64336W        W29321   1.352  15.602  13.854
64337W        W29322  18.546  29.076  12.006
64338W        W29323  32.367  30.924  12.452
64339W        W29324   0.921  18.144   9.869
64340W        W29325  26.164   7.311   3.229
64341W        W29326  37.371   3.155   2.803
64342W        W29327  32.596  16.518  11.071
64343W        W29328  38.782  31.545  13.929
64344W        W29329   0.487  14.331  11.524
64345W        W29330  36.278   4.226   1.863
64346W        W29331  23.889  30.298   4.113
64347W        W29332  35.570  25.393  14.601
64348W        W29333  12.659  25.494  13.517
64349W        W29334  26.103  42.916   1.212
64350W        W29335   8.380  18.043  12.555
64351W        W29336  12.197   8.212   5.076
64352W        W29337  13.104  44.175  14.596
64353W        W29338   2.798  34.463  14.522
64354W        W29339  32.985  33.071   2.389
64355W        W29340  27.012  24.414  13.018
64356W        W29341  11.228  43.737  13.327
64357W        W29342  29.170  32.913   1.780
64358W        W29343  12.192   7.384   2.583
64359W        W29344  40.375   5.912   1.759
64360W        W29345  27.434  42.721   3.234
64361W        W29346  35.938  33.450  14.031
64362W        W29347  24.247  42.384  11.158
64363W        W29348  22.087  19.502  12.059
64364W        W29349   4.875   5.818   2.751
64365W        W29350  27.205  40.533   1.067
64366W        W29351  31.546  22.447   1.342
64367W        W29352   5.900  27.059  13.895
64368W        W29353   3.732  21.214  14.002
64369W        W29354  21.132  35.596  11.584
64370W        W29355  30.034   2.141   2.586
64371W        W29356   3.388  30.148  14.455
64372W        W29357  39.813  23.361   4.272
64373W        W29358  11.267  44.319   1.324
64374W        W29359  31.302  42.474   3.685
64375W        W29360  35.364  11.511   3.762
64376W        W29361  12.722  38.560   3.359
64377W        W29362  14.300   9.793   4.612
64378W        W29363  30.497  42.515  13.364
64379W        W29364   7.229  10.664   1.431
64380W        W29365  21.481  43.826  14.962
64381W        W29366  44.393  22.675  13.101
64382W        W29367  39.556  42.699   2.600
64383W        W29368  27.495  28.635  12.267
64384W        W29369   9.712  12.802  13.613
64385W        W29370  30.367  35.891  11.764
64386W        W29371  26.247   5.166  11.061
64387W        W29372   4.683  27.174  13.333
64388W        W29373  12.764  40.519  11.940
64389W        W29374  10.364   2.366  10.458
64390W        W29375  41.868  13.730  12.632
64391W        W29376  31.969  26.229  14.501
64392W        W29377   7.199  12.421  13.633
64393W        W29378  43.764  16.134   0.432
64394W        W29379  37.572  25.436   2.162
64395W        W29380  29.492  33.621   2.809
64396W        W29381  39.409  30.377  13.248
64397W        W29382   3.775  19.450   4.146
64398W        W29383  13.173  15.677  10.363
64399W        W29384  31.610  10.686  11.791
64400W        W29385  22.645  28.968   3.556
64401W        W29386  40.594   1.711   0.475
64402W        W29387   2.414  28.010   5.113
64403W        W29388  20.671   1.384   1.653
64404W        W29389  29.379  27.534   1.218
64405W        W29390  37.867  20.534   1.223
64406W        W29391  23.923  27.083  11.641
64407W        W29392  22.999  26.978  12.168
64408W        W29393  15.639   3.578   2.492
64409W        W29394   1.805  36.127   4.136
64410W        W29395  40.285  38.487   2.337
64411W        W29396  44.578  21.186   2.793
64412W        W29397  36.964   2.164  11.556
64413W        W29398   3.453  43.531   4.056
64414W        W29399  29.577  17.122  10.258
64415W        W29400   2.597   6.927   2.138
64416W        W29401   5.697  34.412  14.922
64417W        W29402  42.914  10.808  10.723
64418W        W29403  22.294  25.029  14.961
64419W        W29404  27.559  40.303   0.734
64420W        W29405  31.150  19.167  13.141
64421W        W29406  29.497  37.931  14.249
64422W        W29407  22.640   1.278   3.378
64423W        W29408  26.714  14.936  14.195
64424W        W29409  32.699  11.132  14.368
64425W        W29410  30.167   2.934  12.395
64426W        W29411   9.841   9.841  11.667
64427W        W29412  27.675  18.736   4.397
64428W        W29413  31.508  42.005   3.447
64429W        W29414  44.766  20.697  13.941
64430W        W29415  28.091   0.824   1.735
64431W        W29416  40.359  18.287   1.488
64432W        W29417   8.171  22.562   0.441
64433W        W29418   3.288  32.864   2.209
64434W        W29419  12.100  14.247  13.310
64435W        W29420   2.000   8.847   0.818
64436W        W29421  37.523  40.049  13.549
64437W        W29422  42.340  43.297  14.422
64438W        W29423  21.999  27.035  10.553
64439W        W29424  36.083  19.948   1.508
64440W        W29425  26.662  17.494   0.777
64441W        W29426   0.448  25.182  10.507
64442W        W29427  21.559  29.999   4.399
64443W        W29428  11.940  22.122   2.722
64444W        W29429  19.422  25.477   4.283
64445W        W29430  28.414   4.477   1.152
64446W        W29431  21.667  33.115   1.731
64447W        W29432   4.727   2.980  11.986
64448W        W29433  18.350  26.476  11.763
64449W        W29434  37.028  38.119   1.263
64450W        W29435   3.953  18.269  14.560
64451W        W29436  27.694   7.735   0.905
64452W        W29437  42.261   6.575  11.852
64453W        W29438  44.824  41.123  10.325
64454W        W29439  17.637  31.824   2.327
64455W        W29440  43.387  43.516   4.646
64456W        W29441  16.278  30.307   4.538
64457W        W29442  43.431  38.801  14.323
64458W        W29443   5.201  11.223   3.242
64459W        W29444  14.248  16.175   1.258
64460W        W29445  26.936  17.179  14.454
64461W        W29446  30.174  39.004  12.460
64462W        W29447  17.598   2.730   1.199
64463W        W29448   7.598   3.677  14.824
64464W        W29449   1.905  23.248  12.307
64465W        W29450  37.087  41.620   0.966
64466W        W29451  19.814  37.009  12.489
64467W        W29452   8.362  26.046   0.434
64468W        W29453  13.289  20.622   0.294
64469W        W29454  21.414  40.017  11.484
64470W        W29455  27.454  16.022   1.645
64471W        W29456   0.755  23.511   1.756
64472W        W29457  30.783  30.352   3.646
64473W        W29458  37.933   0.009  10.997
64474W        W29459  10.391  37.379  13.749
64475W        W29460  34.598  38.562  14.457
64476W        W29461  17.304  14.615  14.908
64477W        W29462   9.777  43.165   0.247
64478W        W29463   5.868   2.863  14.678
64479W        W29464   6.218   0.551  14.283
64480W        W29465  25.985  16.710   3.555
64481W        W29466  43.823  11.028   2.195
64482W        W29467  20.136  26.594   1.002
64483W        W29468  14.327   0.232   3.591
64484W        W29469  44.003  13.590  13.478
64485W        W29470  14.258  17.308   0.324
64486W        W29471  33.041  31.343  13.867
64487W        W29472  24.521  43.939  13.561
64488W        W29473  23.548  27.995  13.815
64489W        W29474  27.031  41.991   0.703
64490W        W29475  20.637  36.353  12.571
64491W        W29476  12.365  13.450  12.790
64492W        W29477   8.665  39.418   3.577
64493W        W29478   3.747  44.345  12.671
64494W        W29479  34.971  38.583   2.260
64495W        W29480  11.186   7.389   1.433
64496W        W29481   1.007  11.280  14.840
64497W        W29482  27.436  37.999  14.314
64498W        W29483  28.847   1.676  14.016
64499W        W29484  31.213   4.877  13.933
64500W        W29485   5.622  42.695  14.794
64501W        W29486   1.852   2.386  12.911
64502W        W29487  22.433  27.962   1.956
64503W        W29488  22.669   3.654  14.787
64504W        W29489  20.176  14.203   3.670
64505W        W29490   4.737  34.149   4.400
64506W        W29491  28.994  14.726  12.148
64507W        W29492  30.093  34.148  13.434
64508W        W29493  16.508   5.399  14.533
64509W        W29494  13.285  11.686  13.919
64510W        W29495  39.296  13.037   1.506
64511W        W29496  30.951  22.092   2.088
64512W        W29497  21.568  35.015   0.455
64513W        W29498  27.730  13.732   0.175
64514W        W29499   7.837  13.084  14.039
64515W        W29500  32.060   0.531  11.946
64516W        W29501  44.315  19.337   4.137
64517W        W29502  22.214  19.167   2.641
64518W        W29503  22.254  27.559  11.549
64519W        W29504   0.573  39.671   0.074
64520W        W29505   0.752  17.617   1.776
64521W        W29506   7.649  16.708   1.750
64522W        W29507  30.559  37.036  12.034
64523W        W29508  28.858  16.467   4.595
64524W        W29509  22.171  15.244  12.922
64525W        W29510  29.605  11.292   1.777
64526W        W29511  20.744  14.565  11.928
64527W        W29512  24.019  44.996   2.330
64528W        W29513  39.102   0.261  13.033
64529W        W29514  26.295  29.745   0.449
64530W        W29515  22.221  24.355   2.068
64531W        W29516   6.821  12.650   3.601
64532W        W29517  25.420   6.354   0.122
64533W        W29518  34.397  20.025   0.509
64534W        W29519   9.755  38.154   0.745
64535W        W29520  28.554   1.411  13.114
64536W        W29521  39.885  10.322   3.798
64537W        W29522   1.423  33.287  12.927
64538W        W29523  10.330  29.459  13.545
64539W        W29524  32.595  36.610   0.887
64540W        W29525  18.559  27.964  10.622
64541W        W29526   8.656  13.805   1.652
64542W        W29527   1.725  38.776  13.017
64543W        W29528  31.549  39.670  11.399
64544W        W29529   9.297  35.097   1.353
64545W        W29530  35.578  17.204   1.650
64546W        W29531  44.176   9.802   2.767
64547W        W29532  21.128  37.891  10.896
64548W        W29533  34.532  23.494   4.699
64549W        W29534  37.810  31.992   3.227
64550W        W29535  31.367   0.160  11.196
64551W        W29536  13.472  36.337   0.038
64552W        W29537   0.956  39.921   3.867
64553W        W29538  34.126  32.666   0.560
64554W        W29539  43.806  24.702  13.511
64555W        W29540  26.895   1.442   1.801
64556W        W29541  39.082  21.540  11.484
64557W        W29542  33.893   6.187  11.627
64558W        W29543  29.053   0.054   0.288
64559W        W29544   7.788   8.951  11.484
64560W        W29545   8.679  24.001  11.500
64561W        W29546   1.474  31.439  14.947
64562W        W29547  32.205  32.178  13.483
64563W        W29548  31.403  38.285   2.249
64564W        W29549   9.916  22.025   2.791
64565W        W29550  38.471  33.341  13.019
64566W        W29551  43.984   9.333  14.431
64567W        W29552  13.371  32.545  11.939
64568W        W29553  37.461  21.060   2.613
64569W        W29554   8.065  20.917  14.351
64570W        W29555  20.048  19.008   2.267
64571W        W29556   7.338   3.457   0.284
64572W        W29557  11.375  35.969   4.480
64573W        W29558  28.288   0.625  13.375
64574W        W29559  29.651  22.721   2.186
64575W        W29560  30.195  19.409   2.318
64576W        W29561  39.768  27.840   0.323
64577W        W29562  38.382  31.672   0.289
64578W        W29563  40.031  33.564  14.357
64579W        W29564  32.351  16.493   1.311
64580W        W29565  26.062  12.047   0.911
64581W        W29566  30.646   3.834  11.777
64582W        W29567   8.531  34.687  11.010
64583W        W29568   9.470  24.576  10.410
64584W        W29569  38.119  11.266   1.825
64585W        W29570  42.215  30.125   4.933
64586W        W29571   9.612   0.220   3.614
64587W        W29572  20.661  35.576  11.167
64588W        W29573   5.065  21.129  12.642
64589W        W29574   9.637   2.540  12.032
64590W        W29575  33.490  44.442  11.950
64591W        W29576  38.879  43.528  11.859
64592W        W29577  10.618   3.291   2.593
64593W        W29578  11.933  41.261  12.628
64594W        W29579  35.221  37.294  11.301
64595W        W29580   9.736  17.180  11.175
64596W        W29581  15.546  42.955   4.429
64597W        W29582  12.833  20.649   0.532
64598W        W29583  11.858  14.314   2.754
64599W        W29584  41.831  14.534   0.866
64600W        W29585   1.281  43.221  11.525
64601W        W29586  19.049  19.327   0.451
64602W        W29587  43.992  10.646   4.649
64603W        W29588  20.132  39.030  13.466
64604W        W29589  10.692  18.773  11.563
64605W        W29590  37.209  40.076   4.546
64606W        W29591  13.049  33.412   2.819
64607W        W29592  27.456  26.113  10.685
64608W        W29593   5.676  23.838   1.346
64609W        W29594  23.255  29.702  12.383
64610W        W29595   1.637  44.591  14.411
64611W        W29596  40.013  18.104   0.703
64612W        W29597  26.253  21.239  11.582
64613W        W29598  12.929  28.436   1.748
64614W        W29599   6.446   1.049   2.237
64615W        W29600  32.435  32.133  12.050
64616W        W29601  21.824  15.637  12.947
64617W        W29602   5.928  30.941  14.566
64618W        W29603   3.258  17.252  10.559
64619W        W29604  33.497  27.739  11.527
64620W        W29605  11.767   3.319   0.473
64621W        W29606  18.674  12.435   2.593
64622W        W29607  15.274   4.621   0.525
64623W        W29608  41.295  43.925   2.106
64624W        W29609  19.143  28.587   3.208
64625W        W29610  16.941  15.312   1.468
64626W        W29611  42.008  19.937   5.055
64627W        W29612   5.791  12.354   3.888
64628W        W29613   6.303   6.344  12.867
64629W        W29614  37.899   5.470  11.966
64630W        W29615  16.574  17.856  12.263
64631W        W29616  24.163  15.667   0.277
64632W        W29617  33.064  38.523   2.386
64633W        W29618  22.363  10.721  12.522
64634W        W29619   8.724  23.118  14.937
64635W        W29620   5.221  38.900   3.841
64636W        W29621  16.417  43.731  11.166
64637W        W29622   4.469  44.684   3.119
64638W        W29623  19.067  13.575   1.820
64639W        W29624  33.563  30.987  14.725
64640W        W29625  29.900  24.494   1.240
64641W        W29626  11.448   3.666  11.464
64642W        W29627  12.370  24.556   3.886
64643W        W29628   2.753   7.901   3.375
64644W        W29629   0.819   1.361   0.951
64645W        W29630  18.742  36.619   3.751
64646W        W29631  20.890   7.803   4.764
64647W        W29632   9.351  24.096   4.357
64648W        W29633   6.276  18.704  13.554
64649W        W29634  26.292  42.767   1.662
64650W        W29635   2.942   8.330   0.771
64651W        W29636   9.801  34.821   1.194
64652W        W29637   9.235  33.925  11.947
64653W        W29638  15.480  31.717  10.097
64654W        W29639  38.602   8.750  14.783
64655W        W29640  35.987  43.298   2.714
64656W        W29641  26.925  23.788  12.530
64657W        W29642  41.050  40.932   4.050
64658W        W29643  22.045  27.973   2.890
64659W        W29644  26.905  36.372   3.231
64660W        W29645  18.613  26.921  13.886
64661W        W29646  10.162   6.794  14.371
64662W        W29647  24.271  38.171   3.560
64663W        W29648  12.130  34.620  11.203
64664W        W29649  23.006   8.753   0.367
64665W        W29650  36.379  36.235  12.511
64666W        W29651  32.241  27.166  13.914
64667W        W29652   7.746   1.273   4.944
64668W        W29653  19.695  42.050  14.895
64669W        W29654  40.362  40.982  12.551
64670W        W29655  13.891  27.117   3.620
64671W        W29656  38.473  17.614  12.220
64672W        W29657  17.912  26.004  12.507
64673W        W29658  35.919  29.143   0.558
64674W        W29659  33.658   3.359  11.130
64675W        W29660   8.598  31.366   3.884
64676W        W29661  30.407  18.117  14.384
64677W        W29662  21.228   7.635  11.574
64678W        W29663  34.668   6.011  10.093
64679W        W29664   2.805   6.112  10.701
64680W        W29665   9.793  23.792  11.509
64681W        W29666   6.460   2.894   3.281
64682W        W29667   5.580  34.058  10.712
64683W        W29668  28.959  39.654   1.320
64684W        W29669  43.218   1.936   3.024
64685W        W29670  28.066   4.661  11.522
64686W        W29671   2.450  22.275   2.190
64687W        W29672  27.056  44.053  10.624
64688W        W29673  11.886  24.691   1.607
64689W        W29674  21.087  10.772   3.706
64690W        W29675  32.186  35.575   2.282
64691W        W29676   4.896  11.626   1.849
64692W        W29677  41.051  25.062  14.054
64693W        W29678   7.608  34.149   1.746
64694W        W29679  33.192   6.675  10.572
64695W        W29680  15.198  18.371   3.359
64696W        W29681   2.817  24.574   0.367
64697W        W29682  18.550   9.599  13.525
64698W        W29683  41.016  20.279  11.648
64699W        W29684  12.815  35.901  12.419
64700W        W29685  37.963  10.389   1.185
64701W        W29686  11.865   5.101   2.793
64702W        W29687  28.231  25.839   3.419
64703W        W29688  12.404  17.223  12.955
64704W        W29689   4.525   5.678  13.086
64705W        W29690   2.931  42.010  10.799
64706W        W29691  22.541  12.052   0.304
64707W        W29692  11.729  39.496  13.152
64708W        W29693  35.685  15.310   3.697
64709W        W29694   4.023   3.382   0.081
64710W        W29695  36.400   0.046   1.312
64711W        W29696   6.940  39.104  13.500
64712W        W29697  42.807  26.679  11.248
64713W        W29698  36.880  19.346   0.013
64714W        W29699  39.843  34.838   0.749
64715W        W29700  11.365  17.786   1.775
64716W        W29701  22.044  35.986  14.395
64717W        W29702  33.440   4.169  12.289
64718W        W29703  29.866  44.620   3.659
64719W        W29704  15.674   8.597  13.432
64720W        W29705  27.667  31.960   2.381
64721W        W29706  27.121  19.244  12.463
64722W        W29707  26.596  29.280   4.682
64723W        W29708  25.111  41.531  11.353
64724W        W29709  35.595  21.928  14.035
64725W        W29710  18.607  41.009  14.730
64726W        W29711  30.475   7.359  11.448
64727W        W29712  43.303  31.843  13.562
64728W        W29713  38.286  12.631   2.169
64729W        W29714  31.028  19.538   2.581
64730W        W29715   6.127  28.991  13.734
64731W        W29716  43.987  24.547   5.076
64732W        W29717  19.151  17.178   1.789
64733W        W29718  15.855  26.739   0.775
64734W        W29719  41.398  16.004  13.112
64735W        W29720  24.107  18.553   4.261
64736W        W29721   7.932  28.300  12.840
64737W        W29722   1.962   0.137   2.413
64738W        W29723   4.936  25.163  11.032
64739W        W29724  44.047   3.962  12.414
64740W        W29725  14.556  16.307   3.815
64741W        W29726  22.626  22.659   9.940
64742W        W29727  13.806  12.158   2.363
64743W        W29728  34.947  32.575   1.792
64744W        W29729  31.880  26.826  13.066
64745W        W29730  25.306  13.995   4.998
64746W        W29731  22.684  37.951  10.662
64747W        W29732  40.090  32.570   3.259
64748W        W29733  24.665  14.452   1.866
64749W        W29734  41.068   3.182   2.151
64750W        W29735  31.719   7.089  12.928
64751W        W29736  15.853  10.580  10.051
64752W        W29737  15.105  38.564   4.486
64753W        W29738   6.317   8.909   2.058
64754W        W29739  40.632  18.677   2.267
64755W        W29740  34.587  24.208   3.581
64756W        W29741  29.346   3.908   4.278
64757W        W29742   0.853  39.480   2.512
64758W        W29743  23.463  14.393   2.657
64759W        W29744  22.692  11.317  11.887
64760W        W29745  28.442  12.744   3.292
64761W        W29746  11.165  32.023  14.423
64762W        W29747  38.271  14.056   4.999
64763W        W29748  31.484  42.312   1.167
64764W        W29749  13.160  38.372  11.971
64765W        W29750  42.268   8.432  13.409
64766W        W29751  31.699  43.049  14.954
64767W        W29752  13.149  13.128   1.860
64768W        W29753   3.893   7.399  14.803
64769W        W29754  22.537  35.528  11.468
64770W        W29755  24.390  40.660   4.426
64771W        W29756  22.068  30.062   4.147
64772W        W29757  30.967  13.653  10.530
64773W        W29758  35.060  44.986   3.925
64774W        W29759   0.253  43.422  11.167
64775W        W29760  12.898   3.733  12.968
64776W        W29761  29.391  29.480  10.750
64777W        W29762  11.916  19.795  13.552
64778W        W29763  31.965  10.308  11.373
64779W        W29764  26.539   4.436   1.488
64780W        W29765   0.386  17.350  12.529
64781W        W29766   1.983   1.812   1.496
64782W        W29767  13.572  14.229   0.146
64783W        W29768   6.419   2.785  10.789
64784W        W29769   1.211  33.359   1.891
64785W        W29770   2.652  19.699  11.187
64786W        W29771  33.976   5.835  10.997
64787W        W29772  24.869  21.425  13.819
64788W        W29773  20.534  37.662  13.009
64789W        W29774  10.862  15.192   3.281
64790W        W29775  28.612  42.293  11.023
64791W        W29776  12.160  12.454   3.189
64792W        W29777  26.946  26.362  11.975
64793W        W29778   2.037  21.446   1.211
64794W        W29779  31.097  30.371  12.600
64795W        W29780  39.580  44.947   0.235
64796W        W29781  32.173   2.401  10.764
64797W        W29782  15.813  30.722   3.769
64798W        W29783   2.952  37.422   1.132
64799W        W29784  19.326  31.535   1.370
64800W        W29785   6.415   3.102  10.335
64801W        W29786  21.259   6.572   4.094
64802W        W29787   0.275   7.848  10.625
64803W        W29788  25.352   2.433   4.874
64804W        W29789  34.889  26.952  13.861
64805W        W29790  38.883  40.476  12.608
64806W        W29791   9.752   2.252  11.124
64807W        W29792  15.191  24.593   5.332
64808W        W29793  41.002   1.796  10.609
64809W        W29794   8.321  27.695   1.346
64810W        W29795   1.841  30.355   2.770
64811W        W29796  42.345  33.567  12.649
64812W        W29797  11.668  39.767  11.564
64813W        W29798  22.625  43.995  14.517
64814W        W29799  27.694  35.981  12.901
64815W        W29800  24.956   7.660   0.349
64816W        W29801  37.688  21.062  12.251
64817W        W29802  35.047   0.519  14.499
64818W        W29803  13.179  19.476  11.948
64819W        W29804  18.292  39.078   3.145
64820W        W29805  15.031   0.640  11.557
64821W        W29806  27.411  17.068   2.466
64822W        W29807  15.360   2.283   1.392
64823W        W29808   1.346  36.292   4.395
64824W        W29809   9.041  27.613  12.827
64825W        W29810   3.228  20.721   4.877
64826W        W29811  10.498  33.710   0.661
64827W        W29812  27.386  26.499  13.256
64828W        W29813  30.209  28.224  13.791
64829W        W29814  30.148  12.902   4.682
64830W        W29815   9.942  43.240  12.582
64831W        W29816  18.514  36.185   3.529
64832W        W29817   2.887  29.276  12.915
64833W        W29818  42.830  13.568  14.517
64834W        W29819  18.458   5.077  10.328
64835W        W29820  17.258   4.861   0.067
64836W        W29821  39.753  17.749   9.698
64837W        W29822  11.563  11.380  11.757
64838W        W29823   1.749  22.190  11.116
64839W        W29824  26.736  17.099  14.929
64840W        W29825  16.934  10.342  13.584
64841W        W29826  13.048  27.949   3.395
64842W        W29827  24.526  31.548   4.671
64843W        W29828   2.949   6.212  11.986
64844W        W29829   0.711  25.706   2.273
64845W        W29830   6.287  27.593  13.827
64846W        W29831  17.818   9.907   1.736
64847W        W29832  35.576  14.183   0.452
64848W        W29833  34.008  20.364   0.470
64849W        W29834  17.140  35.205  12.616
64850W        W29835  26.229  31.372   3.239
64851W        W29836  15.945  26.476  14.385
64852W        W29837   2.403  34.599  10.545
64853W        W29838  17.402  42.347  13.483
64854W        W29839  15.188   6.127  13.976
64855W        W29840   6.414   3.368   0.715
64856W        W29841  10.135  39.379  11.670
64857W        W29842  40.138  16.745   3.561
64858W        W29843  26.681   7.571  13.217
64859W        W29844  10.307  29.589  13.029
64860W        W29845  28.795  43.423   4.032
64861W        W29846  25.693  27.566   1.683
64862W        W29847   9.541  13.618   4.207
64863W        W29848  38.824  30.096   1.248
64864W        W29849  36.475  17.603   2.422
64865W        W29850  38.550  38.667  13.407
64866W        W29851  39.167  37.651   1.248
64867W        W29852  29.148  28.146   3.580
64868W        W29853  31.352  12.467  13.374
64869W        W29854  34.441  29.865  14.719
64870W        W29855  29.452  35.957   2.625
64871W        W29856  42.503  43.735   3.248
64872W        W29857   8.506  22.242   3.802
64873W        W29858  25.792  22.087  13.911
64874W        W29859  13.104  33.858   0.367
64875W        W29860  20.774  14.121  13.419
64876W        W29861   3.286  16.776  13.126
64877W        W29862  13.905   4.859  11.121
64878W        W29863  15.788  36.902   3.394
64879W        W29864  14.655  24.817  14.147
64880W        W29865  23.368   9.825  13.353
64881W        W29866   7.864  31.710  11.796
64882W        W29867  35.953   3.847   0.122
64883W        W29868  20.630  23.688   0.891
64884W        W29869  39.292  26.755  14.031
64885W        W29870  13.338  19.117  14.769
64886W        W29871  17.232  31.983  10.068
64887W        W29872   8.290  41.512  12.542
64888W        W29873  33.991  30.991   1.615
64889W        W29874  40.785  44.480  12.085
64890W        W29875  35.075  38.731  10.942
64891W        W29876  14.046   8.251  14.351
64892W        W29877  33.557  37.482   2.179
64893W        W29878  11.259   0.519  12.976
64894W        W29879  28.929  12.123  10.664
64895W        W29880  24.033  22.477   3.740
64896W        W29881  11.603  43.474   2.702
64897W        W29882  13.900   2.140   3.613
64898W        W29883  35.369  18.127   3.721
64899W        W29884  32.971  20.949   1.735
64900W        W29885  14.665  36.401   4.786
64901W        W29886  11.134  25.404  12.279
64902W        W29887  19.099   2.782   1.464
64903W        W29888  44.260  14.184  14.427
64904W        W29889   5.791  24.193  14.263
64905W        W29890   7.292  14.192   3.627
64906W        W29891   9.579  15.566   3.144
64907W        W29892   8.256   6.162  14.834
64908W        W29893   0.885  31.481  13.354
64909W        W29894   0.907  13.386  13.683
64910W        W29895  30.571  14.992   1.175
64911W        W29896  31.637  28.381   4.607
64912W        W29897  43.877  14.606   1.376
64913W        W29898   2.155   6.737  12.038
64914W        W29899  39.859  13.229   0.816
64915W        W29900  27.974   3.275  14.897
64916W        W29901  42.109  43.380  13.396
64917W        W29902  29.438  39.784   1.470
64918W        W29903  37.091  29.628  12.027
64919W        W29904  16.270   3.193  14.374
64920W        W29905  35.843  22.313  10.799
64921W        W29906  19.987  44.855  12.557
64922W        W29907   7.240  44.369   1.220
64923W        W29908  24.454  29.045  13.997
64924W        W29909  33.607  32.482   4.663
64925W        W29910  43.401  32.981   0.841
64926W        W29911   8.087  26.234  11.186
64927W        W29912   6.696  21.621   2.816
64928W        W29913  18.630  14.948   1.533
64929W        W29914   6.272  25.076  14.596
64930W        W29915  17.295  28.211  13.965
64931W        W29916  43.366  43.554  12.564
64932W        W29917  19.737  26.483  11.922
64933W        W29918  30.851  29.648  10.454
64934W        W29919  29.993   3.851  10.717
64935W        W29920  18.497  42.966   0.804
64936W        W29921   8.542  11.399  10.761
64937W        W29922  36.746  27.566  13.485
64938W        W29923  39.435  42.299   4.710
64939W        W29924  28.171  11.150  10.553
64940W        W29925   1.829  13.943  13.361
64941W        W29926  24.259  11.788   1.417
64942W        W29927   7.436   8.890   3.919
64943W        W29928  18.950  37.676   1.211
64944W        W29929  38.734  18.319   1.255
64945W        W29930  16.320  41.117   1.537
64946W        W29931  31.229  27.261   2.247
64947W        W29932  35.471  43.006  14.602
64948W        W29933  24.944   1.744  14.487
64949W        W29934  14.277  22.450   3.579
64950W        W29935  42.102  29.362  13.275
64951W        W29936  15.289  17.981   3.710
64952W        W29937   1.929  31.685  14.918
64953W        W29938  18.745  42.570   0.495
64954W        W29939  26.552  40.089  12.806
64955W        W29940   2.726  43.597  12.094
64956W        W29941  25.842   4.894  11.239
64957W        W29942   0.584  19.573   1.906
64958W        W29943  17.599  24.515   2.184
64959W        W29944   7.239   1.919   0.346
64960W        W29945  22.599  33.884  12.827
64961W        W29946  14.319  29.312   1.197
64962W        W29947  10.085  13.841   4.906
64963W        W29948  29.565  27.607  14.089
64964W        W29949  30.346  28.930   2.256
64965W        W29950  24.222  44.282   4.670
64966W        W29951  35.318  33.617   3.129
64967W        W29952  23.475   8.134  12.594
64968W        W29953  25.528  12.415   1.387
64969W        W29954  25.692   8.342  14.374
64970W        W29955  21.274   2.117   4.040
64971W        W29956  20.997  35.598   1.306
64972W        W29957  38.366   1.981  12.405
64973W        W29958  21.107  13.835  11.211
64974W        W29959   3.152  25.704   2.371
64975W        W29960  32.896   3.033  11.585
64976W        W29961  11.343  20.121   1.317
64977W        W29962  16.249  17.442  13.471
64978W        W29963  42.480  33.671  11.513
64979W        W29964   2.869  10.840   4.766
64980W        W29965  12.255  13.371  13.316
64981W        W29966  28.581   1.041  13.556
64982W        W29967  42.351  40.982  13.585
64983W        W29968  36.597   5.112   3.758
64984W        W29969   1.756   0.409  11.207
64985W        W29970  39.889  25.097  14.896
64986W        W29971  24.477  25.740   4.098
64987W        W29972  20.795  32.705   3.643
64988W        W29973  28.943   8.406  12.571
64989W        W29974  37.791  40.244   1.399
64990W        W29975  18.191  43.771  12.068
64991W        W29976   4.189  16.253  11.576
64992W        W29977  21.758  16.060   3.713
64993W        W29978   4.420  16.004  10.455
64994W        W29979   9.758  42.934   4.883
64995W        W29980  11.897  19.655   9.796
64996W        W29981  27.882  37.936  13.404
64997W        W29982  42.525  34.820   0.286
64998W        W29983  19.236  35.421   0.381
64999W        W29984  13.217  21.970   1.842
65000W        W29985   2.219  20.197  10.784
65001W        W29986  22.106  18.809  14.420
65002W        W29987   6.264  28.087   3.729
65003W        W29988   2.959  11.129  13.959
65004W        W29989  44.799  37.947  11.936
65005W        W29990  33.672  32.869  14.636
65006W        W29991  30.382  33.996  14.890
65007W        W29992  22.560  22.382  13.908
65008W        W29993  14.606   7.304   1.790
65009W        W29994  25.574  36.066  13.809
65010W        W29995  33.970  16.344   3.158
65011W        W29996  31.662   9.076  14.484
65012W        W29997   2.015   1.446   4.754
65013W        W29998  30.803   4.935   4.886
65014W        W29999  25.645  24.252   3.210
65015W        W30000  44.734   9.564  12.913
65016W        W30001  39.871  11.590  11.750
65017W        W30002  27.029  22.071   4.462
65018W        W30003  44.852  44.992  13.619
65019W        W30004  28.930  34.430  13.928
65020W        W30005  15.191  10.206  13.974
65021W        W30006  29.971   5.988  11.565
65022W        W30007  16.844  25.477   4.222
65023W        W30008   2.331  16.082   0.618
65024W        W30009  27.496  17.767  13.638
65025W        W30010  17.813  32.981   3.766
65026W        W30011   5.711  37.499  13.335
65027W        W30012   2.968  27.117   0.866
65028W        W30013  31.895  36.211   1.254
65029W        W30014   3.204  10.716  14.851
65030W        W30015   7.484  22.046  13.329
65031W        W30016  35.445  29.030  14.984
65032W        W30017  32.899  31.656   4.517
65033W        W30018  41.893  11.604  14.207
65034W        W30019  16.486  28.104  13.322
65035W        W30020  35.468  29.863   3.872
65036W        W30021   8.347  24.469  12.348
65037W        W30022   8.137  31.366  13.965
65038W        W30023  43.703  33.707  14.975
65039W        W30024  43.782  29.307  13.766
65040W        W30025   7.172  27.033  13.410
65041W        W30026  41.972  13.794  13.455
65042W        W30027  42.867  15.573  13.063
65043W        W30028  29.493  33.641   0.860
65044W        W30029   8.269   9.877  13.516
65045W        W30030   2.369  41.595  11.112
65046W        W30031  17.368  17.831  10.629
65047W        W30032   3.315  29.949   4.590
65048W        W30033  28.645  30.223   5.034
65049W        W30034  43.490  23.841   2.143
65050W        W30035  11.784   7.126   0.302
65051W        W30036  32.527  12.033  10.244
65052W        W30037  17.698  25.468   2.947
65053W        W30038   3.222  27.661  13.500
65054W        W30039   3.677  28.914   3.913
65055W        W30040   8.408  11.172  12.966
65056W        W30041  18.749  33.852   1.463
65057W        W30042  38.429  26.955  13.871
65058W        W30043   1.197   4.965   1.939
65059W        W30044   4.876   2.157  13.936
65060W        W30045   9.741  27.166  14.558
65061W        W30046  24.542  10.531  11.117
65062W        W30047  40.954  37.575  11.543
65063W        W30048   0.943  28.787  13.663
65064W        W30049  29.756  14.549   0.278
65065W        W30050  17.467  23.285  11.733
65066W        W30051   2.277  20.493  14.901
65067W        W30052  41.328  29.888  10.646
65068W        W30053  15.195  14.832   3.015
65069W        W30054   8.965  29.375   3.529
65070W        W30055  12.100  17.716  13.813
65071W        W30056  38.015  17.653  14.041
65072W        W30057   6.911  31.716   2.384
65073W        W30058  14.769   2.022  13.110
65074W        W30059  41.873   1.736  12.459
65075W        W30060  29.111  22.067   1.479
65076W        W30061  24.727  14.962   1.856
65077W        W30062  40.944  10.305   1.324
65078W        W30063   3.315  13.696   0.014
65079W        W30064  37.938  17.639  10.614
65080W        W30065  21.286  14.380  10.572
65081W        W30066  33.125  33.678  11.521
65082W        W30067   8.456  32.432  14.472
65083W        W30068  28.425  41.326   3.114
65084W        W30069  22.165  18.685   5.451
65085W        W30070   9.038  38.084   3.667
65086W        W30071  36.256  17.623  13.156
65087W        W30072   6.291  34.121   3.311
65088W        W30073  31.003   8.937  13.338
65089W        W30074  38.877  35.111  10.236
65090W        W30075  12.106  41.547   0.928
65091W        W30076  44.902  24.514   1.277
65092W        W30077  27.595  38.746  12.388
65093W        W30078  36.313  42.313   2.721
65094W        W30079  24.104  19.190  11.100
65095W        W30080  37.490  40.874   1.899
65096W        W30081  30.939   1.192   5.221
65097W        W30082  32.860   4.954  11.232
65098W        W30083  44.325  18.211   2.325
65099W        W30084  25.570  41.061   0.843
65100W        W30085   3.143  23.572   1.023
65101W        W30086  29.776  15.135  13.099
65102W        W30087  31.693  39.914  13.923
65103W        W30088   6.683   0.825  10.671
65104W        W30089  29.500   3.648   0.952
65105W        W30090  32.948  31.881  13.886
65106W        W30091   0.452  14.631   4.624
65107W        W30092  35.540  19.448   1.201
65108W        W30093   8.441  15.644  13.032
65109W        W30094   7.225  17.937  11.599
65110W        W30095  13.210  26.443   0.924
65111W        W30096  15.234  41.819  11.981
65112W        W30097  10.010  44.410   2.247
65113W        W30098  38.264  35.893   0.954
65114W        W30099  15.964  22.034  13.528
65115W        W30100  33.610  10.273   2.272
65116W        W30101  29.048  26.237  10.603
65117W        W30102  24.969  12.813  12.144
65118W        W30103  28.367  35.378  13.239
65119W        W30104  41.387  10.605  10.690
65120W        W30105  30.817   3.671  10.924
65121W        W30106  12.705  15.816  14.330
65122W        W30107   7.826   8.272   2.777
65123W        W30108   4.251  22.786  14.071
65124W        W30109  16.659  36.427  14.391
65125W        W30110   4.171  41.985   0.947
65126W        W30111  32.019  42.374  10.965
65127W        W30112  12.862   2.253   3.680
65128W        W30113  36.582   3.289   2.155
65129W        W30114  16.109  24.289  13.072
65130W        W30115  32.872  21.623  14.082
65131W        W30116   2.554   9.275  11.646
65132W        W30117   7.833  28.811  12.897
65133W        W30118  27.942  36.676   0.411
65134W        W30119  44.200   3.737   4.901
65135W        W30120  17.542  11.182   2.763
65136W        W30121  37.899  32.016  14.916
65137W        W30122  21.139   9.913  13.760
65138W        W30123  25.461  26.974   0.447
65139W        W30124  44.992  11.809   3.837
65140W        W30125  28.605  26.603   2.042
65141W        W30126   7.142  14.897  10.686
65142W        W30127  14.187  36.730   4.524
65143W        W30128  18.721   7.161   2.545
65144W        W30129  29.936   2.392   3.111
65145W        W30130  39.474  44.319  11.494
65146W        W30131  19.060  40.502  11.585
65147W        W30132  14.136  19.719   4.268
65148W        W30133  28.649   1.507  14.482
65149W        W30134  41.847   8.971  11.747
65150W        W30135  43.036  44.975  13.600
65151W        W30136  42.997   0.865  11.441
65152W        W30137   5.287  32.783  12.063
65153W        W30138   3.863  41.107   1.916
65154W        W30139  11.909   2.266   1.849
65155W        W30140  19.284  14.253  14.415
65156W        W30141  31.039  43.872   3.764
65157W        W30142  14.368  28.386   0.333
65158W        W30143  20.588  32.581   2.583
65159W        W30144  29.938   6.785   2.199
65160W        W30145  19.114  21.933   5.526
65161W        W30146  22.080  41.848  13.279
65162W        W30147  24.920  27.949  13.547
65163W        W30148  44.050   4.102   1.787
65164W        W30149  15.796  28.682  12.729
65165W        W30150   8.457   9.453   9.694
65166W        W30151  11.293  40.535   0.816
65167W        W30152  25.210  30.631   2.250
65168W        W30153  44.444  23.599   0.456
65169W        W30154  10.474   9.443  13.556
65170W        W30155  20.561  36.304   4.182
65171W        W30156  10.364  16.330   3.764
65172W        W30157  18.950   8.197  14.158
65173W        W30158  12.297  28.982   4.989
65174W        W30159  25.394  37.865  14.584
65175W        W30160   4.284  40.218   1.178
65176W        W30161  31.409   7.890   3.201
65177W        W30162  32.556  18.849  12.031
65178W        W30163  12.642  29.642   4.565
65179W        W30164  33.944   3.797  10.910
65180W        W30165   0.699   2.339  13.969
65181W        W30166  12.257  18.808  10.890
65182W        W30167   7.629  26.709  13.404
65183W        W30168  21.525   0.884  10.656
65184W        W30169  15.326  25.157  13.841
65185W        W30170  15.061  24.856   0.909
65186W        W30171  28.383  20.094  12.885
65187W        W30172  14.729  42.564  11.980
65188W        W30173  24.261   2.596   2.442
65189W        W30174  36.531  15.679   5.051
65190W        W30175  31.946  29.184   0.318
65191W        W30176  15.791  11.321   4.551
65192W        W30177  44.275  24.677   4.687
65193W        W30178   6.406   4.374   4.967
65194W        W30179   0.353  26.471  13.052
65195W        W30180  36.011   5.979   2.276
65196W        W30181  12.246   5.425   9.943
65197W        W30182   8.860  27.522   1.792
65198W        W30183   8.168  19.749   2.845
65199W        W30184  25.683  32.674   3.679
65200W        W30185  44.968  18.508  13.078
65201W        W30186  32.510  28.137  13.067
65202W        W30187  28.472  19.881   2.686
65203W        W30188  34.548  36.098  10.761
65204W        W30189  18.215  14.785   1.268
65205W        W30190  33.639  26.966   3.379
65206W        W30191  37.801   8.981   3.673
65207W        W30192  31.441  26.923  13.443
65208W        W30193   3.388   5.728   0.413
65209W        W30194  14.395  43.901   1.828
65210W        W30195  29.930  15.379  11.558
65211W        W30196  27.678  20.336  11.896
65212W        W30197  28.571  10.349  14.294
65213W        W30198  10.717   8.702  10.088
65214W        W30199  36.815   5.659  13.925
65215W        W30200  10.344  25.179  11.583
65216W        W30201   4.174  27.622  10.404
65217W        W30202  32.846  12.226  14.950
65218W        W30203  41.655   0.306   3.768
65219W        W30204   8.395  24.260   2.502
65220W        W30205  10.691   4.815   4.167
65221W        W30206  18.511  17.192   4.923
65222W        W30207  24.132  38.943   2.693
65223W        W30208  38.511  19.667  14.841
65224W        W30209  44.823  26.616  12.545
65225W        W30210   9.776   1.817  13.903
65226W        W30211  29.205   3.546  12.526
65227W        W30212  42.306   0.321   2.279
65228W        W30213  14.121   3.678  13.485
65229W        W30214  37.008  16.212  14.537
65230W        W30215  31.711  25.580   1.713
65231W        W30216  29.579  38.393   1.228
65232W        W30217  17.144   6.751   0.230
65233W        W30218  18.128  41.018   1.010
65234W        W30219  42.814  30.242  12.382
65235W        W30220   3.425  30.669   1.330
65236W        W30221  22.230  12.612   4.545
65237W        W30222   9.889  35.665   0.910
65238W        W30223  37.078  24.493   0.967
65239W        W30224   4.668  16.105   1.190
65240W        W30225  27.447   6.468  12.932
65241W        W30226  37.153  30.187  13.373
65242W        W30227  10.239  44.270  14.770
65243W        W30228  25.538  21.604  12.517
65244W        W30229  29.625   3.832  10.374
65245W        W30230  32.819   7.422   3.126
65246W        W30231  14.856  37.403   2.658
65247W        W30232   3.825  25.554  14.062
65248W        W30233   4.442  37.889   2.160
65249W        W30234  12.835   3.919  12.474
65250W        W30235  16.512  41.066  11.273
65251W        W30236  27.459  30.140  14.959
65252W        W30237  36.055  17.301   2.440
65253W        W30238  38.620  24.195  12.659
65254W        W30239  40.506   8.363  11.553
65255W        W30240  37.891  40.509   1.838
65256W        W30241   8.284  43.999  11.331
65257W        W30242  31.948   1.202  13.440
65258W        W30243  14.638   7.812  14.911
65259W        W30244  28.793  35.069  11.993
65260W        W30245  22.385  38.753  14.006
65261W        W30246  12.239   9.646  11.424
65262W        W30247  22.396  38.555   1.640
65263W        W30248  41.984  39.100   1.649
65264W        W30249   1.255   0.368  11.411
65265W        W30250  44.270  12.805  13.918
65266W        W30251   0.824   2.283  13.003
65267W        W30252  32.121  39.920  13.323
65268W        W30253  42.490  33.143  13.891
65269W        W30254  38.090  25.107   3.737
65270W        W30255  35.535  11.020  11.370
65271W        W30256  12.286  30.030   4.250
65272W        W30257  30.730  16.263   3.398
65273W        W30258  41.816  39.413   4.299
65274W        W30259  43.342   8.618   3.285
65275W        W30260  38.508  11.128  12.271
65276W        W30261  40.971  12.937   1.279
65277W        W30262  12.179   3.296  12.009
65278W        W30263  30.039   6.422  14.654
65279W        W30264  22.468   0.221  12.896
65280W        W30265  27.595  34.065   4.256
65281W        W30266  26.411   2.304   1.719
65282W        W30267  23.770  30.963  11.609
65283W        W30268   2.843  36.382  11.539
65284W        W30269  21.924  35.989   3.409
65285W        W30270  41.926  18.713  14.979
65286W        W30271  39.459   0.019   3.222
65287W        W30272  14.735  19.113  12.122
65288W        W30273   3.156  16.110  10.660
65289W        W30274  37.776  40.906   2.354
65290W        W30275  10.607  42.681   5.111
65291W        W30276  25.535  44.401  12.882
65292W        W30277   2.389  26.685  10.712
65293W        W30278  25.304  28.225  10.311
65294W        W30279  38.121  14.294  14.350
65295W        W30280  33.895  29.191  12.527
65296W        W30281  37.622  13.301   2.662
65297W        W30282  38.071   9.843   4.648
65298W        W30283  37.023  18.104   0.740
65299W        W30284  31.625  24.504   0.342
65300W        W30285  34.035  43.162   0.706
65301W        W30286  36.100   0.179  12.195
65302W        W30287  34.879  21.148   2.609
65303W        W30288  30.547  44.672   1.215
65304W        W30289  22.594  23.178  14.869
65305W        W30290  29.087   6.210  13.676
65306W        W30291  40.590  25.417   3.958
65307W        W30292  40.496  34.151   2.760
65308W        W30293  41.269  21.174  10.771
65309W        W30294  11.431  35.062  13.803
65310W        W30295  39.831   1.248  14.253
65311W        W30296  12.998   8.663  12.022
65312W        W30297  22.236  41.881  14.291
65313W        W30298  24.545  38.269   2.577
65314W        W30299  28.978  33.323   2.073
65315W        W30300  13.577  12.893   1.980
65316W        W30301   8.440   0.522   0.477
65317W        W30302  13.878  41.696  14.252
65318W        W30303  26.160  20.841  12.826
65319W        W30304   8.812  27.161   2.431
65320W        W30305   1.279  20.217  14.284
65321W        W30306  41.433  42.827   0.745
65322W        W30307  40.483  12.311   2.141
65323W        W30308  16.271   2.401  10.384
65324W        W30309  17.070   8.679   0.864
65325W        W30310  11.716  42.163   4.565
65326W        W30311   1.041  21.153   1.877
65327W        W30312  23.468  15.775  10.793
65328W        W30313  37.328  37.928   0.378
65329W        W30314  30.888  17.647  14.611
65330W        W30315   9.595  24.242   1.892
65331W        W30316  43.395   1.585   0.871
65332W        W30317  21.284  16.750   4.157
65333W        W30318  27.639   1.314   2.313
65334W        W30319   8.747  12.667  10.602
65335W        W30320  39.187  36.798  14.866
65336W        W30321   2.697  13.936   3.657
65337W        W30322   6.971  38.661   4.318
65338W        W30323  35.021  32.676  14.971
65339W        W30324   4.418  13.357   0.350
65340W        W30325  29.622  19.600  11.706
65341W        W30326   9.856  23.778   3.020
65342W        W30327   4.919  15.649  14.442
65343W        W30328  31.046  18.400   5.128
65344W        W30329  13.532  35.879  13.121
65345W        W30330  33.250   9.939   3.375
65346W        W30331  19.532  38.419  11.246
65347W        W30332  41.742  34.626   0.775
65348W        W30333  41.004  24.548  10.815
65349W        W30334  25.084   4.549   3.639
65350W        W30335  28.114   6.342  12.100
65351W        W30336  36.402  44.223  14.954
65352W        W30337   6.797  13.002  13.349
65353W        W30338  42.785  12.870   3.373
65354W        W30339  11.281  28.635  11.999
65355W        W30340  30.868   8.163  10.357
65356W        W30341  42.885  39.054   2.691
65357W        W30342  27.908  20.291  12.807
65358W        W30343  21.312  27.718  13.923
65359W        W30344  12.097  37.366  11.455
65360W        W30345  42.032  44.253  14.784
65361W        W30346   7.179  22.431  12.031
65362W        W30347   0.564   5.168   1.788
65363W        W30348  36.973  35.367  11.441
65364W        W30349  35.831   5.840  11.552
65365W        W30350   7.387   4.117  11.202
65366W        W30351  31.452   9.208   4.071
65367W        W30352   5.652   4.169  13.857
65368W        W30353  11.203   2.080  14.836
65369W        W30354  38.482  29.729  13.699
65370W        W30355  41.923   2.790   0.434
65371W        W30356  13.555  16.622   0.748
65372W        W30357   4.272  18.872   3.216
65373W        W30358  30.161  31.975  13.505
65374W        W30359  42.770  18.149   2.360
65375W        W30360  30.972   0.304   3.393
65376W        W30361  20.522  28.090  12.128
65377W        W30362  20.800  23.143   0.166
65378W        W30363  32.826   9.996  11.516
65379W        W30364  27.969  36.620   1.303
65380W        W30365  43.969  27.634   3.987
65381W        W30366  23.944   9.786   0.246
65382W        W30367   2.910  15.720  14.509
65383W        W30368   0.008   9.443  12.019
65384W        W30369  41.482  28.393  11.568
65385W        W30370  10.639   4.969   1.855
65386W        W30371  27.493   3.408   2.859
65387W        W30372  28.244  15.827  10.032
65388W        W30373  34.297  43.029  12.652
65389W        W30374  42.275  10.153   2.178
65390W        W30375  36.951  22.255   2.730
65391W        W30376  13.552  37.437   4.555
65392W        W30377  39.221   4.871  10.994
65393W        W30378  44.290  13.755  10.483
65394W        W30379  17.464  14.314   5.050
65395W        W30380  17.293  17.170  11.508
65396W        W30381  42.900  27.226   3.609
65397W        W30382  30.586  19.233  14.958
65398W        W30383  36.121  33.932  11.699
65399W        W30384  13.811  26.501   3.197
65400W        W30385  25.448  29.568   0.876
65401W        W30386  23.970  23.666   0.901
65402W        W30387  21.168   6.759  13.931
65403W        W30388  12.837   7.803   4.570
65404W        W30389  41.282   5.499  12.600
65405W        W30390  32.171  27.571   9.798
65406W        W30391   7.208  34.869   2.701
65407W        W30392  28.720  17.581  12.362
65408W        W30393  35.404  25.073  12.526
65409W        W30394  20.080   8.049   0.874
65410W        W30395  12.710  23.989   4.581
65411W        W30396  19.240   9.721   0.977
65412W        W30397   9.857   1.208   4.346
65413W        W30398  42.837   3.066   0.465
65414W        W30399  12.347  34.874  14.030
65415W        W30400  20.683  28.292   0.368
65416W        W30401   7.053  34.435   4.353
65417W        W30402  12.059  40.802  14.383
65418W        W30403   0.239  37.617   1.920
65419W        W30404  10.875   3.041  14.936
65420W        W30405  32.494  29.599   1.943
65421W        W30406  19.000   7.451   2.204
65422W        W30407  27.728  32.116   2.893
65423W        W30408  12.233   9.697   0.727
65424W        W30409  19.842  22.478   5.048
65425W        W30410  27.153  37.940  14.735
65426W        W30411  12.359  22.481  14.418
65427W        W30412  35.573  30.352  10.803
65428W        W30413  14.765  30.709   0.832
65429W        W30414  32.445  37.030   1.396
65430W        W30415  43.533  15.338   3.795
65431W        W30416  25.511  12.062   1.774
65432W        W30417  40.854  36.963  11.112
65433W        W30418   0.740  42.122  14.607
65434W        W30419  17.725  26.167   2.207
65435W        W30420  28.831  26.167   4.371
65436W        W30421   0.842  21.771  14.729
65437W        W30422  21.954  36.981  14.471
65438W        W30423   4.705  38.640  13.945
65439W        W30424  34.457  23.117  14.804
65440W        W30425  30.639  31.599  14.514
65441W        W30426   4.416  36.337   1.227
65442W        W30427  24.569   6.885   0.404
65443W        W30428  17.096  35.505  10.994
65444W        W30429  34.881  21.549  10.778
65445W        W30430  43.975  13.257  13.894
65446W        W30431   3.995   8.439  14.837
65447W        W30432  40.407  43.293   2.778
65448W        W30433  14.761  37.364  14.210
65449W        W30434  25.238  36.763  13.020
65450W        W30435  35.967   6.357   1.216
65451W        W30436  38.637  18.963   3.650
65452W        W30437  44.664  12.770  12.972
65453W        W30438  44.471  35.782  11.502
65454W        W30439  39.828  38.408   3.712
65455W        W30440  22.024  10.186  12.575
65456W        W30441  36.573  16.198   4.784
65457W        W30442   5.789  39.722  11.170
65458W        W30443  17.244  12.839  11.493
65459W        W30444   6.942   8.542   3.598
65460W        W30445  30.465   9.808  14.362
65461W        W30446  43.160   6.599  11.476
65462W        W30447   8.586  21.800  14.724
65463W        W30448   5.558   9.694   2.078
65464W        W30449   9.990  16.194  10.724
65465W        W30450  17.700  24.566   3.763
65466W        W30451  42.412  10.103   3.073
65467W        W30452  29.578  40.768   2.479
65468W        W30453   1.763  18.550  13.007
65469W        W30454  38.367  34.705  12.536
65470W        W30455  10.759  11.183   2.499
65471W        W30456  14.781  18.798   3.583
65472W        W30457  19.211  23.507  11.179
65473W        W30458  43.301  24.588  13.272
65474W        W30459  36.513  31.337  12.458
65475W        W30460   1.969  12.936   1.885
65476W        W30461  20.005  21.791  13.787
65477W        W30462  13.362  18.531   4.200
65478W        W30463  41.960   4.594  11.205
65479W        W30464  16.194  22.569  13.796
65480W        W30465  30.450  43.438   4.412
65481W        W30466  10.679  13.832   3.212
65482W        W30467  19.818   7.216  13.201
65483W        W30468   0.436  11.432  10.560
65484W        W30469  18.611  33.033   4.153
65485W        W30470  41.404  26.023  13.034
65486W        W30471  29.022   7.130  13.918
65487W        W30472   0.810   2.005  11.969
65488W        W30473  33.087  36.672   1.729
65489W        W30474  37.872  43.415  12.925
65490W        W30475   3.288  15.999  13.514
65491W        W30476  11.641  17.860  11.253
65492W        W30477  30.554  11.827  13.911
65493W        W30478   8.374   1.031   0.469
65494W        W30479  35.381  42.880   3.645
65495W        W30480  33.090  36.814   0.752
65496W        W30481  34.002  10.952  10.961
65497W        W30482  34.753  34.529   5.036
65498W        W30483  34.896  28.451  10.769
65499W        W30484  14.082  15.471   4.108
65500W        W30485  12.417  15.599   1.218
65501W        W30486  26.137  20.600  13.902
65502W        W30487  15.333  20.188   4.792
65503W        W30488  32.222  33.545  12.973
65504W        W30489  37.888  36.000   2.940
65505W        W30490  16.192  24.071  13.538
65506W        W30491  42.139  28.018  13.770
65507W        W30492  22.152  12.384   2.877
65508W        W30493  28.975  16.177  10.531
65509W        W30494  27.729  34.898  10.171
65510W        W30495   4.672  42.718   3.724
65511W        W30496  10.524  34.654   2.209
65512W        W30497  15.970  38.464  11.585
65513W        W30498  15.357  10.306  11.952
65514W        W30499  16.104  21.510  12.712
65515W        W30500  27.593  29.551  12.524
65516W        W30501   2.052   0.699  11.506
65517W        W30502  16.891  32.062  13.787
65518W        W30503  18.284  20.780  12.001
65519W        W30504  11.751  24.287   4.569
65520W        W30505  10.931  43.700  10.940
65521W        W30506  12.762  23.749  13.856
65522W        W30507   3.354  44.942  10.803
65523W        W30508   0.187  27.733  14.020
65524W        W30509   5.640  26.673   3.702
65525W        W30510  23.726  23.117   2.899
65526W        W30511  30.559  16.971  12.915
65527W        W30512  23.828  29.102   2.816
65528W        W30513  11.308  30.742   2.247
65529W        W30514  32.001  21.054  11.536
65530W        W30515  39.802  36.674   3.303
65531W        W30516  16.294  43.533  12.485
65532W        W30517  37.317   7.404   0.013
65533W        W30518   0.894  20.586  14.370
65534W        W30519  34.059  31.252  13.474
65535W        W30520  22.187   4.437   3.723
65536W        W30521   2.826  19.485  13.621
65537W        W30522  14.667  20.522   0.861
65538W        W30523  42.202  22.053   3.705
65539W        W30524  27.534  15.725   0.205
65540W        W30525  22.657  27.712  14.473
65541W        W30526   6.233   6.978  14.257
65542W        W30527  25.427  35.988   0.935
65543W        W30528  38.530  14.058  11.717
65544W        W30529  33.365  33.514   2.659
65545W        W30530  36.538  36.737  12.601
65546W        W30531  14.452  31.021   1.165
65547W        W30532  28.069  17.180  14.230
65548W        W30533  25.646  13.371   1.241
65549W        W30534  42.017  36.468   2.339
65550W        W30535  12.774  28.601   2.248
65551W        W30536  33.490  41.247   2.229
65552W        W30537   5.937  42.283  12.796
65553W        W30538  10.219  39.066   0.530
65554W        W30539   7.587  27.919  11.872
65555W        W30540  16.990  41.849   2.228
65556W        W30541  13.448  29.029   5.509
65557W        W30542  24.543  35.031   4.558
65558W        W30543   9.364  19.147   1.678
65559W        W30544   9.272   5.456   1.880
65560W        W30545  40.701  19.760   3.236
65561W        W30546  11.286  39.388   1.400
65562W        W30547  14.681   3.975   4.126
65563W        W30548  12.661  34.904  11.086
65564W        W30549  10.086  10.985  14.418
65565W        W30550  16.551   7.653   2.779
65566W        W30551  26.761  40.093  11.589
65567W        W30552   9.178  23.638   4.211
65568W        W30553  19.148  13.081   1.908
65569W        W30554  38.245  11.225   4.542
65570W        W30555  28.149  33.456   2.366
65571W        W30556  16.784  34.792   3.633
65572W        W30557   3.751  35.394   0.737
65573W        W30558  33.878  16.534  11.102
65574W        W30559  40.867  23.509  14.773
65575W        W30560  37.307  26.162   4.383
65576W        W30561  39.009  38.775  12.296
65577W        W30562  40.848   1.832   2.973
65578W        W30563  20.538   4.029   4.792
65579W        W30564  16.562  28.571  13.557
65580W        W30565  25.025  23.427  13.099
65581W        W30566   2.523   9.134   3.217
65582W        W30567  38.069   3.937  13.641
65583W        W30568  26.676   0.742  10.747
65584W        W30569  23.477  10.789   3.342
65585W        W30570  39.400  39.234   1.932
65586W        W30571  43.325  14.539   3.368
65587W        W30572  33.410   2.527   3.363
65588W        W30573  36.532  20.754  13.872
65589W        W30574  28.903  25.205  13.819
65590W        W30575  33.835  33.890   1.261
65591W        W30576  24.664   0.949  13.386
65592W        W30577  41.763  31.308   4.868
65593W        W30578   2.361  27.139   3.932
65594W        W30579  15.828  29.660  12.817
65595W        W30580  27.854  38.874  10.376
65596W        W30581   3.488  25.455   0.461
65597W        W30582  11.165  15.168   1.231
65598W        W30583  18.609  16.649  10.149
65599W        W30584  32.839  36.518  11.157
65600W        W30585  37.980   9.933  11.127
65601W        W30586  29.744  10.358   4.523
65602W        W30587  38.333  43.496   3.551
65603W        W30588  17.918  27.197   5.011
65604W        W30589  29.103   9.183   4.186
65605W        W30590  42.878   0.998  13.420
65606W        W30591  42.839  28.909   0.683
65607W        W30592  17.453  18.616  10.610
65608W        W30593  36.571  39.132  12.853
65609W        W30594  36.066  27.170  14.537
65610W        W30595  36.098   1.731   2.761
65611W        W30596  26.284  11.427  14.720
65612W        W30597  22.058  20.678   2.685
65613W        W30598  26.294  39.548  10.799
65614W        W30599  42.660   8.866  13.352
65615W        W30600  33.316  14.035   4.756
65616W        W30601  41.002  20.591  12.500
65617W        W30602  36.965  18.105  13.282
65618W        W30603   0.815  31.358  14.336
65619W        W30604  17.406  22.056   3.669
65620W        W30605  28.422   2.894  11.291
65621W        W30606  32.963  28.127  14.775
65622W        W30607  10.784  19.750  14.338
65623W        W30608  22.893   3.522   3.329
65624W        W30609  43.741  14.045  12.534
65625W        W30610  28.227  18.524   2.669
65626W        W30611  27.458  39.445  12.950
65627W        W30612  22.146  20.297  10.928
65628W        W30613  41.786  14.585  10.158
65629W        W30614  25.893  26.944  14.910
65630W        W30615  16.734  36.462   2.020
65631W        W30616   8.023  23.318   3.165
65632W        W30617   0.704  34.600   3.873
65633W        W30618   1.993  11.664  12.024
65634W        W30619  20.286  43.999   1.465
65635W        W30620  28.541  35.909  14.636
65636W        W30621  14.072  25.238  14.832
65637W        W30622  14.440  26.999  14.256
65638W        W30623  20.473  41.408   2.817
65639W        W30624  21.429  15.283   0.062
65640W        W30625  12.227  29.667   0.802
65641W        W30626  13.805  27.690   3.683
65642W        W30627  20.498  13.689  12.475
65643W        W30628  35.232  10.154   0.680
65644W        W30629  42.397  40.982  11.615
65645W        W30630  19.792   3.883  12.076
65646W        W30631  12.099  16.494   0.802
65647W        W30632  17.997  42.346   4.850
65648W        W30633   1.381  15.337   1.744
65649W        W30634   0.573   7.753   2.471
65650W        W30635  14.067  37.432  14.936
65651W        W30636   7.697  23.592  12.977
65652W        W30637  18.255  14.668   3.546
65653W        W30638  20.764  36.710  10.647
65654W        W30639  27.943  16.578   4.319
65655W        W30640  34.345  38.860  11.535
65656W        W30641   5.637   1.405  14.823
65657W        W30642  29.487  15.288  13.528
65658W        W30643  33.687   5.859  12.855
65659W        W30644  30.989   7.920   4.333
65660W        W30645  44.027  14.953   2.185
65661W        W30646  36.889  39.457  12.614
65662W        W30647  30.173   4.932   0.839
65663W        W30648  18.191  16.411   3.866
65664W        W30649   5.312  43.665  11.868
65665W        W30650   0.479  22.544  12.982
65666W        W30651  43.926   2.454   4.880
65667W        W30652  42.457   2.292   4.588
65668W        W30653  43.388  33.492   4.244
65669W        W30654  24.526  40.962   4.015
65670W        W30655   3.730  33.249  11.063
65671W        W30656   4.716  37.157  13.936
65672W        W30657  35.173  24.476  14.860
65673W        W30658  19.030  31.124  10.759
65674W        W30659  44.637  43.400  11.866
65675W        W30660  23.706  18.791  13.895
65676W        W30661   3.980  26.938   4.762
65677W        W30662  19.768  39.160  12.652
65678W        W30663  30.901  14.049  12.378
65679W        W30664   0.799   7.471  12.179
65680W        W30665  44.785  34.240  12.065
65681W        W30666  31.161  17.900  13.629
65682W        W30667   4.444  22.564  14.498
65683W        W30668  40.342  11.160   2.250
65684W        W30669  16.288  16.249   0.730
65685W        W30670  14.063  27.388  12.548
65686W        W30671  42.562   7.962   3.111
65687W        W30672  14.160  34.961  14.957
65688W        W30673  39.599  30.862   2.150
65689W        W30674  29.127  42.430   3.581
65690W        W30675   1.878   9.360   1.350
65691W        W30676  42.576   4.098  12.619
65692W        W30677  22.700  31.593  14.926
65693W        W30678  26.073  41.924   2.180
65694W        W30679  42.670  28.102  13.719
65695W        W30680  22.686  29.139  11.750
65696W        W30681  28.543  21.443   0.390
65697W        W30682  12.894  16.910   2.856
65698W        W30683  22.941  23.594   2.715
65699W        W30684  26.036  31.020   0.848
65700W        W30685   5.660  33.466  14.721
65701W        W30686  32.357  36.768  12.889
65702W        W30687  21.957  31.598   0.229
65703W        W30688  19.514   5.014  14.331
65704W        W30689   3.289  19.100  14.244
65705W        W30690  21.803  15.546   3.703
65706W        W30691  20.723  25.166   2.375
65707W        W30692  23.791  42.970  13.007
65708W        W30693  32.180  18.610   0.812
65709W        W30694  24.344  43.153  13.238
65710W        W30695  12.688  13.955   0.086
65711W        W30696  19.429   8.304   2.377
65712W        W30697   4.561  15.147  14.740
65713W        W30698  10.927   1.826   5.029
65714W        W30699  30.867  44.053  13.800
65715W        W30700   1.229   2.330  12.614
65716W        W30701  41.030  21.641   2.300
65717W        W30702  33.863  39.891  13.364
65718W        W30703  16.127  33.941   3.556
65719W        W30704   6.195  44.537  14.316
65720W        W30705   7.745   7.885   5.096
65721W        W30706  43.278  34.259   1.914
65722W        W30707  41.878  26.254   1.342
65723W        W30708  40.702  15.619   1.248
65724W        W30709   0.779  26.895   0.450
65725W        W30710   0.404   9.609   4.454
65726W        W30711   3.931  10.672   2.379
65727W        W30712  20.811  15.016   3.762
65728W        W30713   9.688  41.438   3.846
65729W        W30714  19.676   1.499  14.597
65730W        W30715  30.139  31.004  13.584
65731W        W30716  27.594  41.158   1.986
65732W        W30717   3.283  14.656  11.205
65733W        W30718  12.738  15.573  10.642
65734W        W30719   7.973  39.443  14.778
65735W        W30720  29.774  44.300  11.566
65736W        W30721  42.229  40.120   1.838
65737W        W30722  27.515  11.166  12.439
65738W        W30723  33.577  15.411   2.227
65739W        W30724  42.244  44.462  10.633
65740W        W30725   9.698  20.809   1.543
65741W        W30726  28.868  19.213   3.410
65742W        W30727  17.903  19.688   3.681
65743W        W30728  23.079  37.170   0.734
65744W        W30729  26.468   0.766   9.843
65745W        W30730   9.100  12.142  13.887
65746W        W30731  14.490  20.682   2.184
65747W        W30732  17.779  24.179   3.463
65748W        W30733  36.140  21.102  13.630
65749W        W30734  41.327  36.260  13.982
65750W        W30735  26.631  15.033   0.107
65751W        W30736  19.654  17.058   0.017
65752W        W30737  21.173  12.144  14.213
65753W        W30738   7.323   7.634   1.014
65754W        W30739  17.345  32.637   0.672
65755W        W30740  22.099  27.240  12.526
65756W        W30741   4.616  22.609   0.830
65757W        W30742  37.720   7.922  12.976
65758W        W30743   9.373  28.995  12.044
65759W        W30744  28.741   6.704  12.835
65760W        W30745   8.381  37.888   0.974
65761W        W30746  12.141  33.974   0.128
65762W        W30747   9.772  23.008  11.072
65763W        W30748   0.453  29.781  13.478
65764W        W30749  41.025  27.396  13.924
65765W        W30750  38.600  41.362  14.919
65766W        W30751   2.841  11.252   3.806
65767W        W30752   2.923  13.345  14.963
65768W        W30753  40.762   3.742  10.590
65769W        W30754  18.038  10.071  14.446
65770W        W30755  19.185   3.277   2.274
65771W        W30756  22.616  20.166   0.112
65772W        W30757  23.021  18.753  14.442
65773W        W30758  35.297  18.140   0.642
65774W        W30759  10.853  25.204   4.219
65775W        W30760  21.239  10.354   2.231
65776W        W30761  32.392  20.271   2.808
65777W        W30762  29.168  33.174  13.420
65778W        W30763  16.176  30.088   3.121
65779W        W30764  39.870  40.865   0.749
65780W        W30765  27.361  38.581  11.962
65781W        W30766  14.802  30.428  12.308
65782W        W30767  30.171  35.880  10.477
65783W        W30768  24.821  19.812   3.682
65784W        W30769   1.568  10.376   4.012
65785W        W30770  13.816   4.229  10.677
65786W        W30771  34.209  15.270   3.948
65787W        W30772   6.392  21.708  14.075
65788W        W30773  35.006  37.324  10.847
65789W        W30774  27.270  31.530  12.527
65790W        W30775   5.895  28.905  11.378
65791W        W30776  20.098  41.483   3.395
65792W        W30777  20.403  21.316   4.638
65793W        W30778   3.880  23.973   1.379
65794W        W30779  24.118   2.048  12.933
65795W        W30780  16.464  26.308  14.528
65796W        W30781  28.203  36.414   2.568
65797W        W30782  31.821  24.501   4.565
65798W        W30783  13.319   3.917  14.876
65799W        W30784  38.425  32.173  11.625
65800W        W30785  24.111  36.733  12.421
65801W        W30786   6.378  16.398   2.394
65802W        W30787  32.520   0.289  11.957
65803W        W30788   4.721  16.968   2.416
65804W        W30789  33.044  33.186  11.615
65805W        W30790  17.091  39.023   3.719
65806W        W30791   0.898  41.118   1.458
65807W        W30792  42.214  10.298  11.059
65808W        W30793  35.443  19.860  12.461
65809W        W30794  18.297  27.435   3.262
65810W        W30795  21.413  25.876   2.378
65811W        W30796  27.609  34.982   3.525
65812W        W30797   1.766  22.399   0.936
65813W        W30798  19.313  43.861   2.341
65814W        W30799  42.287  42.761  11.219
65815W        W30800   7.785  37.922   2.927
65816W        W30801  24.179  35.202   1.771
65817W        W30802  10.765  28.392  12.647
65818W        W30803  33.189  17.596   1.822
65819W        W30804  28.273   2.476   2.328
65820W        W30805   6.214  20.970   3.065
65821W        W30806  23.319   4.050  11.571
65822W        W30807   0.789  36.882   3.227
65823W        W30808  34.072  25.198  12.491
65824W        W30809  33.486  24.986   0.536
65825W        W30810  28.367  27.699   0.471
65826W        W30811  13.092   9.715  13.409
65827W        W30812  17.589  11.801   1.653
65828W        W30813  12.062  26.999  10.182
65829W        W30814  39.830  31.371   0.281
65830W        W30815  17.798  29.458  12.991
65831W        W30816  34.922   0.842  12.846
65832W        W30817  20.506  40.412  12.879
65833W        W30818  12.846  37.973  11.933
65834W        W30819  27.554  20.320  13.657
65835W        W30820  27.637   3.274   2.354
65836W        W30821  13.905  38.395  13.918
65837W        W30822  38.121   7.370   1.945
65838W        W30823  35.172  10.295   1.704
65839W        W30824  24.992  17.975   4.190
65840W        W30825   9.676  14.722   3.548
65841W        W30826  21.253  20.643   3.326
65842W        W30827  42.411  18.763   5.405
65843W        W30828  13.152  16.727  11.297
65844W        W30829   8.969   4.501  14.504
65845W        W30830  20.839  38.519  11.611
65846W        W30831  27.108   4.512   2.864
65847W        W30832  35.405  16.478   0.363
65848W        W30833  23.172  12.589   4.282
65849W        W30834  41.924  43.521  10.877
65850W        W30835  18.202  33.385   0.044
65851W        W30836   9.168  30.684  11.594
65852W        W30837  20.657  38.023  14.211
65853W        W30838  11.166  29.699  12.987
65854W        W30839  13.360  10.880   4.063
65855W        W30840  24.789  16.636   2.120
65856W        W30841   3.967  17.298  11.616
65857W        W30842  40.612   2.272  12.754
65858W        W30843  22.496  36.402   4.513
65859W        W30844  27.468  26.376  11.997
65860W        W30845  29.411   5.455   2.211
65861W        W30846  22.677  13.053   4.969
65862W        W30847  28.923   6.710  12.181
65863W        W30848  23.497  22.664  14.917
65864W        W30849  34.816  42.716  14.042
65865W        W30850  29.973  41.556  14.257
65866W        W30851   5.670   4.242  13.332
65867W        W30852  35.458   3.853   1.466
65868W        W30853   0.521  38.629   2.732
65869W        W30854  17.572  26.928   5.298
65870W        W30855   2.867  16.251  12.379
65871W        W30856  31.312  22.464   1.813
65872W        W30857   8.441  41.961  13.455
65873W        W30858  21.483  40.605   2.144
65874W        W30859   2.413  26.608  14.867
65875W        W30860  31.911   0.307  13.468
65876W        W30861  42.459  35.862   1.921
65877W        W30862  12.417  27.650   2.712
65878W        W30863   0.033  33.754   3.241
65879W        W30864  29.380   6.705   3.281
65880W        W30865  22.157   4.263   4.639
65881W        W30866  30.500  31.600  13.342
65882W        W30867  36.575  43.865  13.711
65883W        W30868   8.798  17.631  11.112
65884W        W30869  38.970  17.696  12.167
65885W        W30870  40.132   6.192  14.179
65886W        W30871   0.879  30.047   1.903
65887W        W30872  33.599   5.227   3.160
65888W        W30873   3.990  14.120  11.684
65889W        W30874  22.037  30.425   0.978
65890W        W30875   9.170  12.326   3.353
65891W        W30876   0.025  37.582   3.080
65892W        W30877   7.300  34.573   3.202
65893W        W30878   8.035   1.246  14.185
65894W        W30879  42.356   7.288   2.683
65895W        W30880  20.573  22.795  10.737
65896W        W30881  40.523   1.533   3.215
65897W        W30882  14.776  17.085  10.650
65898W        W30883  36.652  39.817  14.254
65899W        W30884  44.992  42.996   1.419
65900W        W30885  37.520  33.989  10.565
65901W        W30886   2.000  32.311  13.320
65902W        W30887  18.042  43.810   2.636
65903W        W30888  28.835   6.858   0.676
65904W        W30889   8.024  21.395  11.032
65905W        W30890  15.026  30.505  11.458
65906W        W30891  23.695  13.564  13.087
65907W        W30892  18.453  22.646   4.112
65908W        W30893  31.521   5.750  13.417
65909W        W30894  16.608  24.744  12.392
65910W        W30895  23.746   8.662  14.863
65911W        W30896   6.894  25.243   0.291
65912W        W30897  33.601   3.457   3.181
65913W        W30898  25.207   8.605   4.109
65914W        W30899  24.331  30.921  14.825
65915W        W30900  38.371  29.916   4.303
65916W        W30901  42.829  27.583  11.611
65917W        W30902  24.386  36.247   1.028
65918W        W30903   5.765   8.353   4.109
65919W        W30904  19.606  20.651   1.070
65920W        W30905   0.333  26.123  10.422
65921W        W30906  27.040  44.521   0.290
65922W        W30907  10.236  33.861  13.972
65923W        W30908  31.381  21.007   0.754
65924W        W30909  37.942  32.078  11.393
65925W        W30910  19.863  27.223   9.738
65926W        W30911  31.306   4.882  11.940
65927W        W30912  29.656  39.789  12.057
65928W        W30913  22.556   5.697   4.646
65929W        W30914   9.246   9.838  14.403
65930W        W30915  22.543  32.456   9.666
65931W        W30916  41.479  34.950   1.191
65932W        W30917   9.146  25.605  12.450
65933W        W30918  39.676   7.319  11.356
65934W        W30919  35.019  42.265  14.956
65935W        W30920  27.958  37.979  14.343
65936W        W30921  32.073  31.390   0.367
65937W        W30922  25.248  36.694  12.043
65938W        W30923  44.793   5.872  11.672
65939W        W30924  19.076  17.743   3.181
65940W        W30925  33.035  44.203  13.426
65941W        W30926  34.610  34.024   2.905
65942W        W30927  32.824  19.948   1.469
65943W        W30928  14.324  29.983   3.785
65944W        W30929  30.712  39.363   0.303
65945W        W30930  25.878   3.447  11.197
65946W        W30931  27.367   8.962  11.061
65947W        W30932  18.882   7.066  12.438
65948W        W30933   1.000  13.584   3.223
65949W        W30934  37.918  30.954   4.499
65950W        W30935  43.758  19.255   3.340
65951W        W30936  36.990  14.905  11.606
65952W        W30937  38.909  39.951   4.783
65953W        W30938  19.806  25.959  11.899
65954W        W30939  32.575  10.900  11.461
65955W        W30940  16.964   7.740  11.630
65956W        W30941  22.719   8.283   0.266
65957W        W30942   5.319  11.583   4.065
65958W        W30943  30.874   9.798   1.730
65959W        W30944   7.398   4.338   0.378
65960W        W30945  15.703   1.418   2.182
65961W        W30946   4.852  15.829  12.116
65962W        W30947   8.709  32.046  12.339
65963W        W30948  20.787   3.462  12.132
65964W        W30949  35.674  12.015   0.998
65965W        W30950  12.106  26.161   0.632
65966W        W30951  14.826  43.927  12.737
65967W        W30952   9.150  13.236  11.620
65968W        W30953  40.108  32.050   2.314
65969W        W30954   7.195  28.975   0.715
65970W        W30955   2.040  18.970   1.967
65971W        W30956  33.093  19.427  12.871
65972W        W30957  13.983  16.274   0.258
65973W        W30958  28.598  43.660   3.567
65974W        W30959  16.769  17.711   0.740
65975W        W30960  43.572  38.497  12.029
65976W        W30961   2.297  13.653   2.376
65977W        W30962  36.715  25.504  10.527
65978W        W30963  35.654   4.914  11.387
65979W        W30964   7.903  41.354   3.285
65980W        W30965  24.546  20.058   3.165
65981W        W30966   9.226  24.818  14.291
65982W        W30967   9.297  20.578   0.766
65983W        W30968  25.596  13.713   4.225
65984W        W30969  35.044  24.765   4.313
65985W        W30970  33.999  26.263   4.362
65986W        W30971  18.065  10.815  13.197
65987W        W30972  32.367  23.225  10.907
65988W        W30973  39.557  20.633  13.406
65989W        W30974  32.455  35.485   2.712
65990W        W30975   5.332  20.239   4.520
65991W        W30976   7.071  33.590   2.946
65992W        W30977  39.937  19.040  11.697
65993W        W30978  31.522   9.308   5.403
65994W        W30979  15.601  16.107   1.916
65995W        W30980  33.479  41.887   3.295
65996W        W30981  17.669  26.530   4.467
65997W        W30982  44.369   8.212  11.419
65998W        W30983  13.299  21.825   0.634
65999W        W30984   3.491  32.560   3.213
66000W        W30985  29.153  31.988  10.416
66001W        W30986  14.585  27.057  10.448
66002W        W30987   3.198  24.628  12.835
66003W        W30988  30.429   0.039  14.360
66004W        W30989  44.665  12.565   1.801
66005W        W30990   3.156  18.023   3.469
66006W        W30991  26.882   8.042  13.447
66007W        W30992  34.261  29.733   2.693
66008W        W30993   3.478   6.767  13.035
66009W        W30994  37.878  21.783   0.799
66010W        W30995   5.698  24.798  13.138
66011W        W30996  17.599   2.860  12.131
66012W        W30997  30.460  27.125  12.715
66013W        W30998  42.802   8.404   3.310
66014W        W30999  21.651  13.313  11.962
66015W        W31000  27.887   1.991  14.282
66016W        W31001   4.195  22.372   0.507
66017W        W31002  26.481  18.278   1.426
66018W        W31003  27.653  12.703  13.440
66019W        W31004  35.446  14.672  12.494
66020W        W31005  23.466  12.649   2.156
66021W        W31006  44.090  38.026   5.050
66022W        W31007  30.950   8.321   1.466
66023W        W31008   5.100  39.949   4.653
66024W        W31009  11.193  30.336   1.262
66025W        W31010  44.521  30.957  12.426
66026W        W31011  29.142  24.125   1.647
66027W        W31012  29.401  44.409   3.799
66028W        W31013  14.547  30.526  13.826
66029W        W31014  10.394  18.008  12.524
66030W        W31015  12.663   5.270   0.313
66031W        W31016  23.462  12.221  14.570
66032W        W31017  37.027  10.623   4.044
66033W        W31018   0.048   5.722  12.074
66034W        W31019  16.454  18.764  10.710
66035W        W31020  28.602  14.527   4.064
66036W        W31021  15.032   7.280   3.227
66037W        W31022  24.694   6.156  14.280
66038W        W31023  31.954  20.565   2.675
66039W        W31024  24.484  40.584   0.460
66040W        W31025  30.611   1.434   3.692
66041W        W31026  13.651  10.817   2.832
66042W        W31027   5.441   1.890  13.120
66043W        W31028  35.556  24.213  13.873
66044W        W31029  13.366   9.332   3.134
66045W        W31030  19.541   1.965   2.344
66046W        W31031   8.269  31.481   0.368
66047W        W31032   4.528  27.271   1.880
66048W        W31033   3.826  21.039   2.380
66049W        W31034  30.507   5.215  14.922
66050W        W31035  26.426  25.560  11.040
66051W        W31036  44.249  37.292  13.372
66052W        W31037   0.756  11.734   1.923
66053W        W31038  36.040  19.172   4.430
66054W        W31039   1.232  32.740  11.585
66055W        W31040  14.076  34.083   0.459
66056W        W31041  18.209  16.548   3.320
66057W        W31042  35.712  21.956   4.563
66058W        W31043  10.035  29.345   0.381
66059W        W31044   4.797  34.550   1.231
66060W        W31045  44.412  25.229  14.019
66061W        W31046  37.871   7.800   4.479
66062W        W31047  21.705  40.626   3.114
66063W        W31048  26.938  44.123   3.582
66064W        W31049  27.679  25.269   4.107
66065W        W31050  40.198  30.011   4.623
66066W        W31051   3.639  29.498  12.055
66067W        W31052  42.292  17.460  13.162
66068W        W31053  32.322  38.952  13.515
66069W        W31054   3.729  41.773   3.793
66070W        W31055  30.089  33.791   2.911
66071W        W31056  13.041  13.301   2.331
66072W        W31057  38.114  28.420   1.486
66073W        W31058   0.543   2.666  13.333
66074W        W31059  32.325  13.391  14.584
66075W        W31060   7.830  32.494   3.715
66076W        W31061  35.143  21.575   2.394
66077W        W31062   5.792  39.512   2.892
66078W        W31063  27.467  42.611  12.943
66079W        W31064  40.942  14.189  10.598
66080W        W31065  33.067  15.631  13.042
66081W        W31066   0.481  26.054  13.325
66082W        W31067  22.206  27.510  10.704
66083W        W31068  40.320  11.744   2.424
66084W        W31069  30.749  18.796   1.147
66085W        W31070  25.428  18.634   2.007
66086W        W31071  17.826  20.730  12.743
66087W        W31072  35.147  13.283  10.129
66088W        W31073  41.525  11.874   1.907
66089W        W31074  11.194  10.141   3.247
66090W        W31075  12.658   5.235   2.319
66091W        W31076  29.447  28.465  12.148
66092W        W31077  29.658   2.654   0.861
66093W        W31078  37.898   2.762   4.234
66094W        W31079   2.511  13.644   3.249
66095W        W31080  30.815  28.241   3.246
66096W        W31081  26.044   6.273  13.524
66097W        W31082   5.897  22.745   0.308
66098W        W31083  41.955  25.541  14.320
66099W        W31084  32.525  12.156   2.386
66100W        W31085  28.848  44.748  12.505
66101W        W31086  27.184  31.529  13.839
66102W        W31087  26.255  40.383   0.053
66103W        W31088  12.088  21.417   4.389
66104W        W31089  40.257  18.245  12.320
66105W        W31090  32.047  36.009  13.997
66106W        W31091  13.449   5.246   9.859
66107W        W31092   4.613  33.716   1.248
66108W        W31093   2.772  25.625   0.564
66109W        W31094  30.145   6.460   0.637
66110W        W31095   5.265  15.045  10.621
66111W        W31096   4.653  33.144  10.196
66112W        W31097  37.104   1.694  11.515
66113W        W31098  39.884  10.239   3.273
66114W        W31099  11.074  41.586  13.120
66115W        W31100  25.447  27.878   2.681
66116W        W31101  42.882   7.883   2.405
66117W        W31102  28.738   7.313  12.941
66118W        W31103  10.609  40.975   3.999
66119W        W31104  18.716  28.621   4.644
66120W        W31105  42.336  32.716  12.960
66121W        W31106   0.484  10.857   2.099
66122W        W31107  27.047   4.705   2.058
66123W        W31108  42.276  36.047  12.976
66124W        W31109  11.803  12.940   1.751
66125W        W31110  29.741  31.942   0.553
66126W        W31111  19.718  40.487   4.230
66127W        W31112   4.918   8.732   2.462
66128W        W31113  24.054  25.725  14.047
66129W        W31114   2.718  31.140  12.919
66130W        W31115  33.000  42.473   2.344
66131W        W31116  11.725  33.562   3.954
66132W        W31117  17.076  33.356   2.734
66133W        W31118  13.079   2.356  13.324
66134W        W31119  38.987  22.506   2.132
66135W        W31120  26.580   9.708  12.249
66136W        W31121  31.036  39.744  14.421
66137W        W31122  12.198  31.004   4.458
66138W        W31123  16.580  25.463   3.741
66139W        W31124  38.462  43.479  12.334
66140W        W31125  32.872  23.868   1.488
66141W        W31126   5.272   4.679   0.170
66142W        W31127  36.546   8.103   3.807
66143W        W31128  39.080  34.916   1.901
66144W        W31129  20.280  34.978   4.105
66145W        W31130   7.741   5.431  13.243
66146W        W31131  34.766  17.124   4.514
66147W        W31132  22.474  37.476   2.194
66148W        W31133  39.784   7.656   1.772
66149W        W31134  30.992  26.017   1.789
66150W        W31135  24.657  27.559  12.145
66151W        W31136  40.441   2.223  13.773
66152W        W31137  13.685   3.589  14.499
66153W        W31138   8.464  41.930  10.395
66154W        W31139  31.037  42.376   4.110
66155W        W31140  23.503  27.558   0.291
66156W        W31141  14.703  35.468  13.432
66157W        W31142   8.428  36.403   0.284
66158W        W31143  20.456  31.058  13.190
66159W        W31144   4.156  13.603  14.883
66160W        W31145   0.766  26.659  13.347
66161W        W31146   6.285  24.448  14.435
66162W        W31147  37.755  36.488   2.186
66163W        W31148  27.982  39.708  12.889
66164W        W31149  36.216  43.860   4.059
66165W        W31150  12.927  15.443   1.310
66166W        W31151  16.255  17.919  13.281
66167W        W31152  35.911  33.255   5.061
66168W        W31153   7.907   9.780  13.924
66169W        W31154  35.710  26.626  14.914
66170W        W31155  20.559  39.040  10.514
66171W        W31156   3.705   5.686  13.486
66172W        W31157  34.450   4.702   1.010
66173W        W31158  44.484  20.498  14.554
66174W        W31159  29.570  10.358   3.066
66175W        W31160   4.593  35.527   1.338
66176W        W31161  20.915  44.729  13.830
66177W        W31162   0.448  41.517   3.240
66178W        W31163  31.048  33.869  11.233
66179W        W31164  13.203  44.005  11.468
66180W        W31165  21.723  26.591  11.246
66181W        W31166  10.895  36.421  14.360
66182W        W31167  34.343  35.045  12.522
66183W        W31168  26.159  43.268   1.713
66184W        W31169  19.684  10.165  11.672
66185W        W31170  10.108  24.750  10.300
66186W        W31171  30.354  43.239   3.017
66187W        W31172  39.348  16.693   0.835
66188W        W31173  36.025  19.176   4.946
66189W        W31174  26.735  25.065   1.291
66190W        W31175  18.684  41.973   3.521
66191W        W31176  17.686  30.659  14.531
66192W        W31177   1.416  27.881  14.536
66193W        W31178  30.229  13.618   1.411
66194W        W31179   7.262  36.493   0.211
66195W        W31180  13.986  29.829  13.360
66196W        W31181  15.356  15.741  13.483
66197W        W31182  12.344  22.533   0.412
66198W        W31183  23.155   6.147   0.095
66199W        W31184  34.617   5.788   4.195
66200W        W31185  26.001  30.937   4.015
66201W        W31186  27.517  20.495   2.732
66202W        W31187  18.707  21.958  13.519
66203W        W31188  22.656   1.328  14.419
66204W        W31189  29.103  25.265   3.274
66205W        W31190  23.665  22.643  14.010
66206W        W31191  30.040  17.230  13.533
66207W        W31192  27.597  14.895  12.676
66208W        W31193  30.449  19.156  12.479
66209W        W31194  39.160  18.874   3.746
66210W        W31195  16.239  21.012  11.045
66211W        W31196   0.576  35.956   5.019
66212W        W31197  39.935  30.858   0.351
66213W        W31198  38.817   0.223   1.414
66214W        W31199  16.681  43.864  12.621
66215W        W31200  16.915  16.792   2.142
66216W        W31201  14.755  13.235   4.939
66217W        W31202  19.336  12.101  14.921
66218W        W31203  23.798  17.635  13.658
66219W        W31204  18.320  33.013  10.728
66220W        W31205  23.022   5.290  12.359
66221W        W31206  23.958  29.407   0.414
66222W        W31207   2.858  36.527  13.311
66223W        W31208  30.468  39.928   0.433
66224W        W31209  31.647   3.457  11.062
66225W        W31210  22.235  23.204  12.575
66226W        W31211  42.483  14.633   1.957
66227W        W31212  26.671   5.411  10.913
66228W        W31213  24.597  20.830   0.207
66229W        W31214  37.432  31.997  13.150
66230W        W31215  13.556   9.859   2.203
66231W        W31216  42.688  34.444  13.570
66232W        W31217  34.984  32.320   4.782
66233W        W31218   7.321   0.600  11.083
66234W        W31219  38.002   3.157  14.748
66235W        W31220  21.418  12.739   1.395
66236W        W31221   8.711  13.323   1.836
66237W        W31222  19.726  38.862  14.451
66238W        W31223  43.530   0.847  12.579
66239W        W31224   6.168   6.267   1.295
66240W        W31225  38.471   7.648   1.148
66241W        W31226  13.368  14.081  10.652
66242W        W31227   6.420  25.201  13.911
66243W        W31228   9.603   8.539   2.433
66244W        W31229  14.313  28.223  12.900
66245W        W31230   7.770   5.918  13.417
66246W        W31231   4.430  27.423  14.541
66247W        W31232  14.515  34.368  11.427
66248W        W31233   5.033  16.031  14.055
66249W        W31234  37.242   7.769  10.460
66250W        W31235  13.905  37.054   2.698
66251W        W31236  44.217  23.063  11.518
66252W        W31237  29.510  19.071  12.428
66253W        W31238  27.149  24.437   2.692
66254W        W31239   7.314  31.358   1.974
66255W        W31240  39.330  20.814   0.345
66256W        W31241  41.780  27.181   1.804
66257W        W31242  22.028  34.414   4.935
66258W        W31243   7.667  33.436  10.594
66259W        W31244  12.757   9.800  12.438
66260W        W31245  36.757  12.120   2.688
66261W        W31246   2.383  16.350  14.652
66262W        W31247  30.949  37.485  14.959
66263W        W31248   2.396   6.473   2.284
66264W        W31249  40.945  38.355   2.800
66265W        W31250  38.051  16.682  12.307
66266W        W31251  10.819  28.453  12.145
66267W        W31252   6.417  17.686   2.374
66268W        W31253  19.197  16.676  14.754
66269W        W31254   2.174  11.945  14.503
66270W        W31255  27.011   6.355  13.682
66271W        W31256  35.645   7.662  11.257
66272W        W31257  27.311  41.906  14.076
66273W        W31258  27.951  29.416   4.108
66274W        W31259   1.666  33.879  11.515
66275W        W31260   9.627  34.804  13.383
66276W        W31261  40.928  23.061   0.719
66277W        W31262   1.932  28.736   4.575
66278W        W31263  42.468   3.544  11.650
66279W        W31264  35.432  24.624   0.425
66280W        W31265  31.092  16.597   3.892
66281W        W31266  23.121  33.150  14.266
66282W        W31267  20.662  27.486  14.956
66283W        W31268   9.196   4.442  12.187
66284W        W31269  10.196  18.136  10.850
66285W        W31270  21.591   0.297   4.571
66286W        W31271  38.770  10.681  13.907
66287W        W31272  37.797   8.949   2.773
66288W        W31273   7.789  20.330  12.484
66289W        W31274  29.176  32.573  12.755
66290W        W31275  27.753  25.951  11.121
66291W        W31276  25.090  15.754  11.997
66292W        W31277  14.377  19.835  11.053
66293W        W31278  26.176   6.786  14.826
66294W        W31279  18.220  19.519  14.037
66295W        W31280   4.720  30.033   0.442
66296W        W31281  10.096   9.339   2.232
66297W        W31282  40.011   8.288  13.282
66298W        W31283  30.370  19.218  10.941
66299W        W31284  37.597  12.585  13.381
66300W        W31285  35.945  12.648  11.871
66301W        W31286  17.097  30.712   0.328
66302W        W31287  38.359  25.793   2.679
66303W        W31288  14.130  40.080  11.206
66304W        W31289   6.824  41.565   1.862
66305W        W31290  31.955  13.855   0.762
66306W        W31291  16.345   0.906   1.808
66307W        W31292  22.746   8.190   2.676
66308W        W31293  22.622  31.527  10.994
66309W        W31294  26.856  11.146  10.318
66310W        W31295  34.316  17.898   4.164
66311W        W31296  10.824   1.605  10.683
66312W        W31297  31.986   7.221   0.505
66313W        W31298  18.174  15.166   0.926
66314W        W31299  41.072  12.312  11.890
66315W        W31300  13.158   4.435  12.554
66316W        W31301  37.044  15.682  14.421
66317W        W31302  12.891  35.005   1.740
66318W        W31303  43.061  42.027   4.549
66319W        W31304  16.736  33.839   3.702
66320W        W31305  33.336   6.340   4.466
66321W        W31306  12.821   8.320  13.861
66322W        W31307  14.298   9.207   0.173
66323W        W31308  37.337  16.898  14.052
66324W        W31309  34.810  30.462  12.426
66325W        W31310  27.345   8.883  13.805
66326W        W31311  44.471  44.898  12.163
66327W        W31312  36.516  34.340  12.997
66328W        W31313  40.773  28.644   2.253
66329W        W31314  26.517  23.383   3.240
66330W        W31315  15.778  12.036   0.699
66331W        W31316  19.786   0.234   2.744
66332W        W31317  17.156  43.399   3.178
66333W        W31318  29.725   9.216   2.766
66334W        W31319   3.799  11.797   4.674
66335W        W31320  15.062   2.519   1.764
66336W        W31321   7.452  20.131  13.565
66337W        W31322  38.482  21.174   1.898
66338W        W31323  18.842  20.806   1.755
66339W        W31324  19.847  17.553   4.908
66340W        W31325  37.086   2.306   0.363
66341W        W31326  42.576  25.059   0.457
66342W        W31327   2.839   8.696   3.844
66343W        W31328   0.775  21.735  11.180
66344W        W31329  44.523  20.291  13.114
66345W        W31330  38.244   1.050  12.547
66346W        W31331  25.514  23.466  11.121
66347W        W31332  28.939  42.578   4.063
66348W        W31333  27.659  25.676   4.605
66349W        W31334  38.913  10.811   4.985
66350W        W31335   9.278  37.454  13.030
66351W        W31336  42.370  15.715  10.294
66352W        W31337  32.646  32.624  12.880
66353W        W31338   5.930  25.440   4.678
66354W        W31339  43.433  11.313   3.745
66355W        W31340  11.439  24.529  13.088
66356W        W31341  22.463  25.972  14.320
66357W        W31342  27.064  37.195   2.670
66358W        W31343  35.965  12.598   0.268
66359W        W31344  30.651   8.424  10.769
66360W        W31345  43.381  11.800   0.332
66361W        W31346  28.883  32.528   1.561
66362W        W31347   6.865  32.469   1.694
66363W        W31348  22.981   5.507   1.291
66364W        W31349  43.735   2.294  11.378
66365W        W31350  33.475  14.193  11.256
66366W        W31351  30.590   2.004   4.319
66367W        W31352  17.176  33.538  14.767
66368W        W31353   6.088  24.008  11.919
66369W        W31354   5.929   0.958  14.788
66370W        W31355  31.334  30.613   1.738
66371W        W31356  20.171  15.542   3.888
66372W        W31357  13.116  27.746   1.127
66373W        W31358  38.472   0.798  10.780
66374W        W31359   9.331  39.623   0.496
66375W        W31360  23.579  33.120   3.832
66376W        W31361  16.066  43.876   4.191
66377W        W31362  12.571  38.169  11.149
66378W        W31363  18.803   3.700  13.410
66379W        W31364  37.772  34.001   0.865
66380W        W31365  44.909  25.080   5.069
66381W        W31366  40.370  40.794   0.906
66382W        W31367  17.344  26.161  11.653
66383W        W31368  18.354  22.979   1.894
66384W        W31369   1.517  29.094  12.936
66385W        W31370  14.815  36.417   0.953
66386W        W31371  13.223  23.668   2.696
66387W        W31372  26.414  32.031   0.002
66388W        W31373  18.832  29.180  12.429
66389W        W31374   5.852  12.165  13.486
66390W        W31375   0.484   0.936   3.003
66391W        W31376  35.012  42.232  14.017
66392W        W31377  14.728  28.272  14.382
66393W        W31378  36.493  17.015   0.284
66394W        W31379  26.777  39.419   2.351
66395W        W31380   5.168  19.055   2.264
66396W        W31381  18.971  36.959  11.193
66397W        W31382  19.703  40.045  14.833
66398W        W31383  31.837  25.185  14.966
66399W        W31384  35.478   9.350   2.462
66400W        W31385  14.148   8.568   3.415
66401W        W31386  16.781  38.108   1.028
66402W        W31387  32.065  42.074   2.159
66403W        W31388  26.995  10.565  12.793
66404W        W31389  25.631  22.833  12.854
66405W        W31390  28.637  24.083   3.600
66406W        W31391  35.898  39.319  11.887
66407W        W31392  20.204   5.715   0.792
66408W        W31393   2.227  22.610   1.222
66409W        W31394  14.169  27.164   4.065
66410W        W31395   2.233   0.490  10.441
66411W        W31396   7.672  34.469  13.067
66412W        W31397  18.967  40.015  11.339
66413W        W31398  37.946  25.300  10.312
66414W        W31399  10.246  10.649  12.168
66415W        W31400  22.563  20.080   2.906
66416W        W31401  23.078   7.546  13.353
66417W        W31402  40.446  44.354   0.205
66418W        W31403  23.157   0.716  12.403
66419W        W31404  30.285   3.186  13.524
66420W        W31405  27.076  39.069   2.121
66421W        W31406   4.747  11.438   4.208
66422W        W31407  25.946  11.258   2.792
66423W        W31408  22.354  16.328   1.867
66424W        W31409  37.903   8.342  14.797
66425W        W31410  21.983  22.197  11.623
66426W        W31411  29.135  35.403   1.306
66427W        W31412  23.964   6.740   1.412
66428W        W31413  40.464  44.044   3.268
66429W        W31414  27.911  22.544   0.300
66430W        W31415   4.864  11.104   2.018
66431W        W31416  15.773  25.389  10.084
66432W        W31417  18.111  39.306   3.985
66433W        W31418  35.514  14.296   2.290
66434W        W31419  13.445   4.000  11.464
66435W        W31420  12.379  13.097   3.683
66436W        W31421  33.501  26.558  11.506
66437W        W31422  22.041  30.708  11.085
66438W        W31423   0.809  35.503   4.876
66439W        W31424   9.430  12.312  14.453
66440W        W31425  25.675  40.574   0.880
66441W        W31426   8.367  18.334   1.591
66442W        W31427  41.766  14.660  13.660
66443W        W31428  14.137  10.191   1.185
66444W        W31429  36.636   4.979  14.288
66445W        W31430  31.757  18.001  14.752
66446W        W31431   6.337   5.508   1.751
66447W        W31432  14.920  37.945   2.662
66448W        W31433  41.368  25.536  13.209
66449W        W31434   3.728   2.428   0.371
66450W        W31435  19.613  31.636  12.798
66451W        W31436  25.713  37.296  10.138
66452W        W31437   4.283  41.458   2.801
66453W        W31438  27.503   8.452   4.399
66454W        W31439  24.453  33.900   2.784
66455W        W31440  20.094   9.706   2.820
66456W        W31441   3.446  11.349   2.103
66457W        W31442  40.602   2.968   2.284
66458W        W31443  34.627  36.891  11.993
66459W        W31444   0.485  11.672   0.277
66460W        W31445   7.962  17.742   0.892
66461W        W31446  41.060   3.048  13.910
66462W        W31447  19.630  15.563  12.514
66463W        W31448   9.726   7.898   4.577
66464W        W31449   9.241  26.270   0.461
66465W        W31450  44.576  34.513   2.297
66466W        W31451   4.461  23.975  10.752
66467W        W31452  25.541   0.162  11.995
66468W        W31453  36.980  31.908   2.756
66469W        W31454   0.424  27.051  14.483
66470W        W31455  25.648   6.070   1.330
66471W        W31456  15.229   0.532  12.064
66472W        W31457   4.845  38.702   0.737
66473W        W31458   8.394   3.872   0.818
66474W        W31459  19.874  13.100   1.307
66475W        W31460   4.300   9.231   0.748
66476W        W31461  18.099  29.908  13.986
66477W        W31462  26.996  43.004   3.305
66478W        W31463   7.957  39.799   3.307
66479W        W31464  40.898  23.938   4.628
66480W        W31465  22.670  14.252  10.749
66481W        W31466  25.977  27.943  11.035
66482W        W31467  33.483  15.077   4.633
66483W        W31468  23.084  33.203   3.603
66484W        W31469  34.577  26.822  14.884
66485W        W31470  13.868  22.156  10.582
66486W        W31471  20.464   3.968  10.612
66487W        W31472  44.825  35.372   3.887
66488W        W31473  26.603  35.527   3.329
66489W        W31474   0.012  28.455  10.757
66490W        W31475  34.040   3.494  13.116
66491W        W31476  27.504   0.362  12.429
66492W        W31477  33.403   7.005  11.340
66493W        W31478  27.518   7.483   2.777
66494W        W31479  33.509  37.062   4.863
66495W        W31480  41.254  34.047  12.035
66496W        W31481  30.962  44.861   0.914
66497W        W31482  14.984  41.453  14.075
66498W        W31483  37.553  13.547   1.222
66499W        W31484  38.349   9.646   2.172
66500W        W31485  13.485  24.020  14.896
66501W        W31486  22.544  30.439  12.856
66502W        W31487  32.140  30.890   0.522
66503W        W31488   9.401  40.833  10.974
66504W        W31489  38.257  33.553  10.390
66505W        W31490   5.269  12.382   3.332
66506W        W31491  12.763   7.087   1.720
66507W        W31492  25.712  34.152   3.328
66508W        W31493  15.797   9.383  13.893
66509W        W31494  38.976  33.469   1.385
66510W        W31495   6.278   9.628  11.677
66511W        W31496   4.777  10.341  14.330
66512W        W31497  25.089  19.020   4.437
66513W        W31498  33.435  30.887  10.459
66514W        W31499  28.658  32.213   1.899
66515W        W31500  21.064  35.988   3.807
66516W        W31501  18.090   1.932   2.813
66517W        W31502  37.819   7.338   4.677
66518W        W31503  39.135   4.144  10.999
66519W        W31504  18.525  26.046  13.563
66520W        W31505   9.430   9.128  13.045
66521W        W31506  37.924  40.086   3.821
66522W        W31507  35.627   5.755   0.843
66523W        W31508   9.338  29.079  14.831
66524W        W31509   4.413   3.404  11.536
66525W        W31510  40.123  33.041   5.133
66526W        W31511  27.882  14.049   2.703
66527W        W31512   5.353  20.780   3.615
66528W        W31513  21.494   3.769   4.441
66529W        W31514  13.073  18.519  12.994
66530W        W31515  33.708  14.145   0.474
66531W        W31516  12.230   8.455   4.453
66532W        W31517  44.742  17.337   2.379
66533W        W31518  25.211  35.427   4.732
66534W        W31519  25.376  26.456   2.721
66535W        W31520  25.595  34.066   1.906
66536W        W31521  31.535  28.223  13.884
66537W        W31522  42.747  38.925  11.905
66538W        W31523  29.015  24.998  14.808
66539W        W31524  30.919  28.803  12.597
66540W        W31525  30.045  18.940  12.762
66541W        W31526   7.826  25.615   4.166
66542W        W31527   1.445  22.046   0.295
66543W        W31528  43.008  16.782   1.921
66544W        W31529   6.278  35.116  14.950
66545W        W31530  25.256  23.563   4.558
66546W        W31531  20.525  11.832  10.525
66547W        W31532  16.051  28.112  11.290
66548W        W31533  28.417   8.352  14.340
66549W        W31534   2.446   7.762   2.426
66550W        W31535  36.097  15.147   4.620
66551W        W31536   8.022   9.294   2.600
66552W        W31537  38.855  34.915  12.489
66553W        W31538  42.886  22.427   3.773
66554W        W31539  34.452  16.758   1.229
66555W        W31540  27.640  25.665  14.300
66556W        W31541   1.362  36.323  13.342
66557W        W31542  31.585   7.893  13.984
66558W        W31543  33.483   0.588   4.568
66559W        W31544   5.284   8.980   3.163
66560W        W31545  42.171  24.348   4.067
66561W        W31546   4.367  32.277   1.265
66562W        W31547   2.664   4.633   2.329
66563W        W31548  41.985   1.210  14.567
66564W        W31549  41.493  12.404   0.394
66565W        W31550   7.656   5.937   3.610
66566W        W31551  18.626   6.480  14.786
66567W        W31552   3.822   6.342  10.668
66568W        W31553   3.031   0.879  10.790
66569W        W31554   9.885  43.920   1.874
66570W        W31555  17.356  15.377  11.911
66571W        W31556   7.181  37.412   4.505
66572W        W31557   6.654  13.104   2.706
66573W        W31558  30.927  44.727   3.795
66574W        W31559  21.684  14.248  12.034
66575W        W31560   9.903  11.434   2.809
66576W        W31561  44.753  14.328  14.496
66577W        W31562  12.389  44.706   0.522
66578W        W31563  35.127  35.434  14.298
66579W        W31564  15.553  42.461  11.597
66580W        W31565  41.528  41.308  12.508
66581W        W31566  33.145  40.278  11.554
66582W        W31567   7.252  12.884  12.386
66583W        W31568  10.206  31.205   0.004
66584W        W31569  39.003  12.745   2.832
66585W        W31570  36.907  19.142   3.758
66586W        W31571   1.955  21.675  11.895
66587W        W31572  27.983  21.552  12.512
66588W        W31573  24.016  41.259   3.322
66589W        W31574   0.598   9.935  13.896
66590W        W31575   8.350   2.605   4.167
66591W        W31576  24.247   6.429   2.343
66592W        W31577  42.770  15.645  11.693
66593W        W31578  42.439  29.484   4.748
66594W        W31579  29.972   3.388  10.400
66595W        W31580  35.558  10.933   0.222
66596W        W31581  43.284  14.378   4.611
66597W        W31582  27.933   9.670  12.971
66598W        W31583  33.096   7.852   1.851
66599W        W31584  31.645  16.354  12.273
66600W        W31585  31.923  22.139   3.590
66601W        W31586  44.881  39.097  11.154
66602W        W31587  24.022  30.271  10.913
66603W        W31588  28.435  12.355  10.320
66604W        W31589  30.634   3.084  10.063
66605W        W31590   7.788   2.060  14.488
66606W        W31591  12.217  33.104   0.369
66607W        W31592   9.932  19.159  14.482
66608W        W31593  20.668   5.915  14.072
66609W        W31594  20.628  18.752  12.468
66610W        W31595   5.413  34.950  10.846
66611W        W31596  42.709   2.833  12.592
66612W        W31597  20.661  43.350  11.629
66613W        W31598  40.030   4.768   2.291
66614W        W31599   4.438   7.036   1.939
66615W        W31600  12.288  11.700  12.086
66616W        W31601   9.653  17.537   2.187
66617W        W31602   0.920   2.964  14.943
66618W        W31603  15.174   9.407   3.564
66619W        W31604  15.056   5.381  13.417
66620W        W31605  27.494  26.104  11.539
66621W        W31606  24.655  23.621  13.452
66622W        W31607  11.536  17.419  12.374
66623W        W31608  22.227   8.769  13.552
66624W        W31609  13.107  37.763   1.704
66625W        W31610  19.335   7.860   0.740
66626W        W31611  26.559  38.106  12.856
66627W        W31612  42.807  32.679  11.160
66628W        W31613  32.960  44.962   1.021
66629W        W31614   4.922  35.988  14.687
66630W        W31615   2.611  23.992  10.451
66631W        W31616  42.773  12.064   0.205
66632W        W31617  18.129  21.345   4.101
66633W        W31618  14.579  41.382   1.259
66634W        W31619  22.726  12.797   4.518
66635W        W31620  22.184  11.606  11.595
66636W        W31621  28.082  39.492  11.996
66637W        W31622  24.226   6.251  11.919
66638W        W31623  37.536  35.895   0.469
66639W        W31624  16.644  36.485  12.200
66640W        W31625  26.262  39.286   2.323
66641W        W31626   1.902  19.250   3.747
66642W        W31627  41.311   5.765  14.823
66643W        W31628  13.827  22.927  12.353
66644W        W31629  17.728  28.099   2.297
66645W        W31630  28.177  37.112  13.883
66646W        W31631  41.461  44.659  11.625
66647W        W31632  32.515   7.121   1.355
66648W        W31633  11.712  34.872  11.364
66649W        W31634   1.375  41.768  12.631
66650W        W31635   6.690  14.818  12.153
66651W        W31636  14.525  28.133   3.527
66652W        W31637  34.625  38.043  11.135
66653W        W31638   2.892  44.057   3.638
66654W        W31639  33.622  40.350  13.004
66655W        W31640  42.000  14.038   0.961
66656W        W31641   3.352  15.064  13.534
66657W        W31642  25.473  36.148   1.822
66658W        W31643  21.465  22.501  12.562
66659W        W31644  28.704  37.435  14.508
66660W        W31645   9.852  43.614  14.326
66661W        W31646  29.981  21.474   4.318
66662W        W31647  21.702   1.946   3.711
66663W        W31648  18.659  12.610  11.598
66664W        W31649  44.973  22.718   0.460
66665W        W31650  20.480   4.361   0.408
66666W        W31651  22.183  17.004  13.712
66667W        W31652   9.313  19.293  14.221
66668W        W31653   7.591  21.147  10.878
66669W        W31654  16.293  36.100   3.225
66670W        W31655  12.371   4.421   1.347
66671W        W31656  10.766  19.708  12.509
66672W        W31657   1.816  30.696   1.315
66673W        W31658  19.680  24.194   4.163
66674W        W31659  42.470  37.902  10.768
66675W        W31660  19.844   5.378   0.966
66676W        W31661  15.449  11.508  13.300
66677W        W31662   3.811  37.313  13.488
66678W        W31663  15.255  32.231   4.098
66679W        W31664  25.144  16.027  11.197
66680W        W31665  41.485   3.351  13.946
66681W        W31666  11.575  24.020  12.483
66682W        W31667   4.335  29.541   4.560
66683W        W31668  25.576   7.340  10.637
66684W        W31669   2.287   7.675   3.342
66685W        W31670  31.710  17.553   1.655
66686W        W31671  23.790  18.710  11.603
66687W        W31672  42.002  39.478   4.788
66688W        W31673   9.644  31.548   2.464
66689W        W31674   9.739  44.985   4.703
66690W        W31675  23.295  25.274   0.225
66691W        W31676  29.512   1.300  12.517
66692W        W31677  39.782  11.767  14.232
66693W        W31678  26.932  32.845   3.905
66694W        W31679  30.910  34.734  12.872
66695W        W31680  16.006   5.139   1.827
66696W        W31681   3.360  23.246   1.831
66697W        W31682  39.331  41.323  10.566
66698W        W31683  36.870   6.197   0.704
66699W        W31684  44.477  43.955  14.936
66700W        W31685   4.688  26.925  12.450
66701W        W31686  14.217  32.414  13.108
66702W        W31687  35.400  29.843  11.688
66703W        W31688  22.083   1.823  14.799
66704W        W31689  31.065  10.326   4.678
66705W        W31690   3.656   2.000   4.154
66706W        W31691  42.501   9.251   3.457
66707W        W31692  31.565   3.338   0.386
66708W        W31693   8.570  20.655  13.530
66709W        W31694  40.912  22.154   2.350
66710W        W31695   8.962  34.315   1.693
66711W        W31696  25.558  41.413   2.704
66712W        W31697  22.633   3.196   4.129
66713W        W31698   5.767   7.391  11.663
66714W        W31699  23.672   0.720   0.508
66715W        W31700  23.075  33.219  10.554
66716W        W31701  38.439  31.085  12.689
66717W        W31702   2.638  41.008  14.816
66718W        W31703  28.062  20.017  11.114
66719W        W31704  28.676  27.680  14.964
66720W        W31705  43.301  10.623  14.525
66721W        W31706  37.868  29.854  12.947
66722W        W31707  12.893   7.274   3.783
66723W        W31708  31.622   4.552  14.062
66724W        W31709   5.607  17.635   1.709
66725W        W31710  35.410   5.531   3.232
66726W        W31711  26.071  17.711  11.044
66727W        W31712   5.852  37.408  12.373
66728W        W31713  28.255  28.599   0.287
66729W        W31714  27.910  17.523  12.816
66730W        W31715  38.048   5.323   4.944
66731W        W31716  29.685  38.828  13.620
66732W        W31717  14.206  23.464  11.578
66733W        W31718  23.204  34.180  14.322
66734W        W31719   8.181  14.674   3.066
66735W        W31720  22.500   3.422   0.248
66736W        W31721  37.455  34.894  12.677
66737W        W31722  25.431  29.075  13.598
66738W        W31723   2.988   2.263   4.947
66739W        W31724  38.609  28.347   1.399
66740W        W31725  17.467  30.082   1.037
66741W        W31726  38.384  38.110  10.701
66742W        W31727   2.780  38.409   2.922
66743W        W31728   6.857  14.867   1.800
66744W        W31729   3.237  22.741   3.776
66745W        W31730  40.659  39.676  11.580
66746W        W31731  10.261   2.139   9.831
66747W        W31732   5.883  12.378  14.510
66748W        W31733  14.366  20.151   3.051
66749W        W31734  43.865  20.466  14.382
66750W        W31735  15.627  29.152   0.357
66751W        W31736   7.156   2.695  14.967
66752W        W31737   0.432  34.595  11.522
66753W        W31738  35.484   6.949   4.482
66754W        W31739  16.559  11.239  14.387
66755W        W31740  37.764  28.878  10.285
66756W        W31741   6.656   7.261   2.229
66757W        W31742  30.912  40.794  13.554
66758W        W31743  40.553  29.566   0.769
66759W        W31744  25.231  26.629  10.276
66760W        W31745   5.796  28.179  14.724
66761W        W31746  20.577  19.110   1.572
66762W        W31747  44.779  13.852   2.265
66763W        W31748  27.836  33.169   3.766
66764W        W31749  22.655  12.193  13.601
66765W        W31750  26.520  10.423  13.400
66766W        W31751   0.794   4.247   2.213
66767W        W31752  19.295  37.985  12.077
66768W        W31753  13.253  40.726  13.609
66769W        W31754   7.580   8.931   2.825
66770W        W31755  35.772  34.417   0.990
66771W        W31756   3.234  29.184   3.082
66772W        W31757  26.070  21.100  13.788
66773W        W31758   6.163  13.746  12.628
66774W        W31759  32.303  16.483  13.377
66775W        W31760  16.689  10.713   3.542
66776W        W31761  28.238  17.764  12.416
66777W        W31762  34.949  40.878  14.371
66778W        W31763  30.631  17.573   3.089
66779W        W31764  32.841   6.342   5.223
66780W        W31765  21.565  44.783  11.131
66781W        W31766  43.808  23.997   4.308
66782W        W31767  29.146   0.547   0.364
66783W        W31768  34.069  11.424   2.799
66784W        W31769  14.441  30.913  12.566
66785W        W31770  21.835  30.248  10.757
66786W        W31771  27.216  10.214   0.786
66787W        W31772   8.733   3.323   3.335
66788W        W31773  42.262  11.540  12.979
66789W        W31774  37.832  31.880   2.291
66790W        W31775   6.973  40.969  11.525
66791W        W31776  29.109  19.939  11.668
66792W        W31777  18.654  17.793  13.396
66793W        W31778   5.645  28.596  11.049
66794W        W31779   4.733   8.796  14.176
66795W        W31780  26.334   6.047   5.040
66796W        W31781  17.661  29.238   4.454
66797W        W31782  12.186  10.055  14.356
66798W        W31783  43.948  39.404   3.231
66799W        W31784  14.791  27.545   0.434
66800W        W31785  41.688  12.804  11.853
66801W        W31786   0.277   8.621  11.107
66802W        W31787   8.456  16.268  10.575
66803W        W31788  18.774  25.587  14.541
66804W        W31789  24.085  35.657   4.269
66805W        W31790  37.245  27.680   0.276
66806W        W31791  41.949   6.286   0.297
66807W        W31792  21.675  26.933   3.555
66808W        W31793  35.628   0.637  11.922
66809W        W31794  12.361  35.324   2.308
66810W        W31795  37.090  16.253  11.912
66811W        W31796  38.989  39.831   2.842
66812W        W31797  23.995  31.904  13.184
66813W        W31798  34.928  18.690   4.099
66814W        W31799  21.878  18.552  11.646
66815W        W31800  42.829  15.234   2.605
66816W        W31801  26.929  22.817  12.098
66817W        W31802  18.332   9.863   0.790
66818W        W31803  34.106  19.179  14.937
66819W        W31804   9.791  41.954   0.362
66820W        W31805  10.553   3.817   0.450
66821W        W31806  16.822   1.271   0.038
66822W        W31807  22.655  17.125  14.461
66823W        W31808   1.865   3.424   2.905
66824W        W31809  20.619   9.309   1.733
66825W        W31810  38.774  17.872   4.847
66826W        W31811  10.857  10.751  13.294
66827W        W31812  34.400  24.816  12.414
66828W        W31813   0.359   0.311  11.691
66829W        W31814  40.875   1.484   1.964
66830W        W31815  20.351  42.010   1.654
66831W        W31816  39.539  37.312   4.067
66832W        W31817  22.479  36.854   2.504
66833W        W31818  32.452   6.816  14.224
66834W        W31819  34.621  16.633  13.590
66835W        W31820  24.976  34.328  12.824
66836W        W31821  28.851  35.955  12.352
66837W        W31822  14.564  25.316   1.562
66838W        W31823   8.444  27.491   4.348
66839W        W31824  44.503  32.690   1.633
66840W        W31825   3.790  39.560   4.145
66841W        W31826  37.985  22.529   0.317
66842W        W31827  38.730  22.972   0.394
66843W        W31828  22.761   7.138  13.343
66844W        W31829  25.057  19.869   3.197
66845W        W31830  12.631  10.659   0.589
66846W        W31831  19.607   4.708  14.741
66847W        W31832  19.734   2.885  13.489
66848W        W31833  27.649   6.598  12.028
66849W        W31834  37.844  26.678  14.969
66850W        W31835  25.851  38.854  14.382
66851W        W31836  27.040  39.275  14.505
66852W        W31837  43.119  15.496  12.056
66853W        W31838  19.527  39.036  14.889
66854W        W31839  42.352  20.195   1.805
66855W        W31840  31.193  24.220   4.579
66856W        W31841  26.002  28.865   2.297
66857W        W31842  35.471  23.269  12.748
66858W        W31843  39.905  43.303   3.079
66859W        W31844   4.848  34.560   4.701
66860W        W31845  20.754  34.399  11.919
66861W        W31846   6.182  22.375  11.190
66862W        W31847  10.255  30.604   5.189
66863W        W31848  44.598  44.031   3.031
66864W        W31849  29.016   3.705   4.634
66865W        W31850  16.742   3.351   4.121
66866W        W31851  32.589  43.996   3.060
66867W        W31852  38.482  16.335  14.013
66868W        W31853  29.161   2.945   2.227
66869W        W31854  26.767  38.870  10.277
66870W        W31855  29.266   6.259  11.066
66871W        W31856  39.914  13.097  14.775
66872W        W31857  20.083   5.857   0.293
66873W        W31858  15.045   3.345  11.987
66874W        W31859   3.659  16.055  14.323
66875W        W31860  36.752  17.762  14.762
66876W        W31861   8.520  25.065  12.963
66877W        W31862  42.325  38.137  11.810
66878W        W31863  36.060  41.238  14.805
66879W        W31864  14.619  13.722   2.818
66880W        W31865  44.966  42.604  11.231
66881W        W31866  26.939  15.336  13.069
66882W        W31867  43.562  43.753   0.313
66883W        W31868  23.753  10.601  13.373
66884W        W31869   3.189  43.163   2.280
66885W        W31870   7.941  17.700  11.676
66886W        W31871  18.272  44.358   2.826
66887W        W31872   1.494  12.316   0.912
66888W        W31873  29.196   6.597  12.634
66889W        W31874  40.673  32.113  10.808
66890W        W31875  20.979  28.746  11.633
66891W        W31876  21.659  37.376   1.283
66892W        W31877   2.424  42.920  10.739
66893W        W31878  32.391   8.258   3.170
66894W        W31879  10.753  21.006   1.440
66895W        W31880  16.248  26.166   3.240
66896W        W31881  33.041  10.637   4.166
66897W        W31882  23.125  35.080   2.615
66898W        W31883  35.830   3.471   0.769
66899W        W31884   8.209  34.042   1.186
66900W        W31885  32.219  37.522   1.339
66901W        W31886  40.674  21.774   4.131
66902W        W31887  22.748  12.690  13.451
66903W        W31888   0.668  19.879  14.447
66904W        W31889  14.871   6.874  14.318
66905W        W31890  15.823  37.855  12.075
66906W        W31891  18.985  32.477  13.407
66907W        W31892   4.169  20.744  11.132
66908W        W31893   8.176  34.099   1.696
66909W        W31894  12.933   0.237   1.450
66910W        W31895  26.688  25.000   0.335
66911W        W31896  40.931  36.022  12.674
66912W        W31897  22.602  40.342   4.793
66913W        W31898  21.000  17.124   0.045
66914W        W31899  35.380  28.706  10.824
66915W        W31900  14.637  36.691  11.650
66916W        W31901  22.138  27.055   1.278
66917W        W31902  44.947  20.049  10.685
66918W        W31903  29.776   4.554   0.871
66919W        W31904  26.636   7.307  11.437
66920W        W31905  21.229  22.165  13.447
66921W        W31906  42.892  28.653   1.970
66922W        W31907  19.638  22.706   2.730
66923W        W31908  36.860  38.340  13.970
66924W        W31909   8.336   1.725   4.037
66925W        W31910  42.955  20.117  12.463
66926W        W31911  40.580  23.696   4.977
66927W        W31912  22.427  18.678   0.769
66928W        W31913  16.940   3.885  12.419
66929W        W31914  39.386   0.266   3.685
66930W        W31915  32.705  37.542  14.956
66931W        W31916  10.358  30.124  11.123
66932W        W31917  27.994  35.893  11.165
66933W        W31918  39.489  15.705   4.441
66934W        W31919  25.506   4.381   2.775
66935W        W31920  10.843  32.680  11.481
66936W        W31921  33.460  32.602  11.883
66937W        W31922  42.847  20.056   1.651
66938W        W31923  33.955  39.282   4.444
66939W        W31924  44.718  41.028   3.199
66940W        W31925  17.837  14.421  13.395
66941W        W31926  13.210  15.359  12.698
66942W        W31927  24.297  38.589   1.751
66943W        W31928  37.026  11.399   2.326
66944W        W31929   0.432  14.114   4.396
66945W        W31930  17.574  30.902   0.467
66946W        W31931  10.147  33.822  12.599
66947W        W31932  26.719   7.519  11.908
66948W        W31933  15.097  25.093   5.509
66949W        W31934   5.240   4.041  11.566
66950W        W31935  20.382   7.875  13.496
66951W        W31936  37.552  33.434  12.369
66952W        W31937  18.452  30.456   3.182
66953W        W31938  31.796  17.009  13.115
66954W        W31939  19.445  27.773  12.496
66955W        W31940   1.073   2.882  11.493
66956W        W31941   8.969  15.118   4.750
66957W        W31942   2.584  39.048   3.310
66958W        W31943  25.525  40.178  14.445
66959W        W31944  39.901  23.397  10.272
66960W        W31945  23.380   8.151  13.904
66961W        W31946  23.752   9.046   2.192
66962W        W31947   6.947  19.175  12.893
66963W        W31948  40.432  27.020   1.330
66964W        W31949  19.618  31.622  14.538
66965W        W31950   1.822  11.899   1.900
66966W        W31951  37.345  14.637  13.038
66967W        W31952  25.489  19.845  11.198
66968W        W31953  35.557  24.921  14.338
66969W        W31954  23.735  30.679  12.039
66970W        W31955   1.421  35.577   1.846
66971W        W31956  41.632  21.713   1.504
66972W        W31957  43.726   9.782  14.509
66973W        W31958  23.956  36.471  10.475
66974W        W31959   9.868   4.892   2.241
66975W        W31960  30.038  10.119  14.942
66976W        W31961  30.453  37.821   1.811
66977W        W31962   7.780  10.717   1.634
66978W        W31963   4.918  39.033  13.544
66979W        W31964   9.109   4.398  10.337
66980W        W31965  24.942  19.619   0.488
66981W        W31966  12.635  25.459   0.323
66982W        W31967   0.871  18.236  14.875
66983W        W31968  16.076  41.494   3.182
66984W        W31969  15.792   9.710   3.349
66985W        W31970  19.381   1.832   4.386
66986W        W31971  10.761  36.798  13.011
66987W        W31972  34.978   2.252   5.331
66988W        W31973   4.794  33.241   2.406
66989W        W31974  36.878  29.168   0.285
66990W        W31975  39.554  31.374  14.837
66991W        W31976  20.970  37.108  12.243
66992W        W31977   1.540  33.905  10.866
66993W        W31978  39.975  18.091  13.367
66994W        W31979  17.148   1.875  11.407
66995W        W31980  13.251  12.710  12.547
66996W        W31981  33.572   8.683   2.107
66997W        W31982  41.819  12.049   3.469
66998W        W31983  42.735   4.450   1.013
66999W        W31984  11.858   1.193  13.951
67000W        W31985  24.208  34.055   2.330
67001W        W31986  15.276  34.821  14.470
67002W        W31987   7.383  26.590  10.690
67003W        W31988  38.070  36.905  12.562
67004W        W31989  38.131  27.802  12.506
67005W        W31990  34.335   7.436  13.901
67006W        W31991  39.213   6.222  13.763
67007W        W31992  34.883  12.332   2.243
67008W        W31993  22.778  20.232  11.488
67009W        W31994  43.663  40.342  12.852
67010W        W31995  37.483  27.698  13.061
67011W        W31996  18.565   0.529   1.017
67012W        W31997  43.360   6.370   3.277
67013W        W31998  25.641   4.389  14.425
67014W        W31999  12.622   8.265   4.787
67015W        W32000   2.181   8.154   4.130
67016W        W32001  14.314  27.574   3.178
67017W        W32002   4.908  30.391   0.757
67018W        W32003  16.167  32.065   0.347
67019W        W32004  16.197  43.369   3.447
67020W        W32005  12.373   1.352   3.859
67021W        W32006   5.497  18.607  10.041
67022W        W32007  23.668   1.045  11.727
67023W        W32008  28.953  19.707  14.426
67024W        W32009  21.213  31.978  14.931
67025W        W32010  29.465  37.679   3.107
67026W        W32011  10.913  38.362   2.091
67027W        W32012  18.890   8.695   3.641
67028W        W32013  33.228  13.778  11.067
67029W        W32014  40.137  44.453   4.622
67030W        W32015  42.270  14.337  14.614
67031W        W32016  37.861  11.958  12.519
67032W        W32017   8.839  37.668   2.404
67033W        W32018  25.412   8.663  13.853
67034W        W32019  39.047  17.489   3.377
67035W        W32020  12.272   6.182  12.469
67036W        W32021  12.428   1.405   0.157
67037W        W32022   0.036  23.564  12.584
67038W        W32023   1.765  38.858  12.472
67039W        W32024  10.281  36.439  10.296
67040W        W32025   0.418  34.044   0.450
67041W        W32026   0.627  37.587   5.103
67042W        W32027  18.506  43.263  13.481
67043W        W32028   7.685  18.511  13.877
67044W        W32029  40.046  28.673  12.043
67045W        W32030   5.322   8.847   2.166
67046W        W32031   4.894  22.167   2.662
67047W        W32032  23.441  28.945  13.868
67048W        W32033  34.123  35.129  12.975
67049W        W32034  12.856  32.911   2.872
67050W        W32035  44.993  39.646  11.662
67051W        W32036   5.758   2.684   1.762
67052W        W32037   5.436   1.101   3.958
67053W        W32038  44.877  30.571  13.158
67054W        W32039  20.553  28.621  13.814
67055W        W32040  35.070  33.413  14.477
67056W        W32041  19.132  43.549  14.252
67057W        W32042  35.459  17.924  12.849
67058W        W32043  35.135  25.226  14.360
67059W        W32044   2.769   4.205  10.838
67060W        W32045  40.347  39.556  11.992
67061W        W32046  22.172   7.691   3.690
67062W        W32047  31.620  24.155  14.786
67063W        W32048  35.752  12.157  14.544
67064W        W32049  22.089  25.179  13.725
67065W        W32050   4.712  34.765  11.963
67066W        W32051   4.193   5.338   1.353
67067W        W32052   5.771  16.033  11.460
67068W        W32053   1.685  28.043  12.471
67069W        W32054  19.279   4.035   0.855
67070W        W32055  25.325  20.580   4.657
67071W        W32056  19.157   5.966  13.559
67072W        W32057  41.324   4.857  12.100
67073W        W32058  34.361  25.038   4.621
67074W        W32059  25.648  32.589   3.139
67075W        W32060  43.970  10.668   0.800
67076W        W32061  20.759  15.669  11.171
67077W        W32062  22.673  44.343   1.761
67078W        W32063  33.086  40.234   2.946
67079W        W32064  17.968  18.537   3.185
67080W        W32065   7.257   3.172   3.661
67081W        W32066  20.818   7.184   1.916
67082W        W32067  31.712  38.025  11.144
67083W        W32068  20.390  41.722  12.643
67084W        W32069  24.849  44.002   2.411
67085W        W32070  29.562  12.372  11.161
67086W        W32071  21.903  31.860  14.332
67087W        W32072  30.758   8.216  11.645
67088W        W32073   7.796  23.565   0.931
67089W        W32074  32.193  15.124  12.908
67090W        W32075  10.568  43.211   0.562
67091W        W32076   1.883  26.916  12.109
67092W        W32077   1.001  16.268   1.424
67093W        W32078  36.450  36.905  11.481
67094W        W32079  34.292  35.499   4.889
67095W        W32080   9.885  32.016   3.761
67096W        W32081   7.725  25.270  10.820
67097W        W32082  27.065   7.743   1.911
67098W        W32083  43.092  14.638   4.202
67099W        W32084   2.258   4.794   5.375
67100W        W32085  26.598  37.896  11.899
67101W        W32086  38.627   6.691   3.350
67102W        W32087  35.354  17.990  11.991
67103W        W32088  19.294  14.803  13.131
67104W        W32089  23.582  37.979  12.502
67105W        W32090  31.088  20.217   0.489
67106W        W32091  36.023   4.008  12.473
67107W        W32092  36.160  41.365   1.312
67108W        W32093   6.063   9.789  12.901
67109W        W32094  23.440   9.272   1.732
67110W        W32095   8.913  27.564  14.814
67111W        W32096  41.482  10.402  12.831
67112W        W32097  32.167  37.090  11.034
67113W        W32098   3.923  22.619   1.492
67114W        W32099  29.177  43.905   4.166
67115W        W32100   8.095  18.128   4.609
67116W        W32101  28.656  10.770   3.285
67117W        W32102  24.204  16.157   3.655
67118W        W32103  23.114  41.848   3.161
67119W        W32104  23.088   6.562  11.652
67120W        W32105  38.280   5.975  14.786
67121W        W32106  39.483  11.843   4.086
67122W        W32107  23.184  25.269   4.164
67123W        W32108  21.079   6.815   1.431
67124W        W32109  40.556  13.580   2.281
67125W        W32110  42.635  18.591   4.961
67126W        W32111  40.770  25.102  12.544
67127W        W32112  21.107   3.503  10.919
67128W        W32113  23.494   0.844  14.831
67129W        W32114  43.546   7.565  11.541
67130W        W32115  17.314  43.455   1.175
67131W        W32116  35.257  28.094  13.025
67132W        W32117  10.344   6.622  10.660
67133W        W32118  12.874  20.542   1.024
67134W        W32119  26.643   9.453  10.913
67135W        W32120  26.099  43.817   3.095
67136W        W32121  33.397  16.131   3.767
67137W        W32122  18.068  34.329  13.014
67138W        W32123  22.781   7.446   4.397
67139W        W32124  33.097  23.266  13.357
67140W        W32125  16.066  20.705   0.383
67141W        W32126  19.564  25.561  13.115
67142W        W32127  26.987   6.148  12.206
67143W        W32128  16.580  36.700  12.664
67144W        W32129  18.332  41.376  10.714
67145W        W32130  16.625  43.789   2.279
67146W        W32131  41.554   0.324   2.462
67147W        W32132  11.304   6.647  11.514
67148W        W32133  25.038  17.008  11.008
67149W        W32134  10.462  17.487   2.985
67150W        W32135   9.507  37.608   0.286
67151W        W32136  32.107  31.942   1.734
67152W        W32137  19.974  33.134  12.398
67153W        W32138  33.475  42.834   0.245
67154W        W32139  35.645  10.381   0.445
67155W        W32140  38.223  42.937  13.486
67156W        W32141  18.241  24.021  13.322
67157W        W32142   4.972  10.050   2.596
67158W        W32143  41.333  25.698  11.955
67159W        W32144  38.007  14.678   0.820
67160W        W32145  32.875  30.498  10.935
67161W        W32146  12.585  19.162  11.407
67162W        W32147   4.639  40.609   1.292
67163W        W32148  34.447  15.755  11.937
67164W        W32149  44.843   7.196  10.527
67165W        W32150  42.848  22.599  11.437
67166W        W32151  37.621  29.792   3.174
67167W        W32152  11.694  16.906   1.874
67168W        W32153   8.015  15.342  11.672
67169W        W32154  14.613   6.163   5.543
67170W        W32155  28.362  36.703   2.164
67171W        W32156  43.742   1.125  12.996
67172W        W32157  44.630   2.775   0.574
67173W        W32158  10.142   2.211  13.836
67174W        W32159  21.584  16.881  12.475
67175W        W32160  21.589   8.630  11.044
67176W        W32161  43.327   0.557   0.094
67177W        W32162  43.304   4.368   2.822
67178W        W32163  15.299   8.481  12.046
67179W        W32164  22.555   0.407  14.792
67180W        W32165  11.233  25.395   1.306
67181W        W32166  24.701  44.284  14.879
67182W        W32167   7.763  38.807  10.638
67183W        W32168   8.863  35.056   4.606
67184W        W32169  22.010  24.104  14.838
67185W        W32170  22.230  18.318   1.038
67186W        W32171  26.097   0.324   4.405
67187W        W32172   1.745  38.050   2.321
67188W        W32173  19.240   0.332  13.871
67189W        W32174  40.292  18.461   4.584
67190W        W32175  13.251  23.042  11.745
67191W        W32176  32.275  33.746  14.451
67192W        W32177  44.841  24.972  11.044
67193W        W32178  36.147   5.605   4.993
67194W        W32179  18.135  22.197   2.353
67195W        W32180  33.602   5.141  12.356
67196W        W32181  19.169  13.702  13.594
67197W        W32182   4.110  39.771   4.685
67198W        W32183  35.375  25.160   4.523
67199W        W32184  36.573   2.266  12.323
67200W        W32185  44.742  28.576   0.666
67201W        W32186  25.142  17.635  13.706
67202W        W32187   0.726  40.106   1.278
67203W        W32188  28.075  18.536  11.106
67204W        W32189  33.948  33.666  12.142
67205W        W32190  21.562   6.309  13.766
67206W        W32191  30.115  13.660   4.107
67207W        W32192   9.313  27.189  11.561
67208W        W32193  34.662   7.643  14.253
67209W        W32194  11.421  20.014  11.188
67210W        W32195  11.721  27.612   0.021
67211W        W32196  19.763  19.753  11.103
67212W        W32197  39.951   5.652  14.515
67213W        W32198  31.521  40.997   3.139
67214W        W32199   1.799  37.578   4.110
67215W        W32200  11.571  21.512  11.963
67216W        W32201  14.083  25.378   4.333
67217W        W32202   5.140   3.360   4.198
67218W        W32203  22.595  13.304  14.299
67219W        W32204  19.674  35.831  11.388
67220W        W32205  20.171  28.202  13.421
67221W        W32206  23.834  20.232   1.888
67222W        W32207  34.682   5.848  13.103
67223W        W32208  44.278   8.370   0.909
67224W        W32209  26.272  44.837  14.549
67225W        W32210  38.162  26.457  12.506
67226W        W32211   7.557  15.103   4.628
67227W        W32212  13.849  27.479  10.169
67228W        W32213  44.189  29.565  12.953
67229W        W32214  11.851  23.315  13.140
67230W        W32215  34.966   3.438  12.356
67231W        W32216  18.227  28.811   4.568
67232W        W32217   6.212  24.951  13.515
67233W        W32218  26.940   6.687   0.730
67234W        W32219  23.088  14.649   2.882
67235W        W32220  17.779  16.738   1.326
67236W        W32221  39.554   6.726  13.392
67237W        W32222  42.698  34.819  12.714
67238W        W32223  37.342  41.382   3.204
67239W        W32224  15.713  40.556   3.109
67240W        W32225  16.839  24.998   0.047
67241W        W32226  34.825  15.310   0.624
67242W        W32227  27.417  30.460  12.521
67243W        W32228  30.587  17.113   3.925
67244W        W32229   5.386   1.043  11.680
67245W        W32230  33.451   3.840   0.695
67246W        W32231   7.908  33.585   2.300
67247W        W32232  10.617  14.237  10.558
67248W        W32233  40.470  23.614   2.150
67249W        W32234  28.588  37.624  12.463
67250W        W32235  40.062  29.701  13.547
67251W        W32236  30.327  22.197  10.793
67252W        W32237  25.849  40.900   2.174
67253W        W32238  23.626  19.013   2.422
67254W        W32239  15.676   0.468   3.100
67255W        W32240  25.685  37.943  12.652
67256W        W32241  33.206  29.085   1.656
67257W        W32242  19.788  36.854   0.425
67258W        W32243  44.904   0.410  11.881
67259W        W32244  10.576  30.132  14.253
67260W        W32245  10.419  36.530   3.352
67261W        W32246  34.463  32.892  12.883
67262W        W32247  32.361   7.357  11.523
67263W        W32248  10.928  18.289   0.330
67264W        W32249  32.086  16.329   0.502
67265W        W32250  20.185  36.307  12.833
67266W        W32251  23.090  41.807  13.974
67267W        W32252   0.134  16.096  14.873
67268W        W32253  14.212  24.289  12.539
67269W        W32254   5.028  29.390   3.166
67270W        W32255   7.248  27.954   0.736
67271W        W32256   0.277  22.425  13.543
67272W        W32257   3.278  40.807   3.244
67273W        W32258  16.890  44.817  10.559
67274W        W32259  13.201   0.262  12.126
67275W        W32260  29.745  32.537  10.209
67276W        W32261  18.679  12.854  13.122
67277W        W32262  15.581  36.644   0.330
67278W        W32263  44.058  26.639   3.836
67279W        W32264  27.128   2.560  14.260
67280W        W32265   4.436  14.692  11.623
67281W        W32266  38.413  12.083  10.803
67282W        W32267  22.246  23.971   0.313
67283W        W32268   6.700  42.859   1.795
67284W        W32269  18.607  32.601   3.682
67285W        W32270  39.543   1.338   1.169
67286W        W32271  23.780  34.150  12.130
67287W        W32272  16.061  12.653   4.871
67288W        W32273  41.756  15.128  14.796
67289W        W32274  44.715  15.276  11.212
67290W        W32275  28.772   0.864   1.195
67291W        W32276  40.139  19.839   1.155
67292W        W32277  41.372  18.248  11.851
67293W        W32278  16.153  29.156   0.316
67294W        W32279  23.081   7.169   3.761
67295W        W32280  22.949   9.093  14.847
67296W        W32281  25.961   3.543  12.876
67297W        W32282   5.361  29.472   4.443
67298W        W32283  35.388   3.362   1.692
67299W        W32284  14.116  15.437  12.662
67300W        W32285  17.477  39.072  13.263
67301W        W32286  34.967  37.318   1.088
67302W        W32287   5.957  38.090   2.904
67303W        W32288   5.093  11.562  11.276
67304W        W32289   5.263  12.900  13.444
67305W        W32290  32.408  10.073   1.805
67306W        W32291  29.700  36.721   3.559
67307W        W32292   9.861  16.363  14.772
67308W        W32293  29.906  20.170  10.699
67309W        W32294  29.619  15.939   5.080
67310W        W32295   2.786  16.659  14.489
67311W        W32296   8.607   7.728   3.568
67312W        W32297  30.650  19.689   1.684
67313W        W32298  20.794   3.076   4.474
67314W        W32299  24.623  21.524   1.839
67315W        W32300  31.131  36.270  11.145
67316W        W32301  31.940   0.799   2.550
67317W        W32302   2.362   9.911   2.259
67318W        W32303  16.847  12.076  14.664
67319W        W32304  34.128  31.647   0.063
67320W        W32305  32.202   1.281  13.867
67321W        W32306  25.056  11.645  12.464
67322W        W32307  34.557  20.739   2.726
67323W        W32308  19.314   8.372   4.774
67324W        W32309  12.093  24.844  12.329
67325W        W32310   5.326  10.228  13.465
67326W        W32311  11.447  26.678   0.637
67327W        W32312  17.029  29.764   4.280
67328W        W32313   8.951  31.315   0.733
67329W        W32314  10.266   6.392   2.250
67330W        W32315  30.848  38.624   0.922
67331W        W32316   3.211   7.242  13.060
67332W        W32317   8.986  29.088  11.186
67333W        W32318  36.609  29.348  14.784
67334W        W32319  38.737  24.794   5.049
67335W        W32320  36.412  17.695   2.921
67336W        W32321  22.471  30.781   0.227
67337W        W32322  17.255  35.604  13.886
67338W        W32323  35.327   4.677  12.697
67339W        W32324  13.130  21.112  10.399
67340W        W32325  30.146   6.478  11.445
67341W        W32326  32.636  30.647   2.348
67342W        W32327   5.569  40.103  12.453
67343W        W32328  13.063  27.088  14.314
67344W        W32329  11.651  36.609  13.973
67345W        W32330  15.216  22.975   4.717
67346W        W32331  43.805  44.067  14.279
67347W        W32332  12.079   3.435   3.700
67348W        W32333   4.273  14.586  14.953
67349W        W32334  42.523  14.121   0.963
67350W        W32335  17.898  14.300  12.388
67351W        W32336   6.695  24.632  13.039
67352W        W32337   5.206  27.444  13.126
67353W        W32338   1.745  24.665  12.534
67354W        W32339   6.788  30.453   1.853
67355W        W32340  41.417  26.735   1.834
67356W        W32341   5.673  28.674  14.583
67357W        W32342  40.761  33.965   4.555
67358W        W32343   7.876   7.219   3.320
67359W        W32344  30.279   7.025   0.474
67360W        W32345  31.034  44.759  11.646
67361W        W32346   7.790  38.870  12.206
67362W        W32347   9.261   9.821  12.329
67363W        W32348  29.424  13.382  11.116
67364W        W32349  17.821  13.867   2.295
67365W        W32350  40.540  17.826  13.975
67366W        W32351  10.381  23.318  13.905
67367W        W32352  19.288  15.169   0.908
67368W        W32353   1.865  40.952  11.265
67369W        W32354  31.102  36.475  12.428
67370W        W32355   8.726  30.656   2.503
67371W        W32356   4.982   4.718  13.379
67372W        W32357  44.943   2.601   2.775
67373W        W32358  30.478   9.678  11.753
67374W        W32359  43.649   6.428  11.965
67375W        W32360   0.787  39.724  14.591
67376W        W32361   2.801   0.753  14.407
67377W        W32362  37.588  31.372   2.901
67378W        W32363  21.560  34.811  13.341
67379W        W32364  36.353   6.091   3.831
67380W        W32365  37.276  23.197  11.233
67381W        W32366  39.599  41.318   0.846
67382W        W32367  42.948  40.088  14.172
67383W        W32368  27.046  42.395   4.556
67384W        W32369  18.624   0.405  12.670
67385W        W32370  42.982  32.075   1.381
67386W        W32371  28.673   1.989   0.409
67387W        W32372  27.771  23.980  14.673
67388W        W32373  10.166  10.907   1.844
67389W        W32374  39.084  14.117  13.429
67390W        W32375  18.268   2.579  11.941
67391W        W32376  41.018  15.209   5.427
67392W        W32377  25.999   6.900  14.327
67393W        W32378  15.682   0.998  14.488
67394W        W32379  31.294  13.535   2.342
67395W        W32380  15.345  37.690   4.303
67396W        W32381  13.824  19.156   0.735
67397W        W32382  20.013   4.647  13.367
67398W        W32383  43.083   3.307   1.757
67399W        W32384  44.403  30.105   0.906
67400W        W32385  40.326  44.825   2.838
67401W        W32386  10.542  39.705   2.145
67402W        W32387  10.636   2.833   2.895
67403W        W32388  30.479  43.379   0.889
67404W        W32389  41.264  28.035  13.425
67405W        W32390  43.857  26.541   1.994
67406W        W32391  19.619  27.079   1.752
67407W        W32392  35.566  16.133   4.762
67408W        W32393  12.298  24.294  10.895
67409W        W32394  33.011  13.078  11.709
67410W        W32395   1.546  13.801  14.489
67411W        W32396  44.579  23.216   3.680
67412W        W32397  31.250  29.489   2.937
67413W        W32398  41.618  28.813  11.307
67414W        W32399  25.084  34.502   4.120
67415W        W32400  36.343  38.996   5.024
67416W        W32401  14.387  43.219   1.193
67417W        W32402  15.199  32.799   1.122
67418W        W32403   4.641  33.927  13.516
67419W        W32404  11.816  26.028   4.688
67420W        W32405  34.981  18.771  13.618
67421W        W32406  28.214   2.952   4.852
67422W        W32407  20.028   5.354  11.617
67423W        W32408  24.717  11.232  12.457
67424W        W32409  30.437  23.249  12.565
67425W        W32410   9.135  32.662   4.753
67426W        W32411  20.124  25.669   4.940
67427W        W32412   5.647  35.422  13.598
67428W        W32413  11.570  19.600   1.844
67429W        W32414   6.293  40.091  13.824
67430W        W32415  21.566  15.289  13.537
67431W        W32416   0.011   3.340  13.258
67432W        W32417  33.705  36.472   0.283
67433W        W32418  23.527   0.895   2.737
67434W        W32419  26.097  28.917  14.495
67435W        W32420  39.355  17.275   3.789
67436W        W32421  35.561  28.469  14.954
67437W        W32422  28.917  37.340   1.384
67438W        W32423  35.467  13.536  10.475
67439W        W32424  10.737  41.851  12.582
67440W        W32425  28.936  24.675  14.373
67441W        W32426   3.155  24.132  13.359
67442W        W32427  23.458  14.061  12.308
67443W        W32428  41.024   2.688   2.411
67444W        W32429  39.825  20.107   4.248
67445W        W32430  13.062  25.730   0.396
67446W        W32431   4.716  16.690   3.399
67447W        W32432  41.533  41.444   1.406
67448W        W32433  28.785   2.707  13.180
67449W        W32434  33.162   2.532  11.044
67450W        W32435  18.027  11.087  11.492
67451W        W32436  34.822   5.231  11.110
67452W        W32437  43.947  12.993   2.747
67453W        W32438   4.450  39.231   2.869
67454W        W32439  42.257  23.431  12.588
67455W        W32440  11.798   3.660   4.660
67456W        W32441  38.390  33.895  10.755
67457W        W32442  23.594  33.668  14.921
67458W        W32443  42.406  43.414   0.797
67459W        W32444  40.538  17.271   0.898
67460W        W32445  13.487   9.273  13.066
67461W        W32446   0.487  17.610  12.115
67462W        W32447  27.849   7.383  13.392
67463W        W32448  20.237  19.726  13.779
67464W        W32449  11.322  27.462  14.744
67465W        W32450  34.880   3.977  14.466
67466W        W32451  21.034   5.179   1.279
67467W        W32452  21.020  29.344  13.289
67468W        W32453   5.292  16.625  11.732
67469W        W32454  10.359  10.839  13.993
67470W        W32455   7.812  23.748   4.983
67471W        W32456  35.584   7.527   9.871
67472W        W32457  23.415  11.739   3.249
67473W        W32458  40.594  32.153   0.910
67474W        W32459   8.045  22.684  10.701
67475W        W32460  16.852  33.957  14.008
67476W        W32461  16.063   1.342  11.178
67477W        W32462  28.156   7.178   4.698
67478W        W32463  22.733  17.176   1.774
67479W        W32464  16.276  26.188  12.415
67480W        W32465  44.105   4.573  10.398
67481W        W32466   3.848   7.130   0.223
67482W        W32467  28.512  37.960   0.786
67483W        W32468  15.228  23.580  14.942
67484W        W32469  26.454   3.015   4.035
67485W        W32470  44.708  39.789   0.294
67486W        W32471  37.404  17.143   0.382
67487W        W32472  27.175  37.610  10.813
67488W        W32473  22.281  11.090  11.642
67489W        W32474  27.994  18.487  14.779
67490W        W32475  44.211  42.819   3.895
67491W        W32476  40.811  40.733  14.279
67492W        W32477  26.061  32.477   0.349
67493W        W32478  24.990   5.462   1.411
67494W        W32479  20.496  24.128   2.936
67495W        W32480  24.521   7.879  14.446
67496W        W32481  29.142  24.134   3.419
67497W        W32482  15.070  31.939   3.102
67498W        W32483   6.860  12.139   2.703
67499W        W32484  17.947  28.487  13.762
67500W        W32485  32.215  32.609  13.153
67501W        W32486  14.429  21.988   1.279
67502W        W32487  37.318  43.024   0.884
67503W        W32488  16.224  38.120   3.054
67504W        W32489  24.839  25.604  14.426
67505W        W32490  44.707  32.303  12.052
67506W        W32491  12.605  28.828   0.835
67507W        W32492  21.678  17.503  13.043
67508W        W32493  22.149  34.485   0.911
67509W        W32494  18.696  27.626   4.320
67510W        W32495   2.645  19.140  13.161
67511W        W32496  44.973  13.697   0.473
67512W        W32497  23.092  44.746   0.159
67513W        W32498  24.491  15.685   2.298
67514W        W32499  26.980   0.937   1.793
67515W        W32500   6.175   1.816   0.165
67516W        W32501   6.250  25.071   4.066
67517W        W32502  29.072  19.951  13.443
67518W        W32503   0.711   8.543  13.391
67519W        W32504  32.430  27.550  14.832
67520W        W32505   8.185  41.447   2.065
67521W        W32506   3.998  30.124   4.104
67522W        W32507  26.623   4.735   2.824
67523W        W32508  32.839   5.707  13.959
67524W        W32509  10.596  44.797   0.954
67525W        W32510  22.969  22.129  14.345
67526W        W32511  42.076  16.541   4.941
67527W        W32512  17.452   3.830  12.430
67528W        W32513  41.404  26.531   1.333
67529W        W32514   1.459   7.403   1.267
67530W        W32515  22.647  27.610   2.265
67531W        W32516  23.507  44.938  14.873
67532W        W32517  24.336   0.973   3.229
67533W        W32518  43.932  41.924   3.872
67534W        W32519   7.647  37.655   4.550
67535W        W32520  28.630   7.440  10.712
67536W        W32521  16.661  18.241   0.851
67537W        W32522  14.055  28.512  11.935
67538W        W32523  28.988   7.321  13.427
67539W        W32524  15.230  32.151  12.919
67540W        W32525   2.896  24.195  12.914
67541W        W32526   2.437  43.981   2.824
67542W        W32527  27.439  17.934  10.796
67543W        W32528   8.397  23.045   0.327
67544W        W32529  25.984   1.681  11.962
67545W        W32530  32.615  37.466   3.182
67546W        W32531  25.700  14.758   4.065
67547W        W32532  31.076  42.530  13.096
67548W        W32533  25.985  35.939  14.546
67549W        W32534  17.836  34.658  13.553
67550W        W32535  28.914   4.305   0.960
67551W        W32536  25.104  34.608  10.595
67552W        W32537  25.522  18.229   2.979
67553W        W32538   4.325   1.243   1.808
67554W        W32539   8.269  27.476  13.066
67555W        W32540  33.303  27.209  12.441
67556W        W32541  10.301  33.514   1.316
67557W        W32542  39.387   4.052   2.300
67558W        W32543  43.260  15.648  11.560
67559W        W32544  40.334  34.378  13.563
67560W        W32545   0.224  42.538   4.073
67561W        W32546  44.216  16.327   1.842
67562W        W32547  31.902  44.236  10.374
67563W        W32548  33.899   9.922  12.498
67564W        W32549   0.391  24.567  10.733
67565W        W32550  38.851   3.386   0.961
67566W        W32551  31.887  29.075   1.327
67567W        W32552   0.860   1.791   4.399
67568W        W32553  36.949   7.160  13.831
67569W        W32554  39.655  40.489   3.219
67570W        W32555  10.833  30.135  12.368
67571W        W32556  18.156  34.782  10.816
67572W        W32557  15.203  37.379   2.268
67573W        W32558  37.418  21.507   2.863
67574W        W32559  40.510  21.751  14.284
67575W        W32560  18.150  22.390  10.691
67576W        W32561  17.752   4.854  13.091
67577W        W32562  29.875  33.129   3.050
67578W        W32563  13.068  14.211   4.146
67579W        W32564  44.107   1.486   3.447
67580W        W32565  43.245  37.323  12.453
67581W        W32566  28.811  41.698  12.384
67582W        W32567   0.924  36.022  13.284
67583W        W32568  16.283   1.389   3.798
67584W        W32569  10.900  23.119  10.461
67585W        W32570  30.867  20.232  14.050
67586W        W32571  16.108   1.557  12.043
67587W        W32572  37.091  25.534   0.439
67588W        W32573  36.001  34.534   0.553
67589W        W32574  21.043  23.986   1.845
67590W        W32575  17.127  31.747   2.571
67591W        W32576  28.710  13.647   2.345
67592W        W32577   0.701  40.726  14.908
67593W        W32578  16.125  42.870  10.931
67594W        W32579   8.276  10.586   1.852
67595W        W32580  15.114  12.586   0.287
67596W        W32581   6.035  43.824   4.708
67597W        W32582  25.519  34.331  10.576
67598W        W32583   3.342  37.489   1.744
67599W        W32584   6.143  20.130  11.166
67600W        W32585   3.411  11.262   2.628
67601W        W32586   5.255  17.286   4.554
67602W        W32587   7.672  18.270  12.535
67603W        W32588  26.089  44.762   3.614
67604W        W32589  13.803  21.423  12.509
67605W        W32590   6.031   1.303  13.043
67606W        W32591   1.437   4.963  10.672
67607W        W32592  20.273   7.347  11.524
67608W        W32593  25.620  36.351  13.302
67609W        W32594  31.358  36.911  12.529
67610W        W32595  39.953  29.554   4.718
67611W        W32596  17.328  19.912  10.734
67612W        W32597  41.400  17.733  14.496
67613W        W32598  27.451  15.618  11.102
67614W        W32599  42.349  39.283   3.786
67615W        W32600   9.776   3.225   2.418
67616W        W32601  21.738  31.373  11.932
67617W        W32602  41.571  25.733  14.632
67618W        W32603  22.232  28.084   4.856
67619W        W32604  25.683   0.417  11.068
67620W        W32605   6.589   7.424  11.098
67621W        W32606  14.687  40.127  13.508
67622W        W32607  39.670   8.234   0.778
67623W        W32608  26.681  19.831  13.475
67624W        W32609  10.852  20.129  11.273
67625W        W32610  29.048  20.995  14.995
67626W        W32611  13.570   3.300   2.830
67627W        W32612   3.457  30.371  11.487
67628W        W32613  10.255   3.727  10.953
67629W        W32614   3.674  23.103   1.378
67630W        W32615  39.925  16.600   1.784
67631W        W32616  26.661  29.843   1.284
67632W        W32617  28.247   2.961   2.544
67633W        W32618  11.238  28.004   2.623
67634W        W32619  44.399  16.812   0.656
67635W        W32620  16.559  20.633   2.576
67636W        W32621   6.287  17.299  12.486
67637W        W32622  22.753   1.404  11.038
67638W        W32623  38.273  17.206  13.977
67639W        W32624  22.172  30.231  11.160
67640W        W32625  34.935   1.265  13.747
67641W        W32626  35.184  21.964  12.873
67642W        W32627   4.459  27.488  13.693
67643W        W32628  20.480  14.858   1.353
67644W        W32629  37.247  35.727  14.460
67645W        W32630   8.395   2.887  13.612
67646W        W32631  32.927  10.647   0.761
67647W        W32632  17.904   0.558   3.295
67648W        W32633  24.277  12.229   2.166
67649W        W32634  19.173  24.659   4.077
67650W        W32635   3.337  21.969  12.018
67651W        W32636  27.173  18.317  12.807
67652W        W32637  42.982  39.720  12.450
67653W        W32638  19.149  33.746  12.601
67654W        W32639   5.791  37.129   2.636
67655W        W32640   8.882  41.018   4.055
67656W        W32641  42.435  22.004   5.123
67657W        W32642   8.109  38.809   2.776
67658W        W32643  24.714   9.715   4.976
67659W        W32644  23.678   9.306   4.707
67660W        W32645  19.497  24.670   0.264
67661W        W32646   7.264   1.710   2.140
67662W        W32647  17.089  17.096  12.230
67663W        W32648  21.088   4.885  13.453
67664W        W32649  33.583  18.491  13.947
67665W        W32650   5.315  11.311   1.799
67666W        W32651  11.516   9.666  13.595
67667W        W32652  35.715   9.224  12.006
67668W        W32653  43.549  36.881  12.441
67669W        W32654  35.933   0.515  14.972
67670W        W32655  18.784  32.652   2.306
67671W        W32656   4.700   1.459  14.548
67672W        W32657  30.159   5.100  14.525
67673W        W32658  24.610  42.331   4.306
67674W        W32659  24.016  35.415   1.296
67675W        W32660   6.623  33.353   3.137
67676W        W32661  27.986  41.107  12.561
67677W        W32662  44.320  15.644  13.597
67678W        W32663  36.639   3.182  13.805
67679W        W32664  22.692  17.700  11.851
67680W        W32665   9.867   8.176  12.465
67681W        W32666  27.176  27.125   0.522
67682W        W32667   5.540  37.450  14.396
67683W        W32668   5.034  31.422  14.880
67684W        W32669  17.824  42.328   0.436
67685W        W32670   0.910  18.149   0.874
67686W        W32671  14.876  29.521  14.356
67687W        W32672  21.169  33.102   3.629
67688W        W32673  17.091  25.914  13.417
67689W        W32674  38.821  15.285  13.902
67690W        W32675  40.567  39.948   4.047
67691W        W32676  17.228  12.633  14.042
67692W        W32677  44.169  24.581  14.850
67693W        W32678   1.513  15.132  14.027
67694W        W32679  23.079  33.366  13.327
67695W        W32680  19.470  29.711   4.065
67696W        W32681   1.170   4.648  14.331
67697W        W32682  39.559  31.081  13.891
67698W        W32683  16.696   3.399   2.213
67699W        W32684  36.924   3.459   2.852
67700W        W32685  36.491  26.873  14.453
67701W        W32686  17.285  27.604   1.694
67702W        W32687  33.968  22.212  11.915
67703W        W32688  11.936   0.748   3.548
67704W        W32689  30.507  27.526   1.347
67705W        W32690  28.169  31.563   1.260
67706W        W32691  40.267  24.086   1.953
67707W        W32692  36.227   4.860  13.789
67708W        W32693  25.493  12.106  11.494
67709W        W32694   9.213   6.477  13.317
67710W        W32695   9.287  39.942  11.510
67711W        W32696  31.249  13.809   3.246
67712W        W32697  10.349  15.589   0.265
67713W        W32698  13.556   5.844   0.748
67714W        W32699  20.527   0.418  10.508
67715W        W32700  37.401  21.752  11.952
67716W        W32701   6.423  44.120   1.199
67717W        W32702  38.110  13.633   3.354
67718W        W32703   6.916  35.574  12.675
67719W        W32704  14.010  26.932   1.749
67720W        W32705   3.813  42.477   4.120
67721W        W32706  16.867   6.465   9.652
67722W        W32707  15.143  12.149   3.808
67723W        W32708   9.159  12.090  14.858
67724W        W32709  37.693   2.001  10.215
67725W        W32710  12.147  27.987   2.357
67726W        W32711  14.167  14.626  11.480
67727W        W32712   2.332  31.145   3.563
67728W        W32713  30.295  27.607   0.842
67729W        W32714  21.965   4.814   4.224
67730W        W32715  28.787  15.758  12.467
67731W        W32716  15.285  38.546   0.429
67732W        W32717  35.516   0.231  14.837
67733W        W32718   3.580  11.670  11.206
67734W        W32719  15.340  21.043  14.946
67735W        W32720  37.935   7.139  14.341
67736W        W32721   9.880   3.300  13.061
67737W        W32722  29.451  18.655   1.426
67738W        W32723  18.765  26.216   4.643
67739W        W32724  35.025  13.649   4.699
67740W        W32725  19.190  11.793  11.349
67741W        W32726  15.326  11.389   4.808
67742W        W32727  18.564   5.341   1.712
67743W        W32728  41.066  41.144  14.738
67744W        W32729  14.849  13.250  12.907
67745W        W32730  18.619  20.993  13.066
67746W        W32731  24.504  15.622   4.565
67747W        W32732  10.226  15.784  12.256
67748W        W32733  39.409  24.467  12.064
67749W        W32734   2.285  34.751   1.280
67750W        W32735   3.343  14.391   2.479
67751W        W32736  33.913  18.829   1.835
67752W        W32737  11.757  22.216  12.079
67753W        W32738  18.356  12.752  10.359
67754W        W32739  38.828  42.368  12.174
67755W        W32740  26.917  12.259  12.069
67756W        W32741  43.562  23.622  10.257
67757W        W32742  22.265  16.803   0.775
67758W        W32743  15.808   8.657  12.087
67759W        W32744  30.193  21.441  11.298
67760W        W32745  26.556   4.848   2.243
67761W        W32746   7.976  14.312  10.790
67762W        W32747  11.519  20.311  11.602
67763W        W32748  19.823   0.346   3.470
67764W        W32749  25.172  43.304   2.249
67765W        W32750   3.261  20.782   0.771
67766W        W32751  23.632  29.542  11.470
67767W        W32752  41.651  13.678   1.079
67768W        W32753  38.001  41.513  10.337
67769W        W32754  18.719  37.818  12.861
67770W        W32755  27.620  31.673   0.059
67771W        W32756  16.582   8.187   3.643
67772W        W32757  21.146  20.292   1.635
67773W        W32758   5.825  34.316  12.968
67774W        W32759  11.582  36.704   0.388
67775W        W32760   3.013   6.932  13.922
67776W        W32761  35.840  10.294   3.748
67777W        W32762  15.087  31.968  11.183
67778W        W32763  29.414  41.849   4.613
67779W        W32764  40.003  41.060   1.770
67780W        W32765  16.804  39.037   0.996
67781W        W32766  27.540  18.988  13.031
67782W        W32767   8.362   7.301  14.304
67783W        W32768  41.838  16.035   0.227
67784W        W32769  39.894  40.933  13.557
67785W        W32770  40.929  34.156   0.784
67786W        W32771  15.829  14.826  14.511
67787W        W32772   4.131  19.248   2.427
67788W        W32773   3.092  28.101  11.185
67789W        W32774  11.747  17.761   0.613
67790W        W32775  44.191  40.968   3.185
67791W        W32776  33.004  22.091   4.700
67792W        W32777  35.847   4.600   3.625
67793W        W32778  36.116  17.534  11.500
67794W        W32779  43.179  10.590   3.205
67795W        W32780   2.393  31.164  12.513
67796W        W32781  43.656  15.895   4.944
67797W        W32782  35.851  14.569   1.260
67798W        W32783   5.232  25.203   0.689
67799W        W32784   6.089  19.840  13.502
67800W        W32785   1.948  36.160  14.767
67801W        W32786  35.142  18.130  12.490
67802W        W32787  33.693  24.431   0.246
67803W        W32788  23.509  44.487  14.349
67804W        W32789   3.764   6.688  13.486
67805W        W32790  16.778  33.589  14.368
67806W        W32791  30.581  20.946  12.274
67807W        W32792  38.524   6.733  10.871
67808W        W32793  31.932  25.715  10.811
67809W        W32794  20.613  12.612   1.698
67810W        W32795  10.582   1.830   3.778
67811W        W32796  22.794  12.526   0.315
67812W        W32797  15.709  43.199  14.997
67813W        W32798  23.619  18.811  12.959
67814W        W32799  38.387   5.494  12.215
67815W        W32800   7.400   3.466   1.805
67816W        W32801  30.612  20.450   0.328
67817W        W32802  39.296  43.839   4.715
67818W        W32803  44.374  23.402  11.180
67819W        W32804  10.281  19.207   1.662
67820W        W32805  40.041  41.991  13.914
67821W        W32806  43.631  31.436  11.999
67822W        W32807   2.991  19.519   0.449
67823W        W32808   9.689  43.443   3.131
67824W        W32809  10.390  40.968  13.914
67825W        W32810   9.435   6.102   0.417
67826W        W32811  32.452   3.931   3.604
67827W        W32812  35.782  23.543   2.851
67828W        W32813  15.045  14.416  10.974
67829W        W32814  43.194  33.100  13.406
67830W        W32815  11.802  32.190  14.877
67831W        W32816   8.188  33.363  11.168
67832W        W32817  35.227   9.310  12.152
67833W        W32818   4.790  38.517  13.460
67834W        W32819   3.323  18.741  11.542
67835W        W32820  14.023  39.970   0.291
67836W        W32821  33.573  25.918   3.767
67837W        W32822  27.021  40.467   1.999
67838W        W32823  16.611  31.364   1.694
67839W        W32824  31.865  29.169  11.545
67840W        W32825  17.684  10.569  13.570
67841W        W32826  12.718  18.596  10.704
67842W        W32827  43.065   9.349   1.816
67843W        W32828  42.613   3.840  10.508
67844W        W32829   9.002  22.691   4.098
67845W        W32830  19.783   9.661  10.910
67846W        W32831   8.940  28.433  13.768
67847W        W32832   7.080   7.266  14.310
67848W        W32833  11.517  33.850  14.344
67849W        W32834  12.907  23.156   3.536
67850W        W32835  16.850   6.181  11.665
67851W        W32836  36.155  27.948   4.223
67852W        W32837  22.172  33.328  14.051
67853W        W32838  19.486  32.906  12.457
67854W        W32839  39.756  11.180  12.400
67855W        W32840  14.785  25.516  10.964
67856W        W32841  40.435  27.529  12.174
67857W        W32842  40.509  35.477   0.875
67858W        W32843  44.575  22.932   4.140
67859W        W32844  29.248  32.516   2.287
67860W        W32845   4.938   0.204  12.008
67861W        W32846   4.258  14.851  12.902
67862W        W32847  33.227  25.872  14.072
67863W        W32848  26.517  38.068   3.551
67864W        W32849   1.335   7.141  11.063
67865W        W32850  24.717  33.620  13.901
67866W        W32851   3.733   4.274  13.557
67867W        W32852  44.994  21.524   0.770
67868W        W32853  24.307  31.606   3.037
67869W        W32854  42.850  21.670  11.801
67870W        W32855  19.817  19.996  13.871
67871W        W32856  26.189  19.807   3.708
67872W        W32857   5.178  17.251  12.431
67873W        W32858  42.759  16.065   0.744
67874W        W32859  23.101   7.858   0.962
67875W        W32860   6.345  26.035  12.151
67876W        W32861  28.588  34.247  13.025
67877W        W32862   3.968  21.065   2.873
67878W        W32863  10.353  24.995   4.201
67879W        W32864  15.152  13.842   1.452
67880W        W32865  35.803   3.410  14.340
67881W        W32866  33.632  23.179   3.845
67882W        W32867   5.217  14.170   3.735
67883W        W32868  44.366  21.974   3.207
67884W        W32869  41.023  35.640  13.416
67885W        W32870   0.544  19.864   3.821
67886W        W32871   6.398   0.383   1.769
67887W        W32872  36.802  32.552  12.944
67888W        W32873  11.301  35.870   1.135
67889W        W32874   8.813  33.135  11.646
67890W        W32875  22.186  20.766   3.230
67891W        W32876  17.375  40.363  11.936
67892W        W32877  24.506  21.607   3.371
67893W        W32878  13.116   4.382   0.003
67894W        W32879  11.792  28.936  13.952
67895W        W32880  31.632  20.786   4.581
67896W        W32881  25.083  30.678   1.245
67897W        W32882  44.077  26.250   9.814
67898W        W32883  17.286  23.614  14.949
67899W        W32884  35.544  16.003   0.451
67900W        W32885  20.985   5.906   3.745
67901W        W32886   4.811  24.591   2.417
67902W        W32887   6.370  28.503  12.036
67903W        W32888  27.072  11.861   1.225
67904W        W32889  41.371  36.795  13.953
67905W        W32890  32.168  15.969  13.495
67906W        W32891  11.631   0.399   4.544
67907W        W32892  31.173   0.942   1.457
67908W        W32893   4.607  32.557   4.728
67909W        W32894   1.242  11.729  13.587
67910W        W32895  30.214   7.822  12.562
67911W        W32896  24.692  20.756   2.617
67912W        W32897  30.635  29.232  14.473
67913W        W32898   7.534  36.379  12.006
67914W        W32899   9.538  27.452  12.879
67915W        W32900  24.437   4.922  10.608
67916W        W32901  36.312  37.464  13.985
67917W        W32902  19.600   8.804   2.171
67918W        W32903   5.861  13.051  11.231
67919W        W32904  24.511  40.517  14.576
67920W        W32905   2.683   6.193   0.508
67921W        W32906  42.575  29.865   1.700
67922W        W32907  23.561   3.407   4.537
67923W        W32908  27.210   7.369   4.231
67924W        W32909  39.979  41.772  12.920
67925W        W32910   9.727  33.677  14.235
67926W        W32911   1.872   8.934   3.510
67927W        W32912   9.687  26.692  14.345
67928W        W32913   7.939  39.470   2.305
67929W        W32914  41.815  44.494  11.965
67930W        W32915  23.794  38.034   4.300
67931W        W32916   3.109   3.396   1.290
67932W        W32917  35.663   7.743   4.917
67933W        W32918  29.327   1.697  12.233
67934W        W32919  10.399  22.296  11.023
67935W        W32920   6.636  33.545  14.801
67936W        W32921   5.862  15.536   4.440
67937W        W32922  40.043  37.125   3.261
67938W        W32923  32.820  41.478  14.004
67939W        W32924  19.077   0.024  13.433
67940W        W32925  25.953  15.076  14.811
67941W        W32926  13.181  37.255   1.719
67942W        W32927  26.425  33.461   5.009
67943W        W32928  26.743   9.530   4.144
67944W        W32929  32.098   2.201  12.618
67945W        W32930  42.127   1.381   2.641
67946W        W32931  23.500   7.230  14.756
67947W        W32932  10.254  44.918  13.910
67948W        W32933  18.443  28.524  10.695
67949W        W32934  12.241  24.139  12.151
67950W        W32935  40.295  28.569  10.696
67951W        W32936  25.711  34.054  11.414
67952W        W32937   7.858  14.223   4.729
67953W        W32938   1.358  35.344   2.859
67954W        W32939   8.219  44.692  10.789
67955W        W32940  22.805  40.723  14.844
67956W        W32941   2.724  20.962   2.793
67957W        W32942  23.700  21.072   0.465
67958W        W32943  33.878  39.109  11.724
67959W        W32944   7.306  17.503   3.672
67960W        W32945  26.993  17.360   4.761
67961W        W32946  37.304  31.752  12.180
67962W        W32947  28.772   3.439  14.317
67963W        W32948  22.667   3.313  10.209
67964W        W32949   9.854  18.111   3.469
67965W        W32950  24.941  39.484  10.591
67966W        W32951  20.986  10.176  12.441
67967W        W32952   2.988  13.722  10.493
67968W        W32953   4.168  20.839   1.714
67969W        W32954  32.940   4.566  12.439
67970W        W32955  14.796  30.561   2.291
67971W        W32956  22.735  34.277  11.827
67972W        W32957  10.398  19.322  13.550
67973W        W32958  18.040  21.748   0.775
67974W        W32959  19.330  32.365   3.412
67975W        W32960  40.979  16.013   0.967
67976W        W32961  39.830  34.168   1.526
67977W        W32962  30.021   9.642  12.583
67978W        W32963  22.119   1.039   4.957
67979W        W32964  36.005  41.285  10.657
67980W        W32965   8.364  33.812  14.425
67981W        W32966  23.978  27.039  14.323
67982W        W32967  27.572  39.554   1.506
67983W        W32968  19.728   8.810   3.337
67984W        W32969   3.413  31.951  13.121
67985W        W32970  32.438  20.825   1.533
67986W        W32971  36.938   8.444   2.699
67987W        W32972  16.919  24.010  12.849
67988W        W32973   1.219  22.721  10.583
67989W        W32974  11.713  14.525   4.418
67990W        W32975   8.613  43.010  14.470
67991W        W32976  20.379   8.903   4.107
67992W        W32977  19.607  13.304   0.779
67993W        W32978  20.792  15.305   1.280
67994W        W32979  35.541  16.941  13.163
67995W        W32980  24.991  40.511  14.802
67996W        W32981  18.740  37.062  10.677
67997W        W32982  23.047  15.949   2.209
67998W        W32983   7.144  38.019   3.773
67999W        W32984  21.399   4.107  10.524
68000W        W32985  38.239  11.951  11.645
68001W        W32986  20.561  24.689   0.820
68002W        W32987  37.942   9.592   9.841
68003W        W32988  23.558  42.183   3.071
68004W        W32989  11.756   1.963   0.515
68005W        W32990   4.183  28.110   4.127
68006W        W32991  41.839  28.417   1.374
68007W        W32992  15.349  20.526  14.947
68008W        W32993  15.387  36.481  12.933
68009W        W32994  14.282  13.673   2.377
68010W        W32995  10.882  17.579   2.190
68011W        W32996  17.130   7.377  12.028
68012W        W32997  25.111  36.399   4.493
68013W        W32998   6.789  22.174  10.692
68014W        W32999  15.869  15.302   2.262
68015W        W33000   9.555  12.638  11.206
68016W        W33001   6.422  31.509   2.735
68017W        W33002  40.709  15.082  12.405
68018W        W33003  28.037   7.978   1.502
68019W        W33004   2.629  16.146  11.427
68020W        W33005   1.915   2.257  10.671
68021W        W33006  11.470  19.620   1.332
68022W        W33007  10.915  42.805   2.293
68023W        W33008  27.759  43.183   9.662
68024W        W33009  32.488  14.260   2.207
68025W        W33010  27.646  24.183  14.195
68026W        W33011  20.741  40.346  14.228
68027W        W33012  37.468  30.922  10.683
68028W        W33013  20.629  26.612   2.247
68029W        W33014  27.254  30.295   2.926
68030W        W33015  10.572  12.244   1.810
68031W        W33016   3.245  41.862   2.313
68032W        W33017  18.462  20.773   3.981
68033W        W33018  17.822  27.187  14.894
68034W        W33019   0.293  42.564   2.267
68035W        W33020  33.942  13.666  10.538
68036W        W33021  15.555  13.232   1.354
68037W        W33022  22.992  31.120  11.793
68038W        W33023  24.525  26.974  13.757
68039W        W33024   6.905  40.074   0.408
68040W        W33025   6.041  44.568   2.261
68041W        W33026  40.960   5.750   4.323
68042W        W33027  37.979   0.357  13.605
68043W        W33028  39.218  36.348   4.336
68044W        W33029   1.271   2.542   1.614
68045W        W33030  29.917   1.662   0.014
68046W        W33031   5.739  30.122  14.227
68047W        W33032   5.772   6.915  12.426
68048W        W33033   9.284  28.710  10.743
68049W        W33034  40.017  35.515  14.683
68050W        W33035  13.153  27.962  10.031
68051W        W33036   3.190  41.512   0.263
68052W        W33037   6.062  32.074  14.054
68053W        W33038   5.921  24.824   3.227
68054W        W33039  44.261   2.271   4.530
68055W        W33040  29.028   5.926  13.242
68056W        W33041  23.192  11.349  13.099
68057W        W33042   6.465   3.649   3.651
68058W        W33043  38.577  44.948  14.780
68059W        W33044   4.375   5.771  14.496
68060W        W33045   8.411  15.054  11.858
68061W        W33046  35.536  11.557  12.106
68062W        W33047  32.951  12.869   3.425
68063W        W33048  26.939  35.024  14.563
68064W        W33049  32.784  17.156  12.804
68065W        W33050  15.970  21.433   2.754
68066W        W33051  11.357  14.636  13.609
68067W        W33052  37.238  36.291   1.308
68068W        W33053  19.643  40.451   1.848
68069W        W33054  20.597   4.393  12.374
68070W        W33055   3.060  17.147   3.903
68071W        W33056  41.851  41.041   0.274
68072W        W33057  36.965  26.435  12.067
68073W        W33058  11.038  34.638  13.837
68074W        W33059  42.830  17.382  14.320
68075W        W33060  41.361  13.145   2.202
68076W        W33061   0.279  21.187   1.323
68077W        W33062  30.377   2.014  14.348
68078W        W33063  26.281  12.945  12.369
68079W        W33064  33.181  34.869   2.804
68080W        W33065  20.178  20.665  12.054
68081W        W33066  21.120   6.078  12.499
68082W        W33067  29.665  33.194   4.690
68083W        W33068  43.374  32.129  11.663
68084W        W33069  41.486  13.080  13.638
68085W        W33070  40.349  21.341   3.235
68086W        W33071  27.804   0.490  12.021
68087W        W33072  10.839  24.059  13.328
68088W        W33073  29.260  40.650  13.523
68089W        W33074  37.196  27.941  14.835
68090W        W33075  25.057   5.908   3.746
68091W        W33076  33.592   5.647  12.373
68092W        W33077  25.907  25.035  13.319
68093W        W33078  43.994   2.371   3.789
68094W        W33079  17.256  13.354  11.497
68095W        W33080  41.812  16.873   0.491
68096W        W33081  38.971  16.155   3.518
68097W        W33082   9.187  33.799  10.583
68098W        W33083   6.081  34.223  13.765
68099W        W33084   0.230   5.096   3.636
68100W        W33085  42.256  19.028   2.062
68101W        W33086  42.483  33.326  14.422
68102W        W33087  37.802   6.921  11.897
68103W        W33088   9.890  27.746   2.640
68104W        W33089  27.849   6.050   4.139
68105W        W33090  15.099  29.095   0.371
68106W        W33091  24.082  10.170  14.878
68107W        W33092  24.232  35.534  12.519
68108W        W33093  12.781  18.997   2.324
68109W        W33094  43.439  18.913   2.631
68110W        W33095  25.141  20.700  12.104
68111W        W33096  10.615  31.431  11.934
68112W        W33097  39.361  43.912   1.503
68113W        W33098  36.146  33.832   4.561
68114W        W33099  18.085   5.192   1.953
68115W        W33100  34.005  41.104   2.318
68116W        W33101  35.142  41.967   2.630
68117W        W33102   7.129   8.831   1.541
68118W        W33103  43.103  41.898   1.356
68119W        W33104   2.376  39.075   2.766
68120W        W33105  13.100  39.976  11.171
68121W        W33106  25.620  16.180   4.260
68122W        W33107  12.519  13.647   2.930
68123W        W33108   5.319   7.458  11.917
68124W        W33109  30.573   2.634  12.425
68125W        W33110  33.937  37.863   2.312
68126W        W33111  25.988  12.335   3.331
68127W        W33112  40.540  13.914  11.071
68128W        W33113  25.054  30.178  14.324
68129W        W33114  16.259  15.243   4.439
68130W        W33115  34.920  39.795   4.021
68131W        W33116  34.896  43.116   3.744
68132W        W33117   7.634  37.415   2.195
68133W        W33118  27.116  23.455   4.993
68134W        W33119  28.467  38.382  14.005
68135W        W33120  23.507  21.279  14.454
68136W        W33121  38.797  25.102  14.027
68137W        W33122  30.593  44.491  12.681
68138W        W33123  14.459  36.952   4.108
68139W        W33124  25.955   0.106  10.724
68140W        W33125  29.025  15.207   3.987
68141W        W33126  38.603  13.877   0.916
68142W        W33127  40.933  13.620   0.526
68143W        W33128  25.052   8.325  12.550
68144W        W33129  44.351  32.174  13.599
68145W        W33130  14.070  29.457   2.909
68146W        W33131  19.515  26.624  12.402
68147W        W33132  34.830  22.066  13.311
68148W        W33133  29.189  29.097   3.049
68149W        W33134  39.047  23.991   3.591
68150W        W33135  16.663   7.887   1.282
68151W        W33136   9.350  36.345   2.961
68152W        W33137   9.446   8.341  14.169
68153W        W33138   8.392  16.990  11.131
68154W        W33139  20.798   8.114  13.293
68155W        W33140  43.916  44.537   1.697
68156W        W33141  28.692  39.312   0.433
68157W        W33142   9.768  18.099  13.881
68158W        W33143  28.490   1.843  12.811
68159W        W33144  37.119   9.324  10.092
68160W        W33145  15.244   8.414   1.397
68161W        W33146   1.514  17.341   2.689
68162W        W33147  42.393  39.082   3.298
68163W        W33148  44.798  35.631  14.196
68164W        W33149  30.197  41.540   4.444
68165W        W33150  39.985  27.081  14.614
68166W        W33151  25.100  31.758   2.628
68167W        W33152   4.953  41.295   0.518
68168W        W33153  43.352   7.220   3.903
68169W        W33154  37.829   7.920   0.506
68170W        W33155   1.809  44.311  13.098
68171W        W33156   3.445  39.913  11.584
68172W        W33157  13.501  10.594  12.122
68173W        W33158  24.916  35.475  13.942
68174W        W33159  34.870   1.448  11.161
68175W        W33160   5.723   6.226   2.623
68176W        W33161   3.584  44.719  12.995
68177W        W33162  10.631  32.462   4.120
68178W        W33163   9.157  33.921   3.380
68179W        W33164  26.832  14.853  11.365
68180W        W33165  14.849  19.730  14.932
68181W        W33166  11.764  43.751   1.650
68182W        W33167  21.743  35.875  10.644
68183W        W33168  19.568  20.840  10.720
68184W        W33169  33.399  34.551  11.636
68185W        W33170  32.108  26.430   2.805
68186W        W33171   1.314  23.768  14.118
68187W        W33172  16.719  30.107   3.754
68188W        W33173   8.682  44.209  12.522
68189W        W33174  32.589  31.956  14.900
68190W        W33175  14.795  26.269   2.339
68191W        W33176  15.360  22.113   3.393
68192W        W33177  19.509   7.515   2.328
68193W        W33178  10.116  21.621   0.999
68194W        W33179  33.190  17.812   0.843
68195W        W33180  11.907  34.015   4.188
68196W        W33181  42.200  13.598  13.030
68197W        W33182  19.707   7.158   0.989
68198W        W33183  14.254  43.307   4.655
68199W        W33184  34.141   1.331  13.391
68200W        W33185  39.432  26.713  13.540
68201W        W33186  31.088  33.429  12.447
68202W        W33187   8.918  20.105   3.318
68203W        W33188  14.189  30.122   0.500
68204W        W33189  37.899  43.924  14.629
68205W        W33190  30.076  40.818   1.466
68206W        W33191  37.053  25.038   0.044
68207W        W33192  23.456  34.307  13.169
68208W        W33193  24.691  34.923  13.478
68209W        W33194  36.066  38.025   2.852
68210W        W33195   8.260  12.804   3.500
68211W        W33196  28.616  37.583  11.412
68212W        W33197   0.286  16.117  13.553
68213W        W33198  29.497  38.460  10.724
68214W        W33199  36.143   0.761   4.582
68215W        W33200   4.423  34.977   0.246
68216W        W33201   5.164  35.510  14.363
68217W        W33202  30.731  23.728  13.149
68218W        W33203  11.974  24.043   0.327
68219W        W33204  26.415   4.174  12.416
68220W        W33205   2.452  18.454  11.657
68221W        W33206  24.325   5.114   4.307
68222W        W33207  20.652   3.425  13.957
68223W        W33208  28.838  38.693   3.637
68224W        W33209  40.009  17.764  13.955
68225W        W33210  13.373  33.580   3.212
68226W        W33211  44.235  43.788  13.002
68227W        W33212   6.795  40.829  14.423
68228W        W33213  33.500   5.237   2.663
68229W        W33214  33.406  41.907   0.378
68230W        W33215  23.869  18.308   3.749
68231W        W33216   3.356   2.700  11.044
68232W        W33217  39.359  35.959  14.461
68233W        W33218  28.489  23.674  11.132
68234W        W33219   5.616  31.921  13.501
68235W        W33220  25.243  37.284  10.397
68236W        W33221  29.171   3.037  12.509
68237W        W33222  10.318  24.164   2.605
68238W        W33223  15.721  32.098  14.968
68239W        W33224  25.142  13.864  13.057
68240W        W33225  31.579  37.183  13.044
68241W        W33226  31.205  19.201   0.523
68242W        W33227  32.338  18.170   3.603
68243W        W33228   5.912  34.533  10.649
68244W        W33229   0.834  26.895  13.812
68245W        W33230  16.742   3.717  13.518
68246W        W33231   6.386   8.751  14.788
68247W        W33232  19.460   8.696   2.694
68248W        W33233  44.149  18.868   2.853
68249W        W33234  30.362  40.993  11.145
68250W        W33235  25.480   6.751   0.486
68251W        W33236  44.445  41.024   3.645
68252W        W33237  36.563  15.209   4.857
68253W        W33238  33.543  40.881  12.977
68254W        W33239  28.079  30.461   2.082
68255W        W33240   4.981  14.259  11.927
68256W        W33241  44.805  35.388  11.536
68257W        W33242  20.162  38.354  12.947
68258W        W33243  14.201  23.200   4.608
68259W        W33244   9.448  20.724  10.981
68260W        W33245  13.208  13.811   2.309
68261W        W33246  30.072  30.106   1.134
68262W        W33247   4.129   3.521   1.332
68263W        W33248  39.352  22.772  12.117
68264W        W33249  12.536   2.153   1.457
68265W        W33250   5.662  28.969   0.859
68266W        W33251  29.587  14.409   0.764
68267W        W33252  27.862  37.857   1.830
68268W        W33253  28.121  39.925  11.683
68269W        W33254  37.862  44.729  10.567
68270W        W33255  11.937   9.590   3.086
68271W        W33256  19.149  40.878  11.960
68272W        W33257  30.568   9.980  14.872
68273W        W33258  26.738  13.299   4.572
68274W        W33259  30.964  30.903   1.442
68275W        W33260   0.011  43.801  14.933
68276W        W33261  16.068  40.254  14.401
68277W        W33262   1.452  24.095   0.847
68278W        W33263   5.376  18.886  13.865
68279W        W33264  31.037  14.650  13.203
68280W        W33265  13.598  29.304   4.176
68281W        W33266  33.217  37.351   1.524
68282W        W33267  18.432  17.652   4.635
68283W        W33268   3.220   0.482   1.352
68284W        W33269   3.962   6.438  13.913
68285W        W33270  32.541  13.737   1.932
68286W        W33271  14.762  38.389  12.689
68287W        W33272  14.747  19.494   0.941
68288W        W33273  41.910   1.623  12.980
68289W        W33274   2.218  32.997   4.730
68290W        W33275  36.162  40.020  13.584
68291W        W33276  19.083  28.407   2.155
68292W        W33277  13.239  21.673   4.179
68293W        W33278  40.415  29.665   1.813
68294W        W33279  37.350   7.052   3.514
68295W        W33280  41.099  31.973   4.305
68296W        W33281  32.517  11.175  12.208
68297W        W33282   2.982  34.021   1.333
68298W        W33283   8.657  12.193   3.451
68299W        W33284   2.152  40.463  13.427
68300W        W33285   4.313   4.691   3.936
68301W        W33286  14.708  20.007   0.922
68302W        W33287   2.564  31.990   3.288
68303W        W33288  41.454  10.293   1.273
68304W        W33289  28.285   3.394   0.305
68305W        W33290  40.007   8.699   3.288
68306W        W33291  32.514  21.521  13.005
68307W        W33292  12.871  17.888   3.887
68308W        W33293   4.862  40.647   2.244
68309W        W33294   1.048  33.818   2.634
68310W        W33295  28.801  41.307   0.278
68311W        W33296  12.786  26.038   1.716
68312W        W33297  32.937  32.432  13.871
68313W        W33298  34.811  27.742  12.467
68314W        W33299  38.354   9.727  12.523
68315W        W33300  21.606  37.186   4.712
68316W        W33301   2.169  18.205   1.324
68317W        W33302  13.439  21.140  14.973
68318W        W33303  32.212   7.841  14.851
68319W        W33304  33.979  19.294  12.554
68320W        W33305  28.958  20.490  14.843
68321W        W33306  17.688  41.522   2.256
68322W        W33307  19.661  15.950  10.732
68323W        W33308  10.495  34.401   4.179
68324W        W33309  29.995   9.217   4.515
68325W        W33310  24.026  28.046   3.827
68326W        W33311  32.914  40.191   4.626
68327W        W33312  21.331  28.588   2.875
68328W        W33313  37.137  30.523   0.406
68329W        W33314  28.912  42.588   2.285
68330W        W33315   4.445  18.181   4.383
68331W        W33316  38.407  27.941  10.832
68332W        W33317  38.410  42.661  12.080
68333W        W33318   7.750  24.259   1.163
68334W        W33319  22.573  44.440  14.185
68335W        W33320  36.538   7.017  12.137
68336W        W33321  43.788   8.108   0.911
68337W        W33322  25.328  11.691   4.821
68338W        W33323  11.333   6.764  14.828
68339W        W33324  41.101  40.550   1.413
68340W        W33325   0.467  39.021   2.400
68341W        W33326   8.701   9.456   2.001
68342W        W33327  36.167   5.676  14.814
68343W        W33328   4.685  39.156  11.631
68344W        W33329  44.036  39.226  13.762
68345W        W33330  22.878  27.370   3.872
68346W        W33331  36.555  31.112   4.681
68347W        W33332  39.499   4.507   1.356
68348W        W33333  37.101   2.839  10.949
68349W        W33334  21.588   1.638   1.465
68350W        W33335  21.278  38.783  11.067
68351W        W33336  43.661  23.429  14.829
68352W        W33337   1.880  24.547  10.827
68353W        W33338   9.601  16.429  13.760
68354W        W33339  33.622  43.382   1.467
68355W        W33340  11.874  27.742  11.659
68356W        W33341  12.630  16.415   2.815
68357W        W33342  33.952  30.998   4.122
68358W        W33343  28.742  15.767  14.397
68359W        W33344  33.400  28.726   2.147
68360W        W33345  18.194  28.457  14.237
68361W        W33346   8.188  13.580   1.703
68362W        W33347  22.763  20.149   1.917
68363W        W33348   1.526  16.460   0.977
68364W        W33349  40.928  14.125  13.398
68365W        W33350  20.095  36.947  12.042
68366W        W33351  40.873  33.868  14.308
68367W        W33352   9.953  13.633  13.348
68368W        W33353  33.292  40.815  11.593
68369W        W33354  10.708   2.915  13.128
68370W        W33355  19.737  41.691   2.410
68371W        W33356  34.455  33.169  11.067
68372W        W33357   3.574  36.891  11.364
68373W        W33358   8.227  13.033   4.784
68374W        W33359  37.543  15.709   2.662
68375W        W33360  41.998  37.368  13.063
68376W        W33361  43.064  42.538   2.184
68377W        W33362  17.866   8.873  10.952
68378W        W33363   1.524   9.741  10.645
68379W        W33364   5.407   7.741  10.721
68380W        W33365  28.658  38.992   2.665
68381W        W33366  12.614  19.436  14.043
68382W        W33367   2.235   1.019  11.908
68383W        W33368  21.766  43.529  11.525
68384W        W33369  20.479   4.692  14.555
68385W        W33370  29.495   1.406   0.126
68386W        W33371   6.381  30.133  13.499
68387W        W33372  24.181  23.798  13.628
68388W        W33373  34.294  31.968  14.327
68389W        W33374  30.829   5.213  13.763
68390W        W33375  27.540   5.953  12.787
68391W        W33376  27.139  34.929   3.852
68392W        W33377  11.427   1.980  12.238
68393W        W33378  24.292  16.120  13.026
68394W        W33379  14.104  12.402   4.591
68395W        W33380  27.930   9.723   0.874
68396W        W33381  25.047   0.352  13.421
68397W        W33382  27.429  19.333  13.837
68398W        W33383   2.519  16.720  13.150
68399W        W33384   9.320  24.974  10.752
68400W        W33385  10.663   3.539   4.646
68401W        W33386  18.684  44.375  13.024
68402W        W33387  25.040   9.312  12.886
68403W        W33388  23.641  41.964   4.382
68404W        W33389  39.326  27.230   4.231
68405W        W33390  44.016  12.308  11.105
68406W        W33391  33.620  12.185  13.750
68407W        W33392  40.947  20.166   2.895
68408W        W33393  30.588  44.919   2.225
68409W        W33394  28.699  12.544   3.748
68410W        W33395  40.520  28.085  12.521
68411W        W33396  25.027  37.979   3.275
68412W        W33397  43.475  43.980   2.706
68413W        W33398  38.898  15.138   1.702
68414W        W33399  23.024   8.179   3.991
68415W        W33400  37.856  18.896  10.927
68416W        W33401  40.438  38.732  13.367
68417W        W33402  43.030  26.189   0.027
68418W        W33403   0.660   0.470   2.235
68419W        W33404  16.872  40.292   1.757
68420W        W33405  39.010  15.866   0.971
68421W        W33406   4.455  21.512   3.646
68422W        W33407   7.510  41.450  12.863
68423W        W33408  11.329  29.436  11.678
68424W        W33409  15.064  17.086   4.149
68425W        W33410  12.564  38.334   2.912
68426W        W33411  42.572  32.586  12.512
68427W        W33412  25.541  37.244  12.510
68428W        W33413  27.747  26.620   4.170
68429W        W33414  26.573  31.903  13.038
68430W        W33415  26.929  34.296  12.964
68431W        W33416   6.409  24.933  12.166
68432W        W33417  20.116  38.334   3.809
68433W        W33418  24.855  11.335  11.972
68434W        W33419  35.928  36.009  12.634
68435W        W33420  12.443   6.018  14.404
68436W        W33421  35.903  31.257   2.402
68437W        W33422  36.717  33.918  14.318
68438W        W33423  41.835  36.944  13.376
68439W        W33424  37.475   5.513  11.648
68440W        W33425  20.626  28.355  11.695
68441W        W33426  19.626  16.389   3.194
68442W        W33427   4.830  29.251  13.589
68443W        W33428  17.671  24.672  11.561
68444W        W33429   6.403  42.523  14.539
68445W        W33430   0.370  43.946   2.738
68446W        W33431  32.938  13.119   0.835
68447W        W33432  31.196  13.302   4.550
68448W        W33433   3.922   6.439  13.052
68449W        W33434  26.008  36.933  10.678
68450W        W33435  20.075  23.147  10.894
68451W        W33436  40.098  42.233   2.420
68452W        W33437  13.879   4.183   2.314
68453W        W33438  35.666  37.032  11.141
68454W        W33439  39.387   5.527   3.360
68455W        W33440  31.418   1.897  14.875
68456W        W33441  38.960   8.667   2.313
68457W        W33442  34.660   2.688  10.799
68458W        W33443  12.657   2.180   4.149
68459W        W33444  12.853  14.071   1.385
68460W        W33445  26.950   3.832  10.323
68461W        W33446  12.784   3.830  14.087
68462W        W33447   9.949  22.523   0.807
68463W        W33448   5.364  20.964   3.118
68464W        W33449  29.545  14.238  13.223
68465W        W33450   4.899   1.427   4.607
68466W        W33451  12.915   4.319   0.481
68467W        W33452  20.028   9.645   0.270
68468W        W33453   0.332  25.115  12.444
68469W        W33454  12.676  40.889   4.569
68470W        W33455  37.064  23.232  14.239
68471W        W33456   7.264   0.983   0.401
68472W        W33457  38.465  40.160  12.597
68473W        W33458   8.707  43.126   3.381
68474W        W33459  32.844   0.484   2.513
68475W        W33460  17.305   9.085   0.595
68476W        W33461  38.388   5.789   3.845
68477W        W33462  42.425   1.442  10.859
68478W        W33463  28.562   1.562  13.604
68479W        W33464  15.551  43.874   4.239
68480W        W33465  25.049  38.538  10.680
68481W        W33466  21.255   1.186   2.829
68482W        W33467  31.650  29.429   2.577
68483W        W33468  17.026  22.628  12.267
68484W        W33469  35.530  26.413  11.184
68485W        W33470  15.915  36.953  11.552
68486W        W33471  37.012  38.920   1.913
68487W        W33472  32.951  43.453   0.198
68488W        W33473  25.082  37.585  13.439
68489W        W33474  18.111   4.091  13.848
68490W        W33475  20.353  22.624  11.173
68491W        W33476  16.761  16.699  10.766
68492W        W33477  43.091  42.951   1.247
68493W        W33478  44.376  15.270   4.567
68494W        W33479  11.358  31.883   1.522
68495W        W33480  27.579  19.498  12.458
68496W        W33481  28.495  12.330  11.813
68497W        W33482  41.651  25.639   1.386
68498W        W33483  11.603   8.849  11.900
68499W        W33484  14.141   8.420  10.605
68500W        W33485  18.681  12.020   0.339
68501W        W33486  16.045  35.108   3.271
68502W        W33487  20.391  23.695   3.191
68503W        W33488  10.196  38.460   0.876
68504W        W33489  21.800  18.718  14.002
68505W        W33490  22.103  33.781  13.801
68506W        W33491   4.308  42.772  10.850
68507W        W33492   5.966  42.448  10.789
68508W        W33493   5.469  37.281  12.912
68509W        W33494  25.588  31.906   2.604
68510W        W33495  14.139   8.398  11.539
68511W        W33496   9.186  34.597  13.514
68512W        W33497  20.523  27.446  13.796
68513W        W33498  19.303  13.541  14.055
68514W        W33499  24.076  41.170   4.243
68515W        W33500  44.514  10.135   1.644
68516W        W33501  21.184  27.971  14.366
68517W        W33502   6.408   0.553   4.902
68518W        W33503  30.479  25.928   2.341
68519W        W33504  16.323   7.576   4.082
68520W        W33505  30.444  28.108   4.282
68521W        W33506   8.302  26.569   0.440
68522W        W33507  23.393  31.944   4.080
68523W        W33508  22.186  40.568  11.548
68524W        W33509   2.296  44.443  12.969
68525W        W33510   4.695   8.788  12.470
68526W        W33511  12.902  19.277  14.473
68527W        W33512  30.328  32.742  11.038
68528W        W33513  34.622  39.012   2.184
68529W        W33514  37.578  27.525  13.900
68530W        W33515  39.629  20.889  11.144
68531W        W33516  31.114  21.164   1.196
68532W        W33517  30.032  39.442   0.893
68533W        W33518  16.881  24.181   4.104
68534W        W33519  30.975   0.272  11.600
68535W        W33520  25.933  28.949  13.536
68536W        W33521  22.085  16.330   2.342
68537W        W33522   1.116   9.825   3.167
68538W        W33523   1.296   6.390  14.794
68539W        W33524  21.285  20.447   5.127
68540W        W33525  28.566  10.565  11.656
68541W        W33526  32.381   7.003   2.619
68542W        W33527   9.427  40.450  12.515
68543W        W33528  34.129  18.633  11.027
68544W        W33529  42.327   3.201  14.285
68545W        W33530   9.967  43.941  10.681
68546W        W33531  37.837   4.648   3.758
68547W        W33532  22.453  34.048  10.558
68548W        W33533  33.588   6.508  14.010
68549W        W33534  13.611  33.690  11.558
68550W        W33535  40.807  18.527  11.616
68551W        W33536  32.440  38.413   1.250
68552W        W33537  27.111  40.913  12.544
68553W        W33538  32.876   4.232   2.778
68554W        W33539  15.591  19.923   2.997
68555W        W33540   6.596  17.207   2.244
68556W        W33541  25.262  37.929   2.123
68557W        W33542  24.455  12.705   2.218
68558W        W33543  43.907   7.141   1.342
68559W        W33544  21.190  39.345  11.866
68560W        W33545  14.694  40.300   0.755
68561W        W33546  22.209  10.368   1.817
68562W        W33547  11.579   3.205   1.374
68563W        W33548  13.313  17.029  12.568
68564W        W33549  44.702  37.958   2.886
68565W        W33550  27.654  21.804   0.957
68566W        W33551  36.638  28.462  10.732
68567W        W33552  32.504  19.450   3.217
68568W        W33553  17.628  39.922  12.044
68569W        W33554  23.296  35.949  11.672
68570W        W33555   6.623  18.676   4.389
68571W        W33556  17.822   6.829  12.134
68572W        W33557   1.850  35.276   1.822
68573W        W33558   4.773  35.507  14.805
68574W        W33559  14.735   5.278   2.463
68575W        W33560  27.027   8.304  14.588
68576W        W33561  21.654  10.031   2.306
68577W        W33562  41.084  17.634   1.492
68578W        W33563  44.926  39.466  14.513
68579W        W33564  21.002  21.456   3.604
68580W        W33565  24.606  17.145  11.294
68581W        W33566   1.293  27.070   3.765
68582W        W33567  43.128  22.136  12.921
68583W        W33568  10.752  17.619  13.361
68584W        W33569  41.236  31.215  12.031
68585W        W33570   6.724  18.654   1.002
68586W        W33571  14.844   3.493   0.851
68587W        W33572  26.900  17.742   1.649
68588W        W33573   2.762  32.106   1.332
68589W        W33574  25.880  29.392  12.000
68590W        W33575  44.500   1.537  10.661
68591W        W33576   9.588  16.914  11.600
68592W        W33577  36.163  44.859   0.791
68593W        W33578   6.433  35.822   4.170
68594W        W33579  17.039   7.815   2.756
68595W        W33580   1.432  24.707   0.229
68596W        W33581  16.182  12.989  10.892
68597W        W33582  18.803  30.474  11.088
68598W        W33583  32.346  13.080   3.578
68599W        W33584  36.948  25.619  14.559
68600W        W33585   0.437  20.385   0.743
68601W        W33586  44.062  13.198   3.729
68602W        W33587  33.055   2.551  13.036
68603W        W33588  43.626  21.047  13.070
68604W        W33589  23.670  25.984   1.902
68605W        W33590  41.087  39.966  14.671
68606W        W33591  10.875  41.732   2.235
68607W        W33592   3.629  43.467  11.927
68608W        W33593  18.332  17.800   0.916
68609W        W33594  26.026  30.416  14.135
68610W        W33595   8.190  27.536   3.902
68611W        W33596  44.263  22.070   4.502
68612W        W33597  10.539  25.088  11.088
68613W        W33598   1.107  44.537  13.441
68614W        W33599  31.035  38.860  13.932
68615W        W33600   8.445  24.501  14.361
68616W        W33601  38.407  36.029  14.596
68617W        W33602   0.625  19.794  13.375
68618W        W33603  31.008  22.636  12.900
68619W        W33604   5.339  41.939  11.445
68620W        W33605  21.144   9.116   0.335
68621W        W33606  33.255  42.420  13.442
68622W        W33607  29.900  44.746  14.790
68623W        W33608  39.595  28.668   4.347
68624W        W33609  22.229  39.922  11.039
68625W        W33610   4.473  10.123   2.673
68626W        W33611   5.617  26.563  11.998
68627W        W33612  33.456  28.915   4.518
68628W        W33613  18.059  33.624   4.740
68629W        W33614  30.464  38.889  10.826
68630W        W33615   4.707  28.191   0.342
68631W        W33616  25.907  14.615  12.483
68632W        W33617  27.609  26.205   4.736
68633W        W33618  36.910   7.340  10.410
68634W        W33619  42.268   5.017  11.215
68635W        W33620  41.429  27.222  14.543
68636W        W33621   7.513   5.760  12.899
68637W        W33622  26.595   0.572   5.511
68638W        W33623   4.951  16.212  13.463
68639W        W33624  27.460  19.755  10.508
68640W        W33625  30.291  24.718   2.708
68641W        W33626  30.661   6.895   2.820
68642W        W33627  36.967  34.208  13.345
68643W        W33628  30.076   7.090  14.581
68644W        W33629  22.054  15.677  10.786
68645W        W33630   4.378  29.076  14.905
68646W        W33631  27.020  25.811   4.087
68647W        W33632  25.061  24.215  11.726
68648W        W33633   4.390   7.429   2.305
68649W        W33634  19.705  40.650  14.867
68650W        W33635  39.517   1.957   4.229
68651W        W33636  17.633  22.191   2.263
68652W        W33637  10.696  18.764  12.583
68653W        W33638  18.780  35.969   4.431
68654W        W33639  14.112  10.229  14.068
68655W        W33640   6.636  40.274   1.303
68656W        W33641  17.519  42.008   0.737
68657W        W33642  12.299  11.721   4.191
68658W        W33643  23.896  25.278  11.190
68659W        W33644  20.611  12.132   0.488
68660W        W33645  14.393  38.414  11.237
68661W        W33646   1.717  29.830   0.220
68662W        W33647   9.227   1.798   1.834
68663W        W33648  19.763  14.142   3.291
68664W        W33649  41.302  19.507   4.039
68665W        W33650  41.678  29.535  14.966
68666W        W33651  32.612  41.468   4.213
68667W        W33652  32.837  27.937   4.774
68668W        W33653  12.584  17.583  13.598
68669W        W33654  28.647  16.775   2.520
68670W        W33655  41.826  14.627  14.477
68671W        W33656  35.669  15.677   3.184
68672W        W33657   6.133  27.752   0.240
68673W        W33658   6.878  25.610  13.373
68674W        W33659  35.097  44.976   2.532
68675W        W33660  18.616  20.311  14.726
68676W        W33661  17.018  39.748  13.933
68677W        W33662  25.046  36.980   0.775
68678W        W33663   5.120   3.573  10.790
68679W        W33664  18.087  31.121   4.214
68680W        W33665  28.282   0.955  12.857
68681W        W33666  32.924   2.084  11.977
68682W        W33667  28.889  27.595   0.476
68683W        W33668  43.269  26.870   3.688
68684W        W33669  24.581  13.685   3.343
68685W        W33670   6.152   4.519  11.551
68686W        W33671   2.909   2.029   2.914
68687W        W33672  15.795   6.811  12.223
68688W        W33673  36.848  20.957   3.180
68689W        W33674  44.802  44.986   3.930
68690W        W33675  21.452  12.132   4.654
68691W        W33676   7.266  12.380   3.685
68692W        W33677  15.321  16.157   3.197
68693W        W33678  18.425  37.140   3.787
68694W        W33679   2.098  21.747  12.400
68695W        W33680  19.745  19.597  11.601
68696W        W33681  20.623   0.824  10.840
68697W        W33682  32.722  44.369   2.698
68698W        W33683  44.059  11.778  11.628
68699W        W33684  31.155  16.832   4.354
68700W        W33685  33.624  37.607   1.682
68701W        W33686  41.708  12.567  12.516
68702W        W33687  38.572  40.284   1.000
68703W        W33688  32.197   8.687   2.412
68704W        W33689  13.641   7.345  12.279
68705W        W33690   8.378  14.302  10.413
68706W        W33691   9.892  28.563  14.180
68707W        W33692   3.037  29.662   4.223
68708W        W33693   1.502   4.370   0.546
68709W        W33694   0.444  13.199  10.733
68710W        W33695  28.040  25.224   9.529
68711W        W33696  44.264  20.260   1.387
68712W        W33697  22.307  13.426   4.772
68713W        W33698  24.464   3.278   4.642
68714W        W33699  23.764  19.627   3.677
68715W        W33700  31.583  43.253  12.024
68716W        W33701   0.267   9.958  11.597
68717W        W33702  38.152  11.570  10.732
68718W        W33703  36.378  42.604  14.933
68719W        W33704   9.208  43.753   2.326
68720W        W33705   0.671  15.411   0.857
68721W        W33706   1.132  11.411   4.523
68722W        W33707  32.409  37.302  12.133
68723W        W33708  30.181  29.607   1.335
68724W        W33709  34.726  16.392   2.778
68725W        W33710   9.412  26.238  14.145
68726W        W33711   3.374  24.419   2.725
68727W        W33712  35.943  32.337  10.752
68728W        W33713  24.593  37.853  13.400
68729W        W33714  43.165  31.606  11.950
68730W        W33715  27.540   4.940   1.928
68731W        W33716  30.855  12.880   3.104
68732W        W33717  28.016  27.942  12.990
68733W        W33718   2.895  12.673   4.392
68734W        W33719  10.178  31.211   1.922
68735W        W33720  44.296  27.298   2.277
68736W        W33721  24.977  30.834  12.310
68737W        W33722  11.461  21.364   0.904
68738W        W33723  22.735  44.256   4.796
68739W        W33724  20.946  18.231   1.222
68740W        W33725   0.481  27.244   3.241
68741W        W33726   6.149  28.939  10.333
68742W        W33727  27.250  43.493  12.001
68743W        W33728  39.601  22.020  13.874
68744W        W33729  17.668  21.223   4.355
68745W        W33730  11.811  24.918   0.319
68746W        W33731  15.323   3.686   1.231
68747W        W33732  16.353  16.410  13.387
68748W        W33733  43.419  25.053  13.541
68749W        W33734  10.092   7.269  12.962
68750W        W33735  33.993  23.728  12.009
68751W        W33736   1.925  33.024   4.260
68752W        W33737   9.201  10.234  11.587
68753W        W33738   6.532   0.877  11.164
68754W        W33739  28.235  34.392   2.731
68755W        W33740  12.610  12.415  14.953
68756W        W33741   2.296  26.277   1.783
68757W        W33742  26.469  37.363  13.358
68758W        W33743  20.703   3.829   1.126
68759W        W33744  11.638  19.164  11.056
68760W        W33745   7.897  42.395  11.854
68761W        W33746  16.275  37.927  12.356
68762W        W33747  28.900  14.166   1.228
68763W        W33748  34.922  13.082   0.880
68764W        W33749   5.385  19.647   0.923
68765W        W33750  30.359  37.661   3.885
68766W        W33751   5.307  38.471   3.059
68767W        W33752   7.070  23.630  14.328
68768W        W33753  15.390   8.485   0.269
68769W        W33754  26.183  42.765   0.182
68770W        W33755  29.006  27.043   0.643
68771W        W33756  38.462  33.401   1.325
68772W        W33757   8.360  20.452  13.974
68773W        W33758  40.221   2.261   0.392
68774W        W33759  36.433  30.059   0.485
68775W        W33760   7.342  12.418  11.567
68776W        W33761   3.302   5.158   1.627
68777W        W33762  41.267  14.666  10.167
68778W        W33763  14.275   9.733   3.333
68779W        W33764   9.969   2.847   2.091
68780W        W33765  21.774   3.452   0.962
68781W        W33766   3.435  13.947  10.308
68782W        W33767   2.974  33.456   3.658
68783W        W33768  29.130  32.908  10.939
68784W        W33769  33.473  13.341   4.175
68785W        W33770  27.237   7.331  14.525
68786W        W33771  43.077  44.017  10.770
68787W        W33772  13.057  33.339   4.559
68788W        W33773  27.288  32.954  14.702
68789W        W33774  16.406  15.984  12.474
68790W        W33775  43.880  38.592   3.746
68791W        W33776  23.684  29.024   3.622
68792W        W33777   4.173   1.728   2.614
68793W        W33778  24.456  41.147   1.286
68794W        W33779  13.284  10.526   3.645
68795W        W33780   3.335  28.501   0.802
68796W        W33781  11.817   1.910  11.494
68797W        W33782   3.207  33.764   0.944
68798W        W33783  41.303  35.864   1.330
68799W        W33784  25.223  17.295   1.973
68800W        W33785  17.284   9.966   3.585
68801W        W33786  19.275  28.033  14.059
68802W        W33787  39.012  28.698   2.104
68803W        W33788  31.541  18.836   0.012
68804W        W33789  42.846  43.581  11.923
68805W        W33790   3.937  22.775  12.006
68806W        W33791  30.081  35.447   1.707
68807W        W33792   4.808  17.778  10.696
68808W        W33793  44.394  15.249  10.789
68809W        W33794  32.583   5.306  11.514
68810W        W33795  28.975  12.333   1.041
68811W        W33796  15.833  26.453   4.100
68812W        W33797  19.712  10.321  14.811
68813W        W33798  25.539  20.499   4.169
68814W        W33799   4.344  24.988   1.244
68815W        W33800  13.250   7.459  13.905
68816W        W33801  15.529  34.130   2.381
68817W        W33802  12.710  24.157  11.925
68818W        W33803  36.612  40.082  11.143
68819W        W33804  21.698  10.403  14.758
68820W        W33805  22.791  40.726  13.930
68821W        W33806   5.725  31.387   1.224
68822W        W33807  25.433  13.270  13.986
68823W        W33808   2.727  16.861  10.571
68824W        W33809  37.479  21.700  14.684
68825W        W33810  11.090  19.146   4.486
68826W        W33811  42.670  34.408   4.046
68827W        W33812   1.483  14.014   3.338
68828W        W33813   2.597  15.121   3.290
68829W        W33814   3.956  43.343  12.490
68830W        W33815  37.642  41.009  12.047
68831W        W33816  17.057  38.177   1.457
68832W        W33817  43.906  11.719   0.247
68833W        W33818  13.156  30.117   0.692
68834W        W33819   1.170   1.992   4.036
68835W        W33820  29.140  42.789  12.679
68836W        W33821   4.880  33.031  14.827
68837W        W33822  37.947  44.061  14.129
68838W        W33823  42.947  21.192   4.299
68839W        W33824  25.319  33.984   0.222
68840W        W33825  16.853  19.401   5.101
68841W        W33826  23.460  40.448   4.125
68842W        W33827  27.736   4.342  12.052
68843W        W33828  39.883  43.684   0.305
68844W        W33829  30.142  23.093  13.749
68845W        W33830  44.824  22.975   0.010
68846W        W33831  31.142  28.095  10.198
68847W        W33832   7.363   3.563   9.775
68848W        W33833  20.247  25.787  12.093
68849W        W33834  24.085   8.324   1.105
68850W        W33835  25.215   8.421   3.151
68851W        W33836  25.566  40.118   4.685
68852W        W33837  25.881   8.408  12.459
68853W        W33838  26.772  18.255   0.843
68854W        W33839  43.525   0.001   2.785
68855W        W33840  25.248  13.332  10.805
68856W        W33841  16.588   3.974   1.447
68857W        W33842  24.950  14.151  14.809
68858W        W33843  34.003  16.598  12.572
68859W        W33844   8.910   5.081   2.543
68860W        W33845  25.803  29.181   1.374
68861W        W33846   2.030   5.476  13.958
68862W        W33847  42.273  35.659  13.864
68863W        W33848  29.669  38.874   1.032
68864W        W33849  27.163  44.533  13.871
68865W        W33850  31.799   7.515   4.520
68866W        W33851   5.953   2.561  10.766
68867W        W33852  42.024  38.132   3.326
68868W        W33853   6.740   9.651  14.881
68869W        W33854   3.977  25.468  12.640
68870W        W33855  18.486  13.332   0.810
68871W        W33856  22.370  37.541   0.316
68872W        W33857  19.539   5.929   2.296
68873W        W33858  37.537  22.734  12.107
68874W        W33859   1.592  19.806   1.672
68875W        W33860  15.681  24.445  12.357
68876W        W33861  11.438  36.296  13.459
68877W        W33862  10.911  19.269  13.463
68878W        W33863  32.022   8.346   1.716
68879W        W33864   8.904   1.630   4.755
68880W        W33865  32.975  33.692  13.529
68881W        W33866  19.768  28.654  10.703
68882W        W33867  44.235  30.010   4.130
68883W        W33868  32.957  44.782  11.633
68884W        W33869   4.986   0.319   2.810
68885W        W33870  38.434   0.033   0.738
68886W        W33871  39.983  29.468   2.005
68887W        W33872  36.157   9.755  13.450
68888W        W33873   8.959  18.723   3.778
68889W        W33874  26.873  38.085  11.456
68890W        W33875  42.606  22.168   1.579
68891W        W33876  11.100   8.736  11.010
68892W        W33877  27.161  43.282   3.708
68893W        W33878   1.154  28.187  14.948
68894W        W33879  21.016  38.609  14.676
68895W        W33880  33.586  20.085  12.436
68896W        W33881  22.051  31.213  13.884
68897W        W33882  35.241  11.159   1.691
68898W        W33883  19.049   2.620   5.025
68899W        W33884  18.125   0.307   3.688
68900W        W33885  28.140  10.942  13.967
68901W        W33886  38.959  15.560  12.449
68902W        W33887  24.993  16.337  13.797
68903W        W33888   9.753  44.366  12.999
68904W        W33889  14.854   0.951  11.096
68905W        W33890  28.107  25.548  11.982
68906W        W33891  43.335   2.930   0.312
68907W        W33892   7.827  26.774   4.670
68908W        W33893   0.303  23.303  10.646
68909W        W33894  39.668  23.177  10.701
68910W        W33895  34.888  25.698  12.152
68911W        W33896  26.067  27.515  13.309
68912W        W33897  20.191   5.746   3.214
68913W        W33898  36.583  38.896  12.410
68914W        W33899  13.313  23.952   0.843
68915W        W33900  17.310  13.630  11.979
68916W        W33901  33.879  28.772   2.843
68917W        W33902  18.502  42.265  14.285
68918W        W33903  30.825  35.451   0.572
68919W        W33904   7.473  39.495  12.143
68920W        W33905  43.458  20.130   0.836
68921W        W33906   0.306  42.045   2.275
68922W        W33907  22.557  40.841  10.785
68923W        W33908   2.560  43.698   4.322
68924W        W33909  41.558  32.607  12.558
68925W        W33910  43.831  26.356  13.665
68926W        W33911  14.245  26.455   4.414
68927W        W33912   5.663  33.131   0.532
68928W        W33913  19.037  14.169  14.866
68929W        W33914   9.265  31.812  13.241
68930W        W33915   7.107  21.614   2.497
68931W        W33916  17.747   4.178  11.187
68932W        W33917  10.949  31.140   2.097
68933W        W33918   6.914  21.663   0.932
68934W        W33919  10.740  16.206  13.016
68935W        W33920  12.605  27.967   1.185
68936W        W33921  11.769  25.229   0.876
68937W        W33922  11.601   4.428   1.771
68938W        W33923  42.376  13.381   1.771
68939W        W33924  14.360  15.129  13.011
68940W        W33925  10.640  19.877   4.110
68941W        W33926   6.407   6.036   1.677
68942W        W33927  22.931  30.140   2.042
68943W        W33928  37.475  24.702   4.138
68944W        W33929  43.838  41.079  13.305
68945W        W33930  14.325  40.975   4.149
68946W        W33931  41.463  34.515  12.076
68947W        W33932  21.222  26.445   3.822
68948W        W33933  17.255  32.016   4.718
68949W        W33934   2.213   3.988   0.427
68950W        W33935  22.151  22.702  11.634
68951W        W33936  30.969  28.404  14.362
68952W        W33937  12.775  36.881  13.469
68953W        W33938  28.938  37.980  10.504
68954W        W33939  18.507  27.163   0.784
68955W        W33940  18.814   1.033  13.863
68956W        W33941  18.610  31.085  10.020
68957W        W33942  39.652   2.389   2.891
68958W        W33943   3.255  36.036  10.854
68959W        W33944   7.754  43.548   0.499
68960W        W33945  36.773   4.436  12.632
68961W        W33946  31.097   2.802  11.706
68962W        W33947   3.898  16.971   1.412
68963W        W33948  39.557  28.509  12.935
68964W        W33949  15.705  22.490  13.562
68965W        W33950  28.535  24.037   2.656
68966W        W33951  21.557  32.621   0.869
68967W        W33952   5.321   7.144  12.309
68968W        W33953  12.886  42.985  13.004
68969W        W33954  32.179  22.185  11.753
68970W        W33955  32.407  36.257  14.364
68971W        W33956   3.974  27.398   3.555
68972W        W33957  33.136  38.538   3.649
68973W        W33958   7.969  19.238   4.999
68974W        W33959  23.011   9.710  11.179
68975W        W33960   4.368  11.108   1.188
68976W        W33961  24.302  40.950  12.883
68977W        W33962  13.823  17.738  13.056
68978W        W33963   3.569   7.395   2.659
68979W        W33964  36.452  12.479   4.055
68980W        W33965  30.487   3.504   1.479
68981W        W33966  16.828   8.707  11.783
68982W        W33967  31.092   7.384  12.151
68983W        W33968   9.926   8.231  13.981
68984W        W33969  44.092  10.691   2.502
68985W        W33970  12.892  19.306   2.735
68986W        W33971  19.324  14.625   4.587
68987W        W33972  25.022  18.496  13.365
68988W        W33973   5.774  14.708  13.723
68989W        W33974  33.340  25.194  11.271
68990W        W33975  17.852   1.828   4.153
68991W        W33976  11.751  44.513   1.254
68992W        W33977  13.049  18.945   4.147
68993W        W33978  33.281  31.974   0.829
68994W        W33979  20.929  23.154  10.441
68995W        W33980  35.451   2.833  12.811
68996W        W33981  30.038  38.451   4.542
68997W        W33982  29.577  10.326   3.592
68998W        W33983  39.624  15.166   3.618
68999W        W33984  41.046  39.110   4.436
69000W        W33985   0.764  36.093   2.242
69001W        W33986  44.090   1.135   3.841
69002W        W33987  28.713  31.612  14.010
69003W        W33988   8.914  42.265  11.580
69004W        W33989  38.089   9.095  12.556
69005W        W33990  15.136  15.705   4.563
69006W        W33991  40.624  35.931   1.923
69007W        W33992  38.070  37.231  14.817
69008W        W33993  18.794  22.452  14.905
69009W        W33994  33.158  10.403   3.647
69010W        W33995  11.655  34.581   2.162
69011W        W33996  37.569  34.803  10.832
69012W        W33997  23.468  40.119  12.948
69013W        W33998  17.820  16.867  10.684
69014W        W33999  35.064  33.981  13.456
69015W        W34000  30.189  20.130  11.195
69016W        W34001  18.147   2.441  10.772
69017W        W34002  13.529  39.520   3.763
69018W        W34003   1.860  20.542   1.246
69019W        W34004  21.736  22.575   2.406
69020W        W34005   8.600   8.108   1.709
69021W        W34006   7.671  31.695  13.937
69022W        W34007  40.553  26.418   1.922
69023W        W34008  18.381   1.986   4.568
69024W        W34009  18.226   6.732   2.821
69025W        W34010   1.904  40.505   0.728
69026W        W34011   6.776   5.225   1.747
69027W        W34012  41.735  20.640  14.521
69028W        W34013  17.502  34.284   1.897
69029W        W34014  12.190  44.566  12.523
69030W        W34015  12.327  23.024  11.959
69031W        W34016  30.544  40.666  10.791
69032W        W34017  10.777  14.510  10.961
69033W        W34018   8.472  38.063   3.484
69034W        W34019  26.287   6.701  13.301
69035W        W34020  10.848  12.803   0.408
69036W        W34021  34.045  15.636  12.223
69037W        W34022  31.940  41.940  11.246
69038W        W34023   6.252  37.032  10.922
69039W        W34024  21.509  29.239   3.694
69040W        W34025  44.866  36.433  11.261
69041W        W34026  10.351  14.685   1.252
69042W        W34027  35.032   1.863   2.918
69043W        W34028  31.456  37.771  13.362
69044W        W34029   3.163  40.995   0.797
69045W        W34030  10.642  38.401   4.488
69046W        W34031  18.844  28.464   0.415
69047W        W34032  17.594  24.003   2.136
69048W        W34033  28.003  32.046   0.088
69049W        W34034  35.976  32.354  13.432
69050W        W34035  22.356  30.376  14.918
69051W        W34036   5.127  10.244  11.592
69052W        W34037  42.083  10.596   2.377
69053W        W34038   5.433  29.129  11.535
69054W        W34039  40.975  33.730  10.177
69055W        W34040   9.786  24.507  12.077
69056W        W34041  30.253   8.469  13.802
69057W        W34042  17.762  22.556  11.046
69058W        W34043   0.907   7.183   3.564
69059W        W34044  13.607  22.755  14.740
69060W        W34045  29.530  43.092  12.503
69061W        W34046  39.667  28.272  14.031
69062W        W34047  26.678  29.451  12.976
69063W        W34048  21.164  36.134  12.397
69064W        W34049  37.750  44.950  12.894
69065W        W34050   1.694  18.965   1.336
69066W        W34051   2.879   4.161  13.185
69067W        W34052  35.457  20.669  11.086
69068W        W34053  16.641  21.583  14.523
69069W        W34054  34.988  29.999   4.137
69070W        W34055  18.936  18.995   2.479
69071W        W34056  16.263  37.941  10.936
69072W        W34057   4.389  32.452  11.981
69073W        W34058  20.261  43.396  14.054
69074W        W34059  41.151  33.618   3.675
69075W        W34060  30.278   4.797   5.077
69076W        W34061  41.108  19.236  13.034
69077W        W34062  18.552  38.310  12.918
69078W        W34063  31.902   1.733  14.958
69079W        W34064   9.185  29.926  13.008
69080W        W34065  30.077  41.863   2.753
69081W        W34066   8.494  15.809   1.851
69082W        W34067  22.307  33.637   3.339
69083W        W34068  30.173   1.909  13.476
69084W        W34069  16.958   7.215  14.986
69085W        W34070  22.610  37.555   3.672
69086W        W34071  20.694  29.446   3.217
69087W        W34072   4.811   4.050  10.200
69088W        W34073  30.995   1.540   3.083
69089W        W34074   4.284  10.734  10.515
69090W        W34075  17.163  43.238  13.192
69091W        W34076  31.087  15.934   5.314
69092W        W34077  33.592  41.575  11.114
69093W        W34078  41.526  29.522   2.869
69094W        W34079  14.216  44.029   0.868
69095W        W34080  44.571   0.856  12.456
69096W        W34081   8.124  38.017  10.648
69097W        W34082  41.476  13.417   1.768
69098W        W34083  40.774  16.098   2.311
69099W        W34084   4.465  36.110  13.909
69100W        W34085  31.184  43.771  11.577
69101W        W34086  35.631  11.899  11.738
69102W        W34087  44.462  15.604  14.115
69103W        W34088   2.667  30.689  13.219
69104W        W34089  18.401  25.726  11.077
69105W        W34090  37.246  39.499  12.243
69106W        W34091  23.487  17.597  14.478
69107W        W34092  20.127  13.728  11.051
69108W        W34093  24.431  13.164  13.893
69109W        W34094  39.982  13.124  11.668
69110W        W34095  31.833   6.040   1.822
69111W        W34096   7.223  24.911   1.022
69112W        W34097  21.966  31.549   4.646
69113W        W34098  12.623  22.682   4.857
69114W        W34099  42.978  22.199  14.262
69115W        W34100  26.017   3.925  14.450
69116W        W34101   1.015  20.551   0.253
69117W        W34102  15.961  41.457  13.796
69118W        W34103  31.589   2.928  11.936
69119W        W34104  14.741   1.552   0.748
69120W        W34105  14.146   5.935   2.635
69121W        W34106  34.921  20.506   4.345
69122W        W34107  13.735   5.735  12.433
69123W        W34108  11.890  43.904  14.001
69124W        W34109  10.886  14.358   4.050
69125W        W34110  28.787  44.271  13.443
69126W        W34111  36.082  14.890   3.217
69127W        W34112  41.606  41.078  14.006
69128W        W34113  44.470  34.493   5.450
69129W        W34114  30.414  18.103  10.535
69130W        W34115   6.017  37.128  13.502
69131W        W34116   1.337  38.009  14.026
69132W        W34117  40.967  36.214   2.275
69133W        W34118  21.346  19.606   1.228
69134W        W34119   2.196  13.889  12.067
69135W        W34120  29.037  13.756   3.627
69136W        W34121  39.940  37.309  13.793
69137W        W34122  35.993  17.239  13.958
69138W        W34123  25.502   5.548   1.452
69139W        W34124  21.689  18.308  11.231
69140W        W34125  20.000   4.446  14.511
69141W        W34126   8.957   8.830   0.367
69142W        W34127  12.161  32.868  11.169
69143W        W34128  20.248  28.446  10.733
69144W        W34129  41.627  21.235  10.394
69145W        W34130  44.387   8.153   1.366
69146W        W34131   1.433   9.159  14.531
69147W        W34132  26.849   6.268   0.386
69148W        W34133   2.986   8.436  12.047
69149W        W34134   7.358  16.169  11.578
69150W        W34135  12.230  41.696  12.772
69151W        W34136  19.579  21.544   2.016
69152W        W34137  18.707  39.885  14.412
69153W        W34138  13.625   5.601   3.297
69154W        W34139   5.318  21.374   2.776
69155W        W34140  18.666  14.898   3.838
69156W        W34141  40.105   6.689  13.961
69157W        W34142   2.771   8.614   0.345
69158W        W34143   1.353  16.468  11.587
69159W        W34144  41.552  38.475   0.904
69160W        W34145   6.689  44.903  14.994
69161W        W34146  17.705  41.067  14.868
69162W        W34147  37.474  12.087  13.535
69163W        W34148  42.555   7.511   2.258
69164W        W34149  34.599   8.405  11.686
69165W        W34150  22.278   2.101   2.152
69166W        W34151   0.840  26.259  13.001
69167W        W34152   9.804  31.006  11.913
69168W        W34153  34.958  11.664  11.516
69169W        W34154  28.552  18.545   1.852
69170W        W34155  33.468  17.997  11.143
69171W        W34156  17.878  33.405   3.441
69172W        W34157  27.028  44.040  13.837
69173W        W34158  20.593  11.678  11.478
69174W        W34159   5.835  31.681   2.220
69175W        W34160  40.931  29.082  11.736
69176W        W34161  20.726  17.671   3.114
69177W        W34162  23.667  23.660  11.162
69178W        W34163   2.018   1.249  13.635
69179W        W34164   3.380  24.769  11.906
69180W        W34165   7.136  27.610  10.870
69181W        W34166  42.605  38.350   2.883
69182W        W34167   6.868  13.547   2.616
69183W        W34168  18.544  18.186   0.662
69184W        W34169  34.780  34.543   2.678
69185W        W34170   8.365  42.954  13.493
69186W        W34171  22.025  25.925  12.151
69187W        W34172  20.055  44.714  13.469
69188W        W34173  11.294  17.867  14.958
69189W        W34174   6.206  34.338   1.777
69190W        W34175  37.971  30.514   3.658
69191W        W34176  30.755  44.293  14.518
69192W        W34177  12.606   1.860   0.470
69193W        W34178  33.069  34.800  11.947
69194W        W34179  12.836  31.973   0.468
69195W        W34180  40.240  30.555  11.202
69196W        W34181  16.740  16.097  14.480
69197W        W34182  30.212   6.608   2.812
69198W        W34183  34.411  34.497   4.581
69199W        W34184  31.556  31.341   3.349
69200W        W34185  40.513  33.498  12.944
69201W        W34186   4.249   4.194   0.654
69202W        W34187  19.952   5.878  14.375
69203W        W34188   2.300  10.709  14.810
69204W        W34189  26.566   6.440  12.428
69205W        W34190  22.730  40.315   0.208
69206W        W34191  19.895  11.586   1.992
69207W        W34192   0.094   3.006   3.120
69208W        W34193   3.570  18.154  10.665
69209W        W34194   1.842  39.548  13.518
69210W        W34195   2.442  26.581   1.349
69211W        W34196   7.412  33.257  12.689
69212W        W34197   2.956  13.646   4.046
69213W        W34198   1.346  20.660   0.656
69214W        W34199  29.675   0.824  14.395
69215W        W34200  35.071  23.433   2.284
69216W        W34201   0.863  18.758  14.765
69217W        W34202  34.100  20.340  14.077
69218W        W34203  37.071  15.514   1.744
69219W        W34204  23.658   4.170  10.711
69220W        W34205  34.204  36.962  11.048
69221W        W34206  32.140  20.061  12.533
69222W        W34207  10.086  12.198  14.018
69223W        W34208  23.995  44.227   5.181
69224W        W34209   3.774  13.353  13.033
69225W        W34210   2.429   9.391   1.213
69226W        W34211  11.152  37.899  11.505
69227W        W34212  24.222  12.307   1.389
69228W        W34213   4.846  17.459   2.332
69229W        W34214  14.461  34.438  12.495
69230W        W34215  27.026  26.119  10.299
69231W        W34216  19.321  17.803   0.434
69232W        W34217  44.389  13.993   4.041
69233W        W34218  10.732  15.087   0.919
69234W        W34219  44.388  25.191  12.917
69235W        W34220  31.153  35.846  12.028
69236W        W34221   9.636   7.745  11.281
69237W        W34222  29.877  10.332   2.589
69238W        W34223  29.477  28.144   2.317
69239W        W34224  12.592  25.485   4.865
69240W        W34225  11.801  32.176   2.211
69241W        W34226  41.664  19.520  11.542
69242W        W34227   4.704   3.497  11.957
69243W        W34228   1.371  16.682   4.678
69244W        W34229  38.228  20.256   3.280
69245W        W34230   4.814  38.147  14.787
69246W        W34231  16.106  39.400   4.488
69247W        W34232   5.603  42.350   0.176
69248W        W34233   9.440  19.589  12.838
69249W        W34234  17.277  12.078  11.981
69250W        W34235  11.261   5.445   2.304
69251W        W34236  22.720   1.179  10.536
69252W        W34237  22.531   3.876   3.424
69253W        W34238  11.614  13.214  14.026
69254W        W34239  34.104   5.538   0.866
69255W        W34240  10.426  33.755   2.795
69256W        W34241  16.223  10.716   0.293
69257W        W34242   8.275   0.332   3.799
69258W        W34243  43.075  34.870   3.226
69259W        W34244  31.845   5.562  11.463
69260W        W34245   0.900  37.036  14.986
69261W        W34246  30.039  15.271   4.597
69262W        W34247  37.414  13.891   4.132
69263W        W34248  18.361  25.134  11.710
69264W        W34249  18.217  18.546  11.675
69265W        W34250   3.486  31.954   1.250
69266W        W34251  25.654   2.072   2.240
69267W        W34252  14.283  32.514   1.983
69268W        W34253   4.459  14.578  12.111
69269W        W34254  20.946  27.692   4.139
69270W        W34255  19.751  37.023  14.946
69271W        W34256  44.492  38.062   1.904
69272W        W34257  19.466  23.273   1.212
69273W        W34258  24.118  19.738   3.200
69274W        W34259  18.487  37.905   3.262
69275W        W34260  41.142   4.352   3.635
69276W        W34261  12.634  43.351  10.666
69277W        W34262  19.884  10.330   0.744
69278W        W34263  43.741  27.691  12.447
69279W        W34264  39.563  40.522  13.720
69280W        W34265   6.669  25.596   2.069
69281W        W34266  32.063  19.518   0.296
69282W        W34267  39.862  20.040   0.751
69283W        W34268  11.634  34.394   1.696
69284W        W34269  44.715   0.495   2.022
69285W        W34270  37.965  30.997  12.492
69286W        W34271  38.983  21.944   2.089
69287W        W34272  34.878  20.661  14.912
69288W        W34273  28.426  23.094   2.401
69289W        W34274  11.559   2.491  12.181
69290W        W34275  43.016  30.536  14.307
69291W        W34276   1.412   7.211   0.283
69292W        W34277  18.260  22.543   1.614
69293W        W34278  16.655  29.628   5.527
69294W        W34279  24.975  12.201   4.072
69295W        W34280  44.869  16.272  14.441
69296W        W34281  17.816  29.039  11.554
69297W        W34282  27.620  21.552   1.437
69298W        W34283  32.689  30.881  14.914
69299W        W34284  40.259  41.499   1.969
69300W        W34285  10.623  39.078  10.036
69301W        W34286   7.228  41.932  12.954
69302W        W34287  16.835  31.655  14.463
69303W        W34288  31.150  22.432  10.949
69304W        W34289  38.710  38.420  14.540
69305W        W34290  39.388  44.525   4.123
69306W        W34291  20.362  40.476   4.645
69307W        W34292  37.103  39.020   3.837
69308W        W34293  27.661  20.333  14.670
69309W        W34294   9.640  11.713  10.727
69310W        W34295  33.841  34.123   4.155
69311W        W34296   4.690  25.442   2.127
69312W        W34297  27.539  29.173  14.798
69313W        W34298  23.327   2.245  10.765
69314W        W34299  13.700   6.508   3.716
69315W        W34300  30.804  16.748  10.722
69316W        W34301  18.205  18.322  14.308
69317W        W34302   6.683  24.971  12.637
69318W        W34303   7.519  28.025   4.128
69319W        W34304  44.469  24.683   9.883
69320W        W34305  19.191  21.770  12.846
69321W        W34306  21.586  14.339   4.273
69322W        W34307   0.985  16.728  11.968
69323W        W34308   7.486  24.691  13.459
69324W        W34309  20.516  32.405   1.219
69325W        W34310   3.806  41.712  11.653
69326W        W34311  14.758  36.894   2.753
69327W        W34312  25.524  23.497  14.536
69328W        W34313   0.507  29.012   1.316
69329W        W34314  39.334  11.263   2.352
69330W        W34315  38.611  28.396   2.301
69331W        W34316   1.695   8.138   4.558
69332W        W34317  17.642  20.949  14.929
69333W        W34318  13.006  21.789   2.855
69334W        W34319  39.815  44.691  11.521
69335W        W34320  41.270  40.754   0.924
69336W        W34321  30.945   3.904   2.118
69337W        W34322  31.301  28.829  13.454
69338W        W34323  22.213  24.170   1.241
69339W        W34324   2.416   2.818   0.660
69340W        W34325   7.174   4.919  12.411
69341W        W34326  14.771  23.577   0.764
69342W        W34327   0.768  12.151   1.600
69343W        W34328  39.519  36.442   0.630
69344W        W34329  11.589  38.616  12.722
69345W        W34330  37.867  20.782   4.440
69346W        W34331  42.991  38.805   1.339
69347W        W34332  27.092  42.867   4.231
69348W        W34333  27.191  11.271  13.747
69349W        W34334  19.552  26.086  13.226
69350W        W34335   1.750   5.322  11.157
69351W        W34336  32.310  34.298   1.625
69352W        W34337  38.793  44.161  14.047
69353W        W34338  44.693  31.521  10.604
69354W        W34339  44.222  41.445  12.273
69355W        W34340  39.703   5.721  13.304
69356W        W34341   3.262  34.605  11.082
69357W        W34342  29.247  26.664  10.793
69358W        W34343   2.721   7.385   3.235
69359W        W34344  43.982  22.527   2.792
69360W        W34345  19.720  43.121  10.692
69361W        W34346  18.051  34.840  13.115
69362W        W34347  40.488  31.839   1.447
69363W        W34348  27.346  41.411   1.604
69364W        W34349  27.662  16.273  13.149
69365W        W34350  23.141  19.305  10.696
69366W        W34351  16.699  13.809   3.072
69367W        W34352  38.214  18.231   1.340
69368W        W34353  18.491  15.336  11.073
69369W        W34354  22.610   2.910   0.819
69370W        W34355  36.612   6.670   0.799
69371W        W34356  32.345  21.849  11.400
69372W        W34357  43.102   5.772   4.058
69373W        W34358   8.678  36.046   1.919
69374W        W34359  31.095  43.266  12.594
69375W        W34360  21.491  41.529  11.629
69376W        W34361  16.541  26.683   0.323
69377W        W34362  40.310   0.987  10.760
69378W        W34363  27.394  18.163   3.201
69379W        W34364  14.067   7.899  11.548
69380W        W34365   8.793   4.706   1.711
69381W        W34366  24.052  11.201   2.291
69382W        W34367  14.074  15.609   3.351
69383W        W34368   9.473   3.243  11.003
69384W        W34369  11.901  12.427  10.793
69385W        W34370  11.026  32.731  12.986
69386W        W34371  34.066  34.399   1.373
69387W        W34372  35.037   1.845   0.657
69388W        W34373   5.478  31.525   0.785
69389W        W34374  18.061  35.018   2.729
69390W        W34375  15.822  17.059   4.521
69391W        W34376  24.092  36.826  13.389
69392W        W34377  27.045  40.331  11.229
69393W        W34378  39.692  34.352  10.900
69394W        W34379  28.171   6.392   4.381
69395W        W34380  28.741  12.860  14.004
69396W        W34381  25.285   1.922   1.228
69397W        W34382  39.235  14.807   2.741
69398W        W34383  43.014  24.686  10.691
69399W        W34384  43.039   4.344  12.609
69400W        W34385  44.847  35.879  12.473
69401W        W34386  34.846  13.819   0.253
69402W        W34387   8.302   2.790   4.635
69403W        W34388  32.783   6.435  13.339
69404W        W34389   6.049  39.926   0.474
69405W        W34390  27.075   9.719  10.720
69406W        W34391  39.316  34.864  11.648
69407W        W34392   9.777  35.783  14.941
69408W        W34393  33.329   4.430  10.322
69409W        W34394  35.928  20.299  14.242
69410W        W34395  18.026  32.085   4.294
69411W        W34396  18.671   0.432  14.549
69412W        W34397  38.530   5.812  12.616
69413W        W34398  10.114  14.629   0.755
69414W        W34399  18.768  43.793  11.160
69415W        W34400  25.462  33.547  11.263
69416W        W34401   4.397   0.731  12.439
69417W        W34402  20.668  23.792   1.412
69418W        W34403  28.649  19.701   4.589
69419W        W34404  38.658   0.531   2.727
69420W        W34405  26.935   4.389  14.712
69421W        W34406  10.841  42.778   3.642
69422W        W34407  16.983  44.115   0.768
69423W        W34408  42.079  10.806  13.605
69424W        W34409  41.450   6.328   3.004
69425W        W34410  42.954  19.459  13.641
69426W        W34411  20.582   1.917   1.370
69427W        W34412  24.279  37.138  12.104
69428W        W34413  24.834  24.716  13.362
69429W        W34414  22.672   9.723  11.964
69430W        W34415   3.801  33.389   1.145
69431W        W34416  41.943  28.686  12.456
69432W        W34417   1.154  26.151   1.406
69433W        W34418   9.051  24.558   3.202
69434W        W34419  24.482  19.546   2.251
69435W        W34420  35.943   5.934  12.542
69436W        W34421  42.722  22.200  10.058
69437W        W34422  18.967  44.319   0.150
69438W        W34423  10.250  18.934   0.265
69439W        W34424   2.949  13.283  13.364
69440W        W34425  28.616  43.899   4.017
69441W        W34426  22.242  39.074  13.038
69442W        W34427  33.581  11.473  10.283
69443W        W34428  25.493  32.911   0.009
69444W        W34429  31.888   0.428  14.800
69445W        W34430  22.106   5.338   4.282
69446W        W34431  27.003   2.496  10.111
69447W        W34432   7.845  43.051  13.493
69448W        W34433  26.739  32.045   4.064
69449W        W34434   2.137  24.710   2.898
69450W        W34435  44.612  30.979   1.418
69451W        W34436  33.126  39.604  10.678
69452W        W34437  34.510   5.176   0.753
69453W        W34438  40.774  20.458   4.979
69454W        W34439   3.977  21.179  12.508
69455W        W34440  41.600  23.382  10.892
69456W        W34441   4.282   5.764  12.118
69457W        W34442  13.352   4.163  13.142
69458W        W34443  25.228  36.263  12.990
69459W        W34444   2.849  42.316   3.767
69460W        W34445  27.534  18.086   2.292
69461W        W34446  10.425  17.196  14.432
69462W        W34447   9.127   2.837  14.860
69463W        W34448  26.142  36.818   2.713
69464W        W34449  41.061  31.695  11.499
69465W        W34450  39.584  16.683   0.195
69466W        W34451  19.044  39.526  11.485
69467W        W34452  19.259  16.743   3.157
69468W        W34453  24.960   0.828   4.242
69469W        W34454  25.856  37.197   1.284
69470W        W34455  19.653  33.163   3.281
69471W        W34456  29.968  30.025  10.831
69472W        W34457  29.211   6.857   1.452
69473W        W34458  18.555  19.500   0.338
69474W        W34459  44.323  28.749   4.677
69475W        W34460   1.740   4.923   0.500
69476W        W34461   4.768  37.672  13.861
69477W        W34462  16.738   3.437  14.477
69478W        W34463   7.752  26.596   5.176
69479W        W34464  24.673  31.368  14.888
69480W        W34465   9.389  21.141   2.188
69481W        W34466   1.717  35.990   0.797
69482W        W34467   6.803   7.801  14.315
69483W        W34468   7.157  18.301  13.866
69484W        W34469  36.350  26.734   0.824
69485W        W34470  13.863  27.214   0.908
69486W        W34471  24.387  37.813  12.909
69487W        W34472  30.984   8.905   0.855
69488W        W34473  18.070  16.059  11.781
69489W        W34474  24.103   7.361  12.917
69490W        W34475  10.178  12.385  10.720
69491W        W34476  43.279  23.547   3.127
69492W        W34477  29.724  31.316  10.163
69493W        W34478  10.058  39.512   0.784
69494W        W34479   7.770  42.530   0.367
69495W        W34480  16.631   8.161   2.672
69496W        W34481   8.662  16.699  12.506
69497W        W34482  40.903   5.146  11.992
69498W        W34483  30.997   5.744  11.151
69499W        W34484  15.525   3.284  13.936
69500W        W34485  32.968  40.526  11.958
69501W        W34486  32.250  43.333   1.325
69502W        W34487  18.614  36.397   0.281
69503W        W34488   2.052  37.143  11.394
69504W        W34489   5.939   5.405  13.344
69505W        W34490   8.225   4.467   2.239
69506W        W34491  39.726  34.998  13.438
69507W        W34492  23.486   6.805   4.169
69508W        W34493  40.511   2.824  13.050
69509W        W34494   4.721  34.543   0.730
69510W        W34495  24.056   4.934  13.698
69511W        W34496  36.317  30.338   4.113
69512W        W34497   3.869   7.115  10.093
69513W        W34498  23.305  23.297   1.411
69514W        W34499  44.338  27.456  13.511
69515W        W34500  43.258  11.673  12.112
69516W        W34501  12.867   0.542   4.403
69517W        W34502  16.321  24.200   0.947
69518W        W34503  19.381  11.282  13.489
69519W        W34504  38.512  12.987   2.685
69520W        W34505   0.556   7.288   2.778
69521W        W34506  21.221  27.714   2.737
69522W        W34507   8.457  11.512   4.291
69523W        W34508   1.977  26.206  14.791
69524W        W34509  43.339  34.006   4.120
69525W        W34510  40.876  40.523  12.488
69526W        W34511  26.867  26.128   3.660
69527W        W34512  34.685  17.318   1.250
69528W        W34513   6.181  44.924  11.109
69529W        W34514  12.650  38.913   1.748
69530W        W34515  32.829  13.815   0.158
69531W        W34516  36.912  22.761  14.901
69532W        W34517  19.541  19.082   0.341
69533W        W34518  28.158   3.380   3.619
69534W        W34519  15.221   4.339   4.899
69535W        W34520  27.269  43.887  13.386
69536W        W34521  27.406  42.814   2.369
69537W        W34522   1.218  17.240  14.980
69538W        W34523  17.563  13.726   1.835
69539W        W34524  41.790  26.256   3.224
69540W        W34525   2.213  43.461  11.593
69541W        W34526  20.518  44.729  14.217
69542W        W34527  29.947  12.657  12.954
69543W        W34528  26.103  21.326   2.736
69544W        W34529  32.827  43.437   0.676
69545W        W34530  32.565  21.218   1.886
69546W        W34531  32.622   1.683  13.305
69547W        W34532  19.089   9.786   4.709
69548W        W34533  15.983  14.101  11.203
69549W        W34534  26.554  19.288   1.256
69550W        W34535  31.116   0.772   1.964
69551W        W34536  28.966  15.743  11.976
69552W        W34537  11.097  13.266   2.843
69553W        W34538   7.328  28.901  13.073
69554W        W34539  35.507   4.195  12.841
69555W        W34540  41.446   0.511   0.257
69556W        W34541  32.834   2.476  12.332
69557W        W34542  39.910   4.301   4.108
69558W        W34543  13.256   6.617   0.030
69559W        W34544  34.271  36.108  13.002
69560W        W34545  31.304  35.349  11.183
69561W        W34546  30.784  38.961   3.749
69562W        W34547  35.453  13.830  11.445
69563W        W34548  21.975  20.222  14.352
69564W        W34549  41.197  12.861  11.663
69565W        W34550   6.677   9.536   4.550
69566W        W34551  16.562  30.956  12.111
69567W        W34552  31.043  18.539  14.819
69568W        W34553  18.238  35.488   4.025
69569W        W34554  19.377   6.079  10.681
69570W        W34555  18.599  41.418   4.241
69571W        W34556  17.639   7.773  14.767
69572W        W34557   2.836  30.198  13.290
69573W        W34558   1.090  13.611   4.101
69574W        W34559  16.040  22.064   3.796
69575W        W34560   4.938  44.879   1.270
69576W        W34561   1.374  17.682  14.449
69577W        W34562   4.893  22.167   3.705
69578W        W34563  39.949   4.908   0.247
69579W        W34564  18.700  34.067   4.419
69580W        W34565   4.397  38.795   2.175
69581W        W34566  15.618   4.537   0.899
69582W        W34567   3.665   5.365  14.774
69583W        W34568  14.779  20.824   3.408
69584W        W34569   1.718   3.606  10.703
69585W        W34570   7.552  33.539   2.688
69586W        W34571  17.464  43.319  13.621
69587W        W34572  30.920  23.247   2.090
69588W        W34573   6.011  11.685  11.750
69589W        W34574  19.707  33.200   0.312
69590W        W34575  33.428  29.394  13.284
69591W        W34576  29.883   7.869   4.609
69592W        W34577   1.374   7.940  11.668
69593W        W34578  23.476  18.637  13.424
69594W        W34579  13.187  18.776  10.585
69595W        W34580   1.472  27.470   4.052
69596W        W34581  43.975   4.839  10.817
69597W        W34582   2.998  11.659  12.145
69598W        W34583  43.064  30.343   0.719
69599W        W34584   3.530  32.044   2.472
69600W        W34585   2.024  10.342   1.570
69601W        W34586  16.268   9.908  12.164
69602W        W34587  37.957  32.587  13.677
69603W        W34588   2.433  30.345  14.220
69604W        W34589  15.335  39.032   3.584
69605W        W34590  13.396  36.922   2.665
69606W        W34591  36.924  37.829  10.770
69607W        W34592  12.676  11.810  14.292
69608W        W34593  29.220  24.347   2.112
69609W        W34594  35.069   6.107   4.924
69610W        W34595   3.285  24.940   2.735
69611W        W34596  13.071  40.987  11.425
69612W        W34597  15.221  30.463  12.594
69613W        W34598  20.596  10.299  14.905
69614W        W34599  38.611  12.315   0.293
69615W        W34600   2.108  21.471   3.097
69616W        W34601   4.559   2.546   1.936
69617W        W34602   3.890  41.589  12.136
69618W        W34603  25.752  35.939   2.267
69619W        W34604  38.378  18.700   1.234
69620W        W34605   6.863   3.516   0.062
69621W        W34606  26.589  12.057  11.677
69622W        W34607  30.902   3.003   0.740
69623W        W34608   1.092  31.401   0.707
69624W        W34609  30.145  24.149   0.358
69625W        W34610   0.563   5.689  12.073
69626W        W34611  25.053  12.644   4.368
69627W        W34612  35.842  41.499  13.545
69628W        W34613  24.660  20.744  12.346
69629W        W34614   7.183  29.461   1.748
69630W        W34615  32.921  25.041   0.505
69631W        W34616  33.070  24.762  11.947
69632W        W34617  19.840  34.401   1.444
69633W        W34618   2.440  21.573   2.704
69634W        W34619   9.599  14.327   1.758
69635W        W34620  37.937  10.951  12.473
69636W        W34621  16.183  13.445  14.099
69637W        W34622   1.179  18.120   2.273
69638W        W34623  21.220  24.285   1.383
69639W        W34624  15.005  32.422   2.849
69640W        W34625   9.601  34.848   3.221
69641W        W34626   4.367   9.098  13.981
69642W        W34627  43.236  22.178   4.552
69643W        W34628  21.748   7.363   2.461
69644W        W34629  44.303  24.731   3.404
69645W        W34630   2.867  19.608  12.155
69646W        W34631   5.166   5.155  14.442
69647W        W34632  10.287  29.355  12.548
69648W        W34633  44.673  11.198   0.217
69649W        W34634  13.094  19.710   2.491
69650W        W34635   5.441  14.063  12.152
69651W        W34636  37.548   6.377   5.338
69652W        W34637  40.523  19.177  11.063
69653W        W34638  19.411   6.004   3.797
69654W        W34639  35.128  29.161  14.379
69655W        W34640  31.430  16.597   1.692
69656W        W34641  36.491  22.274  13.960
69657W        W34642   5.427   9.442  10.217
69658W        W34643   8.114  16.734   2.006
69659W        W34644  15.584   4.953   3.161
69660W        W34645  21.587   0.719   3.130
69661W        W34646   3.773   0.955   2.417
69662W        W34647  20.016  38.993  13.987
69663W        W34648   4.799  43.404  12.473
69664W        W34649   3.986  43.384   1.278
69665W        W34650  24.925  19.384   4.127
69666W        W34651  10.836  11.515   4.225
69667W        W34652   0.275  10.793  11.559
69668W        W34653   3.973  40.875  13.459
69669W        W34654  39.534  24.868   3.283
69670W        W34655  35.747  15.161  12.490
69671W        W34656  44.943   3.492   1.806
69672W        W34657  36.001  28.047  13.519
69673W        W34658  41.505   6.334  13.462
69674W        W34659  36.919  37.938   3.418
69675W        W34660  27.002   8.263   4.545
69676W        W34661  13.049  18.225   2.670
69677W        W34662  33.557   2.979  14.811
69678W        W34663  11.172  43.054   3.215
69679W        W34664   6.824  35.556  13.530
69680W        W34665  27.869  12.000  13.917
69681W        W34666  26.881  22.616  12.599
69682W        W34667   4.859  26.894   3.220
69683W        W34668  29.647  44.495   2.330
69684W        W34669  28.002  21.634  11.408
69685W        W34670  13.254   7.130   2.170
69686W        W34671  28.646  16.541  11.193
69687W        W34672  40.384  29.440   1.248
69688W        W34673  44.755   7.101   0.717
69689W        W34674  29.551   4.812   0.457
69690W        W34675  31.015  16.661  11.557
69691W        W34676  27.742  23.162  11.660
69692W        W34677  13.635   9.174   3.550
69693W        W34678   0.031  38.660  10.953
69694W        W34679  24.067  13.327  12.433
69695W        W34680  37.061  44.808   3.414
69696W        W34681   8.680  33.214  11.150
69697W        W34682   4.978  33.997  13.935
69698W        W34683  12.601  43.352  12.072
69699W        W34684  10.257  31.658  11.027
69700W        W34685   1.479   8.158  12.888
69701W        W34686  17.627   9.731  14.801
69702W        W34687  31.323  20.229  14.307
69703W        W34688  18.732  27.128   2.144
69704W        W34689  19.416  25.744   0.253
69705W        W34690  36.966  25.693   2.640
69706W        W34691  34.015  23.542  11.110
69707W        W34692  38.579  33.707   0.045
69708W        W34693  16.053  14.493   2.057
69709W        W34694  42.294   8.840  12.954
69710W        W34695  22.913  30.508  10.207
69711W        W34696  11.715   8.191   2.750
69712W        W34697  32.975  22.640  13.979
69713W        W34698   0.749  19.372   3.737
69714W        W34699   7.517  15.614   3.179
69715W        W34700  33.870   0.894  10.760
69716W        W34701  44.370  43.585  10.707
69717W        W34702  41.770  28.135  13.378
69718W        W34703   6.210  20.207  11.689
69719W        W34704  42.497  19.807  10.671
69720W        W34705  32.401  14.765   3.989
69721W        W34706  40.419   0.340   2.789
69722W        W34707  14.801  12.333   2.056
69723W        W34708  22.054  39.468  11.778
69724W        W34709  39.662  32.290   2.349
69725W        W34710  12.118   4.934   0.925
69726W        W34711  28.667  31.463  12.491
69727W        W34712   2.145  29.622  13.838
69728W        W34713   7.073  16.583  11.448
69729W        W34714   8.723  31.661   2.572
69730W        W34715  30.704  31.517   2.837
69731W        W34716  11.927   6.856  11.947
69732W        W34717  26.003  31.896  13.279
69733W        W34718  44.008   4.489  12.383
69734W        W34719   1.754  27.988   4.943
69735W        W34720   9.317  14.185  14.030
69736W        W34721  32.348  31.071   1.409
69737W        W34722  15.642   0.062   1.907
69738W        W34723   9.360  42.741  10.511
69739W        W34724   4.933  40.046  13.242
69740W        W34725  15.516  10.184  10.650
69741W        W34726   5.653  20.760  13.372
69742W        W34727   0.753  33.121   0.020
69743W        W34728  22.260   4.354   3.219
69744W        W34729  31.879  30.725   4.709
69745W        W34730  20.605   2.389   1.598
69746W        W34731  37.857  22.811   0.939
69747W        W34732  43.730  37.485   4.635
69748W        W34733  31.558   8.903   3.166
69749W        W34734   8.300   3.749   0.329
69750W        W34735  27.479  41.585   0.176
69751W        W34736  29.269  31.446   4.677
69752W        W34737  14.605  12.279  12.101
69753W        W34738  31.644   8.455   0.336
69754W        W34739  31.561  39.610   0.966
69755W        W34740  11.879  18.086  10.452
69756W        W34741  40.923  12.651  11.215
69757W        W34742   1.289  26.309   3.258
69758W        W34743  20.949   3.633   0.443
69759W        W34744  30.797  19.975  12.575
69760W        W34745  41.441  10.249  13.810
69761W        W34746  23.627   0.914   1.338
69762W        W34747  11.415  24.498   1.413
69763W        W34748   4.403  15.832  10.947
69764W        W34749  27.004  35.776  12.039
69765W        W34750  28.157  38.503   4.562
69766W        W34751  15.365  15.218   4.693
69767W        W34752  29.037  21.274   0.481
69768W        W34753  43.591  18.979  11.668
69769W        W34754  26.479  30.312   1.343
69770W        W34755  28.775  32.708   2.053
69771W        W34756  21.128  25.936  12.946
69772W        W34757  40.560  40.279  10.394
69773W        W34758  38.985  20.863  12.057
69774W        W34759  28.356   2.532  11.692
69775W        W34760  27.682  37.607   4.265
69776W        W34761  22.184  42.794   0.279
69777W        W34762  41.835   7.512  14.755
69778W        W34763  29.446  32.939  12.477
69779W        W34764   6.785  44.342   1.940
69780W        W34765  38.495   4.974   2.697
69781W        W34766  34.116  31.858   1.663
69782W        W34767  12.303  42.861   0.472
69783W        W34768  21.199  33.018  13.880
69784W        W34769  30.920  24.516   1.351
69785W        W34770  27.584   4.517  11.609
69786W        W34771  10.198  10.084  12.448
69787W        W34772  27.506  36.725   4.495
69788W        W34773  40.080  17.784  12.482
69789W        W34774  39.932  26.664   2.781
69790W        W34775   9.776  22.832   4.512
69791W        W34776  10.948   5.964  10.132
69792W        W34777   5.834  35.816   0.743
69793W        W34778   3.915  18.759  13.158
69794W        W34779  42.394  15.224   1.284
69795W        W34780   5.813   9.376  14.350
69796W        W34781  40.064  14.167   0.413
69797W        W34782  41.065  43.052  11.028
69798W        W34783  40.446  27.646   0.843
69799W        W34784   9.005  19.868  10.667
69800W        W34785   6.083  29.465  10.994
69801W        W34786   4.391  23.262   1.897
69802W        W34787  14.638   3.909  12.504
69803W        W34788  21.925   1.252  12.941
69804W        W34789   3.223  24.227  12.487
69805W        W34790  21.703  19.117  14.422
69806W        W34791   4.796  20.112  13.305
69807W        W34792  23.680  26.253   2.855
69808W        W34793  10.458  18.538   0.534
69809W        W34794  26.890  40.547  12.861
69810W        W34795  36.480   4.569  10.487
69811W        W34796  20.270  36.244  13.747
69812W        W34797  22.703  23.931  14.406
69813W        W34798  25.650  16.077  12.145
69814W        W34799  28.591   3.647   2.229
69815W        W34800  23.905  29.906   2.353
69816W        W34801  11.346  30.617  13.829
69817W        W34802  22.135  31.363   0.665
69818W        W34803  17.852  13.280  14.082
69819W        W34804  16.074  39.361  13.853
69820W        W34805   0.219  26.795  14.013
69821W        W34806  18.691  20.644   0.850
69822W        W34807  44.677  12.171   2.845
69823W        W34808   9.181  17.985  11.158
69824W        W34809  33.502  35.099   1.840
69825W        W34810  40.379  31.560  13.829
69826W        W34811  18.725  23.683  14.966
69827W        W34812  14.676   7.757   0.450
69828W        W34813  25.031   7.094  14.415
69829W        W34814  10.349  31.198   0.869
69830W        W34815  10.383   9.247  12.073
69831W        W34816  24.944  15.627  10.592
69832W        W34817  10.150  21.678  11.511
69833W        W34818   5.283  25.717   0.780
69834W        W34819   1.284   3.651   2.666
69835W        W34820   9.735   9.991  13.082
69836W        W34821  21.166   6.812   2.070
69837W        W34822  21.279  44.180   2.125
69838W        W34823  19.409   7.949  11.078
69839W        W34824  15.375  12.553  10.788
69840W        W34825  25.457  25.391  11.058
69841W        W34826   0.523   2.894  14.597
69842W        W34827  30.387  28.953  14.053
69843W        W34828  41.626  13.542  12.208
69844W        W34829  31.905   1.366  11.157
69845W        W34830  30.153  36.917  14.739
69846W        W34831  28.910   3.684   4.138
69847W        W34832  36.548   1.772  12.470
69848W        W34833   0.911   4.877   5.106
69849W        W34834  22.341  41.459  14.551
69850W        W34835  29.932   3.262  13.902
69851W        W34836  37.478  32.423  13.438
69852W        W34837  21.474  38.504   2.377
69853W        W34838  31.595  30.852   3.218
69854W        W34839  25.371  41.311   1.271
69855W        W34840  28.759  34.620  14.381
69856W        W34841  23.190  30.632   1.969
69857W        W34842   6.616  34.522   1.522
69858W        W34843  14.508  31.833  11.886
69859W        W34844  39.503   8.959   0.260
69860W        W34845  35.553   2.520  13.192
69861W        W34846  27.923  32.613  10.657
69862W        W34847   5.468  42.393   1.041
69863W        W34848  35.850  10.406   4.255
69864W        W34849  42.189  19.259  12.004
69865W        W34850  15.090  39.030  14.344
69866W        W34851  36.652  42.124  13.622
69867W        W34852  23.789   7.738  12.484
69868W        W34853  10.863  15.841  11.476
69869W        W34854   6.981  23.505  12.068
69870W        W34855   6.370  39.559   4.952
69871W        W34856  18.241  35.903   4.330
69872W        W34857   2.563  33.090  12.455
69873W        W34858   8.350  13.166  14.960
69874W        W34859   9.829  36.552   1.728
69875W        W34860   8.115   4.055   5.071
69876W        W34861  37.054   5.434   1.437
69877W        W34862  34.463   4.301   2.061
69878W        W34863  17.304  16.572   3.288
69879W        W34864  15.594  33.269   1.872
69880W        W34865  26.637   3.810   0.253
69881W        W34866  10.640   9.482   0.926
69882W        W34867  43.925  20.224   4.147
69883W        W34868  18.569   9.063   1.164
69884W        W34869  20.710  19.097  14.319
69885W        W34870  20.507   9.143  14.691
69886W        W34871  27.486  23.985   0.256
69887W        W34872  38.251  24.452  11.581
69888W        W34873  30.290  28.302   3.296
69889W        W34874  32.403  17.249  13.951
69890W        W34875  38.128  34.169   1.216
69891W        W34876  26.271   0.836   2.923
69892W        W34877  31.682   2.981   0.029
69893W        W34878  15.556   3.209   2.158
69894W        W34879   4.359  13.269   2.794
69895W        W34880  43.651   4.519  12.022
69896W        W34881  22.342  35.971   3.728
69897W        W34882   2.609  24.588   2.224
69898W        W34883  37.518  20.697  11.056
69899W        W34884   2.257  42.933  14.954
69900W        W34885  12.845  30.036  11.474
69901W        W34886   9.862   9.300  11.780
69902W        W34887  15.773  33.400  11.172
69903W        W34888  38.055  20.006  13.504
69904W        W34889  21.324   6.730  13.054
69905W        W34890  30.649   5.645  12.040
69906W        W34891  38.014   3.409   3.572
69907W        W34892   2.802  19.934   3.730
69908W        W34893  18.261  34.090  13.459
69909W        W34894  22.437  23.496   0.253
69910W        W34895  38.377  40.290   1.931
69911W        W34896  30.765  40.255   4.118
69912W        W34897  10.304  25.098  12.509
69913W        W34898  20.561  18.554   0.429
69914W        W34899  13.834  20.456  13.424
69915W        W34900  12.715  39.804  11.548
69916W        W34901   3.027   5.201  10.833
69917W        W34902  27.525  34.866  13.577
69918W        W34903  40.855  14.700   1.160
69919W        W34904  32.597  42.242   0.033
69920W        W34905  42.326  33.988  13.444
69921W        W34906  33.131  26.185  10.791
69922W        W34907  11.045  32.960   2.789
69923W        W34908   9.182  42.976   4.218
69924W        W34909  40.425  39.907   3.262
69925W        W34910  25.114  37.759   4.605
69926W        W34911  17.650  21.301   1.788
69927W        W34912  25.587  22.175   2.668
69928W        W34913  38.586   9.691   3.180
69929W        W34914  14.574  12.836  13.021
69930W        W34915  39.362  31.258  14.375
69931W        W34916  10.025  25.382  12.180
69932W        W34917   8.891   1.988   0.143
69933W        W34918  21.967   6.676  12.529
69934W        W34919  36.477  17.251  10.389
69935W        W34920   8.573   8.288   0.303
69936W        W34921  24.628  15.560   0.490
69937W        W34922   8.346  40.472  14.776
69938W        W34923  42.358  19.507   1.165
69939W        W34924  36.380  28.944  13.968
69940W        W34925  39.975   5.099  11.513
69941W        W34926   5.375   6.501  12.836
69942W        W34927  11.586  22.421  13.950
69943W        W34928  24.213   8.234  10.743
69944W        W34929  36.485   8.373  12.472
69945W        W34930  42.288  22.646   4.516
69946W        W34931  40.324  19.676  11.961
69947W        W34932  17.002  27.643   2.133
69948W        W34933  10.146  20.169  12.931
69949W        W34934  41.946  16.520  12.142
69950W        W34935  29.575  28.356  11.581
69951W        W34936  39.305  11.602  14.416
69952W        W34937  11.344   6.287   3.113
69953W        W34938  11.697   7.318   5.046
69954W        W34939  20.334  16.273   5.056
69955W        W34940  42.973  41.532   3.158
69956W        W34941  30.003   5.351  12.382
69957W        W34942   6.323   5.717   3.086
69958W        W34943  28.377  19.496   3.571
69959W        W34944  16.990  34.411   1.863
69960W        W34945  16.247   7.989   4.943
69961W        W34946  24.768  41.859   2.585
69962W        W34947  30.809  11.653   4.075
69963W        W34948  25.015  35.206  11.444
69964W        W34949  33.069  12.407   4.640
69965W        W34950   2.386  38.623  10.591
69966W        W34951  33.604  19.813   2.537
69967W        W34952   2.759  29.222   2.855
69968W        W34953  19.671  36.337   2.671
69969W        W34954   3.245  31.166   4.058
69970W        W34955  33.892  12.795   4.985
69971W        W34956  42.959  44.321   4.561
69972W        W34957  11.227  41.453   1.126
69973W        W34958  31.347  27.093  11.558
69974W        W34959  41.000  27.579  13.409
69975W        W34960  44.831  40.789   2.377
69976W        W34961  29.156  32.784   2.877
69977W        W34962  23.922  31.588  11.016
69978W        W34963  39.500  35.460  12.481
69979W        W34964  20.576   0.990   1.262
69980W        W34965  15.594  12.378   0.265
69981W        W34966  27.714  34.011   1.412
69982W        W34967   5.957   3.769  15.000
69983W        W34968  38.979  31.196   4.058
69984W        W34969  20.478  40.347  10.610
69985W        W34970  24.609  37.762   2.715
69986W        W34971  14.749  30.014  13.014
69987W        W34972  17.854  17.684   0.776
69988W        W34973   0.020  36.764   2.733
69989W        W34974  36.118  24.995   2.804
69990W        W34975  34.900  26.652   1.949
69991W        W34976  22.744   6.735   4.685
69992W        W34977   4.846   2.917  13.477
69993W        W34978  25.230  36.579  13.570
69994W        W34979  10.458   1.782   4.787
69995W        W34980  12.668   5.318  12.936
69996W        W34981  37.032  12.957   3.813
69997W        W34982  21.346   8.387   3.701
69998W        W34983  33.596   4.307   2.599
69999W        W34984  31.935  40.525  14.692
70000W        W34985   5.832  41.034   3.849
70001W        W34986  33.345  38.034   1.688
70002W        W34987   7.232   0.759  12.969
70003W        W34988  42.207  37.447   3.097
70004W        W34989  16.009  27.488   0.059
70005W        W34990  16.328   8.803  11.993
70006W        W34991  30.480  41.973  12.548
70007W        W34992   1.985   8.013   2.401
70008W        W34993  26.932  18.526  12.340
70009W        W34994  33.051  16.619  11.279
70010W        W34995   5.161   4.691  14.197
70011W        W34996  41.872  41.278   4.177
70012W        W34997  29.402   8.279   1.409
70013W        W34998  23.653  30.371   1.325
70014W        W34999   6.399  15.197  13.366
70015W        W35000  24.566  20.193   4.454
70016W        W35001  14.533  39.253  12.926
70017W        W35002  37.399  37.986   4.389
70018W        W35003  31.607  34.428   3.334
70019W        W35004  14.676  12.825   3.868
70020W        W35005  21.481  16.020  11.583
70021W        W35006   0.036  23.386  10.206
70022W        W35007   0.014  24.042   3.748
70023W        W35008  40.608   3.503   2.258
70024W        W35009  11.330  37.517  11.177
70025W        W35010  30.772  32.682   2.428
70026W        W35011  43.898  34.030  13.317
70027W        W35012   3.289   8.902   3.703
70028W        W35013   0.231  33.531   3.689
70029W        W35014   7.489  38.840   3.112
70030W        W35015  20.225  15.547   0.220
70031W        W35016  42.806  35.054  14.204
70032W        W35017  27.868  37.109  14.315
70033W        W35018   8.581  19.353   3.457
70034W        W35019  30.980  26.106  13.439
70035W        W35020  38.709  24.509   0.173
70036W        W35021   7.754  13.685   3.184
70037W        W35022  31.554  13.455  12.495
70038W        W35023  22.140  26.008   1.677
70039W        W35024  37.129   5.170  11.437
70040W        W35025  32.627  19.543  14.199
70041W        W35026  26.067   7.470  14.805
70042W        W35027  35.380  35.874   4.031
70043W        W35028  19.111  29.885   4.406
70044W        W35029  14.547   6.298   1.517
70045W        W35030  21.168  21.036  14.896
70046W        W35031  17.726  28.435   4.118
70047W        W35032  43.559   3.251   4.075
70048W        W35033   4.114   8.056   1.094
70049W        W35034  37.988  43.517  13.993
70050W        W35035  42.810  43.060   3.043
70051W        W35036  13.146  38.740   2.696
70052W        W35037  42.386  33.718   1.360
70053W        W35038   2.703  36.626  11.113
70054W        W35039   8.045  27.805  12.738
70055W        W35040   8.264  42.744  10.576
70056W        W35041  32.380  34.508   2.668
70057W        W35042  38.912  16.891  12.044
70058W        W35043   7.480  22.129  11.192
70059W        W35044   3.716  22.194   1.729
70060W        W35045   0.171  26.469   4.920
70061W        W35046  23.494  24.165   4.513
70062W        W35047  33.948  20.267   4.221
70063W        W35048  19.193  12.437  12.117
70064W        W35049  27.833  43.955   1.264
70065W        W35050   8.770   3.976   0.452
70066W        W35051  12.188  43.467  14.028
70067W        W35052  10.088  31.478   4.569
70068W        W35053  32.009  10.859  12.140
70069W        W35054   5.897  17.765   3.259
70070W        W35055  42.314  24.490   4.543
70071W        W35056  40.378  32.244  10.395
70072W        W35057  40.811  26.166   2.287
70073W        W35058  29.570  35.205   4.499
70074W        W35059  17.603  19.496   0.165
70075W        W35060  27.065  31.814   1.177
70076W        W35061   9.123  13.832  13.703
70077W        W35062   4.317   7.983  13.181
70078W        W35063   0.238  34.138   2.307
70079W        W35064  18.591  14.356  11.141
70080W        W35065  42.088  30.545  13.391
70081W        W35066  21.730  36.809   3.739
70082W        W35067   8.133  40.343  12.976
70083W        W35068  26.247  29.484   1.287
70084W        W35069  32.458  37.463  11.246
70085W        W35070  37.473  19.209   4.887
70086W        W35071   8.403  27.626  11.455
70087W        W35072  33.814  22.622   4.869
70088W        W35073  43.045  19.220   4.405
70089W        W35074  24.793  32.459   4.144
70090W        W35075  15.706  27.100   1.131
70091W        W35076  44.382   1.288   0.298
70092W        W35077  27.587  11.283   4.089
70093W        W35078  19.017  32.413  14.391
70094W        W35079  22.222  30.897  13.049
70095W        W35080   1.214  21.085   1.395
70096W        W35081  34.587  37.322   0.729
70097W        W35082  11.346   3.266   2.467
70098W        W35083  18.517  18.248   1.197
70099W        W35084   3.467  23.188   3.692
70100W        W35085  43.878  20.138   3.114
70101W        W35086  24.260  14.681  13.491
70102W        W35087  10.328  42.373   1.005
70103W        W35088   5.718  29.053   3.304
70104W        W35089  14.481  30.062   2.153
70105W        W35090  42.969  24.930   3.178
70106W        W35091  19.946  39.932  11.675
70107W        W35092  12.159   8.865  11.047
70108W        W35093  30.073  39.025   1.806
70109W        W35094  42.989  43.524   3.148
70110W        W35095   3.175  35.882   2.852
70111W        W35096  38.943  33.430  14.231
70112W        W35097  15.056   4.270   4.395
70113W        W35098   3.004  38.237  11.975
70114W        W35099   8.796  43.941  12.974
70115W        W35100  17.661  30.709  11.587
70116W        W35101  22.646  17.244  12.100
70117W        W35102  43.831  42.971   3.578
70118W        W35103  28.136   5.908   3.700
70119W        W35104   0.819  22.183  10.950
70120W        W35105  14.256  36.648   1.744
70121W        W35106   3.394   6.873   4.547
70122W        W35107  23.078  31.420  13.890
70123W        W35108   6.667   6.194   2.352
70124W        W35109  31.531  28.446  12.463
70125W        W35110  12.349  18.092  13.031
70126W        W35111   9.861  10.386   3.698
70127W        W35112  35.452  19.747  14.853
70128W        W35113   7.348  21.846   3.694
70129W        W35114  36.972  10.446   0.463
70130W        W35115  37.762   2.935   1.606
70131W        W35116   5.854  26.833   2.574
70132W        W35117  20.804  23.337   3.168
70133W        W35118  34.577  37.257  14.447
70134W        W35119  15.572  15.681   3.209
70135W        W35120  23.605  39.444  11.680
70136W        W35121   5.482  29.191   1.287
70137W        W35122   5.117  21.588  11.910
70138W        W35123   3.996  41.762  11.194
70139W        W35124  18.822   0.045   4.439
70140W        W35125   5.754   6.499   4.126
70141W        W35126  20.729   7.463   2.333
70142W        W35127  26.322  43.915   2.203
70143W        W35128  31.119   1.586   4.923
70144W        W35129   6.880  37.791   1.980
70145W        W35130  30.041  41.366  10.455
70146W        W35131   1.495  29.971   2.782
70147W        W35132   1.753  21.544   2.151
70148W        W35133  17.711  16.642   3.609
70149W        W35134   3.630  21.093   3.253
70150W        W35135  16.550   4.811  12.913
70151W        W35136  41.969  10.392   4.384
70152W        W35137   5.154  29.343  11.161
70153W        W35138  13.857  16.678  12.314
70154W        W35139  18.799  22.168   4.135
70155W        W35140  35.549  24.715   0.929
70156W        W35141  10.383   5.848  12.985
70157W        W35142   1.631  37.658   5.107
70158W        W35143  16.240  17.569  12.899
70159W        W35144  42.375  44.087  11.509
70160W        W35145  40.076  22.973  12.936
70161W        W35146  28.393   5.883  14.034
70162W        W35147  17.174  12.330   1.264
70163W        W35148  11.903  14.399  11.862
70164W        W35149  10.640  40.117  14.732
70165W        W35150   6.668  41.435  13.212
70166W        W35151   4.819   9.180   3.231
70167W        W35152  41.024  40.060   3.805
70168W        W35153  38.299  42.852  14.908
70169W        W35154  42.392   7.124   0.962
70170W        W35155  24.280  43.359  12.405
70171W        W35156   1.304  24.730  12.989
70172W        W35157  24.011  22.482  10.614
70173W        W35158  28.439  40.271   2.413
70174W        W35159   2.215  41.627   2.304
70175W        W35160  35.266  20.006   3.788
70176W        W35161  16.564  26.603   3.304
70177W        W35162   0.205  18.289   5.190
70178W        W35163  18.120  22.227   2.867
70179W        W35164  35.988  40.983   2.904
70180W        W35165  40.269  31.599   1.860
70181W        W35166  43.788  44.951  11.688
70182W        W35167  36.161  35.000  11.417
70183W        W35168  40.794  35.471   0.151
70184W        W35169  22.978  13.788  12.435
70185W        W35170  12.426   7.848   3.636
70186W        W35171  32.168   5.889  12.397
70187W        W35172   0.260  43.537  10.645
70188W        W35173  39.172  26.686   1.715
70189W        W35174  10.884  16.068  14.779
70190W        W35175   1.579   4.711  14.010
70191W        W35176   6.647  27.437   2.223
70192W        W35177  18.073  44.540  13.427
70193W        W35178   5.865  43.606   1.775
70194W        W35179  29.994   8.614   1.763
70195W        W35180  27.913   8.854   3.650
70196W        W35181  23.599   4.717   1.358
70197W        W35182  13.902  26.031  10.574
70198W        W35183   0.325  33.518  10.417
70199W        W35184  37.922  29.956  14.111
70200W        W35185  22.061  21.619   1.680
70201W        W35186  29.824   0.144   3.668
70202W        W35187  24.524  35.989  13.476
70203W        W35188  25.082  30.486  11.919
70204W        W35189  18.078  15.903  14.527
70205W        W35190  10.367  20.620  14.492
70206W        W35191  15.021  11.930  14.356
70207W        W35192  21.101  21.610   2.199
70208W        W35193  25.694  15.311   2.766
70209W        W35194   8.807  20.176  12.274
70210W        W35195  34.321  44.822  13.554
70211W        W35196   7.184  24.202   0.823
70212W        W35197   2.236   7.657  12.084
70213W        W35198  36.564  31.549  13.365
70214W        W35199  15.542   3.393   1.618
70215W        W35200  40.812  22.920  12.395
70216W        W35201  31.396  41.841  10.493
70217W        W35202   5.381  43.588   4.125
70218W        W35203  33.951   4.290   3.822
70219W        W35204  24.779  14.548  13.513
70220W        W35205  37.944   4.405  13.885
70221W        W35206  37.336  36.123  11.480
70222W        W35207  33.907  32.582  12.157
70223W        W35208   1.352   4.168   2.824
70224W        W35209  24.520  39.684  12.480
70225W        W35210  30.806  15.652  11.628
70226W        W35211  29.026   6.975  14.419
70227W        W35212  30.486   0.466  13.608
70228W        W35213  14.099  35.834   3.543
70229W        W35214  19.620  23.748  11.896
70230W        W35215   6.121  20.730  13.626
70231W        W35216  11.666   1.264  14.878
70232W        W35217  13.160  27.754  14.550
70233W        W35218   3.770  24.786   2.881
70234W        W35219   6.803  40.600  11.175
70235W        W35220   9.184  25.494  10.835
70236W        W35221  26.914  14.309   1.245
70237W        W35222  44.651  34.047   3.407
70238W        W35223   2.197  44.924   0.537
70239W        W35224  29.401  34.577  11.033
70240W        W35225   3.084  29.370  10.709
70241W        W35226  32.430  37.386  13.043
70242W        W35227  31.664  23.563  10.343
70243W        W35228  21.833   7.067   4.671
70244W        W35229  35.999  36.397   2.312
70245W        W35230  38.353  26.499   3.665
70246W        W35231   6.088  42.215   0.326
70247W        W35232  28.401   7.799  12.993
70248W        W35233   7.382   1.852   4.568
70249W        W35234  34.018  32.911  13.541
70250W        W35235  11.253   1.047  13.065
70251W        W35236  37.015  18.633  14.953
70252W        W35237  29.715   4.174   9.974
70253W        W35238  38.446  22.996  12.505
70254W        W35239  21.300  40.255  11.022
70255W        W35240  34.867   0.736  11.516
70256W        W35241  25.656  32.497  14.209
70257W        W35242  11.808   4.026  11.556
70258W        W35243   0.033  32.763  10.886
70259W        W35244  29.357  18.365   4.380
70260W        W35245  33.367  25.133  14.610
70261W        W35246  26.476  26.491  11.067
70262W        W35247  33.681  26.124  10.813
70263W        W35248  37.483  20.248  14.341
70264W        W35249  38.610   0.466   0.971
70265W        W35250  10.190  16.832   2.222
70266W        W35251  42.457  33.854   2.731
70267W        W35252  19.287  12.630  14.986
70268W        W35253   1.858  35.040   1.340
70269W        W35254  22.749  44.482   0.701
70270W        W35255   3.282  20.176   3.018
70271W        W35256   4.487  35.897  12.577
70272W        W35257   2.487  19.723  14.428
70273W        W35258  40.036  42.908   2.766
70274W        W35259  10.182  23.038  10.756
70275W        W35260  27.418  41.788  12.350
70276W        W35261   5.877  37.374  11.020
70277W        W35262  31.370  41.304  12.994
70278W        W35263  27.017  22.166   3.304
70279W        W35264   2.318  40.142   4.587
70280W        W35265   8.402   0.259  10.694
70281W        W35266   0.382   2.455  10.712
70282W        W35267  43.388  44.241   0.418
70283W        W35268  35.313  38.940   1.299
70284W        W35269  37.591  13.395   4.054
70285W        W35270  26.226  26.614  14.268
70286W        W35271   7.182   1.083   1.860
70287W        W35272   1.946  35.676  14.958
70288W        W35273  38.368  21.324  10.297
70289W        W35274  13.970  19.354   3.944
70290W        W35275   1.548  33.047  14.514
70291W        W35276  12.008  31.717  14.951
70292W        W35277  15.540  44.949   4.141
70293W        W35278   1.676  22.972  10.616
70294W        W35279  24.039  27.233   2.172
70295W        W35280  31.461  17.834  11.200
70296W        W35281  44.301   6.490  10.739
70297W        W35282  11.477  26.948   3.762
70298W        W35283  24.048  35.842   0.281
70299W        W35284   1.496  39.987  10.789
70300W        W35285   7.281  25.718  11.025
70301W        W35286   7.673  38.577  14.841
70302W        W35287   0.521  23.303  11.594
70303W        W35288  17.823   5.567   0.354
70304W        W35289  39.452   0.228  14.801
70305W        W35290  43.144  41.431   2.683
70306W        W35291  30.556  39.331   4.415
70307W        W35292   0.364  26.787  11.038
70308W        W35293  16.324  10.094   3.697
70309W        W35294  26.470  13.062   3.319
70310W        W35295  23.991  38.439  10.686
70311W        W35296  11.602  10.417   4.648
70312W        W35297  28.537  25.186  11.884
70313W        W35298  21.505  30.307  14.463
70314W        W35299  13.227  34.615   0.458
70315W        W35300  33.408  39.374  11.639
70316W        W35301  30.413  15.564   2.122
70317W        W35302  14.178   6.508  14.814
70318W        W35303  37.275   2.780  12.117
70319W        W35304  18.280  38.864   4.194
70320W        W35305  14.392  36.802  14.316
70321W        W35306  42.395  34.863  13.549
70322W        W35307  22.321  39.079  10.040
70323W        W35308  12.737  32.519  14.755
70324W        W35309  43.276  17.720  10.345
70325W        W35310  41.974  12.106  14.227
70326W        W35311   8.122  31.148   1.778
70327W        W35312   4.727  21.515  12.679
70328W        W35313  24.087  20.999  13.475
70329W        W35314  44.900  44.739   2.583
70330W        W35315  15.628  22.612   0.313
70331W        W35316  18.280  31.051  14.566
70332W        W35317  32.162  27.943  11.517
70333W        W35318  23.947  14.594   2.793
70334W        W35319  32.902  15.758   1.694
70335W        W35320  13.218  42.841   2.742
70336W        W35321  21.450  32.386   5.018
70337W        W35322  37.884  13.754   4.262
70338W        W35323  34.155  17.094  12.676
70339W        W35324  20.525  41.909  13.499
70340W        W35325  17.138   6.464  13.398
70341W        W35326  15.094  11.227  14.897
70342W        W35327  29.784  18.456   4.084
70343W        W35328  29.516  19.218   2.136
70344W        W35329  12.949  15.260   1.794
70345W        W35330   0.620  40.590  14.414
70346W        W35331  29.115  13.259   4.382
70347W        W35332  21.790  44.827  13.028
70348W        W35333  12.174  28.143   3.388
70349W        W35334  42.280   6.662  11.363
70350W        W35335  27.265  25.139  12.693
70351W        W35336  32.337  13.933   3.846
70352W        W35337   5.828  23.258   3.345
70353W        W35338  22.505  26.215  13.464
70354W        W35339  19.027   3.930   3.766
70355W        W35340  33.962  44.114  13.604
70356W        W35341  20.294   9.845  12.632
70357W        W35342  21.034  14.786  11.569
70358W        W35343   0.469   3.238   2.821
70359W        W35344  12.654   4.407  12.453
70360W        W35345  42.660   0.239   2.660
70361W        W35346  33.829   5.303  14.575
70362W        W35347  29.400  42.890   0.360
70363W        W35348  38.364  19.451   0.807
70364W        W35349   3.782  35.570  14.725
70365W        W35350  21.746  13.559   4.701
70366W        W35351  35.657  13.049   3.662
70367W        W35352  39.003  29.374   1.878
70368W        W35353  17.432  38.515   2.859
70369W        W35354   5.516  15.334  14.961
70370W        W35355  10.209  38.141  14.359
70371W        W35356  11.412  20.320  13.635
70372W        W35357  41.722  17.090   3.105
70373W        W35358  15.560   5.368  13.528
70374W        W35359  37.149  30.448   2.640
70375W        W35360  34.090  42.702  13.551
70376W        W35361  38.289  32.055  12.616
70377W        W35362  32.997  36.979   2.372
70378W        W35363  33.529  42.924  10.128
70379W        W35364  24.128  41.258  12.518
70380W        W35365  17.365  38.664   5.074
70381W        W35366  23.117   3.263   1.872
70382W        W35367   5.306  42.115  12.833
70383W        W35368  18.446  36.758  13.628
70384W        W35369  32.072  30.786   4.237
70385W        W35370  11.429  31.301   2.241
70386W        W35371  43.811  30.739  12.645
70387W        W35372  42.070   9.357  10.612
70388W        W35373  20.786  25.706  13.335
70389W        W35374  43.749  34.133   2.221
70390W        W35375  44.053   5.671   1.243
70391W        W35376  41.895  37.940  12.028
70392W        W35377  23.170   4.964   2.875
70393W        W35378  35.164  14.480  14.484
70394W        W35379  25.276  33.936  13.050
70395W        W35380  14.587   8.783   0.917
70396W        W35381  30.677  29.528  14.917
70397W        W35382   3.262   2.725  13.005
70398W        W35383  11.453  30.983   2.677
70399W        W35384  43.799   2.467  11.855
70400W        W35385  30.596  35.590  10.489
70401W        W35386  22.708  16.263  10.665
70402W        W35387   6.064   6.902   5.009
70403W        W35388  34.194  11.759  12.054
70404W        W35389  24.252  24.583   1.359
70405W        W35390   2.541  38.423   1.322
70406W        W35391   2.378  36.361   1.321
70407W        W35392   2.460  38.483   2.044
70408W        W35393  22.571   7.530  14.041
70409W        W35394  32.835   2.572   1.426
70410W        W35395  20.413   8.838   1.533
70411W        W35396  35.279  43.199  11.620
70412W        W35397  17.104  38.288   2.500
70413W        W35398  31.545   3.993   3.252
70414W        W35399  30.385  11.254  11.429
70415W        W35400   0.359  39.645   1.168
70416W        W35401  34.695  22.824   3.805
70417W        W35402  16.665  29.749  13.030
70418W        W35403  39.424  15.849   1.906
70419W        W35404  29.933  19.257  11.177
70420W        W35405  30.525   0.231  10.994
70421W        W35406  25.520  20.102   0.904
70422W        W35407  42.406  17.738  12.173
70423W        W35408   8.550  28.267  12.015
70424W        W35409  30.419   7.764  11.756
70425W        W35410   0.418  31.731   1.411
70426W        W35411  33.061  31.404  14.399
70427W        W35412  26.693   9.322   0.471
70428W        W35413  21.811   9.810   2.742
70429W        W35414  27.671  32.699   0.674
70430W        W35415  21.059  21.262   4.091
70431W        W35416  25.239  24.114  14.402
70432W        W35417   4.978  31.683  11.042
70433W        W35418  43.933   5.967  14.429
70434W        W35419  17.958  39.950  11.219
70435W        W35420   1.684  31.840  10.358
70436W        W35421   2.361   7.076   0.960
70437W        W35422  44.498  44.377  12.005
70438W        W35423   8.458  26.279   3.177
70439W        W35424  26.954  35.901   4.239
70440W        W35425  31.407  41.695  11.995
70441W        W35426  36.032  41.459   2.349
70442W        W35427  34.275  38.131   4.078
70443W        W35428  22.261   6.616   0.793
70444W        W35429  33.334   6.774  11.780
70445W        W35430   3.254  43.988  10.592
70446W        W35431  23.896   1.683   4.817
70447W        W35432  26.027   6.727   0.407
70448W        W35433  42.088  15.230   3.627
70449W        W35434  27.666   6.691  13.408
70450W        W35435  19.849  29.491  13.064
70451W        W35436  25.969  28.646   1.352
70452W        W35437  40.314  32.604   0.779
70453W        W35438  23.072  43.759  14.234
70454W        W35439   4.541  19.075  11.999
70455W        W35440  13.995  24.546  12.933
70456W        W35441  34.633  14.083  11.101
70457W        W35442  25.714  28.466   1.760
70458W        W35443  10.469  32.565  14.428
70459W        W35444   0.631  14.832   3.683
70460W        W35445   4.058   6.507  12.562
70461W        W35446  24.242  11.346  12.908
70462W        W35447  40.656  15.068   4.468
70463W        W35448  35.032   8.648  14.723
70464W        W35449  15.566  43.561  10.084
70465W        W35450   6.282  11.870  13.560
70466W        W35451  29.465  41.581  14.317
70467W        W35452  35.946  18.199  11.998
70468W        W35453  24.461  15.213  12.653
70469W        W35454   1.667  26.576   2.528
70470W        W35455  26.722  38.840   4.066
70471W        W35456   8.791  40.103  14.780
70472W        W35457  33.014  39.950   1.877
70473W        W35458  22.925  42.897   2.188
70474W        W35459  32.972  19.646   0.774
70475W        W35460  27.616  31.466  11.584
70476W        W35461   8.112  20.146   2.093
70477W        W35462   0.720  15.280  14.442
70478W        W35463   3.482  40.497  13.943
70479W        W35464   0.811  38.047  11.564
70480W        W35465  14.300  31.908   4.014
70481W        W35466  39.799  20.899  12.477
70482W        W35467  11.749  23.535  12.613
70483W        W35468  28.893  38.568   0.899
70484W        W35469  34.583  23.328  14.232
70485W        W35470  41.717  22.014  12.345
70486W        W35471  19.789  34.455  12.979
70487W        W35472  19.031  29.968  12.132
70488W        W35473  36.862  36.771  11.981
70489W        W35474  33.992   9.306  11.194
70490W        W35475  32.665  28.618   4.325
70491W        W35476  25.575  35.809   3.684
70492W        W35477  26.204  42.203  10.995
70493W        W35478   2.300  34.954   3.992
70494W        W35479   5.366   0.832   0.367
70495W        W35480  10.308  43.742  12.105
70496W        W35481  11.001   6.967   9.675
70497W        W35482  25.046   0.751   4.737
70498W        W35483  21.798  23.281  12.856
70499W        W35484   0.915   3.562   1.678
70500W        W35485  15.063  43.333   3.780
70501W        W35486  16.727   8.206  14.053
70502W        W35487  37.963  21.026   1.298
70503W        W35488  23.762  39.498   1.467
70504W        W35489  26.120   1.477  13.850
70505W        W35490  37.648  26.515  12.485
70506W        W35491  33.663  37.920  12.001
70507W        W35492   6.824  11.333   3.111
70508W        W35493  35.518  18.333   4.747
70509W        W35494  28.230  43.636  14.334
70510W        W35495  11.939   2.767   2.656
70511W        W35496  26.469   3.733  14.713
70512W        W35497  18.803  25.938   0.831
70513W        W35498  37.741  42.257   1.993
70514W        W35499  38.512  15.769   2.842
70515W        W35500  15.114   7.745  13.114
70516W        W35501  31.576  11.169  12.033
70517W        W35502  17.865  20.374   0.399
70518W        W35503  15.074  20.609   0.378
70519W        W35504   1.870   2.726  10.405
70520W        W35505  28.369  28.256  11.995
70521W        W35506  21.302   6.401   0.264
70522W        W35507  29.452  44.719   1.862
70523W        W35508  24.976  43.467  10.720
70524W        W35509  39.171  11.582  10.709
70525W        W35510  26.005   2.295   0.786
70526W        W35511  24.971  25.393  12.979
70527W        W35512  24.671  16.522  13.043
70528W        W35513   1.156  33.427   4.112
70529W        W35514  25.278  23.372   3.332
70530W        W35515  34.997  13.744  10.322
70531W        W35516  29.697   8.438  12.053
70532W        W35517  30.463   5.735   4.644
70533W        W35518  16.989   1.020  11.505
70534W        W35519  41.303  32.563   3.829
70535W        W35520  35.834  24.953   0.531
70536W        W35521  32.649   7.138   3.512
70537W        W35522  43.540   5.478   3.984
70538W        W35523  21.501   0.765   3.658
70539W        W35524  30.792  29.930  13.902
70540W        W35525  23.654   0.776  12.553
70541W        W35526   7.430  21.799   0.822
70542W        W35527   3.002  37.153  12.041
70543W        W35528   1.892  21.087  14.945
70544W        W35529  32.533  36.459  14.877
70545W        W35530  35.025   9.777   5.358
70546W        W35531  11.883   4.639   1.276
70547W        W35532   2.796  37.355  14.525
70548W        W35533  26.956   6.526   2.495
70549W        W35534  10.923  37.931  14.470
70550W        W35535  36.831  37.563  12.491
70551W        W35536   3.131   3.748  14.300
70552W        W35537   0.250  12.134   1.462
70553W        W35538  25.121  34.936   0.743
70554W        W35539  38.405  19.497  11.459
70555W        W35540  32.609  33.364   3.291
70556W        W35541   6.625  20.949   0.781
70557W        W35542  23.692  40.293  13.445
70558W        W35543   8.766  30.363   0.838
70559W        W35544  28.626  21.756   4.146
70560W        W35545   5.142  33.953   4.086
70561W        W35546  39.718  20.742  11.649
70562W        W35547  43.382  43.477  14.882
70563W        W35548  35.596  17.153   0.233
70564W        W35549   4.575   8.813   9.788
70565W        W35550  11.094   8.444   0.250
70566W        W35551   0.005  43.003   4.082
70567W        W35552   9.176  23.751   1.063
70568W        W35553   6.813  28.953   0.356
70569W        W35554  17.782   7.510   4.091
70570W        W35555  25.699  15.808   0.873
70571W        W35556  32.939   4.032  14.320
70572W        W35557  12.232  32.583   0.999
70573W        W35558  20.142  31.800   1.322
70574W        W35559   3.298  39.058   1.811
70575W        W35560  26.276  33.781  11.945
70576W        W35561  27.391  21.343  12.052
70577W        W35562  33.027  21.372   4.763
70578W        W35563  10.689   2.409  11.148
70579W        W35564  19.576  28.324  10.045
70580W        W35565  25.599  10.621   0.830
70581W        W35566  25.693  42.006   1.771
70582W        W35567  35.826   6.008   3.767
70583W        W35568  31.014  25.534   2.794
70584W        W35569  10.849  36.977   4.631
70585W        W35570  22.115   5.262   3.341
70586W        W35571  23.129  39.964   2.680
70587W        W35572  19.784  29.382  11.656
70588W        W35573   8.028  41.286  12.970
70589W        W35574  14.595  39.129   0.442
70590W        W35575  17.737  37.861  12.011
70591W        W35576  37.030  20.697   2.662
70592W        W35577  44.290  14.503  10.315
70593W        W35578   0.555  34.941   1.797
70594W        W35579  36.860  31.084  10.655
70595W        W35580   3.978  30.005   1.139
70596W        W35581   5.229  32.903  10.640
70597W        W35582   6.827  38.876   1.473
70598W        W35583  31.331  21.987  10.717
70599W        W35584  28.599  19.628   0.862
70600W        W35585  32.647  40.146  14.093
70601W        W35586  10.733  11.350   4.724
70602W        W35587   5.471  19.308   2.799
70603W        W35588   7.470  15.990   4.677
70604W        W35589   9.866  14.347  11.203
70605W        W35590  17.776   4.639  13.579
70606W        W35591   1.239   9.671  11.611
70607W        W35592  23.058  40.862  13.509
70608W        W35593  12.661  17.620  12.544
70609W        W35594  38.804   0.198   0.409
70610W        W35595   9.338  23.775   2.038
70611W        W35596  27.642  43.081  12.874
70612W        W35597  19.542  24.976  11.985
70613W        W35598   3.611  24.737   2.375
70614W        W35599  17.701   1.917   2.246
70615W        W35600  15.624  22.388   4.655
70616W        W35601  15.660   8.196   3.682
70617W        W35602  37.385   2.409  11.042
70618W        W35603  20.074  34.941   0.732
70619W        W35604  38.867   7.860  11.065
70620W        W35605  17.348   4.535  11.931
70621W        W35606  12.051  35.051   0.879
70622W        W35607  29.780  14.898   4.318
70623W        W35608  38.050  32.507  12.174
70624W        W35609  22.948  31.173   3.987
70625W        W35610  30.132  40.385  14.311
70626W        W35611  17.052  26.765   3.396
70627W        W35612   0.173   8.109  11.155
70628W        W35613  12.055   6.289   5.107
70629W        W35614  27.084  44.040   1.734
70630W        W35615  33.139  11.785   3.174
70631W        W35616  36.879  25.991  10.517
70632W        W35617  14.302  33.823  10.736
70633W        W35618   9.740  14.810  11.417
70634W        W35619  20.633  38.510  10.415
70635W        W35620   5.332  16.616   3.873
70636W        W35621  19.156  29.530  13.255
70637W        W35622  21.055   8.534  12.613
70638W        W35623  26.964  18.600  11.609
70639W        W35624  15.066  33.586   3.821
70640W        W35625  12.272  31.215   0.855
70641W        W35626   9.751   6.302  10.128
70642W        W35627   8.103  44.882   3.623
70643W        W35628  30.068   4.672  11.108
70644W        W35629  24.146  16.024  14.836
70645W        W35630  21.713   1.511  13.785
70646W        W35631  32.450  26.934  10.780
70647W        W35632   8.612  18.607  10.821
70648W        W35633  38.827  33.303   4.156
70649W        W35634   8.072  16.709  13.247
70650W        W35635  34.546  32.740   0.871
70651W        W35636  41.505   0.837  13.173
70652W        W35637   9.336   3.321   2.090
70653W        W35638  39.979  10.714  13.579
70654W        W35639  42.621  27.423   1.735
70655W        W35640  13.104   9.078  11.438
70656W        W35641  29.938  33.034  10.148
70657W        W35642  25.772   7.810   0.058
70658W        W35643  43.498  43.836  11.039
70659W        W35644  26.627   3.420   2.387
70660W        W35645  24.532   8.803  13.808
70661W        W35646  28.697  18.909   1.215
70662W        W35647  22.716  30.593   2.168
70663W        W35648  42.416   0.336   1.246
70664W        W35649   4.193  12.889   3.140
70665W        W35650   2.721  15.416  10.822
70666W        W35651   9.983   7.399  12.102
70667W        W35652  17.118  31.144  11.052
70668W        W35653  25.150  18.771  12.913
70669W        W35654   8.866  34.910  10.689
70670W        W35655  21.248  23.968  11.566
70671W        W35656  26.934  18.609  14.325
70672W        W35657  14.230   4.935  13.354
70673W        W35658   4.987  37.790  12.411
70674W        W35659  24.767   8.166   0.360
70675W        W35660  37.606  24.115  10.551
70676W        W35661  38.103  16.232  12.008
70677W        W35662  27.790   9.677  14.358
70678W        W35663   4.822   5.181  11.612
70679W        W35664  27.134  29.478  13.309
70680W        W35665   7.184  35.882   0.876
70681W        W35666  19.518  33.689   0.330
70682W        W35667  24.012   1.723  14.511
70683W        W35668  36.865  24.941   1.065
70684W        W35669  13.331  30.799  11.963
70685W        W35670  38.807  28.146   0.287
70686W        W35671  18.230  39.018   1.710
70687W        W35672   5.379   9.103  12.213
70688W        W35673  11.675  34.098   1.278
70689W        W35674   6.146   1.368   4.331
70690W        W35675   0.715  36.472   1.439
70691W        W35676   9.791  31.213   3.283
70692W        W35677   0.971  25.293  11.818
70693W        W35678  33.622   1.548  12.721
70694W        W35679  21.081  15.094   0.417
70695W        W35680  23.473  16.679   0.476
70696W        W35681  29.736  41.430   4.669
70697W        W35682  44.985   0.402   4.681
70698W        W35683  12.492  20.344   2.693
70699W        W35684   5.868  38.038   2.383
70700W        W35685  23.115  28.508   1.627
70701W        W35686   6.237   6.894   0.643
70702W        W35687  39.048  37.085  11.611
70703W        W35688  15.193  12.189   2.427
70704W        W35689  32.613  34.860  11.099
70705W        W35690  31.122  39.996   2.348
70706W        W35691  21.091  37.948  13.858
70707W        W35692  26.703   6.966  13.153
70708W        W35693  12.086  16.956  12.374
70709W        W35694   7.255   5.602  11.604
70710W        W35695  30.491  17.661  14.193
70711W        W35696  30.636  21.323   1.499
70712W        W35697  20.746  21.826   2.827
70713W        W35698  17.339   9.765  11.045
70714W        W35699  39.344  35.383   1.783
70715W        W35700  17.218  32.152   0.506
70716W        W35701  31.533  32.573   1.849
70717W        W35702  31.949   2.227  13.136
70718W        W35703   5.829  14.589  11.450
70719W        W35704  20.599  28.866   4.509
70720W        W35705  32.837  43.862   3.983
70721W        W35706  17.214  23.537   1.308
70722W        W35707  25.570  23.177  13.997
70723W        W35708  22.072  24.167   3.711
70724W        W35709  21.859  29.634  14.936
70725W        W35710  22.991   3.323  14.970
70726W        W35711  31.104  43.347  13.515
70727W        W35712  24.864   8.954  13.205
70728W        W35713  33.068  13.083   0.336
70729W        W35714  41.841   6.827   1.301
70730W        W35715   9.827  30.742  11.005
70731W        W35716  29.038  11.706  11.893
70732W        W35717   3.231  15.169   0.336
70733W        W35718   9.675  11.934   4.566
70734W        W35719  26.406  33.606   2.842
70735W        W35720  25.869  44.761   4.078
70736W        W35721  34.600  43.286   2.678
70737W        W35722  20.491  11.354   4.805
70738W        W35723   5.943  11.581   2.457
70739W        W35724   8.500  24.663  13.310
70740W        W35725  23.865  24.051   0.562
70741W        W35726  26.984  29.347  14.177
70742W        W35727   9.980   1.706   0.780
70743W        W35728   1.620  10.525   1.822
70744W        W35729  11.703  32.978   1.737
70745W        W35730  42.367  29.616   0.799
70746W        W35731   2.464   3.355  14.925
70747W        W35732  42.821  11.417  10.278
70748W        W35733  38.979  33.529  11.112
70749W        W35734  22.610   2.818   2.345
70750W        W35735  17.233  32.179   1.046
70751W        W35736  20.324  17.312   4.237
70752W        W35737  39.143  38.677  14.473
70753W        W35738  19.762   8.851  13.976
70754W        W35739   3.792  26.717  12.961
70755W        W35740  40.107   0.686   2.054
70756W        W35741  38.507  22.786  11.212
70757W        W35742  14.564  18.495  14.234
70758W        W35743  16.176  17.556  12.390
70759W        W35744   8.148  33.765  13.638
70760W        W35745  12.422  36.306  14.778
70761W        W35746  20.834  34.347  12.814
70762W        W35747  24.247   6.775  14.839
70763W        W35748  26.449  10.640  11.543
70764W        W35749  13.262  14.371  13.390
70765W        W35750  26.473  21.657   0.013
70766W        W35751   9.411  36.980   4.611
70767W        W35752  37.047  37.553  12.978
70768W        W35753  38.992  33.881  11.507
70769W        W35754  44.839  42.078  13.760
70770W        W35755  40.262   4.202   3.747
70771W        W35756  40.643  20.004   0.382
70772W        W35757  40.042  17.385   1.319
70773W        W35758   2.413   2.759   2.815
70774W        W35759  15.552   0.516  13.104
70775W        W35760   8.106  18.761  10.822
70776W        W35761  16.727   5.822   3.970
70777W        W35762  37.972  25.452  14.415
70778W        W35763  38.437  44.219   3.097
70779W        W35764  41.783  42.369  13.480
70780W        W35765  28.020  30.653  14.667
70781W        W35766  12.812  34.879  14.313
70782W        W35767  12.859  11.229  13.064
70783W        W35768  43.755  35.788   0.834
70784W        W35769  16.457  11.126   2.853
70785W        W35770  21.713  26.459   4.502
70786W        W35771  27.224  12.013   2.697
70787W        W35772  23.746  27.601   4.014
70788W        W35773  16.530   2.932   3.203
70789W        W35774  43.942  15.757  14.984
70790W        W35775  31.367   4.230   3.687
70791W        W35776  10.227  23.787   3.435
70792W        W35777  37.515  18.136  14.495
70793W        W35778  15.267  34.768  12.997
70794W        W35779  26.634  43.592  11.148
70795W        W35780  39.391  33.126  13.818
70796W        W35781  25.180  41.824   4.647
70797W        W35782  36.023  24.232  11.090
70798W        W35783  38.877   5.123  14.840
70799W        W35784  11.439  29.923   1.834
70800W        W35785  38.543  28.939   4.090
70801W        W35786  12.269  41.826  13.266
70802W        W35787  23.516  30.879  12.487
70803W        W35788  34.467  12.536  13.752
70804W        W35789  25.079  42.611  12.917
70805W        W35790  24.484  23.489   4.152
70806W        W35791  32.170   9.336   1.846
70807W        W35792  34.277  26.184   3.130
70808W        W35793  13.709  34.686   0.254
70809W        W35794  26.252  18.850  10.511
70810W        W35795   5.181  44.878  14.942
70811W        W35796  41.867  17.807   0.460
70812W        W35797  27.015  13.739  10.747
70813W        W35798  44.982  27.190  10.926
70814W        W35799  29.579  16.549  14.932
70815W        W35800  11.870  22.610  11.208
70816W        W35801   2.877  39.379  10.654
70817W        W35802  38.966  42.294   1.162
70818W        W35803  37.194  43.575   1.868
70819W        W35804  28.912  15.170   2.031
70820W        W35805  44.975  25.192   1.818
70821W        W35806  38.522  14.307   4.609
70822W        W35807   0.348  22.742   2.639
70823W        W35808   9.832  31.621  10.738
70824W        W35809  28.901  23.642   2.791
70825W        W35810   4.303  33.350   1.785
70826W        W35811  13.013  41.329  10.707
70827W        W35812  18.717  15.499  13.519
70828W        W35813  23.742  42.521  14.460
70829W        W35814  30.861  38.675   1.587
70830W        W35815  15.134  27.137  13.142
70831W        W35816  24.257  32.800  12.906
70832W        W35817  37.544  22.215   3.151
70833W        W35818  34.464  35.042   0.945
70834W        W35819  13.861  19.076  14.861
70835W        W35820  15.273  35.077  10.716
70836W        W35821   4.886  10.033   4.712
70837W        W35822  22.040   9.285  13.866
70838W        W35823  34.131  25.926   0.246
70839W        W35824  42.159   0.222  12.282
70840W        W35825  19.100   1.149  11.949
70841W        W35826  37.606   5.313  12.436
70842W        W35827   0.856  41.230   3.787
70843W        W35828   8.670  10.634  14.422
70844W        W35829  18.657   5.479  12.948
70845W        W35830  16.041  29.967  11.676
70846W        W35831  25.065  41.063   2.799
70847W        W35832  35.938  25.949  10.496
70848W        W35833  28.706   4.303  11.734
70849W        W35834  44.544  14.229  10.695
70850W        W35835  14.470  12.189   3.008
70851W        W35836  22.328  16.821   5.067
70852W        W35837  21.527  30.860   0.190
70853W        W35838  28.680  22.675  10.980
70854W        W35839  21.330  33.983  11.526
70855W        W35840  21.684   7.820  10.683
70856W        W35841  30.095  18.154  12.062
70857W        W35842  28.010  14.048  11.529
70858W        W35843  37.471  30.459  10.970
70859W        W35844  44.913  23.607   2.734
70860W        W35845   6.293  26.062  14.115
70861W        W35846  35.327  33.640   2.610
70862W        W35847   0.026  19.232   4.892
70863W        W35848   3.489  11.384  11.622
70864W        W35849  15.791  25.080   3.417
70865W        W35850   0.374  13.993  11.896
70866W        W35851  38.109   3.781   3.893
70867W        W35852   9.375  12.212   4.253
70868W        W35853  14.224  40.886   2.292
70869W        W35854  34.912   1.259  11.634
70870W        W35855  32.716   5.207  14.923
70871W        W35856   7.396  42.840   2.289
70872W        W35857  33.563  11.370   0.974
70873W        W35858  16.796  30.673   4.277
70874W        W35859   7.449  14.084  14.551
70875W        W35860  16.368  19.506   4.954
70876W        W35861  27.330  18.873  14.085
70877W        W35862   1.770   9.344   2.773
70878W        W35863  37.796  37.167  12.127
70879W        W35864  37.843  11.276   0.112
70880W        W35865  27.326  11.251  11.949
70881W        W35866  21.080  29.629   2.383
70882W        W35867  15.934  15.129  13.725
70883W        W35868  43.891  21.792   1.883
70884W        W35869  33.423   2.284  11.985
70885W        W35870  22.704  10.324   3.652
70886W        W35871  12.247  20.638  12.739
70887W        W35872  42.499  18.396  14.304
70888W        W35873  16.599  11.816   1.682
70889W        W35874  11.086   1.984   3.702
70890W        W35875  22.253   4.008  14.820
70891W        W35876  16.000  19.629   3.182
70892W        W35877   2.403  39.164  10.674
70893W        W35878  42.128  43.058  14.023
70894W        W35879  38.427  23.293  11.159
70895W        W35880  42.727   4.397  11.681
70896W        W35881  23.146  11.404   0.334
70897W        W35882  12.188   0.386  13.119
70898W        W35883  33.813  26.949   0.448
70899W        W35884  24.980  15.027  14.851
70900W        W35885  11.186  23.837   0.778
70901W        W35886  28.138   9.927   2.236
70902W        W35887  28.372  27.676   1.916
70903W        W35888   4.888  22.063  13.546
70904W        W35889  40.458  44.215   1.500
70905W        W35890  15.695  25.739  10.485
70906W        W35891   2.356  19.829   2.072
70907W        W35892  31.442  14.852  13.797
70908W        W35893  16.048  36.894   0.551
70909W        W35894   7.217  26.713  12.651
70910W        W35895   0.817  40.628   1.298
70911W        W35896  15.656  41.175  11.176
70912W        W35897   5.480  20.325   1.349
70913W        W35898  15.265  13.204   3.633
70914W        W35899  25.230   2.970   0.776
70915W        W35900  31.088  41.084   0.010
70916W        W35901  37.518  13.293   0.618
70917W        W35902  11.659  29.613   2.999
70918W        W35903  40.722   1.724   3.975
70919W        W35904  37.304  36.085   2.912
70920W        W35905  43.193  21.869   2.173
70921W        W35906  27.472  24.873   2.714
70922W        W35907  19.300  11.645  10.378
70923W        W35908  22.679  42.088  14.735
70924W        W35909  43.987  30.936   4.170
70925W        W35910  37.614  42.111  14.473
70926W        W35911  44.958  16.027  10.739
70927W        W35912  14.585  37.041  10.869
70928W        W35913  19.610  14.928  10.572
70929W        W35914  42.858  41.267   1.922
70930W        W35915  24.637  29.866  14.308
70931W        W35916   1.953  31.923  14.368
70932W        W35917  34.945  40.865   2.073
70933W        W35918  38.968  40.930  11.845
70934W        W35919  22.998  43.939   3.266
70935W        W35920  10.820  26.132   2.891
70936W        W35921   8.240  21.441  14.798
70937W        W35922  14.554   8.236  14.402
70938W        W35923  11.616  19.992  13.979
70939W        W35924  28.257  32.857  11.397
70940W        W35925  35.544  30.185   4.834
70941W        W35926  12.705  13.278   3.260
70942W        W35927  40.378  31.875  12.648
70943W        W35928  38.583  44.454  11.427
70944W        W35929  33.572  35.562   0.276
70945W        W35930  41.685  21.171   3.134
70946W        W35931  43.463  35.016  12.315
70947W        W35932  15.600   2.503   3.184
70948W        W35933  24.230  22.267  12.485
70949W        W35934  11.264  30.198  12.084
70950W        W35935   2.628   3.824  14.692
70951W        W35936  34.606  37.770  11.999
70952W        W35937   7.167   6.259  10.460
70953W        W35938  15.312  32.690   0.213
70954W        W35939  32.582  26.733  13.468
70955W        W35940  44.725  10.662  13.835
70956W        W35941  40.137   7.080  13.628
70957W        W35942  29.704  38.360  13.410
70958W        W35943  27.648   3.108   3.652
70959W        W35944  16.048  33.855  12.717
70960W        W35945   1.644  35.811  14.521
70961W        W35946   9.824   4.329  14.925
70962W        W35947  12.196  35.907   0.683
70963W        W35948  31.129  12.774   3.959
70964W        W35949  20.098  30.982   3.670
70965W        W35950   3.199   4.221  13.960
70966W        W35951  22.780  14.298   3.307
70967W        W35952  31.870  22.057   1.176
70968W        W35953  11.895   4.168   0.495
70969W        W35954   8.158  31.044  13.570
70970W        W35955  12.265  31.982  13.627
70971W        W35956   2.356  20.739  13.565
70972W        W35957   4.769   4.398  10.569
70973W        W35958   2.703  43.755   3.262
70974W        W35959  33.866  34.892   3.599
70975W        W35960  11.661  37.487   0.030
70976W        W35961  27.423  32.693   4.159
70977W        W35962  38.216  33.444  12.596
70978W        W35963   2.473  21.919  14.890
70979W        W35964  38.776  29.602   3.683
70980W        W35965   1.830  25.744   2.741
70981W        W35966  13.279   8.256  10.973
70982W        W35967  13.262  16.221  11.597
70983W        W35968  12.887   1.224   4.506
70984W        W35969  44.096  21.562  14.997
70985W        W35970  27.724   5.619  14.834
70986W        W35971  31.356  13.640  10.885
70987W        W35972  13.879  41.556  10.974
70988W        W35973  14.696  17.005   0.461
70989W        W35974   8.268  26.160  11.676
70990W        W35975  35.997  16.754   4.096
70991W        W35976   2.464   8.702  11.062
70992W        W35977   3.314  35.018   1.789
70993W        W35978   4.679   8.332  13.002
70994W        W35979  43.096  10.211   0.437
70995W        W35980   2.046  25.513  12.713
70996W        W35981  17.777   3.768  12.032
70997W        W35982   3.656  19.718  11.445
70998W        W35983   5.399  31.105   4.819
70999W        W35984  19.157  31.417  12.603
71000W        W35985  12.570  25.271  11.163
71001W        W35986  39.999  29.602  14.039
71002W        W35987  22.939  34.464   1.277
71003W        W35988  36.372  25.147  13.816
71004W        W35989  11.299  22.536   4.519
71005W        W35990  29.484  31.984   2.973
71006W        W35991  23.540  37.353   3.862
71007W        W35992  27.674   8.409   0.141
71008W        W35993  42.600  16.401  13.502
71009W        W35994  12.839   4.247   4.626
71010W        W35995   3.484  32.599  11.477
71011W        W35996  17.607  23.582   0.374
71012W        W35997  33.558  31.581   4.633
71013W        W35998  23.430  22.805   1.236
71014W        W35999   0.966   5.080   0.056
71015W        W36000   3.382  23.521  12.554
71016W        W36001  20.184   2.236  11.662
71017W        W36002  34.364   0.382   2.477
71018W        W36003  41.018  20.476  10.666
71019W        W36004  25.452  28.671   1.327
71020W        W36005  35.786  27.538   0.866
71021W        W36006  38.107  41.068  12.378
71022W        W36007  36.410  39.403  13.821
71023W        W36008  35.939  38.673  10.913
71024W        W36009  23.595  12.212  10.637
71025W        W36010  16.646  24.298   1.337
71026W        W36011   7.774   1.444  12.836
71027W        W36012  18.858  34.611  13.544
71028W        W36013  25.991  16.010  13.416
71029W        W36014  15.927  23.811  11.026
71030W        W36015   2.772  22.110   0.777
71031W        W36016  44.168  37.525   0.356
71032W        W36017  44.739  44.535  13.291
71033W        W36018  26.074  32.160  11.164
71034W        W36019  23.970  35.317  11.509
71035W        W36020   0.777  12.723  14.022
71036W        W36021  40.345  37.508   3.076
71037W        W36022  35.786  38.271  14.758
71038W        W36023  26.715  21.653   4.242
71039W        W36024  19.606  32.023  13.147
71040W        W36025  10.804  12.756  13.085
71041W        W36026  11.113  31.274  12.876
71042W        W36027  34.900  43.489   4.229
71043W        W36028  14.235   4.422   3.409
71044W        W36029   1.254  12.791  14.831
71045W        W36030  17.120  32.866  13.339
71046W        W36031  33.909   6.777   4.490
71047W        W36032  16.068  12.142   4.998
71048W        W36033  34.038  28.524  10.672
71049W        W36034  10.440  10.751  14.717
71050W        W36035  36.324  31.330  15.000
71051W        W36036   1.464   1.458  12.412
71052W        W36037   9.373  29.395   2.189
71053W        W36038   9.758   9.857  12.588
71054W        W36039  35.808  19.954  11.116
71055W        W36040   6.664   5.963  14.306
71056W        W36041  27.053  42.726   1.993
71057W        W36042  31.014  41.291  14.522
71058W        W36043  36.388   4.066  10.677
71059W        W36044  21.239  30.609  11.617
71060W        W36045   2.675   9.481  13.483
71061W        W36046  18.047  22.974   1.420
71062W        W36047  34.419  44.066   3.209
71063W        W36048  31.649  41.828   2.347
71064W        W36049  12.779   9.789   1.309
71065W        W36050  36.971  21.756  14.523
71066W        W36051  17.029  29.561   3.082
71067W        W36052  22.681   3.317  11.056
71068W        W36053   4.895  19.438  11.962
71069W        W36054  20.687  11.608  11.980
71070W        W36055   8.317  18.732  13.002
71071W        W36056  24.087  28.220  11.165
71072W        W36057  12.698   2.935   1.914
71073W        W36058  44.776  21.017   3.265
71074W        W36059  26.106  26.741   3.609
71075W        W36060   2.613  29.373  12.074
71076W        W36061   6.178  23.685  11.183
71077W        W36062   4.868  16.568  12.609
71078W        W36063   0.978  35.549  13.093
71079W        W36064  21.168  32.715  10.776
71080W        W36065  22.226  33.971   0.721
71081W        W36066  19.052  21.132   0.261
71082W        W36067   6.848   3.367  11.525
71083W        W36068  33.066  15.095  13.188
71084W        W36069   1.357   0.991  12.608
71085W        W36070  11.546  30.639  14.887
71086W        W36071  18.564   3.372  13.078
71087W        W36072  19.038   0.460   2.808
71088W        W36073   4.446  13.137   4.799
71089W        W36074  23.628   6.193   0.324
71090W        W36075  14.388  22.750   1.822
71091W        W36076  13.482   4.773  13.808
71092W        W36077  12.709  34.537   4.710
71093W        W36078   8.815  29.943  10.654
71094W        W36079  28.713  33.386  13.532
71095W        W36080  12.474  36.715   0.728
71096W        W36081  34.480  34.348   4.084
71097W        W36082   2.259  27.436  13.497
71098W        W36083   4.827  10.041   1.752
71099W        W36084  38.638  12.142   1.663
71100W        W36085   6.564  15.088   4.182
71101W        W36086  17.833  33.055   2.863
71102W        W36087  23.977   4.654  11.370
71103W        W36088  29.321  39.366  14.849
71104W        W36089  40.477   4.386  11.159
71105W        W36090  18.682  37.984  13.621
71106W        W36091  11.640  27.056   2.829
71107W        W36092  41.762  19.173   0.250
71108W        W36093  27.476  10.314   3.097
71109W        W36094   1.674  30.096   0.840
71110W        W36095  12.725   1.755   3.218
71111W        W36096   8.369  22.020   1.324
71112W        W36097   2.297  32.507  10.689
71113W        W36098  18.329  44.929   4.564
71114W        W36099  29.413  14.177   1.241
71115W        W36100  37.012  33.101   2.223
71116W        W36101  23.138  33.428  13.835
71117W        W36102  40.329  22.316   0.767
71118W        W36103   8.141  22.682  12.919
71119W        W36104  23.662  20.317  11.611
71120W        W36105  35.558  38.031  11.157
71121W        W36106  16.564  21.085   3.131
71122W        W36107  13.729  11.034  11.239
71123W        W36108  26.676  22.642  11.226
71124W        W36109  31.696  21.664   3.282
71125W        W36110  16.257   5.315   0.979
71126W        W36111  38.272  35.096   3.731
71127W        W36112  19.838  24.115  12.155
71128W        W36113  18.719   0.417   0.057
71129W        W36114  28.267  38.082   4.881
71130W        W36115  23.860   4.143   0.366
71131W        W36116   4.924   1.965  10.915
71132W        W36117  23.991  38.907  12.484
71133W        W36118  24.933  17.293  12.825
71134W        W36119  27.314   4.353   2.412
71135W        W36120  39.574  13.795   1.903
71136W        W36121  23.115   0.153   2.284
71137W        W36122  17.736  23.699  11.530
71138W        W36123  33.101  11.203   1.915
71139W        W36124  12.618  28.113   2.577
71140W        W36125  10.281  35.783   4.204
71141W        W36126  24.843  19.085   3.244
71142W        W36127  33.314  20.538  14.314
71143W        W36128  42.943  25.686   0.938
71144W        W36129  42.442  32.964   0.893
71145W        W36130  10.663  25.342   4.673
71146W        W36131   0.254  19.180   3.637
71147W        W36132  11.891  43.020   2.666
71148W        W36133  35.458  19.379  13.413
71149W        W36134   9.306  14.273   3.518
71150W        W36135   0.414  38.616  13.272
71151W        W36136  43.369  27.733  13.266
71152W        W36137  11.351  12.780   2.440
71153W        W36138  40.361  44.608  13.800
71154W        W36139  41.063  30.717  11.978
71155W        W36140   3.437  27.423   3.217
71156W        W36141  24.779  40.963  13.084
71157W        W36142  18.144   0.893  14.538
71158W        W36143  30.927  20.948   2.225
71159W        W36144  15.615  35.182  11.075
71160W        W36145  22.790  15.240   2.557
71161W        W36146  12.835  23.085   4.048
71162W        W36147   4.624  40.971   4.595
71163W        W36148   3.431  30.872  11.568
71164W        W36149   0.411  33.424  14.787
71165W        W36150  30.596  31.925   0.653
71166W        W36151  16.738  44.800   2.305
71167W        W36152   6.798   0.312   3.242
71168W        W36153  11.731  13.602  14.952
71169W        W36154  28.056   8.711  12.061
71170W        W36155  14.138  13.600   1.235
71171W        W36156   2.856  25.448  13.311
71172W        W36157   2.687  39.875  12.089
71173W        W36158  32.109   2.241   2.749
71174W        W36159  18.611  10.650   0.055
71175W        W36160   0.181  38.922  14.741
71176W        W36161  11.267   5.736   5.021
71177W        W36162   4.744  24.281   4.624
71178W        W36163   1.999  42.768   2.368
71179W        W36164  15.383  17.480  13.447
71180W        W36165   5.597  33.529   1.146
71181W        W36166   7.843   3.116  14.213
71182W        W36167  27.557  18.487   1.956
71183W        W36168   9.639  12.131   3.314
71184W        W36169  38.120   5.994   0.857
71185W        W36170  22.172  31.603   1.129
71186W        W36171   7.931  25.425  14.390
71187W        W36172  26.152  31.580   1.102
71188W        W36173  33.291  11.619   4.424
71189W        W36174  28.684   3.319   3.489
71190W        W36175  33.890   5.447  13.194
71191W        W36176  41.717  32.967   3.968
71192W        W36177  16.815  21.075   0.815
71193W        W36178  19.677  43.221  13.338
71194W        W36179  24.663  38.613   4.602
71195W        W36180  19.981   6.029   3.941
71196W        W36181  15.642  17.632   1.724
71197W        W36182  24.536  17.329  10.819
71198W        W36183  21.232  21.066  13.377
71199W        W36184   8.878   7.979  11.363
71200W        W36185  18.232  34.173   0.327
71201W        W36186   4.748  37.850  10.668
71202W        W36187  15.212  14.714   1.915
71203W        W36188  32.061  44.458  14.874
71204W        W36189   8.689   4.259  12.150
71205W        W36190  11.185  41.921   3.768
71206W        W36191  31.406   1.462  11.073
71207W        W36192  21.954  25.020  13.260
71208W        W36193  18.700  19.530   2.163
71209W        W36194  11.911  22.565  12.531
71210W        W36195  13.234  39.161  12.576
71211W        W36196  31.875  18.113   4.798
71212W        W36197  41.548  30.656  13.898
71213W        W36198  26.238  22.828   4.593
71214W        W36199  38.882  38.812   3.715
71215W        W36200  20.145  30.429   1.689
71216W        W36201   5.694  10.582  13.340
71217W        W36202  30.712   0.274  12.057
71218W        W36203   3.141   2.752  14.728
71219W        W36204   1.409  20.918  13.080
71220W        W36205   7.309  15.724  11.145
71221W        W36206  26.457  35.037  14.384
71222W        W36207  44.510   2.808  11.495
71223W        W36208  13.713  34.526  12.011
71224W        W36209  20.753  42.031   4.874
71225W        W36210  43.643  19.275  14.966
71226W        W36211  33.386  23.701  13.529
71227W        W36212  26.239  26.245   4.903
71228W        W36213  23.168   5.760   2.495
71229W        W36214  34.321   2.916   4.278
71230W        W36215  17.230  28.970   3.110
71231W        W36216  34.443  34.009   3.385
71232W        W36217  22.545  21.583  12.618
71233W        W36218  27.007  37.883   4.949
71234W        W36219   1.671  32.828  12.877
71235W        W36220  44.729  39.763   2.248
71236W        W36221  30.868  29.959  12.906
71237W        W36222  25.562  41.740   2.205
71238W        W36223  10.236   1.906   4.175
71239W        W36224  39.750  10.157  14.367
71240W        W36225  12.281  26.308   0.164
71241W        W36226  10.764   6.436  13.568
71242W        W36227  11.645  40.070   3.202
71243W        W36228  25.705  27.209   2.317
71244W        W36229  42.268   4.168   2.660
71245W        W36230  38.884  36.835   1.664
71246W        W36231  18.723   0.045   1.238
71247W        W36232  26.771  12.206  13.934
71248W        W36233  18.148  41.447  11.584
71249W        W36234  18.130  10.614  11.709
71250W        W36235  15.276  31.854   3.709
71251W        W36236   4.365  18.049   1.806
71252W        W36237   7.304   7.336   4.653
71253W        W36238  15.229  10.166  14.889
71254W        W36239   8.507  31.979   2.184
71255W        W36240  12.180  12.596  14.236
71256W        W36241   9.851  40.274  12.140
71257W        W36242  15.329  26.486   2.703
71258W        W36243  29.366  40.378  13.971
71259W        W36244  16.616  11.925  10.784
71260W        W36245  23.161   3.649   0.898
71261W        W36246   5.970  31.534   4.301
71262W        W36247   8.681  35.537  12.418
71263W        W36248   7.360  21.343   3.790
71264W        W36249  15.827  41.746  14.922
71265W        W36250  16.141  28.561  11.518
71266W        W36251  19.861   7.742  13.390
71267W        W36252  25.510   0.187  13.571
71268W        W36253  26.772  27.901   3.331
71269W        W36254   5.914  37.321  11.877
71270W        W36255   8.909   2.012  11.479
71271W        W36256  25.213  28.715   4.990
71272W        W36257  13.979  10.631   2.472
71273W        W36258  42.205  22.471   4.022
71274W        W36259  11.077  37.415  11.617
71275W        W36260  42.458  41.916  11.247
71276W        W36261  34.822  33.603  11.978
71277W        W36262   4.470   9.945   3.647
71278W        W36263  37.600   6.383  13.862
71279W        W36264   1.972  18.463   2.033
71280W        W36265  26.891  22.548   1.716
71281W        W36266  38.298   6.685   3.782
71282W        W36267  38.431   4.154   3.144
71283W        W36268  36.628  31.463  14.589
71284W        W36269  31.056   3.796   3.585
71285W        W36270  35.998  36.738   4.821
71286W        W36271  41.131  33.209  11.497
71287W        W36272   7.113   5.163   0.751
71288W        W36273   3.286  32.212   2.890
71289W        W36274  18.833  10.466   0.491
71290W        W36275  44.714  20.660   2.876
71291W        W36276  21.197   9.190   1.220
71292W        W36277  16.300  25.436  12.590
71293W        W36278  38.991  23.284   1.789
71294W        W36279   1.858  37.516  14.491
71295W        W36280  27.567  25.582  12.783
71296W        W36281  21.129  19.506  12.129
71297W        W36282   2.633  40.636  13.118
71298W        W36283   5.456  26.973  12.967
71299W        W36284  11.231  15.256   0.686
71300W        W36285  40.064  41.605  12.431
71301W        W36286  32.879  32.973   4.717
71302W        W36287  11.142  12.463   2.799
71303W        W36288  17.538  43.087  12.851
71304W        W36289  15.707  35.491   3.338
71305W        W36290   3.307   0.746   1.786
71306W        W36291   9.263   2.728  11.463
71307W        W36292  20.773   1.468  11.601
71308W        W36293  31.026  30.416  13.113
71309W        W36294  44.419  38.649  11.781
71310W        W36295  34.650  30.496   1.237
71311W        W36296  16.430  12.633  12.325
71312W        W36297  44.433  38.935  13.582
71313W        W36298  22.511  39.224  12.615
71314W        W36299   6.319   0.482   3.337
71315W        W36300  31.400  29.105   3.278
71316W        W36301   6.919  43.747  11.491
71317W        W36302  26.805  27.385  11.241
71318W        W36303   7.688  32.617  11.756
71319W        W36304  44.384  31.887   2.749
71320W        W36305  14.495  32.623   3.048
71321W        W36306  32.394  38.083   0.824
71322W        W36307  24.544  10.272  14.068
71323W        W36308   3.496  19.849   4.309
71324W        W36309  26.549   6.973   0.918
71325W        W36310  42.778  24.039  13.450
71326W        W36311  34.419  13.099   5.128
71327W        W36312   6.106   3.767   4.019
71328W        W36313   5.437  10.667  11.691
71329W        W36314  39.961  31.037  14.857
71330W        W36315  22.018  39.483  12.435
71331W        W36316   3.438  41.305   3.109
71332W        W36317  21.261  24.133   0.413
71333W        W36318  38.326  14.151   1.315
71334W        W36319  10.249  18.815  12.100
71335W        W36320  25.030  37.019  14.808
71336W        W36321   9.701  10.337   0.045
71337W        W36322  30.652   1.641   1.161
71338W        W36323  37.516  42.921  14.453
71339W        W36324  15.167  13.350  12.535
71340W        W36325  30.117  44.468  11.201
71341W        W36326  42.208  15.649   2.348
71342W        W36327  43.040  10.555   3.737
71343W        W36328  24.037  41.991   3.152
71344W        W36329  25.069  34.627  13.736
71345W        W36330  14.191  43.565   2.825
71346W        W36331  24.732  34.988  13.994
71347W        W36332   8.963  22.599   0.774
71348W        W36333   2.842  42.994   1.703
71349W        W36334   6.961  17.164   1.416
71350W        W36335  41.805  27.409   2.715
71351W        W36336  30.444  24.896   3.158
71352W        W36337   1.330  22.045   3.309
71353W        W36338  34.573  31.072  13.502
71354W        W36339  28.038   5.864  12.325
71355W        W36340   5.945  37.088  12.998
71356W        W36341  36.121  24.726   4.199
71357W        W36342   9.881  27.512   3.141
71358W        W36343   7.503  29.201  11.821
71359W        W36344  38.627  44.839  12.077
71360W        W36345  35.939  18.689   0.240
71361W        W36346  20.711  36.613   0.443
71362W        W36347  18.130  33.448  14.551
71363W        W36348  35.145   7.339   5.193
71364W        W36349   8.806  27.962  10.716
71365W        W36350  43.340  40.225   3.771
71366W        W36351   2.890  14.638   2.580
71367W        W36352  20.716  21.312   3.185
71368W        W36353  22.991  34.519  13.065
71369W        W36354  20.217  29.772   9.529
71370W        W36355  37.835  18.993   4.527
71371W        W36356  25.446  35.570  13.920
71372W        W36357   6.844  38.717  11.075
71373W        W36358  17.167   9.421   1.371
71374W        W36359  38.297   6.851  14.535
71375W        W36360  33.518  42.487  10.682
71376W        W36361   0.539  13.797   3.290
71377W        W36362  32.547   0.578   3.700
71378W        W36363  40.764  19.285  13.892
71379W        W36364  22.290  11.233  12.553
71380W        W36365  21.559   3.805   4.941
71381W        W36366  30.039   2.871  11.909
71382W        W36367   8.370  44.917   4.133
71383W        W36368   5.340  39.603   4.966
71384W        W36369  11.423  20.820   3.338
71385W        W36370  37.000  11.854  13.402
71386W        W36371  32.662  12.764   1.613
71387W        W36372  29.185  39.241  13.360
71388W        W36373  29.724  36.390   2.707
71389W        W36374  37.165  12.390   1.805
71390W        W36375  29.043  26.074  14.597
71391W        W36376  35.343  41.603  13.455
71392W        W36377  23.157  20.976  13.049
71393W        W36378  37.109  40.654   0.349
71394W        W36379  10.423  15.329  11.089
71395W        W36380  17.097  43.924  12.952
71396W        W36381  20.844  44.213  14.881
71397W        W36382  24.944   2.756   3.066
71398W        W36383  42.293  28.856  13.377
71399W        W36384  28.748  43.674   0.310
71400W        W36385  39.218  39.895   3.724
71401W        W36386  22.532  19.118  12.913
71402W        W36387  22.426  41.977  11.994
71403W        W36388  33.353  21.120   4.160
71404W        W36389  42.112   4.401  14.841
71405W        W36390  24.025  10.732  11.180
71406W        W36391  42.963  32.424  11.592
71407W        W36392  43.324   2.595   2.363
71408W        W36393  41.327  32.527   1.908
71409W        W36394  12.574   3.914   2.225
71410W        W36395  31.547   3.110  10.343
71411W        W36396   9.626  30.611   2.649
71412W        W36397  18.053  14.385  14.617
71413W        W36398  16.311  31.485  13.571
71414W        W36399  36.622  35.104  11.868
71415W        W36400  34.477  39.914  11.543
71416W        W36401   1.177  30.455   1.785
71417W        W36402  35.561  19.074   0.219
71418W        W36403  18.553  36.367  13.964
71419W        W36404  26.172  28.239   0.457
71420W        W36405   0.767   7.884   4.760
71421W        W36406  24.564  41.832   3.555
71422W        W36407  41.975  37.493   0.409
71423W        W36408  31.094  35.289   4.175
71424W        W36409  44.450  29.230   3.721
71425W        W36410  10.899  44.782   3.899
71426W        W36411  44.829   4.479   1.587
71427W        W36412  33.366   6.200   9.883
71428W        W36413  29.234  13.533  11.645
71429W        W36414   9.335  28.358   2.207
71430W        W36415   2.473  25.967   2.764
71431W        W36416  25.506   1.893  12.146
71432W        W36417  20.814   8.274   4.579
71433W        W36418   1.018  28.106   1.151
71434W        W36419  27.722  27.065   2.281
71435W        W36420  34.082  33.945   2.800
71436W        W36421   8.895  16.383   3.551
71437W        W36422   8.845   7.130  14.436
71438W        W36423  21.199  17.754   2.950
71439W        W36424  42.803  10.697  12.812
71440W        W36425  25.758  22.275   1.202
71441W        W36426  11.349   1.047  11.252
71442W        W36427   5.370   2.976  14.830
71443W        W36428  20.709  18.639   1.879
71444W        W36429  20.647  15.462  14.892
71445W        W36430  20.191  41.512  11.234
71446W        W36431  39.876   1.489  12.484
71447W        W36432  19.739   8.484  14.382
71448W        W36433  24.165   9.137   4.588
71449W        W36434  26.718  33.521   0.332
71450W        W36435  42.325  29.093  12.901
71451W        W36436  41.353  14.658   1.010
71452W        W36437   7.571   7.592  11.469
71453W        W36438  14.619  23.055  10.685
71454W        W36439  31.995  37.794   0.963
71455W        W36440  29.172  13.758   1.474
71456W        W36441  43.909  44.348   3.222
71457W        W36442  31.961  25.119   1.765
71458W        W36443  21.015  30.664   3.759
71459W        W36444  40.026  44.739   4.204
71460W        W36445  34.324  31.965  11.586
71461W        W36446  21.634  30.432   5.147
71462W        W36447  37.031   9.188   4.123
71463W        W36448   0.180   6.636   1.980
71464W        W36449  12.277  26.947  10.646
71465W        W36450  32.935  41.571  13.099
71466W        W36451  23.577  23.940   4.050
71467W        W36452   4.480  26.635   0.253
71468W        W36453  14.197  32.594  14.595
71469W        W36454  30.532   5.743   0.850
71470W        W36455  13.178  33.943  12.979
71471W        W36456   7.537  34.404   4.134
71472W        W36457  38.248  28.142   4.692
71473W        W36458  44.797  41.726  11.257
71474W        W36459  20.184  16.647  14.362
71475W        W36460  20.032  37.625   0.805
71476W        W36461   2.447  36.248  13.473
71477W        W36462  28.430  14.322   4.665
71478W        W36463  10.350   8.595   2.781
71479W        W36464  42.552   7.534   4.139
71480W        W36465   9.859  39.011  14.429
71481W        W36466  15.899  43.834  10.436
71482W        W36467  33.135  11.795  14.368
71483W        W36468  35.331   8.876  13.817
71484W        W36469  42.791   4.783  14.034
71485W        W36470  30.559  33.240   0.005
71486W        W36471  43.570  30.889  10.408
71487W        W36472  44.210   2.394  11.543
71488W        W36473  17.195  28.069   2.473
71489W        W36474  21.259  13.401   4.102
71490W        W36475  20.270  41.003  11.692
71491W        W36476  22.142  24.601   4.024
71492W        W36477  18.613  21.565  12.962
71493W        W36478  18.810  34.363   1.327
71494W        W36479  12.242  31.298   3.126
71495W        W36480  33.520  13.357  10.992
71496W        W36481  23.470  39.088   1.443
71497W        W36482   0.530  18.454  11.943
71498W        W36483   2.722   0.532   3.616
71499W        W36484  12.869  28.617   0.213
71500W        W36485  43.983   5.893   2.806
71501W        W36486  29.113   4.527  11.530
71502W        W36487  14.553  15.158  12.516
71503W        W36488  25.548  39.887   2.259
71504W        W36489   0.294  38.408   4.515
71505W        W36490  37.674  15.763  13.973
71506W        W36491  35.976   6.169  13.049
71507W        W36492  26.335  13.240  11.514
71508W        W36493   3.494  33.076   1.790
71509W        W36494  15.310   6.229  13.062
71510W        W36495  27.543  44.944  10.341
71511W        W36496  18.791  35.146  14.707
71512W        W36497   4.933  37.907   1.212
71513W        W36498  14.282   2.830   1.877
71514W        W36499  13.301  22.592   0.943
71515W        W36500  28.551  36.226  14.223
71516W        W36501  28.070  30.029  12.992
71517W        W36502  23.256  42.362   4.979
71518W        W36503  13.633  21.693  13.887
71519W        W36504  32.581  39.890  13.555
71520W        W36505  20.813   5.757   2.950
71521W        W36506  33.368  16.228  11.329
71522W        W36507  36.048  34.019   3.717
71523W        W36508  28.625   4.359  12.240
71524W        W36509  19.878  14.267   2.778
71525W        W36510  35.341  32.063  14.381
71526W        W36511  28.678  21.491   3.663
71527W        W36512  40.385  22.097   2.350
71528W        W36513  12.883  35.023  10.615
71529W        W36514  15.125  22.692  11.201
71530W        W36515   3.967  22.717   4.255
71531W        W36516  41.211  12.244  11.190
71532W        W36517   4.453  15.367  12.151
71533W        W36518  15.171  39.951   2.823
71534W        W36519  37.053   7.580   4.006
71535W        W36520  30.194  39.347   0.400
71536W        W36521  12.071   4.257  11.153
71537W        W36522  27.234  25.563  12.373
71538W        W36523   3.412  30.652   0.253
71539W        W36524  19.962  38.057   4.210
71540W        W36525   6.783  23.888   0.705
71541W        W36526  20.508  18.784  13.634
71542W        W36527  17.250  16.849   3.761
71543W        W36528   8.474   3.000  11.097
71544W        W36529  27.978  32.078  14.016
71545W        W36530   2.215  22.038   4.435
71546W        W36531   7.153  15.249  13.862
71547W        W36532  16.331  27.279  13.434
71548W        W36533  23.099  38.600  11.093
71549W        W36534  40.120   2.211  12.920
71550W        W36535  39.056   3.379   4.915
71551W        W36536  17.816  24.963  13.512
71552W        W36537  31.629  13.396   3.268
71553W        W36538  29.568  36.028  11.144
71554W        W36539  30.493   1.247   2.709
71555W        W36540  43.657  22.431  10.981
71556W        W36541  16.629  25.845   2.639
71557W        W36542  32.305  14.102   1.044
71558W        W36543  10.892  28.434  13.699
71559W        W36544  24.735  34.116   3.224
71560W        W36545  36.800   6.379   1.179
71561W        W36546  34.338  39.398  11.252
71562W        W36547  24.522  39.513  14.306
71563W        W36548   4.758  37.643  11.605
71564W        W36549  15.926  15.421   9.967
71565W        W36550  14.297   5.771  13.647
71566W        W36551  20.245  34.777   4.593
71567W        W36552  21.758   4.926   4.679
71568W        W36553  20.573  14.501   2.184
71569W        W36554  44.432  13.264  13.639
71570W        W36555  37.131  44.932   4.710
71571W        W36556  26.083   4.269   0.722
71572W        W36557  30.116  15.917   0.412
71573W        W36558  43.665  40.026  13.534
71574W        W36559  22.697  39.779  10.807
71575W        W36560  22.167   5.818   1.273
71576W        W36561  44.357   0.339   1.253
71577W        W36562  24.010   3.159   4.871
71578W        W36563  12.412  40.120  11.927
71579W        W36564  27.539   2.946  14.346
71580W        W36565   9.679  35.130  12.530
71581W        W36566  25.945  25.576   4.275
71582W        W36567   4.704  11.241   3.301
71583W        W36568  27.492   0.715   3.112
71584W        W36569   2.443  15.104  13.600
71585W        W36570  39.803  41.259  11.510
71586W        W36571  12.692  16.202  14.685
71587W        W36572  19.381  16.126  14.082
71588W        W36573  28.515  26.696  14.558
71589W        W36574  19.201   0.275  14.832
71590W        W36575  34.912  43.934   3.433
71591W        W36576  42.176  19.566  11.582
71592W        W36577   5.589  16.826  14.900
71593W        W36578   7.793  23.774   1.406
71594W        W36579   5.123  35.292   3.163
71595W        W36580  25.278  38.897   0.959
71596W        W36581  15.026   8.109   0.329
71597W        W36582   1.007  10.893   4.391
71598W        W36583  29.926  19.768   3.607
71599W        W36584   2.282  29.699   2.320
71600W        W36585  15.351  40.991   0.963
71601W        W36586  41.306  26.041   0.496
71602W        W36587  37.094  34.389   2.639
71603W        W36588  29.813  27.610   0.654
71604W        W36589  24.070  14.660  12.989
71605W        W36590   0.044  38.006  14.322
71606W        W36591  23.073   9.786   2.410
71607W        W36592  13.263  30.078   1.763
71608W        W36593  10.291   2.700  11.324
71609W        W36594  44.434  24.375  10.303
71610W        W36595   2.707  31.560   3.523
71611W        W36596  42.385  16.774  13.797
71612W        W36597  16.744  19.011  10.331
71613W        W36598  29.010  24.338  11.657
71614W        W36599  36.275  24.324   0.561
71615W        W36600  26.730  19.563  14.327
71616W        W36601  23.212   6.684  14.946
71617W        W36602  13.624  31.873  11.577
71618W        W36603  31.149   3.346  11.181
71619W        W36604  40.458   1.887   4.376
71620W        W36605  37.485   5.795  12.624
71621W        W36606  26.771  34.040  10.284
71622W        W36607  39.246  37.033   3.748
71623W        W36608  20.675   1.950  10.719
71624W        W36609  22.293  43.000   4.558
71625W        W36610  11.944   5.366  13.988
71626W        W36611  28.870  44.017  13.001
71627W        W36612  38.437  26.681  11.219
71628W        W36613  14.065   4.644   4.218
71629W        W36614  17.095  11.623  10.617
71630W        W36615  31.232   2.784  14.886
71631W        W36616  16.221   5.814   1.826
71632W        W36617   8.977   6.722  13.703
71633W        W36618  23.606  25.154   1.490
71634W        W36619  17.478  43.874   0.835
71635W        W36620   3.098  22.136   2.391
71636W        W36621   1.951  24.073  11.182
71637W        W36622  33.077  31.414  12.985
71638W        W36623  35.847   2.825   0.335
71639W        W36624  22.591  13.653   4.098
71640W        W36625  36.853  34.422  13.908
71641W        W36626  44.538  37.464   3.170
71642W        W36627  28.097  11.872   2.064
71643W        W36628   7.959   5.740   2.267
71644W        W36629  27.017   3.096  10.772
71645W        W36630  27.475  32.171   3.380
71646W        W36631  28.881  29.282   2.019
71647W        W36632  33.016  39.789  13.342
71648W        W36633   3.950   3.240  10.641
71649W        W36634  44.888  38.700   4.347
71650W        W36635   3.893   4.332   3.926
71651W        W36636  24.181  11.533  10.927
71652W        W36637  29.466  30.512  13.389
71653W        W36638  27.124  19.684   4.100
71654W        W36639   0.890  40.025   1.781
71655W        W36640  44.905  23.929  13.357
71656W        W36641   2.066  42.337   4.504
71657W        W36642  11.235  18.280  13.425
71658W        W36643  19.581  21.772  14.051
71659W        W36644  10.110  32.902   2.171
71660W        W36645  13.962  34.004  11.728
71661W        W36646  39.021   8.426  14.669
71662W        W36647  37.492  30.099   0.377
71663W        W36648  16.941  17.358   2.894
71664W        W36649  31.495   9.993  10.262
71665W        W36650  19.107  23.487   0.790
71666W        W36651   8.262  38.273   1.634
71667W        W36652  17.640   5.712  14.420
71668W        W36653  26.462  32.631  14.369
71669W        W36654  18.776  20.593  11.866
71670W        W36655  23.059  36.466   3.802
71671W        W36656   3.363  43.459  11.482
71672W        W36657  17.660   5.186  14.428
71673W        W36658  27.914   5.666   0.342
71674W        W36659  13.137  38.272   3.510
71675W        W36660  10.915   8.408  13.104
71676W        W36661  29.175  20.391   2.096
71677W        W36662  36.888   5.042  12.038
71678W        W36663  24.707  27.490   1.794
71679W        W36664  34.884  35.014   0.597
71680W        W36665  25.036  29.043  13.272
71681W        W36666  21.736  32.591   3.871
71682W        W36667  13.310  41.093  12.629
71683W        W36668   0.844  14.894   4.837
71684W        W36669   7.427  37.076   3.355
71685W        W36670  25.059   1.010  14.590
71686W        W36671  20.974  37.310   4.225
71687W        W36672  21.134  44.790  11.581
71688W        W36673   1.715   2.315  12.432
71689W        W36674   2.929  34.153  12.041
71690W        W36675  14.235  36.323  14.442
71691W        W36676  36.594   5.226   2.873
71692W        W36677   7.285  24.228   1.726
71693W        W36678  17.061  36.099   2.277
71694W        W36679  10.967  36.967   1.494
71695W        W36680  14.774  20.710  12.937
71696W        W36681  14.433  11.712  11.496
71697W        W36682  10.106  33.927   3.192
71698W        W36683  34.589  33.907  11.555
71699W        W36684  30.138   6.797  11.870
71700W        W36685  44.521   9.353  14.241
71701W        W36686  34.631  34.965  10.719
71702W        W36687  16.058   6.359   1.401
71703W        W36688   9.996   1.191   1.714
71704W        W36689  27.466  11.637  14.560
71705W        W36690  35.594  43.363  11.227
71706W        W36691  34.344  40.530  14.815
71707W        W36692  26.802  37.422  12.128
71708W        W36693  35.739  14.329   2.743
71709W        W36694  38.981  14.617   0.327
71710W        W36695  44.878  30.352   0.968
71711W        W36696  37.528   7.206  13.076
71712W        W36697  20.605   1.040  12.216
71713W        W36698  29.198  33.786   4.975
71714W        W36699  38.474  37.091   3.228
71715W        W36700  11.560  36.400  12.541
71716W        W36701  30.854  15.903   1.845
71717W        W36702   1.180  10.128   3.688
71718W        W36703  14.311   6.236   0.539
71719W        W36704  43.322  33.835  11.182
71720W        W36705  35.640   5.237  13.355
71721W        W36706  42.039  14.255   3.634
71722W        W36707  33.619  33.552   0.223
71723W        W36708  16.032  11.781  14.344
71724W        W36709  31.980  30.577  12.614
71725W        W36710  18.821  14.666  12.177
71726W        W36711  28.705  22.939  11.409
71727W        W36712   2.784   1.749   3.330
71728W        W36713   6.223  37.976  13.351
71729W        W36714  38.978  10.967  10.145
71730W        W36715  15.418  31.075   0.494
71731W        W36716  27.580  15.217   0.028
71732W        W36717  29.842  11.506   2.306
71733W        W36718  12.782  11.827  10.836
71734W        W36719  44.966  29.391  13.288
71735W        W36720  19.752   5.237   4.489
71736W        W36721  17.805  32.880   4.635
71737W        W36722  37.766  21.749  11.102
71738W        W36723  21.363   5.713  10.404
71739W        W36724  18.787   2.806   0.657
71740W        W36725   3.373  20.573  13.883
71741W        W36726  44.373  40.510   0.249
71742W        W36727   6.841  22.477  12.505
71743W        W36728   7.179   6.151  12.932
71744W        W36729  21.713  38.411  14.921
71745W        W36730  40.915  29.463   1.165
71746W        W36731  43.534  10.664  13.044
71747W        W36732  32.342   1.840   0.886
71748W        W36733   3.898  24.045  10.732
71749W        W36734  35.211  34.477  13.333
71750W        W36735  34.119  19.059   3.622
71751W        W36736  32.690  43.876   0.381
71752W        W36737   9.262  41.788  10.435
71753W        W36738   7.339  17.214   2.955
71754W        W36739  11.165  37.841   1.425
71755W        W36740  37.288  25.007  11.063
71756W        W36741  16.418  14.641   1.161
71757W        W36742  41.897  27.750   2.243
71758W        W36743   7.550  30.002   2.052
71759W        W36744  24.085  12.316   0.373
71760W        W36745  43.356  19.556   4.139
71761W        W36746  28.259  20.239   1.755
71762W        W36747   5.623   9.797  11.875
71763W        W36748  12.829  33.907  13.359
71764W        W36749  17.031  33.032   4.249
71765W        W36750  13.084  14.425   0.289
71766W        W36751  12.004   8.122   0.346
71767W        W36752  38.806  16.582  11.588
71768W        W36753  27.883  20.774  11.484
71769W        W36754   4.274  38.347   4.090
71770W        W36755  33.162  34.156  11.286
71771W        W36756  25.130  30.268   2.698
71772W        W36757  14.010  44.043   2.847
71773W        W36758   7.148  18.666   0.183
71774W        W36759   3.276  42.032   3.579
71775W        W36760  35.684  12.132   1.934
71776W        W36761  38.031   1.051   4.986
71777W        W36762  41.323   9.819   4.647
71778W        W36763   3.320  35.504   1.893
71779W        W36764  19.220  15.660  12.803
71780W        W36765  13.136  30.367   4.493
71781W        W36766   1.623  27.991   3.454
71782W        W36767  22.531  33.681   2.355
71783W        W36768  18.192   3.502  12.291
71784W        W36769  31.689  38.061  12.944
71785W        W36770  29.950   5.016   4.762
71786W        W36771   0.544  38.966   1.895
71787W        W36772   2.417  43.650  11.142
71788W        W36773   3.215   2.749   4.486
71789W        W36774  32.596  13.297   1.376
71790W        W36775   4.701   7.497   1.274
71791W        W36776  11.189  12.086   3.146
71792W        W36777  10.107   1.272   3.279
71793W        W36778  28.495  35.688   2.157
71794W        W36779  41.533  26.493  12.493
71795W        W36780   0.746  11.390  10.129
71796W        W36781  25.592  20.607   0.763
71797W        W36782  40.449   0.343  13.228
71798W        W36783  38.032  14.796  14.392
71799W        W36784  39.597   4.211   0.435
71800W        W36785  40.717  15.632  12.424
71801W        W36786   5.458  34.841  11.374
71802W        W36787  20.781  38.650   1.290
71803W        W36788  44.148  36.770   4.633
71804W        W36789  23.288  23.247   0.315
71805W        W36790   9.225  32.357  13.393
71806W        W36791   6.651  42.026   4.131
71807W        W36792  19.470  17.035   2.738
71808W        W36793  43.096  18.148  14.944
71809W        W36794  34.348  14.552   1.237
71810W        W36795  34.399  35.113  11.185
71811W        W36796   0.717  10.364  13.515
71812W        W36797  32.476  27.280   4.645
71813W        W36798   8.914   5.865  12.874
71814W        W36799  27.219  21.830  12.032
71815W        W36800  14.694  21.000  11.579
71816W        W36801  41.989  27.535  13.945
71817W        W36802   6.156  30.156  12.596
71818W        W36803  22.128  37.933  14.978
71819W        W36804  12.571  24.234  14.724
71820W        W36805  15.312  37.597  11.610
71821W        W36806  38.728  32.219   3.255
71822W        W36807   9.096  42.965  14.271
71823W        W36808  30.664   1.205   9.778
71824W        W36809  15.520  38.677   4.087
71825W        W36810  15.653  34.334   5.136
71826W        W36811  16.478   7.716  13.834
71827W        W36812  37.698  36.895   3.075
71828W        W36813  40.825  20.016  11.190
71829W        W36814  25.029  22.721  11.471
71830W        W36815  36.348  43.168   1.922
71831W        W36816  38.544  11.550   0.851
71832W        W36817  26.539  20.440   2.180
71833W        W36818  41.903   4.561  13.476
71834W        W36819   8.687  15.341   1.763
71835W        W36820  27.012  41.346  13.012
71836W        W36821  42.260  37.135  13.599
71837W        W36822  22.809  15.777  12.864
71838W        W36823   6.864  43.225   4.611
71839W        W36824  43.500  26.940   1.648
71840W        W36825  38.287  29.407   2.302
71841W        W36826  17.083  39.833  14.809
71842W        W36827   6.456   7.212  11.938
71843W        W36828  42.916  12.596  12.512
71844W        W36829  31.815   9.733  10.625
71845W        W36830  34.675  36.377  14.411
71846W        W36831  27.718  36.851  13.864
71847W        W36832  24.046   6.657  10.703
71848W        W36833  21.186  38.724  12.474
71849W        W36834  40.307  12.335  11.486
71850W        W36835  17.233  24.982  10.349
71851W        W36836  26.188  34.969   0.762
71852W        W36837  22.340   1.566   4.246
71853W        W36838  11.875  40.222  11.645
71854W        W36839  36.350  31.854   1.954
71855W        W36840  34.333  26.063   2.256
71856W        W36841  30.218   1.097  11.031
71857W        W36842  16.116  11.080   3.710
71858W        W36843   8.156  26.328   4.531
71859W        W36844  22.431  30.646   0.735
71860W        W36845   6.719  44.819   1.710
71861W        W36846   1.727   8.853  11.629
71862W        W36847  37.874  21.200   3.282
71863W        W36848  23.421  22.771  12.444
71864W        W36849  35.067  16.253  13.352
71865W        W36850  19.259   8.123  11.551
71866W        W36851   5.442  36.009   1.030
71867W        W36852  31.446  19.995   1.893
71868W        W36853  14.688  24.824   1.439
71869W        W36854   0.624  30.653  13.509
71870W        W36855  33.529  30.424  13.889
71871W        W36856  18.081  24.456  14.305
71872W        W36857  42.193  19.955  13.949
71873W        W36858  41.621   7.066   4.005
71874W        W36859  29.513  11.097   0.852
71875W        W36860  23.547  10.696   2.852
71876W        W36861  14.954  13.401   3.986
71877W        W36862  10.410  27.403   0.288
71878W        W36863  29.640  12.387  13.789
71879W        W36864  22.861  18.652  11.599
71880W        W36865  30.643  31.381  11.867
71881W        W36866  14.572   5.394   2.007
71882W        W36867  23.477  34.231  10.695
71883W        W36868  15.406  30.503   4.136
71884W        W36869  27.411   6.695   4.611
71885W        W36870   4.230  27.214  11.229
71886W        W36871  11.869  42.241  12.498
71887W        W36872   8.279   1.291   4.903
71888W        W36873  38.023   4.350   2.798
71889W        W36874  27.568  23.098   1.023
71890W        W36875  43.975  30.143  11.613
71891W        W36876  35.849  25.466   2.815
71892W        W36877  43.441  25.772   0.735
71893W        W36878  43.003  43.248  13.795
71894W        W36879  11.683  15.852   1.812
71895W        W36880  41.705  11.898  13.806
71896W        W36881  42.084  11.738   1.741
71897W        W36882   8.490   0.571  11.093
71898W        W36883  35.628  36.508  11.050
71899W        W36884  27.895  42.475   3.177
71900W        W36885  29.448  23.592  11.572
71901W        W36886  27.731  34.633  14.526
71902W        W36887  26.767  40.799   2.326
71903W        W36888  33.071   0.288   4.771
71904W        W36889  41.524  42.521  12.996
71905W        W36890  10.630  36.048   0.431
71906W        W36891   4.316  39.547  14.119
71907W        W36892   7.388  41.802  11.282
71908W        W36893  10.909  27.762  10.089
71909W        W36894  26.682  13.273   5.070
71910W        W36895  22.291  20.420   5.005
71911W        W36896  42.879  14.556  14.257
71912W        W36897  19.084  11.218  10.676
71913W        W36898  15.306   9.903  14.431
71914W        W36899  17.786   3.467  12.583
71915W        W36900  41.230  31.542   1.844
71916W        W36901  27.211  17.567  11.063
71917W        W36902  24.298  34.623   2.260
71918W        W36903  30.621  21.716  11.604
71919W        W36904   0.480  41.387   0.366
71920W        W36905  33.515  36.938   0.428
71921W        W36906  42.743  41.448   4.021
71922W        W36907  38.852  37.789  14.415
71923W        W36908  13.297  20.484  14.792
71924W        W36909  13.581  40.448   2.179
71925W        W36910   9.903  29.196   3.133
71926W        W36911  19.584  30.186  10.635
71927W        W36912  27.904  19.644  10.784
71928W        W36913   9.925  30.981   2.336
71929W        W36914  40.083  27.926  14.926
71930W        W36915  22.749  28.480   4.240
71931W        W36916  44.505   6.986  13.778
71932W        W36917  42.616  29.078  11.126
71933W        W36918  41.559   5.183   9.943
71934W        W36919  31.278  38.902  11.460
71935W        W36920  26.736   9.265  14.950
71936W        W36921  28.964  19.623   2.684
71937W        W36922  16.799  35.500   0.701
71938W        W36923   9.779  36.631   0.791
71939W        W36924  38.804  44.986  10.729
71940W        W36925   0.026  20.541   3.341
71941W        W36926  25.160  21.737  11.172
71942W        W36927  12.779  37.175   4.945
71943W        W36928  32.648   7.141  11.169
71944W        W36929  24.162   5.714   2.800
71945W        W36930   7.391  38.406   0.238
71946W        W36931  37.751  36.174   0.876
71947W        W36932  22.667  32.868   3.653
71948W        W36933  19.640  44.062  13.127
71949W        W36934   0.696  17.432  10.325
71950W        W36935   2.543  11.723   1.394
71951W        W36936  18.317  26.439   1.221
71952W        W36937  39.529  32.431  10.693
71953W        W36938  39.803  13.337  12.941
71954W        W36939  36.461  34.571  10.206
71955W        W36940  11.319  30.540  14.345
71956W        W36941  41.956  44.491   1.653
71957W        W36942  10.764  28.837  12.964
71958W        W36943   3.284  31.977  12.115
71959W        W36944  36.946   9.613   1.655
71960W        W36945  44.889  13.343   4.667
71961W        W36946  25.556   8.783   3.313
71962W        W36947   2.329   6.773  14.322
71963W        W36948  34.051  37.607  12.223
71964W        W36949  12.915  29.516  12.134
71965W        W36950  10.728  21.110  11.456
71966W        W36951  30.596  38.260   3.287
71967W        W36952  34.340  35.365  10.567
71968W        W36953  34.578  35.621   2.144
71969W        W36954  24.702  40.540   2.716
71970W        W36955  22.217  19.752   3.137
71971W        W36956  37.973  30.752   1.283
71972W        W36957  12.385  30.258   1.751
71973W        W36958  34.812  33.166   0.926
71974W        W36959  39.278  40.833  14.399
71975W        W36960  30.852  31.836   5.175
71976W        W36961   5.222   4.287   3.544
71977W        W36962  38.450  32.180  12.140
71978W        W36963  40.514   1.478  11.679
71979W        W36964  13.190   5.155   0.294
71980W        W36965  19.490   5.694  11.911
71981W        W36966   2.756  40.497   1.876
71982W        W36967  30.286  44.411  11.699
71983W        W36968   6.648  28.540  11.163
71984W        W36969  26.252   4.988  11.568
71985W        W36970   3.438   8.145   1.466
71986W        W36971  32.513  22.052  12.174
71987W        W36972  42.057  32.851  13.859
71988W        W36973  21.009  10.146   1.353
71989W        W36974   5.913  20.144   3.798
71990W        W36975  29.544   9.481   3.251
71991W        W36976  32.501   5.711  12.036
71992W        W36977  21.754  33.451  13.171
71993W        W36978  29.405  14.169  14.365
71994W        W36979  21.447  10.909   1.476
71995W        W36980  20.966  39.461  14.262
71996W        W36981  14.150  15.760  11.773
71997W        W36982  31.024   3.443   3.092
71998W        W36983  41.231   2.988   2.812
71999W        W36984   9.051   7.345  10.676
72000W        W36985   4.932  34.799  10.659
72001W        W36986  28.892  27.083   4.643
72002W        W36987  33.861  20.742  12.926
72003W        W36988  36.291   1.303   0.490
72004W        W36989   9.608  30.203   1.299
72005W        W36990  12.580  39.400  10.720
72006W        W36991  44.986   2.719  14.508
72007W        W36992  30.030  32.599  12.449
72008W        W36993  37.953  35.593   3.816
72009W        W36994   4.954   4.863   1.535
72010W        W36995  37.346  35.649   2.111
72011W        W36996  43.682  15.969  11.527
72012W        W36997  26.513  23.198  14.284
72013W        W36998  18.811  22.719  11.246
72014W        W36999  15.630  38.577  12.572
72015W        W37000  25.946   5.804   0.406
72016W        W37001  17.266   8.710  12.117
72017W        W37002  32.447  40.904   1.787
72018W        W37003  30.971  43.334   1.019
72019W        W37004  44.538  35.079   1.767
72020W        W37005  38.914  40.043   3.332
72021W        W37006  25.985  27.993   1.749
72022W        W37007  14.613  29.327   0.329
72023W        W37008  33.861  14.908  11.049
72024W        W37009  27.757  11.194   1.794
72025W        W37010  20.322  38.492  12.491
72026W        W37011   8.912  35.491   2.537
72027W        W37012  41.049  30.458   4.575
72028W        W37013  44.662   5.275   0.756
72029W        W37014  38.601  24.628  12.952
72030W        W37015  41.635  18.144   4.180
72031W        W37016  28.396  16.944   1.395
72032W        W37017  17.345   7.975  10.239
72033W        W37018  41.510  15.607  10.522
72034W        W37019  14.537   4.951   0.788
72035W        W37020  16.740  32.658   0.326
72036W        W37021  37.431   4.758  10.658
72037W        W37022   8.160  22.256   3.321
72038W        W37023  16.824  28.645   2.359
72039W        W37024   6.289  17.256   4.802
72040W        W37025  38.821  21.684   3.539
72041W        W37026   7.884  19.337  13.425
72042W        W37027  36.082  37.422   2.241
72043W        W37028  32.185  20.836   2.297
72044W        W37029  22.112  16.762   2.663
72045W        W37030  31.969  32.802   1.684
72046W        W37031  15.224  41.372   3.924
72047W        W37032  23.675  43.434  14.348
72048W        W37033  20.230  38.080  13.897
72049W        W37034  26.752  40.018   4.586
72050W        W37035  38.804  40.076  11.961
72051W        W37036  31.562  22.551  12.162
72052W        W37037  43.789  19.732  11.190
72053W        W37038  25.859   5.376  12.013
72054W        W37039  39.598  11.908  14.734
72055W        W37040  18.186  19.280   3.586
72056W        W37041   5.711  21.667   2.564
72057W        W37042  12.544  44.753  13.265
72058W        W37043  23.609   3.961   4.196
72059W        W37044   7.443  42.305   1.512
72060W        W37045  41.988  32.047   4.170
72061W        W37046  29.460   4.528  12.366
72062W        W37047  19.718  23.655   3.690
72063W        W37048  36.890  38.096  12.423
72064W        W37049  27.619   3.937  12.843
72065W        W37050  31.602  21.397   2.834
72066W        W37051   8.713  14.430  14.756
72067W        W37052  29.377  24.437   1.299
72068W        W37053  22.629   2.668  12.941
72069W        W37054  13.866   3.328   2.410
72070W        W37055  37.200  33.944  14.638
72071W        W37056   8.650  19.795  14.444
72072W        W37057  38.632  25.524  12.318
72073W        W37058  12.240  40.324   4.742
72074W        W37059   4.744  36.603   4.359
72075W        W37060  41.902  17.696  12.849
72076W        W37061  13.424  25.224  10.600
72077W        W37062  44.889  11.272  10.718
72078W        W37063  31.657  35.917   4.586
72079W        W37064  40.798  26.456   4.123
72080W        W37065  42.579  39.123   0.900
72081W        W37066   8.134  44.393  11.661
72082W        W37067  41.353  13.843  14.292
72083W        W37068  44.548  44.692   3.567
72084W        W37069  39.819   5.023   1.873
72085W        W37070  38.505  37.428   4.034
72086W        W37071  25.586  30.648   1.412
72087W        W37072  13.229  17.286   2.697
72088W        W37073  16.118   5.284  13.611
72089W        W37074  26.415  34.414   2.805
72090W        W37075  32.448  18.089  13.634
72091W        W37076   4.787  40.534   2.722
72092W        W37077  31.585  24.516   2.742
72093W        W37078  33.920   0.226   3.311
72094W        W37079  35.908  21.318   0.817
72095W        W37080   8.421  11.508   0.890
72096W        W37081   6.493  18.202   2.537
72097W        W37082  34.064  13.287   2.804
72098W        W37083  30.470  14.089  11.216
72099W        W37084  17.416  37.598  11.711
72100W        W37085  11.953  19.256  12.562
72101W        W37086   8.723  13.158   4.652
72102W        W37087   6.330   1.902  12.561
72103W        W37088  11.368  25.785   4.896
72104W        W37089  41.542  44.409   4.439
72105W        W37090  32.235  14.062   3.234
72106W        W37091   2.925  31.226   2.618
72107W        W37092   9.669  20.238  11.760
72108W        W37093  38.831  32.011  14.464
72109W        W37094  18.634  32.291   1.302
72110W        W37095  42.271   6.430  13.967
72111W        W37096  35.617  17.124   2.706
72112W        W37097  11.347  25.272   2.700
72113W        W37098  11.301  12.465   4.128
72114W        W37099  17.790   1.846   3.255
72115W        W37100  12.227  44.054  13.390
72116W        W37101   3.528  14.738   0.379
72117W        W37102  17.987  16.722  11.913
72118W        W37103  40.321   3.428  13.781
72119W        W37104  36.443  33.439   1.462
72120W        W37105  33.125  14.542  11.504
72121W        W37106  29.018  41.023   1.441
72122W        W37107  36.746  13.770   4.735
72123W        W37108  13.870   5.399   1.014
72124W        W37109  44.075  34.456   0.962
72125W        W37110  30.107  13.749   0.416
72126W        W37111   2.271  12.825  10.776
72127W        W37112  30.903  44.963  10.682
72128W        W37113  27.217  32.071   2.144
72129W        W37114  13.905  43.334   1.300
72130W        W37115  10.691  31.133  10.623
72131W        W37116   1.047   3.193   2.749
72132W        W37117  38.260  43.153   1.463
72133W        W37118  33.657  35.018  13.894
72134W        W37119   7.410   4.410   2.785
72135W        W37120  25.634   0.762   1.641
72136W        W37121  39.655  23.066  13.879
72137W        W37122  28.591  29.941   0.149
72138W        W37123  14.557   5.575  11.351
72139W        W37124  41.964  34.566  14.295
72140W        W37125  39.599  21.664  14.264
72141W        W37126  29.580  43.046  13.990
72142W        W37127  25.421  16.042  11.666
72143W        W37128  23.008  40.828  10.459
72144W        W37129   7.747  36.067  12.547
72145W        W37130   8.379  42.701  11.078
72146W        W37131   5.130  17.368   1.709
72147W        W37132  17.649  25.381   2.438
72148W        W37133  12.683   0.363  10.700
72149W        W37134   9.761  14.982   4.534
72150W        W37135  11.122  38.485  14.555
72151W        W37136  25.422  11.153   2.758
72152W        W37137  39.934  38.239  12.196
72153W        W37138  37.604   7.507  10.191
72154W        W37139   2.177  20.206   2.377
72155W        W37140   7.224   7.368  12.367
72156W        W37141  30.439   7.758   0.736
72157W        W37142  38.776  38.128   2.132
72158W        W37143  22.192  30.720  13.823
72159W        W37144   3.075   0.381   0.866
72160W        W37145  32.841   4.311  11.538
72161W        W37146  30.089  26.716  12.067
72162W        W37147  30.131  35.374  10.657
72163W        W37148  18.157  40.508  13.871
72164W        W37149  25.524  13.120  12.815
72165W        W37150  34.571  35.061   1.969
72166W        W37151  24.775  21.288   2.819
72167W        W37152   7.846  36.915   4.070
72168W        W37153   4.495  39.031   3.374
72169W        W37154  29.700  36.495  11.300
72170W        W37155  13.685  25.232  11.601
72171W        W37156  37.139  44.301  12.494
72172W        W37157  26.249   5.277  10.133
72173W        W37158   1.275  36.744   0.672
72174W        W37159  10.119   7.851   3.733
72175W        W37160  37.400  14.049  10.658
72176W        W37161  23.542  14.890   3.590
72177W        W37162  42.453   6.935   1.942
72178W        W37163  39.454  17.678   3.135
72179W        W37164  35.364   7.255  13.108
72180W        W37165  19.522  14.132  12.986
72181W        W37166  20.055  44.890  11.105
72182W        W37167  25.669  28.137  10.669
72183W        W37168  33.107  15.544   0.340
72184W        W37169  28.752   6.193  11.068
72185W        W37170  33.038   9.597   2.389
72186W        W37171   2.335  25.657  10.703
72187W        W37172  15.976  28.610  14.867
72188W        W37173   5.468  44.962   0.396
72189W        W37174  10.199   1.912   1.290
72190W        W37175  27.364  29.009  11.912
72191W        W37176  23.574  30.829  14.398
72192W        W37177   1.927  39.138   4.980
72193W        W37178  17.068  37.807   4.893
72194W        W37179  40.016  24.263   9.884
72195W        W37180  33.220  37.762  11.080
72196W        W37181  21.059  33.653   0.673
72197W        W37182  27.111  28.108  12.810
72198W        W37183  40.405  14.719  12.144
72199W        W37184  22.289   7.482  13.609
72200W        W37185  33.588  28.489   5.004
72201W        W37186  25.474  36.856  10.631
72202W        W37187  37.579  10.341  14.525
72203W        W37188  24.677  12.652  14.256
72204W        W37189  42.454  24.553  11.765
72205W        W37190   2.171  36.432   3.088
72206W        W37191  18.138  27.141  10.645
72207W        W37192   2.682  13.766   0.078
72208W        W37193  18.548  22.724  13.997
72209W        W37194  44.177   8.278  12.334
72210W        W37195  36.390  12.099  12.309
72211W        W37196   2.344  34.598   4.839
72212W        W37197   0.472  22.970   4.098
72213W        W37198   3.776  17.478   1.382
72214W        W37199  20.580  15.902   0.361
72215W        W37200  17.542  14.658   1.841
72216W        W37201   0.191  30.281  12.837
72217W        W37202   1.048   4.349   1.296
72218W        W37203  29.747  38.905   2.191
72219W        W37204  26.386   3.597  11.148
72220W        W37205  21.736   0.825   4.574
72221W        W37206  20.137   4.475  12.628
72222W        W37207  34.890   7.736   0.916
72223W        W37208   9.625  38.360   3.582
72224W        W37209  11.718  17.316  11.172
72225W        W37210  10.200  20.158   0.708
72226W        W37211  18.612   9.282   2.279
72227W        W37212  39.391   5.918   3.705
72228W        W37213   9.134  34.552   3.301
72229W        W37214  30.429  21.543   2.796
72230W        W37215  27.146  34.413   4.195
72231W        W37216  27.530  12.372  10.635
72232W        W37217  18.209   0.650  12.411
72233W        W37218  31.641   9.191  13.546
72234W        W37219  15.781   2.405  13.791
72235W        W37220  35.364  20.164  11.237
72236W        W37221  35.232  13.341   1.212
72237W        W37222  29.872  27.701  10.644
72238W        W37223  17.548  36.002   3.696
72239W        W37224  12.017  30.179  13.387
72240W        W37225   8.755  31.797   0.842
72241W        W37226  16.689  25.606   1.182
72242W        W37227  24.968  27.958   1.912
72243W        W37228  33.504   8.858   3.532
72244W        W37229  10.746  23.758  14.455
72245W        W37230  44.502  40.835   2.776
72246W        W37231  28.662  25.091   2.225
72247W        W37232  20.971  20.877  13.880
72248W        W37233   3.349   2.833   0.212
72249W        W37234  22.596  22.494  14.414
72250W        W37235  42.439   9.283   1.913
72251W        W37236  13.288  41.233  13.579
72252W        W37237  18.424  11.834  10.261
72253W        W37238   6.033   8.100   2.590
72254W        W37239  17.057  23.593  13.439
72255W        W37240   8.896  21.855   3.733
72256W        W37241  42.435   1.221   4.630
72257W        W37242  39.010  38.865  10.672
72258W        W37243  42.859  23.683   3.538
72259W        W37244  26.055  31.650  13.825
72260W        W37245  44.317  26.516  14.391
72261W        W37246   1.721  18.438   1.503
72262W        W37247  28.674  11.861  11.022
72263W        W37248  33.091  33.578   0.908
72264W        W37249  24.130  19.135   4.869
72265W        W37250   9.929  11.657  14.940
72266W        W37251  14.787  38.319   3.609
72267W        W37252  18.388  25.182  11.180
72268W        W37253   7.812   1.528  10.525
72269W        W37254  29.427   7.692  11.627
72270W        W37255  27.924  44.767  13.111
72271W        W37256  14.053  25.338  12.495
72272W        W37257  17.150  15.652   1.844
72273W        W37258  26.625  39.409   1.297
72274W        W37259  28.535  11.430  10.782
72275W        W37260  22.563  16.552   0.386
72276W        W37261  41.104   7.794  11.615
72277W        W37262   5.202  29.939   4.645
72278W        W37263   5.843   3.494   2.265
72279W        W37264  16.560  44.804   1.417
72280W        W37265  35.325  44.950   3.207
72281W        W37266  14.788   8.008   3.663
72282W        W37267  25.915   2.426   1.711
72283W        W37268   3.572  29.200  10.693
72284W        W37269  21.071  16.366  12.991
72285W        W37270  34.886  18.456   0.454
72286W        W37271  14.665  10.728   0.315
72287W        W37272  34.739  35.390  13.327
72288W        W37273  41.183  22.190   2.829
72289W        W37274  33.440  13.901  11.781
72290W        W37275  28.067   5.636  10.781
72291W        W37276  15.266  43.791  11.532
72292W        W37277  38.088   5.830   3.173
72293W        W37278   1.485  40.585  11.981
72294W        W37279  10.904   7.871  11.536
72295W        W37280  32.971   1.002   0.220
72296W        W37281  27.503  34.497   1.616
72297W        W37282  18.842  41.421  10.799
72298W        W37283  43.526   0.506   2.757
72299W        W37284  18.787  34.123  13.795
72300W        W37285  33.043  34.902  12.992
72301W        W37286  28.948  36.475  10.693
72302W        W37287  38.761  10.884  14.390
72303W        W37288  40.576  32.633  10.724
72304W        W37289  21.789  16.581  14.870
72305W        W37290   5.175  18.669   4.656
72306W        W37291  21.474  27.581   1.201
72307W        W37292  26.104  21.009   1.475
72308W        W37293  16.141  12.557  12.742
72309W        W37294   7.656  21.055  10.383
72310W        W37295  25.205   4.218  12.622
72311W        W37296  14.409  35.421  14.880
72312W        W37297  31.650  36.385   3.826
72313W        W37298   8.168   0.004   1.752
72314W        W37299  10.328  32.835  13.960
72315W        W37300  40.280  25.245  12.453
72316W        W37301  30.167  43.361   2.203
72317W        W37302  33.542  27.331   3.731
72318W        W37303  14.758  23.089   1.623
72319W        W37304  31.475  26.047  12.109
72320W        W37305  34.701  44.570  10.232
72321W        W37306  21.673   4.515   2.232
72322W        W37307  19.833   4.368   2.256
72323W        W37308  41.292  38.873  14.688
72324W        W37309  42.379   9.388  13.335
72325W        W37310  30.410  27.046   0.348
72326W        W37311  17.629  26.362   2.665
72327W        W37312  29.820  20.246   0.846
72328W        W37313  42.801  37.916  12.950
72329W        W37314  29.979  37.347  13.748
72330W        W37315   5.026  41.965   3.194
72331W        W37316  28.456   6.245  11.498
72332W        W37317  30.715   7.873  12.609
72333W        W37318  16.276  38.875  12.564
72334W        W37319  42.476  38.518   2.406
72335W        W37320  36.785  11.689   3.216
72336W        W37321  42.346   7.399   4.596
72337W        W37322  17.195  34.346   2.772
72338W        W37323  44.458  39.299  10.917
72339W        W37324  21.174   7.841  10.863
72340W        W37325  32.122  14.827  10.661
72341W        W37326  16.050  18.818  11.537
72342W        W37327  16.720  35.549  10.658
72343W        W37328  15.318  24.081   4.478
72344W        W37329  34.027  33.180  13.064
72345W        W37330  34.928  40.474   2.867
72346W        W37331  20.091  37.043  13.331
72347W        W37332  17.720  29.117   2.470
72348W        W37333  42.979  27.479  13.039
72349W        W37334  15.538  36.050  10.691
72350W        W37335  26.620   1.481   1.347
72351W        W37336   0.719   4.829  12.360
72352W        W37337   6.483  21.008   2.172
72353W        W37338  22.369  42.701   3.216
72354W        W37339   4.396  24.566   3.801
72355W        W37340  15.796   6.827   0.986
72356W        W37341  22.710   2.945   0.204
72357W        W37342  18.309  42.461   0.248
72358W        W37343  40.774  40.851   4.518
72359W        W37344   9.867  25.566   3.109
72360W        W37345  38.817  18.015   9.687
72361W        W37346  23.935  26.484   2.443
72362W        W37347   6.762  28.840   1.922
72363W        W37348  17.217  21.602   1.732
72364W        W37349  24.629  36.534   3.319
72365W        W37350  13.695   8.250   4.430
72366W        W37351  26.187  29.958   1.578
72367W        W37352  15.208  10.946  14.434
72368W        W37353  24.014   8.875  14.466
72369W        W37354  20.554  35.662  14.496
72370W        W37355  11.210  24.008  14.298
72371W        W37356  29.006  20.445  13.470
72372W        W37357  16.199   4.731   4.063
72373W        W37358  23.235  34.913   1.251
72374W        W37359  43.778  22.547   2.280
72375W        W37360  11.457  15.647   5.081
72376W        W37361  22.789  24.206  13.535
72377W        W37362  17.279   5.355  12.595
72378W        W37363  24.142  32.978   0.644
72379W        W37364   7.783   6.959   4.866
72380W        W37365  28.494  11.867  10.521
72381W        W37366  37.240  15.498   0.287
72382W        W37367  37.466  22.869   4.559
72383W        W37368  36.389  41.348   3.615
72384W        W37369  20.482   9.890   0.285
72385W        W37370  44.876  43.329  12.847
72386W        W37371  42.098  44.328   3.691
72387W        W37372   6.824  41.116   2.131
72388W        W37373   4.738  10.516  12.563
72389W        W37374   8.289  17.282   4.337
72390W        W37375   5.218  37.366   1.407
72391W        W37376  18.903  19.502   1.357
72392W        W37377  32.029  30.411  12.139
72393W        W37378  38.686  36.956  14.826
72394W        W37379  18.468  28.692   3.685
72395W        W37380  25.670  37.033  12.051
72396W        W37381  44.303  23.097   2.337
72397W        W37382  27.884  24.554  12.967
72398W        W37383  27.987  41.519  13.486
72399W        W37384  34.613  43.455  12.150
72400W        W37385   0.346   4.767   3.245
72401W        W37386  10.849  30.972  13.256
72402W        W37387   4.419  20.516   1.336
72403W        W37388  44.001   2.826  10.592
72404W        W37389  37.109   8.344   0.219
72405W        W37390   8.312  19.031   4.244
72406W        W37391  11.316  35.958  12.655
72407W        W37392  36.207  27.616  14.800
72408W        W37393  20.762  23.160   2.214
72409W        W37394  35.903  24.948   3.746
72410W        W37395   7.184  36.994   1.394
72411W        W37396  39.725  27.726  14.559
72412W        W37397  10.311  41.574  14.292
72413W        W37398  15.050  26.996   1.759
72414W        W37399  26.838  40.340   0.764
72415W        W37400   9.698   2.018  13.403
72416W        W37401  32.651  42.976   1.218
72417W        W37402   7.068  16.589  14.700
72418W        W37403  24.394  26.937  10.985
72419W        W37404  39.027   7.670  14.246
72420W        W37405   7.748  44.965  13.645
72421W        W37406  12.214  40.601   0.031
72422W        W37407  15.290  23.198  11.142
72423W        W37408  33.625   0.813  11.217
72424W        W37409  11.072   0.741  13.442
72425W        W37410  29.589  19.545  10.082
72426W        W37411  39.563  16.302   0.572
72427W        W37412   0.698  27.092   1.257
72428W        W37413  41.422  21.655  13.009
72429W        W37414  44.703  29.231  13.882
72430W        W37415  42.180  38.739  12.967
72431W        W37416  32.695  18.561   3.504
72432W        W37417  25.070  37.004  12.563
72433W        W37418  43.545  30.208   0.844
72434W        W37419  15.233  14.711   3.511
72435W        W37420  41.909  19.696   0.976
72436W        W37421   4.276   9.294   1.909
72437W        W37422  25.644  24.506   1.209
72438W        W37423  37.431  11.547  13.334
72439W        W37424  12.749  38.419   1.926
72440W        W37425  25.577  44.093  14.385
72441W        W37426  12.595  13.123  12.020
72442W        W37427   5.268   8.965  10.371
72443W        W37428   3.569  23.264  11.181
72444W        W37429  15.914  10.135  10.327
72445W        W37430  31.704  14.065   3.603
72446W        W37431  41.937  20.641   4.796
72447W        W37432   7.251  19.074  12.478
72448W        W37433  15.292  38.069   0.649
72449W        W37434   1.950  10.863  12.224
72450W        W37435  16.257  24.177   0.327
72451W        W37436   1.791  24.363   0.377
72452W        W37437  32.435  36.156  11.255
72453W        W37438  43.168  12.463  10.737
72454W        W37439  33.008  17.494  13.587
72455W        W37440  19.372  30.484   9.612
72456W        W37441  24.513  15.339   2.732
72457W        W37442  23.167  27.672  14.698
72458W        W37443   5.395  26.854   2.833
72459W        W37444  13.901  35.400   0.697
72460W        W37445   9.354  39.497  11.228
72461W        W37446  26.645   2.667   2.839
72462W        W37447  12.580  35.425   1.845
72463W        W37448   9.025   6.532   5.334
72464W        W37449  11.521   6.880  10.187
72465W        W37450  11.106   2.401   1.226
72466W        W37451   8.308  42.922   1.420
72467W        W37452   3.470   1.779   3.722
72468W        W37453  30.362  34.947  12.524
72469W        W37454  44.335  34.076   4.165
72470W        W37455  21.321  14.012   0.843
72471W        W37456  41.007  44.532  11.168
72472W        W37457  38.106  15.047  13.444
72473W        W37458  29.346  23.029   1.473
72474W        W37459  37.258  37.111   0.863
72475W        W37460   4.726  17.711   3.685
72476W        W37461  38.586  26.170   1.788
72477W        W37462  41.332   1.209  11.906
72478W        W37463   2.339  15.601  13.518
72479W        W37464  33.573   3.208  14.343
72480W        W37465  19.751   7.397  12.662
72481W        W37466  30.251  44.397   1.672
72482W        W37467  27.163  14.236   2.291
72483W        W37468  22.658  43.092   9.784
72484W        W37469  37.646  25.069  14.820
72485W        W37470  40.324  19.146  12.002
72486W        W37471   8.663  12.412  10.153
72487W        W37472   2.425   4.190  12.929
72488W        W37473  37.475  27.746  14.356
72489W        W37474   4.560  13.336   1.256
72490W        W37475   5.222   9.722  11.530
72491W        W37476  39.539   9.357   2.304
72492W        W37477  16.243  16.562   2.470
72493W        W37478  21.668  29.529   3.255
72494W        W37479   8.787   3.796   3.150
72495W        W37480   2.729  27.542   2.491
72496W        W37481  32.120  11.445   3.980
72497W        W37482  14.542  20.848   1.226
72498W        W37483   5.794   2.621   1.217
72499W        W37484  25.542  13.078   3.230
72500W        W37485  22.267  20.933   2.231
72501W        W37486   8.704   1.192  11.479
72502W        W37487   6.252   0.828  12.097
72503W        W37488   7.714  10.016  12.685
72504W        W37489  15.154  27.860   1.321
72505W        W37490   6.115  37.502  14.111
72506W        W37491  28.671  12.789  11.570
72507W        W37492  26.175  15.527   2.714
72508W        W37493  18.491  37.958   4.807
72509W        W37494  29.166  33.699  13.458
72510W        W37495  24.219  18.101  11.141
72511W        W37496  14.248  11.005   0.464
72512W        W37497  42.918  10.850  13.754
72513W        W37498  43.850   6.737  10.684
72514W        W37499  11.798  43.044   3.592
72515W        W37500  18.763  27.343  11.393
72516W        W37501   9.058  28.234   3.738
72517W        W37502  31.435  20.716  14.507
72518W        W37503  41.182   1.960   4.091
72519W        W37504  13.114   7.684   9.788
72520W        W37505  26.616  41.043  12.622
72521W        W37506   9.863  38.857  10.632
72522W        W37507  24.131  42.698  13.324
72523W        W37508  44.232  40.212  10.207
72524W        W37509  35.982   9.340   2.608
72525W        W37510  41.099   4.015  11.025
72526W        W37511  11.629  39.212  14.094
72527W        W37512  31.529  20.493   0.811
72528W        W37513  27.410  36.458  14.062
72529W        W37514  20.928  35.156   1.668
72530W        W37515  24.159  14.132   2.680
72531W        W37516   0.890   1.760   2.233
72532W        W37517   0.326  44.874  11.289
72533W        W37518  26.094  24.594  10.448
72534W        W37519  23.129   0.198  12.377
72535W        W37520   3.760   2.518   2.843
72536W        W37521  44.501  35.540  10.807
72537W        W37522   1.201   7.600   3.838
72538W        W37523  39.276  16.617  14.781
72539W        W37524  20.002  32.723   0.295
72540W        W37525  33.874  30.659  11.330
72541W        W37526  33.595  36.893  11.902
72542W        W37527  24.744  33.387   0.995
72543W        W37528  37.089  26.699   3.203
72544W        W37529  37.342  33.928  13.080
72545W        W37530  17.856  25.653  14.357
72546W        W37531  43.378   3.057  14.802
72547W        W37532  22.132  40.969   0.278
72548W        W37533  16.629  31.640   1.218
72549W        W37534  39.670  41.905   0.087
72550W        W37535   7.342  17.675   3.181
72551W        W37536   1.318   8.695   1.249
72552W        W37537  38.439  15.941  13.644
72553W        W37538  26.485  37.566  13.826
72554W        W37539   1.395  41.877   4.140
72555W        W37540  43.726  21.343  10.881
72556W        W37541  42.297  19.430   2.381
72557W        W37542  35.032  30.445   4.683
72558W        W37543  19.869   1.017  14.510
72559W        W37544  31.033  42.043   4.550
72560W        W37545  23.954  35.983  12.580
72561W        W37546  36.625  34.132   4.644
72562W        W37547  40.375  18.015   0.303
72563W        W37548  21.719  24.034  14.307
72564W        W37549  24.785  28.841   2.615
72565W        W37550  38.589  19.611  13.870
72566W        W37551  34.991  31.623  12.131
72567W        W37552  14.094  35.588   4.986
72568W        W37553  27.972  22.454   5.050
72569W        W37554  39.865  12.850  14.319
72570W        W37555  38.780  34.444  11.300
72571W        W37556  17.012   2.711   5.096
72572W        W37557  25.413   8.851  11.985
72573W        W37558   9.182  17.246  13.758
72574W        W37559  41.514  12.832  10.711
72575W        W37560  33.954  28.696  12.553
72576W        W37561   8.984  16.736   1.463
72577W        W37562  27.863   2.025  12.050
72578W        W37563  42.763  42.986   2.139
72579W        W37564  22.226  14.845  11.556
72580W        W37565  10.143   1.435  12.497
72581W        W37566  32.679  12.169  13.309
72582W        W37567   3.698  14.101   1.796
72583W        W37568  27.554   3.878   3.305
72584W        W37569  21.074  13.441   3.217
72585W        W37570  16.129  13.605  11.215
72586W        W37571  13.622   2.484  14.473
72587W        W37572  35.194  16.160   1.186
72588W        W37573  31.912  33.653  14.061
72589W        W37574  26.018  22.844  14.141
72590W        W37575   5.673  25.032   2.761
72591W        W37576  12.202   8.348   2.894
72592W        W37577   4.653  19.647   2.647
72593W        W37578  34.853  38.592  13.985
72594W        W37579  34.456  13.030  13.578
72595W        W37580  33.179  27.252  14.867
72596W        W37581  23.574  31.270  14.654
72597W        W37582  14.368  30.944   3.766
72598W        W37583  39.315  36.543  11.157
72599W        W37584  42.772  10.283  12.478
72600W        W37585  22.505  19.717  12.580
72601W        W37586  28.980  18.750   1.639
72602W        W37587  36.602  14.793   0.421
72603W        W37588   5.650  13.102  13.108
72604W        W37589  14.748  19.219   1.383
72605W        W37590   9.383  28.283  12.782
72606W        W37591  43.896  14.426   2.319
72607W        W37592  17.546   9.891   2.179
72608W        W37593  28.890   8.379   1.467
72609W        W37594  30.317  14.298  11.654
72610W        W37595  28.775  28.491  10.314
72611W        W37596  12.612  19.751   3.626
72612W        W37597  41.231  28.972  13.456
72613W        W37598   7.412  34.627   1.843
72614W        W37599  27.379  19.189   1.420
72615W        W37600  13.477  21.988   0.153
72616W        W37601  34.546   5.273   2.166
72617W        W37602  44.316   1.504   0.781
72618W        W37603  28.923  38.383   2.335
72619W        W37604  15.557  36.154   0.108
72620W        W37605   5.838  25.561  11.996
72621W        W37606  28.496  26.782   3.391
72622W        W37607  35.830  36.985  14.943
72623W        W37608   6.793  29.191   3.129
72624W        W37609  29.107  13.788  11.237
72625W        W37610  15.717  39.839  14.547
72626W        W37611   4.442  38.987   0.334
72627W        W37612  16.754  16.607  14.417
72628W        W37613  37.641  27.198  12.031
72629W        W37614   1.428   5.957  13.465
72630W        W37615  23.894  38.281   1.757
72631W        W37616  26.057  31.784  14.498
72632W        W37617  31.118  15.778  11.241
72633W        W37618  28.611   1.239  14.043
72634W        W37619  43.246  11.282  14.438
72635W        W37620  38.351  15.065   4.125
72636W        W37621  38.195  25.376   9.868
72637W        W37622  22.929   3.715   0.295
72638W        W37623   9.651   8.828  11.989
72639W        W37624  18.324  33.042   3.731
72640W        W37625   2.377   4.869  11.556
72641W        W37626  31.040   6.221  11.325
72642W        W37627  24.947  15.036  12.597
72643W        W37628   4.137  33.397   2.837
72644W        W37629  34.493  42.286  14.832
72645W        W37630  33.587  23.603   9.861
72646W        W37631  42.994   6.371  14.543
72647W        W37632  35.558  39.009  11.042
72648W        W37633  22.765  20.885   0.848
72649W        W37634  12.262  27.978  10.666
72650W        W37635  15.788  15.443   5.067
72651W        W37636  34.629  35.514   1.126
72652W        W37637  41.358  35.372   1.481
72653W        W37638  13.712  20.482  11.476
72654W        W37639  31.112  11.333  11.173
72655W        W37640  44.950  17.586  14.251
72656W        W37641   5.088  44.380  14.545
72657W        W37642  19.690  36.016  11.879
72658W        W37643   6.303   9.556   4.174
72659W        W37644  32.899  10.826  13.809
72660W        W37645  22.198  35.347   5.002
72661W        W37646   1.752  15.706   1.849
72662W        W37647   8.076   4.817   1.905
72663W        W37648  11.447  33.683   3.342
72664W        W37649  16.818  35.043  11.868
72665W        W37650  35.140   5.105  11.498
72666W        W37651  14.601   5.971  12.134
72667W        W37652  38.315   3.699  10.713
72668W        W37653  44.993  27.972  11.433
72669W        W37654  10.895  21.840   1.802
72670W        W37655   0.262  35.142  11.143
72671W        W37656   2.935  10.141   0.451
72672W        W37657  23.601  23.634   4.483
72673W        W37658  28.444  12.130   2.417
72674W        W37659   3.898  23.524  12.459
72675W        W37660   0.246   0.532   3.300
72676W        W37661  21.673  12.954   5.055
72677W        W37662   5.776   9.505   4.936
72678W        W37663  38.060   6.966  14.994
72679W        W37664  22.646  41.424  10.753
72680W        W37665   8.608  18.972  13.859
72681W        W37666  39.255  40.262   1.830
72682W        W37667   4.848  42.572  14.313
72683W        W37668  10.172  22.023  13.516
72684W        W37669   0.851   4.067   0.785
72685W        W37670  39.584   9.079  13.453
72686W        W37671  23.669  23.569   0.418
72687W        W37672  12.584  28.891  10.289
72688W        W37673  42.955   9.563   4.004
72689W        W37674  21.732  43.870  13.048
72690W        W37675  43.665  42.980  11.216
72691W        W37676   0.426  29.198   0.472
72692W        W37677  29.584  41.254  10.240
72693W        W37678  32.631  24.148  11.514
72694W        W37679  12.015  12.188   2.226
72695W        W37680  24.527  16.167   3.249
72696W        W37681  13.218  41.835  10.483
72697W        W37682   0.448  40.817   2.740
72698W        W37683  12.664  29.039  12.010
72699W        W37684  16.564   3.538  11.318
72700W        W37685  17.133  39.612   4.173
72701W        W37686  28.618  18.701   3.370
72702W        W37687   0.478  29.140  12.185
72703W        W37688  42.973   7.530  10.665
72704W        W37689   4.896  33.660  11.228
72705W        W37690   0.403  20.044  14.876
72706W        W37691  42.925  43.828  12.571
72707W        W37692  39.040  43.878   2.321
72708W        W37693  37.985  15.326   1.266
72709W        W37694   2.612   2.665   0.007
72710W        W37695   2.761  36.461   4.499
72711W        W37696  41.724   6.486  13.956
72712W        W37697  10.629  19.743   0.923
72713W        W37698  36.849   7.382  14.797
72714W        W37699  14.351  35.835  13.544
72715W        W37700  25.526  42.119  14.949
72716W        W37701  18.232  27.068  12.021
72717W        W37702  30.187   4.474  13.377
72718W        W37703   4.931  33.486  13.486
72719W        W37704  25.397  44.544   2.739
72720W        W37705  41.275  32.152  14.603
72721W        W37706  15.398  25.052  12.853
72722W        W37707  22.922  24.631  12.418
72723W        W37708   1.964  40.874   3.698
72724W        W37709  14.268  21.301  13.495
72725W        W37710  23.146  12.085   2.719
72726W        W37711  36.635  31.561   3.717
72727W        W37712   1.885  24.174  12.721
72728W        W37713  10.163   4.238  13.064
72729W        W37714  26.443  30.117  14.344
72730W        W37715  24.289   6.745  12.670
72731W        W37716   4.306   1.228  12.387
72732W        W37717  32.498  33.313   3.811
72733W        W37718  29.691  22.106  12.340
72734W        W37719  22.776  21.061   3.156
72735W        W37720  14.621  26.111  11.582
72736W        W37721  28.269  39.050  10.619
72737W        W37722  28.978  22.121   4.037
72738W        W37723  36.367   9.380  13.151
72739W        W37724  20.852  27.634   2.364
72740W        W37725  44.836  14.877  13.407
72741W        W37726  11.894  12.753  11.530
72742W        W37727  39.854  14.290  13.947
72743W        W37728  28.111   3.986  12.947
72744W        W37729  41.898  33.457   4.172
72745W        W37730   4.672  37.647   1.682
72746W        W37731  26.230  44.073  12.555
72747W        W37732  39.972  15.833  11.522
72748W        W37733  16.287  17.280  11.486
72749W        W37734  10.264  37.679   3.156
72750W        W37735  32.131  16.834   2.406
72751W        W37736  43.419   7.339  13.077
72752W        W37737   7.156  27.655  14.380
72753W        W37738   0.290  35.399   1.638
72754W        W37739  27.457  19.110  14.877
72755W        W37740   5.744   6.294   3.127
72756W        W37741  28.522  20.251  13.514
72757W        W37742  12.642  15.523  10.126
72758W        W37743  42.510  15.705  14.870
72759W        W37744  13.492  39.137  11.633
72760W        W37745  11.773   5.762   0.621
72761W        W37746  40.250  43.733   1.401
72762W        W37747  32.629  38.776  12.352
72763W        W37748   5.949  29.388  12.758
72764W        W37749  20.497  12.794   0.455
72765W        W37750   1.929  23.304  12.817
72766W        W37751  25.788  26.581   0.255
72767W        W37752  44.969  11.349  14.792
72768W        W37753   0.941   7.966   3.377
72769W        W37754  33.485  34.945  12.199
72770W        W37755  35.802  25.073  14.988
72771W        W37756  19.719  18.538   1.942
72772W        W37757   1.244   7.478  11.432
72773W        W37758  35.133   1.608  13.364
72774W        W37759   9.760  13.519   3.259
72775W        W37760  41.914  35.785   1.078
72776W        W37761  32.133  38.610   2.166
72777W        W37762  31.364  21.262  12.473
72778W        W37763  24.649  40.935   3.525
72779W        W37764   4.391   1.114  10.460
72780W        W37765   4.162  34.846  12.596
72781W        W37766  18.711  43.773  13.440
72782W        W37767  43.108   9.824  14.119
72783W        W37768   7.946   5.452  14.380
72784W        W37769  23.688  40.511   2.199
72785W        W37770  34.037  26.575   4.769
72786W        W37771  27.553  38.718   2.886
72787W        W37772  27.591  44.387  12.674
72788W        W37773  28.296  43.392  11.115
72789W        W37774  35.352   2.241   3.163
72790W        W37775   8.897   0.305  10.886
72791W        W37776   8.025  11.708  14.318
72792W        W37777  29.709  43.553   2.385
72793W        W37778  32.604  35.078   0.930
72794W        W37779   1.491  28.966   3.760
72795W        W37780  27.749  19.047   3.668
72796W        W37781  25.417  18.722   2.986
72797W        W37782  21.018  17.707   4.398
72798W        W37783  16.555  23.617  12.438
72799W        W37784   6.175   8.158   3.854
72800W        W37785  25.967  34.902   2.949
72801W        W37786  27.379  21.281   3.771
72802W        W37787  20.011  28.509  13.818
72803W        W37788  30.516  22.931   0.047
72804W        W37789  37.557  21.236  13.760
72805W        W37790   4.988  24.448   1.248
72806W        W37791   0.969  18.541   4.137
72807W        W37792   0.045  20.470  10.390
72808W        W37793  17.137  34.996   4.090
72809W        W37794  22.017  18.060  11.541
72810W        W37795  20.016  43.824  13.861
72811W        W37796  27.939  19.023   0.828
72812W        W37797  37.287  15.359   4.514
72813W        W37798  11.269   3.282   1.786
72814W        W37799  37.895  38.970  11.953
72815W        W37800  25.766   0.521  14.391
72816W        W37801  31.427  15.209  12.877
72817W        W37802  12.261  32.177   1.909
72818W        W37803  13.218  13.235   3.268
72819W        W37804   0.843   8.600   1.048
72820W        W37805  33.450  17.264  13.453
72821W        W37806  39.553   9.861   3.104
72822W        W37807   6.282  39.635   0.947
72823W        W37808  26.470  44.034  12.101
72824W        W37809  26.218  22.805  11.118
72825W        W37810   4.838  36.879  12.598
72826W        W37811  10.767  24.520   0.390
72827W        W37812  17.662  25.905  14.823
72828W        W37813  40.493  18.902   4.338
72829W        W37814  15.085  34.877   1.125
72830W        W37815   4.952  29.120   1.410
72831W        W37816  28.124  41.831   3.319
72832W        W37817  14.429  34.289  10.930
72833W        W37818   1.773  36.621  14.595
72834W        W37819   4.149  29.973  13.952
72835W        W37820  16.997  30.895   1.482
72836W        W37821  29.200  26.109   3.159
72837W        W37822   3.967  40.801  14.403
72838W        W37823  11.346  23.911  12.029
72839W        W37824  43.700  29.097   0.957
72840W        W37825  22.705  34.672   3.694
72841W        W37826  35.951  21.750  13.388
72842W        W37827  19.236  39.290  13.298
72843W        W37828  44.860  34.501   1.167
72844W        W37829   7.815  33.041   4.485
72845W        W37830  24.522   6.416   0.138
72846W        W37831   7.051  23.675  13.487
72847W        W37832  15.754   5.901   0.421
72848W        W37833  38.516   1.020   4.024
72849W        W37834  36.925   4.177   4.736
72850W        W37835   0.866  19.261   0.013
72851W        W37836  18.023  14.583   0.385
72852W        W37837  27.875  28.949  12.035
72853W        W37838   1.034   0.043   1.399
72854W        W37839  36.980   0.340  12.632
72855W        W37840  24.582   6.297   4.867
72856W        W37841  28.871  43.298   1.706
72857W        W37842  34.719  27.043  11.982
72858W        W37843  29.941  26.171   3.815
72859W        W37844  36.974   4.155  13.926
72860W        W37845  42.514   2.671   2.217
72861W        W37846  12.802   8.445   3.217
72862W        W37847  28.631  44.322  11.146
72863W        W37848  14.828  17.812   3.537
72864W        W37849  18.599   4.522  12.013
72865W        W37850  32.394  14.184   1.702
72866W        W37851   9.374  35.593  12.982
72867W        W37852  16.573  18.915   1.388
72868W        W37853  25.625  38.743  14.842
72869W        W37854  27.352  33.118   3.901
72870W        W37855   8.171  23.057  12.394
72871W        W37856  30.196   4.277   9.820
72872W        W37857  41.453  44.521  14.296
72873W        W37858  26.274  28.035  11.481
72874W        W37859  12.693   3.237  12.179
72875W        W37860  27.950  40.424   2.420
72876W        W37861   6.294  36.864   2.753
72877W        W37862  26.793  21.359  10.689
72878W        W37863  19.505  14.102  13.966
72879W        W37864  10.581  26.563   2.680
72880W        W37865  26.118  32.549  13.982
72881W        W37866  39.823  11.109   2.249
72882W        W37867   6.245  44.831  14.752
72883W        W37868  15.047  16.070   2.762
72884W        W37869  39.320  22.238  14.315
72885W        W37870  15.251  44.025   2.187
72886W        W37871  18.985  12.186   1.768
72887W        W37872  33.094  18.270  14.732
72888W        W37873  19.795  28.407  14.869
72889W        W37874  11.640  18.220   3.374
72890W        W37875   2.812  43.535   1.629
72891W        W37876  20.571   7.807  12.058
72892W        W37877  14.232  43.299  12.744
72893W        W37878  43.465   5.669  11.016
72894W        W37879   4.979  41.053   1.290
72895W        W37880   7.872  29.777  14.395
72896W        W37881   6.107  31.061   1.397
72897W        W37882   3.456  37.385   1.252
72898W        W37883   7.520  16.405   0.379
72899W        W37884  41.866  41.563   0.168
72900W        W37885  19.282   2.052   3.174
72901W        W37886  27.255   6.268   3.429
72902W        W37887   1.155  33.937   4.263
72903W        W37888  29.509  14.726   3.495
72904W        W37889  14.149  40.840  14.021
72905W        W37890   9.522  25.792  11.634
72906W        W37891  31.449   9.984   4.591
72907W        W37892  43.747  17.167   2.662
72908W        W37893  28.066  13.937  13.344
72909W        W37894   6.389   9.660   0.255
72910W        W37895  16.237  43.388   3.984
72911W        W37896   9.420  15.648  11.952
72912W        W37897  40.954  23.558   1.427
72913W        W37898  43.434  39.409  11.854
72914W        W37899  23.175  41.769  11.598
72915W        W37900  41.976  18.768   0.478
72916W        W37901  23.856   8.619   3.655
72917W        W37902  31.103  18.793  13.518
72918W        W37903  33.717   1.319  12.019
72919W        W37904  44.183  42.269  13.229
72920W        W37905  13.652  14.247   2.398
72921W        W37906  20.175  24.154   4.354
72922W        W37907  21.588  33.983  11.981
72923W        W37908   0.127  26.862   4.579
72924W        W37909  41.338   3.890   4.569
72925W        W37910   3.566  18.141  11.983
72926W        W37911  29.580  19.642  11.191
72927W        W37912   9.740   5.169  14.378
72928W        W37913   1.379  19.290  14.032
72929W        W37914  18.537  44.331  13.593
72930W        W37915  19.373  35.108   5.006
72931W        W37916  20.546  42.753   3.631
72932W        W37917  34.718  18.590  11.812
72933W        W37918  13.692  43.010  10.993
72934W        W37919  20.144  40.524   2.622
72935W        W37920  28.127  32.135  10.659
72936W        W37921  15.804  20.216   5.019
72937W        W37922  35.322  26.499   4.190
72938W        W37923  25.115   1.908  13.041
72939W        W37924  27.870  42.458   0.598
72940W        W37925  32.903  18.738  10.663
72941W        W37926   0.253  29.562   3.775
72942W        W37927  41.349  20.603  13.817
72943W        W37928  10.475  35.462   0.290
72944W        W37929   9.096  31.059  10.594
72945W        W37930  14.626  36.079   2.392
72946W        W37931  38.258   4.225   0.194
72947W        W37932  10.546  21.614  13.560
72948W        W37933  29.595   3.176  11.865
72949W        W37934   4.818  10.142  14.836
72950W        W37935  20.657   1.847  12.906
72951W        W37936   5.668  18.658   3.034
72952W        W37937  36.479  19.422  14.704
72953W        W37938  43.964  39.263   4.530
72954W        W37939  32.480  18.107   4.108
72955W        W37940  31.476  40.298  10.757
72956W        W37941  14.083  20.858   0.295
72957W        W37942   5.301  13.231   2.398
72958W        W37943  34.246  37.363  14.063
72959W        W37944  41.963   0.653  13.340
72960W        W37945  37.701   0.136  11.440
72961W        W37946   1.909  37.884  10.514
72962W        W37947  22.157  31.685  12.154
72963W        W37948  30.231  41.078   3.201
72964W        W37949  16.601  43.561   2.734
72965W        W37950  37.993   7.970  11.190
72966W        W37951  31.617  31.573  12.664
72967W        W37952   1.248  24.693   0.700
72968W        W37953   9.681  18.273  14.811
72969W        W37954   4.339  38.759   1.647
72970W        W37955  40.982   3.074  12.988
72971W        W37956  18.928   7.410   0.393
72972W        W37957  41.205  22.536  13.066
72973W        W37958  13.333  40.970  10.482
72974W        W37959  13.669  31.385  14.365
72975W        W37960  44.591  25.503  14.437
72976W        W37961  10.417  44.319   1.132
72977W        W37962  22.679  21.689  12.119
72978W        W37963  12.290   3.340   0.615
72979W        W37964  44.807  39.033  10.620
72980W        W37965  40.061   0.511  14.699
72981W        W37966  21.012  30.089  14.790
72982W        W37967  19.809   1.436  10.469
72983W        W37968   8.628  30.063   1.275
72984W        W37969   9.175  25.611   4.677
72985W        W37970  17.019  31.617   3.561
72986W        W37971  15.609  25.619  13.887
72987W        W37972   8.852  14.497   3.553
72988W        W37973  34.960  39.626   0.886
72989W        W37974  28.428   9.067  14.915
72990W        W37975  41.158  30.092  10.198
72991W        W37976  29.059  21.238   4.712
72992W        W37977  25.870   9.924  11.085
72993W        W37978  22.098   9.799  13.852
72994W        W37979   4.549  38.266   4.521
72995W        W37980   3.338  35.078   0.836
72996W        W37981  11.353  25.671  11.310
72997W        W37982  25.685   7.408   4.126
72998W        W37983  17.813   1.430  14.833
72999W        W37984  27.235  26.953  13.476
73000W        W37985  29.144  35.877  11.409
73001W        W37986  11.758  31.743   0.838
73002W        W37987  15.953  30.272   1.007
73003W        W37988  19.719   1.518   0.465
73004W        W37989  14.052  37.629   2.782
73005W        W37990   8.258  11.662  12.875
73006W        W37991  37.847   1.884  14.527
73007W        W37992  40.607  10.596  14.541
73008W        W37993  40.279   8.294  14.492
73009W        W37994  39.641  24.224  13.658
73010W        W37995  31.567   2.290   1.152
73011W        W37996  28.960  12.150  11.646
73012W        W37997  39.591  28.024   1.707
73013W        W37998  36.380  32.750  10.967
73014W        W37999   9.294   0.512  11.501
73015W        W38000   1.889  36.079  12.946
73016W        W38001   3.816  19.241  13.342
73017W        W38002  20.569  15.499  12.517
73018W        W38003  23.229  42.471   0.835
73019W        W38004  35.389   1.494  13.813
73020W        W38005  26.729   1.384  13.326
73021W        W38006  13.060  11.368  14.292
73022W        W38007   7.133  20.615  14.705
73023W        W38008  24.452   0.290   2.239
73024W        W38009  15.195  38.615  12.895
73025W        W38010  10.135  29.636  11.154
73026W        W38011  10.702  26.399  13.395
73027W        W38012  15.822  22.441  14.444
73028W        W38013  13.376  17.083  13.111
73029W        W38014  18.866  11.970  10.954
73030W        W38015  23.452  41.237  11.176
73031W        W38016  43.312  24.389  10.985
73032W        W38017   9.173  35.835  12.480
73033W        W38018  39.595  28.104  14.916
73034W        W38019  23.983   2.627   1.186
73035W        W38020  44.843  27.132  13.363
73036W        W38021   1.342  43.014   3.208
73037W        W38022  12.673  15.288  11.070
73038W        W38023  43.249  13.936  12.443
73039W        W38024  34.256  28.423   2.735
73040W        W38025  15.161  28.967   0.883
73041W        W38026  10.770  44.485   1.478
73042W        W38027  23.186  15.416  12.819
73043W        W38028  14.498  17.098  12.310
73044W        W38029  24.765   2.670  14.447
73045W        W38030   6.693  17.336   3.605
73046W        W38031  31.521  10.947   1.217
73047W        W38032  14.095  27.042  12.160
73048W        W38033  18.221  24.666   3.741
73049W        W38034  40.826   0.369   3.133
73050W        W38035  41.098  36.927   0.447
73051W        W38036  25.143   3.742  12.450
73052W        W38037  42.348  10.123   4.640
73053W        W38038   8.402  31.136   4.679
73054W        W38039  25.091  35.786  13.041
73055W        W38040  18.607   1.482   1.502
73056W        W38041   3.875  21.519  11.469
73057W        W38042  35.431  11.476  11.563
73058W        W38043   9.164   6.205  14.965
73059W        W38044   6.398  31.727   2.227
73060W        W38045   9.202  24.666  12.419
73061W        W38046  22.214  42.967  12.831
73062W        W38047  32.007   1.945  10.966
73063W        W38048  18.886   5.402   3.541
73064W        W38049  10.852  37.106  10.661
73065W        W38050  37.296  27.039  13.308
73066W        W38051  25.677  31.000   0.477
73067W        W38052   2.552   3.408  13.724
73068W        W38053  31.969   4.849  13.801
73069W        W38054  11.532  44.933  13.129
73070W        W38055   9.644  32.204   0.364
73071W        W38056  14.008  18.681  13.672
73072W        W38057  40.445  20.569   3.652
73073W        W38058  12.864   4.262  12.925
73074W        W38059   3.378   3.340  13.842
73075W        W38060   2.015  13.158  11.985
73076W        W38061  24.719   0.794   1.406
73077W        W38062  41.064   8.194   0.530
73078W        W38063   7.660   8.101   4.625
73079W        W38064  36.964  34.143  12.794
73080W        W38065  11.207  29.103   3.567
73081W        W38066  12.059  23.611  11.422
73082W        W38067   0.508  22.728   4.559
73083W        W38068  32.355  41.024   4.286
73084W        W38069  37.082  26.313   0.253
73085W        W38070   3.434  33.089  14.017
73086W        W38071   5.885  28.094   2.381
73087W        W38072  41.876  15.507   1.972
73088W        W38073  37.314  35.045   1.299
73089W        W38074  29.991  19.192  13.246
73090W        W38075   7.664  32.080   4.047
73091W        W38076  42.608   4.223  14.810
73092W        W38077  37.099  40.382  13.605
73093W        W38078  13.050  18.433  11.977
73094W        W38079  16.387  25.410   2.741
73095W        W38080  14.130  42.326   1.384
73096W        W38081  15.883  39.570   3.137
73097W        W38082  41.368  12.064   0.030
73098W        W38083  22.201  10.161   4.510
73099W        W38084   0.009  13.910  13.581
73100W        W38085  28.694   0.462   2.887
73101W        W38086  31.758  38.289   0.474
73102W        W38087  25.353  32.298   3.456
73103W        W38088  22.719  24.683  11.916
73104W        W38089  18.618  21.663   4.215
73105W        W38090  32.614  23.087  13.176
73106W        W38091  41.501  32.089   3.996
73107W        W38092  34.652   4.452   0.199
73108W        W38093  33.964  27.949  11.570
73109W        W38094  10.099  10.765  10.564
73110W        W38095   0.923   2.711   1.214
73111W        W38096  41.964  34.862  13.852
73112W        W38097  28.892  36.515  14.895
73113W        W38098  25.160   8.352   2.178
73114W        W38099  38.354  26.138  14.489
73115W        W38100  19.793  26.265  11.469
73116W        W38101  34.991  27.080   3.567
73117W        W38102  23.741  15.826   2.012
73118W        W38103  31.738  29.410   4.412
73119W        W38104   1.989  23.432  14.718
73120W        W38105  39.187  27.087   4.712
73121W        W38106  32.447  14.163  12.590
73122W        W38107  10.237  22.196  13.039
73123W        W38108  16.876  38.648   1.746
73124W        W38109   5.923  31.106   4.736
73125W        W38110   9.776   2.245   2.780
73126W        W38111  17.355  43.859   1.839
73127W        W38112  38.658  31.640   0.731
73128W        W38113  17.585  40.515   5.006
73129W        W38114   2.291  11.245   1.711
73130W        W38115  41.566  16.701   0.936
73131W        W38116  10.286   2.482  12.451
73132W        W38117  30.832   2.755   0.263
73133W        W38118  37.897  23.885  12.518
73134W        W38119   8.242  34.459   4.854
73135W        W38120  23.668  28.769   3.170
73136W        W38121  34.799   8.695   2.570
73137W        W38122  18.288  38.815  10.845
73138W        W38123   3.442  13.709  11.779
73139W        W38124  13.200   8.126   2.431
73140W        W38125   8.729  44.309   3.830
73141W        W38126   9.275  38.402   1.723
73142W        W38127   4.414  31.812  10.215
73143W        W38128  18.595  18.461  13.975
73144W        W38129  30.438   4.464   3.787
73145W        W38130  44.279  43.704  14.341
73146W        W38131   3.780  26.842   4.136
73147W        W38132  36.393   3.247  13.330
73148W        W38133  10.238  31.716   1.865
73149W        W38134  34.863  13.372   5.111
73150W        W38135   6.373  17.518  13.821
73151W        W38136   7.961  14.390   2.695
73152W        W38137  36.357  30.807   0.050
73153W        W38138   7.986   3.174  13.733
73154W        W38139   4.020  24.109   4.240
73155W        W38140  33.464  26.023   0.781
73156W        W38141  33.701  43.949   0.166
73157W        W38142  29.877  26.258  14.849
73158W        W38143  44.414  13.579   3.708
73159W        W38144  28.562  13.628   0.860
73160W        W38145  30.894  31.857  13.060
73161W        W38146  15.112  34.997   2.822
73162W        W38147  33.325  15.116  13.656
73163W        W38148  11.786  30.771  12.619
73164W        W38149  30.896  11.579  10.047
73165W        W38150  44.974   6.358  13.326
73166W        W38151  40.518  29.500  12.440
73167W        W38152  43.000  19.263  12.617
73168W        W38153   1.692  41.999   3.281
73169W        W38154  23.153  38.373  12.441
73170W        W38155  28.165   1.300   2.306
73171W        W38156   2.325   5.475   2.385
73172W        W38157  28.444   0.182   5.049
73173W        W38158  26.203   7.159   2.711
73174W        W38159  10.382  13.110  14.560
73175W        W38160  24.096   6.097   4.109
73176W        W38161  22.936   1.726  12.520
73177W        W38162  35.438  24.053  11.230
73178W        W38163  24.123  20.022  10.766
73179W        W38164  19.094  33.561   1.737
73180W        W38165  27.935  14.719  11.086
73181W        W38166  39.097   4.133  14.627
73182W        W38167  16.396   6.352  14.891
73183W        W38168  30.857   5.668   0.452
73184W        W38169   0.199  29.963   1.650
73185W        W38170  26.710  17.194  10.693
73186W        W38171  24.437  30.062  11.189
73187W        W38172   6.193  13.690  11.657
73188W        W38173  22.992  40.888   2.612
73189W        W38174  25.954   5.401   1.698
73190W        W38175  15.780  10.608   3.100
73191W        W38176  27.930  11.750  14.355
73192W        W38177  19.261  32.525  10.725
73193W        W38178   1.711   1.118   1.679
73194W        W38179  27.045  32.473   3.216
73195W        W38180  36.951  28.118   2.745
73196W        W38181   6.964  25.670   1.621
73197W        W38182  43.799  38.358   2.383
73198W        W38183  38.191  31.278   4.804
73199W        W38184  43.588  36.636   4.933
73200W        W38185  41.772  24.594  10.012
73201W        W38186  14.055  30.710  14.835
73202W        W38187  18.212  32.857  11.989
73203W        W38188  17.061  44.225   3.587
73204W        W38189  33.454  14.482   3.858
73205W        W38190   3.006   7.357  14.832
73206W        W38191  29.688  44.529  13.373
73207W        W38192  43.802  12.412   4.124
73208W        W38193  39.480  21.790   2.337
73209W        W38194   0.865   9.191  14.800
73210W        W38195  39.012  44.299  12.674
73211W        W38196  27.559  27.676   4.815
73212W        W38197  39.486   6.010   3.150
73213W        W38198  13.624   4.768   3.600
73214W        W38199   9.825  14.907  13.115
73215W        W38200   6.429  15.382  11.421
73216W        W38201  24.575  31.940  12.192
73217W        W38202  38.549   5.363  10.310
73218W        W38203  11.222  16.900   3.414
73219W        W38204   8.810   7.377  13.033
73220W        W38205   8.510   9.584   0.746
73221W        W38206   9.103  26.081   4.460
73222W        W38207   5.493  33.784  14.350
73223W        W38208  16.201   5.234   2.631
73224W        W38209  16.524  27.663   2.308
73225W        W38210  32.414  24.489  14.835
73226W        W38211  21.755  25.185   5.048
73227W        W38212  16.283  35.971  13.425
73228W        W38213   1.819  41.410   1.100
73229W        W38214  15.280  41.777   3.621
73230W        W38215  12.275  30.191   0.835
73231W        W38216  33.336   2.974  11.291
73232W        W38217   8.429   5.244  14.400
73233W        W38218  31.039  41.956  12.250
73234W        W38219  30.247  16.725  10.882
73235W        W38220  18.839  23.103   2.793
73236W        W38221  32.669  13.124   5.050
73237W        W38222   9.769  24.444  11.190
73238W        W38223  22.816  13.807   3.151
73239W        W38224  28.658  33.093  13.974
73240W        W38225  41.336  20.755   0.251
73241W        W38226  44.420   0.195   3.688
73242W        W38227  24.134  16.354  12.443
73243W        W38228  40.074   6.594  11.693
73244W        W38229  40.330   5.218   2.292
73245W        W38230  16.031  33.563   1.886
73246W        W38231  41.547  21.726   2.298
73247W        W38232  41.353  22.977  14.446
73248W        W38233  15.010  34.684  14.893
73249W        W38234  18.030  38.190  13.343
73250W        W38235  15.316  25.679  13.452
73251W        W38236  13.157   0.612  10.788
73252W        W38237  28.377  23.564   2.815
73253W        W38238  34.876  25.976   1.259
73254W        W38239  34.843  11.614  13.764
73255W        W38240   0.699  17.303   4.799
73256W        W38241  37.909  17.822   1.410
73257W        W38242  11.643   9.434  10.752
73258W        W38243  21.078  27.441   0.254
73259W        W38244   6.164  29.898  13.956
73260W        W38245  42.079  32.064  14.015
73261W        W38246  40.225  41.589  11.578
73262W        W38247  24.607  20.681  11.823
73263W        W38248  31.750  40.809  10.775
73264W        W38249  28.429  35.906   2.639
73265W        W38250  12.688  24.603   0.855
73266W        W38251  35.471  16.590   1.304
73267W        W38252  39.956  31.674   1.110
73268W        W38253  35.791   2.835   2.721
73269W        W38254   8.664  30.249  11.059
73270W        W38255  22.538  32.764   5.286
73271W        W38256  38.364  35.049  11.331
73272W        W38257   4.939  40.418  10.273
73273W        W38258  43.700  11.664   0.730
73274W        W38259   3.698   4.176  14.075
73275W        W38260   9.851  14.576  13.514
73276W        W38261  29.813  44.357  10.267
73277W        W38262  29.492  32.626  10.707
73278W        W38263  43.532  22.772   2.734
73279W        W38264  14.060  18.720  10.766
73280W        W38265  19.640  31.712  11.901
73281W        W38266  19.762  25.769  13.576
73282W        W38267  20.290   7.355   1.916
73283W        W38268  11.130  12.852   3.780
73284W        W38269  41.119  37.330  11.970
73285W        W38270  39.574  30.364  11.859
73286W        W38271   4.921  18.466  14.260
73287W        W38272  24.568  35.980  14.017
73288W        W38273  34.372  23.732  13.906
73289W        W38274  41.065  31.645   3.284
73290W        W38275   7.636  26.185   1.970
73291W        W38276  22.037  33.736  12.028
73292W        W38277  42.836   1.790   0.975
73293W        W38278  41.990  14.153   1.892
73294W        W38279  26.660  23.760  13.446
73295W        W38280  20.127  21.536  11.521
73296W        W38281  42.949  20.836   2.690
73297W        W38282  17.220  35.557  10.483
73298W        W38283  19.443  44.407   2.222
73299W        W38284  29.346  19.561  12.652
73300W        W38285  43.419  40.767   3.872
73301W        W38286  18.718   4.803   4.575
73302W        W38287   5.972  24.080  13.805
73303W        W38288  38.549  38.601   0.480
73304W        W38289  14.189  15.756  13.067
73305W        W38290  11.288  16.408   3.551
73306W        W38291  36.164  35.534  11.103
73307W        W38292  31.491  31.393  11.918
73308W        W38293  38.972   3.547   1.782
73309W        W38294  36.974   3.443   1.873
73310W        W38295   0.015  44.807  14.076
73311W        W38296  24.939  17.484  11.135
73312W        W38297  37.527  20.083   1.243
73313W        W38298  44.087   7.425   0.288
73314W        W38299  18.856  30.142  12.606
73315W        W38300  24.276  42.738  14.349
73316W        W38301   2.738  32.040  13.847
73317W        W38302  16.476  18.172   3.266
73318W        W38303  20.796  42.702   4.095
73319W        W38304   4.606   8.199   4.660
73320W        W38305  13.340  33.434   4.118
73321W        W38306   9.915  30.183   1.732
73322W        W38307   2.815  15.814  13.469
73323W        W38308  26.007  31.336  13.437
73324W        W38309   1.991  14.943  11.175
73325W        W38310  17.148  15.161   2.591
73326W        W38311  26.497  11.540  11.732
73327W        W38312  19.096   9.533  11.186
73328W        W38313  17.555  19.763  13.688
73329W        W38314  41.348  15.615   5.439
73330W        W38315  29.036  25.776  11.885
73331W        W38316  11.403   3.079  14.891
73332W        W38317  15.614  10.540  14.747
73333W        W38318  18.465  41.953   4.396
73334W        W38319  16.728  24.748  13.773
73335W        W38320  15.695  32.562  11.682
73336W        W38321  24.234  22.077  11.102
73337W        W38322  23.442   2.220   3.445
73338W        W38323  32.581  25.668  11.514
73339W        W38324  43.030  21.824   9.892
73340W        W38325  24.340  26.462   2.789
73341W        W38326  38.443  17.000   4.710
73342W        W38327  43.387  18.460  12.924
73343W        W38328  10.191  13.285  11.574
73344W        W38329  25.026  26.074  11.155
73345W        W38330   1.021  26.583   5.062
73346W        W38331  36.341  29.970   3.258
73347W        W38332  21.847   2.256   2.400
73348W        W38333  24.997  16.272   0.316
73349W        W38334   0.662  25.738   0.081
73350W        W38335  38.404  44.850   2.207
73351W        W38336   0.037  44.315   2.886
73352W        W38337   8.119   8.875   4.754
73353W        W38338   7.928  31.089   0.895
73354W        W38339   4.066   6.176   3.791
73355W        W38340   9.858  14.735   1.380
73356W        W38341   7.157   4.195  11.701
73357W        W38342  29.657   3.000  12.334
73358W        W38343  16.072  39.322  11.567
73359W        W38344  14.777  40.510   0.269
73360W        W38345  29.187  22.824  11.186
73361W        W38346  29.507  27.995  13.284
73362W        W38347  40.631  44.869  11.187
73363W        W38348  25.528  16.177   2.298
73364W        W38349  10.838  29.919   0.978
73365W        W38350  22.315  18.055  11.967
73366W        W38351   2.982  14.813   4.210
73367W        W38352   7.143   5.031  14.322
73368W        W38353  42.959  23.957   3.102
73369W        W38354  39.277   6.218  10.763
73370W        W38355  18.959  22.934  14.898
73371W        W38356  13.583   7.049  10.027
73372W        W38357   6.695  16.696   1.933
73373W        W38358  27.912  37.507  13.111
73374W        W38359  36.341  25.078   2.278
73375W        W38360  41.801  21.572   0.262
73376W        W38361  23.265  12.902  11.068
73377W        W38362  29.941  23.080   3.294
73378W        W38363   4.193  28.570   2.386
73379W        W38364  30.032  11.137   0.755
73380W        W38365  37.634  13.409   4.552
73381W        W38366  30.537  41.261   2.294
73382W        W38367   4.871   6.512   3.624
73383W        W38368   4.835  15.309  10.496
73384W        W38369  41.999  19.206   0.768
73385W        W38370  11.898  31.902   4.221
73386W        W38371  33.530  27.017  10.783
73387W        W38372  24.631  15.107   3.818
73388W        W38373  43.006   0.313  12.070
73389W        W38374  12.344  12.631  11.989
73390W        W38375   1.362  41.487   0.804
73391W        W38376   4.515   3.185  12.751
73392W        W38377  24.486  32.867   4.163
73393W        W38378  31.987  11.898  11.837
73394W        W38379  14.303  44.308  12.910
73395W        W38380  18.662   4.898   1.294
73396W        W38381   0.197  13.223  12.556
73397W        W38382  29.643  22.174  14.644
73398W        W38383  43.502  37.328   3.723
73399W        W38384  15.170  29.483   1.171
73400W        W38385   0.974  15.634  10.011
73401W        W38386  19.038   5.154   2.355
73402W        W38387  32.945  38.515  14.596
73403W        W38388  17.726  11.893  11.642
73404W        W38389   9.158  23.741  14.332
73405W        W38390  14.187  21.638   3.084
73406W        W38391   0.828  31.908   4.543
73407W        W38392  26.787   6.524   3.451
73408W        W38393  27.816  36.075   3.762
73409W        W38394  44.440   1.236  11.480
73410W        W38395   3.776   5.701   3.655
73411W        W38396  25.132   3.624   1.933
73412W        W38397   8.450   4.364  14.489
73413W        W38398  25.976  19.999   4.194
73414W        W38399  22.965  13.095   3.667
73415W        W38400  18.772  26.716   4.812
73416W        W38401  38.339  35.674  12.516
73417W        W38402  31.021  25.543   0.096
73418W        W38403  13.752  36.850  12.378
73419W        W38404   9.260  19.699  11.129
73420W        W38405  12.657  43.136  13.448
73421W        W38406  13.086   2.400   2.367
73422W        W38407  32.498  41.268  12.111
73423W        W38408  28.981  26.331   2.304
73424W        W38409  29.093  16.650   0.839
73425W        W38410  34.801  39.522  14.935
73426W        W38411  21.074   8.953  13.529
73427W        W38412  33.233  35.982  14.380
73428W        W38413  22.103  10.637   3.647
73429W        W38414  39.607  26.123  14.907
73430W        W38415  14.054  13.939   4.118
73431W        W38416   1.211   7.161  13.379
73432W        W38417   7.217  24.205  13.443
73433W        W38418   5.225   1.071   2.698
73434W        W38419  18.503  15.522   0.733
73435W        W38420  18.686  36.309   2.172
73436W        W38421  40.814  30.631  12.562
73437W        W38422  34.215  17.347  13.707
73438W        W38423  20.690   9.157  14.217
73439W        W38424  39.223  11.240  11.084
73440W        W38425  43.017  28.465   0.458
73441W        W38426   1.675   8.416  13.588
73442W        W38427  22.636  17.212  13.431
73443W        W38428  41.444   4.225   4.095
73444W        W38429  43.876  31.016  11.678
73445W        W38430  28.185  32.450  11.089
73446W        W38431   8.893  13.634  10.701
73447W        W38432   3.247   6.476   5.386
73448W        W38433   3.462  38.203   1.016
73449W        W38434  19.814   0.808   3.134
73450W        W38435  36.038   1.740   0.691
73451W        W38436  22.228  37.867  11.568
73452W        W38437  29.450  40.445   3.472
73453W        W38438   4.344  38.464  12.607
73454W        W38439   8.965  24.185   1.270
73455W        W38440  40.850  36.439  12.367
73456W        W38441  23.363  25.286  11.012
73457W        W38442  25.696  17.244   4.122
73458W        W38443  33.603  13.592   4.671
73459W        W38444   0.855   3.180   3.622
73460W        W38445  22.242   7.116  13.242
73461W        W38446  12.355  25.933  13.513
73462W        W38447   9.929  34.018   2.714
73463W        W38448  42.589  10.081   0.404
73464W        W38449  20.019  14.635   3.416
73465W        W38450  41.884  31.601   0.739
73466W        W38451  14.470  15.341   1.018
73467W        W38452  39.740  18.148  12.370
73468W        W38453  24.985  16.153   1.476
73469W        W38454  12.615   4.974   4.098
73470W        W38455  33.429   4.378   0.370
73471W        W38456  16.636  12.435   4.758
73472W        W38457  10.618  30.113  14.765
73473W        W38458  19.064   5.783  13.068
73474W        W38459  10.230  41.069  11.673
73475W        W38460  12.339   0.397   4.332
73476W        W38461  15.281  25.672   2.258
73477W        W38462   2.130  17.269  11.854
73478W        W38463  32.176  18.067   2.121
73479W        W38464   1.594  23.751  12.892
73480W        W38465   8.601  14.695  10.689
73481W        W38466  24.694  33.861  14.446
73482W        W38467  17.978   0.317   5.082
73483W        W38468  41.303   7.864   2.841
73484W        W38469  29.137  35.394   2.188
73485W        W38470  17.925  16.814  13.310
73486W        W38471  34.710   5.779  11.087
73487W        W38472  19.900  10.076   4.767
73488W        W38473  17.640   7.343  13.547
73489W        W38474  33.119   6.840  13.370
73490W        W38475  35.566  27.514   3.057
73491W        W38476  44.905   8.703  13.722
73492W        W38477  36.506   8.887   0.829
73493W        W38478  35.114  21.196  12.842
73494W        W38479   2.530  28.615   3.940
73495W        W38480  40.847  28.246   4.005
73496W        W38481  27.988  37.564   0.479
73497W        W38482  11.859   9.063  14.481
73498W        W38483  33.016   5.656  10.734
73499W        W38484  38.490  13.469   2.509
73500W        W38485  44.263   9.755  13.455
73501W        W38486  20.834   0.197   3.600
73502W        W38487  27.070  44.637   3.676
73503W        W38488  11.733  30.690  13.485
73504W        W38489   8.813  41.564   0.920
73505W        W38490  36.540   0.714  11.950
73506W        W38491  36.656  26.956   2.762
73507W        W38492  24.771  42.179  11.996
73508W        W38493  34.967   2.916  12.557
73509W        W38494   8.196  39.429   4.613
73510W        W38495  23.270   0.024  14.330
73511W        W38496  32.397   0.404  14.744
73512W        W38497  13.747  36.804   0.117
73513W        W38498   7.855  43.385  13.901
73514W        W38499  14.846  42.085   3.562
73515W        W38500  25.233  13.199  14.471
73516W        W38501  15.250   2.344   3.864
73517W        W38502  35.780  38.298  13.825
73518W        W38503  16.163  24.505   1.400
73519W        W38504   7.224   0.912  14.455
73520W        W38505   4.709  27.540  10.489
73521W        W38506  35.410   3.718  12.649
73522W        W38507   7.274   9.868   3.966
73523W        W38508   4.844  43.017  12.068
73524W        W38509  34.834  27.221   4.556
73525W        W38510  26.139  19.070   0.515
73526W        W38511  25.728  37.801   0.860
73527W        W38512  36.089  12.341   1.013
73528W        W38513   3.111  22.679   0.791
73529W        W38514  25.301  41.588  14.999
73530W        W38515  23.031  24.686  13.477
73531W        W38516  42.327  23.728   1.671
73532W        W38517  33.018  23.082  11.501
73533W        W38518  36.536  16.643  13.950
73534W        W38519  40.380   9.806   1.615
73535W        W38520  30.634   0.828   1.805
73536W        W38521   5.885  23.023   2.395
73537W        W38522  12.297  20.016   4.583
73538W        W38523  11.776  43.524  14.380
73539W        W38524  24.939  43.464   5.025
73540W        W38525  40.914  33.328   5.076
73541W        W38526  44.940  23.731  13.817
73542W        W38527   9.742  41.800   5.009
73543W        W38528  17.569   2.010  12.922
73544W        W38529  10.361  11.626   0.280
73545W        W38530  44.074  14.393   2.794
73546W        W38531  20.928  26.593   0.346
73547W        W38532  12.748   7.608   1.615
73548W        W38533  22.403  20.008   0.734
73549W        W38534  33.827  24.126   1.330
73550W        W38535  25.600  16.334  11.234
73551W        W38536  12.892  41.142  14.509
73552W        W38537  19.228  40.958  13.130
73553W        W38538  10.234  40.477   2.075
73554W        W38539  20.978  25.439   4.689
73555W        W38540  19.664  27.841   3.463
73556W        W38541  38.565  26.394   3.209
73557W        W38542  43.654  23.107   4.478
73558W        W38543  26.362  24.539  14.733
73559W        W38544   2.925  11.232   2.828
73560W        W38545  36.651  21.928  11.210
73561W        W38546  33.406  39.338   3.364
73562W        W38547  18.644   0.519  14.051
73563W        W38548   2.282  11.644   0.927
73564W        W38549  22.312   0.179   1.215
73565W        W38550   9.103  28.042   2.871
73566W        W38551  14.607  18.969  14.419
73567W        W38552  27.962  13.553  10.700
73568W        W38553  41.620   0.174  11.096
73569W        W38554  25.459  23.671  12.873
73570W        W38555  28.205  27.900   3.942
73571W        W38556  31.400  35.917   3.750
73572W        W38557   8.153   8.275  14.321
73573W        W38558  17.726  36.570   4.641
73574W        W38559  12.292   8.836   3.572
73575W        W38560  28.154   2.764   0.000
73576W        W38561   4.878  42.543   4.175
73577W        W38562   0.333  29.040   2.676
73578W        W38563  33.321  23.071   1.093
73579W        W38564  28.571  17.398  10.904
73580W        W38565   7.349  24.605   4.845
73581W        W38566  15.011  12.195   1.111
73582W        W38567  17.559  17.793   1.428
73583W        W38568   5.482  24.658   3.631
73584W        W38569   9.741  41.503  10.545
73585W        W38570   7.304   3.655  10.265
73586W        W38571  25.173   9.132  12.400
73587W        W38572  33.431  28.186  14.999
73588W        W38573  43.816  10.883   1.694
73589W        W38574   3.797  35.472   1.266
73590W        W38575  12.475  37.289  13.565
73591W        W38576  21.691  43.419  14.037
73592W        W38577   3.307  40.599  10.619
73593W        W38578  15.436  31.998  11.985
73594W        W38579  43.375   7.181  10.688
73595W        W38580  40.758   9.058   4.865
73596W        W38581  38.097  41.456   0.772
73597W        W38582  27.672  18.789  14.494
73598W        W38583  20.668   8.844   0.976
73599W        W38584   2.258  10.691   2.869
73600W        W38585  21.145  11.368   1.353
73601W        W38586  38.303  10.257   1.539
73602W        W38587   5.473   4.299   2.616
73603W        W38588  33.019   5.898   5.009
73604W        W38589   9.668  41.515  11.894
73605W        W38590  38.051  36.075   2.174
73606W        W38591  22.573   4.950   0.024
73607W        W38592  33.783  26.149   2.232
73608W        W38593  31.267  27.407   4.882
73609W        W38594  26.050   4.292   1.245
73610W        W38595   3.101  39.280   1.364
73611W        W38596   4.713  40.040  12.022
73612W        W38597   3.425  44.598  14.308
73613W        W38598  24.639  23.852  10.440
73614W        W38599  38.845  37.401  12.542
73615W        W38600  38.035  42.973  14.460
73616W        W38601  33.804  36.874   3.786
73617W        W38602  22.968  10.440  10.678
73618W        W38603   8.839  14.832  13.442
73619W        W38604  18.503  31.893   4.221
73620W        W38605  34.885  41.767   0.001
73621W        W38606  12.292  28.656   1.610
73622W        W38607  19.230   2.211  12.145
73623W        W38608  39.078  41.944   4.573
73624W        W38609  15.523  42.048   2.787
73625W        W38610   4.993   5.728   1.701
73626W        W38611  14.417  41.251   4.570
73627W        W38612  28.580  27.898  10.949
73628W        W38613  23.901  23.546  14.939
73629W        W38614  44.934  19.236   4.383
73630W        W38615   3.198  39.634  13.590
73631W        W38616  33.092  32.114  10.698
73632W        W38617  17.102  22.021   2.794
73633W        W38618   4.663  31.240  12.772
73634W        W38619   2.957  41.926   2.739
73635W        W38620   1.602  25.330   1.443
73636W        W38621  22.838  10.563  12.356
73637W        W38622  21.236  44.291  12.330
73638W        W38623  27.670  13.123   0.848
73639W        W38624  24.008   4.841  10.337
73640W        W38625  15.218   0.682  13.985
73641W        W38626   4.387  43.412  11.588
73642W        W38627  40.638   4.149  12.463
73643W        W38628  28.647  25.599   2.618
73644W        W38629  10.641  43.410  13.027
73645W        W38630   2.367  15.978   9.941
73646W        W38631  13.628  23.440  10.703
73647W        W38632  14.756  37.504  10.675
73648W        W38633  30.052   9.378   0.579
73649W        W38634  20.332  43.842   0.561
73650W        W38635   6.867  39.085  14.485
73651W        W38636  37.548   9.288   1.717
73652W        W38637  32.751   5.824   2.096
73653W        W38638  35.829  24.285   1.208
73654W        W38639  25.009  17.856   3.279
73655W        W38640  32.937   9.333   1.397
73656W        W38641  24.479  20.675  13.444
73657W        W38642  35.035  17.551   4.642
73658W        W38643  18.805  24.080   4.717
73659W        W38644  23.116  23.193   3.277
73660W        W38645  27.430  17.981  12.272
73661W        W38646  13.973  27.288   0.004
73662W        W38647   5.396  22.339  13.514
73663W        W38648   5.364  38.549   0.853
73664W        W38649  34.422  21.065  13.745
73665W        W38650   7.354  44.583   5.050
73666W        W38651  11.118  14.202   1.324
73667W        W38652  36.772   2.018   4.716
73668W        W38653   4.734  10.767  10.801
73669W        W38654  32.536  43.512  14.436
73670W        W38655   2.535   3.258  10.589
73671W        W38656  21.482  12.785  12.367
73672W        W38657  41.282  29.569  14.604
73673W        W38658   6.996   9.343   4.131
73674W        W38659  32.116  36.485  11.528
73675W        W38660  28.642  35.506   1.681
73676W        W38661  15.857  21.732  13.941
73677W        W38662  21.252  19.693   3.609
73678W        W38663   9.829  24.795  10.735
73679W        W38664  27.077  31.787  12.955
73680W        W38665  30.224  15.148   2.599
73681W        W38666  31.729  12.701  11.130
73682W        W38667  15.801   6.306  12.909
73683W        W38668  19.741   1.882  10.753
73684W        W38669  40.274  30.123   2.093
73685W        W38670  27.798  25.832   0.953
73686W        W38671  34.966  22.681   2.016
73687W        W38672  27.402  36.170   3.191
73688W        W38673  29.888  13.202  12.022
73689W        W38674  32.824   3.274   0.905
73690W        W38675   0.922   6.791   1.353
73691W        W38676  40.876  13.858   5.170
73692W        W38677   2.783  34.352   2.220
73693W        W38678  32.903  35.001  11.501
73694W        W38679  13.726  18.561   3.790
73695W        W38680  27.162  27.835   4.434
73696W        W38681  40.026  25.125  12.892
73697W        W38682  30.864  36.453   3.415
73698W        W38683  28.386  22.761   4.074
73699W        W38684   8.339  21.760   0.878
73700W        W38685  26.277  37.492  12.034
73701W        W38686  33.637  41.960   1.253
73702W        W38687  18.148  44.786   3.729
73703W        W38688   4.687  22.281   0.438
73704W        W38689  13.819  21.461  11.568
73705W        W38690  37.899  26.917  13.329
73706W        W38691   5.386  13.372  11.119
73707W        W38692  26.884   3.472  11.202
73708W        W38693  33.546  26.400  13.435
73709W        W38694  30.622   1.102  11.348
73710W        W38695  37.850  34.564  12.592
73711W        W38696  19.633   5.227  14.804
73712W        W38697  41.183  21.114   4.521
73713W        W38698  31.878  16.336  14.333
73714W        W38699  10.434   4.806  11.960
73715W        W38700  42.957  32.397   4.100
73716W        W38701  32.225  42.383  11.431
73717W        W38702  13.828  19.941  13.470
73718W        W38703  11.258  22.799   0.780
73719W        W38704  28.141  12.266  11.417
73720W        W38705   9.930  36.762  13.442
73721W        W38706  23.226  16.845  12.632
73722W        W38707  30.932   9.681   2.241
73723W        W38708  34.097  24.256  12.003
73724W        W38709  19.642  16.765   0.482
73725W        W38710  35.671   9.802   2.300
73726W        W38711  14.715  38.658   0.232
73727W        W38712  22.491   6.933   0.405
73728W        W38713  29.239   2.159  12.493
73729W        W38714  21.718  21.580   0.828
73730W        W38715  39.414  29.674  12.437
73731W        W38716   7.973   1.238   2.662
73732W        W38717  15.618  13.419   0.245
73733W        W38718  18.299   9.717  11.312
73734W        W38719   4.728   6.950  12.165
73735W        W38720  32.565  22.773  11.103
73736W        W38721  25.435  41.556   3.204
73737W        W38722  14.651  32.413  14.393
73738W        W38723   8.901  33.377  10.688
73739W        W38724  23.001  19.700  12.374
73740W        W38725  10.050  13.635   4.002
73741W        W38726   2.227  14.125  12.530
73742W        W38727  38.751  17.199   2.638
73743W        W38728  21.521   0.862  14.929
73744W        W38729  37.265  32.038   4.109
73745W        W38730  13.408  21.095  11.589
73746W        W38731  34.147  39.103   2.387
73747W        W38732  21.786   2.729  14.809
73748W        W38733  30.918  27.831   5.054
73749W        W38734  38.574   8.666   4.061
73750W        W38735  15.048  29.621   0.268
73751W        W38736  13.476  17.683  11.702
73752W        W38737   2.234  42.940   0.547
73753W        W38738   5.117  28.140  10.028
73754W        W38739  14.719  21.510   3.703
73755W        W38740  13.734  22.928   1.976
73756W        W38741  15.823  32.604  14.972
73757W        W38742  39.922  15.736  11.032
73758W        W38743   3.323  22.640  13.675
73759W        W38744  19.071  17.009   3.560
73760W        W38745  19.780   3.235   3.535
73761W        W38746  22.674  35.960  10.221
73762W        W38747  15.886  26.480   2.745
73763W        W38748  11.341   6.118   0.298
73764W        W38749  27.289  16.094  11.033
73765W        W38750   1.520   5.540  11.586
73766W        W38751  20.528  39.291   0.005
73767W        W38752  24.067  37.343  13.554
73768W        W38753  16.321  41.819  12.908
73769W        W38754  31.935  26.238  10.832
73770W        W38755   9.393   6.880   2.971
73771W        W38756  31.911  10.143   3.259
73772W        W38757  30.524   0.279   3.084
73773W        W38758   2.350  14.090  13.451
73774W        W38759  34.511  30.331  11.629
73775W        W38760  10.791   0.788   1.152
73776W        W38761  33.460   6.753   0.529
73777W        W38762  11.406  32.460  13.393
73778W        W38763  40.593  25.470   0.324
73779W        W38764  34.571  38.096   0.601
73780W        W38765   5.300  40.408   2.663
73781W        W38766  25.635   0.750  12.819
73782W        W38767  30.106  20.994  10.212
73783W        W38768  15.606   6.270   1.643
73784W        W38769   4.409   7.233  13.984
73785W        W38770  29.109  35.421  14.072
73786W        W38771   0.287  23.069   0.195
73787W        W38772  42.249  42.303  10.440
73788W        W38773  31.698  39.268   0.180
73789W        W38774  31.352  35.016   2.208
73790W        W38775  30.652  17.224  14.431
73791W        W38776  34.618  41.290  14.337
73792W        W38777   8.838   4.724   3.294
73793W        W38778  14.165  43.137  12.273
73794W        W38779  31.525   8.938   1.821
73795W        W38780  20.798  15.020   4.486
73796W        W38781   4.033   5.147   3.669
73797W        W38782   2.925  30.898  10.754
73798W        W38783  33.676  24.512   3.750
73799W        W38784  29.167   7.847  13.461
73800W        W38785  41.459   6.884   4.805
73801W        W38786  42.257   2.997   4.053
73802W        W38787   1.284  10.222  12.310
73803W        W38788  44.851  14.999  10.754
73804W        W38789  39.279  18.390   3.700
73805W        W38790  13.594  34.308  13.961
73806W        W38791  28.906  33.097   3.205
73807W        W38792  11.380   5.045   1.502
73808W        W38793   7.741  20.266  11.197
73809W        W38794  16.605   2.675   0.195
73810W        W38795   4.826  35.854  14.183
73811W        W38796   9.545  41.532   4.374
73812W        W38797   6.814  18.496  12.132
73813W        W38798  15.304   8.205   0.767
73814W        W38799  24.289  23.108   1.663
73815W        W38800  23.468  31.064   1.883
73816W        W38801  13.847  42.369  12.538
73817W        W38802  37.427  31.342   0.793
73818W        W38803  19.170  20.290  14.622
73819W        W38804  10.317  30.690   3.221
73820W        W38805  28.562   9.263  10.968
73821W        W38806  17.630  16.879   4.922
73822W        W38807  33.000   8.682  13.032
73823W        W38808  18.969   3.849  14.065
73824W        W38809  43.572  40.909   0.541
73825W        W38810  25.716   7.457  13.886
73826W        W38811  30.956  23.292   3.974
73827W        W38812  43.456  16.764   1.650
73828W        W38813  27.999   2.697  13.484
73829W        W38814   1.114   4.494  14.842
73830W        W38815  43.913  21.673   3.112
73831W        W38816  33.443  27.715  12.959
73832W        W38817  27.570   8.759   1.325
73833W        W38818  13.073   4.182  14.523
73834W        W38819  17.192  40.466  11.486
73835W        W38820   9.723   1.942   1.592
73836W        W38821  16.135  22.577   3.803
73837W        W38822   9.871  28.790  11.991
73838W        W38823  29.003  36.392  12.636
73839W        W38824  23.260  23.660  13.425
73840W        W38825  13.184  24.903   3.845
73841W        W38826   1.527  42.762   4.116
73842W        W38827  31.900  32.165   0.867
73843W        W38828  37.741  40.729   0.464
73844W        W38829  28.415  13.158  10.955
73845W        W38830  14.821  29.680  10.813
73846W        W38831  31.830  22.036  13.188
73847W        W38832   6.554  23.048   0.764
73848W        W38833  44.902  37.082   3.137
73849W        W38834  30.309  25.146   0.483
73850W        W38835  40.770  37.654  14.778
73851W        W38836  33.604  42.281   4.683
73852W        W38837  29.696  36.926   1.419
73853W        W38838  29.117   4.290  12.065
73854W        W38839  20.047   2.488   0.380
73855W        W38840  21.766  43.102  14.449
73856W        W38841   2.523  35.586  11.814
73857W        W38842  44.341   1.192  14.258
73858W        W38843  18.793  43.721   3.286
73859W        W38844  41.468  35.769  14.084
73860W        W38845  44.768  26.951   2.298
73861W        W38846  43.885  25.402  11.891
73862W        W38847   9.388  42.589   4.716
73863W        W38848  18.053   2.211  12.740
73864W        W38849  13.218   0.770   0.076
73865W        W38850  44.927  43.402   3.449
73866W        W38851  13.751  35.594   3.212
73867W        W38852  37.018  34.363  11.453
73868W        W38853  28.477  17.636  14.740
73869W        W38854  40.573  44.083  11.465
73870W        W38855  30.019   3.250  13.094
73871W        W38856  41.326  27.147   4.934
73872W        W38857  23.156  26.957   1.221
73873W        W38858  37.534  35.634   3.062
73874W        W38859  24.409   0.421   1.198
73875W        W38860  20.237   7.118  12.306
73876W        W38861  38.751   7.762  12.453
73877W        W38862  36.824  29.037  12.799
73878W        W38863  30.388   2.010   0.908
73879W        W38864  22.604  41.243  11.234
73880W        W38865  26.006  44.939  12.608
73881W        W38866  34.919   0.702  13.832
73882W        W38867  15.200   4.542  14.619
73883W        W38868  28.123  32.965  14.725
73884W        W38869  16.392  38.849  14.984
73885W        W38870   5.946  27.156  10.924
73886W        W38871  41.039  12.678  13.113
73887W        W38872  27.038  38.354   3.712
73888W        W38873  15.823   1.218  10.733
73889W        W38874  25.111   9.081  13.864
73890W        W38875  35.105  27.424  13.802
73891W        W38876  40.224  15.831  12.612
73892W        W38877  21.177  36.651   1.438
73893W        W38878   9.308  41.331  14.493
73894W        W38879  20.525  37.235  11.975
73895W        W38880   0.486  20.642  11.852
73896W        W38881  40.229  18.356  11.825
73897W        W38882  17.239  40.225  13.913
73898W        W38883  21.011  33.094  13.030
73899W        W38884   9.910  22.537   4.083
73900W        W38885   1.506  41.313  12.805
73901W        W38886   9.547   6.845  11.186
73902W        W38887  17.441  19.694  12.819
73903W        W38888  37.036   4.653   0.281
73904W        W38889  17.653   4.137   2.922
73905W        W38890  44.048   5.654   4.026
73906W        W38891  34.353  39.414   1.415
73907W        W38892  11.339  44.985  14.730
73908W        W38893  41.616  17.290  11.895
73909W        W38894   1.860   1.896   4.546
73910W        W38895   2.425   3.366  13.040
73911W        W38896  35.763  40.481  12.166
73912W        W38897  11.930  37.024   4.170
73913W        W38898  26.628  27.523   1.267
73914W        W38899  28.874   6.011   0.390
73915W        W38900  18.360  20.886  13.562
73916W        W38901  39.041  25.629   3.156
73917W        W38902  26.020  14.362   1.715
73918W        W38903  39.367  34.610  12.097
73919W        W38904  22.741   7.170   0.881
73920W        W38905   2.009  33.084   1.618
73921W        W38906   3.676  36.330   0.309
73922W        W38907   4.220  27.231  12.442
73923W        W38908  26.627   8.756  12.452
73924W        W38909  10.944  31.319   3.491
73925W        W38910   1.404  21.970   1.277
73926W        W38911   6.634  10.332  13.852
73927W        W38912  30.044  42.036   1.769
73928W        W38913   3.232  21.616   0.213
73929W        W38914  26.678   4.873   1.187
73930W        W38915  29.501  37.101   0.945
73931W        W38916  37.469  14.319  12.562
73932W        W38917  24.623   1.714   0.747
73933W        W38918   4.754  44.397   2.765
73934W        W38919  31.475  14.649  11.786
73935W        W38920  33.220   2.877  10.662
73936W        W38921   5.740   9.861   4.565
73937W        W38922  39.546  42.071   0.591
73938W        W38923   2.399  40.577   0.004
73939W        W38924  40.012  24.276   0.249
73940W        W38925  37.398   9.768   1.893
73941W        W38926  15.719  32.984  11.434
73942W        W38927  26.665  41.839   1.341
73943W        W38928  19.071  35.965   1.644
73944W        W38929  18.323  29.699  14.437
73945W        W38930  25.704  16.722   4.003
73946W        W38931  41.987   3.731   2.868
73947W        W38932  18.802  16.805   4.683
73948W        W38933  44.525  17.310  14.354
73949W        W38934   9.196  35.086   4.156
73950W        W38935  24.812   1.129   3.838
73951W        W38936  16.572   5.059  11.188
73952W        W38937   6.820  24.586   1.491
73953W        W38938  39.922  29.527  12.504
73954W        W38939  21.555  34.923  12.089
73955W        W38940  27.939  11.579  10.252
73956W        W38941  34.991  14.375  12.581
73957W        W38942   9.537  36.083  14.363
73958W        W38943  10.687  14.812  11.456
73959W        W38944  41.162  26.044  10.315
73960W        W38945  26.066   4.705  12.406
73961W        W38946  20.394  40.673   0.688
73962W        W38947  30.678  34.979  13.916
73963W        W38948  28.045  22.100   3.324
73964W        W38949  37.428  14.754   3.822
73965W        W38950   9.843   6.398   0.506
73966W        W38951  41.324  23.296  14.900
73967W        W38952  34.953   4.979  12.483
73968W        W38953   6.718  31.986   1.884
73969W        W38954  11.324  19.492   0.846
73970W        W38955  24.671  35.024  12.128
73971W        W38956  39.269   3.212   2.698
73972W        W38957  33.849  12.664   0.842
73973W        W38958   9.338  26.538   4.378
73974W        W38959  27.343  35.482  12.894
73975W        W38960  32.574  28.924  10.168
73976W        W38961  20.131  11.661  11.255
73977W        W38962   7.826  11.866   1.373
73978W        W38963   7.962  14.632  13.919
73979W        W38964  22.330   6.976   1.738
73980W        W38965   9.209  10.200   2.860
73981W        W38966   1.836  33.302  13.641
73982W        W38967  15.280  14.156   0.623
73983W        W38968   1.085  36.895  11.526
73984W        W38969  15.350  27.016   2.639
73985W        W38970  20.688   6.631   3.264
73986W        W38971  37.363  41.437  11.050
73987W        W38972   7.176  12.724  14.514
73988W        W38973   0.213  13.602  14.956
73989W        W38974  21.542  44.911  13.480
73990W        W38975   2.147  27.678  14.978
73991W        W38976  42.661  20.512   3.710
73992W        W38977   2.921  31.043  12.426
73993W        W38978  15.662  22.276   2.965
73994W        W38979   4.761  42.825  11.564
73995W        W38980  34.305  39.450   3.282
73996W        W38981  26.462  30.196   3.248
73997W        W38982  34.444   7.732   0.645
73998W        W38983  29.455  27.880  11.414
73999W        W38984  42.993  30.824   0.052
74000W        W38985  20.747  33.534  13.019
74001W        W38986  10.223  12.135  14.958
74002W        W38987   9.206   8.712   2.686
74003W        W38988  33.847  38.698  10.785
74004W        W38989  15.603   9.915   4.204
74005W        W38990  27.995  33.836  14.795
74006W        W38991  11.237  34.057   2.499
74007W        W38992  14.029   1.340   1.305
74008W        W38993  19.085  16.274   3.263
74009W        W38994  25.484  37.707  12.232
74010W        W38995  44.743  36.026  13.796
74011W        W38996  29.665   2.764   2.375
74012W        W38997  25.267  22.591  14.556
74013W        W38998  23.182  16.847  13.187
74014W        W38999  20.682  41.622  11.147
74015W        W39000  14.666   1.840  11.126
74016W        W39001  36.961   5.280   1.931
74017W        W39002  24.077   9.304   0.927
74018W        W39003  32.429   4.490  14.508
74019W        W39004   8.149  22.493   2.786
74020W        W39005   1.451  37.253   4.802
74021W        W39006  42.976  11.744  11.647
74022W        W39007  23.446  19.287  13.073
74023W        W39008  42.586   5.169   3.811
74024W        W39009  43.488  28.482  13.871
74025W        W39010  26.640  43.302  12.880
74026W        W39011  22.434  26.674  11.860
74027W        W39012  22.861  10.605   0.178
74028W        W39013   0.893  12.226   2.100
74029W        W39014  43.847  43.007  11.909
74030W        W39015  19.633   1.840   0.937
74031W        W39016  18.981  18.989   1.424
74032W        W39017   6.720  10.477   0.155
74033W        W39018  13.266  24.628  12.386
74034W        W39019  13.577  35.556  10.499
74035W        W39020  38.882  31.530   4.618
74036W        W39021   5.433   1.580   3.733
74037W        W39022  42.836  34.019  13.330
74038W        W39023  15.462  32.314  10.965
74039W        W39024  19.746  35.331   0.440
74040W        W39025  43.798  39.927   3.248
74041W        W39026   3.992  41.720  14.349
74042W        W39027  33.859  28.944   2.293
74043W        W39028  43.223  43.494   2.669
74044W        W39029  39.825  20.227   2.927
74045W        W39030  30.561  10.525  10.148
74046W        W39031  18.263  38.343  14.361
74047W        W39032  31.225   0.200  14.023
74048W        W39033  31.621  42.842   2.232
74049W        W39034  25.251  19.374  14.401
74050W        W39035  19.921   3.449   2.219
74051W        W39036  43.948  29.240  12.519
74052W        W39037  31.984  38.869  13.897
74053W        W39038  25.030  42.051  11.438
74054W        W39039  10.359  25.697   0.783
74055W        W39040  44.712  38.583  11.352
74056W        W39041  20.746   2.445  13.742
74057W        W39042   1.530   9.369   2.323
74058W        W39043   6.426  13.632   1.303
74059W        W39044  16.444  15.817   4.155
74060W        W39045  19.298  38.852   4.324
74061W        W39046   6.274  28.002  14.734
74062W        W39047   9.720  34.059  13.905
74063W        W39048  30.273  27.629   0.320
74064W        W39049  39.566  26.191  13.587
74065W        W39050   8.401  11.506   1.426
74066W        W39051   0.129  42.749   3.618
74067W        W39052   3.256  37.573   2.752
74068W        W39053   9.185  34.823  14.903
74069W        W39054   7.292  44.510  13.346
74070W        W39055  15.401   1.974   4.748
74071W        W39056   9.352   6.842   5.080
74072W        W39057  29.220  33.680   3.610
74073W        W39058  10.305   1.945   0.392
74074W        W39059  39.403  21.898  13.396
74075W        W39060  19.865   0.908  11.724
74076W        W39061  27.198  40.275   4.584
74077W        W39062  16.096  14.750  14.051
74078W        W39063   5.291  40.241  11.043
74079W        W39064  38.101  40.899  13.858
74080W        W39065  43.507  23.183  13.828
74081W        W39066  30.933  29.719   4.124
74082W        W39067  18.065  24.312   2.181
74083W        W39068  14.626  14.543   1.234
74084W        W39069  11.197  34.907   0.675
74085W        W39070  22.924   5.585   2.921
74086W        W39071  41.084  14.567   0.143
74087W        W39072  12.264  18.738  11.395
74088W        W39073  13.841  16.872   0.359
74089W        W39074  40.797  39.810  13.004
74090W        W39075  11.513  26.609   5.031
74091W        W39076  42.155  28.375   3.785
74092W        W39077   4.739   6.207  14.427
74093W        W39078   8.370  35.136  14.761
74094W        W39079  18.645  16.122   2.296
74095W        W39080  32.874  22.964   3.774
74096W        W39081  22.796   1.050   5.038
74097W        W39082   7.164  26.021   2.679
74098W        W39083   0.389   3.482  12.152
74099W        W39084  14.269  31.394   1.461
74100W        W39085  29.898  11.369  13.381
74101W        W39086  40.276  21.466  11.959
74102W        W39087  37.119   8.477  11.068
74103W        W39088  17.615  16.599  14.309
74104W        W39089  16.658  17.742   2.099
74105W        W39090  40.259  36.868   3.666
74106W        W39091   2.394  31.008   0.205
74107W        W39092  16.334  28.299  12.073
74108W        W39093  24.324  14.294   5.072
74109W        W39094   9.453  32.753   1.263
74110W        W39095   0.941  26.341  11.480
74111W        W39096  19.028  17.563   1.397
74112W        W39097   9.128  29.322   0.249
74113W        W39098  24.244   7.702  14.833
74114W        W39099  34.158  36.751   0.845
74115W        W39100  26.524   6.285  13.940
74116W        W39101  23.252  37.517  14.227
74117W        W39102  22.467  25.076  13.399
74118W        W39103  29.073  27.184  13.106
74119W        W39104  19.764  38.383   0.455
74120W        W39105  37.577  22.043  10.667
74121W        W39106  35.922  36.825   4.297
74122W        W39107  17.868  38.672  13.418
74123W        W39108   0.038  18.344   3.928
74124W        W39109  44.232  24.443  13.674
74125W        W39110  12.632  31.471  14.161
74126W        W39111  22.682   3.438   0.754
74127W        W39112   1.816  11.300   3.551
74128W        W39113   7.070  39.778   2.277
74129W        W39114   1.776  23.999   2.332
74130W        W39115  35.816  28.556  11.114
74131W        W39116  15.626  19.622  13.024
74132W        W39117  16.331  14.731  14.533
74133W        W39118   7.881  15.327  13.123
74134W        W39119  15.172  22.246  11.715
74135W        W39120   8.720  18.115   2.419
74136W        W39121  35.403  22.463   1.890
74137W        W39122  13.007   7.599   5.055
74138W        W39123   1.041  38.043   0.311
74139W        W39124  42.727  35.031   2.338
74140W        W39125  41.717  20.185   4.680
74141W        W39126   9.613  44.762   3.843
74142W        W39127  30.404  35.640   2.845
74143W        W39128  33.921  34.263   4.643
74144W        W39129  14.095  39.137  14.161
74145W        W39130  37.639  11.674  14.802
74146W        W39131  42.868  37.875  13.807
74147W        W39132   7.502  40.946  11.571
74148W        W39133  28.067  33.815  10.993
74149W        W39134  38.594  12.241   3.375
74150W        W39135   7.356   1.756   3.653
74151W        W39136   6.669  13.757   4.290
74152W        W39137  36.070   0.009   1.724
74153W        W39138   6.226   3.154   3.680
74154W        W39139  18.670   2.857   4.738
74155W        W39140  38.567   9.701   3.711
74156W        W39141  33.026  14.044  11.491
74157W        W39142  18.637  18.796  13.591
74158W        W39143  26.993  31.989  13.928
74159W        W39144  43.497   8.765   4.578
74160W        W39145  44.022  10.361  13.006
74161W        W39146  15.660   0.044   2.791
74162W        W39147   4.827   7.722  11.025
74163W        W39148   7.115   5.457  12.989
74164W        W39149   2.694  14.987  14.996
74165W        W39150  34.506  37.070  14.932
74166W        W39151  40.092   2.790   4.140
74167W        W39152  33.097   3.290  14.883
74168W        W39153  10.721  20.518  13.909
74169W        W39154  39.760  40.789   4.564
74170W        W39155  37.205  44.223   4.194
74171W        W39156  35.339  37.816  11.559
74172W        W39157   7.702  30.244  12.925
74173W        W39158  26.160  20.489   1.519
74174W        W39159  11.350  26.531   1.645
74175W        W39160  16.784  32.921   2.849
74176W        W39161  34.956  44.158  13.079
74177W        W39162  14.329  21.239   4.263
74178W        W39163  16.062  13.065  11.384
74179W        W39164  42.007  11.573  12.311
74180W        W39165  36.565  20.005  10.728
74181W        W39166  25.339  17.425   1.468
74182W        W39167   8.296  14.685  14.359
74183W        W39168  10.815   1.888   0.128
74184W        W39169  40.486  29.201   2.171
74185W        W39170  27.988  17.094  13.725
74186W        W39171  26.478  29.620  14.433
74187W        W39172   6.022  11.829  13.068
74188W        W39173  23.838  19.244   3.326
74189W        W39174   0.682  37.404  14.696
74190W        W39175  21.947  21.797   3.751
74191W        W39176   6.241  15.916  14.806
74192W        W39177  28.579  17.277   2.320
74193W        W39178   8.937  30.091  13.429
74194W        W39179  41.274  40.460   4.100
74195W        W39180  33.142  26.120  12.193
74196W        W39181  26.546  12.844   4.830
74197W        W39182  11.564  40.879  12.028
74198W        W39183  43.040  29.037   1.135
74199W        W39184  38.495  28.812  14.540
74200W        W39185  22.820  15.843  11.961
74201W        W39186  37.962  26.918  12.322
74202W        W39187  43.162  44.450  11.045
74203W        W39188   0.864  27.603   1.302
74204W        W39189   8.416   8.417   5.100
74205W        W39190  10.890  35.539   3.215
74206W        W39191  26.266   5.810  13.333
74207W        W39192   4.703  21.209   4.012
74208W        W39193   1.854  40.882  14.385
74209W        W39194  24.441  38.874  11.619
74210W        W39195  23.745  19.509   4.966
74211W        W39196  25.893  19.713  11.486
74212W        W39197  43.460  17.671  13.497
74213W        W39198   0.783   1.789   1.728
74214W        W39199  25.603  38.039   4.443
74215W        W39200   2.865   3.045   0.891
74216W        W39201   6.120   9.158   3.920
74217W        W39202   6.735  10.826  12.040
74218W        W39203   6.828   7.442   4.181
74219W        W39204   4.167  44.059   0.176
74220W        W39205  23.229   1.003   3.193
74221W        W39206  41.573  42.567   2.229
74222W        W39207  23.935  18.823   1.649
74223W        W39208  30.399  33.506   2.468
74224W        W39209  18.061  31.967  11.073
74225W        W39210   1.846  36.382   3.623
74226W        W39211  31.438  21.496   1.476
74227W        W39212   3.713  37.869  12.462
74228W        W39213   2.872  29.613  11.112
74229W        W39214  22.370  37.403   4.118
74230W        W39215  13.673  43.645   2.764
74231W        W39216  13.724  10.818   1.752
74232W        W39217  23.028  43.975  11.100
74233W        W39218  28.979   8.393  14.335
74234W        W39219  12.181  35.438   4.598
74235W        W39220   5.389  39.316  14.401
74236W        W39221  41.038  21.916  14.793
74237W        W39222  25.721   6.326  12.877
74238W        W39223  34.189  25.239   1.044
74239W        W39224  38.894  16.025   1.450
74240W        W39225  26.592  15.573   0.021
74241W        W39226   7.860   4.732   3.433
74242W        W39227  38.019   8.168  12.609
74243W        W39228  36.872  18.587   2.889
74244W        W39229   7.806  12.260   2.914
74245W        W39230  16.852   2.316   2.507
74246W        W39231  39.436  14.855   0.524
74247W        W39232  31.517  35.563   0.244
74248W        W39233  44.912  38.466   1.482
74249W        W39234  28.805  37.577   0.938
74250W        W39235   6.681  31.757   5.046
74251W        W39236  40.503  14.332   1.859
74252W        W39237   2.994  11.233   2.321
74253W        W39238  37.442  20.729  14.470
74254W        W39239  15.348  13.065  10.790
74255W        W39240  32.561   3.846  13.118
74256W        W39241  10.265  19.186   1.162
74257W        W39242  22.558  21.117   1.270
74258W        W39243   5.286   6.349   3.374
74259W        W39244  35.936  42.474   3.321
74260W        W39245   1.510  26.543  12.627
74261W        W39246  26.719  34.252   4.801
74262W        W39247  29.848  32.007  11.605
74263W        W39248   6.305  25.655   3.326
74264W        W39249   8.325  32.275   3.873
74265W        W39250  13.138  35.490  13.027
74266W        W39251  27.610  30.641   0.837
74267W        W39252  35.804  13.960  13.951
74268W        W39253  14.376  34.897  11.533
74269W        W39254   3.082  14.119  13.801
74270W        W39255  10.646  40.874   0.262
74271W        W39256  14.802  29.001   3.496
74272W        W39257  23.630  35.815  14.040
74273W        W39258  39.572  27.788  12.139
74274W        W39259   2.018  13.660  12.504
74275W        W39260  39.025   3.299  12.812
74276W        W39261  17.790   8.888  11.451
74277W        W39262   0.990  13.338  14.606
74278W        W39263  35.751   2.378  11.627
74279W        W39264  43.432   8.402  12.995
74280W        W39265  25.321   0.762  11.253
74281W        W39266  38.741  28.602  13.389
74282W        W39267  34.945  44.524   2.277
74283W        W39268  33.424   8.136   0.274
74284W        W39269   0.827  20.685  13.321
74285W        W39270  16.806   5.443   0.363
74286W        W39271  29.467  27.000  12.810
74287W        W39272  40.778   3.223  10.596
74288W        W39273  32.173   3.583   2.468
74289W        W39274  25.488  42.347  12.430
74290W        W39275  25.052  29.502   4.620
74291W        W39276  34.077  25.021  12.964
74292W        W39277  20.866  33.633  14.330
74293W        W39278  12.878  20.475  11.115
74294W        W39279  23.288   5.214  11.371
74295W        W39280  13.566  28.495   4.509
74296W        W39281  40.768   8.472  13.616
74297W        W39282  33.848   7.306   1.800
74298W        W39283   2.524  39.989   9.943
74299W        W39284   9.361  30.647  10.767
74300W        W39285  44.953  14.995   0.352
74301W        W39286   6.026  40.445   1.799
74302W        W39287  38.566   6.463  13.152
74303W        W39288  19.310  20.205   0.618
74304W        W39289  32.431  39.978   4.630
74305W        W39290  22.492   6.354   1.924
74306W        W39291  41.595  27.151  11.980
74307W        W39292   5.466  23.678   3.813
74308W        W39293   6.867  44.906  13.391
74309W        W39294  16.223   1.142   4.315
74310W        W39295  33.272  24.203  10.803
74311W        W39296   8.134  11.857   0.196
74312W        W39297  30.678  23.508  13.850
74313W        W39298  23.076  35.030  13.157
74314W        W39299   6.014  17.642   2.029
74315W        W39300  19.742   8.261   2.840
74316W        W39301  29.833  39.253  14.823
74317W        W39302   4.415  19.069   1.859
74318W        W39303  32.592  44.328  13.761
74319W        W39304  23.775  27.222   2.819
74320W        W39305  36.064  27.440  11.643
74321W        W39306  11.815  24.242  13.445
74322W        W39307   4.859  25.639   1.587
74323W        W39308  42.409  28.890  11.579
74324W        W39309  18.856  33.956   1.966
74325W        W39310  26.572  13.346   2.316
74326W        W39311  42.450  28.449   3.335
74327W        W39312  37.452   0.678  13.526
74328W        W39313   7.453  35.468  14.139
74329W        W39314  11.945   6.445   0.934
74330W        W39315   5.436  44.202  13.285
74331W        W39316   1.268   8.740   0.294
74332W        W39317  24.783  32.111  11.187
74333W        W39318  15.068   7.650  14.008
74334W        W39319  25.756  13.393   3.823
74335W        W39320  10.792  35.790   4.146
74336W        W39321  30.386  34.579  11.471
74337W        W39322  40.471   7.823   0.898
74338W        W39323  22.763   4.471  10.469
74339W        W39324  16.435  30.607  11.738
74340W        W39325  23.573  12.699  14.788
74341W        W39326  13.802  40.003   2.895
74342W        W39327  35.052   0.296   1.607
74343W        W39328   2.505  11.303   2.182
74344W        W39329   0.936  12.718   0.446
74345W        W39330  18.568  22.216  14.511
74346W        W39331   6.646  13.670   3.496
74347W        W39332   8.694   4.889   1.241
74348W        W39333  22.973   2.276  12.990
74349W        W39334  25.012  43.441   3.128
74350W        W39335  26.564  30.408   3.695
74351W        W39336  28.598  32.969   0.023
74352W        W39337  16.741  32.577   4.250
74353W        W39338  10.240  43.063   5.072
74354W        W39339  41.584   1.839   2.481
74355W        W39340  13.555   8.937   0.008
74356W        W39341  35.582  36.845  12.508
74357W        W39342  31.422  40.538   1.631
74358W        W39343   9.809  27.104  10.375
74359W        W39344  11.782  27.890  12.149
74360W        W39345  12.898  11.614   0.141
74361W        W39346  38.362   3.196   2.427
74362W        W39347  13.789  10.528  11.104
74363W        W39348  26.637   0.746   0.758
74364W        W39349  42.807  13.673  12.415
74365W        W39350  22.501  31.511  12.508
74366W        W39351  25.688  32.168  10.808
74367W        W39352  25.412  22.663  12.347
74368W        W39353  11.721  38.926   1.754
74369W        W39354  36.433  40.115  12.751
74370W        W39355  15.656  42.117   0.890
74371W        W39356  26.240   0.338   3.070
74372W        W39357   5.911  23.238   1.938
74373W        W39358  44.469   4.163   2.361
74374W        W39359  43.839  20.329   2.624
74375W        W39360   5.208  34.480  13.767
74376W        W39361   2.896  43.749  14.435
74377W        W39362   8.997  17.778   0.846
74378W        W39363  27.586  40.601   0.294
74379W        W39364  13.367  43.707   2.083
74380W        W39365  29.662  27.099  13.264
74381W        W39366  22.893  37.109  14.357
74382W        W39367  34.009  34.233   3.229
74383W        W39368  16.055  34.670   4.548
74384W        W39369  37.475  19.935  10.555
74385W        W39370  38.371  10.374   0.013
74386W        W39371  28.417  23.567  13.976
74387W        W39372  42.577  38.433  11.166
74388W        W39373   7.427  39.308   0.326
74389W        W39374  24.043  40.447   4.784
74390W        W39375  24.261  27.567   4.131
74391W        W39376  25.924  18.685   4.767
74392W        W39377  22.112  10.024   1.005
74393W        W39378  35.910  23.684   3.333
74394W        W39379   7.241  12.717  12.872
74395W        W39380  40.521  21.203   0.117
74396W        W39381  31.718   0.309  13.964
74397W        W39382   3.485   1.258   3.692
74398W        W39383  43.925  16.528   1.404
74399W        W39384  44.354  28.699   0.986
74400W        W39385   4.467  11.561   1.451
74401W        W39386  36.041  18.136  13.452
74402W        W39387  22.682   1.059   0.414
74403W        W39388  18.627  44.912  11.372
74404W        W39389  26.210  15.300  12.043
74405W        W39390  22.812  23.465   1.230
74406W        W39391  26.732  15.596   3.286
74407W        W39392  33.032   0.087  12.042
74408W        W39393   9.201  16.354   1.206
74409W        W39394  42.574  22.268  10.553
74410W        W39395  27.167  34.126  11.080
74411W        W39396  42.057  40.510  12.273
74412W        W39397  29.837  17.064   1.264
74413W        W39398  40.941  13.969   2.776
74414W        W39399   3.764  20.747   3.738
74415W        W39400  43.475  22.349   1.371
74416W        W39401  20.529  17.815   2.267
74417W        W39402  15.150  36.568   2.705
74418W        W39403  19.763  18.008  10.218
74419W        W39404  33.901  38.886  11.270
74420W        W39405   3.822  34.902   0.918
74421W        W39406   5.384  30.094  11.174
74422W        W39407  20.560   0.928   0.411
74423W        W39408  25.188  25.539   2.253
74424W        W39409  43.282  21.717  12.609
74425W        W39410  42.038  33.923   3.624
74426W        W39411  39.378  23.085   1.463
74427W        W39412  31.201  16.797  13.559
74428W        W39413  15.555  17.649  11.570
74429W        W39414   1.829  35.110  13.441
74430W        W39415   3.515  25.269  11.772
74431W        W39416   0.779  44.490   2.259
74432W        W39417  42.906  40.055   3.576
74433W        W39418  40.588  25.947  13.924
74434W        W39419  18.314  33.947   1.169
74435W        W39420   0.860  23.695  13.344
74436W        W39421  39.324  37.154  13.328
74437W        W39422  14.188   9.718  12.445
74438W        W39423  39.139   6.300   0.167
74439W        W39424   2.583  39.377   1.376
74440W        W39425  31.697   3.914  12.017
74441W        W39426  36.523   6.962  14.735
74442W        W39427   6.867   4.860  13.455
74443W        W39428  17.884  35.344   3.248
74444W        W39429  14.873  29.922   1.844
74445W        W39430   7.425  38.026   3.294
74446W        W39431  14.188  15.763   0.816
74447W        W39432   5.161  16.212   4.128
74448W        W39433  10.278  39.748   4.270
74449W        W39434  14.036  43.447  11.878
74450W        W39435   7.814  21.043   1.446
74451W        W39436   7.380  23.444   1.211
74452W        W39437  42.881  10.179   3.411
74453W        W39438  35.514  17.057  14.200
74454W        W39439  23.239  11.803  14.811
74455W        W39440  38.875  32.012  12.372
74456W        W39441  30.126   4.314   0.023
74457W        W39442   3.752  30.910  14.826
74458W        W39443   5.718   7.324   1.300
74459W        W39444  39.787  31.005  12.383
74460W        W39445  16.039  29.038   1.195
74461W        W39446  27.986  15.767   0.981
74462W        W39447   6.924  10.569   4.533
74463W        W39448  33.788  42.026  10.588
74464W        W39449  17.153  19.271   3.752
74465W        W39450   9.076  13.435  13.357
74466W        W39451  40.139  17.328  13.165
74467W        W39452   3.670  27.513   2.698
74468W        W39453  31.381   6.386   1.142
74469W        W39454  25.957  37.949  11.340
74470W        W39455  31.918  37.470  12.105
74471W        W39456  41.910  40.513   1.747
74472W        W39457  10.824   8.247   9.857
74473W        W39458  37.654  37.699  13.931
74474W        W39459   4.360  43.708  12.661
74475W        W39460  21.252   4.925   0.832
74476W        W39461  29.380  15.720   4.641
74477W        W39462  20.141   7.914  14.860
74478W        W39463  41.411  27.491   0.001
74479W        W39464  20.037  20.171   4.132
74480W        W39465  12.224   3.557  14.718
74481W        W39466  30.617  40.768  13.129
74482W        W39467  29.750  31.665   4.726
74483W        W39468   8.981   2.718   0.818
74484W        W39469  33.123  26.530  11.872
74485W        W39470   3.509  14.668   4.583
74486W        W39471   2.207  21.805   2.257
74487W        W39472  34.920   5.579  10.212
74488W        W39473   5.919   7.879   0.899
74489W        W39474   7.061   9.071   3.605
74490W        W39475   4.357   7.644   3.804
74491W        W39476  38.008  34.043  10.425
74492W        W39477  32.059  27.512   4.949
74493W        W39478  12.520  31.437  10.334
74494W        W39479  22.954  34.136  10.595
74495W        W39480  10.591  20.736  13.467
74496W        W39481  32.531   4.444   3.638
74497W        W39482  11.232   2.812   0.293
74498W        W39483  23.248   7.280  12.071
74499W        W39484  26.932  15.501   4.200
74500W        W39485  27.139  35.866   4.856
74501W        W39486  24.082  34.372  13.810
74502W        W39487  22.201   4.908   1.408
74503W        W39488   3.574  21.929   4.103
74504W        W39489  27.094  36.876   1.690
74505W        W39490  33.382  22.754   3.643
74506W        W39491  10.004  41.416   2.643
74507W        W39492  20.243  41.302   4.483
74508W        W39493   1.294  16.238  11.111
74509W        W39494  14.025  38.465  14.773
74510W        W39495  15.552  20.428   2.807
74511W        W39496  21.138   3.286   0.124
74512W        W39497   6.897  34.413   2.923
74513W        W39498  25.168   4.453  14.232
74514W        W39499  23.719  17.052  14.997
74515W        W39500  12.594   5.356   1.797
74516W        W39501  19.116  27.396   4.125
74517W        W39502   5.245  13.011   0.661
74518W        W39503  44.509  42.281  12.080
74519W        W39504  25.716  44.202  13.368
74520W        W39505   8.191   2.422   3.258
74521W        W39506  21.690  19.832  14.860
74522W        W39507  16.202  16.647  11.980
74523W        W39508   7.143  29.970   1.703
74524W        W39509   6.354  14.222  11.574
74525W        W39510  43.435   8.650   0.213
74526W        W39511  17.605  26.023  12.080
74527W        W39512  32.485   4.081   1.425
74528W        W39513   6.904  35.902   3.337
74529W        W39514   1.547  27.693  12.818
74530W        W39515   6.046  25.091   1.769
74531W        W39516  19.815  27.887  14.913
74532W        W39517   3.980  19.750   3.266
74533W        W39518  43.153   6.266   4.200
74534W        W39519  30.181  31.912   4.565
74535W        W39520  43.839  18.800  14.944
74536W        W39521  10.290  23.009  14.495
74537W        W39522  24.652   9.082  12.390
74538W        W39523  32.134  43.746  13.497
74539W        W39524  10.254  44.912  10.781
74540W        W39525  28.572  42.246   2.119
74541W        W39526   3.381   0.507  13.321
74542W        W39527   1.253  26.848  14.573
74543W        W39528  11.241   5.589  13.618
74544W        W39529  17.618   8.346   2.115
74545W        W39530   1.775  38.881   1.333
74546W        W39531  30.700   4.347  13.274
74547W        W39532  29.159  10.085  14.989
74548W        W39533  11.279  30.178   4.548
74549W        W39534  43.332  34.750  11.465
74550W        W39535  29.444  32.588   1.108
74551W        W39536  37.401  22.525   1.826
74552W        W39537  34.393  14.210   2.913
74553W        W39538  22.683  25.103  12.512
74554W        W39539  21.663   9.357   4.581
74555W        W39540  40.397  37.388  12.415
74556W        W39541  10.832  28.064   0.446
74557W        W39542  40.361  15.351  12.686
74558W        W39543  19.360   7.926   2.050
74559W        W39544  13.592  42.356  12.988
74560W        W39545   0.878  43.340   1.877
74561W        W39546  28.483  39.901   1.343
74562W        W39547  16.866   9.363  13.945
74563W        W39548  36.041  18.187   1.929
74564W        W39549   3.241  41.816   4.041
74565W        W39550  17.969  41.165  12.576
74566W        W39551  12.219  13.147   4.522
74567W        W39552   4.016  37.713   0.265
74568W        W39553  36.484  18.443  13.454
74569W        W39554  38.271  13.103  12.942
74570W        W39555  36.236  39.753   3.809
74571W        W39556  30.932  29.196  13.408
74572W        W39557   4.521  17.348  10.717
74573W        W39558  30.402  36.151   0.401
74574W        W39559  13.667  43.135   2.641
74575W        W39560   7.725  35.836   0.704
74576W        W39561  27.617  32.394   0.241
74577W        W39562  22.455   7.688   3.210
74578W        W39563  39.982  41.002   4.090
74579W        W39564  25.999  40.495  12.461
74580W        W39565  18.034  12.414   1.835
74581W        W39566  20.277  22.577  12.095
74582W        W39567  30.624  20.225   2.329
74583W        W39568  26.902  33.698   0.830
74584W        W39569  33.510   1.421  13.235
74585W        W39570   2.341  28.587   0.422
74586W        W39571   2.742   1.036   4.865
74587W        W39572  10.739  24.144  12.823
74588W        W39573   7.292   8.257  14.828
74589W        W39574  20.720   0.741   4.798
74590W        W39575  15.203   3.865   3.126
74591W        W39576  30.768  25.286  12.958
74592W        W39577  31.968  35.879  13.494
74593W        W39578  38.484  13.306  10.419
74594W        W39579   0.059  30.987   3.407
74595W        W39580  13.149  10.437  10.380
74596W        W39581  20.646   8.382   1.904
74597W        W39582  39.808  20.934   0.558
74598W        W39583  10.746   0.585  10.653
74599W        W39584   7.337  11.937  13.518
74600W        W39585  42.249   9.389   4.453
74601W        W39586  15.363  29.255  14.931
74602W        W39587   0.894  21.253   4.099
74603W        W39588  23.634  32.622   3.656
74604W        W39589  15.704  42.412  12.516
74605W        W39590  18.927  25.321   2.353
74606W        W39591  29.383  17.527   2.364
74607W        W39592   4.323  16.694  12.524
74608W        W39593  35.836   2.469  12.387
74609W        W39594  28.724  33.107   0.872
74610W        W39595  44.042  18.296  11.494
74611W        W39596  14.763  32.936   4.245
74612W        W39597  29.953  24.382  14.235
74613W        W39598  39.124  28.061   3.589
74614W        W39599  26.265  22.030  13.665
74615W        W39600  13.051  24.169   2.740
74616W        W39601  13.781  35.198   0.234
74617W        W39602  36.471  44.265   3.763
74618W        W39603  20.134  19.970  14.269
74619W        W39604  19.664  16.465   1.865
74620W        W39605   3.237   8.186  11.473
74621W        W39606   6.305  20.335  12.183
74622W        W39607  17.061  23.258   3.183
74623W        W39608  16.831  26.093  11.504
74624W        W39609  32.055  30.593   3.208
74625W        W39610  40.863  30.456   0.050
74626W        W39611  21.751  38.658  11.700
74627W        W39612  24.549  44.243   2.803
74628W        W39613  24.047   1.280  11.256
74629W        W39614   1.240  19.757  12.472
74630W        W39615   1.075  34.628  13.029
74631W        W39616   1.389  23.175   0.806
74632W        W39617   1.679   6.414   4.110
74633W        W39618  44.393  16.021  14.977
74634W        W39619  34.618  20.920   4.082
74635W        W39620   5.616  17.446   2.942
74636W        W39621  44.556  24.136   9.877
74637W        W39622  14.385  17.391  12.948
74638W        W39623  38.857  16.243  12.456
74639W        W39624  22.816  24.633   1.131
74640W        W39625   5.785   3.197   1.831
74641W        W39626  28.870   7.617   0.993
74642W        W39627  32.032  14.914  12.391
74643W        W39628   1.239  18.552   3.619
74644W        W39629  12.699  27.714  14.777
74645W        W39630  22.589  29.380   3.263
74646W        W39631  24.726  15.006  11.854
74647W        W39632   9.869   9.367   0.329
74648W        W39633   4.686  19.678   0.364
74649W        W39634   0.902   6.873   4.165
74650W        W39635  38.476  39.220  11.580
74651W        W39636  37.054  35.597   2.862
74652W        W39637  22.213   4.451  10.420
74653W        W39638  24.307  44.476  11.360
74654W        W39639   0.571  16.640   4.260
74655W        W39640  41.329  40.804  12.496
74656W        W39641  38.464   3.201  13.928
74657W        W39642   6.617  36.392  11.189
74658W        W39643  41.070  30.386   2.827
74659W        W39644  39.019  12.190  12.962
74660W        W39645  33.860  16.736   0.346
74661W        W39646  24.688  34.090   1.215
74662W        W39647  14.591  27.533  13.897
74663W        W39648  38.992  11.341   1.058
74664W        W39649  18.894  25.565   3.168
74665W        W39650  34.666  13.477   3.430
74666W        W39651   7.857   7.688  11.907
74667W        W39652   1.732  10.402  12.149
74668W        W39653  14.226  20.993   1.871
74669W        W39654   2.273  11.571   3.251
74670W        W39655  26.603  30.335  12.425
74671W        W39656  35.307   1.311   3.588
74672W        W39657  28.041  27.150  10.840
74673W        W39658  20.981   4.955   1.802
74674W        W39659  24.954  37.824  11.198
74675W        W39660   3.780  17.535   0.387
74676W        W39661   0.771  43.609   2.786
74677W        W39662  13.312  20.278   1.145
74678W        W39663  43.657  26.994   1.176
74679W        W39664  20.745  38.596   0.306
74680W        W39665  10.337  19.534   2.713
74681W        W39666   6.422  21.159  13.449
74682W        W39667   0.296  39.834   4.045
74683W        W39668  23.030  16.067  13.826
74684W        W39669  23.987  14.013   2.176
74685W        W39670  43.043  26.095  13.209
74686W        W39671  39.500   6.869   1.190
74687W        W39672  24.469  26.987   1.867
74688W        W39673  22.980  23.708  12.510
74689W        W39674  37.928  23.030  11.385
74690W        W39675  11.286   8.178   3.050
74691W        W39676  25.940   3.937  11.900
74692W        W39677   4.716  30.876   0.812
74693W        W39678  11.184   2.932  12.872
74694W        W39679  31.097  16.076   3.698
74695W        W39680  19.627  23.612   2.794
74696W        W39681  34.111  23.296   4.465
74697W        W39682  23.537  33.407  12.540
74698W        W39683   7.786  21.037   3.696
74699W        W39684  41.817  10.640   0.407
74700W        W39685  44.902  17.327  13.330
74701W        W39686  43.552  10.151  12.986
74702W        W39687  43.973  15.640   1.084
74703W        W39688  28.946  21.433   3.231
74704W        W39689  44.666  28.701  12.557
74705W        W39690  30.939  35.576   3.746
74706W        W39691   2.738  30.108  11.090
74707W        W39692  42.226  16.111   3.148
74708W        W39693  30.843  27.923   4.551
74709W        W39694  43.431   2.458   4.740
74710W        W39695  44.870   2.437  11.525
74711W        W39696   7.362   7.137   1.996
74712W        W39697  27.043   9.201  10.680
74713W        W39698  10.250  36.903  11.653
74714W        W39699   1.661  31.097  12.139
74715W        W39700   2.127   2.218   1.982
74716W        W39701  38.941  42.343   3.453
74717W        W39702  28.821  16.293   1.365
74718W        W39703  27.446  27.295  14.389
74719W        W39704   1.119  23.974  10.553
74720W        W39705  27.679  35.328   1.262
74721W        W39706  18.253  43.482   2.960
74722W        W39707  40.334   1.983  10.017
74723W        W39708  37.380   8.668   3.730
74724W        W39709  34.066  35.580   1.904
74725W        W39710  36.608   0.879   0.413
74726W        W39711   0.678  39.120  10.293
74727W        W39712   8.412  10.609   2.793
74728W        W39713  35.841   0.868  13.925
74729W        W39714  34.529  12.187   2.648
74730W        W39715  36.484  31.110   1.285
74731W        W39716  39.993  41.923  11.060
74732W        W39717  36.420  30.357  12.439
74733W        W39718   8.850   4.218  14.945
74734W        W39719  34.038  39.096   0.042
74735W        W39720  10.112  15.339   4.649
74736W        W39721   4.823  26.149   1.481
74737W        W39722  44.909  23.737   1.194
74738W        W39723   5.953  22.818  12.424
74739W        W39724  33.317   4.292   3.073
74740W        W39725  18.199  12.705  13.319
74741W        W39726   7.452  31.516  13.503
74742W        W39727   7.674  18.267  13.431
74743W        W39728  33.169  19.669  13.844
74744W        W39729  28.527  34.108   3.979
74745W        W39730   7.464  37.100   4.835
74746W        W39731  28.101  41.223   2.044
74747W        W39732  25.120  10.754  13.196
74748W        W39733  44.275  12.821  14.825
74749W        W39734  12.271  32.523  10.763
74750W        W39735   7.742  31.037  12.436
74751W        W39736  12.227   6.930   0.945
74752W        W39737  43.579  23.306   2.750
74753W        W39738  31.664  28.707  13.858
74754W        W39739   5.491  39.439  12.098
74755W        W39740  42.068  23.431   0.420
74756W        W39741  31.421  23.679  11.335
74757W        W39742   2.422   5.897  14.558
74758W        W39743  40.119  24.453   2.457
74759W        W39744  21.819  30.374   4.634
74760W        W39745   0.137  33.981   2.789
74761W        W39746  26.923  29.036  12.766
74762W        W39747  16.669  23.673   4.899
74763W        W39748  23.287   7.629  12.540
74764W        W39749  37.579  40.053   2.854
74765W        W39750  37.376  28.624  12.017
74766W        W39751   1.961  38.902  10.742
74767W        W39752   0.716  12.270  11.148
74768W        W39753  27.554  36.701   0.040
74769W        W39754  44.728   0.854  11.068
74770W        W39755  43.508  43.765   3.189
74771W        W39756  16.267  43.254   1.733
74772W        W39757   7.852  10.059   3.246
74773W        W39758   5.898  13.305  12.670
74774W        W39759  30.289  43.830   0.755
74775W        W39760   0.275  11.720   1.778
74776W        W39761  38.010  18.082   3.694
74777W        W39762  33.002  40.029   2.391
74778W        W39763  23.569  16.606  13.440
74779W        W39764   9.501   3.812  13.392
74780W        W39765  41.471  43.984   4.825
74781W        W39766   5.465  23.103  11.078
74782W        W39767  39.462  29.915   3.547
74783W        W39768  43.464  37.547   2.425
74784W        W39769   7.847  38.354  10.357
74785W        W39770  34.512  24.149  14.215
74786W        W39771   2.364  31.340   0.867
74787W        W39772   3.366  26.211  14.858
74788W        W39773  11.199  17.224   4.225
74789W        W39774  28.508  23.150  12.115
74790W        W39775  30.555  35.381   3.288
74791W        W39776   1.440  39.780  14.737
74792W        W39777  11.465   5.159   9.586
74793W        W39778   5.787  32.940  14.419
74794W        W39779   9.257  14.315   3.010
74795W        W39780  14.051  41.883   2.737
74796W        W39781  32.965  37.366  13.054
74797W        W39782  20.028  33.644   0.394
74798W        W39783   1.423  36.960  14.783
74799W        W39784  23.477  22.937   0.689
74800W        W39785   7.239  36.503   1.234
74801W        W39786   5.117  26.493  11.938
74802W        W39787  22.980   8.087  12.563
74803W        W39788   4.388   2.475   4.695
74804W        W39789  37.195   7.697   2.788
74805W        W39790  14.203  11.921  12.938
74806W        W39791  20.019  27.892   2.001
74807W        W39792  34.795  15.879   2.779
74808W        W39793  35.617   4.438   4.302
74809W        W39794  40.999  18.707  10.664
74810W        W39795  44.826  29.838  12.009
74811W        W39796   4.362  23.085   2.755
74812W        W39797  10.573   6.341  13.085
74813W        W39798  32.362  32.475   1.777
74814W        W39799  11.843   1.723  13.938
74815W        W39800   8.321  32.769   3.743
74816W        W39801  13.066  21.256   1.239
74817W        W39802  15.721  32.633   1.234
74818W        W39803   5.683   3.145   1.221
74819W        W39804  34.650  15.198   4.904
74820W        W39805  20.563  21.620  10.222
74821W        W39806  22.569  14.297  13.706
74822W        W39807  31.234  36.703   1.767
74823W        W39808  15.288   2.354   4.401
74824W        W39809  17.293   0.058  11.510
74825W        W39810  24.055   5.822   4.575
74826W        W39811  29.357  42.263   0.997
74827W        W39812  42.266  41.309   3.857
74828W        W39813  24.231  24.031   0.064
74829W        W39814  28.481  31.640   3.410
74830W        W39815  32.481  40.189  14.644
74831W        W39816   3.509   4.478   2.311
74832W        W39817  43.538  18.357   3.256
74833W        W39818  19.255   8.311   0.491
74834W        W39819  37.959   0.997   0.301
74835W        W39820  31.560  16.404   0.642
74836W        W39821  41.315  31.795  11.951
74837W        W39822  25.664  32.474  11.232
74838W        W39823  19.204  16.214  14.994
74839W        W39824  31.638   1.972   4.139
74840W        W39825  17.317  18.022   1.817
74841W        W39826  40.731   0.827   0.405
74842W        W39827  25.048  26.605   4.232
74843W        W39828   7.096  28.715   1.169
74844W        W39829  13.207  14.717  11.932
74845W        W39830  27.725  44.544   0.447
74846W        W39831   3.807  11.541   4.221
74847W        W39832   4.232  12.217  10.454
74848W        W39833  19.446  35.044   2.659
74849W        W39834   8.626  18.623  13.425
74850W        W39835  27.580  40.765  14.791
74851W        W39836  20.205  18.488  11.187
74852W        W39837  17.291   6.294  14.412
74853W        W39838   3.843  34.315  13.243
74854W        W39839  14.447  18.650  12.340
74855W        W39840  20.278  29.988   2.683
74856W        W39841  14.071   0.072   4.040
74857W        W39842  10.703  20.688   3.181
74858W        W39843   3.005  16.624   3.245
74859W        W39844  18.324  11.287   0.181
74860W        W39845  29.575  11.902  12.020
74861W        W39846  31.911  43.765  10.146
74862W        W39847  41.302  26.551   3.327
74863W        W39848  21.591  44.438  14.428
74864W        W39849  33.603  12.098  11.539
74865W        W39850   5.420  27.831  11.247
74866W        W39851  21.497  42.513  11.551
74867W        W39852   4.368  21.826  12.990
74868W        W39853  23.748  15.815   1.023
74869W        W39854  23.499  17.785   0.401
74870W        W39855  41.485  10.574   4.526
74871W        W39856  28.258  23.881  13.057
74872W        W39857  17.237  18.662  11.543
74873W        W39858  20.283  17.730  11.558
74874W        W39859  39.911  40.735   0.240
74875W        W39860  18.607  44.775  13.358
74876W        W39861  13.066  31.616  10.350
74877W        W39862   9.369   5.464   3.388
74878W        W39863  28.143  23.525   2.356
74879W        W39864  32.831  17.614  12.494
74880W        W39865   2.218  12.902  14.487
74881W        W39866  44.027   1.749  10.747
74882W        W39867  44.230   0.489   3.307
74883W        W39868  32.496  11.166   2.635
74884W        W39869  31.558  15.857  11.468
74885W        W39870  28.690  38.836  13.841
74886W        W39871  40.444  25.155  13.439
74887W        W39872  36.848  12.595   2.855
74888W        W39873  34.549  13.868   0.669
74889W        W39874  42.738   9.563   0.409
74890W        W39875  36.094  11.270   1.553
74891W        W39876  20.204  15.187  11.742
74892W        W39877  43.792  40.810   2.196
74893W        W39878  35.019  10.174   2.698
74894W        W39879  28.978   4.188  13.035
74895W        W39880  41.741   5.271  10.441
74896W        W39881  32.526  39.412   3.439
74897W        W39882  14.640   3.504   3.693
74898W        W39883  22.289   5.797  14.822
74899W        W39884  35.065  40.814  11.622
74900W        W39885  37.533   2.776   3.161
74901W        W39886  18.233  21.717  12.065
74902W        W39887  35.535  15.634  12.352
74903W        W39888  44.590  32.882  12.497
74904W        W39889  41.391   5.658  13.920
74905W        W39890   7.389  34.909   1.392
74906W        W39891  22.077   1.183   4.440
74907W        W39892   0.665   1.334   1.949
74908W        W39893  32.587   7.116   4.445
74909W        W39894  36.549  38.925   4.553
74910W        W39895  27.934  33.906  13.792
74911W        W39896   4.664  11.789  14.446
74912W        W39897   5.777  28.241   2.861
74913W        W39898  34.920   7.682  11.902
74914W        W39899  12.886  11.075   4.171
74915W        W39900  35.320   6.003  14.433
74916W        W39901  35.419   9.859   1.842
74917W        W39902   9.285   6.459   3.686
74918W        W39903   8.801  34.075   2.468
74919W        W39904   4.420  28.917  11.517
74920W        W39905  33.643  17.054  12.545
74921W        W39906   2.305  13.346  14.196
74922W        W39907  30.098  28.081   1.674
74923W        W39908  14.168  31.116  10.564
74924W        W39909   1.751  22.428  12.010
74925W        W39910  28.276   3.704  11.645
74926W        W39911  26.403  22.618   1.815
74927W        W39912  42.060   8.785   0.845
74928W        W39913  30.550  39.937  14.470
74929W        W39914   4.898  18.271   2.792
74930W        W39915  43.884  38.940   1.594
74931W        W39916  10.686  34.278  12.926
74932W        W39917  15.151   5.862  14.932
74933W        W39918   4.294  16.984  13.394
74934W        W39919  15.137   3.321   3.833
74935W        W39920  16.381  25.294  13.084
74936W        W39921   6.540  28.984  12.061
74937W        W39922  35.604  39.870   2.655
74938W        W39923  18.000  27.229   4.132
74939W        W39924  34.540  34.970   1.453
74940W        W39925  20.064  34.912  12.979
74941W        W39926   1.957  27.380   4.227
74942W        W39927  19.691  24.590  12.895
74943W        W39928  41.515  11.852  11.143
74944W        W39929  13.089   1.839  12.589
74945W        W39930  20.668  38.353   4.536
74946W        W39931  29.118  15.778  10.229
74947W        W39932  12.188   5.969  13.490
74948W        W39933  15.959   9.807  11.193
74949W        W39934  13.549  39.023   2.875
74950W        W39935  40.258  15.592   1.513
74951W        W39936  43.547  28.168  12.024
74952W        W39937  14.433   5.201  14.638
74953W        W39938  43.925  34.569  14.000
74954W        W39939   9.938  32.195   4.639
74955W        W39940  14.319  24.704  13.769
74956W        W39941  23.604  13.207   0.730
74957W        W39942  30.476  35.118   3.754
74958W        W39943  17.383  22.084  13.553
74959W        W39944  42.808   2.288  11.469
74960W        W39945   0.403  14.673  14.074
74961W        W39946  18.045  33.923  14.878
74962W        W39947  26.609  38.897   2.287
74963W        W39948  26.398  12.339  14.352
74964W        W39949  20.542  39.965  10.949
74965W        W39950  29.311   3.148   1.727
74966W        W39951  22.231  42.205   3.204
74967W        W39952   9.030  20.336   1.169
74968W        W39953  40.863  41.688  11.976
74969W        W39954  41.761  24.535   4.412
74970W        W39955  31.385  34.572   2.875
74971W        W39956  38.612  10.853  13.087
74972W        W39957   1.789  20.547  14.805
74973W        W39958   7.351   3.867   4.907
74974W        W39959  21.036   9.773   3.212
74975W        W39960  39.848   1.821  10.838
74976W        W39961  16.341  37.422  12.406
74977W        W39962  16.437  28.859   4.490
74978W        W39963   3.720  31.138   3.173
74979W        W39964  43.779   0.493  14.363
74980W        W39965  33.379  20.593  11.714
74981W        W39966   4.761  43.518   0.962
74982W        W39967  41.828  34.875  14.784
74983W        W39968  26.515  18.319  11.603
74984W        W39969  40.660  26.229  14.902
74985W        W39970  37.114   5.167   0.431
74986W        W39971   4.656  31.720  13.960
74987W        W39972   8.865  41.424  14.243
74988W        W39973  23.196   7.607   2.803
74989W        W39974  29.059   3.939   3.158
74990W        W39975   9.164  23.611   4.733
74991W        W39976  12.730  19.580  10.726
74992W        W39977  30.013  30.779   4.791
74993W        W39978   5.364   6.205  12.408
74994W        W39979  29.188  19.032   0.307
74995W        W39980   4.958  27.986  13.796
74996W        W39981  11.443   9.805  14.940
74997W        W39982  18.090  36.820   0.851
74998W        W39983  33.344  43.933   4.027
74999W        W39984   9.688  14.626   3.042
75000W        W39985  30.184  21.994   2.799
75001W        W39986  21.787  38.818  13.012
75002W        W39987  43.398  42.538   3.832
75003W        W39988   0.398  15.294   3.606
75004W        W39989   1.772   7.967   3.232
75005W        W39990  14.713  37.793   4.055
75006W        W39991  34.605  33.387  11.528
75007W        W39992  32.093  36.997  13.711
75008W        W39993   5.283  28.155  12.480
75009W        W39994  15.542  29.938   0.965
75010W        W39995  27.149   7.394  14.002
75011W        W39996  17.837  13.666  12.041
75012W        W39997  28.705  10.288   0.205
75013W        W39998  39.938   3.614   0.786
75014W        W39999  34.427  43.755  13.415
75015W        W40000  10.666  31.572   2.298
75016W        W40001  41.015  25.192   3.035
75017W        W40002  39.688  36.747  13.408
75018W        W40003  40.322  42.090   3.279
75019W        W40004  17.534   0.339  11.098
75020W        W40005  26.741  15.167   4.833
75021W        W40006  11.136  24.734   2.335
75022W        W40007  33.662  35.455  11.500
75023W        W40008  44.276  44.175  14.518
75024W        W40009  20.644   8.887  13.795
75025W        W40010  24.319  31.120  13.934
75026W        W40011  15.007  14.810   0.973
75027W        W40012   5.690   0.798  10.772
75028W        W40013  41.341  32.389  11.292
75029W        W40014  29.895  26.682   3.688
75030W        W40015  15.574  29.393   2.640
75031W        W40016  35.860  39.608   1.310
75032W        W40017   4.236  13.160  10.498
75033W        W40018   8.682  27.177   0.806
75034W        W40019  21.540  43.942   3.242
75035W        W40020  34.003  32.070  14.754
75036W        W40021  12.641   5.921  12.220
75037W        W40022  43.628  15.534   4.579
75038W        W40023   0.062   7.967  14.843
75039W        W40024   0.582  32.567   1.886
75040W        W40025   5.291  39.467   2.994
75041W        W40026   6.069   8.719   1.045
75042W        W40027  25.598  11.309   2.288
75043W        W40028  18.864   0.736  11.290
75044W        W40029  24.554  15.311  11.485
75045W        W40030   5.285  16.889  10.797
75046W        W40031  17.934  20.346  13.466
75047W        W40032  29.124   5.206  14.466
75048W        W40033  34.350  17.085   3.724
75049W        W40034  41.355  35.918  12.947
75050W        W40035  43.437  29.427  11.440
75051W        W40036  27.385  23.625  14.751
75052W        W40037   5.940  32.076   0.539
75053W        W40038   2.514  43.510   1.190
75054W        W40039  44.264   3.218  12.202
75055W        W40040  17.254  17.771  14.880
75056W        W40041   8.332  41.069  13.333
75057W        W40042  22.582  44.862   3.573
75058W        W40043  37.048  41.013   3.677
75059W        W40044  14.319   3.485  11.738
75060W        W40045   3.970   1.742   0.840
75061W        W40046  10.319  12.338   1.326
75062W        W40047  39.424  11.740  13.389
75063W        W40048  39.886  27.451  14.968
75064W        W40049  29.940  18.811  10.372
75065W        W40050  17.837  24.491  12.024
75066W        W40051  32.852  42.529   1.452
75067W        W40052  32.398  10.752  14.875
75068W        W40053  34.630  20.572  10.679
75069W        W40054  19.743  10.748   1.016
75070W        W40055  13.265  15.925   4.111
75071W        W40056   7.107  42.386   3.705
75072W        W40057  27.951  42.977   3.230
75073W        W40058  31.509   2.675   2.017
75074W        W40059  41.358   5.101   3.691
75075W        W40060   1.762   0.865  13.396
75076W        W40061  29.572   2.045  14.972
75077W        W40062  32.341   9.723  14.408
75078W        W40063  31.184  21.698   1.866
75079W        W40064  30.637   3.843   4.120
75080W        W40065   5.478  32.940   4.841
75081W        W40066  24.139  22.810  13.836
75082W        W40067  41.047  38.850   3.988
75083W        W40068  32.561  27.540   5.095
75084W        W40069  39.923   9.149   3.738
75085W        W40070  23.320  15.015  12.003
75086W        W40071  24.977  41.567   2.963
75087W        W40072  13.802  44.491  11.920
75088W        W40073  36.320  29.153  11.704
75089W        W40074   6.358  27.521   3.515
75090W        W40075  11.464  35.039   3.614
75091W        W40076   7.120  28.012  14.766
75092W        W40077  38.893  34.398   4.839
75093W        W40078  35.006  32.910  14.485
75094W        W40079  20.074   4.922  14.815
75095W        W40080  38.074  29.716  11.111
75096W        W40081  44.691  40.486   4.800
75097W        W40082  22.037  17.699   1.757
75098W        W40083  28.924  30.636  14.780
75099W        W40084  38.540  11.857   2.615
75100W        W40085  23.883  21.229   1.646
75101W        W40086   6.998  24.485   4.083
75102W        W40087  14.382  13.669  11.643
75103W        W40088  37.972   8.191   3.259
75104W        W40089  41.859  24.448   0.181
75105W        W40090  23.688  37.053  14.901
75106W        W40091  27.017   7.995   1.445
75107W        W40092  15.062  36.074  10.884
75108W        W40093  41.627   4.267   1.985
75109W        W40094   1.819   1.357   1.232
75110W        W40095   5.971   4.293   2.816
75111W        W40096   2.135  23.022   2.357
75112W        W40097  36.330   0.834  12.601
75113W        W40098   9.816  24.290  10.700
75114W        W40099  28.188  21.496  14.787
75115W        W40100  32.937  26.585   3.363
75116W        W40101   1.038  31.602  14.753
75117W        W40102  21.739   6.927   2.148
75118W        W40103  41.855  16.657  12.631
75119W        W40104  32.573  21.857   2.758
75120W        W40105  44.207  15.207   5.508
75121W        W40106  13.460  25.978  12.432
75122W        W40107  14.621  24.636  12.570
75123W        W40108  30.873  42.842   4.950
75124W        W40109  30.767  33.540   2.065
75125W        W40110  31.717  34.184   0.381
75126W        W40111  15.381  34.472  12.583
75127W        W40112   8.301   3.560  13.698
75128W        W40113  21.621   4.296   1.760
75129W        W40114  11.335  44.858   4.612
75130W        W40115  25.762  19.499   3.789
75131W        W40116  44.094  23.131   4.709
75132W        W40117  20.673   7.002  11.576
75133W        W40118  37.256   7.638  13.092
75134W        W40119  18.729  11.729   1.780
75135W        W40120  27.323  42.994  13.314
75136W        W40121   0.487  42.285   0.489
75137W        W40122  31.242  13.582  14.544
75138W        W40123   0.351  27.795   4.751
75139W        W40124  36.845  21.721   0.949
75140W        W40125   2.954   0.366  13.060
75141W        W40126   7.399  42.903  13.287
75142W        W40127  16.611  12.418   0.519
75143W        W40128  19.867   7.338   1.472
75144W        W40129  25.500  23.022   1.722
75145W        W40130   8.305  34.714  13.358
75146W        W40131  37.494   9.460  11.751
75147W        W40132   1.782  44.946  11.435
75148W        W40133   2.485  26.103  13.505
75149W        W40134  11.273   9.375   2.707
75150W        W40135   4.233  30.140   4.572
75151W        W40136  43.046  36.542   1.229
75152W        W40137   4.520   3.052   2.938
75153W        W40138  41.707  28.570   3.631
75154W        W40139  15.017  40.779  12.777
75155W        W40140  42.408  12.642  13.539
75156W        W40141   2.328  34.389  13.757
75157W        W40142  16.221  41.986   3.309
75158W        W40143   0.964  15.256  12.593
75159W        W40144  37.403   3.179   1.870
75160W        W40145   8.630  16.753  10.698
75161W        W40146  16.159  14.812   0.419
75162W        W40147  15.334   0.272   0.289
75163W        W40148  22.059  11.440   4.051
75164W        W40149   2.050  30.602   4.124
75165W        W40150  42.909   1.290  11.710
75166W        W40151  20.019  12.958  11.434
75167W        W40152   4.005  32.370   0.245
75168W        W40153  40.795  29.941   1.315
75169W        W40154  43.842  18.531  14.497
75170W        W40155  31.491   4.829  13.101
75171W        W40156  29.492  21.235   5.001
75172W        W40157   2.787  37.362  12.475
75173W        W40158  12.223  44.381  12.989
75174W        W40159   4.357  44.211  11.168
75175W        W40160   2.482  15.427   0.816
75176W        W40161  22.692   6.405   3.752
75177W        W40162  36.389  33.106  11.501
75178W        W40163  18.228   5.685   1.943
75179W        W40164  20.860  29.252  10.161
75180W        W40165  30.814  40.270   3.386
75181W        W40166  33.121   7.769   0.480
75182W        W40167  34.395  34.099  12.552
75183W        W40168  38.933  13.825   3.810
75184W        W40169   2.497  40.994  12.401
75185W        W40170  26.655  43.347   1.419
75186W        W40171  26.590  13.861   1.406
75187W        W40172  42.261  12.085  10.601
75188W        W40173  12.148  13.743   0.958
75189W        W40174  19.715  23.502   0.829
75190W        W40175  15.507  28.204  13.611
75191W        W40176  31.477  30.764  10.689
75192W        W40177  20.874  31.594   1.551
75193W        W40178   1.879   6.297  11.970
75194W        W40179  28.127  18.477   4.249
75195W        W40180  28.007  27.001   4.499
75196W        W40181  33.865  28.738  14.340
75197W        W40182   9.463  26.024   2.243
75198W        W40183  31.810  27.874   4.142
75199W        W40184  13.272  25.928   3.393
75200W        W40185  28.899   4.849   1.830
75201W        W40186  36.058  24.694   1.445
75202W        W40187   6.822  35.465  11.398
75203W        W40188  42.431   7.214  12.146
75204W        W40189  12.077   9.349   3.553
75205W        W40190  26.510  18.526   4.093
75206W        W40191  44.724   4.186   1.191
75207W        W40192  11.047  33.577  12.092
75208W        W40193  37.998  20.678  12.094
75209W        W40194  17.318  10.639   1.607
75210W        W40195  17.482   1.813   4.730
75211W        W40196  32.679  15.144   2.344
75212W        W40197  31.030  17.268  10.650
75213W        W40198  44.049  35.716  13.792
75214W        W40199  44.022   0.267   2.754
75215W        W40200   2.735  18.964   2.815
75216W        W40201  30.587  11.605   0.784
75217W        W40202  28.725  40.025  13.283
75218W        W40203   6.923  14.679   0.249
75219W        W40204  25.841  44.750  13.082
75220W        W40205  37.409  19.251   4.366
75221W        W40206   0.845  16.943  14.084
75222W        W40207  21.507   1.232  11.062
75223W        W40208  28.131  15.312  10.035
75224W        W40209  18.186  10.953   1.733
75225W        W40210   5.035  16.968  12.020
75226W        W40211  28.181  15.308   2.477
75227W        W40212   5.911  17.306  11.555
75228W        W40213  14.786  10.834   3.583
75229W        W40214   6.737  10.145  13.377
75230W        W40215  10.076  36.077   1.786
75231W        W40216  44.156  36.814  13.620
75232W        W40217   9.307  18.298   0.176
75233W        W40218   5.278  39.363   1.967
75234W        W40219  24.517   9.130  12.884
75235W        W40220  42.777  30.674   3.580
75236W        W40221  34.602  17.833   4.577
75237W        W40222  39.006   0.955  14.215
75238W        W40223  42.807   0.480   3.327
75239W        W40224  11.754  29.444  12.109
75240W        W40225  36.032  24.729  11.127
75241W        W40226  25.614   7.475  10.096
75242W        W40227   1.486  44.098   1.453
75243W        W40228  12.837   7.438   2.096
75244W        W40229  23.444  10.938  12.891
75245W        W40230  43.292  24.069  13.411
75246W        W40231  31.345   3.336   1.349
75247W        W40232  14.708  22.827   1.185
75248W        W40233   0.029  32.039   4.022
75249W        W40234  25.329  25.579  13.569
75250W        W40235  31.962  13.189  12.642
75251W        W40236  36.763  24.510   4.999
75252W        W40237  30.579  37.882  13.277
75253W        W40238  19.666  37.957  10.497
75254W        W40239  43.983  33.509   0.891
75255W        W40240   0.263  17.976   4.180
75256W        W40241  22.723  14.504   3.766
75257W        W40242  21.959  30.086  14.645
75258W        W40243  27.389  44.851  12.507
75259W        W40244   1.585  21.535   3.050
75260W        W40245   9.313   7.595   0.502
75261W        W40246  31.631  23.634   3.011
75262W        W40247  30.857   3.324   5.084
75263W        W40248  16.107  12.317   0.389
75264W        W40249  26.485  11.074   0.409
75265W        W40250  24.019  41.344   1.522
75266W        W40251  19.159  15.794   0.293
75267W        W40252  34.550  40.974   4.022
75268W        W40253   6.195  40.194   2.480
75269W        W40254  16.265  20.472   0.805
75270W        W40255  32.889  41.420   3.777
75271W        W40256  38.014  13.595   0.099
75272W        W40257  33.391   1.141   0.507
75273W        W40258  35.847  23.486  13.889
75274W        W40259  41.957   9.260   1.606
75275W        W40260  26.705  22.096  13.402
75276W        W40261  25.422   8.830   1.868
75277W        W40262  37.194  12.312   0.754
75278W        W40263  24.663  40.075   3.716
75279W        W40264   4.668  10.771  13.457
75280W        W40265  41.436   4.943  10.718
75281W        W40266   9.227   7.434  14.585
75282W        W40267   1.127   2.316  11.115
75283W        W40268   5.998  25.016  14.140
75284W        W40269   5.389  40.712  14.125
75285W        W40270  25.221  25.893  11.624
75286W        W40271  32.625  18.456  14.918
75287W        W40272  10.172  29.400   1.632
75288W        W40273   6.555  16.052  11.973
75289W        W40274  17.263  23.117  14.209
75290W        W40275  17.250  17.655   2.627
75291W        W40276   6.272   1.546   0.928
75292W        W40277  22.105  20.955   4.813
75293W        W40278  26.695   9.323   1.984
75294W        W40279   6.516  13.715   2.235
75295W        W40280   0.272  33.473   2.831
75296W        W40281  42.349  13.158   0.834
75297W        W40282  35.981  29.128   3.959
75298W        W40283  15.803   4.300  13.973
75299W        W40284  28.189  20.357   2.613
75300W        W40285  24.282   3.282   2.391
75301W        W40286  12.963  17.447   2.262
75302W        W40287   1.203  35.427   3.362
75303W        W40288  29.564  15.652   2.168
75304W        W40289  22.902  30.079  14.280
75305W        W40290  12.803  26.474   3.200
75306W        W40291   8.646  32.575   4.542
75307W        W40292  25.531   4.145  11.520
75308W        W40293   7.295  27.234  12.563
75309W        W40294  29.677  26.126  14.366
75310W        W40295  17.648  25.999   3.041
75311W        W40296  11.875  22.219  14.359
75312W        W40297  42.336  31.014  12.834
75313W        W40298  41.602  31.881   2.075
75314W        W40299  10.405  31.930   3.728
75315W        W40300  10.199  19.259  10.544
75316W        W40301  37.617  44.505   4.391
75317W        W40302  17.169  25.578   2.230
75318W        W40303  39.869  37.763   0.297
75319W        W40304   8.797  19.882  13.428
75320W        W40305   5.306   2.217  11.134
75321W        W40306   9.756  36.582   3.789
75322W        W40307  37.490  20.061   0.330
75323W        W40308  25.796  18.814  11.037
75324W        W40309  33.183  16.812   0.806
75325W        W40310  32.038  15.791  11.604
75326W        W40311  40.099  26.144  13.424
75327W        W40312  23.739  41.501   4.588
75328W        W40313  37.530  23.251   1.138
75329W        W40314   4.284  43.047   3.697
75330W        W40315  25.034  41.426   2.448
75331W        W40316  37.351   4.177  12.080
75332W        W40317  25.287  23.554  11.594
75333W        W40318  41.112  27.360   2.732
75334W        W40319   4.944  33.680   4.521
75335W        W40320  26.903  40.611   3.440
75336W        W40321  29.602  19.174  12.914
75337W        W40322   8.380   6.733   2.681
75338W        W40323   8.770  31.876  14.492
75339W        W40324  21.122  15.292  11.385
75340W        W40325  35.637   3.237  11.598
75341W        W40326  29.115  23.683  11.158
75342W        W40327  36.491  36.574   4.596
75343W        W40328  39.655   6.803  14.835
75344W        W40329  38.958  37.847  13.490
75345W        W40330  23.199  13.655   1.793
75346W        W40331  29.313  13.172   4.906
75347W        W40332   1.063   2.927   3.217
75348W        W40333  33.686  19.015  10.346
75349W        W40334  22.010  15.500  13.419
75350W        W40335   4.044   9.639   3.665
75351W        W40336  18.874  14.091   1.853
75352W        W40337   3.337   1.607   0.365
75353W        W40338  13.113  18.029  13.989
75354W        W40339   6.585  19.296  10.617
75355W        W40340  14.657  22.197   4.817
75356W        W40341  29.748  32.286   0.151
75357W        W40342  23.663  28.245   3.162
75358W        W40343  18.335  22.044   1.821
75359W        W40344   7.732  31.403   4.648
75360W        W40345  20.164  19.397  11.161
75361W        W40346  11.375  25.215   0.299
75362W        W40347  29.637  28.301   1.829
75363W        W40348   1.349   6.281   4.671
75364W        W40349  31.362  18.117   1.165
75365W        W40350  19.035  18.609  13.311
75366W        W40351  34.687  38.030  12.869
75367W        W40352  17.881  36.682   2.153
75368W        W40353  41.873  16.363   0.632
75369W        W40354  33.334  28.487   3.704
75370W        W40355  13.944  32.006  11.970
75371W        W40356  44.069  20.975  10.912
75372W        W40357   1.583  22.177   3.740
75373W        W40358  13.114   1.872  11.038
75374W        W40359  13.993   9.478  10.713
75375W        W40360  14.649  38.130  11.583
75376W        W40361   4.944  11.381   4.767
75377W        W40362  12.972  33.854  14.555
75378W        W40363   6.789  22.612   0.916
75379W        W40364  33.556  14.210   4.294
75380W        W40365  39.303  33.468   0.532
75381W        W40366   4.605   7.692  11.824
75382W        W40367  12.853   5.223   4.475
75383W        W40368  10.452   5.679  11.576
75384W        W40369  27.218  11.108  10.679
75385W        W40370   0.363  29.493   1.445
75386W        W40371  39.583   6.783   4.538
75387W        W40372   2.273  44.521   4.234
75388W        W40373  29.461   7.267   2.700
75389W        W40374  44.036  17.623   3.886
75390W        W40375  33.644  29.399   4.062
75391W        W40376   2.896  26.192   4.823
75392W        W40377  17.183  16.078   1.060
75393W        W40378   6.481   0.907  13.940
75394W        W40379   7.807  42.982  11.610
75395W        W40380   2.276  30.869  12.936
75396W        W40381  20.161  20.167  11.860
75397W        W40382  21.576  31.106   1.060
75398W        W40383   6.160  12.835  14.516
75399W        W40384  41.296  27.071   3.559
75400W        W40385  37.438  18.137  11.047
75401W        W40386   4.785  26.475  11.134
75402W        W40387  33.005  13.524   1.155
75403W        W40388   2.294  18.906   4.902
75404W        W40389   3.773   4.866   9.795
75405W        W40390  41.552  34.051  11.606
75406W        W40391  27.814  29.099  14.363
75407W        W40392  32.186  13.442   0.503
75408W        W40393  23.683  39.873   0.303
75409W        W40394   8.089  13.617   0.763
75410W        W40395  17.204   6.952   2.665
75411W        W40396  12.039  34.976  10.404
75412W        W40397  20.222  23.474  12.073
75413W        W40398  29.195  34.437  10.503
75414W        W40399  17.770  19.985   4.103
75415W        W40400   6.266  13.161  11.632
75416W        W40401   2.287  17.056  11.405
75417W        W40402  42.598  38.889  13.783
75418W        W40403  28.525  34.587  11.069
75419W        W40404  42.520   3.409  12.942
75420W        W40405  27.029  10.030  14.693
75421W        W40406  39.378  19.523  11.988
75422W        W40407   1.090  37.385  12.404
75423W        W40408   5.558  29.929  14.945
75424W        W40409  16.756  21.941  14.868
75425W        W40410  42.599   7.420   1.345
75426W        W40411  40.857   8.744  11.633
75427W        W40412   5.226   8.063  14.068
75428W        W40413  21.971  32.603   2.587
75429W        W40414  36.021  29.795  12.582
75430W        W40415  22.253  32.892  11.115
75431W        W40416  17.048  19.026   2.366
75432W        W40417  26.990  38.809   4.519
75433W        W40418  41.744  34.006   3.205
75434W        W40419  14.459  32.221  12.663
75435W        W40420  44.293  18.321   0.436
75436W        W40421  33.019  14.395   2.714
75437W        W40422   7.932  24.456  14.337
75438W        W40423  21.567  20.150  12.779
75439W        W40424   4.434  20.636  11.586
75440W        W40425  29.681   8.205   1.852
75441W        W40426  21.863  28.409  12.935
75442W        W40427  42.538  11.337   1.400
75443W        W40428  38.502  41.404  10.404
75444W        W40429  19.136  34.211  12.382
75445W        W40430  42.425  16.235  11.170
75446W        W40431  36.364  30.375  11.311
75447W        W40432  38.704   8.617  10.366
75448W        W40433  42.442   3.171   2.371
75449W        W40434  28.639  22.624  14.853
75450W        W40435  40.200  37.798   3.872
75451W        W40436   7.100  15.144   3.813
75452W        W40437   1.708  23.608  11.158
75453W        W40438  30.594  36.615   0.469
75454W        W40439  19.960  10.218   2.888
75455W        W40440  14.083   0.740   5.001
75456W        W40441  31.643  35.832   2.608
75457W        W40442  24.816  28.508  14.828
75458W        W40443  31.512  44.522  13.552
75459W        W40444  10.438  19.321  14.314
75460W        W40445  13.667  19.524   4.325
75461W        W40446  16.106   7.932   1.276
75462W        W40447   1.248  14.393  12.121
75463W        W40448  23.305   5.772   3.267
75464W        W40449  30.193   8.364  12.107
75465W        W40450  32.061  28.667  13.136
75466W        W40451  31.908  11.679  10.933
75467W        W40452  43.707  41.469   3.586
75468W        W40453  41.844  36.744   2.756
75469W        W40454  26.713  40.133   1.767
75470W        W40455   1.336  37.008   3.222
75471W        W40456  39.345  44.907   2.338
75472W        W40457   3.412  40.478  14.799
75473W        W40458   6.829   3.098  10.640
75474W        W40459  21.045  11.674   0.858
75475W        W40460  30.614  39.664  10.428
75476W        W40461   4.118  39.715  13.065
75477W        W40462  29.638  37.566   0.484
75478W        W40463   0.723  20.302   1.182
75479W        W40464   9.211   1.469  13.094
75480W        W40465  21.285  16.749   2.326
75481W        W40466  10.399  32.992   1.247
75482W        W40467   4.133  41.691   0.275
75483W        W40468  13.133  39.366  10.735
75484W        W40469  26.517  21.274  13.512
75485W        W40470  16.271   8.542   2.753
75486W        W40471  44.092   8.102   4.976
75487W        W40472   5.678  43.358  14.069
75488W        W40473  19.284   1.763   0.395
75489W        W40474  11.256   0.045   2.668
75490W        W40475  12.444  26.488  11.547
75491W        W40476  19.326  43.732  11.163
75492W        W40477   8.410  17.309  14.937
75493W        W40478  28.410  44.872  11.607
75494W        W40479  37.914  14.297   1.644
75495W        W40480  11.194   7.609  10.727
75496W        W40481   0.855  42.903   3.283
75497W        W40482  21.642   1.981  11.926
75498W        W40483  17.109  30.022   0.678
75499W        W40484   1.953   8.629  12.025
75500W        W40485  42.046   8.116   2.953
75501W        W40486  23.589   1.970  14.780
75502W        W40487  20.564  28.369   4.516
75503W        W40488  22.644  17.671  13.968
75504W        W40489  38.360  20.469  10.653
75505W        W40490  39.365   3.243   1.887
75506W        W40491  12.611  16.623   4.746
75507W        W40492  11.659  42.201   0.909
75508W        W40493   7.662  10.254  14.000
75509W        W40494  13.607  40.904  11.924
75510W        W40495  26.712  27.123   3.749
75511W        W40496  39.980  35.365   0.733
75512W        W40497  41.759  32.779  13.411
75513W        W40498   0.490   0.796  12.962
75514W        W40499   6.588   5.327   2.222
75515W        W40500  28.584  29.983   2.680
75516W        W40501  20.465  16.313   4.008
75517W        W40502  31.534  19.142  13.503
75518W        W40503   1.057   2.850  10.597
75519W        W40504  29.249  20.996   3.236
75520W        W40505  20.194  40.491   3.610
75521W        W40506  14.652  35.595  14.436
75522W        W40507  20.490  31.060  11.482
75523W        W40508  30.930  24.369  11.690
75524W        W40509   9.143  11.895   4.582
75525W        W40510  18.717  11.926  13.756
75526W        W40511  19.289  23.290  12.995
75527W        W40512  35.862  14.243  13.529
75528W        W40513  13.397  11.790   3.154
75529W        W40514  24.452  16.619  13.918
75530W        W40515  23.455  41.291   0.874
75531W        W40516  30.788  39.069  10.000
75532W        W40517  32.483   3.277   2.159
75533W        W40518  27.110  19.751  12.507
75534W        W40519  34.138  25.862  10.641
75535W        W40520  39.016  24.632   2.963
75536W        W40521   4.441  35.473   4.785
75537W        W40522   0.339   3.495  10.759
75538W        W40523  18.182  44.921  14.834
75539W        W40524  34.139  32.369   2.489
75540W        W40525  40.459   0.010  14.572
75541W        W40526  25.481   5.396  13.330
75542W        W40527  13.073  17.101  12.122
75543W        W40528   7.845  17.722   3.325
75544W        W40529  15.401  44.713  12.553
75545W        W40530  42.730  33.232   2.771
75546W        W40531  21.176  13.162   0.007
75547W        W40532  35.522  28.492  13.909
75548W        W40533  38.562   2.837   0.778
75549W        W40534  44.315   2.776   3.769
75550W        W40535  22.805   4.118  14.888
75551W        W40536  31.657  35.170   4.160
75552W        W40537   0.439  21.579   0.001
75553W        W40538   4.452  22.120  12.415
75554W        W40539   8.631  44.302  14.522
75555W        W40540   9.584  24.105   0.905
75556W        W40541  38.693  35.395   4.488
75557W        W40542   8.979  22.188   0.456
75558W        W40543  34.445  11.356   2.277
75559W        W40544  23.570  37.554  14.940
75560W        W40545   6.203  41.278  12.997
75561W        W40546  26.753  11.323  12.893
75562W        W40547   5.898   5.673   0.474
75563W        W40548  30.323   5.301  13.637
75564W        W40549  12.554  24.083   3.663
75565W        W40550  26.122  42.736  11.049
75566W        W40551  39.390  12.607  12.053
75567W        W40552  43.370  17.855   3.208
75568W        W40553  29.415   1.598  10.256
75569W        W40554  34.647  25.059  14.283
75570W        W40555   3.229   4.282   1.842
75571W        W40556   3.666  19.187  12.821
75572W        W40557   4.821   0.740  14.387
75573W        W40558  30.030  14.660   0.752
75574W        W40559  14.202  38.627  14.294
75575W        W40560  43.888  41.931  11.135
75576W        W40561   4.937  39.298  11.206
75577W        W40562   6.213  31.685   0.323
75578W        W40563  24.472  35.925   0.014
75579W        W40564  40.779  28.497  14.866
75580W        W40565  44.614  31.519   0.485
75581W        W40566   1.855   2.824   4.160
75582W        W40567  11.501  22.349  11.491
75583W        W40568   1.914  33.391  11.506
75584W        W40569  28.945  44.984  11.618
75585W        W40570   8.594  28.256  13.440
75586W        W40571   4.689  40.545  12.177
75587W        W40572  30.178   9.506  13.058
75588W        W40573  16.281  28.616   3.286
75589W        W40574   6.584  21.234  12.471
75590W        W40575  37.135  16.748  12.694
75591W        W40576  11.213  37.058  12.967
75592W        W40577  11.171  44.448   2.715
75593W        W40578  43.961  25.891  12.774
75594W        W40579  35.533  37.466   1.437
75595W        W40580  30.887   4.843  11.519
75596W        W40581  34.322  17.165   0.903
75597W        W40582   1.785  41.853   3.782
75598W        W40583  41.343   2.720  13.307
75599W        W40584  31.022  24.945  11.126
75600W        W40585   9.933   4.283   4.056
75601W        W40586   3.182  26.969  12.353
75602W        W40587  18.652  10.988   0.427
75603W        W40588   3.766  15.333   4.981
75604W        W40589  27.410  33.982   3.353
75605W        W40590  43.144   6.944  13.932
75606W        W40591  19.281  32.926  13.404
75607W        W40592  40.992  43.518   1.907
75608W        W40593  41.437  25.443   0.944
75609W        W40594  20.505  23.962  14.390
75610W        W40595  22.415  44.372  13.326
75611W        W40596  16.281   2.197   1.341
75612W        W40597  29.557  30.637   4.587
75613W        W40598  36.969  22.008  12.044
75614W        W40599  38.896  35.841  10.934
75615W        W40600  32.349  12.251  10.696
75616W        W40601   4.299   2.922  13.147
75617W        W40602   7.471  14.299  11.488
75618W        W40603  27.618  31.760   9.908
75619W        W40604  25.084  31.607   1.260
75620W        W40605  23.729  15.727   1.525
75621W        W40606  42.434  30.430   0.609
75622W        W40607  29.871  41.332  12.914
75623W        W40608   6.782   7.136   2.711
75624W        W40609  13.931  11.765  10.845
75625W        W40610  30.148  12.624  13.810
75626W        W40611  35.542  31.008  12.810
75627W        W40612  26.752  27.842  11.487
75628W        W40613  29.908  37.919   4.634
75629W        W40614  20.695  43.197   3.441
75630W        W40615  14.998  12.732   4.261
75631W        W40616   0.795  33.431   2.863
75632W        W40617  40.307  25.483   1.749
75633W        W40618  39.054  16.985  14.462
75634W        W40619  31.556  31.781   3.080
75635W        W40620  17.132  31.323   1.217
75636W        W40621  15.188   4.677  10.760
75637W        W40622  17.797  19.658  14.713
75638W        W40623  21.061   5.148   0.332
75639W        W40624  24.487  39.696   2.775
75640W        W40625  24.910  38.540   4.090
75641W        W40626  43.439   1.776  12.548
75642W        W40627  25.115   1.509  12.148
75643W        W40628  42.292  26.528   0.330
75644W        W40629  26.162  10.573   4.577
75645W        W40630  27.640   7.481  13.865
75646W        W40631  13.549   2.022  14.916
75647W        W40632  39.900  13.633   1.149
75648W        W40633  21.658  16.996   2.710
75649W        W40634  12.247   0.959   3.171
75650W        W40635  41.949  17.522   2.893
75651W        W40636   2.888  26.931  13.714
75652W        W40637   0.049   2.924  11.598
75653W        W40638  16.174   8.004   2.843
75654W        W40639  36.557  35.643   2.949
75655W        W40640   5.169  40.449   0.448
75656W        W40641  13.652  13.411   1.147
75657W        W40642   6.972   5.900   1.332
75658W        W40643  37.843   9.575   2.089
75659W        W40644  14.296  12.172  11.703
75660W        W40645  33.479  27.210   2.426
75661W        W40646  16.757  20.427  12.822
75662W        W40647  34.592   3.251   1.251
75663W        W40648  28.418   4.658  14.952
75664W        W40649  19.580  26.846   3.312
75665W        W40650   4.927  13.156   0.295
75666W        W40651  40.457  31.476   4.526
75667W        W40652   3.420  42.500   1.207
75668W        W40653   4.463   4.457   1.626
75669W        W40654  27.861  40.446   3.602
75670W        W40655  38.790  12.468   4.228
75671W        W40656   3.536  14.733  14.300
75672W        W40657  42.430  34.760  12.221
75673W        W40658  43.017  23.054  12.039
75674W        W40659   8.003  22.066   3.780
75675W        W40660  17.245  41.729  11.226
75676W        W40661  38.408   4.844   1.258
75677W        W40662  32.486  43.031  14.234
75678W        W40663  37.167  28.457  10.766
75679W        W40664  44.383  44.507   3.080
75680W        W40665  25.031  22.650  10.978
75681W        W40666  34.278   0.416   2.999
75682W        W40667  13.331  32.836  14.559
75683W        W40668  40.787  35.339   3.956
75684W        W40669  12.886  27.435   3.392
75685W        W40670  28.204  10.222  11.719
75686W        W40671  40.422   4.269  13.378
75687W        W40672   2.127   7.818   2.864
75688W        W40673   0.399  43.034  10.534
75689W        W40674  33.355  41.785  10.705
75690W        W40675  27.964   9.857  12.018
75691W        W40676   2.722  28.554   0.793
75692W        W40677   1.783   3.501   3.428
75693W        W40678  27.667  24.264   1.928
75694W        W40679  31.470   2.967  10.997
75695W        W40680  13.668   7.132   1.806
75696W        W40681   3.680  15.045  12.188
75697W        W40682  43.194  27.761  11.963
75698W        W40683   3.788  34.491   0.237
75699W        W40684  15.291  12.611   2.756
75700W        W40685  17.210  39.969  11.626
75701W        W40686  22.092  26.502  13.546
75702W        W40687   6.521  42.354  11.167
75703W        W40688  26.408  25.200  13.404
75704W        W40689  19.822  17.236  11.020
75705W        W40690  23.144  26.295   1.744
75706W        W40691  35.207  14.116   2.688
75707W        W40692  22.569   8.941  12.616
75708W        W40693  18.537  30.248  13.987
75709W        W40694   6.797  21.485  11.126
75710W        W40695  37.111  35.973  10.685
75711W        W40696   7.342  21.765  11.529
75712W        W40697  22.823  41.748   1.819
75713W        W40698   7.863  25.374  10.316
75714W        W40699   7.336  35.079   3.177
75715W        W40700   7.262  18.159   4.949
75716W        W40701  10.671  14.549   4.493
75717W        W40702  21.267   3.613   3.153
75718W        W40703  12.100   9.201  14.060
75719W        W40704  43.720  24.570   2.119
75720W        W40705  30.186   7.646  14.852
75721W        W40706  40.547  32.924   2.293
75722W        W40707  42.512  21.166   4.008
75723W        W40708   7.906   0.476  13.610
75724W        W40709  34.314  13.740   3.692
75725W        W40710   1.931  26.107   4.529
75726W        W40711  22.427  31.103  13.495
75727W        W40712  30.182  29.388  11.038
75728W        W40713  26.679   8.389   1.438
75729W        W40714  25.734  17.337  13.335
75730W        W40715  14.768  18.963  12.622
75731W        W40716  30.964   7.790   4.825
75732W        W40717   0.534  28.592  13.448
75733W        W40718  16.636  42.468   3.305
75734W        W40719  13.855  43.452  13.568
75735W        W40720  11.527  41.344  11.720
75736W        W40721   1.725  24.566   0.833
75737W        W40722  44.735  40.945  13.857
75738W        W40723  13.575  34.000   2.891
75739W        W40724  37.041  25.759   1.287
75740W        W40725   8.671   6.110  12.488
75741W        W40726  38.988  41.916  11.977
75742W        W40727  22.503  34.472   4.665
75743W        W40728  21.980  41.361  13.126
75744W        W40729  17.038  39.750   1.681
75745W        W40730  34.848  27.975   0.896
75746W        W40731   5.788   1.367   4.720
75747W        W40732   7.552  27.424   1.410
75748W        W40733  36.043  31.047  14.073
75749W        W40734  34.107  22.525   3.911
75750W        W40735  15.674  30.615   1.714
75751W        W40736  12.867   5.318   2.805
75752W        W40737   7.434  21.040  14.856
75753W        W40738   2.254   7.827  13.849
75754W        W40739  17.687  40.554  11.300
75755W        W40740  33.088  15.073  11.545
75756W        W40741  10.771  43.562   1.369
75757W        W40742  44.721  29.985   1.293
75758W        W40743   7.298  32.164  14.975
75759W        W40744  35.812  13.334   2.795
75760W        W40745  27.400  14.981   0.457
75761W        W40746   0.333  43.431   1.836
75762W        W40747  18.614  35.532   0.660
75763W        W40748  33.738  43.736   5.033
75764W        W40749  39.058  20.128   0.008
75765W        W40750  11.634   9.618  10.244
75766W        W40751  23.403  13.024  13.902
75767W        W40752  15.692   9.857  12.925
75768W        W40753   4.320  20.744  14.925
75769W        W40754  44.328  44.672   5.220
75770W        W40755  40.054  11.278  14.056
75771W        W40756  11.187  17.723  13.095
75772W        W40757  22.638  18.216   0.666
75773W        W40758  16.573  11.445  10.557
75774W        W40759  31.854  43.399   4.155
75775W        W40760  28.838  20.128   4.306
75776W        W40761   4.410  34.191   1.347
75777W        W40762  19.288  24.101   4.966
75778W        W40763   1.478  34.755   0.598
75779W        W40764  25.637  29.656   2.324
75780W        W40765  23.696   3.908  12.162
75781W        W40766  15.838  39.789   1.245
75782W        W40767  26.478  36.440   0.474
75783W        W40768  39.996   9.313   2.048
75784W        W40769  26.425  20.165  12.150
75785W        W40770   2.992   5.912  11.503
75786W        W40771  24.047  33.777  11.857
75787W        W40772  26.462  26.225   0.935
75788W        W40773  44.738  22.536  13.481
75789W        W40774  24.331  21.755   0.289
75790W        W40775  15.594   6.504   3.231
75791W        W40776  31.180  23.129  11.474
75792W        W40777  36.800  22.690  14.271
75793W        W40778  13.022  33.024  14.976
75794W        W40779  35.082  39.058  14.874
75795W        W40780  10.602  38.796   0.819
75796W        W40781  38.335  11.531  13.739
75797W        W40782  31.985  14.217   2.771
75798W        W40783  14.768  41.772   0.801
75799W        W40784   2.446   3.182  14.261
75800W        W40785   3.944  39.759  11.543
75801W        W40786  40.895  15.613   2.244
75802W        W40787  17.140   7.148   4.453
75803W        W40788  11.946  30.300  14.873
75804W        W40789   7.770  12.691   0.765
75805W        W40790  23.578  20.729   5.565
75806W        W40791  14.812  40.756   3.142
75807W        W40792  38.463  10.510  13.482
75808W        W40793  34.863  32.861   3.677
75809W        W40794  18.837  30.911   3.956
75810W        W40795   1.441  24.462   4.274
75811W        W40796   1.834   9.231   0.332
75812W        W40797  16.414  13.820  12.869
75813W        W40798  41.536  31.389   3.217
75814W        W40799  12.629  32.401  12.517
75815W        W40800  10.140  25.182  13.524
75816W        W40801   0.368  38.060   2.171
75817W        W40802   2.019  14.187   2.917
75818W        W40803  16.689   1.169   4.056
75819W        W40804  13.185   3.311   1.274
75820W        W40805  31.147  33.891  12.725
75821W        W40806   2.212  28.407   4.253
75822W        W40807  44.851  39.165  12.533
75823W        W40808   7.813  44.940  12.562
75824W        W40809  13.684   8.362   2.264
75825W        W40810  33.908  28.090  14.794
75826W        W40811  11.328   1.411   3.373
75827W        W40812  19.970  34.179   2.708
75828W        W40813   0.727   0.274  13.011
75829W        W40814  32.059   3.240  10.160
75830W        W40815  14.295   6.306  11.403
75831W        W40816  42.197  27.060  12.997
75832W        W40817   9.751  11.373  14.480
75833W        W40818  11.359  23.539   4.623
75834W        W40819  38.715  32.466   4.980
75835W        W40820  35.376  12.097   1.418
75836W        W40821  12.673   2.442  14.062
75837W        W40822   9.698  33.698   1.866
75838W        W40823  16.504   3.113  13.007
75839W        W40824  12.752  27.531  14.306
75840W        W40825   8.718  38.835  12.235
75841W        W40826  14.062  20.448  14.032
75842W        W40827   7.185  14.782  12.658
75843W        W40828  13.212  37.285   0.760
75844W        W40829  16.915  11.231   0.234
75845W        W40830  23.778  27.923   1.208
75846W        W40831   7.483  41.541   4.189
75847W        W40832  39.548  39.959  12.589
75848W        W40833  18.310   2.165  11.173
75849W        W40834   2.522   9.924  12.016
75850W        W40835  10.351  36.914  10.769
75851W        W40836  37.295  13.137  12.904
75852W        W40837  30.550  35.721   4.565
75853W        W40838  19.215   2.874  13.577
75854W        W40839   7.176   8.862  12.020
75855W        W40840   6.000  13.603  13.082
75856W        W40841  40.870  34.153  14.771
75857W        W40842   8.920  41.833   2.227
75858W        W40843  27.250   0.480  13.514
75859W        W40844  16.773  35.575  14.767
75860W        W40845  43.072  13.722   0.572
75861W        W40846  34.630  31.068   4.817
75862W        W40847   4.881  31.393   3.324
75863W        W40848   2.986  44.675  14.554
75864W        W40849  26.162  15.292  12.931
75865W        W40850  38.290  38.436   3.707
75866W        W40851  19.466  29.504   3.167
75867W        W40852  22.197   7.130   2.660
75868W        W40853  12.676  26.731  13.060
75869W        W40854  22.418  14.395   2.200
75870W        W40855  15.123  14.419   4.298
75871W        W40856  28.581   6.171   3.626
75872W        W40857   4.895  41.592  12.180
75873W        W40858  31.590  31.617   0.443
75874W        W40859   5.412  24.616   4.926
75875W        W40860   4.713   2.382  14.406
75876W        W40861  21.146   7.400   3.849
75877W        W40862   8.377  22.217  12.104
75878W        W40863  26.698  27.050   0.370
75879W        W40864  12.241   4.560  14.469
75880W        W40865  28.154  29.181  12.445
75881W        W40866  44.890  18.042  11.489
75882W        W40867  11.770  21.179   5.104
75883W        W40868  32.883  31.501   2.238
75884W        W40869  35.167   7.075   2.462
75885W        W40870  16.233  25.956   9.769
75886W        W40871   7.699  13.434  12.988
75887W        W40872  28.491  19.870  12.432
75888W        W40873  11.865  42.049   2.220
75889W        W40874  37.895   8.097   4.062
75890W        W40875   5.777  20.320   4.258
75891W        W40876  37.109  13.287   1.444
75892W        W40877  44.663  41.440  13.265
75893W        W40878   3.358  11.373  10.171
75894W        W40879  34.616   4.396   4.652
75895W        W40880   5.378  40.859   2.355
75896W        W40881   2.776   3.418  11.039
75897W        W40882  10.393  31.177  11.051
75898W        W40883   1.641  37.353  12.540
75899W        W40884  10.158  23.515   1.386
75900W        W40885  42.258  10.114  12.510
75901W        W40886   8.749   9.698   0.252
75902W        W40887  37.661  14.689  11.915
75903W        W40888  18.007  31.427   2.271
75904W        W40889   0.704   2.710   2.209
75905W        W40890  12.733  31.063  12.541
75906W        W40891  12.684   3.961   4.235
75907W        W40892  24.435  38.922  14.426
75908W        W40893  18.879  29.633  10.715
75909W        W40894  22.469  43.411  12.935
75910W        W40895  19.196  21.212   2.090
75911W        W40896  12.935   2.366  11.050
75912W        W40897  25.756  41.029  12.900
75913W        W40898  27.460   3.382  12.054
75914W        W40899  36.871  21.470   3.132
75915W        W40900  29.223   6.444  13.139
75916W        W40901  13.550  44.582   0.418
75917W        W40902  11.218  30.258  12.947
75918W        W40903   0.609  34.397  12.966
75919W        W40904  20.069  21.092   2.808
75920W        W40905  40.503  16.297   2.693
75921W        W40906  43.110   9.904   4.360
75922W        W40907  16.784   9.738  10.345
75923W        W40908  22.795  30.954   9.920
75924W        W40909   4.415  28.640   0.238
75925W        W40910   4.360  16.599   0.613
75926W        W40911  32.013  32.067   3.060
75927W        W40912  20.009  33.346   2.147
75928W        W40913   6.155  35.986   4.643
75929W        W40914  29.619  18.665  12.696
75930W        W40915  31.676  30.153  14.523
75931W        W40916   8.496  42.657   3.409
75932W        W40917  37.304  18.616  14.484
75933W        W40918   1.326   7.655  14.356
75934W        W40919  25.015  32.955   1.067
75935W        W40920  23.619  17.136  12.468
75936W        W40921  16.790  13.846   0.645
75937W        W40922  33.792  31.547   2.044
75938W        W40923  20.645  16.717  11.377
75939W        W40924   4.946   5.755   0.859
75940W        W40925  10.541  22.473  10.284
75941W        W40926   7.858  38.296   1.275
75942W        W40927  43.196  22.552  14.567
75943W        W40928  21.525   4.517  10.802
75944W        W40929  38.737  16.544   3.240
75945W        W40930  23.726   4.216  14.136
75946W        W40931  12.703  21.702  11.518
75947W        W40932   2.671  34.997  10.756
75948W        W40933   5.823  13.301   2.724
75949W        W40934  24.476  43.685   3.384
75950W        W40935   4.081  24.537   2.487
75951W        W40936   7.254  29.454   2.596
75952W        W40937  36.767   2.961   3.412
75953W        W40938  35.634  11.042   3.621
75954W        W40939  18.078   3.052  12.051
75955W        W40940   5.498  13.590  13.018
75956W        W40941  13.836  31.865   2.906
75957W        W40942   6.788   0.052   2.519
75958W        W40943  42.921  31.190  12.556
75959W        W40944   1.253  16.206   1.944
75960W        W40945   9.083  17.231   1.373
75961W        W40946  27.121  13.387  13.478
75962W        W40947  39.293  34.422  14.515
75963W        W40948   2.428   2.292  10.794
75964W        W40949  35.418   4.163  11.795
75965W        W40950  37.498  42.077   4.566
75966W        W40951  32.467  39.724  14.908
75967W        W40952  26.779   4.457   3.250
75968W        W40953  10.219  36.616   2.525
75969W        W40954  38.493  32.565  14.436
75970W        W40955  29.536  15.623  12.981
75971W        W40956  13.304  35.642   1.327
75972W        W40957   5.101  42.364   2.515
75973W        W40958  28.274   2.917   2.002
75974W        W40959   0.415  17.898  10.668
75975W        W40960  12.196  25.223  14.237
75976W        W40961  12.275  44.452  11.567
75977W        W40962   3.903  29.580  10.487
75978W        W40963  40.860  19.014  11.420
75979W        W40964  31.289   3.390  10.687
75980W        W40965  18.822   1.773  13.845
75981W        W40966   4.768  36.460   0.855
75982W        W40967  12.112  25.095  12.802
75983W        W40968  36.467   0.586  10.940
75984W        W40969  25.678  38.081   3.943
75985W        W40970  41.047   0.195   4.461
75986W        W40971  20.713  17.027  11.769
75987W        W40972  13.204  38.293   4.006
75988W        W40973  44.909  18.340   2.582
75989W        W40974  43.557   4.798   0.968
75990W        W40975  29.448   3.255  12.885
75991W        W40976   9.852   0.395  10.681
75992W        W40977  23.644  34.403   2.738
75993W        W40978  12.381  31.411   1.336
75994W        W40979   1.032  11.804   2.792
75995W        W40980  13.282   4.300   4.328
75996W        W40981  14.338  40.882  12.469
75997W        W40982  39.084   7.939   4.609
75998W        W40983  42.581  25.141  12.969
75999W        W40984  11.380   3.280   4.211
76000W        W40985  36.460  14.735   4.629
76001W        W40986  37.119  44.022  13.092
76002W        W40987   3.854  24.973  12.625
76003W        W40988  35.818   4.842   0.815
76004W        W40989  25.912  27.522  11.344
76005W        W40990   5.287   5.616   3.450
76006W        W40991  29.299  39.519  12.386
76007W        W40992  18.616  23.188  14.229
76008W        W40993  28.610  11.064   2.625
76009W        W40994  27.220  11.631   3.100
76010W        W40995   0.206   1.467  14.871
76011W        W40996  26.546  13.596   3.230
76012W        W40997  37.975  43.030   1.877
76013W        W40998  43.095  39.012   0.872
76014W        W40999  31.991   1.872   4.602
76015W        W41000   7.743  17.227   3.303
76016W        W41001  39.212  20.671  11.357
76017W        W41002  17.919  38.265   2.817
76018W        W41003  39.705   4.809  11.943
76019W        W41004  11.888  39.650   4.157
76020W        W41005  36.616  41.017  13.883
76021W        W41006   8.510   0.491   4.744
76022W        W41007   8.261  26.624  10.853
76023W        W41008  36.997   3.150   2.425
76024W        W41009  25.710  44.200   5.143
76025W        W41010   6.116  26.501  12.167
76026W        W41011  19.207  26.214   2.550
76027W        W41012  30.695  13.683   2.288
76028W        W41013   6.485   3.605  11.225
76029W        W41014  23.616  12.683  12.366
76030W        W41015  28.820  36.902   2.273
76031W        W41016   9.215  39.471  11.727
76032W        W41017   3.473   7.258  11.757
76033W        W41018  25.398  28.915   5.437
76034W        W41019  41.406   9.638  14.800
76035W        W41020  14.402  44.887  11.681
76036W        W41021  40.023  30.483  13.053
76037W        W41022  10.109  13.579  13.843
76038W        W41023  37.053   5.408  12.366
76039W        W41024  40.566   8.974  12.443
76040W        W41025   4.893  13.307  13.419
76041W        W41026  22.658  25.255  11.533
76042W        W41027  36.115   2.634  11.188
76043W        W41028  26.233   6.943  12.388
76044W        W41029  26.405  30.672   0.929
76045W        W41030   3.715  26.624   2.802
76046W        W41031   6.827  12.388   3.164
76047W        W41032   5.943  40.434   0.368
76048W        W41033   2.063   0.882   3.634
76049W        W41034   3.328  18.517   1.342
76050W        W41035  12.158  23.958   1.036
76051W        W41036  17.991  42.058  10.770
76052W        W41037  40.577   8.311   1.770
76053W        W41038  37.873  19.287   4.091
76054W        W41039  42.995  14.674   1.120
76055W        W41040  20.789  16.308   0.580
76056W        W41041   5.038  23.930  10.461
76057W        W41042  36.274  27.164  14.076
76058W        W41043  12.011   4.801  14.065
76059W        W41044   8.206  40.982   4.618
76060W        W41045  39.395  31.630   0.298
76061W        W41046   0.499  33.059   3.766
76062W        W41047  26.422  11.297  11.122
76063W        W41048  32.539  43.447  11.452
76064W        W41049  32.645  30.152  14.250
76065W        W41050  41.387  18.190   3.381
76066W        W41051  31.388  27.943   0.255
76067W        W41052  29.692  39.825  13.982
76068W        W41053   9.687   6.250  12.564
76069W        W41054   2.803   4.541  12.804
76070W        W41055  30.973  23.111  14.846
76071W        W41056  28.960   9.664  11.934
76072W        W41057  16.077  35.478  12.148
76073W        W41058  14.076   3.922  14.417
76074W        W41059   7.240  10.246  13.433
76075W        W41060  35.511  36.955  13.555
76076W        W41061  33.872  19.244  14.438
76077W        W41062  11.635  12.576   0.006
76078W        W41063  20.278  16.771   4.885
76079W        W41064  32.971  13.609   2.193
76080W        W41065  17.758   2.163  13.447
76081W        W41066  35.085   5.132   3.749
76082W        W41067   6.601   1.532   1.329
76083W        W41068  36.318  19.942   4.677
76084W        W41069  32.044   4.957   0.874
76085W        W41070   1.355   6.742   1.631
76086W        W41071  43.942  25.033   4.854
76087W        W41072   1.063  30.686  10.918
76088W        W41073  25.507  14.913  11.649
76089W        W41074  43.459  43.252   3.110
76090W        W41075  37.887  15.981  11.618
76091W        W41076   4.082  23.181   0.052
76092W        W41077  38.051   6.300   3.438
76093W        W41078   2.409  31.546  13.830
76094W        W41079  33.361  36.181   1.857
76095W        W41080  44.709   3.948   4.160
76096W        W41081   7.054   6.699  12.246
76097W        W41082   2.895  14.183   2.836
76098W        W41083  28.487  31.767  12.861
76099W        W41084   9.793  18.812  11.702
76100W        W41085  24.916  24.161  11.247
76101W        W41086  10.815  29.401   3.698
76102W        W41087  32.138  42.890  10.264
76103W        W41088  40.029  15.337   2.292
76104W        W41089  12.249  25.377  12.331
76105W        W41090  18.033   6.967   3.276
76106W        W41091  36.400  22.168   4.140
76107W        W41092  43.959   3.127   2.695
76108W        W41093  15.339   3.880   4.635
76109W        W41094  42.039  26.935  11.804
76110W        W41095  39.967  11.807   4.277
76111W        W41096  12.504  18.823   0.912
76112W        W41097  37.408  22.018   0.926
76113W        W41098  33.420  21.708  10.186
76114W        W41099  43.948  30.542   0.804
76115W        W41100  12.295  41.604   2.697
76116W        W41101  44.427  36.937   3.226
76117W        W41102  33.684  41.564   4.124
76118W        W41103  34.979  35.457   2.444
76119W        W41104   1.876  44.435   0.720
76120W        W41105  12.258   5.077  14.456
76121W        W41106   2.226  42.905  13.899
76122W        W41107  32.077  38.346  11.626
76123W        W41108   9.389  33.855  11.416
76124W        W41109   1.369  33.948   0.012
76125W        W41110  35.420  32.609  14.337
76126W        W41111  25.947  10.669  11.560
76127W        W41112  43.462  15.049   3.355
76128W        W41113  34.528   7.727  12.807
76129W        W41114  38.001  29.247   1.850
76130W        W41115   4.309   9.455  14.390
76131W        W41116  34.132   3.315  12.638
76132W        W41117  28.630  24.942   3.220
76133W        W41118  14.623  21.583  12.950
76134W        W41119  44.507  40.392  12.080
76135W        W41120  23.013  42.493  12.889
76136W        W41121  14.089  12.406   3.967
76137W        W41122  23.556   4.776  10.078
76138W        W41123  25.714  21.749  11.165
76139W        W41124  23.318  26.767   1.865
76140W        W41125  26.118  39.631   4.075
76141W        W41126   8.436   9.085   2.865
76142W        W41127   2.794  43.314   0.741
76143W        W41128   2.541  31.632   1.260
76144W        W41129  37.135  27.219   2.791
76145W        W41130  36.407  31.839  14.874
76146W        W41131  14.618  29.170   2.226
76147W        W41132  23.144  18.540  12.976
76148W        W41133   6.431  28.167   5.107
76149W        W41134  20.614  32.976   2.921
76150W        W41135  29.712  22.720   0.746
76151W        W41136  40.857  19.587  14.694
76152W        W41137  36.818  22.301  14.656
76153W        W41138  27.964  44.869   3.692
76154W        W41139  15.376  25.641   9.806
76155W        W41140  40.417   6.731   4.939
76156W        W41141  41.526  35.341  12.590
76157W        W41142  25.231  31.169   2.199
76158W        W41143  41.331  23.274   4.209
76159W        W41144  32.516   8.544   1.740
76160W        W41145  11.557  26.960  12.101
76161W        W41146  26.160  14.288  13.024
76162W        W41147  19.303  23.347   1.791
76163W        W41148  35.663  14.818   3.517
76164W        W41149  25.523  34.635  13.973
76165W        W41150  13.696  34.595   3.178
76166W        W41151   6.938  32.624  13.001
76167W        W41152  42.388  14.842   0.388
76168W        W41153  40.930  19.003  13.494
76169W        W41154  43.530  11.708   4.075
76170W        W41155   0.269   8.156   2.299
76171W        W41156  17.236   0.907  10.580
76172W        W41157  20.183  40.531   3.114
76173W        W41158  38.084  25.117  12.134
76174W        W41159  36.826  19.529  14.332
76175W        W41160  44.303  14.789   3.667
76176W        W41161  43.523  15.116   2.226
76177W        W41162   0.054  24.968   2.316
76178W        W41163  19.718  15.085   2.242
76179W        W41164  14.886  36.668   3.183
76180W        W41165  40.495  33.501   3.235
76181W        W41166  40.095   7.247  14.125
76182W        W41167  30.889   0.316   0.076
76183W        W41168  29.032  33.135  14.328
76184W        W41169  41.978   5.716  14.411
76185W        W41170  35.118  16.890  12.854
76186W        W41171  32.130  43.257   4.560
76187W        W41172  25.725  32.949   0.879
76188W        W41173   1.599  14.453   1.288
76189W        W41174   0.308  36.974  13.893
76190W        W41175  22.083  43.278   1.430
76191W        W41176  34.266  33.922   4.368
76192W        W41177  22.943  24.201  12.021
76193W        W41178  42.368  16.069  10.684
76194W        W41179  41.564  18.768   4.610
76195W        W41180  36.752  15.480   2.819
76196W        W41181  22.630  34.025   3.341
76197W        W41182   4.729   5.259   2.746
76198W        W41183   1.339  40.758  11.282
76199W        W41184  11.612   6.438  14.010
76200W        W41185  38.484   6.318   1.035
76201W        W41186  13.675  38.891  11.205
76202W        W41187  14.184  35.431   1.829
76203W        W41188  13.584  43.449  12.111
76204W        W41189   1.542  28.476  11.611
76205W        W41190  11.282  14.083  11.614
76206W        W41191  17.199  12.139  10.726
76207W        W41192  38.123  40.922  11.872
76208W        W41193  29.934  13.575  11.022
76209W        W41194   6.191   9.254  10.730
76210W        W41195  28.147  41.959  12.858
76211W        W41196   4.250  21.328  12.940
76212W        W41197  40.231  44.392  10.612
76213W        W41198  22.114   7.674   0.786
76214W        W41199  12.553   2.014  11.124
76215W        W41200  25.640  37.555   2.172
76216W        W41201  44.250  16.360  14.025
76217W        W41202  21.705  27.351  12.887
76218W        W41203  21.944   2.740   0.828
76219W        W41204  33.880  14.035   4.671
76220W        W41205  23.073  37.893   2.736
76221W        W41206  36.439  23.930  14.777
76222W        W41207  14.203  18.930  14.082
76223W        W41208   7.565   6.691  11.303
76224W        W41209  20.681  38.575   2.661
76225W        W41210  27.576  33.090   1.012
76226W        W41211  12.663   1.550  14.397
76227W        W41212  16.489  19.697   4.143
76228W        W41213  11.760  36.661  13.031
76229W        W41214  17.306  34.511   3.240
76230W        W41215   1.784  14.291   3.892
76231W        W41216  12.789   6.583   1.644
76232W        W41217  29.870  35.575  11.065
76233W        W41218  29.099   6.416   0.613
76234W        W41219  35.078   6.109   1.712
76235W        W41220  21.237  43.857   2.837
76236W        W41221  13.778  34.114   3.358
76237W        W41222  24.002  21.354   2.475
76238W        W41223  42.553  26.243  11.949
76239W        W41224  36.985  17.283   3.776
76240W        W41225  18.992  30.042   0.902
76241W        W41226  20.098   6.902  14.806
76242W        W41227  31.075  39.813   2.843
76243W        W41228  33.304  37.078   1.961
76244W        W41229  38.333  25.301  11.217
76245W        W41230  44.505  24.022   0.152
76246W        W41231  34.143  21.506  11.114
76247W        W41232  20.931   4.426  14.507
76248W        W41233  23.932  19.229  12.938
76249W        W41234   0.689  36.847  10.339
76250W        W41235  23.089   9.031   5.074
76251W        W41236   3.000  26.651  14.559
76252W        W41237  33.449  22.947  14.076
76253W        W41238  43.425  43.823   1.345
76254W        W41239   9.010  39.344  14.438
76255W        W41240  43.420  44.050   0.900
76256W        W41241  30.198  36.474  11.218
76257W        W41242  13.053  43.319   0.861
76258W        W41243  38.472   4.730   3.685
76259W        W41244  30.559  13.632   0.977
76260W        W41245   9.841   9.127  14.404
76261W        W41246   4.229  11.591   2.479
76262W        W41247  15.724   7.838   1.980
76263W        W41248  27.663   9.024   9.988
76264W        W41249  13.419  36.320   2.710
76265W        W41250  31.601  13.601   4.397
76266W        W41251  15.942   6.920   4.489
76267W        W41252  22.517  36.184   5.034
76268W        W41253  40.726   3.419   0.358
76269W        W41254  13.833  31.063  11.206
76270W        W41255  30.970  35.785  11.183
76271W        W41256   0.253  24.561   1.695
76272W        W41257  36.562  21.727   1.392
76273W        W41258  26.100  27.027  11.576
76274W        W41259  24.460  32.235  10.760
76275W        W41260  27.541  19.514   3.771
76276W        W41261  21.260   6.886   0.924
76277W        W41262  22.112  33.439   0.892
76278W        W41263  17.667  11.315  12.381
76279W        W41264  13.206  41.921   2.271
76280W        W41265  35.645  18.561   1.838
76281W        W41266   3.240  37.573  12.596
76282W        W41267  13.497   6.198  12.396
76283W        W41268  18.620   8.277  13.318
76284W        W41269  20.553  13.359  10.680
76285W        W41270  17.616  39.757  12.519
76286W        W41271  17.157  16.259   2.092
76287W        W41272   5.638  18.204  14.785
76288W        W41273  12.213  13.178  13.821
76289W        W41274  35.593  38.113   4.176
76290W        W41275  32.223  23.724   0.354
76291W        W41276  38.825  15.183  11.498
76292W        W41277  27.719  26.612  11.592
76293W        W41278  33.514  31.521  11.714
76294W        W41279  24.197  39.773   1.417
76295W        W41280   5.888   1.912   4.384
76296W        W41281  20.199  29.206   2.024
76297W        W41282  11.635  38.640  13.489
76298W        W41283  12.773  39.312   4.773
76299W        W41284  26.732  23.981  12.994
76300W        W41285  11.371   9.638  12.540
76301W        W41286  30.016  44.576   1.259
76302W        W41287  40.969  25.568  13.991
76303W        W41288  17.156  43.693   3.668
76304W        W41289  34.861   9.253   1.677
76305W        W41290   0.532  43.765   4.436
76306W        W41291  44.580  34.071   1.969
76307W        W41292  41.555  20.061  14.999
76308W        W41293  22.040  24.498  13.123
76309W        W41294  30.973  39.073   0.702
76310W        W41295  26.015  22.682   1.427
76311W        W41296  21.429   3.459   2.004
76312W        W41297   4.281  30.957  14.986
76313W        W41298  33.345  18.682  11.570
76314W        W41299  27.998  43.069   1.189
76315W        W41300  18.065  35.980   2.175
76316W        W41301  17.175   8.489   2.327
76317W        W41302  27.534  35.179   3.062
76318W        W41303   5.319  36.922   2.668
76319W        W41304  39.013  22.228  13.485
76320W        W41305  22.193   1.354  11.662
76321W        W41306  41.442  37.959  14.461
76322W        W41307  31.532  25.554   0.345
76323W        W41308   1.244   3.146  13.868
76324W        W41309  35.436  17.291   0.712
76325W        W41310  37.311   4.043   4.412
76326W        W41311   6.289   7.918  14.250
76327W        W41312   6.216  19.148  12.205
76328W        W41313  36.563  19.917   1.712
76329W        W41314  13.653  35.223   1.236
76330W        W41315  27.333  10.190  10.663
76331W        W41316  14.245  11.884   0.752
76332W        W41317   3.427  33.731  12.827
76333W        W41318  13.649   1.248   3.195
76334W        W41319  14.197   1.281   2.134
76335W        W41320  38.387   1.350  11.469
76336W        W41321  22.632   9.988  13.873
76337W        W41322  12.830   7.975  14.536
76338W        W41323  14.140  27.790  13.789
76339W        W41324   5.933  24.448  10.731
76340W        W41325  36.917   0.701  11.529
76341W        W41326  34.978  34.834   2.221
76342W        W41327  37.664   9.842   5.507
76343W        W41328  24.289  42.565   0.363
76344W        W41329  14.693  20.547  14.490
76345W        W41330  42.125  34.325   3.979
76346W        W41331   8.722  17.076   0.335
76347W        W41332  38.424   9.253   4.297
76348W        W41333  44.540  18.425  11.582
76349W        W41334   0.699  33.389   1.961
76350W        W41335   9.669  13.543   2.256
76351W        W41336   8.193  43.808  13.858
76352W        W41337  38.333  11.717   1.699
76353W        W41338  43.595   2.715  13.501
76354W        W41339   4.443  19.125   2.796
76355W        W41340  30.669   1.937   3.819
76356W        W41341   0.183  29.861   1.135
76357W        W41342  32.156   5.275  12.917
76358W        W41343  41.752  29.606   1.822
76359W        W41344  25.067  12.768   4.957
76360W        W41345  15.153   4.775   1.035
76361W        W41346  39.474   8.036  10.687
76362W        W41347  19.403  28.543  11.082
76363W        W41348  38.503  10.211  10.716
76364W        W41349  12.862  42.894   4.331
76365W        W41350  10.384  40.892  11.148
76366W        W41351  23.494   7.302  10.760
76367W        W41352  39.288  23.659  12.927
76368W        W41353  36.837  19.681  11.361
76369W        W41354  41.539   1.238  13.499
76370W        W41355  18.783  23.249  11.387
76371W        W41356  11.096  19.170  11.558
76372W        W41357  35.567   1.930   1.829
76373W        W41358  27.948  22.437  13.609
76374W        W41359  37.481  37.981  10.815
76375W        W41360  22.022  34.456  12.415
76376W        W41361  32.612  40.475   1.009
76377W        W41362  10.840  17.250  12.079
76378W        W41363  28.913  30.136   2.250
76379W        W41364   0.985   3.258  10.251
76380W        W41365  23.787  18.346   0.819
76381W        W41366  28.569  33.997  10.835
76382W        W41367  25.227  28.076   4.714
76383W        W41368   7.784   2.444   0.720
76384W        W41369  37.647   5.221  10.692
76385W        W41370  27.220   4.675   0.460
76386W        W41371  15.389  24.462   2.749
76387W        W41372   7.732  19.538  11.209
76388W        W41373   7.717  12.333   2.404
76389W        W41374  34.186  15.746  10.926
76390W        W41375   7.673   7.266   1.011
76391W        W41376  29.355  26.060   2.010
76392W        W41377  16.576  15.734  12.977
76393W        W41378  38.653  31.693   1.873
76394W        W41379  13.243   0.858   4.613
76395W        W41380  44.110  27.543  10.902
76396W        W41381  10.688   8.435   0.604
76397W        W41382  34.929  29.205  10.008
76398W        W41383  32.623  25.585   1.225
76399W        W41384   8.702  17.185  12.380
76400W        W41385  15.713   1.523  14.352
76401W        W41386  20.601  34.312   1.000
76402W        W41387  39.970  27.594  13.297
76403W        W41388  19.555  39.117  10.724
76404W        W41389  38.430  33.051  13.561
76405W        W41390  13.975   6.906   2.316
76406W        W41391  31.988  17.664  12.046
76407W        W41392   9.536  28.634   3.696
76408W        W41393   3.351  10.916   0.335
76409W        W41394  40.375  37.063  13.011
76410W        W41395  22.277  17.726   2.204
76411W        W41396  39.910  21.273   1.455
76412W        W41397  44.326  14.871   0.938
76413W        W41398   8.547   6.828   3.532
76414W        W41399  34.671  44.932  14.266
76415W        W41400  13.216  39.693  13.577
76416W        W41401  37.972   2.507  12.680
76417W        W41402   9.191  38.084   2.433
76418W        W41403   7.129   0.681   3.756
76419W        W41404  40.032  36.451  11.813
76420W        W41405  20.680  32.589  14.439
76421W        W41406  30.123  21.194  12.176
76422W        W41407   0.934   5.731  13.397
76423W        W41408  17.157  16.539  14.011
76424W        W41409  30.040  28.387  12.934
76425W        W41410   4.106  28.048  11.157
76426W        W41411  31.370  22.704   2.650
76427W        W41412  36.099   3.028   0.762
76428W        W41413   7.882  20.109  14.846
76429W        W41414  39.331   7.650   4.248
76430W        W41415   8.803   2.943   0.317
76431W        W41416  38.029  22.489  14.305
76432W        W41417   9.472  32.181  12.937
76433W        W41418  44.624  20.732   4.267
76434W        W41419  43.447  34.347  11.172
76435W        W41420  40.334  25.779   2.537
76436W        W41421  21.641  25.945   4.567
76437W        W41422  30.387  27.158   2.807
76438W        W41423  25.630  35.310   0.286
76439W        W41424   9.085   9.151  14.063
76440W        W41425  13.783  27.051  10.858
76441W        W41426  12.794  23.281  11.878
76442W        W41427  21.009  14.149   0.309
76443W        W41428  43.937  28.573  10.138
76444W        W41429   7.269  18.036   0.859
76445W        W41430  29.135  25.740   0.342
76446W        W41431  40.298  28.748   2.420
76447W        W41432  20.978  17.231   2.214
76448W        W41433   0.953  25.128  10.382
76449W        W41434  36.847  38.927  11.918
76450W        W41435  33.217   5.166   2.119
76451W        W41436  42.497   0.546  10.821
76452W        W41437   9.816  36.503  10.586
76453W        W41438   6.754   8.317  12.518
76454W        W41439  22.723  43.840  10.701
76455W        W41440  44.258  43.509   0.719
76456W        W41441   5.907  19.768   0.911
76457W        W41442  23.009  40.461   3.881
76458W        W41443  39.861  29.222  13.655
76459W        W41444  43.536  26.193  11.008
76460W        W41445  36.976  27.000  12.276
76461W        W41446  33.708  40.775   3.638
76462W        W41447  28.148  42.508  13.576
76463W        W41448  27.804  21.573  13.834
76464W        W41449   5.046  18.903  11.994
76465W        W41450   2.724   7.999   4.794
76466W        W41451  29.792  24.065   0.947
76467W        W41452   6.699   0.293   3.807
76468W        W41453  11.626   3.201   3.769
76469W        W41454  42.105  29.010  14.505
76470W        W41455  21.715   0.259  12.089
76471W        W41456   3.941  29.084   2.547
76472W        W41457  32.825  33.572   2.421
76473W        W41458  10.974  10.343   2.447
76474W        W41459  39.204  30.502   0.690
76475W        W41460  17.692  37.632   0.705
76476W        W41461   7.218  17.533  10.554
76477W        W41462  10.417  40.938  12.488
76478W        W41463  37.672  41.355   4.139
76479W        W41464   6.168  26.953  14.831
76480W        W41465  19.899   0.385  11.893
76481W        W41466  28.257  43.330   1.965
76482W        W41467   3.597  22.013   2.255
76483W        W41468  19.627  22.093   3.600
76484W        W41469  12.657  29.493  11.696
76485W        W41470  20.449   3.681   3.338
76486W        W41471   4.224  34.596  14.947
76487W        W41472   5.193  18.858   0.021
76488W        W41473   9.212  33.130   2.328
76489W        W41474  39.508  25.906   3.299
76490W        W41475  30.686  26.955  13.172
76491W        W41476  37.403  31.860   0.945
76492W        W41477  32.650  24.701   3.554
76493W        W41478   0.789  17.647   0.749
76494W        W41479  43.810  27.311   4.357
76495W        W41480  19.115  21.275  11.161
76496W        W41481  24.606  16.376  10.541
76497W        W41482   8.612  18.284  12.162
76498W        W41483  32.164  22.532   2.285
76499W        W41484  31.555  34.380   4.364
76500W        W41485  35.927  30.541   1.711
76501W        W41486  26.378  43.245   3.162
76502W        W41487  17.442   1.008  13.877
76503W        W41488  33.189  37.871  12.932
76504W        W41489   5.073  38.064   4.217
76505W        W41490  31.035  34.598   1.119
76506W        W41491  38.364  34.066   4.044
76507W        W41492  32.145  27.674  11.034
76508W        W41493   9.235  37.753   2.843
76509W        W41494   2.448  37.480   0.633
76510W        W41495  38.290   7.282  13.383
76511W        W41496  38.771  32.421  10.092
76512W        W41497  17.650  34.539   4.541
76513W        W41498  36.574  20.223  13.381
76514W        W41499  12.097  11.808  12.563
76515W        W41500   2.088   7.811  14.838
76516W        W41501  32.458  31.919   3.301
76517W        W41502  29.512  18.201   0.193
76518W        W41503  15.681   8.726   3.932
76519W        W41504  34.054   5.562   3.340
76520W        W41505  29.463  12.144  11.595
76521W        W41506  23.105  32.131  12.191
76522W        W41507  31.585  30.177  12.545
76523W        W41508  20.113   3.571   3.741
76524W        W41509  36.507  23.616   3.561
76525W        W41510  41.221   0.712   3.117
76526W        W41511  36.244  21.887   4.546
76527W        W41512  43.514   3.951  13.793
76528W        W41513  42.595  33.698   3.636
76529W        W41514  15.804   7.870  14.430
76530W        W41515  33.678  22.604   0.316
76531W        W41516  39.862  25.530  12.063
76532W        W41517  14.419  10.777  13.512
76533W        W41518  13.724  36.113   2.303
76534W        W41519  33.408  34.566  13.956
76535W        W41520   1.407   7.376   3.428
76536W        W41521  29.859  34.750   4.377
76537W        W41522  24.004   4.517   0.001
76538W        W41523  23.018  23.100  11.656
76539W        W41524  13.283  14.619   0.807
76540W        W41525  37.011  34.483   4.544
76541W        W41526  29.206  38.817   1.243
76542W        W41527  24.038  33.901  11.312
76543W        W41528  27.767   2.496   1.314
76544W        W41529  19.187  17.177  14.866
76545W        W41530  44.024  42.364  14.082
76546W        W41531  29.640  41.092  12.442
76547W        W41532   8.506  23.581  11.245
76548W        W41533  44.512  30.934  10.685
76549W        W41534  22.316  34.063  13.259
76550W        W41535   6.503  35.295   2.687
76551W        W41536   9.421  17.211  10.717
76552W        W41537  36.790  15.617  12.977
76553W        W41538  13.695  43.399  13.071
76554W        W41539  40.915   0.967   3.853
76555W        W41540  11.224  43.283   1.386
76556W        W41541  28.253  39.507   2.056
76557W        W41542  10.796   5.373   0.438
76558W        W41543  22.578  17.795   4.595
76559W        W41544  23.382   7.871  11.118
76560W        W41545  28.472  22.821   1.171
76561W        W41546  38.912  34.444   2.896
76562W        W41547  41.947   8.851  12.231
76563W        W41548  16.949  23.494   1.745
76564W        W41549  39.922   1.965   2.831
76565W        W41550  23.236  44.210  12.479
76566W        W41551  10.125  30.936   0.437
76567W        W41552   0.511  38.846   4.148
76568W        W41553  16.404  34.598  13.408
76569W        W41554  17.101   4.227  11.019
76570W        W41555  24.257   6.259   3.651
76571W        W41556   3.707  35.248  13.283
76572W        W41557  35.579  12.809  14.986
76573W        W41558  35.908  44.335   2.315
76574W        W41559  23.340  32.597  10.524
76575W        W41560   6.493  34.292   3.757
76576W        W41561  34.496  41.162  13.342
76577W        W41562  41.732  40.256  14.718
76578W        W41563  39.448  41.052   1.521
76579W        W41564  36.217   2.196   2.916
76580W        W41565  24.196   1.320  14.229
76581W        W41566   0.539  33.640   3.280
76582W        W41567  17.178   8.479  10.312
76583W        W41568  23.463  42.795  11.078
76584W        W41569  36.855  37.038  14.110
76585W        W41570   5.085  39.788   3.716
76586W        W41571  24.061  36.874  11.707
76587W        W41572  43.004  40.244  11.828
76588W        W41573  43.390  15.362  11.160
76589W        W41574   5.869  17.045  13.021
76590W        W41575  17.689  18.228  12.274
76591W        W41576  26.211  38.912  11.958
76592W        W41577  27.196  16.306   3.836
76593W        W41578  15.846   5.871   1.396
76594W        W41579  13.782  10.381  14.961
76595W        W41580  36.414   1.446   1.880
76596W        W41581  36.305  39.625  11.989
76597W        W41582   8.828   0.210   1.355
76598W        W41583   2.301  16.944  14.421
76599W        W41584  32.833  21.546  10.557
76600W        W41585  32.382   0.664   2.293
76601W        W41586  32.748  41.876  14.312
76602W        W41587   9.805  20.441   4.261
76603W        W41588  36.324  39.345  12.439
76604W        W41589   1.703  35.118   2.555
76605W        W41590  18.674   5.963  13.850
76606W        W41591  17.324   7.282  12.536
76607W        W41592  20.289  39.762   4.849
76608W        W41593   1.612  27.859   2.381
76609W        W41594   7.930  44.689   4.358
76610W        W41595  11.143  43.320  12.998
76611W        W41596  26.591  15.615   1.929
76612W        W41597  37.610  38.410  14.514
76613W        W41598  11.394  17.315  12.849
76614W        W41599  13.270  29.632  13.481
76615W        W41600  29.751  16.532  10.894
76616W        W41601  40.531   6.265  13.327
76617W        W41602  34.603   5.452   4.602
76618W        W41603  13.577  30.609   4.547
76619W        W41604  42.519  36.509  12.870
76620W        W41605  44.801  27.262   4.667
76621W        W41606   7.722  27.451  13.883
76622W        W41607  35.822   7.358  12.460
76623W        W41608  17.285  10.314   2.286
76624W        W41609  12.967  27.105  11.168
76625W        W41610  22.776  30.087  14.784
76626W        W41611   3.696  31.006  11.989
76627W        W41612  43.504   6.200  11.536
76628W        W41613   5.915  18.972   4.469
76629W        W41614  16.218  37.437  14.308
76630W        W41615  21.831  44.343   4.481
76631W        W41616  14.272  23.501  14.507
76632W        W41617   9.391  43.043   3.750
76633W        W41618  10.078   0.079   3.841
76634W        W41619  27.242   8.227  10.661
76635W        W41620  41.066  16.250   2.716
76636W        W41621  36.012  27.551   2.244
76637W        W41622   2.218  18.536  14.827
76638W        W41623  40.304   3.167  13.360
76639W        W41624  29.353  41.345  12.942
76640W        W41625  39.936  18.587  11.488
76641W        W41626  36.952  36.627  12.884
76642W        W41627  33.033  37.632  14.542
76643W        W41628  43.006  44.232   4.009
76644W        W41629   5.624  33.301  12.937
76645W        W41630   9.333   5.823  13.884
76646W        W41631  20.716  30.023   4.396
76647W        W41632  10.660  38.255   0.846
76648W        W41633  42.815  13.070   1.784
76649W        W41634  16.217  17.075   2.363
76650W        W41635  44.239   1.348  14.776
76651W        W41636  36.241   8.660  13.909
76652W        W41637  37.736  27.408  13.402
76653W        W41638   9.237   4.877  14.219
76654W        W41639  10.479   1.717   0.876
76655W        W41640   6.353  41.410   1.584
76656W        W41641  43.015  29.441  11.985
76657W        W41642   6.417  30.623   1.387
76658W        W41643  44.357  12.155   1.848
76659W        W41644  13.240  38.555   2.176
76660W        W41645  11.172  29.031  14.631
76661W        W41646   0.200  13.166   2.415
76662W        W41647  22.739  42.940  12.848
76663W        W41648  35.910  21.208  10.716
76664W        W41649   5.281  26.778   0.819
76665W        W41650  35.449  13.767   1.405
76666W        W41651   2.440  28.839   3.015
76667W        W41652   4.434  18.416  14.428
76668W        W41653   7.743  20.674   0.380
76669W        W41654  44.951  42.976  11.988
76670W        W41655  23.713   9.655   0.756
76671W        W41656  15.711  19.032   1.734
76672W        W41657  34.272  17.407  13.149
76673W        W41658   0.849  13.978  10.230
76674W        W41659  37.439   5.793   1.396
76675W        W41660  16.249  23.730   0.031
76676W        W41661   3.481  16.686   1.611
76677W        W41662  20.180  29.531   3.898
76678W        W41663  17.746  19.693  14.189
76679W        W41664  28.642  24.630   2.772
76680W        W41665  17.022  13.403   2.314
76681W        W41666  36.500  40.127  11.920
76682W        W41667   5.565  27.537  12.393
76683W        W41668  29.122  10.503   3.312
76684W        W41669   4.560   5.646   3.126
76685W        W41670  25.087   4.209  11.230
76686W        W41671  29.925  44.859   1.688
76687W        W41672  40.570  42.877  10.675
76688W        W41673   8.620   1.262   1.689
76689W        W41674  26.670  39.321   3.183
76690W        W41675  29.552  17.951   4.116
76691W        W41676  25.501  31.396   2.609
76692W        W41677   2.726  20.184   1.242
76693W        W41678   4.311   7.093  13.477
76694W        W41679  37.121  14.647  14.484
76695W        W41680  10.849  38.059  12.416
76696W        W41681   5.744  32.071   4.743
76697W        W41682  11.213  22.955  14.349
76698W        W41683  18.726  39.411   4.780
76699W        W41684  16.615  20.533   2.076
76700W        W41685  34.465  28.582  12.461
76701W        W41686  23.472  26.606   0.792
76702W        W41687  28.131   6.250   3.338
76703W        W41688  40.812  38.961   1.864
76704W        W41689  35.094  34.651   1.385
76705W        W41690  13.147  28.648  14.782
76706W        W41691  30.559  40.282  11.852
76707W        W41692  19.565  10.205   1.134
76708W        W41693  16.643  16.088  10.740
76709W        W41694  34.927  37.560  12.444
76710W        W41695  21.536  28.614  13.878
76711W        W41696  41.049  37.563   3.994
76712W        W41697  15.752  12.676  11.581
76713W        W41698   7.691   9.713   2.246
76714W        W41699   1.486  35.433  12.357
76715W        W41700  37.596  27.262   5.258
76716W        W41701  37.916  39.532   1.963
76717W        W41702  30.177  19.146   3.597
76718W        W41703  33.985  38.554   4.084
76719W        W41704  43.381  42.201   0.955
76720W        W41705  40.048  33.403   1.681
76721W        W41706  39.817  37.998   1.431
76722W        W41707  13.096  11.826  13.427
76723W        W41708  39.911  44.619  13.571
76724W        W41709  16.707  35.900   4.295
76725W        W41710   8.880  42.175  12.081
76726W        W41711  16.173  18.331  11.567
76727W        W41712  28.114  29.534  13.833
76728W        W41713  15.868  10.283  12.064
76729W        W41714   5.700  20.186  11.579
76730W        W41715  27.145   5.085   0.147
76731W        W41716  10.625  42.823   0.925
76732W        W41717   6.329  26.270  11.302
76733W        W41718   9.068  24.461   0.062
76734W        W41719   0.702   1.736  13.072
76735W        W41720  41.724  20.812   3.817
76736W        W41721  35.068  15.691  12.585
76737W        W41722  12.348  39.663  14.487
76738W        W41723  36.997   0.201   0.975
76739W        W41724  41.211   8.884   3.645
76740W        W41725   6.098  40.277  11.981
76741W        W41726   6.301   6.937   2.713
76742W        W41727   5.167  28.568   2.152
76743W        W41728  27.997  39.910   1.526
76744W        W41729   5.727  15.232  10.715
76745W        W41730  12.282   1.219  14.431
76746W        W41731  15.655  18.059   3.355
76747W        W41732  33.610  12.399  11.942
76748W        W41733  10.666  14.277  12.655
76749W        W41734  17.173  23.772   3.106
76750W        W41735  13.755  28.406  10.551
76751W        W41736  12.578  30.385  13.490
76752W        W41737  32.004  34.331   9.842
76753W        W41738  19.579   5.859  13.985
76754W        W41739  42.368  20.706  11.176
76755W        W41740  35.679  17.770   0.807
76756W        W41741  43.096  22.147   1.726
76757W        W41742  19.531  18.076  12.456
76758W        W41743  40.082  32.163   0.987
76759W        W41744  40.152  34.905   3.013
76760W        W41745  25.644   9.578  14.899
76761W        W41746  18.723  30.545   1.827
76762W        W41747  39.330  27.165   1.401
76763W        W41748  17.206  15.054   2.038
76764W        W41749   3.037   3.996  12.098
76765W        W41750   9.680  16.337   0.953
76766W        W41751  16.110   0.491   3.677
76767W        W41752   6.939  14.870   1.248
76768W        W41753  27.545   0.229   5.290
76769W        W41754  27.464   3.180  13.820
76770W        W41755  17.555  35.449  12.219
76771W        W41756  31.239   8.754   1.307
76772W        W41757  26.647  37.143   1.746
76773W        W41758  32.381   8.064   1.475
76774W        W41759  12.628  29.386   1.759
76775W        W41760  38.988  23.379   3.625
76776W        W41761  16.631  33.360   3.564
76777W        W41762  17.459  10.435  12.352
76778W        W41763  43.992  26.673   5.525
76779W        W41764   0.778  36.113  13.756
76780W        W41765   9.211  27.146   1.498
76781W        W41766   4.900  39.173   3.093
76782W        W41767  22.058  43.871   1.713
76783W        W41768  39.943  12.652   3.177
76784W        W41769   1.494  11.949   0.019
76785W        W41770  33.067  12.328  14.501
76786W        W41771  34.203  38.060   1.259
76787W        W41772  20.120  26.076  13.850
76788W        W41773  22.602  30.731   1.239
76789W        W41774  39.823  33.383  11.104
76790W        W41775  29.099  32.894  11.967
76791W        W41776  29.782  30.363   3.709
76792W        W41777   0.739   2.282  12.464
76793W        W41778   7.615  25.360  12.203
76794W        W41779  13.107  34.407   1.415
76795W        W41780  32.362  31.390   0.800
76796W        W41781  27.877  21.611   3.279
76797W        W41782  12.059   3.273   2.612
76798W        W41783  21.485   9.800   1.323
76799W        W41784  35.765  11.496   3.442
76800W        W41785  26.947  42.317   0.271
76801W        W41786   8.433  26.164   3.682
76802W        W41787  18.099   7.324   4.470
76803W        W41788  33.354  21.630  11.523
76804W        W41789  41.788  42.295  12.592
76805W        W41790   2.258  10.167  14.803
76806W        W41791  44.925  28.883  11.554
76807W        W41792  10.084  29.165  10.324
76808W        W41793  33.119   1.267   3.778
76809W        W41794   5.770  36.854  11.028
76810W        W41795  22.516  32.485  10.958
76811W        W41796  26.750   8.194  10.845
76812W        W41797  42.011   3.400  13.884
76813W        W41798   1.822  36.459   4.565
76814W        W41799   2.845   7.261   2.695
76815W        W41800  31.171   7.840  14.860
76816W        W41801  29.472  24.611  11.564
76817W        W41802   7.611  43.906  10.732
76818W        W41803  19.615  20.640   2.943
76819W        W41804  31.000  32.897   4.977
76820W        W41805   9.152  38.037   4.189
76821W        W41806   7.358   4.525  12.773
76822W        W41807   0.826  21.063  14.150
76823W        W41808  33.072  29.650   0.911
76824W        W41809  10.626   9.948  13.585
76825W        W41810   7.339  23.235   1.967
76826W        W41811  26.000  10.701   1.484
76827W        W41812  23.476  34.468   0.427
76828W        W41813  24.506  42.507  11.603
76829W        W41814   3.095  19.024  11.922
76830W        W41815  14.799  14.372  13.993
76831W        W41816  14.062  32.601   4.192
76832W        W41817   4.018  17.240   0.010
76833W        W41818  10.354  42.277  10.252
76834W        W41819  17.648  17.291   1.366
76835W        W41820  40.677   0.421  12.206
76836W        W41821  25.009  21.607  10.650
76837W        W41822  17.431   0.758  13.392
76838W        W41823  32.017  41.010   2.030
76839W        W41824  35.322  39.971   0.726
76840W        W41825  24.620  40.348   1.720
76841W        W41826  26.886  19.001   1.526
76842W        W41827  17.568  11.870  12.357
76843W        W41828  37.245  32.811  11.110
76844W        W41829  22.395   6.765   5.078
76845W        W41830  16.336  28.972  10.615
76846W        W41831  34.337  13.734   3.139
76847W        W41832   3.981  19.941   4.110
76848W        W41833   6.172  31.060   2.889
76849W        W41834  31.547  17.217   2.270
76850W        W41835  30.419   0.179  10.494
76851W        W41836   7.728   1.036  14.542
76852W        W41837  16.682  30.874   1.883
76853W        W41838   1.238  40.912   4.004
76854W        W41839  17.981  43.983   0.694
76855W        W41840  43.919  29.745   0.149
76856W        W41841   1.807  24.289   1.256
76857W        W41842  13.124  44.734  11.975
76858W        W41843  26.664  30.054   1.775
76859W        W41844  34.027  13.281   0.546
76860W        W41845  14.314  44.195   3.693
76861W        W41846  12.779  22.076  11.879
76862W        W41847  32.164  22.821   0.868
76863W        W41848  30.515  29.127  12.633
76864W        W41849  20.309   7.426   1.224
76865W        W41850  39.380  32.388   1.172
76866W        W41851  19.561   6.604  14.448
76867W        W41852   6.193  36.658  11.261
76868W        W41853  26.073  33.984  13.319
76869W        W41854  36.348  31.965  14.321
76870W        W41855   2.012   0.876   1.265
76871W        W41856  44.678  38.020   1.367
76872W        W41857  33.626  16.656   2.590
76873W        W41858   6.020  42.800   2.674
76874W        W41859  30.297  34.620   4.045
76875W        W41860  36.294  43.006  13.797
76876W        W41861  26.740  21.054  14.421
76877W        W41862   4.148   2.808  11.180
76878W        W41863  33.819  11.597  14.014
76879W        W41864  20.376  14.352  11.614
76880W        W41865  12.694  11.496   1.206
76881W        W41866  35.985   2.094  13.323
76882W        W41867   3.224   6.859  11.976
76883W        W41868  28.979  44.530   1.381
76884W        W41869  29.427  43.239   9.907
76885W        W41870  37.939  36.379  11.041
76886W        W41871   7.058  40.174   4.699
76887W        W41872  32.853  12.806  13.023
76888W        W41873  26.715  40.082  10.120
76889W        W41874  31.410   9.630  11.736
76890W        W41875  29.948  25.686  10.756
76891W        W41876  13.362  19.757  13.450
76892W        W41877  25.907  29.484   4.953
76893W        W41878  40.785  27.409   1.868
76894W        W41879   3.516  31.479  12.931
76895W        W41880   6.196  23.597   3.235
76896W        W41881  40.337  17.347  14.012
76897W        W41882  36.549  44.223   1.768
76898W        W41883  38.882  40.974  13.403
76899W        W41884  27.628  43.531   3.806
76900W        W41885   7.601  27.538   2.277
76901W        W41886   2.271  26.730   4.987
76902W        W41887  17.287  26.432   1.021
76903W        W41888  27.054  32.971   4.388
76904W        W41889  13.361  18.963   0.722
76905W        W41890  31.380  29.126  13.922
76906W        W41891  34.333   7.960   3.308
76907W        W41892  19.667  37.862   0.461
76908W        W41893   2.240  19.486  14.848
76909W        W41894  31.342   0.599  11.464
76910W        W41895  14.419  20.698   4.371
76911W        W41896  26.889  34.675   5.124
76912W        W41897  23.983  19.519   4.132
76913W        W41898   1.713  42.951  13.939
76914W        W41899  23.691   8.320  10.763
76915W        W41900  28.655  25.626  13.570
76916W        W41901   3.431  30.540  10.986
76917W        W41902  28.871  42.325   0.774
76918W        W41903  27.650  21.570   0.474
76919W        W41904   5.316  16.833   4.803
76920W        W41905  30.140  38.623  13.415
76921W        W41906   9.908  32.602  12.342
76922W        W41907  34.000   7.074  10.718
76923W        W41908  22.704  40.761  11.764
76924W        W41909   2.212  26.918  14.490
76925W        W41910  16.146  42.875   2.691
76926W        W41911   1.942  43.792  11.199
76927W        W41912  35.673  23.857  11.619
76928W        W41913  38.846  22.094   0.370
76929W        W41914  22.440  17.075  12.933
76930W        W41915  21.159  42.913  10.829
76931W        W41916  15.312  25.975  10.233
76932W        W41917  10.453  14.192  12.207
76933W        W41918  29.907  10.242   1.795
76934W        W41919   6.375  19.505   0.745
76935W        W41920  29.025  17.169  14.010
76936W        W41921  22.647  28.864  12.604
76937W        W41922   3.284  16.356   2.441
76938W        W41923  38.783  23.509   0.939
76939W        W41924  22.289  17.405   4.407
76940W        W41925  35.571  43.141   4.981
76941W        W41926   8.129  35.833   4.575
76942W        W41927  25.510  11.208   3.725
76943W        W41928  15.086  13.401  11.306
76944W        W41929  31.987  38.717   3.026
76945W        W41930   9.335  44.974  14.280
76946W        W41931   4.845  27.418   3.228
76947W        W41932  27.409  26.518   1.424
76948W        W41933   7.405   8.910   0.330
76949W        W41934  17.954  28.657   3.709
76950W        W41935  33.128  40.312  14.314
76951W        W41936  21.715  16.225   4.594
76952W        W41937  28.457  37.001   0.847
76953W        W41938   2.464  26.082  14.961
76954W        W41939  25.480  37.983   2.958
76955W        W41940  44.027  35.025   5.045
76956W        W41941   8.356  39.801  14.842
76957W        W41942  37.049   7.931   4.960
76958W        W41943   9.204  28.903  13.897
76959W        W41944  28.613  34.003   0.826
76960W        W41945  39.462  20.897   4.932
76961W        W41946  32.512  35.141   2.330
76962W        W41947  24.113  27.246  14.795
76963W        W41948  26.493  29.570   1.756
76964W        W41949  38.000  40.999   1.678
76965W        W41950  35.077  20.122   0.906
76966W        W41951   8.263  24.310  13.617
76967W        W41952  22.751  40.889   3.403
76968W        W41953  13.099  28.970  10.255
76969W        W41954  40.405  33.430   5.350
76970W        W41955  15.064  11.945  12.449
76971W        W41956  30.447  17.757   4.597
76972W        W41957  28.176   5.919   1.254
76973W        W41958  34.739  24.719  11.272
76974W        W41959  24.162   0.922   1.273
76975W        W41960  11.163  14.564  14.080
76976W        W41961  36.953   6.207  10.616
76977W        W41962  20.486  14.093  11.169
76978W        W41963  16.578  30.031  12.394
76979W        W41964  12.142  34.081   2.194
76980W        W41965  44.999  42.253  12.890
76981W        W41966  22.335  41.000  14.787
76982W        W41967   6.626  22.563  14.010
76983W        W41968  18.245   7.011  10.664
76984W        W41969  17.925   6.874  13.427
76985W        W41970   4.908   0.230  14.487
76986W        W41971  26.445   6.484   0.880
76987W        W41972   8.621  15.938  11.849
76988W        W41973  41.013  15.508  10.419
76989W        W41974  18.784   6.186   2.756
76990W        W41975   7.687  20.032   2.817
76991W        W41976   0.071  42.873  14.896
76992W        W41977  17.992  23.675  13.744
76993W        W41978  42.414  23.031  14.519
76994W        W41979  27.353  44.135   0.479
76995W        W41980  40.442  20.834   3.211
76996W        W41981  11.770   4.300   4.874
76997W        W41982  20.088   5.897  13.260
76998W        W41983   6.269   7.300   3.138
76999W        W41984  34.023  11.439   3.748
77000W        W41985  14.330   2.234  11.905
77001W        W41986  22.090   3.198   0.011
77002W        W41987  33.454   1.614  10.239
77003W        W41988  34.976  18.443  14.493
77004W        W41989  19.084  20.779   2.758
77005W        W41990  41.722   0.980   0.291
77006W        W41991  37.108  44.817   0.626
77007W        W41992   5.200  42.208  11.951
77008W        W41993  17.491   0.255   3.357
77009W        W41994  27.781  39.707   1.946
77010W        W41995   4.980  42.843   2.734
77011W        W41996  19.700  37.046  12.998
77012W        W41997  29.514  43.173   0.769
77013W        W41998  30.590  43.847  14.312
77014W        W41999  16.400   1.741  11.009
77015W        W42000  33.039  24.236  13.065
77016W        W42001   7.346  30.627  11.591
77017W        W42002  11.228  15.164  10.681
77018W        W42003  28.088  17.447  11.995
77019W        W42004  12.174  39.247  13.143
77020W        W42005  19.238  24.921   2.446
77021W        W42006  10.164  13.233   0.862
77022W        W42007  34.019  27.465   0.391
77023W        W42008  36.900  26.640  11.095
77024W        W42009   7.923  32.536  14.555
77025W        W42010  22.111  15.018   3.318
77026W        W42011  23.022  31.835   3.299
77027W        W42012  38.235  34.665   1.319
77028W        W42013  18.229  31.499  14.262
77029W        W42014  42.290  22.184   5.599
77030W        W42015  36.100   0.859   2.848
77031W        W42016  35.821  41.730   1.548
77032W        W42017  17.761  29.508   3.542
77033W        W42018  33.406   8.706  13.386
77034W        W42019  14.355  41.507  13.521
77035W        W42020  25.383   9.847  11.256
77036W        W42021  29.423  17.720   0.004
77037W        W42022  12.781  40.538  11.059
77038W        W42023  12.828  14.850  14.337
77039W        W42024  28.127  14.374  14.480
77040W        W42025  27.697  16.029   0.614
77041W        W42026  13.410  29.499   0.326
77042W        W42027   2.407  16.311   3.953
77043W        W42028  42.547  31.099   5.044
77044W        W42029  32.571  38.326   2.267
77045W        W42030   4.759  28.423  13.336
77046W        W42031  16.704   1.857   2.738
77047W        W42032  36.440  10.816  12.999
77048W        W42033  43.500  38.924   1.221
77049W        W42034  37.697  38.609  13.673
77050W        W42035  17.553  20.112   2.638
77051W        W42036   5.173  25.155   2.901
77052W        W42037  40.453  14.297  13.471
77053W        W42038  26.901  32.752  12.877
77054W        W42039   4.942  26.385  10.075
77055W        W42040  34.674  18.517  13.248
77056W        W42041  18.959   9.410  12.530
77057W        W42042  11.111  14.108   3.276
77058W        W42043  42.101   8.109  13.037
77059W        W42044  44.479  42.889   1.489
77060W        W42045  17.671  24.240  12.431
77061W        W42046  43.099  29.434  10.102
77062W        W42047  20.613  17.667   1.022
77063W        W42048  36.601  26.594  12.411
77064W        W42049  23.261   8.375   4.427
77065W        W42050  39.152  28.094  13.992
77066W        W42051  34.612  26.223  11.982
77067W        W42052  34.797  27.545  11.982
77068W        W42053  44.402   9.985  12.977
77069W        W42054   9.300  10.301  14.630
77070W        W42055  27.010  35.806   0.913
77071W        W42056  24.605  13.194   2.244
77072W        W42057  30.914  12.604   0.126
77073W        W42058  35.100  10.299  12.844
77074W        W42059  12.199  39.902   1.262
77075W        W42060   9.174  40.956   2.706
77076W        W42061  39.159   3.016   0.760
77077W        W42062  28.881   0.026  12.936
77078W        W42063  26.605  34.030   2.008
77079W        W42064   3.197  30.135  12.004
77080W        W42065  37.372  26.626   4.610
77081W        W42066  37.959   8.860   1.878
77082W        W42067   9.348  17.184  14.379
77083W        W42068  20.700  29.753   0.526
77084W        W42069  20.827   1.906   3.254
77085W        W42070  17.857  40.580   1.075
77086W        W42071   2.889  12.244  10.972
77087W        W42072  14.642  15.817  14.907
77088W        W42073  22.081   0.449   4.711
77089W        W42074  14.185  27.085   5.045
77090W        W42075  16.059  32.966  12.965
77091W        W42076  29.587  42.846  11.154
77092W        W42077  31.219   9.467  13.283
77093W        W42078  31.532  38.778   1.341
77094W        W42079  34.463  38.916  14.052
77095W        W42080   7.482  24.143   4.980
77096W        W42081  40.531  19.243   2.864
77097W        W42082  42.342   3.918   4.168
77098W        W42083  30.700  38.485  14.040
77099W        W42084   1.047   1.414  13.359
77100W        W42085  44.397   8.620   0.443
77101W        W42086   9.498  29.897   3.354
77102W        W42087   6.187  34.897   4.191
77103W        W42088   3.248   3.229  11.086
77104W        W42089  33.420  40.653   1.728
77105W        W42090  26.513   9.332   0.961
77106W        W42091  17.112  16.120   2.633
77107W        W42092  31.480  24.967  14.078
77108W        W42093  26.790   4.693   0.131
77109W        W42094  35.045  14.916   0.385
77110W        W42095  27.909  26.197   0.210
77111W        W42096  44.006  22.564   0.235
77112W        W42097   2.264   7.083  11.010
77113W        W42098  31.580   6.468   2.617
77114W        W42099  44.390   9.309  13.222
77115W        W42100  32.015   0.784  12.503
77116W        W42101  17.740  32.032  11.910
77117W        W42102  32.225  26.281   4.301
77118W        W42103   7.489  25.854   4.589
77119W        W42104  23.131  16.555   3.699
77120W        W42105  30.944   6.380   4.552
77121W        W42106   8.338  10.649   0.259
77122W        W42107   5.322  28.562  14.033
77123W        W42108  33.849   9.902   1.967
77124W        W42109  39.535  35.964   0.408
77125W        W42110  16.953  28.120  13.038
77126W        W42111  31.008  17.244   4.635
77127W        W42112  17.588  22.562  13.731
77128W        W42113   6.043  17.215   1.732
77129W        W42114   8.989   4.851   4.601
77130W        W42115  36.955  26.673  13.481
77131W        W42116  25.457  34.988  11.289
77132W        W42117  38.290  38.751  10.068
77133W        W42118  12.435  36.039   2.874
77134W        W42119  27.657  41.087  13.416
77135W        W42120   8.144  32.658   4.522
77136W        W42121  43.385  41.432  12.220
77137W        W42122  22.044  43.774   0.154
77138W        W42123   8.367  28.071  14.355
77139W        W42124   7.630  13.686   1.012
77140W        W42125  19.101  32.692  12.943
77141W        W42126  13.074  22.957  13.134
77142W        W42127   9.211  34.402   4.612
77143W        W42128   3.870  12.510   2.775
77144W        W42129  34.375  41.536   1.458
77145W        W42130   7.921  30.073  13.438
77146W        W42131  19.767  33.810   2.348
77147W        W42132  18.033   1.187   4.957
77148W        W42133  21.737  19.544  13.474
77149W        W42134  18.519  40.499  12.468
77150W        W42135  22.680  30.991   3.587
77151W        W42136  42.574  11.667  10.671
77152W        W42137  26.568   6.273  13.414
77153W        W42138   2.138  20.774  11.104
77154W        W42139  38.076   9.325   1.709
77155W        W42140  40.768  29.409   2.576
77156W        W42141   9.305  30.929   3.985
77157W        W42142  18.752  35.922  10.939
77158W        W42143  35.613   2.431   4.595
77159W        W42144  41.016  25.131   0.197
77160W        W42145   9.312  36.667  10.667
77161W        W42146  30.656  22.522  13.268
77162W        W42147  25.528  13.852   2.882
77163W        W42148   8.885  28.289   3.251
77164W        W42149   8.765  13.923  14.863
77165W        W42150  11.421   9.330   1.156
77166W        W42151  30.279  23.934   0.835
77167W        W42152  34.667  17.479   1.739
77168W        W42153  38.897  13.440   0.853
77169W        W42154  20.447  26.911   0.741
77170W        W42155  40.345   7.373   3.705
77171W        W42156   1.051  40.177  14.507
77172W        W42157  21.042  21.145   0.427
77173W        W42158   3.990  13.744   0.385
77174W        W42159  36.149  23.899   1.992
77175W        W42160  37.255  23.549   1.898
77176W        W42161  10.189  41.530  14.825
77177W        W42162  15.737  43.543   3.867
77178W        W42163  18.246   2.380   0.717
77179W        W42164   3.376  19.847   0.355
77180W        W42165  21.218  34.911   3.660
77181W        W42166  40.820  13.271  14.275
77182W        W42167  11.913  14.831  14.495
77183W        W42168  41.487  10.708  12.341
77184W        W42169  22.939  42.374  10.634
77185W        W42170   3.554  29.251  14.328
77186W        W42171  22.726  44.251  12.370
77187W        W42172  14.711  30.986  11.181
77188W        W42173  36.104  30.427   0.349
77189W        W42174  14.170  36.296   4.841
77190W        W42175  11.482  36.793   2.688
77191W        W42176  41.750  44.340  13.299
77192W        W42177   8.377   9.124   1.746
77193W        W42178   2.732   9.951  12.568
77194W        W42179  25.433  11.921   0.448
77195W        W42180  33.782  29.023  11.525
77196W        W42181  37.134  43.010   1.361
77197W        W42182  10.341   1.781  11.199
77198W        W42183  37.019  17.026   2.753
77199W        W42184   9.651  31.994   1.680
77200W        W42185  20.232  18.788   2.737
77201W        W42186  11.603  39.942  12.914
77202W        W42187  39.036  34.902  14.308
77203W        W42188  23.466  29.223   0.462
77204W        W42189  37.633   0.728  11.955
77205W        W42190  30.426   4.682   1.793
77206W        W42191  38.162  12.203   1.874
77207W        W42192  11.841  39.458   1.296
77208W        W42193   2.876   4.820  11.440
77209W        W42194  18.152  20.041  14.758
77210W        W42195  27.057  28.554   0.248
77211W        W42196  35.912   6.713   9.545
77212W        W42197  42.584   7.043  12.665
77213W        W42198  12.617  33.174  14.047
77214W        W42199  36.799  25.173  12.507
77215W        W42200  25.109   1.071   2.994
77216W        W42201  20.806  22.653  10.307
77217W        W42202  28.191  10.130   4.768
77218W        W42203  37.309  42.508  12.019
77219W        W42204   3.919  30.052   1.643
77220W        W42205  12.789  28.649   3.233
77221W        W42206  43.838  11.317  11.666
77222W        W42207   8.912  23.572  13.519
77223W        W42208  36.983  24.111   4.065
77224W        W42209   3.838  40.491   2.694
77225W        W42210   6.432  19.456   2.217
77226W        W42211  18.637  10.018   4.735
77227W        W42212  22.228  30.888  14.780
77228W        W42213   3.746  36.418  13.881
77229W        W42214  14.106  14.646   1.313
77230W        W42215  42.463  22.156  14.423
77231W        W42216  27.393   1.406   0.961
77232W        W42217   3.234  37.972   1.900
77233W        W42218  25.651  39.776   3.826
77234W        W42219  29.515  17.401  14.009
77235W        W42220  17.849   2.907  14.025
77236W        W42221   2.476  18.004   2.303
77237W        W42222  23.763  22.508   4.457
77238W        W42223  35.903  37.892  12.378
77239W        W42224  38.010  30.024   3.415
77240W        W42225  23.029   4.203  12.679
77241W        W42226  15.301  30.132  14.995
77242W        W42227  11.840  34.894   1.659
77243W        W42228  11.281  29.640  10.890
77244W        W42229  44.515  37.948  14.363
77245W        W42230  31.708  38.868  10.560
77246W        W42231  39.040  44.774  11.136
77247W        W42232  26.324  26.607   2.467
77248W        W42233   6.286  36.047   0.632
77249W        W42234  10.593  19.120   4.673
77250W        W42235  34.581   8.606  12.588
77251W        W42236  33.630   0.851   2.332
77252W        W42237  40.515  27.082  11.967
77253W        W42238  19.505  15.821  12.075
77254W        W42239  43.413  27.405   1.439
77255W        W42240   1.982  28.159  11.525
77256W        W42241  44.686  14.098   0.376
77257W        W42242  23.019  32.415  10.905
77258W        W42243   3.992  27.698   1.232
77259W        W42244  16.671  12.660  14.450
77260W        W42245  33.885  43.418  10.367
77261W        W42246  22.113  11.720  12.497
77262W        W42247  42.874   1.952   4.570
77263W        W42248  17.656  39.594   0.817
77264W        W42249  19.824  28.684   0.335
77265W        W42250  44.919   6.868  13.493
77266W        W42251  13.532  42.390   0.420
77267W        W42252  37.103  29.683   1.213
77268W        W42253  28.962  10.961  14.573
77269W        W42254  29.491  13.947   2.767
77270W        W42255  11.763  39.843  10.787
77271W        W42256   2.088  14.204  13.899
77272W        W42257  31.191  11.605  12.433
77273W        W42258   9.248   4.402   0.827
77274W        W42259  15.271  20.810   0.825
77275W        W42260  17.830   9.919   4.552
77276W        W42261  41.516  37.667   0.811
77277W        W42262  16.994  38.754  10.388
77278W        W42263  22.669  39.806  14.507
77279W        W42264  22.070  26.994  13.638
77280W        W42265  32.300  17.150  13.023
77281W        W42266  16.760  19.653  13.382
77282W        W42267  40.754  31.618  14.178
77283W        W42268  10.927  42.054  13.580
77284W        W42269  28.881  35.191  13.284
77285W        W42270   3.987   3.685  11.352
77286W        W42271   1.315  11.795   4.215
77287W        W42272  12.729  23.607   1.737
77288W        W42273  10.009  41.495   4.629
77289W        W42274  28.809  21.637  13.915
77290W        W42275  14.851  30.816  13.518
77291W        W42276  31.864  31.090  11.698
77292W        W42277  15.946   0.953   3.905
77293W        W42278  14.162   6.996  14.969
77294W        W42279  32.816  11.657   1.849
77295W        W42280  19.531  18.523   1.449
77296W        W42281  19.240  22.182  10.559
77297W        W42282  34.977  23.161   1.817
77298W        W42283  24.678   2.889   5.476
77299W        W42284  43.873  40.995   1.291
77300W        W42285  20.236  41.246  12.661
77301W        W42286   8.525  43.886   1.269
77302W        W42287  35.568  25.676  11.650
77303W        W42288  20.291  44.351   2.614
77304W        W42289  38.409  19.963  10.697
77305W        W42290   6.139  16.503   1.666
77306W        W42291   8.796  39.804  14.365
77307W        W42292  16.985  29.533   0.836
77308W        W42293  43.960  33.021  10.772
77309W        W42294   2.774  10.081  11.247
77310W        W42295  36.432  26.257   4.747
77311W        W42296  40.011  36.057  12.800
77312W        W42297  18.625  41.484   3.715
77313W        W42298  14.775  15.460   3.608
77314W        W42299  21.505  44.776   4.600
77315W        W42300   4.797  27.371   1.457
77316W        W42301  43.313  36.592   4.482
77317W        W42302  17.136   3.989   3.682
77318W        W42303  20.208  18.213   0.229
77319W        W42304   9.867  26.593  11.124
77320W        W42305   9.721  13.192  13.990
77321W        W42306  17.197  43.467  12.740
77322W        W42307  15.869   0.042   3.760
77323W        W42308  28.184  15.347   0.701
77324W        W42309  35.319  32.772   3.215
77325W        W42310  26.012   4.272   3.702
77326W        W42311   0.666  26.706   2.187
77327W        W42312  24.067  20.759   1.850
77328W        W42313  10.008  28.372   3.724
77329W        W42314  43.640  16.157  10.727
77330W        W42315  35.928  42.388  11.260
77331W        W42316   7.776   4.812   3.954
77332W        W42317   3.990   6.382  12.041
77333W        W42318  27.595  12.824   2.815
77334W        W42319  25.787  25.483   4.762
77335W        W42320  18.017  43.038   3.000
77336W        W42321  36.552  35.606  11.963
77337W        W42322  22.255   2.038  14.371
77338W        W42323  23.385  16.130  13.434
77339W        W42324  44.845  28.649   4.715
77340W        W42325  44.526  10.380  14.845
77341W        W42326  18.064   5.121  11.541
77342W        W42327  24.697  13.101  13.404
77343W        W42328  29.524  12.019  12.632
77344W        W42329  31.333  25.093   0.109
77345W        W42330  14.773  31.572   3.292
77346W        W42331  39.320   2.727  11.755
77347W        W42332  32.619   8.303  13.425
77348W        W42333  18.587   2.680   4.228
77349W        W42334  27.590   6.197  11.070
77350W        W42335  31.945  39.438  13.952
77351W        W42336  11.767   8.922   3.640
77352W        W42337  32.537  18.155  14.138
77353W        W42338   5.477   1.932  12.019
77354W        W42339   3.385  26.164  12.448
77355W        W42340   9.587  35.416   4.432
77356W        W42341  38.624   7.242  13.792
77357W        W42342  36.205  25.711   0.400
77358W        W42343  24.472  44.558   3.271
77359W        W42344  24.504  37.865   1.370
77360W        W42345  44.616  26.668  12.075
77361W        W42346   2.284  43.508   2.642
77362W        W42347  18.781  11.485  11.123
77363W        W42348  44.402  36.188  14.595
77364W        W42349   6.319  38.588   3.611
77365W        W42350  42.213  40.526  11.788
77366W        W42351   7.432  37.009  11.056
77367W        W42352  23.753   5.700  10.472
77368W        W42353  34.949   6.824   4.546
77369W        W42354  28.652  27.633   4.091
77370W        W42355   1.728  27.897  11.146
77371W        W42356   1.654   6.351  12.892
77372W        W42357   8.947  37.093  11.079
77373W        W42358  38.988  12.542   0.022
77374W        W42359  25.259   8.592  14.504
77375W        W42360  31.187  32.102  13.448
77376W        W42361  34.497  11.826  14.993
77377W        W42362   2.748  35.383   4.566
77378W        W42363  34.114  40.098  13.956
77379W        W42364  39.018   6.613  11.522
77380W        W42365   6.383  31.413   3.289
77381W        W42366  37.990  31.272   1.205
77382W        W42367  41.197  35.378  13.882
77383W        W42368  33.893  17.933   3.536
77384W        W42369   7.734   4.391   2.130
77385W        W42370  28.717  21.037  10.518
77386W        W42371   0.103   4.920  13.087
77387W        W42372  24.987  34.176  11.707
77388W        W42373  24.660  37.072   3.311
77389W        W42374  28.004  27.419  14.070
77390W        W42375  17.853  23.090   1.877
77391W        W42376  19.551  12.666   0.447
77392W        W42377  11.499   2.192  11.763
77393W        W42378  14.107  40.432   1.450
77394W        W42379  11.827  23.249  11.915
77395W        W42380  41.144  37.328  10.835
77396W        W42381  10.813  12.924  12.597
77397W        W42382   3.729  43.630   1.635
77398W        W42383   0.387  36.535  13.607
77399W        W42384  26.936  26.565   3.145
77400W        W42385  40.797  24.142  14.334
77401W        W42386  30.239  20.992   1.440
77402W        W42387  24.473  33.352   5.415
77403W        W42388  12.758  15.736   1.722
77404W        W42389  15.875  15.965  11.702
77405W        W42390   2.527   1.511   4.792
77406W        W42391  15.190  41.769   1.681
77407W        W42392  21.219  16.196   2.593
77408W        W42393  10.924   6.414   3.411
77409W        W42394  35.983  37.872   3.914
77410W        W42395  27.719   8.524  13.839
77411W        W42396  42.991  25.005   0.158
77412W        W42397  24.473  34.846  11.124
77413W        W42398  17.124  30.715  13.992
77414W        W42399  43.492   2.478   3.878
77415W        W42400  35.505   4.681  14.503
77416W        W42401   6.186  22.742  10.792
77417W        W42402   2.597  12.653  10.300
77418W        W42403  13.216  20.460  12.161
77419W        W42404  20.644  32.140  13.100
77420W        W42405  32.041  28.964  10.357
77421W        W42406  26.158  16.291   2.183
77422W        W42407   1.817  26.579   0.302
77423W        W42408  43.173  10.401  13.900
77424W        W42409   5.293  24.015  12.429
77425W        W42410  16.730  18.711  12.350
77426W        W42411   4.048  28.470   1.899
77427W        W42412  37.226  26.196  12.882
77428W        W42413   0.881   9.880  13.461
77429W        W42414  18.698   2.011   1.452
77430W        W42415  23.661  37.663  11.319
77431W        W42416  19.791  22.009   2.627
77432W        W42417  40.274  40.555  11.364
77433W        W42418  44.780  20.967   3.818
77434W        W42419  30.161  33.659   1.386
77435W        W42420  10.750  21.002   3.610
77436W        W42421  15.137  18.818  12.003
77437W        W42422   3.396  41.900   5.104
77438W        W42423  13.364  32.854  11.521
77439W        W42424  27.031  25.158   2.657
77440W        W42425  17.904   9.762  11.704
77441W        W42426   5.211  37.085   4.919
77442W        W42427  14.689  39.732   2.939
77443W        W42428  30.823  44.429   4.887
77444W        W42429   8.664  42.664  12.134
77445W        W42430   8.407   0.893  14.974
77446W        W42431   0.708  41.448   1.885
77447W        W42432  12.153  18.518   2.731
77448W        W42433   0.232  29.162  14.095
77449W        W42434  25.637  38.917   4.383
77450W        W42435  33.937  44.694   2.610
77451W        W42436  31.170  25.473  11.117
77452W        W42437  32.006  16.836  14.129
77453W        W42438  18.522  44.758   2.598
77454W        W42439  20.022  14.420  12.963
77455W        W42440  16.789  31.650   0.342
77456W        W42441  44.760  42.475  12.486
77457W        W42442  16.213   5.455   1.469
77458W        W42443  22.343  24.453  10.774
77459W        W42444  33.539  18.107  14.990
77460W        W42445  44.943   0.894   2.334
77461W        W42446   2.889  38.989  13.291
77462W        W42447  11.252   4.029   3.851
77463W        W42448  28.904  13.096  12.012
77464W        W42449  37.355  42.272  12.490
77465W        W42450   4.017  41.921   2.796
77466W        W42451  35.111  32.514   2.778
77467W        W42452  42.833  11.330  14.738
77468W        W42453   9.292  41.735   4.780
77469W        W42454   7.927   2.837  13.362
77470W        W42455  17.309  31.142   0.071
77471W        W42456  39.962  42.903   4.420
77472W        W42457  44.263   4.268   3.285
77473W        W42458  38.774   9.404  11.073
77474W        W42459  13.483  33.634  14.307
77475W        W42460  38.248  27.338  13.408
77476W        W42461  40.762  18.966   0.292
77477W        W42462  16.686  17.485   4.135
77478W        W42463  13.802   6.110  13.835
77479W        W42464  19.416   7.641  11.688
77480W        W42465   3.251  37.252  11.220
77481W        W42466  32.359  18.139   0.908
77482W        W42467   8.826  28.417   0.053
77483W        W42468   5.138  24.796  14.729
77484W        W42469  21.616  10.142   0.843
77485W        W42470  14.868   2.798  14.315
77486W        W42471  16.700  17.247   2.220
77487W        W42472  24.605  11.767  11.689
77488W        W42473   1.746   7.809  10.775
77489W        W42474  30.172  24.011   1.380
77490W        W42475   5.744  39.514  13.493
77491W        W42476   3.763  38.907  10.571
77492W        W42477   2.625  22.710  11.878
77493W        W42478  14.406  25.141   3.197
77494W        W42479  22.738   1.485  11.590
77495W        W42480  23.802   9.465  12.482
77496W        W42481  27.438  40.621  13.452
77497W        W42482  23.723  43.206  11.193
77498W        W42483   5.031  23.667   1.872
77499W        W42484  25.112  40.239   3.264
77500W        W42485  21.086  32.651   2.665
77501W        W42486  26.665  41.084   1.644
77502W        W42487   5.452  24.740  11.610
77503W        W42488  14.170  44.826   0.364
77504W        W42489  12.050  18.538  13.199
77505W        W42490  40.269  33.489  10.829
77506W        W42491  31.479  42.277  13.899
77507W        W42492  10.324   1.770  10.680
77508W        W42493  41.803   1.137   0.809
77509W        W42494  34.345  23.789   1.815
77510W        W42495   7.784  16.345   2.099
77511W        W42496  41.732  44.032   1.845
77512W        W42497  23.335  41.528   0.414
77513W        W42498   6.881  39.585  10.930
77514W        W42499  16.272  38.146   4.443
77515W        W42500  44.294   6.613   1.940
77516W        W42501   7.879  37.839   2.391
77517W        W42502   6.910  26.704   0.350
77518W        W42503  41.622  38.519   2.437
77519W        W42504  29.363  43.460  11.726
77520W        W42505  36.839   3.827   3.255
77521W        W42506  26.433   7.708   4.627
77522W        W42507  29.002   1.375   0.933
77523W        W42508  44.037  31.503   0.358
77524W        W42509  25.003   4.291   2.695
77525W        W42510  29.925  27.191  12.652
77526W        W42511   5.713  14.773  10.461
77527W        W42512  33.396  11.380  12.010
77528W        W42513  23.275  30.501   4.698
77529W        W42514   1.526   6.158  14.370
77530W        W42515  23.211  27.984   2.293
77531W        W42516  39.282   3.460  13.577
77532W        W42517  25.691  36.643   4.200
77533W        W42518   6.175  37.128   4.622
77534W        W42519  30.665  14.541   0.416
77535W        W42520  35.089  24.409  13.982
77536W        W42521   9.391  38.061  13.663
77537W        W42522  23.185  31.659  11.910
77538W        W42523   4.806  43.979  11.007
77539W        W42524   8.103  40.939   1.854
77540W        W42525  18.391  38.523   2.670
77541W        W42526  27.100  25.238  10.634
77542W        W42527  40.084  17.919   2.271
77543W        W42528  19.995  32.914  12.863
77544W        W42529  35.979  16.283  12.884
77545W        W42530   0.882  27.884   0.276
77546W        W42531  17.132  19.652   9.959
77547W        W42532  41.349  14.658  12.190
77548W        W42533  22.555  26.637  10.564
77549W        W42534  41.845  33.365  13.808
77550W        W42535  15.555  24.241   3.517
77551W        W42536  36.110  10.126  13.120
77552W        W42537   5.238   9.469   3.328
77553W        W42538  15.297  35.312  13.012
77554W        W42539   4.736   6.078   1.235
77555W        W42540  42.864  24.695   2.723
77556W        W42541  32.164   4.601  12.443
77557W        W42542  42.906   5.947   0.372
77558W        W42543  41.470   9.020  14.583
77559W        W42544  22.653  42.932  10.475
77560W        W42545   2.165   1.824  11.614
77561W        W42546  14.151  39.526  12.662
77562W        W42547  25.028  11.559   2.776
77563W        W42548  35.532  29.643  12.287
77564W        W42549  29.998  21.516   2.470
77565W        W42550  42.380  40.088   4.206
77566W        W42551  38.764  11.636  14.014
77567W        W42552  33.379  39.900   4.091
77568W        W42553   6.745   8.851  10.545
77569W        W42554  10.399   5.678  12.488
77570W        W42555   4.228  42.908   1.519
77571W        W42556  12.762   2.678  13.591
77572W        W42557  40.833  41.962  12.394
77573W        W42558  20.209  10.312   0.343
77574W        W42559  35.336   5.319   4.154
77575W        W42560  40.002  27.907   3.875
77576W        W42561  10.781   8.863   0.308
77577W        W42562   1.940  41.798  13.279
77578W        W42563  34.013  41.035  12.935
77579W        W42564  30.564  22.594  11.643
77580W        W42565  38.006  39.626   0.713
77581W        W42566  26.113  42.398   4.878
77582W        W42567  43.681   6.065   9.922
77583W        W42568  20.907  29.024  12.211
77584W        W42569  19.185  20.260  13.020
77585W        W42570   1.871  28.470   1.292
77586W        W42571   0.286  23.609  11.952
77587W        W42572   5.889  44.849   2.780
77588W        W42573  22.598  31.955   2.349
77589W        W42574  17.197   7.721   1.240
77590W        W42575  13.584  42.375  12.078
77591W        W42576  32.968  32.585   4.023
77592W        W42577  19.560  28.069   2.171
77593W        W42578  34.872  33.053  12.469
77594W        W42579   6.166   0.490   9.743
77595W        W42580  31.062  20.039   4.362
77596W        W42581   4.326  28.710  13.141
77597W        W42582  29.087  30.096  11.117
77598W        W42583  25.451  18.683   0.779
77599W        W42584   2.761  40.526   2.772
77600W        W42585  29.573  15.365  10.734
77601W        W42586  14.213   0.372  10.977
77602W        W42587  14.208  26.921   1.238
77603W        W42588  34.068  22.750  14.964
77604W        W42589  24.507  39.508  11.994
77605W        W42590   4.818  28.609  12.846
77606W        W42591  43.002   6.405   3.691
77607W        W42592  32.808  42.960   2.883
77608W        W42593  16.398  26.443   2.833
77609W        W42594  35.563  30.540  14.474
77610W        W42595   3.784   5.932  12.127
77611W        W42596  32.174  43.843   1.239
77612W        W42597  18.976  20.783   2.258
77613W        W42598  10.888  38.146  14.965
77614W        W42599  17.677  26.247  12.907
77615W        W42600  33.077  43.241   4.560
77616W        W42601   7.379   9.220  12.527
77617W        W42602  33.132  31.390   2.719
77618W        W42603   5.886  14.289  11.955
77619W        W42604   5.909  31.455  11.571
77620W        W42605  18.022  24.766  10.743
77621W        W42606  33.043  11.290   0.883
77622W        W42607  39.748  32.106  14.401
77623W        W42608   9.001  31.963   1.291
77624W        W42609   6.865  34.034  13.811
77625W        W42610   2.701  33.456  13.345
77626W        W42611  31.222  30.579   2.250
77627W        W42612   7.432  42.720   2.790
77628W        W42613   0.997   9.774   1.775
77629W        W42614  24.285   1.383   4.616
77630W        W42615  21.034   0.321   0.365
77631W        W42616  17.094  35.884   2.742
77632W        W42617  16.145   8.345   0.950
77633W        W42618  10.574  20.686   1.840
77634W        W42619  23.736  15.743   9.945
77635W        W42620  22.348  22.045  14.332
77636W        W42621  28.000  36.474  14.930
77637W        W42622  19.467  16.752  13.615
77638W        W42623  10.353  36.146   2.372
77639W        W42624  30.565  43.761   0.324
77640W        W42625  15.231  18.313   4.695
77641W        W42626  20.287  32.037   4.567
77642W        W42627  27.307   3.205   0.470
77643W        W42628  15.054   1.367  12.059
77644W        W42629   6.025  21.758   1.790
77645W        W42630   6.627   1.878   5.036
77646W        W42631   8.282  25.187  10.593
77647W        W42632  17.501  27.075   3.223
77648W        W42633  21.713   3.329   3.208
77649W        W42634  32.139  37.538  14.399
77650W        W42635   8.726  15.756   0.028
77651W        W42636   9.947  40.230  13.291
77652W        W42637   9.784   2.755   4.237
77653W        W42638   1.684   0.315   3.174
77654W        W42639  44.729  22.530   3.558
77655W        W42640  12.975  22.650   3.397
77656W        W42641  13.630  22.558  13.927
77657W        W42642  21.779  35.536   1.656
77658W        W42643  14.842  29.172  13.981
77659W        W42644  32.187  24.490   3.607
77660W        W42645   8.199  16.369   2.400
77661W        W42646  44.419  27.716  10.498
77662W        W42647  41.660  23.219   2.694
77663W        W42648  38.988  10.575  13.439
77664W        W42649  34.420   4.494  14.310
77665W        W42650  24.529   9.901   1.230
77666W        W42651  27.093  32.948  12.381
77667W        W42652   1.796   6.597   3.193
77668W        W42653   4.289   2.979  14.873
77669W        W42654  23.649  15.715  12.231
77670W        W42655  15.271   4.232  13.788
77671W        W42656  14.472  21.617   2.610
77672W        W42657  17.604  35.512   2.342
77673W        W42658  13.267   8.639  14.711
77674W        W42659  21.779  12.243  14.898
77675W        W42660  33.952  18.379  12.904
77676W        W42661  37.665  29.085  10.998
77677W        W42662  41.654   8.901  11.120
77678W        W42663   2.882   7.521   4.630
77679W        W42664  37.394  25.111  13.330
77680W        W42665  39.098  31.959  10.097
77681W        W42666   5.929   4.351  14.266
77682W        W42667  29.900  43.921   1.074
77683W        W42668   6.688  39.633  11.415
77684W        W42669  12.721  17.625  11.037
77685W        W42670  35.120   7.830   1.367
77686W        W42671  31.392  33.722   2.652
77687W        W42672   5.447   1.923   2.588
77688W        W42673  30.144   6.818  12.370
77689W        W42674  24.923  10.781   2.238
77690W        W42675   1.560  17.984  12.496
77691W        W42676   7.459  26.280  11.938
77692W        W42677  30.582  27.060   4.276
77693W        W42678  42.358  28.383  12.491
77694W        W42679  31.533  22.647   4.657
77695W        W42680  33.917  34.425  13.913
77696W        W42681  16.004  36.927  14.156
77697W        W42682  40.894  28.122   5.026
77698W        W42683  44.003  41.184  10.525
77699W        W42684  42.829  12.635  14.286
77700W        W42685  32.609  38.925   3.235
77701W        W42686  39.355  23.632   3.886
77702W        W42687  35.108   4.743   1.620
77703W        W42688  14.561   7.789   4.081
77704W        W42689   2.883   4.476  12.301
77705W        W42690  22.915  32.263   0.892
77706W        W42691   0.729   6.920   3.139
77707W        W42692   2.232  16.538  11.411
77708W        W42693  28.163  16.516   3.117
77709W        W42694  29.734  18.661   0.431
77710W        W42695  28.642   0.354  10.565
77711W        W42696  19.360  19.856   3.602
77712W        W42697  15.411  12.049  11.545
77713W        W42698   5.413   7.002   2.800
77714W        W42699  10.841   1.225  13.325
77715W        W42700  41.922   2.823  14.916
77716W        W42701  11.161  28.051  12.941
77717W        W42702  39.805  20.574   5.148
77718W        W42703  43.071  32.501  12.444
77719W        W42704  15.308   9.386  13.587
77720W        W42705   6.816  29.362  11.433
77721W        W42706  34.936  19.719  14.986
77722W        W42707  27.390  13.071  13.094
77723W        W42708  40.021  13.614  14.778
77724W        W42709  12.655   8.560   1.755
77725W        W42710  26.189  32.592   3.577
77726W        W42711   6.911  31.145   0.317
77727W        W42712   4.809   6.467   2.368
77728W        W42713  27.724  35.019   1.673
77729W        W42714   9.249  21.999  13.747
77730W        W42715  33.615  35.696   3.627
77731W        W42716  18.179  29.992   3.805
77732W        W42717  41.201  11.132  13.326
77733W        W42718   1.738  37.348   0.524
77734W        W42719  13.883  17.862   3.162
77735W        W42720   9.893  13.303   1.300
77736W        W42721   0.495  13.677  12.329
77737W        W42722   1.131  28.651  14.678
77738W        W42723  39.063  18.745  12.433
77739W        W42724   5.077  32.394  14.054
77740W        W42725  10.440  39.905  12.250
77741W        W42726  33.632  22.063   0.278
77742W        W42727  20.007  10.782   0.490
77743W        W42728   5.532  18.811  13.022
77744W        W42729  15.028   3.873  13.442
77745W        W42730  30.131  39.923   2.266
77746W        W42731  32.090   9.715  13.948
77747W        W42732  24.621  40.272  13.560
77748W        W42733   4.114  10.666   4.166
77749W        W42734  24.405  27.465   5.027
77750W        W42735   1.784  28.679   4.076
77751W        W42736  31.143  40.542  11.089
77752W        W42737  27.787  38.218  11.211
77753W        W42738  27.855  37.155   4.440
77754W        W42739   4.890  28.931   2.915
77755W        W42740  43.191  44.701   4.171
77756W        W42741  31.593   1.252   1.335
77757W        W42742   0.724   3.217  12.614
77758W        W42743  23.838  11.181  11.026
77759W        W42744  23.576  34.275   5.025
77760W        W42745   9.651  44.624  14.470
77761W        W42746   8.761   6.378   4.907
77762W        W42747  26.117  11.405   2.327
77763W        W42748   6.937  16.253  12.977
77764W        W42749  29.590  15.297  12.591
77765W        W42750  35.990  16.746   1.391
77766W        W42751  11.278  25.630   3.469
77767W        W42752   8.379  33.351   2.401
77768W        W42753  17.057  21.293   3.279
77769W        W42754   0.526   6.667   4.517
77770W        W42755  41.009  37.328   0.119
77771W        W42756  35.670  40.090   1.287
77772W        W42757  39.328   9.012   3.686
77773W        W42758  18.308  42.524  12.660
77774W        W42759  43.746  13.093  11.052
77775W        W42760  20.515   3.296  13.459
77776W        W42761   8.103  12.737  12.806
77777W        W42762  15.761  40.682  11.258
77778W        W42763   4.113  23.082   2.300
77779W        W42764  36.716  22.842   4.237
77780W        W42765   8.187  23.249  11.496
77781W        W42766  33.072  29.156  12.486
77782W        W42767  12.792  21.125   5.096
77783W        W42768  12.168  37.368   2.346
77784W        W42769  15.176  12.679   3.753
77785W        W42770  23.313  11.752   1.246
77786W        W42771  25.526  12.090   3.182
77787W        W42772  24.973  41.313   1.948
77788W        W42773   4.025  14.775   0.504
77789W        W42774  33.858  40.873  12.420
77790W        W42775   4.281   6.331  10.422
77791W        W42776  24.581  33.583  12.795
77792W        W42777   3.697  12.057  12.868
77793W        W42778  33.403  42.182   3.724
77794W        W42779  41.259  25.500   2.674
77795W        W42780  39.820  40.865  11.174
77796W        W42781  36.546   3.548  12.010
77797W        W42782  28.162  41.767   1.397
77798W        W42783  13.882  22.564  14.373
77799W        W42784   8.098   2.411  11.907
77800W        W42785   9.683  28.056  11.483
77801W        W42786  19.347  11.460  12.060
77802W        W42787  23.659  22.800   4.037
77803W        W42788  35.309  42.791  14.166
77804W        W42789  33.982  37.608  11.729
77805W        W42790  41.931   2.724  14.379
77806W        W42791  41.903  31.165  11.560
77807W        W42792  26.249  40.965   0.296
77808W        W42793  29.345   4.394  14.303
77809W        W42794  37.145   5.251   2.890
77810W        W42795  38.341   9.654  11.994
77811W        W42796  28.122  32.173   2.543
77812W        W42797  37.018   6.488  11.532
77813W        W42798  37.953   6.810   2.117
77814W        W42799  24.239  27.669  13.875
77815W        W42800  21.810  43.446  14.817
77816W        W42801  30.985  28.882   0.251
77817W        W42802   6.963   2.123   1.824
77818W        W42803  31.055  39.925  10.522
77819W        W42804  21.754  13.211  12.444
77820W        W42805   3.957  36.685  10.736
77821W        W42806  17.657  40.330   2.643
77822W        W42807  22.627  23.495   0.724
77823W        W42808  28.025  17.201  11.361
77824W        W42809  13.314  28.656  10.607
77825W        W42810  18.763  22.646   1.701
77826W        W42811   6.880   4.704   0.833
77827W        W42812  21.301   2.844  12.570
77828W        W42813  23.120   4.658  12.427
77829W        W42814  38.368  23.104   4.793
77830W        W42815  40.889  34.938  13.855
77831W        W42816  12.714  32.795   0.517
77832W        W42817  29.392  26.632   1.437
77833W        W42818  16.162  21.105   3.673
77834W        W42819  35.821   8.137  12.981
77835W        W42820   0.520  41.271  13.764
77836W        W42821  19.475  30.788  11.587
77837W        W42822  19.594  11.169   0.753
77838W        W42823  18.817  17.191   3.961
77839W        W42824  39.005  44.521  10.682
77840W        W42825  23.152   5.632   0.235
77841W        W42826  16.914  35.441  13.057
77842W        W42827  20.177  25.392   3.059
77843W        W42828  41.507   9.342  13.798
77844W        W42829   9.603  11.768  11.618
77845W        W42830  25.919  25.629  14.399
77846W        W42831  13.547   3.043  13.284
77847W        W42832  22.547  31.370  13.941
77848W        W42833  11.219  31.336   2.969
77849W        W42834   2.542   3.887  11.614
77850W        W42835  20.992  27.927   1.699
77851W        W42836  12.585   5.743   2.887
77852W        W42837  26.539  34.214  12.647
77853W        W42838   3.653   6.694   1.383
77854W        W42839   0.314  28.129   2.699
77855W        W42840   3.817  20.796  10.220
77856W        W42841  15.583  39.000   0.391
77857W        W42842  43.603  14.565   4.251
77858W        W42843   0.181  26.697   2.588
77859W        W42844   7.338  29.826  14.385
77860W        W42845   2.382  15.637  14.481
77861W        W42846  41.505  32.155   4.575
77862W        W42847  38.875  26.101  14.376
77863W        W42848  28.142  14.458   0.869
77864W        W42849  11.319  38.116  11.964
77865W        W42850  28.535   9.517   3.430
77866W        W42851  34.057  26.621  13.382
77867W        W42852  44.814  42.746   1.849
77868W        W42853   7.914   0.117   1.238
77869W        W42854  16.289  39.005   2.465
77870W        W42855   4.010  26.635   3.223
77871W        W42856  28.175   5.639   4.113
77872W        W42857  23.167  38.343  14.795
77873W        W42858   8.404   7.395  12.032
77874W        W42859  27.471  29.221  13.924
77875W        W42860  33.161  25.431  12.371
77876W        W42861   1.378  40.506   0.863
77877W        W42862  43.181  21.652  14.896
77878W        W42863  30.465  28.713  10.420
77879W        W42864  34.608  18.135  11.498
77880W        W42865   0.202  11.514  11.037
77881W        W42866  32.827  26.947   4.441
77882W        W42867  23.229  42.079   1.761
77883W        W42868   2.561  34.535   1.765
77884W        W42869   1.534  13.181  12.919
77885W        W42870  41.460  16.478  12.916
77886W        W42871  37.532  27.993  13.473
77887W        W42872   2.242   2.403   0.972
77888W        W42873   4.447  11.220   0.213
77889W        W42874  36.795  20.326  13.906
77890W        W42875  22.694  36.384   2.422
77891W        W42876  14.285  30.038  11.156
77892W        W42877   0.986  41.845  11.813
77893W        W42878   1.274   0.216  13.764
77894W        W42879  25.384  25.179  13.245
77895W        W42880  33.866   1.199   1.397
77896W        W42881  16.094  15.268   3.533
77897W        W42882  19.328  29.958  12.580
77898W        W42883  35.634  26.235  11.968
77899W        W42884  34.493  40.241   2.708
77900W        W42885  31.602   0.786  11.850
77901W        W42886   6.971  40.453   2.891
77902W        W42887  30.901  10.666  10.497
77903W        W42888  20.756  44.262  13.965
77904W        W42889   2.222  37.360   4.330
77905W        W42890   4.762  15.570  14.976
77906W        W42891  26.655  42.503  13.478
77907W        W42892  27.581  39.028  14.949
77908W        W42893  28.868  22.246   1.955
77909W        W42894   5.440   2.462  14.771
77910W        W42895  43.367  20.389  12.601
77911W        W42896   8.109  27.625   2.258
77912W        W42897  43.906  21.131   3.822
77913W        W42898  12.873  30.414   1.767
77914W        W42899  20.302   5.588   1.768
77915W        W42900  20.684  30.083  12.865
77916W        W42901  13.562  40.838   2.976
77917W        W42902   6.911   5.342   2.643
77918W        W42903   1.536  24.227  13.966
77919W        W42904   7.755  20.001   4.554
77920W        W42905  30.570  29.861   1.095
77921W        W42906   2.943  20.295  14.012
77922W        W42907   4.189   7.584   1.297
77923W        W42908  23.686  29.437  12.544
77924W        W42909   4.951  23.474  12.549
77925W        W42910  39.666  18.496  14.950
77926W        W42911  42.562  26.245   3.582
77927W        W42912  24.756   6.771  12.459
77928W        W42913   0.634  19.210   3.211
77929W        W42914  27.869  31.664   4.944
77930W        W42915  44.912   4.707   2.458
77931W        W42916   5.099  31.437  14.020
77932W        W42917  14.015  10.636  12.054
77933W        W42918  26.628   3.407  10.716
77934W        W42919  36.103  36.089  14.023
77935W        W42920  16.280   7.930  13.387
77936W        W42921  43.947  39.608  13.448
77937W        W42922  26.543  41.789   3.305
77938W        W42923  38.573  36.436  14.904
77939W        W42924  11.010  26.855  12.207
77940W        W42925  15.028  28.239  14.914
77941W        W42926   9.911   6.222   3.237
77942W        W42927  18.762  38.110  10.823
77943W        W42928  34.603   2.793   1.491
77944W        W42929  16.696  21.099   4.502
77945W        W42930   7.904  20.713   0.920
77946W        W42931  38.590  44.877   3.218
77947W        W42932  14.535  14.807   4.942
77948W        W42933  39.397   9.721   2.641
77949W        W42934  30.102  17.261   0.330
77950W        W42935   5.520   5.939  11.622
77951W        W42936  21.285   0.659  12.739
77952W        W42937  22.678  12.981  10.243
77953W        W42938  31.090  23.154   2.558
77954W        W42939  36.303  38.099  14.355
77955W        W42940   2.293  39.737   0.166
77956W        W42941  19.671  37.567  13.092
77957W        W42942  12.364  36.658   4.301
77958W        W42943  41.396  12.913   0.359
77959W        W42944  14.558  18.497  10.884
77960W        W42945  14.532  30.896  14.410
77961W        W42946  23.786  25.896   0.462
77962W        W42947  13.128   1.502   2.651
77963W        W42948  44.369   2.716   2.008
77964W        W42949  26.658  22.280  11.574
77965W        W42950   6.159  24.499   2.322
77966W        W42951  22.193  19.934   4.098
77967W        W42952  38.273  27.229   2.868
77968W        W42953  13.496   6.924  14.003
77969W        W42954  33.990   0.530   2.151
77970W        W42955  38.015  15.295   3.198
77971W        W42956  12.070  13.049  12.883
77972W        W42957  35.590   3.665   3.806
77973W        W42958  27.290  22.781  10.578
77974W        W42959   9.987  23.710  13.895
77975W        W42960  17.086  14.283   4.676
77976W        W42961   1.779  15.032   0.049
77977W        W42962   1.263  28.059   4.533
77978W        W42963  11.678  31.422  10.555
77979W        W42964   6.250   0.057   2.426
77980W        W42965  17.262  22.292  10.732
77981W        W42966  18.121  11.567   3.822
77982W        W42967  24.634   2.302   1.575
77983W        W42968  19.899   3.601  14.237
77984W        W42969   5.304  41.842   3.706
77985W        W42970  14.715   9.203   1.425
77986W        W42971   1.991   8.484   3.765
77987W        W42972  16.169  10.809  10.394
77988W        W42973  19.165  25.650   1.661
77989W        W42974   3.090  27.892   2.344
77990W        W42975  34.130   4.698  10.422
77991W        W42976  24.529  26.154   4.781
77992W        W42977  36.307  20.481   0.865
77993W        W42978   1.739  16.348  14.202
77994W        W42979  22.687  10.053  10.972
77995W        W42980  12.210   9.997   3.303
77996W        W42981  24.614  30.728   3.154
77997W        W42982  35.812  33.113   0.628
77998W        W42983  39.721  14.061   2.381
77999W        W42984  32.528  41.784   1.901
78000W        W42985  38.328  23.168  13.738
78001W        W42986   3.932  32.456  12.930
78002W        W42987   6.152   2.399   1.600
78003W        W42988  42.745  16.020   0.225
78004W        W42989  14.118  28.100   3.210
78005W        W42990  29.471  44.686   0.882
78006W        W42991  44.703   4.340  11.084
78007W        W42992   6.240  36.918   0.404
78008W        W42993   3.858   5.148  10.228
78009W        W42994  40.548  27.853   3.152
78010W        W42995  22.091  12.321   0.295
78011W        W42996  21.128  22.858  12.845
78012W        W42997   2.958  25.086  11.083
78013W        W42998  28.384  34.017   9.829
78014W        W42999   5.406  19.475  14.269
78015W        W43000  10.650   6.185  12.100
78016W        W43001  35.088  25.911  12.952
78017W        W43002  15.766  23.352   0.982
78018W        W43003   6.167   0.959   3.551
78019W        W43004   4.195  20.697   2.229
78020W        W43005  32.603   5.897  14.369
78021W        W43006  32.410  41.745   2.411
78022W        W43007   9.687   3.918   0.262
78023W        W43008  36.320  14.081   3.371
78024W        W43009  39.037  17.697  11.647
78025W        W43010  24.219   7.195   1.383
78026W        W43011  37.993  44.959   1.006
78027W        W43012   2.139  26.265  12.928
78028W        W43013  22.466  12.860  10.734
78029W        W43014  40.848   7.860   1.479
78030W        W43015   1.328   4.724   4.523
78031W        W43016  33.502   9.851   0.023
78032W        W43017   1.478  12.843  11.196
78033W        W43018  11.646  23.311   2.279
78034W        W43019  18.230  10.315  13.067
78035W        W43020  36.255  28.083   3.326
78036W        W43021   2.645   7.378   4.132
78037W        W43022  39.987  39.113  14.813
78038W        W43023  24.599  43.196   3.306
78039W        W43024   3.181  31.158   2.150
78040W        W43025   7.147  35.860  10.750
78041W        W43026  22.547   8.233   2.203
78042W        W43027  10.850  15.005  11.019
78043W        W43028   2.430  36.921   3.789
78044W        W43029  16.648  40.639   3.201
78045W        W43030  32.355  24.032  11.939
78046W        W43031  12.305   8.797   2.424
78047W        W43032  33.095  27.434   2.168
78048W        W43033  15.750  19.961   3.516
78049W        W43034  21.974  39.030  12.069
78050W        W43035  35.001   3.714  14.907
78051W        W43036  13.182  20.706   3.879
78052W        W43037   6.982  17.252   0.022
78053W        W43038  38.037  34.538  10.210
78054W        W43039  42.939   2.851   1.950
78055W        W43040  33.481  22.083   2.225
78056W        W43041  33.272  38.912  14.419
78057W        W43042  25.630  12.400  12.189
78058W        W43043  29.336  20.533  11.145
78059W        W43044   1.225  18.680  12.903
78060W        W43045  33.614  37.672  12.462
78061W        W43046  42.167  14.278  10.286
78062W        W43047  26.699  29.948  13.898
78063W        W43048   4.269  40.830  10.706
78064W        W43049  36.594  16.618  11.567
78065W        W43050   1.353  15.672   2.186
78066W        W43051  38.099   8.857  14.554
78067W        W43052  20.760  11.755   4.641
78068W        W43053  29.313  14.817   0.399
78069W        W43054  13.172   7.957  11.634
78070W        W43055  43.525  42.677  11.630
78071W        W43056  11.595  37.649  13.053
78072W        W43057  14.272  35.093   0.455
78073W        W43058  20.928  12.535  11.820
78074W        W43059  42.259  38.054  11.274
78075W        W43060  39.860  29.993   2.341
78076W        W43061  38.946   2.819  13.022
78077W        W43062  38.819  43.293   0.367
78078W        W43063  29.651  43.598  12.552
78079W        W43064  40.378   2.401   5.112
78080W        W43065  20.769  13.228   2.858
78081W        W43066  37.306  43.494   4.545
78082W        W43067   6.033  44.839  13.884
78083W        W43068  17.693   3.904  12.900
78084W        W43069  43.407  10.672  12.132
78085W        W43070  42.049  43.970  10.673
78086W        W43071  10.328  36.134  11.246
78087W        W43072   0.926  10.760  14.965
78088W        W43073  20.969  40.926   1.454
78089W        W43074  35.187   5.034   0.357
78090W        W43075  14.217  14.741   3.379
78091W        W43076  26.238  15.540   3.402
78092W        W43077  25.949  13.159   4.248
78093W        W43078  12.966  37.873   2.757
78094W        W43079  39.922  10.190  12.031
78095W        W43080  13.199  32.533  14.994
78096W        W43081  43.988  18.019  12.519
78097W        W43082   2.449  12.718  13.061
78098W        W43083  21.259  43.699   2.340
78099W        W43084  27.939  36.768   2.843
78100W        W43085  39.567  13.644   0.715
78101W        W43086  40.482   9.667  11.237
78102W        W43087   5.200  35.941   3.631
78103W        W43088   7.315  20.670   2.210
78104W        W43089   3.818  11.103  12.480
78105W        W43090  40.619  34.101  10.262
78106W        W43091  10.161  34.001   0.396
78107W        W43092  33.959  34.160  12.304
78108W        W43093  13.877   9.433   3.133
78109W        W43094  20.140   3.266  13.824
78110W        W43095  34.672  16.226  14.985
78111W        W43096  35.515  19.498   2.283
78112W        W43097  36.805  15.170  13.367
78113W        W43098  17.471  20.460   2.141
78114W        W43099   6.698   0.269  14.584
78115W        W43100  37.838  23.527   3.231
78116W        W43101  16.214  23.096   4.734
78117W        W43102  32.912  35.525   3.620
78118W        W43103  27.748   4.647  12.474
78119W        W43104  13.130   4.697  14.551
78120W        W43105  12.069  44.812  12.089
78121W        W43106  18.349   1.750   4.121
78122W        W43107  11.314  40.529  10.993
78123W        W43108  29.226  13.643  14.412
78124W        W43109  37.088  23.983  11.895
78125W        W43110   3.391  23.303  13.142
78126W        W43111  34.322   3.811  12.627
78127W        W43112   7.349  13.207   4.327
78128W        W43113   5.781  21.254   2.961
78129W        W43114   9.714  14.576   2.219
78130W        W43115   1.330  44.725  13.891
78131W        W43116   3.818  25.149   2.139
78132W        W43117   0.335  33.127  14.100
78133W        W43118  35.800  10.898   4.093
78134W        W43119  39.064  28.789  10.633
78135W        W43120  31.593  12.700   2.609
78136W        W43121  22.467  20.968  14.394
78137W        W43122  44.255  20.805   2.655
78138W        W43123  28.903  27.599   3.616
78139W        W43124  35.193  21.150  13.361
78140W        W43125  19.189  25.796  13.428
78141W        W43126  11.237  35.416   1.366
78142W        W43127   7.052  17.133   3.965
78143W        W43128  39.418  33.619  11.374
78144W        W43129  44.910  36.860  12.750
78145W        W43130  29.138  18.538  12.525
78146W        W43131  39.654  31.801  13.062
78147W        W43132  18.637  25.602   1.715
78148W        W43133  15.142  11.927   1.902
78149W        W43134  22.715   3.825  12.512
78150W        W43135  34.019  23.010  12.840
78151W        W43136  41.973  40.484  12.802
78152W        W43137   0.968  43.624   0.396
78153W        W43138   4.572  18.337   2.398
78154W        W43139  26.202  34.482   2.163
78155W        W43140  28.913   5.921  10.305
78156W        W43141  25.725  11.818   4.471
78157W        W43142  44.152  12.654   1.800
78158W        W43143  30.924  42.509  14.904
78159W        W43144  25.576  33.432   0.400
78160W        W43145  15.834  20.401   2.160
78161W        W43146   2.989   4.967  10.386
78162W        W43147  38.597  23.461   2.875
78163W        W43148  38.023  38.340  13.355
78164W        W43149  17.153   9.348  13.401
78165W        W43150  33.160  21.291   9.937
78166W        W43151  19.932  43.042   0.775
78167W        W43152  31.346  27.070  14.304
78168W        W43153   1.793  20.268   1.674
78169W        W43154  11.683  13.850  14.473
78170W        W43155   0.158   1.050   0.657
78171W        W43156  42.382  22.467  12.407
78172W        W43157  30.157  25.753   3.578
78173W        W43158  14.688  21.802  14.774
78174W        W43159   6.379  39.549   4.357
78175W        W43160   7.658   2.799  13.817
78176W        W43161  41.603  39.861  12.609
78177W        W43162  20.300  28.213   2.762
78178W        W43163  16.866  18.866   1.873
78179W        W43164   5.621   5.343   0.177
78180W        W43165   5.235  31.046   0.719
78181W        W43166  38.804  29.747   5.086
78182W        W43167  26.469  35.998   3.612
78183W        W43168  14.155   9.207  10.276
78184W        W43169  38.038  30.984  13.918
78185W        W43170  35.340   4.401  11.261
78186W        W43171  17.670   0.046   3.813
78187W        W43172  20.255  40.863  13.013
78188W        W43173   9.547  11.232  13.585
78189W        W43174  42.104  35.641   2.768
78190W        W43175   2.458  32.282   1.756
78191W        W43176  28.679   6.691  11.612
78192W        W43177  29.390   4.796  14.663
78193W        W43178  31.417  31.070  12.859
78194W        W43179  43.846  37.847   2.107
78195W        W43180   9.209  20.564  14.916
78196W        W43181  32.049  43.251  13.238
78197W        W43182  25.546   7.231  14.381
78198W        W43183  27.941  40.215   0.366
78199W        W43184  32.884  26.658  10.911
78200W        W43185  20.495  20.334  14.434
78201W        W43186  11.264  21.123   3.739
78202W        W43187  10.154  39.799  10.958
78203W        W43188   3.640  20.240  12.492
78204W        W43189  31.962   2.790   2.835
78205W        W43190  37.298  36.290  13.941
78206W        W43191  39.128  24.592   0.446
78207W        W43192  29.734  14.028   4.118
78208W        W43193  28.592  27.106  11.944
78209W        W43194  44.400  34.658  10.340
78210W        W43195  43.747   2.931  12.635
78211W        W43196  34.646  41.296  12.853
78212W        W43197  37.984   1.327  14.805
78213W        W43198  31.020  21.031  11.163
78214W        W43199  28.192  35.469   1.397
78215W        W43200  42.365  20.074  12.370
78216W        W43201  30.789  29.449  12.987
78217W        W43202   9.905  10.908   4.499
78218W        W43203   9.129  29.038   0.707
78219W        W43204  33.419  39.029  12.614
78220W        W43205  16.305  41.016  14.960
78221W        W43206   8.409  20.619   1.846
78222W        W43207   4.633  23.012  14.884
78223W        W43208  32.696  12.788  11.175
78224W        W43209  37.742  24.040  11.063
78225W        W43210   5.794  35.340  14.901
78226W        W43211  21.525  14.265   3.348
78227W        W43212   2.610  28.071   4.127
78228W        W43213  42.894  42.361  12.663
78229W        W43214  22.171  36.498  11.481
78230W        W43215   6.749  43.272  11.400
78231W        W43216  28.788  20.116   0.895
78232W        W43217  43.558  17.767  14.007
78233W        W43218  17.599  38.076   4.672
78234W        W43219   0.011   8.578   2.099
78235W        W43220  32.126  40.472  12.936
78236W        W43221  26.754   2.851   1.839
78237W        W43222  18.331  12.834  10.865
78238W        W43223  19.602   4.380   3.166
78239W        W43224  10.749  44.809   1.897
78240W        W43225   4.979  37.455  12.017
78241W        W43226  20.448  30.987  14.252
78242W        W43227  14.706  32.034  13.087
78243W        W43228  43.928  36.192  11.726
78244W        W43229   1.255  32.607  13.958
78245W        W43230  10.289  30.600   2.310
78246W        W43231  20.729  43.293   1.116
78247W        W43232  21.611  20.487   1.745
78248W        W43233  26.550  22.463  12.051
78249W        W43234  30.954  25.934  12.540
78250W        W43235  19.395  18.383   5.064
78251W        W43236  28.236  11.646   5.023
78252W        W43237  25.675  21.699  14.974
78253W        W43238  37.360  15.110   1.822
78254W        W43239   7.120  27.612  11.674
78255W        W43240  32.859  23.083   4.676
78256W        W43241   4.487   5.727   1.525
78257W        W43242  30.041  14.339  13.328
78258W        W43243  29.678  29.912  12.575
78259W        W43244  21.544  21.230   0.484
78260W        W43245  11.565  42.785  14.878
78261W        W43246  25.989  27.034  13.978
78262W        W43247   2.921  19.320   4.654
78263W        W43248  17.423   9.821  11.547
78264W        W43249  41.908  44.773  12.398
78265W        W43250  11.625  36.272  10.853
78266W        W43251   1.738  32.723  12.363
78267W        W43252   8.150   2.371  14.767
78268W        W43253   5.177  34.850   1.443
78269W        W43254  35.161  35.647  12.933
78270W        W43255  43.779  35.015   1.315
78271W        W43256  14.775   1.973  12.597
78272W        W43257  21.740  12.300   1.074
78273W        W43258  34.457  35.593  11.000
78274W        W43259  14.706  22.604  12.979
78275W        W43260  18.030   9.390   2.874
78276W        W43261   4.713  25.608  13.077
78277W        W43262  36.619   5.373   5.010
78278W        W43263  22.582  15.232   4.284
78279W        W43264  37.921  16.827  10.402
78280W        W43265  16.712  36.536  11.188
78281W        W43266  34.582  24.966   4.153
78282W        W43267  40.526  29.110  12.093
78283W        W43268  18.103  39.522   2.616
78284W        W43269   2.020   8.315  14.958
78285W        W43270   3.963   3.851   4.646
78286W        W43271  36.107  26.592   4.490
78287W        W43272  19.678  32.418   2.696
78288W        W43273  42.234   2.197  12.045
78289W        W43274   3.104  12.529  13.847
78290W        W43275  10.798  39.415   0.401
78291W        W43276  23.605  29.612  13.063
78292W        W43277  13.313   1.785  13.898
78293W        W43278   2.719  20.012   1.744
78294W        W43279  38.886  37.205   0.313
78295W        W43280  23.247  34.815  13.950
78296W        W43281  12.970  11.391  12.555
78297W        W43282  43.915   1.228   2.796
78298W        W43283  40.458  25.664   0.826
78299W        W43284   7.190  14.305  13.435
78300W        W43285  24.945  13.113   1.014
78301W        W43286  38.689  13.016   4.262
78302W        W43287  10.376  19.710   0.476
78303W        W43288  19.077  17.331  11.413
78304W        W43289  16.549  35.170  10.972
78305W        W43290   8.933   9.286  11.041
78306W        W43291   2.263  30.692   2.160
78307W        W43292  20.729  23.003   4.477
78308W        W43293   3.002  25.400  10.675
78309W        W43294  37.080  36.432  10.436
78310W        W43295  40.766  11.172  12.408
78311W        W43296  36.915  42.504  11.652
78312W        W43297  29.762  19.668   2.227
78313W        W43298   9.253  35.846  14.760
78314W        W43299  27.152  21.762  10.653
78315W        W43300  29.451  20.983   4.489
78316W        W43301  19.175  30.820  12.017
78317W        W43302  35.405  14.169  12.332
78318W        W43303  43.376  14.756  14.285
78319W        W43304  16.771  43.836  10.814
78320W        W43305  43.709  10.243  11.948
78321W        W43306  40.396  15.720  11.257
78322W        W43307  28.905  38.039  13.304
78323W        W43308  25.382  43.957  13.054
78324W        W43309  38.395  29.180  13.618
78325W        W43310  26.708  18.849   5.005
78326W        W43311  30.585   4.076  12.835
78327W        W43312  26.263  22.089   3.902
78328W        W43313  22.698   2.645   1.259
78329W        W43314   3.252   9.996   4.856
78330W        W43315  35.269  22.034   0.929
78331W        W43316  22.696  31.433  14.428
78332W        W43317  24.609  22.421  12.163
78333W        W43318  37.485   3.168  14.870
78334W        W43319  44.090  18.689   4.016
78335W        W43320   7.718  11.069  10.646
78336W        W43321  41.324  39.490   4.184
78337W        W43322  11.158  39.387  14.995
78338W        W43323  42.026  14.602   1.674
78339W        W43324  33.195  17.334   0.139
78340W        W43325  27.122  35.552   1.317
78341W        W43326  28.366  32.219   4.523
78342W        W43327  18.949  44.230   2.286
78343W        W43328  11.856  43.123   2.164
78344W        W43329  44.799   1.917  12.016
78345W        W43330   3.717  37.918  11.518
78346W        W43331  29.931  34.362  12.944
78347W        W43332  25.347   0.783   3.350
78348W        W43333  42.516  40.570   4.239
78349W        W43334   7.089   9.437  13.935
78350W        W43335  29.346  33.179  11.620
78351W        W43336  40.878   5.545  11.066
78352W        W43337  11.326  24.913  12.383
78353W        W43338  42.473  30.225  11.988
78354W        W43339  43.582   5.968   4.180
78355W        W43340  21.207   6.539  11.921
78356W        W43341  42.413  41.367   0.925
78357W        W43342   2.763  38.348  12.481
78358W        W43343  27.251  14.360  12.585
78359W        W43344  10.203  11.061  11.849
78360W        W43345  29.687   4.274  14.729
78361W        W43346  25.588  25.066  10.693
78362W        W43347  36.162  16.283   1.526
78363W        W43348  13.742  16.737  13.303
78364W        W43349  16.383   4.466  12.109
78365W        W43350  20.284  31.963   4.063
78366W        W43351  23.458  16.092   4.096
78367W        W43352  21.601   9.241  12.464
78368W        W43353   7.524  39.737  12.604
78369W        W43354  21.334  29.023   4.132
78370W        W43355  10.156   1.734  11.709
78371W        W43356  35.142  40.091  12.534
78372W        W43357   2.461  23.837   1.761
78373W        W43358  12.685  40.226  12.374
78374W        W43359  42.021  28.576  11.449
78375W        W43360  35.063  13.076   4.755
78376W        W43361  15.925  27.641  11.108
78377W        W43362  37.906  32.544   0.691
78378W        W43363  14.225  31.906  13.306
78379W        W43364  38.920  31.206   3.132
78380W        W43365  36.445   5.293  13.123
78381W        W43366  11.711  28.916  10.759
78382W        W43367  19.168  39.008   3.140
78383W        W43368  14.574  21.705  12.053
78384W        W43369  36.862   7.706  13.793
78385W        W43370  15.248  25.396  10.772
78386W        W43371  34.496  30.679   0.398
78387W        W43372  27.010  20.998  12.057
78388W        W43373  34.435   6.198  12.337
78389W        W43374  12.288   1.810   1.168
78390W        W43375  16.877  26.461   0.667
78391W        W43376   3.971  12.494  12.468
78392W        W43377  15.580  32.014  14.477
78393W        W43378   1.822  36.543  13.162
78394W        W43379   4.783  41.369  13.563
78395W        W43380  31.388  17.294   0.796
78396W        W43381  44.783   7.243  11.497
78397W        W43382  11.117  20.666  14.819
78398W        W43383   9.407  25.446   4.252
78399W        W43384  19.253  19.712  12.158
78400W        W43385  37.365  39.546  13.474
78401W        W43386  37.026  33.388  11.569
78402W        W43387  14.862  28.094   0.410
78403W        W43388   3.326  10.662  12.021
78404W        W43389  32.503  16.977   1.263
78405W        W43390  14.679  10.027   2.786
78406W        W43391  43.777  33.269  12.165
78407W        W43392  12.869  38.306  11.549
78408W        W43393  21.295   1.782   0.453
78409W        W43394  40.072  16.283   0.763
78410W        W43395  20.064  26.611  13.728
78411W        W43396  14.806   3.600  14.863
78412W        W43397  19.588  22.175  13.715
78413W        W43398  34.163  10.756  12.908
78414W        W43399   9.708   1.650   4.134
78415W        W43400  39.462  21.534   1.458
78416W        W43401  44.526   6.771  12.586
78417W        W43402  31.505   4.401  11.869
78418W        W43403  29.644  29.215  13.014
78419W        W43404  13.328   0.372  11.200
78420W        W43405  19.587  44.752  11.421
78421W        W43406   0.298   7.362   3.740
78422W        W43407  15.186  34.840   0.364
78423W        W43408  26.019  11.157   0.606
78424W        W43409  39.752   8.666   3.739
78425W        W43410   0.968  32.288  10.772
78426W        W43411  38.485  39.424  12.050
78427W        W43412   4.242  31.043   3.048
78428W        W43413  44.345  40.872   1.123
78429W        W43414  21.585   9.575  13.902
78430W        W43415  25.924   1.883  12.464
78431W        W43416  35.154  36.831  12.035
78432W        W43417  12.446  22.042   0.236
78433W        W43418   8.403  18.089  13.428
78434W        W43419   5.864   2.878   2.258
78435W        W43420  44.616  31.337  12.056
78436W        W43421  38.948   0.512   3.798
78437W        W43422  19.055  42.048  12.469
78438W        W43423  37.264  11.171  13.027
78439W        W43424  16.832  26.692  14.505
78440W        W43425  11.115   2.426  13.982
78441W        W43426   7.197   3.675  12.968
78442W        W43427  21.553  37.820   3.016
78443W        W43428  20.076  20.471  12.531
78444W        W43429  25.124  33.016  11.034
78445W        W43430  16.172  40.328  10.720
78446W        W43431  44.555  23.746   3.718
78447W        W43432  10.373  12.364   4.247
78448W        W43433  32.159  31.601  14.348
78449W        W43434  26.496  42.340  13.948
78450W        W43435  33.545  32.989  13.272
78451W        W43436  27.555  10.176  14.386
78452W        W43437  22.470  14.317  10.280
78453W        W43438  30.942  11.338  12.067
78454W        W43439  15.789  43.396   1.016
78455W        W43440  24.591  22.660   1.524
78456W        W43441  12.157  15.638  12.030
78457W        W43442  29.395  29.642  12.939
78458W        W43443   2.384   6.453  10.701
78459W        W43444  12.601  19.062   3.054
78460W        W43445  28.008  35.169  11.575
78461W        W43446   3.900  29.647  11.576
78462W        W43447   0.894  10.388  13.997
78463W        W43448  12.709  40.344   0.796
78464W        W43449  14.389  14.660   3.876
78465W        W43450   5.490  24.738  10.723
78466W        W43451  27.934   3.135  14.034
78467W        W43452  32.427  28.554   3.482
78468W        W43453  14.337  44.850   4.458
78469W        W43454  28.747  34.859  14.836
78470W        W43455  13.751  21.233  14.143
78471W        W43456  12.204  15.031   1.635
78472W        W43457  42.892  16.088  13.212
78473W        W43458  26.616  30.552   2.895
78474W        W43459  17.764  34.126  13.396
78475W        W43460  36.123  44.707  13.884
78476W        W43461  11.911   2.054  13.534
78477W        W43462  15.690  16.596   2.706
78478W        W43463  18.217  23.728   0.724
78479W        W43464   6.358  36.543  14.890
78480W        W43465  37.690  23.914   3.529
78481W        W43466  34.281  12.584  11.012
78482W        W43467  10.475   0.887  14.318
78483W        W43468  10.595  44.190  12.184
78484W        W43469  20.244   1.800   0.399
78485W        W43470   0.833  24.755  11.699
78486W        W43471  18.603   1.092  13.328
78487W        W43472  37.727   5.254   3.686
78488W        W43473  25.133  17.208   2.511
78489W        W43474   5.032  32.827  11.112
78490W        W43475  40.670   3.232   1.823
78491W        W43476  25.209   4.608  12.967
78492W        W43477  28.479  34.819  11.567
78493W        W43478  33.566  33.423   3.221
78494W        W43479   6.642   4.294   3.531
78495W        W43480  39.505  29.489   1.806
78496W        W43481   4.347  25.414   5.106
78497W        W43482  25.666   9.797  12.209
78498W        W43483  13.695  30.938   1.936
78499W        W43484   8.706  34.550   4.646
78500W        W43485  38.921  31.400  11.039
78501W        W43486   1.950  12.336  12.421
78502W        W43487   4.705  44.430  14.187
78503W        W43488  16.922  27.707   1.227
78504W        W43489  37.493  19.671   4.052
78505W        W43490  44.994  19.034  11.548
78506W        W43491  18.746  25.329  10.237
78507W        W43492  24.061  21.637  14.832
78508W        W43493  25.432  25.562   4.383
78509W        W43494   0.492  38.272  14.686
78510W        W43495  39.319   3.382  10.693
78511W        W43496  34.123  41.480  12.100
78512W        W43497  18.071  39.598  12.715
78513W        W43498  35.867  17.078  11.506
78514W        W43499  42.161  25.701  12.537
78515W        W43500  16.278  28.713  13.037
78516W        W43501   0.690  13.853  11.505
78517W        W43502  26.426  13.134  13.995
78518W        W43503  36.289  17.988  14.822
78519W        W43504  16.253   3.213  12.547
78520W        W43505  34.428  23.627  14.944
78521W        W43506  39.982   2.359  11.569
78522W        W43507  41.348  20.897  14.728
78523W        W43508  44.491  16.554  13.232
78524W        W43509  36.468  35.768  13.781
78525W        W43510  36.610  41.122  14.786
78526W        W43511  43.371   9.598   2.429
78527W        W43512  15.022  23.469  10.808
78528W        W43513  18.152  32.330  11.962
78529W        W43514  43.354  28.714   0.769
78530W        W43515  21.616  17.398  14.409
78531W        W43516  38.143  41.395  12.883
78532W        W43517  36.924  18.461   3.390
78533W        W43518   0.560  10.364  11.645
78534W        W43519  20.499  10.336  13.292
78535W        W43520  36.504  20.962   1.754
78536W        W43521  27.224  21.732   4.086
78537W        W43522  39.767  21.233   2.010
78538W        W43523  19.501  21.073   5.043
78539W        W43524  30.137  33.299  11.886
78540W        W43525  41.401  41.909  10.565
78541W        W43526  35.011  26.211  14.306
78542W        W43527  19.825  33.561  14.059
78543W        W43528   6.508  18.106  10.297
78544W        W43529   2.661  38.810   4.699
78545W        W43530  17.924  30.845  12.570
78546W        W43531  40.005  35.639   1.202
78547W        W43532  10.670  36.482   0.751
78548W        W43533  14.398  16.085  12.656
78549W        W43534  39.859  34.616   1.241
78550W        W43535  13.844  43.096  14.328
78551W        W43536  22.236  28.519   4.180
78552W        W43537  22.638  23.796  12.095
78553W        W43538  23.011  35.496  11.938
78554W        W43539  21.145   7.760   2.427
78555W        W43540  20.232  28.046   0.558
78556W        W43541  17.751  40.558  14.775
78557W        W43542  25.901   6.901   0.879
78558W        W43543  13.071  27.397   9.804
78559W        W43544   8.832   6.441   1.407
78560W        W43545  42.957  18.726  13.098
78561W        W43546  23.494  38.620   3.566
78562W        W43547  20.134  10.051  14.909
78563W        W43548  13.800  20.149   1.039
78564W        W43549  39.085  14.790  14.479
78565W        W43550  17.108   5.432   0.976
78566W        W43551  15.552   9.844  12.049
78567W        W43552   2.785  31.131   4.341
78568W        W43553  27.566  34.568  10.538
78569W        W43554   3.505   2.689   1.753
78570W        W43555  30.554  13.298  14.761
78571W        W43556  29.661  41.105  14.324
78572W        W43557  25.765   7.202   1.340
78573W        W43558  11.127  41.883  14.093
78574W        W43559  15.601  19.494  13.875
78575W        W43560   5.888  10.056   2.796
78576W        W43561   2.401  13.402   2.810
78577W        W43562  37.807  29.102  14.756
78578W        W43563  35.524  13.196  11.165
78579W        W43564  27.120   9.633   3.277
78580W        W43565  36.862  35.896   2.029
78581W        W43566  13.226   7.558   2.443
78582W        W43567  35.679  37.414  11.486
78583W        W43568   8.724  10.412   3.596
78584W        W43569   6.120   3.459   4.493
78585W        W43570  32.886  21.540  14.947
78586W        W43571  28.001  26.074   2.654
78587W        W43572  44.470   4.301  12.495
78588W        W43573  42.795   0.309   2.146
78589W        W43574  41.002   9.246  12.491
78590W        W43575  11.404  43.896  13.801
78591W        W43576   7.463  35.781  11.938
78592W        W43577  15.543  20.296   1.502
78593W        W43578  23.633  17.286   3.230
78594W        W43579  41.449  13.854  10.701
78595W        W43580   2.036  24.298   3.589
78596W        W43581  32.552  20.880   1.022
78597W        W43582  29.532  35.517  12.396
78598W        W43583  31.047  40.377  12.075
78599W        W43584   9.553  22.380  11.472
78600W        W43585  33.503  43.173   3.671
78601W        W43586  33.868  26.655   1.725
78602W        W43587  21.917   4.815  10.697
78603W        W43588  35.461  13.324  13.470
78604W        W43589  11.711  19.832  11.615
78605W        W43590  14.882   3.671  14.355
78606W        W43591  41.777  27.783  10.327
78607W        W43592  22.470  23.181  13.307
78608W        W43593  40.479   5.174   3.611
78609W        W43594  23.134  36.879   1.305
78610W        W43595   6.321   7.645  13.306
78611W        W43596  27.669  37.993  14.797
78612W        W43597   1.348  20.181   1.967
78613W        W43598  19.226  10.709  10.683
78614W        W43599  40.233   6.807   1.871
78615W        W43600  23.938  21.056  14.253
78616W        W43601  26.483   5.694   0.453
78617W        W43602   5.887  40.127  14.937
78618W        W43603  33.143  16.086   1.245
78619W        W43604  27.198   3.673   0.268
78620W        W43605  24.156  12.834  12.565
78621W        W43606  42.449  12.944   2.606
78622W        W43607  26.600  38.833  11.112
78623W        W43608  16.820  15.148  13.063
78624W        W43609  30.695  33.696  12.842
78625W        W43610  27.102   4.729  10.520
78626W        W43611  34.735  18.554   2.306
78627W        W43612  40.115  28.010   1.835
78628W        W43613   8.190  36.839   2.235
78629W        W43614  21.942  12.325   3.348
78630W        W43615  13.295  39.290   4.162
78631W        W43616  40.325  19.156   1.657
78632W        W43617   9.792  32.587   1.845
78633W        W43618   5.417   6.952  14.880
78634W        W43619   5.915  37.104  10.551
78635W        W43620   6.445  22.505   1.297
78636W        W43621   1.012  13.172  14.121
78637W        W43622  38.099  16.040  10.979
78638W        W43623  20.057  20.180  11.055
78639W        W43624  11.535  35.790  13.452
78640W        W43625   9.059  16.164   0.205
78641W        W43626   5.100  23.130  14.650
78642W        W43627   2.801   6.875   3.367
78643W        W43628  29.588  21.754   1.235
78644W        W43629   7.695   5.404  11.884
78645W        W43630  25.670  17.690  12.936
78646W        W43631  38.378  42.341  10.693
78647W        W43632   4.400  30.773   5.024
78648W        W43633  18.333  24.675  12.958
78649W        W43634  36.330   8.245  14.505
78650W        W43635  23.026   8.775   4.181
78651W        W43636  26.464  34.177   4.353
78652W        W43637  32.997  38.016  10.680
78653W        W43638  17.806  33.455   4.316
78654W        W43639   0.509  32.682  12.598
78655W        W43640   9.087  41.971   0.804
78656W        W43641  41.243  35.285   1.964
78657W        W43642   7.970  40.139  13.995
78658W        W43643  10.158   5.507  14.279
78659W        W43644   1.450  30.926  11.680
78660W        W43645  26.453  13.390  12.013
78661W        W43646  25.751  19.059  12.512
78662W        W43647  35.115  36.620  13.334
78663W        W43648   7.773  33.481  13.016
78664W        W43649  15.128  41.824  14.879
78665W        W43650   0.236  24.369  13.374
78666W        W43651  14.583  32.101   3.058
78667W        W43652  41.222  37.124   4.741
78668W        W43653   2.234   5.201  12.869
78669W        W43654  28.976  33.928  13.883
78670W        W43655  44.800   0.284  12.364
78671W        W43656   0.250  10.363  10.765
78672W        W43657  22.273  15.213  10.525
78673W        W43658  39.447  26.561  12.768
78674W        W43659   6.333  40.567   4.193
78675W        W43660  43.490  36.771   3.600
78676W        W43661  23.988  36.616  14.172
78677W        W43662  29.411  22.720   0.304
78678W        W43663  37.392  33.955  12.524
78679W        W43664  19.271   1.256   0.505
78680W        W43665  42.368   3.892  13.069
78681W        W43666  27.260  28.667   1.195
78682W        W43667  34.326  20.396  13.010
78683W        W43668  13.443  38.534   1.301
78684W        W43669  40.309   7.776   3.363
78685W        W43670  16.057   3.777   5.173
78686W        W43671  25.885   0.340  13.902
78687W        W43672  25.315  11.195  12.393
78688W        W43673  34.097  14.955   4.323
78689W        W43674  12.367  27.548   0.993
78690W        W43675  25.701  14.283   4.823
78691W        W43676  25.144   4.730   4.327
78692W        W43677  23.433  13.108  13.059
78693W        W43678  14.502  32.961   1.843
78694W        W43679  39.572  10.354  11.559
78695W        W43680  23.094  20.036   4.156
78696W        W43681  27.171  16.223   0.864
78697W        W43682  32.190   0.956  12.985
78698W        W43683  44.987  43.739  12.515
78699W        W43684  36.090  36.354  10.867
78700W        W43685  10.206  20.205  13.772
78701W        W43686  16.180  27.317  14.573
78702W        W43687  28.495  13.541  12.034
78703W        W43688  43.410  44.273   3.188
78704W        W43689  14.124  23.461  12.991
78705W        W43690  42.582  26.590  10.750
78706W        W43691   8.210   5.623  13.424
78707W        W43692  36.964  14.083   0.646
78708W        W43693  10.175   0.471   2.907
78709W        W43694   5.126   5.299   1.981
78710W        W43695  13.577  40.835  11.402
78711W        W43696  36.427  44.403  14.447
78712W        W43697  42.764  13.362  13.732
78713W        W43698  38.314   7.344  14.761
78714W        W43699  36.864   7.351  13.354
78715W        W43700  34.213  44.300  14.863
78716W        W43701   1.201  43.270   2.748
78717W        W43702  10.398  12.776  12.303
78718W        W43703  14.144   1.822   4.472
78719W        W43704  42.968  13.735  11.079
78720W        W43705   9.816  32.858  14.561
78721W        W43706  22.452  15.842  10.492
78722W        W43707  20.260  40.404   4.143
78723W        W43708  41.227  28.170   4.364
78724W        W43709  39.403  17.830  13.083
78725W        W43710  27.108  42.992   1.045
78726W        W43711  21.971  28.327  13.810
78727W        W43712  36.155  43.087   4.354
78728W        W43713  40.424  38.959   0.592
78729W        W43714  23.144  22.527  10.084
78730W        W43715   4.885   3.198  11.550
78731W        W43716  14.585  37.372  13.200
78732W        W43717  40.703  42.360  10.644
78733W        W43718  38.138  10.102   9.784
78734W        W43719  40.878  43.311  10.629
78735W        W43720   3.002  25.761   4.561
78736W        W43721  26.577  23.507   1.026
78737W        W43722  36.909  27.746  11.578
78738W        W43723  29.020  36.205  14.488
78739W        W43724  43.455  39.830  11.561
78740W        W43725   2.291  19.345  10.912
78741W        W43726  32.191  31.119  14.926
78742W        W43727  41.086  22.306  13.900
78743W        W43728   9.083  12.379  11.520
78744W        W43729  14.169  32.134  14.362
78745W        W43730  31.813  18.193   3.509
78746W        W43731  22.108  31.566   3.622
78747W        W43732  41.082   9.115   2.737
78748W        W43733  29.672   3.944   1.363
78749W        W43734  34.251  19.073  12.911
78750W        W43735  25.998  43.458   3.429
78751W        W43736  26.656  39.298   1.850
78752W        W43737  13.354  22.165   2.734
78753W        W43738  35.372  32.995   3.699
78754W        W43739  31.576  44.718   2.272
78755W        W43740  19.982   4.417   0.409
78756W        W43741   8.346  17.137  11.615
78757W        W43742  14.945  23.110  14.877
78758W        W43743  20.033  28.201  12.205
78759W        W43744   2.179  21.200   0.391
78760W        W43745   0.345  18.675   3.699
78761W        W43746  44.844  38.362   0.949
78762W        W43747  38.588  24.520  11.988
78763W        W43748   3.270   6.655   1.064
78764W        W43749  41.611  15.070  12.053
78765W        W43750  19.024  25.530   3.704
78766W        W43751  18.394  43.471  10.725
78767W        W43752  27.649  14.339  11.299
78768W        W43753  35.044  35.488   0.773
78769W        W43754  13.670  28.048   5.260
78770W        W43755  17.049  40.456  12.840
78771W        W43756  26.945  37.145  13.454
78772W        W43757  28.165  34.973  12.963
78773W        W43758  22.156  27.219  11.127
78774W        W43759  36.765   8.968  10.254
78775W        W43760  28.165  32.582  12.671
78776W        W43761  10.898  10.209  12.995
78777W        W43762  39.361   1.524  13.346
78778W        W43763  41.093  34.426   5.490
78779W        W43764  14.045  29.557   3.775
78780W        W43765  24.773   3.855   2.829
78781W        W43766  35.986  16.973  14.440
78782W        W43767   5.755  31.175   1.850
78783W        W43768   7.226  34.060   3.163
78784W        W43769  25.067  38.105  13.396
78785W        W43770   1.736  14.249  14.284
78786W        W43771  28.184  30.288   2.864
78787W        W43772   2.080  31.390   0.381
78788W        W43773  15.225  12.851  12.460
78789W        W43774  35.521  30.326  13.990
78790W        W43775  32.468  38.303  14.490
78791W        W43776  12.522  33.303   1.275
78792W        W43777  40.090   2.448   3.723
78793W        W43778  17.613  14.628  14.455
78794W        W43779  21.014  28.621   4.311
78795W        W43780   9.927  21.461   4.106
78796W        W43781  34.175  32.488  10.591
78797W        W43782  17.074  34.602  11.930
78798W        W43783  33.370  36.626   3.753
78799W        W43784  37.722   3.758   4.239
78800W        W43785   1.966  21.532   0.718
78801W        W43786  27.675  27.733  14.321
78802W        W43787   2.030  26.998   3.264
78803W        W43788  22.548  26.710  13.661
78804W        W43789   0.943  40.342   3.097
78805W        W43790  25.405  41.308   0.422
78806W        W43791  41.802  30.648   5.046
78807W        W43792   3.659  37.275   2.833
78808W        W43793  18.748   4.583   3.093
78809W        W43794  37.375   3.035  11.668
78810W        W43795   7.643  12.765   0.277
78811W        W43796  30.350  18.801  13.156
78812W        W43797  18.170   2.381   1.693
78813W        W43798  22.639  29.129  10.718
78814W        W43799  33.894  42.513   4.342
78815W        W43800  13.542  35.752   5.205
78816W        W43801  44.396  40.555  13.909
78817W        W43802  42.060  23.926   0.240
78818W        W43803  19.814  18.988  14.912
78819W        W43804  18.366   8.955  10.249
78820W        W43805  28.585   2.580   4.940
78821W        W43806  31.602   3.793  13.371
78822W        W43807  44.916   3.424  11.501
78823W        W43808  11.073  31.447  13.370
78824W        W43809  23.645   9.862  12.128
78825W        W43810  14.104  31.456   0.423
78826W        W43811  22.635   5.905   3.812
78827W        W43812   4.463  24.471   1.269
78828W        W43813  43.280   1.080   4.747
78829W        W43814  27.810   5.757  11.200
78830W        W43815  18.702   6.992  14.689
78831W        W43816  25.059  36.397   2.555
78832W        W43817  10.250  17.950   2.892
78833W        W43818   4.697  37.376  12.442
78834W        W43819  40.652  22.896  12.913
78835W        W43820   3.260  31.363  11.555
78836W        W43821  39.983  40.618  10.741
78837W        W43822  18.855   6.452   0.344
78838W        W43823  27.519  36.566  14.550
78839W        W43824  38.332  12.687   4.075
78840W        W43825  23.019  29.129  14.108
78841W        W43826   3.917  17.591   4.775
78842W        W43827  36.833   2.324  13.854
78843W        W43828  18.838  40.530   3.849
78844W        W43829  34.109  12.238  13.473
78845W        W43830  10.363  38.524   2.762
78846W        W43831  16.768  19.225   4.144
78847W        W43832  21.134  15.713  12.626
78848W        W43833  27.457   7.745  14.309
78849W        W43834  23.236  35.492   0.250
78850W        W43835  34.561  25.815   3.567
78851W        W43836  37.879  24.648   3.823
78852W        W43837  23.118  40.807   1.625
78853W        W43838  19.593  27.703   4.776
78854W        W43839  24.200  21.122  14.693
78855W        W43840  37.049  10.945   3.639
78856W        W43841  23.971  16.894  13.313
78857W        W43842   5.082  18.234   1.086
78858W        W43843  38.308   5.853   1.738
78859W        W43844  28.107   6.604  11.652
78860W        W43845  38.751  42.243  13.820
78861W        W43846   5.299  26.028   0.275
78862W        W43847  19.526   6.976  10.753
78863W        W43848  18.371  35.088   0.402
78864W        W43849  25.930  24.043   2.723
78865W        W43850  16.720  19.604  11.840
78866W        W43851   1.368  43.514  11.961
78867W        W43852  23.918  35.487  10.573
78868W        W43853  29.278   9.661   4.159
78869W        W43854   3.437   8.155  14.845
78870W        W43855   0.241  37.369  11.420
78871W        W43856  35.264   8.671   2.305
78872W        W43857  37.941  20.174  12.067
78873W        W43858  27.651  30.052  10.450
78874W        W43859  29.766   9.792   4.202
78875W        W43860  30.341  30.291   3.216
78876W        W43861   6.114   4.344   0.923
78877W        W43862  18.521  20.907  11.554
78878W        W43863  18.009  21.749   2.663
78879W        W43864  22.792   5.806   3.351
78880W        W43865   1.976  23.117   4.672
78881W        W43866  43.363  26.552   1.206
78882W        W43867   9.961   8.592  11.517
78883W        W43868  41.368   5.363  12.109
78884W        W43869   9.823  10.697  11.888
78885W        W43870  27.934  25.121   2.767
78886W        W43871  30.357  24.996  13.099
78887W        W43872  20.533  33.899  12.384
78888W        W43873  12.994  43.998   0.729
78889W        W43874  39.865  26.832   0.738
78890W        W43875  22.096   0.544   1.527
78891W        W43876  22.150  29.611   0.381
78892W        W43877  26.635  13.164  13.454
78893W        W43878  22.467  13.135   3.768
78894W        W43879  44.956  30.590   1.413
78895W        W43880  43.014   3.793  12.660
78896W        W43881  31.903  31.637   0.852
78897W        W43882  21.636   8.130   1.291
78898W        W43883  24.747  38.979  10.647
78899W        W43884  16.249  42.929   3.710
78900W        W43885  34.078   1.205  12.389
78901W        W43886   1.339  36.901   2.277
78902W        W43887  39.555  11.399  14.853
78903W        W43888  14.629  21.070  14.389
78904W        W43889  29.219  19.146  13.867
78905W        W43890  20.965  44.521   4.172
78906W        W43891  11.794   7.120  14.251
78907W        W43892   2.053  12.799  12.656
78908W        W43893   1.108   6.182   2.830
78909W        W43894  35.804   2.896  14.445
78910W        W43895  15.350  33.723  13.944
78911W        W43896  22.137  22.926  10.633
78912W        W43897  37.948  38.577   0.462
78913W        W43898  17.163  20.323  11.503
78914W        W43899  30.021  22.755  11.593
78915W        W43900  36.100  14.691  13.600
78916W        W43901  17.677  20.175   3.634
78917W        W43902  43.474  22.082   4.098
78918W        W43903  19.593  32.432   1.178
78919W        W43904   3.015   2.876   1.358
78920W        W43905  29.938  44.806  11.591
78921W        W43906  38.501  39.575  11.224
78922W        W43907  31.570  10.276  12.589
78923W        W43908  20.481  23.650   2.298
78924W        W43909  30.991  13.536   3.648
78925W        W43910  34.320  16.255  11.122
78926W        W43911  11.701  33.853   2.660
78927W        W43912  19.837  21.533   2.891
78928W        W43913  11.131   2.803  14.511
78929W        W43914  19.104  24.664  12.248
78930W        W43915   5.425  15.577  14.498
78931W        W43916  41.384   3.402   2.477
78932W        W43917  42.470   3.764  10.990
78933W        W43918  36.900  20.163   2.677
78934W        W43919   2.530   9.682  10.464
78935W        W43920  35.934  40.997  13.463
78936W        W43921   8.318  13.468   4.537
78937W        W43922  38.920  32.919   2.781
78938W        W43923  25.990  35.925   0.960
78939W        W43924  40.839  13.034  12.444
78940W        W43925  10.103   2.973   5.026
78941W        W43926  32.346   3.969   2.159
78942W        W43927  19.821  11.146  14.693
78943W        W43928   2.513   2.781   1.189
78944W        W43929  43.317  40.851  14.485
78945W        W43930   1.955  12.173  14.910
78946W        W43931  44.949   9.398   1.431
78947W        W43932  14.155  38.186   1.931
78948W        W43933  34.994  31.561   0.342
78949W        W43934  19.560   7.802  12.964
78950W        W43935   1.984  14.452  13.455
78951W        W43936  23.330  38.059   3.697
78952W        W43937  15.111  23.244  14.421
78953W        W43938  21.334  27.727  10.269
78954W        W43939   3.440   5.903   2.475
78955W        W43940  17.884  18.166   4.126
78956W        W43941  24.619  23.093   2.682
78957W        W43942  27.166  13.654   0.580
78958W        W43943  44.914  27.586  12.294
78959W        W43944   7.043  13.138  14.197
78960W        W43945   8.743  14.175   4.649
78961W        W43946  17.767  17.014   1.769
78962W        W43947  31.555  17.140   3.857
78963W        W43948  28.437   9.181  11.724
78964W        W43949  38.009  12.816   0.869
78965W        W43950  35.606  16.805   0.698
78966W        W43951   0.857  27.416  12.120
78967W        W43952  29.701   9.577   0.953
78968W        W43953   1.525  30.679  14.513
78969W        W43954  30.668  10.015   4.587
78970W        W43955  27.728   8.009  13.960
78971W        W43956  12.226  38.147   0.348
78972W        W43957  44.721  28.801  10.523
78973W        W43958   7.387  12.836  13.900
78974W        W43959  16.855  19.669   0.923
78975W        W43960  15.749  33.583   3.688
78976W        W43961   0.367  23.754  10.400
78977W        W43962  20.517  42.798  14.926
78978W        W43963   1.794  38.136  14.285
78979W        W43964  39.601  13.831   5.054
78980W        W43965  33.469  40.448   2.660
78981W        W43966   6.370  16.578  10.837
78982W        W43967  14.917  30.213  13.464
78983W        W43968  30.987  24.046  10.797
78984W        W43969   9.783  44.865   2.391
78985W        W43970  20.754   9.447   0.288
78986W        W43971  13.802  34.487   0.728
78987W        W43972   7.769  12.460  11.101
78988W        W43973  19.768  30.189  12.509
78989W        W43974   2.539  31.447   2.889
78990W        W43975  33.427  39.061  11.238
78991W        W43976  40.844  12.737  13.582
78992W        W43977  41.186  44.409   0.986
78993W        W43978  10.186  21.806   2.389
78994W        W43979   3.012   0.904   3.879
78995W        W43980   7.405  18.202  11.167
78996W        W43981  14.634  16.052  10.430
78997W        W43982  15.737   3.351   5.104
78998W        W43983  40.942  40.095  13.428
78999W        W43984  44.101  39.508   2.746
79000W        W43985  40.774  28.006  13.610
79001W        W43986  36.555  31.520  10.661
79002W        W43987   9.685  21.798   3.191
79003W        W43988  16.846  13.153  13.914
79004W        W43989  13.295  42.964   1.907
79005W        W43990  37.768  42.367   4.202
79006W        W43991  23.231  20.729   4.730
79007W        W43992   8.180  26.374   0.892
79008W        W43993  29.070  30.150   2.732
79009W        W43994  44.923  19.585   5.703
79010W        W43995  39.761  35.940   2.680
79011W        W43996  28.021  12.068  10.473
79012W        W43997  33.549  20.314   3.589
79013W        W43998  39.646  37.766  11.788
79014W        W43999  43.085  14.252   2.700
79015W        W44000  11.929  43.740  14.840
79016W        W44001  19.666  16.108   4.074
79017W        W44002  42.652  16.151  11.647
79018W        W44003  44.904  18.168  10.992
79019W        W44004   2.893  21.934   2.815
79020W        W44005  40.573  23.632   0.205
79021W        W44006   8.965  37.541   0.345
79022W        W44007  24.792   3.339  11.213
79023W        W44008  16.109  32.981   4.627
79024W        W44009  13.132  32.214   0.957
79025W        W44010  36.318  17.797   3.406
79026W        W44011  35.573   7.219   4.909
79027W        W44012  11.130  38.540   4.560
79028W        W44013  16.638   4.957   2.230
79029W        W44014  37.322  10.312  11.418
79030W        W44015  37.466   0.542   4.098
79031W        W44016  31.634  25.058  13.084
79032W        W44017  19.275  40.929   3.421
79033W        W44018  41.745  28.028   0.916
79034W        W44019  36.851  18.867  12.378
79035W        W44020  27.999  38.390   4.092
79036W        W44021  12.394   9.819   4.264
79037W        W44022  31.753  36.462   4.381
79038W        W44023  17.256  22.774   3.202
79039W        W44024  33.613  35.923   2.467
79040W        W44025  17.242   2.536  11.967
79041W        W44026  34.140  19.085  11.704
79042W        W44027  31.134  28.547  11.609
79043W        W44028  39.363   9.380  13.066
79044W        W44029   8.810  42.987  11.743
79045W        W44030  33.092  34.105   0.076
79046W        W44031   7.546  44.300   1.995
79047W        W44032  31.527  22.049  14.729
79048W        W44033   5.653  25.484   2.162
79049W        W44034  11.015   3.677   2.489
79050W        W44035  20.253   1.010   1.696
79051W        W44036  21.657  24.488   0.408
79052W        W44037  38.951  17.481  14.361
79053W        W44038  16.600  34.644   4.520
79054W        W44039  26.726  22.938   3.471
79055W        W44040  28.688  13.541  11.140
79056W        W44041  19.989  42.512   1.690
79057W        W44042   1.804  34.585  13.446
79058W        W44043   3.699  32.350   0.710
79059W        W44044  15.735   5.502  12.664
79060W        W44045   5.096  16.227   1.777
79061W        W44046  37.342  11.137   0.047
79062W        W44047  41.334   1.310   2.235
79063W        W44048  18.101  19.041   1.402
79064W        W44049  35.013  30.676  14.722
79065W        W44050  10.646  19.080  13.008
79066W        W44051  35.828   5.669   1.865
79067W        W44052  15.643   3.345  10.929
79068W        W44053  27.996  14.585  11.581
79069W        W44054  33.968   1.709   0.009
79070W        W44055  14.145   1.862   1.090
79071W        W44056   5.171  29.484   2.179
79072W        W44057  35.385  40.397   3.103
79073W        W44058  35.616   0.789  11.272
79074W        W44059  34.509  12.082   0.430
79075W        W44060  23.652  14.843   0.628
79076W        W44061   5.695  39.330  14.003
79077W        W44062  11.655  29.204   3.324
79078W        W44063   1.501  26.053  14.925
79079W        W44064  13.195  42.046   4.443
79080W        W44065  23.964  33.168  14.293
79081W        W44066  17.036  36.570   3.249
79082W        W44067  30.716  30.711   2.388
79083W        W44068   3.720  34.047  10.639
79084W        W44069  17.081   8.277  11.951
79085W        W44070  42.785   3.447  14.404
79086W        W44071  35.888  14.130  11.648
79087W        W44072  43.211   1.420   3.103
79088W        W44073  28.420   1.371   2.743
79089W        W44074   3.672  10.505  14.797
79090W        W44075   0.458  18.486   4.214
79091W        W44076  42.982  12.960   1.297
79092W        W44077   7.185  41.514   4.610
79093W        W44078  22.300   0.278  13.888
79094W        W44079  32.562  44.542   4.490
79095W        W44080  34.404  37.909   2.701
79096W        W44081   7.262  37.729  13.115
79097W        W44082  32.411   0.834  13.960
79098W        W44083  10.610  24.396   4.871
79099W        W44084  14.699   5.855   1.804
79100W        W44085  12.132  22.097  12.425
79101W        W44086  37.656  37.984  14.802
79102W        W44087  19.354  31.415  11.093
79103W        W44088  25.462   5.566   4.255
79104W        W44089   9.836  35.025   3.702
79105W        W44090  44.873  39.791   1.289
79106W        W44091  15.525  24.576   4.484
79107W        W44092   2.022   1.922   0.987
79108W        W44093  21.359  41.753  13.771
79109W        W44094   6.921  34.104   4.722
79110W        W44095  24.844  13.334  10.457
79111W        W44096   2.657  24.507   1.312
79112W        W44097  13.842   8.278  13.845
79113W        W44098  40.281  29.210   2.640
79114W        W44099  30.139   2.483   0.894
79115W        W44100   0.932  15.377   2.261
79116W        W44101  33.496  19.615   2.074
79117W        W44102   1.939  35.539  12.613
79118W        W44103  36.704  10.080  13.796
79119W        W44104   9.257  33.820  14.055
79120W        W44105  28.411  32.490   0.296
79121W        W44106  20.156  14.185  14.857
79122W        W44107   2.785  20.009  13.589
79123W        W44108  18.294  26.974  13.481
79124W        W44109  15.120  25.681   1.242
79125W        W44110  16.375  36.794  11.739
79126W        W44111  33.084  44.299   4.316
79127W        W44112  30.429  19.603   3.601
79128W        W44113  29.943   1.353   5.065
79129W        W44114  16.569  16.217   3.845
79130W        W44115  11.208  11.781   0.069
79131W        W44116  31.421  25.882  13.583
79132W        W44117   5.827  14.633  14.668
79133W        W44118  30.266  10.897   1.239
79134W        W44119   5.616  41.471  11.426
79135W        W44120   7.271  36.200  11.174
79136W        W44121  14.553  13.676   4.202
79137W        W44122   1.701   9.858   0.977
79138W        W44123  14.789  44.321  13.082
79139W        W44124   2.864   8.903   1.869
79140W        W44125   5.124  18.947   4.021
79141W        W44126  29.452   4.688  11.876
79142W        W44127  32.339  12.454   4.278
79143W        W44128  20.244   4.048  10.148
79144W        W44129  19.811  40.497  11.200
79145W        W44130  15.377  26.120  13.808
79146W        W44131  44.401  40.516   0.772
79147W        W44132  24.213   7.467  14.290
79148W        W44133  34.695  14.618  14.332
79149W        W44134  15.713  11.765   5.076
79150W        W44135  40.715  24.260   3.183
79151W        W44136   9.514   5.247   1.306
79152W        W44137   6.417  21.553  10.794
79153W        W44138   5.174   3.248   1.139
79154W        W44139   3.798   8.648   0.291
79155W        W44140   0.704  19.824  10.020
79156W        W44141  34.994  42.078  12.158
79157W        W44142   3.507  27.951  10.274
79158W        W44143  31.470  39.541  14.228
79159W        W44144  13.997  15.885  11.042
79160W        W44145   2.460   8.066   0.787
79161W        W44146  20.174  38.886  12.927
79162W        W44147  42.506  20.819   0.918
79163W        W44148   0.001  15.542  14.033
79164W        W44149   3.670  16.843  11.535
79165W        W44150  44.309  25.353   4.172
79166W        W44151  24.024  24.708   4.967
79167W        W44152   5.987  28.044   0.929
79168W        W44153   3.771  31.882   3.719
79169W        W44154   7.726  36.578  12.568
79170W        W44155  14.043   4.133   0.866
79171W        W44156  34.984   9.845  12.586
79172W        W44157  33.039   6.699   1.866
79173W        W44158  35.497  11.136   1.217
79174W        W44159  34.805  38.322  10.734
79175W        W44160   4.755   9.479   0.810
79176W        W44161  18.047  23.922  11.174
79177W        W44162   8.424  15.172  14.511
79178W        W44163  34.060  12.222  11.327
79179W        W44164  43.551  13.894  13.462
79180W        W44165  24.290  34.604  13.394
79181W        W44166  44.896   5.695   2.352
79182W        W44167   6.912  40.742   1.231
79183W        W44168  40.333  20.045   1.680
79184W        W44169  42.949  27.713  14.912
79185W        W44170  38.842  21.800   2.560
79186W        W44171  42.198  40.072  11.200
79187W        W44172  31.980  34.834  14.302
79188W        W44173  42.395  29.719   3.426
79189W        W44174  34.239  24.303  12.497
79190W        W44175   4.469  15.787  11.451
79191W        W44176  34.625   5.060  13.434
79192W        W44177  40.996  43.290  13.702
79193W        W44178  19.567  38.441  12.121
79194W        W44179   6.767  32.402  10.681
79195W        W44180  37.231  17.130  12.055
79196W        W44181   6.386  29.069  11.208
79197W        W44182  22.719   1.361   2.217
79198W        W44183   2.978   7.044   4.840
79199W        W44184   4.412  22.036   3.885
79200W        W44185  40.198   8.285   0.878
79201W        W44186  22.343  43.650   2.889
79202W        W44187   1.577  17.731  13.172
79203W        W44188  42.381  36.065   0.930
79204W        W44189   5.660  14.738   0.837
79205W        W44190   7.294  32.935  11.951
79206W        W44191  34.568  21.767   3.788
79207W        W44192  13.670  31.835  10.718
79208W        W44193  26.057  21.102  13.274
79209W        W44194  10.279  33.048  14.426
79210W        W44195   1.996  16.877   0.445
79211W        W44196   0.408  17.699  14.451
79212W        W44197  13.752   2.362  12.550
79213W        W44198  26.462   9.915  13.076
79214W        W44199  16.211  14.077  12.481
79215W        W44200  22.215   0.230   4.243
79216W        W44201  21.313   3.140   2.409
79217W        W44202  42.900  18.812   4.138
79218W        W44203  40.949   9.425   2.360
79219W        W44204  25.267   6.735  12.435
79220W        W44205  25.960  33.350  14.397
79221W        W44206   5.972  13.032   0.045
79222W        W44207  38.537  42.305   1.487
79223W        W44208  12.701  19.073  10.920
79224W        W44209  12.607  23.657  13.096
79225W        W44210  10.398   7.610  13.413
79226W        W44211  40.986  28.413   0.773
79227W        W44212  16.528   3.693   9.458
79228W        W44213   3.496  22.338  11.563
79229W        W44214  29.015  26.784  10.325
79230W        W44215   6.036  32.461  12.467
79231W        W44216  35.414   0.995  12.927
79232W        W44217   9.337  20.535  13.030
79233W        W44218  21.118  15.263  11.887
79234W        W44219  38.905  20.334   9.806
79235W        W44220  20.065  10.264   4.173
79236W        W44221  23.062  29.558   0.407
79237W        W44222  43.504  24.806  14.143
79238W        W44223  20.678  30.373   3.384
79239W        W44224  44.235   9.485  12.768
79240W        W44225  11.848  15.216   3.784
79241W        W44226  41.741  36.507   1.906
79242W        W44227  33.395  35.944  13.424
79243W        W44228  10.965  26.989   1.385
79244W        W44229  23.917   2.434  14.774
79245W        W44230  17.599  16.409  13.262
79246W        W44231   3.169   6.795   1.540
79247W        W44232  23.986   2.536  12.089
79248W        W44233   5.129   0.135  10.241
79249W        W44234   2.137  24.991  11.030
79250W        W44235  40.542  24.468   2.161
79251W        W44236  35.437  37.108  10.675
79252W        W44237  41.277  17.237  12.394
79253W        W44238   1.246  44.046  13.337
79254W        W44239  33.555  21.359   3.739
79255W        W44240  34.818   7.393   1.400
79256W        W44241  17.110  44.339   2.280
79257W        W44242  39.540  44.656  13.919
79258W        W44243   8.646  24.197  14.922
79259W        W44244  42.411  13.424  10.657
79260W        W44245   3.988  10.708  13.238
79261W        W44246   7.723  26.699   0.922
79262W        W44247  37.363   4.867   3.727
79263W        W44248   4.392  34.889   1.993
79264W        W44249  24.557  25.000  13.036
79265W        W44250  34.524  30.637   4.543
79266W        W44251   5.028  14.307  11.397
79267W        W44252   1.062  40.421   4.031
79268W        W44253  13.411  43.853   3.170
79269W        W44254  18.036  20.375  11.546
79270W        W44255  16.691  33.223   2.405
79271W        W44256  33.771  26.922  12.306
79272W        W44257  25.533  12.168   4.807
79273W        W44258  34.469  24.030  12.885
79274W        W44259  36.895  24.756  10.836
79275W        W44260  26.495  23.585   1.643
79276W        W44261   3.037  17.385  10.999
79277W        W44262   8.863  35.488  11.919
79278W        W44263   0.899  15.109  10.580
79279W        W44264  17.553  44.791  12.118
79280W        W44265  40.761  10.739   2.773
79281W        W44266  22.797  19.736   0.493
79282W        W44267  27.992  13.527   4.467
79283W        W44268   7.460   0.800   2.241
79284W        W44269   7.716  34.411   4.981
79285W        W44270  36.486   5.827  12.561
79286W        W44271  31.617  28.956  11.103
79287W        W44272   7.399  29.162  13.541
79288W        W44273  43.585  25.178   1.306
79289W        W44274  21.255   5.449  13.470
79290W        W44275   0.303  11.840  13.922
79291W        W44276  17.932  26.578  10.020
79292W        W44277  32.470  37.576   0.885
79293W        W44278  32.614   1.365   0.941
79294W        W44279  12.748  33.512   1.673
79295W        W44280   9.800  40.709   0.709
79296W        W44281  16.794  26.619  12.001
79297W        W44282  21.179   4.165  14.139
79298W        W44283   0.062   5.426  11.565
79299W        W44284  16.478  36.933  14.398
79300W        W44285  23.219  41.286   2.865
79301W        W44286   0.467   3.987  10.802
79302W        W44287  11.083  28.910   1.373
79303W        W44288   9.499  22.825   4.058
79304W        W44289  10.942  22.138   0.456
79305W        W44290   4.014  35.424   3.796
79306W        W44291  34.843  16.405   4.101
79307W        W44292  43.480  26.519  11.538
79308W        W44293  43.773  32.070  12.821
79309W        W44294   6.734  30.698  11.205
79310W        W44295  15.978  18.528  12.010
79311W        W44296  28.984  32.459  11.728
79312W        W44297   5.724  44.986  10.340
79313W        W44298  41.933  32.222  11.549
79314W        W44299  14.720  44.669  10.687
79315W        W44300  38.839  18.866   5.063
79316W        W44301   8.356  16.831   0.650
79317W        W44302  30.997  43.369  14.967
79318W        W44303  11.118  28.729  13.339
79319W        W44304  11.360   5.835  14.818
79320W        W44305  10.777  12.593   4.044
79321W        W44306  43.253   0.085   0.824
79322W        W44307   2.866  42.731  13.446
79323W        W44308  15.144  42.515  10.706
79324W        W44309  12.403  27.589  13.914
79325W        W44310  41.043  19.229   0.670
79326W        W44311  27.745  23.944  12.885
79327W        W44312  12.953   4.859  11.468
79328W        W44313  38.484  20.077   4.277
79329W        W44314  29.922   1.824  11.523
79330W        W44315  27.577  28.546   3.916
79331W        W44316  23.103  27.629  12.504
79332W        W44317  10.912   1.841  14.106
79333W        W44318  39.445  42.099  12.117
79334W        W44319  10.285  39.057   2.750
79335W        W44320  27.721  41.413   4.345
79336W        W44321  14.560  36.057  10.807
79337W        W44322  23.427  36.949  12.545
79338W        W44323  16.127   1.724   0.272
79339W        W44324   0.774  23.821  11.144
79340W        W44325  19.182   4.471   4.654
79341W        W44326  38.893   4.558  10.705
79342W        W44327  34.089   0.020   2.225
79343W        W44328  32.562   7.793   4.993
79344W        W44329  35.017   5.638  13.962
79345W        W44330  26.968  14.699  11.843
79346W        W44331  12.820  36.077  13.770
79347W        W44332  13.577  12.788  12.935
79348W        W44333  26.390   1.148  12.000
79349W        W44334  14.579  11.239   1.809
79350W        W44335  37.307  27.234  14.290
79351W        W44336  21.580  13.807   4.279
79352W        W44337  19.178  20.831   0.881
79353W        W44338  11.836  41.502  14.738
79354W        W44339  16.641  29.062  11.974
79355W        W44340  39.504  17.148  12.429
79356W        W44341  16.276  18.714   2.701
79357W        W44342   5.506   6.464  11.067
79358W        W44343  10.313   8.973  11.450
79359W        W44344  11.108  27.579  10.529
79360W        W44345  42.507  31.457   0.035
79361W        W44346  12.923  38.835   0.251
79362W        W44347   7.894  42.404   0.873
79363W        W44348  43.567  18.625  13.437
79364W        W44349   1.210   9.306   1.910
79365W        W44350  19.987   5.430  12.128
79366W        W44351  21.246  23.068   3.200
79367W        W44352  14.609  26.087   1.855
79368W        W44353   9.643  12.738  13.107
79369W        W44354   7.877   5.630   3.232
79370W        W44355  36.835  10.682  14.731
79371W        W44356  28.424  37.232   2.232
79372W        W44357   1.760   3.854  14.090
79373W        W44358  26.232  14.791  13.030
79374W        W44359  32.522  28.116   1.085
79375W        W44360  26.128  36.534  12.521
79376W        W44361  44.320  20.935  13.986
79377W        W44362   9.472   1.151  14.475
79378W        W44363  24.931  30.756   2.702
79379W        W44364  15.551   4.453  13.320
79380W        W44365  32.601  35.016  11.966
79381W        W44366   2.422  25.960   4.743
79382W        W44367  24.066  33.534   0.084
79383W        W44368  41.935   4.207  13.063
79384W        W44369   7.859  23.777  12.014
79385W        W44370   5.266  26.253  13.946
79386W        W44371  42.916  16.312   2.110
79387W        W44372   9.808  38.677  14.837
79388W        W44373  26.009  30.399   3.121
79389W        W44374  40.911  41.892  11.506
79390W        W44375  43.281  16.019  11.918
79391W        W44376   5.403  13.114  14.368
79392W        W44377   3.382  26.156   3.780
79393W        W44378  31.759  37.994  14.957
79394W        W44379  15.308  18.214  14.840
79395W        W44380   5.353   5.686   0.493
79396W        W44381  39.141  24.064  12.593
79397W        W44382  17.152   0.681   1.627
79398W        W44383   4.890  30.876  12.497
79399W        W44384   3.712  32.377  14.798
79400W        W44385  39.639   7.305   1.424
79401W        W44386  11.778  35.486  14.993
79402W        W44387  20.920  39.018  13.979
79403W        W44388  28.104  35.543  14.023
79404W        W44389  41.503  42.887   0.227
79405W        W44390  43.667  37.633   3.336
79406W        W44391  23.172  44.405   0.958
79407W        W44392   2.960  42.028   1.846
79408W        W44393  34.288  41.885   0.606
79409W        W44394  13.718   2.468  13.879
79410W        W44395  42.066  34.430  14.799
79411W        W44396  23.702   7.252   1.305
79412W        W44397  34.504   5.712   3.022
79413W        W44398  43.418   4.353   0.143
79414W        W44399  12.786   0.785   4.825
79415W        W44400  43.042  26.220   3.800
79416W        W44401  22.507  17.311   3.178
79417W        W44402  41.432  12.494   3.797
79418W        W44403  15.534  39.341   0.809
79419W        W44404  44.519  22.937  11.022
79420W        W44405  27.426  23.095   2.381
79421W        W44406  15.824   3.533   1.210
79422W        W44407  18.337  22.293  13.783
79423W        W44408  41.477  29.998  13.363
79424W        W44409  18.113   5.456  11.953
79425W        W44410   4.554  30.224  13.064
79426W        W44411  33.853  18.216  11.993
79427W        W44412   2.732   1.876  10.804
79428W        W44413  27.151  14.378  11.481
79429W        W44414  33.935   7.112  13.947
79430W        W44415  35.894  19.132   0.954
79431W        W44416  20.235   0.031  12.104
79432W        W44417  22.644  29.085  14.520
79433W        W44418   2.295  25.343   0.529
79434W        W44419   5.801  20.061  14.864
79435W        W44420  14.086  44.983   1.767
79436W        W44421  14.583   8.639  11.627
79437W        W44422  18.210  38.786  12.162
79438W        W44423  26.073  25.970  12.805
79439W        W44424  34.501   6.295  14.332
79440W        W44425   6.415  11.371  12.950
79441W        W44426  41.729  10.717   1.382
79442W        W44427  24.124  16.052   2.305
79443W        W44428  25.439  19.210  12.936
79444W        W44429  26.527   8.812  14.745
79445W        W44430  20.606  39.817  14.087
79446W        W44431  18.242  33.514   2.015
79447W        W44432  23.775  23.525  13.468
79448W        W44433  38.357   3.249   1.038
79449W        W44434   2.720  30.935   2.221
79450W        W44435  15.660  18.794   4.133
79451W        W44436  21.697  38.136   4.369
79452W        W44437  27.781  40.915   2.395
79453W        W44438  10.727   0.769   0.660
79454W        W44439  43.682  26.905   3.392
79455W        W44440  20.589   5.935   1.371
79456W        W44441   8.858   2.619   4.516
79457W        W44442  16.178  32.991  11.641
79458W        W44443  11.133  41.923   0.852
79459W        W44444  28.620   5.372  11.829
79460W        W44445   5.768  35.825   1.460
79461W        W44446   8.093  24.295   0.754
79462W        W44447  30.683  41.389  11.164
79463W        W44448   3.758  42.908  13.321
79464W        W44449  33.407  26.596   0.448
79465W        W44450   3.756  21.182  11.107
79466W        W44451  13.236  33.346  11.316
79467W        W44452  38.317   4.235  12.034
79468W        W44453  15.206   2.290  13.061
79469W        W44454  21.438  42.497  10.655
79470W        W44455   3.275  30.345  13.997
79471W        W44456   9.362  29.105  12.583
79472W        W44457  43.763  22.970  12.353
79473W        W44458  40.938   5.390   3.643
79474W        W44459  41.973   3.191   4.565
79475W        W44460  11.556  20.922  11.525
79476W        W44461   2.955   3.285  12.966
79477W        W44462  16.853  37.356  11.081
79478W        W44463   0.489  38.244  14.151
79479W        W44464  17.243  37.279  14.526
79480W        W44465  18.300  22.204   0.917
79481W        W44466  18.126  21.233   0.591
79482W        W44467  18.026  29.667   3.099
79483W        W44468   5.318  11.904   1.691
79484W        W44469  32.940  24.610  10.666
79485W        W44470  41.227  32.857   4.234
79486W        W44471  17.187  15.366  14.363
79487W        W44472   5.667  17.812   0.153
79488W        W44473  28.595  16.272  11.640
79489W        W44474  28.910   2.771   4.132
79490W        W44475  11.717  25.749  13.399
79491W        W44476   3.981  26.376  14.215
79492W        W44477   0.263   9.699   0.683
79493W        W44478   8.394   0.962   2.499
79494W        W44479  36.250  15.730   1.153
79495W        W44480  22.964   1.049   1.858
79496W        W44481  27.175  27.701  14.838
79497W        W44482   9.776  43.670   0.347
79498W        W44483  13.610  44.514   1.879
79499W        W44484   2.999  40.943   3.732
79500W        W44485  41.906  41.033   1.653
79501W        W44486   0.507   6.390   0.832
79502W        W44487  22.165  34.845  12.030
79503W        W44488  12.154  24.590  11.864
79504W        W44489  19.056  40.868   1.477
79505W        W44490  25.612  44.590   2.265
79506W        W44491  13.052   5.596   9.811
79507W        W44492  27.066  44.459   2.773
79508W        W44493  33.508  18.895  13.444
79509W        W44494  39.256  13.056   3.187
79510W        W44495  36.850  43.356   4.743
79511W        W44496   8.462  33.348   0.737
79512W        W44497  18.959  34.516  11.536
79513W        W44498  24.094  22.311  13.989
79514W        W44499  24.250  20.227  13.960
79515W        W44500  13.261  31.623   4.055
79516W        W44501   4.953  15.091   1.909
79517W        W44502  38.302  37.034  12.073
79518W        W44503  28.192  12.700  11.114
79519W        W44504  17.780  10.717   3.914
79520W        W44505  11.781  44.786   0.821
79521W        W44506   5.178  20.320   2.700
79522W        W44507  19.614   4.691  12.435
79523W        W44508  16.557  33.372  14.850
79524W        W44509  12.718  18.785  12.211
79525W        W44510  39.523   1.512   3.138
79526W        W44511  24.881  39.927   4.162
79527W        W44512   2.894  12.216   2.976
79528W        W44513  12.237   8.289   0.784
79529W        W44514  43.697  44.316  11.009
79530W        W44515   2.905  16.849  13.468
79531W        W44516  19.519  14.686   1.615
79532W        W44517   9.572  42.399  13.076
79533W        W44518   7.908   6.656   3.155
79534W        W44519   7.832  12.745   3.125
79535W        W44520  15.510  39.144   2.669
79536W        W44521  37.802  26.896   4.491
79537W        W44522   3.708   8.151   0.283
79538W        W44523  27.277  21.451  13.395
79539W        W44524  26.778  19.812   1.982
79540W        W44525  23.276  21.701  14.211
79541W        W44526  10.923  40.145   1.621
79542W        W44527  27.281  37.512   4.570
79543W        W44528  25.825  12.317  10.336
79544W        W44529  23.428  20.039  12.582
79545W        W44530   7.759  43.708   4.137
79546W        W44531  34.526  14.167  13.381
79547W        W44532  11.802   1.554  10.544
79548W        W44533  41.302  37.899   2.336
79549W        W44534   2.280   7.298   2.325
79550W        W44535  10.785  20.511  13.042
79551W        W44536  11.715  44.026   4.585
79552W        W44537  41.867   9.697   0.462
79553W        W44538  32.402   5.933   1.697
79554W        W44539  19.173   8.988  11.104
79555W        W44540  29.452  13.799  14.926
79556W        W44541  19.347   1.493   1.827
79557W        W44542  40.448  37.882   3.407
79558W        W44543   8.265  15.669   4.845
79559W        W44544   8.316   0.924   1.429
79560W        W44545  19.574  36.504   1.150
79561W        W44546  41.817   7.313   1.754
79562W        W44547  42.957  14.083  11.480
79563W        W44548  33.180  12.732   1.967
79564W        W44549  39.509  39.247   2.835
79565W        W44550  12.310   5.899   4.137
79566W        W44551  36.480  28.436  14.509
79567W        W44552  20.360  28.456  12.951
79568W        W44553  10.180  43.428  11.712
79569W        W44554  30.705  16.689  13.341
79570W        W44555   1.898  10.489   4.797
79571W        W44556  15.293  29.721  11.121
79572W        W44557  44.322  42.491   1.212
79573W        W44558  35.845  42.977  13.084
79574W        W44559   7.693  39.248  10.935
79575W        W44560  31.420   5.644  11.767
79576W        W44561  37.632  35.463  12.051
79577W        W44562  17.828  30.066  13.503
79578W        W44563  13.401   1.363   3.627
79579W        W44564  29.821  24.896   2.773
79580W        W44565  33.901  43.594  13.541
79581W        W44566  17.429  30.802   1.212
79582W        W44567  41.113  27.591   5.133
79583W        W44568  32.446  32.681  13.726
79584W        W44569  16.785  41.264  14.853
79585W        W44570  42.419  20.688  13.063
79586W        W44571   3.044   3.325  10.599
79587W        W44572  35.529  31.181   3.306
79588W        W44573  25.166  44.260  11.125
79589W        W44574  44.287  24.206  14.206
79590W        W44575   4.195   6.268   2.344
79591W        W44576  19.416  36.642   0.685
79592W        W44577  27.932  43.406   2.887
79593W        W44578  36.882   5.743   4.639
79594W        W44579   3.705  16.354  14.759
79595W        W44580  43.247  30.365   1.750
79596W        W44581  12.499  34.062  14.350
79597W        W44582  35.842  31.397   0.569
79598W        W44583  37.141  16.808   3.623
79599W        W44584  40.532  24.276  12.538
79600W        W44585  36.889   6.158   0.199
79601W        W44586  19.289  24.297  13.066
79602W        W44587  17.310   3.676   3.315
79603W        W44588   9.486   3.278  12.675
79604W        W44589  13.207  29.173   5.051
79605W        W44590   9.156  21.479   0.908
79606W        W44591  31.429  37.613  11.225
79607W        W44592  30.023  18.528   3.136
79608W        W44593  43.710  44.062   1.742
79609W        W44594  44.227  43.838  10.274
79610W        W44595  43.510  21.944  11.617
79611W        W44596  18.681   4.234   3.466
79612W        W44597  19.959  15.112   0.279
79613W        W44598  43.828   7.605  12.847
79614W        W44599  16.045  20.012  11.106
79615W        W44600  40.486  26.500   1.416
79616W        W44601  35.117  25.440  14.885
79617W        W44602  32.700  36.519   0.364
79618W        W44603  22.030  13.273  12.997
79619W        W44604   5.379  11.771  12.366
79620W        W44605  37.059   9.900  13.456
79621W        W44606  40.445  23.768  12.505
79622W        W44607  42.998  16.911  14.468
79623W        W44608  21.024  40.255  10.577
79624W        W44609  24.584  16.805  10.856
79625W        W44610  13.165   9.424   3.659
79626W        W44611  30.250  10.657  11.066
79627W        W44612   9.469  33.820  14.677
79628W        W44613  16.718  34.150   2.875
79629W        W44614   6.867  17.694   0.856
79630W        W44615  29.549  11.671   3.568
79631W        W44616  14.165  21.686   0.295
79632W        W44617  31.149  39.548  14.879
79633W        W44618  41.775  37.098   4.723
79634W        W44619  22.081  38.285   1.924
79635W        W44620  38.029  14.021  11.728
79636W        W44621   3.518  10.462   1.189
79637W        W44622  26.980  42.056   3.293
79638W        W44623  13.282  27.164  10.690
79639W        W44624  26.916  12.352  14.451
79640W        W44625  44.712  34.937   4.643
79641W        W44626  17.041  42.998   1.295
79642W        W44627  40.986   2.534   3.697
79643W        W44628   5.451  25.988  13.450
79644W        W44629  22.292  32.793  12.820
79645W        W44630  24.178  10.455  12.921
79646W        W44631  19.367  30.223   4.099
79647W        W44632  25.442   2.258  12.890
79648W        W44633  17.618  43.263   3.365
79649W        W44634  17.228  41.516  14.383
79650W        W44635   8.872  19.998   0.258
79651W        W44636  10.587  34.127  12.424
79652W        W44637  14.180  26.803  10.642
79653W        W44638  25.243  33.006   2.564
79654W        W44639  18.941  32.161  11.583
79655W        W44640   2.498  34.906  14.007
79656W        W44641  38.718  33.522  10.666
79657W        W44642  44.448   4.279  10.105
79658W        W44643  40.982  11.125  12.861
79659W        W44644   4.277  36.395   4.151
79660W        W44645  18.103  44.263  11.973
79661W        W44646  15.739  22.057   1.001
79662W        W44647  21.611  30.525   4.163
79663W        W44648  19.297  41.499   0.361
79664W        W44649  17.878   2.899  10.807
79665W        W44650   7.804  13.957  12.931
79666W        W44651  11.711  12.595   2.121
79667W        W44652  21.005  11.859  10.726
79668W        W44653  33.399   6.147   3.600
79669W        W44654   9.397  42.621  12.647
79670W        W44655  26.575  32.578   1.207
79671W        W44656  39.002  37.555   2.706
79672W        W44657   2.834   2.356   1.323
79673W        W44658   2.829  43.491  14.875
79674W        W44659  21.635  12.371   0.569
79675W        W44660  16.446  22.153   1.662
79676W        W44661  23.915  31.446  11.500
79677W        W44662  23.869  33.760   0.952
79678W        W44663  28.415  14.832   2.202
79679W        W44664   0.059   6.698   0.839
79680W        W44665  26.100   0.296  14.795
79681W        W44666   5.288  18.101  13.440
79682W        W44667  32.511  29.458   0.054
79683W        W44668  43.163   6.372  12.145
79684W        W44669  14.531  29.939  11.606
79685W        W44670   6.145  29.509   2.480
79686W        W44671  43.031  11.866   3.201
79687W        W44672  13.564  26.638  12.660
79688W        W44673  35.137  34.843  10.813
79689W        W44674   3.449  22.780  13.167
79690W        W44675  15.745  19.535  12.131
79691W        W44676   4.691  26.451  12.223
79692W        W44677   2.147  26.219  13.906
79693W        W44678  11.585  32.985  12.113
79694W        W44679  38.906  22.725  14.386
79695W        W44680  14.882  18.776   3.077
79696W        W44681  16.118  35.007   0.656
79697W        W44682  14.579  35.943  13.056
79698W        W44683   2.889  12.819  11.596
79699W        W44684  24.957  40.433   0.330
79700W        W44685  34.439  43.954   1.626
79701W        W44686   7.662   3.425  12.376
79702W        W44687  11.462  25.655   0.035
79703W        W44688   6.443  36.116   3.326
79704W        W44689   5.305  34.844   2.984
79705W        W44690   5.329  18.560   3.729
79706W        W44691   2.862   9.166   2.354
79707W        W44692  27.577   9.176  11.494
79708W        W44693  32.070   3.506   3.407
79709W        W44694  32.857  34.377  12.144
79710W        W44695   9.279  10.204  13.187
79711W        W44696  25.925  34.503   3.695
79712W        W44697  18.668  30.433   0.951
79713W        W44698  23.096  41.744   2.650
79714W        W44699  34.313  40.685  13.431
79715W        W44700   8.411   9.315  11.039
79716W        W44701  19.178  23.430  14.900
79717W        W44702   3.982  26.423   0.238
79718W        W44703  37.857  25.086   2.410
79719W        W44704  20.749  29.327  12.593
79720W        W44705   7.792   3.272   9.737
79721W        W44706  41.029   8.735  14.894
79722W        W44707  36.564  27.032   0.434
79723W        W44708  16.124  22.564   1.771
79724W        W44709  34.562  33.107   3.262
79725W        W44710  15.331  24.679   3.732
79726W        W44711   9.738  38.518   4.513
79727W        W44712  42.176  30.841   0.392
79728W        W44713  31.966   6.576  11.651
79729W        W44714  24.734  11.080   0.372
79730W        W44715  36.141  19.031  13.056
79731W        W44716   5.841  40.601   2.400
79732W        W44717  44.733   1.786   1.312
79733W        W44718  20.185  28.020  10.098
79734W        W44719  26.981  44.369   1.346
79735W        W44720  23.401  42.213  14.126
79736W        W44721  25.386  23.127  14.947
79737W        W44722  38.523  33.747  12.279
79738W        W44723   8.143  21.705   4.138
79739W        W44724   1.084   9.157   9.959
79740W        W44725  15.200   9.879   2.642
79741W        W44726   4.638  18.780   4.049
79742W        W44727  31.113  21.871   4.706
79743W        W44728  33.772  39.509  12.594
79744W        W44729  18.291  33.876  11.143
79745W        W44730   0.261  32.529  14.577
79746W        W44731  38.335  24.772   4.076
79747W        W44732  35.707  20.297   0.102
79748W        W44733  17.116   4.385   1.105
79749W        W44734  22.397  44.384   2.242
79750W        W44735   2.285  16.305   4.442
79751W        W44736  37.830  42.532  14.262
79752W        W44737  29.449  37.976  12.430
79753W        W44738  34.676  24.237  10.763
79754W        W44739   2.844  41.747  13.426
79755W        W44740  13.102  13.882  13.313
79756W        W44741  27.178  30.554   2.120
79757W        W44742  11.560   3.782   0.368
79758W        W44743  16.128  28.420  14.393
79759W        W44744  24.228   3.385   3.368
79760W        W44745  24.206  35.401   2.568
79761W        W44746  29.685  43.527  13.337
79762W        W44747   6.204  32.332   0.940
79763W        W44748  20.045  36.089   0.168
79764W        W44749   5.413   1.530   2.194
79765W        W44750  27.698   3.202  12.508
79766W        W44751  43.004  20.752  10.853
79767W        W44752  18.720  13.512  13.340
79768W        W44753  39.538  28.653  14.345
79769W        W44754  28.773  36.932   0.405
79770W        W44755   5.093   4.181  13.911
79771W        W44756  31.145  17.684   0.494
79772W        W44757  13.579   8.367  13.415
79773W        W44758   7.725  38.102   1.745
79774W        W44759  24.619  32.601   3.660
79775W        W44760  40.127  32.562   0.107
79776W        W44761   2.804   6.168  13.473
79777W        W44762  36.927  24.137  14.484
79778W        W44763  19.712   8.235  13.375
79779W        W44764  33.069  39.697   4.582
79780W        W44765  18.566  13.691   1.744
79781W        W44766  24.022  11.351   0.095
79782W        W44767  22.306  26.829  10.139
79783W        W44768  35.086  33.907  14.397
79784W        W44769  19.118  38.546   0.851
79785W        W44770   3.787  34.541   4.696
79786W        W44771  16.069  21.584  12.224
79787W        W44772  22.506  11.945  10.687
79788W        W44773  15.526  13.626   1.774
79789W        W44774  36.926   1.511  11.063
79790W        W44775  43.937  27.257   3.082
79791W        W44776  17.406  25.153   5.020
79792W        W44777   9.384   2.939   3.343
79793W        W44778  29.874  43.805  12.968
79794W        W44779  44.262  21.993   2.338
79795W        W44780  18.135  28.926  10.738
79796W        W44781  34.521  35.353   4.083
79797W        W44782   2.829  21.328  11.073
79798W        W44783  41.700  35.993   3.472
79799W        W44784  29.656  17.948  10.602
79800W        W44785  27.991  38.425  12.607
79801W        W44786  15.322  32.517   4.821
79802W        W44787  40.371  37.312  13.495
79803W        W44788  42.457  18.036   4.871
79804W        W44789  20.637  12.360   0.027
79805W        W44790  16.456  44.466  12.721
79806W        W44791  28.723  19.197  11.939
79807W        W44792  39.021  42.889   4.511
79808W        W44793  42.361  27.141  14.550
79809W        W44794  37.359  15.338   0.779
79810W        W44795   0.255   0.675  14.280
79811W        W44796  36.825  24.867   1.566
79812W        W44797   6.798  29.675  12.827
79813W        W44798  38.471  24.972   0.327
79814W        W44799  18.713   3.817   0.921
79815W        W44800  23.976  12.186  11.485
79816W        W44801  23.687   3.413   3.477
79817W        W44802  41.590  17.632   1.437
79818W        W44803  23.922  37.535  12.193
79819W        W44804   9.006  43.465   4.281
79820W        W44805  35.558  25.069  12.037
79821W        W44806  14.966  23.504   1.985
79822W        W44807   2.424  44.255  11.646
79823W        W44808   4.437   0.291  11.109
79824W        W44809  44.787  33.961   3.887
79825W        W44810   8.658   0.334   3.004
79826W        W44811  19.208  14.754   2.733
79827W        W44812  14.291   4.693  11.987
79828W        W44813   8.605  14.113   1.177
79829W        W44814   7.849  16.988   4.726
79830W        W44815   9.791  17.564   1.167
79831W        W44816  33.361  33.960  13.236
79832W        W44817   3.473  41.868   2.786
79833W        W44818  28.438  19.185   3.129
79834W        W44819   4.199  35.075  13.460
79835W        W44820  31.706   8.831   2.301
79836W        W44821  20.218   4.903  11.354
79837W        W44822  36.532  11.177   0.364
79838W        W44823  10.059   6.830   3.744
79839W        W44824  36.635  44.940   4.939
79840W        W44825  22.280   4.774   4.619
79841W        W44826  32.985  16.014   4.469
79842W        W44827  32.664  35.317   4.024
79843W        W44828   9.905  40.193  14.975
79844W        W44829  19.142  20.985  12.552
79845W        W44830  28.674   1.732  14.950
79846W        W44831  29.640   9.268   4.119
79847W        W44832  30.627  15.025  13.310
79848W        W44833  22.851  40.864  12.527
79849W        W44834  11.639  38.105   2.269
79850W        W44835  24.595   5.975   0.944
79851W        W44836  19.032   3.723   3.282
79852W        W44837  35.534  34.587  11.097
79853W        W44838  39.564  24.052   1.174
79854W        W44839   7.888  39.576   0.290
79855W        W44840  29.355  36.898  13.288
79856W        W44841  20.570  40.007   0.424
79857W        W44842   0.216   2.725  14.973
79858W        W44843  26.283  24.170  11.225
79859W        W44844  38.505  30.438   0.510
79860W        W44845  23.440  27.377   1.353
79861W        W44846   2.088  23.616   2.163
79862W        W44847  13.629  24.716   4.045
79863W        W44848  17.544   0.465  13.869
79864W        W44849  28.957  26.896   3.123
79865W        W44850  15.679  18.045   0.730
79866W        W44851  28.961  44.773  13.397
79867W        W44852  33.089  26.102   4.259
79868W        W44853   6.235   9.284   3.417
79869W        W44854   5.316  29.701   0.338
79870W        W44855  11.713  13.241  11.553
79871W        W44856   8.248  32.555  10.609
79872W        W44857   8.929  37.893  13.517
79873W        W44858  20.759  15.957  14.879
79874W        W44859  44.089  11.276  12.113
79875W        W44860  19.714   6.973   3.197
79876W        W44861  37.550  39.809   1.638
79877W        W44862  43.209   4.337  11.834
79878W        W44863  16.731  23.675   3.325
79879W        W44864  36.982  28.349   1.771
79880W        W44865  34.378   1.864   1.352
79881W        W44866  18.478  28.032  14.311
79882W        W44867  18.782  38.849  13.508
79883W        W44868   1.908   7.482   1.636
79884W        W44869   7.442  44.482   0.358
79885W        W44870  12.761   7.994   0.109
79886W        W44871   8.571  39.015  13.255
79887W        W44872  11.629  35.823   3.202
79888W        W44873  12.326  36.082  14.326
79889W        W44874  27.007  39.580  13.884
79890W        W44875  23.542  23.548  13.940
79891W        W44876  17.984  28.152  13.336
79892W        W44877  12.832  15.196   0.561
79893W        W44878  32.888  19.551   3.698
79894W        W44879  15.745  43.361  10.559
79895W        W44880   7.457  44.818  12.002
79896W        W44881   2.032  41.194  12.589
79897W        W44882  20.757  21.230  13.526
79898W        W44883  34.678  33.980  12.978
79899W        W44884  19.479  43.399   3.777
79900W        W44885  42.525  27.070  11.061
79901W        W44886  30.318  30.404   4.603
79902W        W44887  25.617   7.703  14.573
79903W        W44888  18.867  25.066  12.496
79904W        W44889  15.700  14.282  12.502
79905W        W44890  30.519  27.918   2.340
79906W        W44891  27.816   9.359   3.394
79907W        W44892  36.380  22.945  11.172
79908W        W44893  13.040  29.153  12.823
79909W        W44894  33.442  20.481   1.830
79910W        W44895  28.369  21.966  11.436
79911W        W44896   5.955  20.310   0.299
79912W        W44897   5.683  44.292  11.598
79913W        W44898  44.587  41.415  12.637
79914W        W44899  41.647  18.410  10.271
79915W        W44900  25.906  30.522   0.913
79916W        W44901  28.428  29.126   0.403
79917W        W44902  17.996  37.760   0.022
79918W        W44903  14.766   9.727  10.748
79919W        W44904  34.464  38.497  11.971
79920W        W44905  40.786  34.156   5.160
79921W        W44906  32.723  29.668   2.828
79922W        W44907  14.610  37.898   1.807
79923W        W44908  38.841  31.980  13.353
79924W        W44909  13.104  16.798   1.420
79925W        W44910   2.983  18.246   2.214
79926W        W44911  10.014  43.757  12.537
79927W        W44912  24.721   6.134   3.377
79928W        W44913  26.750  21.743   2.116
79929W        W44914   1.322  19.015  14.986
79930W        W44915  28.779  13.632   4.141
79931W        W44916  30.833  30.121   3.205
79932W        W44917  38.545   6.224   3.605
79933W        W44918   2.728  44.239  14.453
79934W        W44919  23.536  25.999   3.305
79935W        W44920  32.058  26.592  13.493
79936W        W44921  40.803  32.557  12.063
79937W        W44922   3.314  13.148   0.225
79938W        W44923  23.632  23.395   4.001
79939W        W44924  14.068  26.487   1.463
79940W        W44925   9.758  33.598  10.526
79941W        W44926  15.318  38.784   2.168
79942W        W44927  30.438   2.348   2.958
79943W        W44928  41.929  43.225   2.723
79944W        W44929   0.726   8.433   3.243
79945W        W44930  22.680  39.901  10.280
79946W        W44931  37.594  16.158  12.007
79947W        W44932   4.275  44.100  14.145
79948W        W44933   2.479  23.030  11.074
79949W        W44934  17.842  25.677   0.740
79950W        W44935  24.214  21.267   2.017
79951W        W44936  11.147   2.905   2.974
79952W        W44937  16.033  33.296   4.209
79953W        W44938  30.842  29.193   4.185
79954W        W44939  27.903  37.537  14.962
79955W        W44940  40.988  15.231   0.378
79956W        W44941  13.378  22.652  13.467
79957W        W44942  43.189  28.622  14.872
79958W        W44943  18.880  39.871   0.877
79959W        W44944  44.147  10.212  10.764
79960W        W44945  38.793  38.361  12.592
79961W        W44946  21.670  13.083   2.319
79962W        W44947  41.707  22.471   4.186
79963W        W44948  44.433   8.610  13.012
79964W        W44949  29.563  32.133   4.901
79965W        W44950  14.858  29.621  13.359
79966W        W44951  34.898   0.802  10.755
79967W        W44952   2.364  27.120  12.028
79968W        W44953  22.971  43.869   1.278
79969W        W44954  31.335   6.315  14.517
79970W        W44955  31.497  26.126   0.296
79971W        W44956  24.108  43.365   1.924
79972W        W44957   4.812  19.047   1.264
79973W        W44958  19.727  19.274   3.083
79974W        W44959  16.091   6.975  12.624
79975W        W44960  18.449  11.130  14.180
79976W        W44961  16.582  43.625   0.444
79977W        W44962  41.157   1.567   2.645
79978W        W44963  31.748  23.200  12.101
79979W        W44964  34.617  14.070   3.387
79980W        W44965  23.132  17.494  13.860
79981W        W44966  10.245  28.139  13.135
79982W        W44967   5.809  43.841   3.238
79983W        W44968  24.038   6.538   5.017
79984W        W44969  32.104  42.854   1.150
79985W        W44970  32.570   6.634  11.131
79986W        W44971   5.964   9.949   0.173
79987W        W44972  16.146   9.282   1.382
79988W        W44973  14.635  28.818   0.238
79989W        W44974  24.384  21.276  10.199
79990W        W44975  11.759  12.772   1.258
79991W        W44976  44.444  33.619  10.554
79992W        W44977   5.717  31.564   0.311
79993W        W44978   5.327  43.510  11.329
79994W        W44979  36.473  21.573  14.829
79995W        W44980   2.132  42.621  11.882
79996W        W44981  44.482  35.998  10.591
79997W        W44982  19.122  11.484  12.524
79998W        W44983  16.845   5.176  14.907
79999W        W44984   7.180   0.742  10.602
80000W        W44985  29.870  28.399   2.942
80001W        W44986   8.182   4.233  12.147
80002W        W44987  35.166  39.145   3.103
80003W        W44988   8.567  11.233  13.938
80004W        W44989   7.217   5.755   2.674
80005W        W44990  10.400  23.183   2.335
80006W        W44991  19.272  42.911  13.447
80007W        W44992  38.080   3.004  12.577
80008W        W44993  25.648  20.698  11.649
80009W        W44994  42.717  21.983   0.237
80010W        W44995   7.659  23.960  14.340
80011W        W44996  39.150  42.689   3.945
80012W        W44997  42.622  42.001   4.296
80013W        W44998  38.017  17.125  13.512
80014W        W44999  17.189  30.870  11.486
80015W        W45000  25.376  43.519   4.127
80016W        W45001  28.905   0.897   4.627
80017W        W45002  12.278   0.723  14.268
80018W        W45003  32.051  35.092   4.569
80019W        W45004  10.875  16.594  14.789
80020W        W45005  35.104   2.660   4.531
80021W        W45006   6.909  12.312  10.761
80022W        W45007  13.286   8.400  10.477
80023W        W45008  35.040   0.353   4.283
80024W        W45009  15.387   5.250   0.885
80025W        W45010  25.656  23.012   2.817
80026W        W45011  36.525  11.658   2.765
80027W        W45012  39.961  19.551  11.611
80028W        W45013  44.742  36.461  13.047
80029W        W45014  43.769  31.372  10.653
80030W        W45015  31.900   0.055  14.424
80031W        W45016  37.955  42.390  11.961
80032W        W45017  28.250  23.886  14.827
80033W        W45018  10.501  38.022  11.080
80034W        W45019  19.046   0.761  14.719
80035W        W45020   8.142  19.647   4.317
80036W        W45021  36.596  42.567  10.885
80037W        W45022  36.021  28.550   3.240
80038W        W45023  21.154  10.711   2.624
80039W        W45024   4.343  31.573   2.939
80040W        W45025  44.967  35.390  14.629
80041W        W45026  41.675   8.383  10.677
80042W        W45027  34.821  24.124   1.378
80043W        W45028  16.241   2.856   3.667
80044W        W45029  17.197  31.854  11.345
80045W        W45030   4.976  19.940  11.943
80046W        W45031   4.218  18.176  11.283
80047W        W45032  13.529  21.292  10.699
80048W        W45033  31.084  42.415  10.494
80049W        W45034   9.476   1.811   0.720
80050W        W45035  23.149   8.851  13.909
80051W        W45036  44.424  33.075  12.032
80052W        W45037  22.017  28.620   0.299
80053W        W45038  23.751  10.258   1.831
80054W        W45039  24.200   4.170   4.653
80055W        W45040  27.393  15.602  14.715
80056W        W45041   9.307  36.860   0.777
80057W        W45042   5.083  18.203  10.676
80058W        W45043  34.667  39.368  10.837
80059W        W45044  32.062  36.149  10.792
80060W        W45045  33.022  38.378  13.408
80061W        W45046   6.904  36.586  13.632
80062W        W45047  16.541   0.028  12.070
80063W        W45048  40.252  42.472  12.493
80064W        W45049   8.678  27.017   1.635
80065W        W45050  40.416  21.581   1.393
80066W        W45051  41.274  42.656  14.441
80067W        W45052  44.369  44.412   3.966
80068W        W45053   2.148  19.213  13.475
80069W        W45054  39.770  17.613  13.342
80070W        W45055   0.069  20.742   4.610
80071W        W45056  13.552  13.596  12.644
80072W        W45057   6.696  32.368   4.540
80073W        W45058   2.743  28.983   4.226
80074W        W45059  30.224  27.094   1.425
80075W        W45060  40.241  39.701   3.698
80076W        W45061  43.064  23.347  10.295
80077W        W45062  36.035  15.605  12.492
80078W        W45063   5.005  30.006  11.787
80079W        W45064  19.526  40.051   1.496
80080W        W45065  19.060  17.355   0.311
80081W        W45066  32.437  26.278  14.240
80082W        W45067  23.125  42.319  12.409
80083W        W45068   6.901  37.623   4.091
80084W        W45069  27.037  28.571  12.544
80085W        W45070  25.841  27.037  11.132
80086W        W45071  40.467  17.184  13.536
80087W        W45072   3.284   9.070  13.069
80088W        W45073  38.145  10.424   2.824
80089W        W45074  33.345   3.634   4.682
80090W        W45075  13.965  28.173   0.050
80091W        W45076  20.032  30.697  14.465
80092W        W45077  23.575  12.566   0.300
80093W        W45078   4.951  29.535   0.646
80094W        W45079  39.518   0.440   2.239
80095W        W45080  17.909   7.691   2.915
80096W        W45081  23.345   8.715   2.141
80097W        W45082  43.422  31.144  11.451
80098W        W45083  11.338  32.675   0.436
80099W        W45084  12.863   5.841  14.662
80100W        W45085  35.480   5.909   2.166
80101W        W45086  15.898   4.488  14.803
80102W        W45087  21.713   1.529   0.662
80103W        W45088  38.876  20.727   3.848
80104W        W45089   8.894  29.988  12.408
80105W        W45090  35.476  16.808  11.684
80106W        W45091  21.225   5.498   4.243
80107W        W45092  26.206  29.425  11.097
80108W        W45093  27.947  31.428  13.402
80109W        W45094  42.367  14.676   3.442
80110W        W45095  44.529  19.714   1.804
80111W        W45096  32.925   5.922   3.611
80112W        W45097   4.244   9.728  12.692
80113W        W45098   5.431   8.273  12.058
80114W        W45099  40.625  31.888   2.319
80115W        W45100  27.572  14.051  12.205
80116W        W45101  12.116  16.605  14.239
80117W        W45102  18.631  37.378   4.187
80118W        W45103  24.280   3.298  14.485
80119W        W45104  16.782   1.875   0.367
80120W        W45105   9.395  31.733  12.707
80121W        W45106  34.656  33.649  13.367
80122W        W45107   7.733  33.976  13.835
80123W        W45108  30.538  20.757  10.750
80124W        W45109  39.905  36.974   1.039
80125W        W45110  30.127  21.582  11.800
80126W        W45111  41.831  13.609  14.352
80127W        W45112  44.912  30.294   2.749
80128W        W45113  16.639  30.935  10.752
80129W        W45114  12.576  24.669   1.433
80130W        W45115  13.894  22.081  10.065
80131W        W45116  30.616  42.226  13.788
80132W        W45117  23.281  15.500  11.165
80133W        W45118   0.555   9.707   4.960
80134W        W45119  27.180  38.412  14.485
80135W        W45120  35.467   2.694   3.403
80136W        W45121   0.978   9.276  14.312
80137W        W45122  13.280  37.436  11.943
80138W        W45123  16.363   2.371  13.195
80139W        W45124   2.271   9.133   2.756
80140W        W45125  20.712  31.693   4.189
80141W        W45126   2.945   0.822   2.839
80142W        W45127  35.552  42.149   3.133
80143W        W45128   3.284   3.965  11.653
80144W        W45129  25.241  22.043   3.843
80145W        W45130  30.514   2.338   5.294
80146W        W45131  21.683   8.931  10.618
80147W        W45132  33.000  15.837  14.864
80148W        W45133  40.141  21.126   4.468
80149W        W45134  37.061  42.425  13.738
80150W        W45135  14.245  18.547   1.096
80151W        W45136  20.747  14.540  11.211
80152W        W45137  10.558  32.043   1.189
80153W        W45138  31.397  23.003  14.347
80154W        W45139  44.860   7.887  12.037
80155W        W45140  10.299  43.476  10.792
80156W        W45141  36.385  32.025  13.335
80157W        W45142   5.109   7.781   3.102
80158W        W45143   5.269  15.513   0.434
80159W        W45144  31.898  24.266   1.435
80160W        W45145  40.583  30.446   2.388
80161W        W45146  14.720  43.935  14.220
80162W        W45147   7.869  19.036   0.200
80163W        W45148  29.680  42.048  14.298
80164W        W45149  21.280  32.806  14.342
80165W        W45150  38.438  44.075   0.943
80166W        W45151  42.974  39.511   0.788
80167W        W45152  44.877   8.145  11.594
80168W        W45153  28.563  34.630  12.067
80169W        W45154   5.157  17.113   2.673
80170W        W45155  19.965  29.956   1.822
80171W        W45156  33.896   0.175  12.391
80172W        W45157  36.108  18.528   0.689
80173W        W45158  41.579  37.639  10.845
80174W        W45159   6.736  10.581   3.592
80175W        W45160  40.530   2.736   3.884
80176W        W45161   9.153  35.810  11.563
80177W        W45162  22.677  24.005   2.928
80178W        W45163  14.010  35.036  13.154
80179W        W45164  30.523   2.216   4.788
80180W        W45165  35.000  30.409  13.836
80181W        W45166  34.996  38.808   9.858
80182W        W45167   8.343  13.205   0.575
80183W        W45168   8.809  17.192  11.395
80184W        W45169  35.335  16.944  12.154
80185W        W45170  27.292  33.044   4.841
80186W        W45171  36.089  15.988   3.224
80187W        W45172  21.100  24.756  11.243
80188W        W45173  34.360  17.319  11.892
80189W        W45174  27.834  12.581   4.033
80190W        W45175  26.530  14.559   3.232
80191W        W45176  31.344   4.180  11.429
80192W        W45177  14.449   7.389   0.139
80193W        W45178   8.089  29.189   4.536
80194W        W45179  12.827  41.614  14.326
80195W        W45180  23.687  42.297   1.770
80196W        W45181  14.702  41.966  11.267
80197W        W45182  18.873  36.627  12.392
80198W        W45183   2.007  22.177   1.920
80199W        W45184  41.440  36.668   0.782
80200W        W45185  27.638  42.301  13.969
80201W        W45186  43.769  28.454  13.018
80202W        W45187  40.469  30.382   1.409
80203W        W45188  32.071  13.381   2.333
80204W        W45189   8.860  37.890   1.185
80205W        W45190  43.704   8.382  14.439
80206W        W45191  15.203   7.231   0.880
80207W        W45192  19.535  35.969  12.361
80208W        W45193  37.787  41.126   4.739
80209W        W45194   0.686  29.527  11.897
80210W        W45195  20.996  23.179  10.952
80211W        W45196  19.573  41.987  12.500
80212W        W45197  42.725  42.478  10.538
80213W        W45198  22.109   7.136   3.737
80214W        W45199  33.679  34.130  11.892
80215W        W45200  37.033  16.785  10.535
80216W        W45201  38.578  21.979   1.374
80217W        W45202  30.726   5.297   3.878
80218W        W45203  10.734   0.338  13.253
80219W        W45204  42.053   9.326  12.923
80220W        W45205  42.403  32.685   1.340
80221W        W45206  39.371  14.076  13.012
80222W        W45207  11.699  20.071   0.862
80223W        W45208  40.892  31.918  12.650
80224W        W45209  26.891  35.319   1.702
80225W        W45210   5.482  27.151  12.048
80226W        W45211  32.529  20.425  11.259
80227W        W45212  30.543   3.369  13.116
80228W        W45213   8.343  14.062   0.578
80229W        W45214  31.841  32.914  11.553
80230W        W45215  13.747   4.955   0.348
80231W        W45216  34.872  41.138   9.969
80232W        W45217  34.139   9.878   5.015
80233W        W45218   6.902  27.542  14.847
80234W        W45219  11.279  30.914   1.751
80235W        W45220  16.127  25.032  13.502
80236W        W45221  11.295   1.772  10.557
80237W        W45222  24.431  35.581  10.576
80238W        W45223  17.835  41.269  10.608
80239W        W45224  35.698  31.704  11.682
80240W        W45225  20.690  25.008   4.628
80241W        W45226  19.183  11.834   0.364
80242W        W45227   3.950  35.978   4.151
80243W        W45228  42.693  39.813  13.813
80244W        W45229  39.856  26.040   2.395
80245W        W45230   8.826   9.205  11.916
80246W        W45231  19.825  34.433   4.506
80247W        W45232   7.708   7.959   1.720
80248W        W45233  19.168  34.538  10.629
80249W        W45234  18.648  12.986  11.238
80250W        W45235  15.767  23.625   2.967
80251W        W45236  24.620  12.802   3.625
80252W        W45237   1.953  25.920   0.823
80253W        W45238   0.007  43.322   2.477
80254W        W45239  13.961  29.403   4.542
80255W        W45240  21.650  11.636   4.639
80256W        W45241   2.867  29.040  14.919
80257W        W45242  27.679  21.241  14.762
80258W        W45243  28.948  41.315   1.882
80259W        W45244  30.613   5.283   4.405
80260W        W45245  37.420  14.805  14.909
80261W        W45246  18.622   6.641   1.134
80262W        W45247  13.178   5.107   2.458
80263W        W45248  33.266   6.105   5.438
80264W        W45249   1.684  40.113  11.267
80265W        W45250  39.570  17.790   0.444
80266W        W45251   4.448   5.411  11.348
80267W        W45252  32.893  31.917  12.099
80268W        W45253  26.433  14.579  11.169
80269W        W45254  31.931  32.236   4.598
80270W        W45255  20.313  40.894  13.941
80271W        W45256  30.146  19.228  14.249
80272W        W45257  10.582  43.404   2.876
80273W        W45258   5.741  36.915   4.418
80274W        W45259  11.319   4.762  10.932
80275W        W45260  40.035  11.196  11.434
80276W        W45261  21.816   6.299   0.883
80277W        W45262  13.972  32.226   1.704
80278W        W45263  20.648  29.569   4.112
80279W        W45264  38.148   2.814  11.238
80280W        W45265  10.129  34.844   3.282
80281W        W45266  21.578   1.978  12.472
80282W        W45267   2.382   0.955  10.205
80283W        W45268   4.404  11.151  11.364
80284W        W45269  23.668  17.846   0.900
80285W        W45270   9.789  37.461   3.337
80286W        W45271  28.939  23.293  12.886
80287W        W45272  34.479  29.054   4.062
80288W        W45273  36.545   8.237  13.837
80289W        W45274  39.347  32.026  11.621
80290W        W45275  32.119  31.515   1.319
80291W        W45276  32.363   0.911  10.718
80292W        W45277   3.658  18.056   3.406
80293W        W45278  20.818  23.369   5.474
80294W        W45279   5.505  18.078   2.343
80295W        W45280  37.722   2.601   2.001
80296W        W45281  24.204  15.085   0.979
80297W        W45282  37.391   7.895   3.260
80298W        W45283   7.349   1.213  11.754
80299W        W45284  20.671  31.861   2.371
80300W        W45285  26.699   7.452   0.867
80301W        W45286   7.448  36.586  13.378
80302W        W45287   0.335  35.488   4.064
80303W        W45288  10.950  38.321   4.067
80304W        W45289   7.813  29.900  10.838
80305W        W45290   0.396   1.882  14.355
80306W        W45291  36.511  21.983   2.730
80307W        W45292   6.311  18.254   4.620
80308W        W45293  42.900  30.138   1.415
80309W        W45294  30.451   0.794  10.444
80310W        W45295  44.017  32.222   1.450
80311W        W45296   9.549  35.344   1.774
80312W        W45297   1.433   9.714  11.141
80313W        W45298  42.786  21.188  12.020
80314W        W45299   3.271  43.828  13.798
80315W        W45300  24.076  43.011   4.193
80316W        W45301  22.586  39.325   4.632
80317W        W45302  22.670   5.001   1.602
80318W        W45303   1.789  22.728  12.442
80319W        W45304  16.328  42.695  13.065
80320W        W45305  38.366  40.851  14.289
80321W        W45306  36.028  12.369   4.374
80322W        W45307   3.929  25.519  13.532
80323W        W45308  13.668  17.815   1.376
80324W        W45309  36.961  17.793   3.716
80325W        W45310  40.568  19.815   4.133
80326W        W45311  28.063   5.862  12.852
80327W        W45312  21.985  21.564  13.517
80328W        W45313  41.558  18.750  12.987
80329W        W45314  41.430   6.394  10.645
80330W        W45315  28.331   7.661   4.659
80331W        W45316   2.688  33.951  11.569
80332W        W45317  14.844  24.922   4.510
80333W        W45318  14.221  38.848   0.231
80334W        W45319  19.386   6.359  11.423
80335W        W45320  38.489  21.003  12.472
80336W        W45321  23.734  10.829   0.424
80337W        W45322  41.294  18.156   0.390
80338W        W45323   4.512  34.390  11.444
80339W        W45324  36.501  19.050   4.133
80340W        W45325  16.740  15.126  10.230
80341W        W45326  17.603  43.318   2.853
80342W        W45327   4.202  27.024   0.481
80343W        W45328   1.465  30.520  12.842
80344W        W45329  35.284  26.149   3.284
80345W        W45330  12.219  22.990  12.993
80346W        W45331  43.004  29.952  11.977
80347W        W45332  28.842  18.025   1.313
80348W        W45333   7.264  40.826  11.128
80349W        W45334  44.438  20.692   1.876
80350W        W45335   2.135  11.418  11.486
80351W        W45336  27.450  23.116   0.510
80352W        W45337   7.983   2.670   2.847
80353W        W45338  16.561  41.561   3.340
80354W        W45339  26.133  42.827   2.994
80355W        W45340  18.637  39.389   2.888
80356W        W45341  31.516  20.622  12.629
80357W        W45342  29.656  14.534   3.961
80358W        W45343  11.123  32.569   0.901
80359W        W45344  44.210  15.530   3.281
80360W        W45345  40.970  14.245   0.940
80361W        W45346  10.870   9.819  12.433
80362W        W45347   0.479  12.173  11.610
80363W        W45348  20.120   0.679  10.693
80364W        W45349  39.501  18.423   4.179
80365W        W45350  27.110  20.082   3.392
80366W        W45351   6.380  10.905  13.215
80367W        W45352  22.445  43.417  11.558
80368W        W45353  18.301  33.169  13.411
80369W        W45354   1.218  42.949  10.547
80370W        W45355  21.747  28.349   2.680
80371W        W45356  34.995  19.092   0.868
80372W        W45357  22.236  43.524  13.395
80373W        W45358   7.847  15.585  14.877
80374W        W45359  35.905   3.462   3.290
80375W        W45360   9.792  37.912  12.471
80376W        W45361  28.133   1.670  13.300
80377W        W45362   2.344  23.022  14.051
80378W        W45363  34.168  13.272   3.314
80379W        W45364  44.289  28.221   4.626
80380W        W45365  21.576  13.546  11.102
80381W        W45366  24.446  19.534  13.773
80382W        W45367  36.775  29.597   2.184
80383W        W45368  16.985   6.367   2.370
80384W        W45369  32.612  29.369  12.597
80385W        W45370  31.014  43.826   3.245
80386W        W45371   0.056  21.521  10.641
80387W        W45372  23.152  44.527   1.893
80388W        W45373  22.347   2.932  11.515
80389W        W45374  21.075   0.969  11.084
80390W        W45375   1.738  21.151  14.318
80391W        W45376   3.993  42.234   3.219
80392W        W45377  14.858  38.834  14.765
80393W        W45378   3.781   2.772  12.953
80394W        W45379  32.501  10.489   1.236
80395W        W45380   3.178  23.352   0.533
80396W        W45381  16.773  31.131   0.311
80397W        W45382  13.262  31.056   1.341
80398W        W45383   3.182   4.166   9.996
80399W        W45384  15.286  18.877   3.376
80400W        W45385   8.218  21.210   4.574
80401W        W45386  30.528  35.053  13.007
80402W        W45387  19.665  13.808  10.777
80403W        W45388  38.620  27.181  12.096
80404W        W45389  44.020   7.405  12.418
80405W        W45390  30.990  44.276  12.459
80406W        W45391  36.762  30.053  12.098
80407W        W45392  25.218  21.680   4.627
80408W        W45393  40.334  41.539   4.461
80409W        W45394  13.689  27.090  11.868
80410W        W45395  42.469  21.948  11.599
80411W        W45396   6.848  36.120  12.642
80412W        W45397  13.186  14.319   2.159
80413W        W45398  36.805  24.626   0.254
80414W        W45399  26.240  19.694  14.295
80415W        W45400  34.048  14.732  10.602
80416W        W45401  16.464  33.368   4.723
80417W        W45402  40.729  39.904   0.943
80418W        W45403  37.653  40.422   0.908
80419W        W45404  42.285  18.055  11.759
80420W        W45405  43.240  38.918  13.504
80421W        W45406  26.975  23.734  13.874
80422W        W45407  18.617  39.945  12.148
80423W        W45408  27.642  14.447   2.349
80424W        W45409   4.877  35.028   0.621
80425W        W45410  13.328   3.300   2.341
80426W        W45411  42.703  30.095  11.550
80427W        W45412  12.077  11.742  14.889
80428W        W45413  40.449  22.238   4.295
80429W        W45414  40.758  12.029   1.220
80430W        W45415  38.532  41.684  11.969
80431W        W45416  29.399  33.066  12.974
80432W        W45417  44.545  17.046  13.036
80433W        W45418  33.123  18.782   3.265
80434W        W45419  17.261   2.488   2.869
80435W        W45420  36.524  23.719   2.565
80436W        W45421  35.969  43.738  12.516
80437W        W45422  42.751   3.352  10.890
80438W        W45423  19.967  26.830  14.178
80439W        W45424  27.189  39.732   4.643
80440W        W45425  33.614  18.012  12.681
80441W        W45426  44.704  25.144   2.688
80442W        W45427   9.459   0.351  13.780
80443W        W45428  14.305   9.200   3.246
80444W        W45429   2.283  34.432  13.235
80445W        W45430  39.078   2.966  12.405
80446W        W45431  35.496  31.888  14.849
80447W        W45432  22.234  22.420  12.075
80448W        W45433  24.543  27.557   3.248
80449W        W45434  22.644  19.511   4.808
80450W        W45435  31.521  10.692  12.290
80451W        W45436  37.419  12.374  12.030
80452W        W45437   0.708  34.140   4.047
80453W        W45438   5.724  35.017   2.715
80454W        W45439  41.942  20.181   3.333
80455W        W45440  31.170   7.287   0.447
80456W        W45441   9.380  43.574  14.895
80457W        W45442  33.832  30.587  12.541
80458W        W45443  22.746  38.261   2.523
80459W        W45444   7.313   5.156  13.391
80460W        W45445   5.612  42.440   2.420
80461W        W45446  42.440   0.393   4.053
80462W        W45447   1.538  17.091   1.771
80463W        W45448  38.092   7.310   2.464
80464W        W45449  44.661   8.866   2.802
80465W        W45450  25.730  35.449   4.803
80466W        W45451   2.247   3.781   0.909
80467W        W45452  41.965  43.035  10.958
80468W        W45453  32.416  40.734   3.528
80469W        W45454  33.133  32.449   1.296
80470W        W45455  39.005  37.553  13.971
80471W        W45456  38.704   7.469   2.852
80472W        W45457  36.946  31.644   3.245
80473W        W45458   4.828  12.280   1.150
80474W        W45459   5.310  12.838  13.936
80475W        W45460  32.345   8.045   4.046
80476W        W45461  11.402   4.199  12.734
80477W        W45462  25.082  41.249   0.828
80478W        W45463  35.949   1.456  12.492
80479W        W45464   8.578  35.168   0.543
80480W        W45465   1.741  42.767  12.167
80481W        W45466  36.062  39.263   3.829
80482W        W45467  43.379  38.053   2.339
80483W        W45468   1.641  29.653  12.124
80484W        W45469  11.355  37.032  10.476
80485W        W45470  31.513  11.895   0.445
80486W        W45471  15.055  24.066   2.702
80487W        W45472  23.089  37.863  14.978
80488W        W45473  41.472  34.503   2.566
80489W        W45474   5.400  11.153   1.258
80490W        W45475  19.089  23.735   0.346
80491W        W45476  31.456  18.161  10.505
80492W        W45477  14.732  23.569  14.751
80493W        W45478  31.533  15.760   3.582
80494W        W45479  20.353  34.509  12.894
80495W        W45480  25.677  23.512  13.523
80496W        W45481  18.268  39.410  13.152
80497W        W45482  23.249  16.725  14.512
80498W        W45483  38.571   3.834   1.841
80499W        W45484   3.497  17.393  13.971
80500W        W45485  13.342   1.547  12.943
80501W        W45486  12.391   8.824   2.922
80502W        W45487   7.783  33.257   3.063
80503W        W45488  20.184  28.695   2.000
80504W        W45489  29.376  43.973  14.059
80505W        W45490  43.832   6.241   4.591
80506W        W45491  32.965  24.172  14.470
80507W        W45492  13.709  22.808  11.817
80508W        W45493  10.676   3.966   1.769
80509W        W45494  27.795  34.216   1.917
80510W        W45495  10.832   6.669  11.343
80511W        W45496   5.209  32.592  14.525
80512W        W45497   8.690  35.869   3.315
80513W        W45498  17.352  16.649  11.477
80514W        W45499  42.898   6.866   4.577
80515W        W45500   2.346  31.252   2.068
80516W        W45501  42.126  20.151   2.855
80517W        W45502   1.091  37.129   4.409
80518W        W45503   6.726  25.090  11.779
80519W        W45504  17.752  37.353  11.420
80520W        W45505   2.117   2.123  11.167
80521W        W45506   8.255  10.317  11.480
80522W        W45507   3.785   5.319   3.251
80523W        W45508  25.095   3.250  13.863
80524W        W45509  40.627  34.826  14.299
80525W        W45510  22.710  28.159  14.171
80526W        W45511  27.656  28.059   2.212
80527W        W45512  14.080  14.515  13.900
80528W        W45513   7.959  25.522   1.780
80529W        W45514  18.692  43.060  11.639
80530W        W45515  36.011  44.496   3.759
80531W        W45516  21.499  16.193  11.099
80532W        W45517  26.087  16.545   2.671
80533W        W45518  44.077   5.934  13.479
80534W        W45519  41.963  30.029  12.078
80535W        W45520  24.002  11.123   0.917
80536W        W45521   7.965  24.279  11.994
80537W        W45522  32.889   9.733  14.275
80538W        W45523  43.796  10.186   1.092
80539W        W45524  12.655  41.388   4.411
80540W        W45525  23.134  33.878  14.789
80541W        W45526  29.744  23.889   4.963
80542W        W45527  13.217  44.981   0.532
80543W        W45528  35.976  22.473  12.898
80544W        W45529  15.832  29.406   1.781
80545W        W45530  22.506  22.796   5.090
80546W        W45531   1.251   0.541   2.094
80547W        W45532  31.045  21.574  10.881
80548W        W45533  16.068  22.041  11.094
80549W        W45534  27.942  36.160   0.326
80550W        W45535  16.105  44.937   1.706
80551W        W45536  39.082  43.805   3.879
80552W        W45537   9.194   3.416   3.086
80553W        W45538   4.350  29.514  12.487
80554W        W45539  16.766  19.486  11.345
80555W        W45540  44.709  17.561  12.927
80556W        W45541  15.323  16.774  14.399
80557W        W45542  16.575  34.548  12.002
80558W        W45543  21.814  10.537  11.929
80559W        W45544  14.360  13.239  10.856
80560W        W45545  25.136  26.029  13.376
80561W        W45546  22.095  17.724   2.676
80562W        W45547  26.418   1.888  12.620
80563W        W45548  39.587  35.487  13.385
80564W        W45549  30.442  18.743  11.146
80565W        W45550  39.387  22.631   0.723
80566W        W45551  23.757  14.844  13.524
80567W        W45552   6.708  26.702  13.458
80568W        W45553   4.278  16.896   2.683
80569W        W45554  37.530  11.425   3.203
80570W        W45555  10.368  37.246   4.509
80571W        W45556  10.381  14.271   1.880
80572W        W45557   9.281  36.285   0.004
80573W        W45558  43.244  32.005   1.820
80574W        W45559   7.204  38.411   2.951
80575W        W45560  25.472  18.101   4.040
80576W        W45561  11.695  42.594  10.673
80577W        W45562   0.411   4.688   5.003
80578W        W45563  41.848  29.346  13.989
80579W        W45564   8.209  16.466  12.359
80580W        W45565  30.721  42.763   4.199
80581W        W45566  20.762  41.915   0.983
80582W        W45567   6.446  35.651   3.536
80583W        W45568  20.077  16.512   1.209
80584W        W45569  21.574  30.599   1.181
80585W        W45570   5.639   3.961   0.885
80586W        W45571  14.882  27.829  14.212
80587W        W45572  31.053   0.930  10.698
80588W        W45573  16.413  14.648   2.648
80589W        W45574  43.576  39.036  13.872
80590W        W45575  30.528  26.166   0.550
80591W        W45576  30.668  40.237   2.276
80592W        W45577  10.544  23.722  13.065
80593W        W45578  17.305   1.392  14.880
80594W        W45579  40.516   9.875  13.383
80595W        W45580  10.145  26.928   3.898
80596W        W45581  15.235  21.561   4.487
80597W        W45582   2.812   0.074   4.507
80598W        W45583  16.107  20.694  11.998
80599W        W45584  40.771  37.849  12.984
80600W        W45585  15.644   9.166   1.194
80601W        W45586  29.131  42.910   2.621
80602W        W45587   9.673  35.845  13.534
80603W        W45588  30.678  42.243  12.935
80604W        W45589  11.789  38.423   0.452
80605W        W45590   9.155  23.913  12.447
80606W        W45591   0.675   6.397   4.102
80607W        W45592  37.756  36.432   4.172
80608W        W45593  34.526  22.806   1.761
80609W        W45594  16.184  23.965  12.276
80610W        W45595   4.645  22.990   2.297
80611W        W45596  24.056  13.127   1.025
80612W        W45597  12.084  17.347   4.215
80613W        W45598  10.182  12.800   4.090
80614W        W45599  22.987  27.586   0.358
80615W        W45600  11.110   6.364  13.933
80616W        W45601   2.230  41.393  13.502
80617W        W45602  20.673  37.133   0.407
80618W        W45603  19.020   6.149  14.949
80619W        W45604   7.633  15.096   3.777
80620W        W45605  18.923  36.642  14.936
80621W        W45606  13.224  36.900  12.483
80622W        W45607  11.134  44.787   0.186
80623W        W45608   5.552   4.318   2.007
80624W        W45609  17.835  13.599   3.169
80625W        W45610  36.414  43.337   0.898
80626W        W45611  35.586  38.861   3.069
80627W        W45612  19.637  39.136   4.600
80628W        W45613  42.585   1.329  13.843
80629W        W45614   8.888  24.253   2.726
80630W        W45615   7.842  29.389  11.495
80631W        W45616  20.838  36.764   3.433
80632W        W45617  24.955  34.982   3.104
80633W        W45618  32.779  27.158  12.575
80634W        W45619  10.149   7.630   3.252
80635W        W45620  40.834   8.455   3.438
80636W        W45621  15.492  19.529   3.357
80637W        W45622   5.882  40.110   1.365
80638W        W45623  25.921   4.816  14.481
80639W        W45624  23.720  36.353  11.464
80640W        W45625  33.076  40.103   3.700
80641W        W45626  18.271  20.721  11.131
80642W        W45627  21.227   0.015   4.220
80643W        W45628  37.808  44.187  11.089
80644W        W45629  13.690   1.340  10.574
80645W        W45630  11.229  20.160   2.692
80646W        W45631  41.844   1.663   4.814
80647W        W45632  39.358   2.231   1.730
80648W        W45633  13.365  41.972   3.935
80649W        W45634  17.694  34.886  11.437
80650W        W45635  26.967   5.784  11.510
80651W        W45636   0.313  39.394  10.862
80652W        W45637   8.835  38.104   1.679
80653W        W45638  28.132  35.032  13.944
80654W        W45639  20.481  14.351  13.785
80655W        W45640  37.589  13.170   1.605
80656W        W45641  16.271  16.806  10.604
80657W        W45642  20.769   9.575  14.502
80658W        W45643  18.572  15.821  11.168
80659W        W45644  23.991  15.545   2.374
80660W        W45645   4.832  39.156   4.979
80661W        W45646  12.709   4.126  12.016
80662W        W45647   0.653   4.197  13.378
80663W        W45648  42.888  41.247   1.411
80664W        W45649  31.355  38.501   1.746
80665W        W45650  14.039   9.214  12.885
80666W        W45651  10.554  30.146  10.618
80667W        W45652  29.616  32.574  13.020
80668W        W45653  24.798  34.573   0.938
80669W        W45654  31.430  37.445   1.865
80670W        W45655  17.928  15.157  13.911
80671W        W45656  13.776   3.961   1.254
80672W        W45657  20.642   6.605  13.357
80673W        W45658  28.151  12.634  12.158
80674W        W45659  40.278  24.637  14.944
80675W        W45660   6.659  23.394   3.287
80676W        W45661  24.703  12.644  11.191
80677W        W45662  12.045  40.020  11.169
80678W        W45663  23.803  37.336  11.711
80679W        W45664  30.855  22.097   1.076
80680W        W45665  41.579  33.929  13.936
80681W        W45666   8.627  27.094   2.907
80682W        W45667   1.286  21.712   3.693
80683W        W45668   2.282   7.264   0.068
80684W        W45669  43.587  32.407  12.454
80685W        W45670  18.271  38.424   3.708
80686W        W45671  17.795  13.891   3.613
80687W        W45672  13.177  15.737   0.033
80688W        W45673  24.392  27.944  13.391
80689W        W45674  16.824   3.680  14.945
80690W        W45675  34.930  32.968  10.939
80691W        W45676  22.627  25.129   1.899
80692W        W45677  37.422   4.685  12.076
80693W        W45678  19.572  28.805  10.246
80694W        W45679   1.191  29.045   1.911
80695W        W45680  25.660  30.567  14.500
80696W        W45681  26.599  30.431  11.925
80697W        W45682  41.112  21.272  10.276
80698W        W45683   6.354  25.552   3.829
80699W        W45684   6.828  35.119  12.375
80700W        W45685  38.830  21.571   5.177
80701W        W45686  41.521  35.690  11.303
80702W        W45687  20.510  35.772   1.400
80703W        W45688  11.176  31.317  11.976
80704W        W45689  28.391  32.625   3.293
80705W        W45690  25.018  16.050  14.827
80706W        W45691   0.717   5.900  13.849
80707W        W45692  30.571  33.680  11.178
80708W        W45693  34.824  39.553   3.235
80709W        W45694  14.377  12.534  12.531
80710W        W45695  44.782  30.595   3.593
80711W        W45696  24.049  33.967   4.960
80712W        W45697  22.524  20.261   1.469
80713W        W45698  22.298  43.329   0.021
80714W        W45699  40.901  29.538  11.496
80715W        W45700  27.547  13.432   4.175
80716W        W45701  32.895  29.102  14.918
80717W        W45702  44.214  28.945   2.770
80718W        W45703   8.542  13.864   4.284
80719W        W45704   1.863   7.647  14.383
80720W        W45705  22.205   3.130  11.029
80721W        W45706   7.920   0.705   2.574
80722W        W45707  10.379  34.396   0.688
80723W        W45708  19.293  14.823  10.971
80724W        W45709  24.915  40.618  11.633
80725W        W45710  40.442  32.884   1.316
80726W        W45711   9.832  15.422   0.278
80727W        W45712  44.361  23.251  14.222
80728W        W45713  20.387  42.744   3.122
80729W        W45714   7.987  35.664   2.800
80730W        W45715  41.361   2.849   4.882
80731W        W45716   9.583   1.337   4.747
80732W        W45717   0.430   1.066   1.155
80733W        W45718  13.269  12.366  13.541
80734W        W45719  15.054  39.394   2.725
80735W        W45720  21.181  41.301   4.625
80736W        W45721  14.792  11.162  12.995
80737W        W45722  22.720  16.935  12.500
80738W        W45723  36.377  44.531   2.436
80739W        W45724  37.176  43.041   4.250
80740W        W45725   2.413  38.811  13.259
80741W        W45726  16.692  43.919  13.568
80742W        W45727  11.957  24.067  11.193
80743W        W45728  44.454  13.181  10.539
80744W        W45729   9.267  35.573   4.053
80745W        W45730  29.426   4.515  12.909
80746W        W45731  20.700  17.729  11.225
80747W        W45732  35.064  28.505  11.650
80748W        W45733  38.906  21.577  14.892
80749W        W45734  40.050  42.149   3.714
80750W        W45735  31.362  25.404  13.820
80751W        W45736  42.138  40.785  10.808
80752W        W45737  42.343  10.109  14.927
80753W        W45738  31.728  23.732   1.747
80754W        W45739  42.449   3.124  13.789
80755W        W45740   2.954  21.430   2.793
80756W        W45741  28.855  22.646   3.817
80757W        W45742  21.533  25.019   3.065
80758W        W45743  42.272   5.162  11.974
80759W        W45744  21.286  23.086   0.292
80760W        W45745  26.418  24.185  11.745
80761W        W45746  23.511  23.039  11.520
80762W        W45747  23.417   0.917  13.352
80763W        W45748   4.282  26.612   5.038
80764W        W45749  32.124   5.999  10.254
80765W        W45750   9.134   5.203   0.034
80766W        W45751  29.028  29.653   2.857
80767W        W45752  17.045  13.827  11.584
80768W        W45753  19.445  28.132   0.829
80769W        W45754  26.750  21.175  11.607
80770W        W45755  29.055  40.853   2.804
80771W        W45756  26.117  18.666   3.774
80772W        W45757  38.996  29.049  12.306
80773W        W45758  11.062   6.728   0.779
80774W        W45759  34.776   9.397  12.368
80775W        W45760  38.296  10.639   3.414
80776W        W45761   8.893  34.538   2.733
80777W        W45762  36.896  11.367   4.505
80778W        W45763  41.359  13.766  12.607
80779W        W45764  36.418  44.953  13.543
80780W        W45765  39.834  23.622   0.886
80781W        W45766  35.111  22.730   4.123
80782W        W45767  29.445  42.743   3.849
80783W        W45768  42.881   9.125   1.394
80784W        W45769   5.687   4.410   0.635
80785W        W45770  30.105   2.152   0.049
80786W        W45771   3.298  15.875  14.965
80787W        W45772  22.683  24.666   3.157
80788W        W45773  22.226  38.828   2.700
80789W        W45774  20.275   8.847   3.262
80790W        W45775  14.311   6.977  10.697
80791W        W45776  35.307  27.053   3.148
80792W        W45777  12.106   7.882  10.999
80793W        W45778  23.822  11.369  12.031
80794W        W45779  11.273  27.794  12.326
80795W        W45780   4.392   9.802  11.727
80796W        W45781  14.304  31.873   2.653
80797W        W45782  27.593   6.733  11.076
80798W        W45783  42.881  30.022   4.165
80799W        W45784  27.845  18.021  11.113
80800W        W45785  11.305   5.620   0.453
80801W        W45786  19.969   5.944  11.960
80802W        W45787  21.224  41.719   3.932
80803W        W45788  17.576  13.663   2.724
80804W        W45789   4.503  11.128  13.828
80805W        W45790  23.793  15.870   3.778
80806W        W45791  39.022  12.080   0.512
80807W        W45792   1.706  26.424  12.099
80808W        W45793  10.786  42.770  11.213
80809W        W45794  21.154   6.414   0.761
80810W        W45795  33.039  39.519   2.163
80811W        W45796   3.998  12.368  14.152
80812W        W45797  13.841  24.715   1.742
80813W        W45798  30.636  43.474  12.452
80814W        W45799   3.799  21.399  11.959
80815W        W45800   4.753  19.576   1.287
80816W        W45801  40.100  42.995   3.440
80817W        W45802  35.593  21.226   4.623
80818W        W45803  31.975  29.676  11.517
80819W        W45804   0.727   0.801   0.237
80820W        W45805  11.414  21.115   1.729
80821W        W45806  44.588  22.409  11.087
80822W        W45807  11.691   1.186   4.598
80823W        W45808  36.647   5.718   4.115
80824W        W45809   1.771  37.492  11.673
80825W        W45810  37.548  19.111  11.366
80826W        W45811  28.987  38.525  10.655
80827W        W45812  43.815   1.427   0.616
80828W        W45813  26.928  40.559  13.397
80829W        W45814  10.242  44.470   0.263
80830W        W45815   0.860  12.414  14.479
80831W        W45816   3.699  27.626  12.865
80832W        W45817  31.081  23.085  13.852
80833W        W45818  21.716   9.270   1.742
80834W        W45819  23.494  37.924  13.009
80835W        W45820  35.990  15.775  13.681
80836W        W45821  15.712  40.002   1.729
80837W        W45822  37.920  13.224   3.693
80838W        W45823  40.593  38.011  11.919
80839W        W45824  35.595   1.709   0.430
80840W        W45825  22.704  29.856   3.408
80841W        W45826   8.173  28.557  14.484
80842W        W45827   9.797  12.042  12.032
80843W        W45828  43.810  18.160  13.021
80844W        W45829  34.128  36.063  12.073
80845W        W45830  15.063  33.806  12.310
80846W        W45831  41.220   2.802  12.316
80847W        W45832  17.405   4.762  12.597
80848W        W45833   8.847   4.381  13.524
80849W        W45834  38.570  44.502   1.857
80850W        W45835  10.408  43.433  12.581
80851W        W45836   1.934   6.744  10.697
80852W        W45837  19.782   4.887  11.002
80853W        W45838  34.617  10.526  12.863
80854W        W45839  41.398  16.380   3.609
80855W        W45840  37.444  12.178  14.536
80856W        W45841  37.328  34.109  11.986
80857W        W45842  30.183  12.764  10.728
80858W        W45843  22.533  31.629   4.786
80859W        W45844   1.501  36.532  11.466
80860W        W45845   5.168  35.432   0.398
80861W        W45846  25.591  38.294  10.490
80862W        W45847  19.812  32.804   3.627
80863W        W45848  25.670  44.981   2.660
80864W        W45849  41.660  28.276   4.066
80865W        W45850  43.720  10.169  10.450
80866W        W45851  44.311  20.121  12.669
80867W        W45852   7.232  11.830  10.696
80868W        W45853  36.119   6.654   0.696
80869W        W45854  26.406  23.479  14.693
80870W        W45855  21.690  31.258  10.593
80871W        W45856  33.925  43.459   2.419
80872W        W45857  23.777  41.553  12.098
80873W        W45858  39.451  40.409  11.574
80874W        W45859  19.040   3.403   2.783
80875W        W45860  18.471   8.752  13.461
80876W        W45861   8.154  28.147  13.684
80877W        W45862  12.816  26.218   1.243
80878W        W45863   4.293  26.936  11.663
80879W        W45864  44.558  23.954   2.065
80880W        W45865  40.094  26.683  14.286
80881W        W45866  39.490  13.570  14.794
80882W        W45867  36.848   6.977  14.320
80883W        W45868  22.878  19.552  11.102
80884W        W45869  22.497  35.967   1.726
80885W        W45870  22.314   6.748  12.889
80886W        W45871   1.964   9.454   4.140
80887W        W45872  34.057  12.504   1.379
80888W        W45873  41.546   0.860  10.752
80889W        W45874   5.899  36.319  11.931
80890W        W45875  26.547  15.212   4.345
80891W        W45876   3.206   1.532   1.327
80892W        W45877  10.530   8.090   0.190
80893W        W45878  13.560  42.977   3.650
80894W        W45879  26.496   4.626   5.011
80895W        W45880  43.952  24.714  14.412
80896W        W45881  19.353  27.743  11.951
80897W        W45882  40.831  17.250  13.905
80898W        W45883  12.109  35.508  10.479
80899W        W45884  14.223  10.458  13.137
80900W        W45885  21.510  16.813  11.109
80901W        W45886  28.601  30.933  12.485
80902W        W45887  36.923   4.824  10.594
80903W        W45888  29.473  17.265  11.231
80904W        W45889  23.605  42.406  12.232
80905W        W45890  44.818  40.292   0.410
80906W        W45891  11.749  38.381   3.722
80907W        W45892  16.822   5.190  12.043
80908W        W45893  33.929  11.936   3.782
80909W        W45894   0.960  25.640  11.417
80910W        W45895  42.950  44.797  14.862
80911W        W45896  33.970  28.250  11.145
80912W        W45897  12.327   4.772   2.929
80913W        W45898   8.351  19.792   3.346
80914W        W45899   2.780  39.896   0.036
80915W        W45900  16.026   7.866  11.607
80916W        W45901  25.427  30.135   2.308
80917W        W45902  42.252  39.041  13.394
80918W        W45903   9.670  42.410   0.138
80919W        W45904  27.598   4.438  12.918
80920W        W45905  37.316  38.278   3.374
80921W        W45906  25.072   3.772   4.080
80922W        W45907  21.503  21.537   1.816
80923W        W45908  38.042  21.502   2.239
80924W        W45909  35.342  31.121   4.105
80925W        W45910  21.110   8.636  11.267
80926W        W45911  12.091   6.397  13.796
80927W        W45912  20.504  35.864   3.401
80928W        W45913  33.394  27.858   0.965
80929W        W45914  36.073  28.118  14.463
80930W        W45915  34.076   2.985  13.068
80931W        W45916  13.690   0.963  14.351
80932W        W45917  19.525   1.399   3.173
80933W        W45918   6.373   9.000  10.010
80934W        W45919   8.274  13.195   3.842
80935W        W45920  30.633  27.627  13.236
80936W        W45921  26.373   2.804  14.047
80937W        W45922  30.808  25.226   1.911
80938W        W45923   2.405  19.681   1.237
80939W        W45924  34.151  27.483   2.796
80940W        W45925   6.003  20.125  12.552
80941W        W45926  39.258  22.834  12.966
80942W        W45927  44.512   5.282   1.919
80943W        W45928   7.686   4.117   5.377
80944W        W45929  28.434  23.382  13.049
80945W        W45930  34.707  16.853  14.970
80946W        W45931   4.236  30.062  12.091
80947W        W45932  35.908  21.559   4.872
80948W        W45933  10.137   3.646   3.366
80949W        W45934  14.640  37.866  13.013
80950W        W45935   0.983  41.010   1.949
80951W        W45936  14.744  19.451  13.519
80952W        W45937  26.097  37.855   1.739
80953W        W45938  20.915  27.138   3.383
80954W        W45939  17.311  22.544   2.716
80955W        W45940   5.164  11.681  14.413
80956W        W45941  12.706  10.296  14.510
80957W        W45942  16.313   9.118   4.344
80958W        W45943  26.234  25.074  11.582
80959W        W45944   2.390   0.167   2.792
80960W        W45945  12.251  29.742   1.768
80961W        W45946  34.976  13.849  14.474
80962W        W45947  23.163   2.895  13.569
80963W        W45948  37.273  28.406  13.271
80964W        W45949  20.666  11.238  12.375
80965W        W45950  30.256  13.279   0.212
80966W        W45951   6.788   2.208  10.857
80967W        W45952  43.335  11.131   2.327
80968W        W45953   2.898  21.663   1.694
80969W        W45954  13.482  20.418  12.609
80970W        W45955   7.080   4.436  12.183
80971W        W45956   8.135  32.484  11.563
80972W        W45957  13.768  43.945   2.361
80973W        W45958  42.432   7.338  10.730
80974W        W45959  40.448   5.434   1.153
80975W        W45960   7.575   2.891   0.827
80976W        W45961  10.658  37.364   3.041
80977W        W45962   2.963  32.424   3.380
80978W        W45963  37.536  22.199  14.895
80979W        W45964  29.638  20.644  11.538
80980W        W45965  30.534  41.506   4.047
80981W        W45966  44.778  16.249   4.356
80982W        W45967  16.288  17.791   4.759
80983W        W45968  30.047  10.727   1.669
80984W        W45969  19.572  19.224   2.113
80985W        W45970  29.016  27.128  10.722
80986W        W45971  43.038  20.474   2.342
80987W        W45972  31.558  13.069  14.901
80988W        W45973  24.077  25.072   1.284
80989W        W45974  26.624  35.169   2.378
80990W        W45975  33.676  41.398  13.110
80991W        W45976   4.769  24.503  14.971
80992W        W45977  33.366  43.988  14.737
80993W        W45978  29.105  26.604   4.552
80994W        W45979   7.635  18.013  12.988
80995W        W45980  11.634   2.825  11.034
80996W        W45981  29.368  37.288  11.085
80997W        W45982   4.766   2.224   3.573
80998W        W45983  36.331  22.988   4.541
80999W        W45984  28.546   5.948   3.144
81000W        W45985  14.291  36.542   1.238
81001W        W45986  35.067   5.205   4.599
81002W        W45987   5.473  34.026   0.362
81003W        W45988  43.292   0.683  13.411
81004W        W45989   9.136  13.623   0.792
81005W        W45990  11.120   7.760   3.598
81006W        W45991  35.963  27.857  12.570
81007W        W45992  42.374   6.808   2.893
81008W        W45993  22.108  24.715  11.164
81009W        W45994  12.809  32.391   3.644
81010W        W45995  18.927  37.136   3.823
81011W        W45996  17.278  18.862  13.408
81012W        W45997  39.396  12.141   1.117
81013W        W45998   8.995  15.907   3.693
81014W        W45999  10.147  12.736   2.652
81015W        W46000  18.640  20.485   2.541
81016W        W46001  35.833  44.240  11.101
81017W        W46002   8.360  35.099  10.722
81018W        W46003  36.384  34.019  14.729
81019W        W46004  37.540  32.015   3.678
81020W        W46005   3.436  28.704  14.372
81021W        W46006  16.193   6.186   0.436
81022W        W46007  40.634  34.947   0.343
81023W        W46008  30.193  19.765   4.561
81024W        W46009  43.904   6.222  10.586
81025W        W46010   5.241  12.084  11.146
81026W        W46011  34.526  10.698   3.661
81027W        W46012  26.395  33.573   0.714
81028W        W46013  36.055  41.970   3.079
81029W        W46014  41.592  40.360  12.452
81030W        W46015  40.031  20.877   1.750
81031W        W46016  30.791  37.968  13.943
81032W        W46017   6.241  42.350   2.624
81033W        W46018  37.320  11.688  11.688
81034W        W46019  26.361  17.059   4.715
81035W        W46020  34.739  22.616   3.287
81036W        W46021  21.935  36.291  14.826
81037W        W46022  29.493  19.162  11.422
81038W        W46023   5.250  39.891   2.710
81039W        W46024  27.730   5.599   4.424
81040W        W46025  40.016  32.147   4.082
81041W        W46026  33.894  22.105   4.904
81042W        W46027  16.433  15.155  13.963
81043W        W46028   5.225  12.352   0.722
81044W        W46029   0.539   2.707   0.843
81045W        W46030  14.525  42.441   0.395
81046W        W46031  14.368  37.978   0.591
81047W        W46032  37.255  12.892  11.969
81048W        W46033  13.298  35.914  10.945
81049W        W46034  43.381  41.594  12.713
81050W        W46035   1.240  38.891   1.349
81051W        W46036  40.341   0.552  13.691
81052W        W46037  20.997  12.037   2.403
81053W        W46038  40.017  37.352  12.771
81054W        W46039  38.500  26.726   2.824
81055W        W46040  39.723   7.325   0.888
81056W        W46041  39.496  24.527  13.216
81057W        W46042  28.090  43.277  11.588
81058W        W46043   3.795  30.816  10.183
81059W        W46044  25.408  34.843  12.300
81060W        W46045  12.253  19.498  12.040
81061W        W46046  36.564  30.753   3.249
81062W        W46047  14.072  38.393   0.664
81063W        W46048   2.656  25.068   0.218
81064W        W46049  12.278   9.741  12.940
81065W        W46050  38.001   8.468   1.483
81066W        W46051  17.912   7.169   2.803
81067W        W46052  44.713  38.295   2.492
81068W        W46053  14.171  36.827   2.255
81069W        W46054  24.492  37.522  10.723
81070W        W46055  24.735  13.701   1.332
81071W        W46056   4.942  21.586   1.214
81072W        W46057   6.424  12.353   4.532
81073W        W46058   6.809  22.648   4.279
81074W        W46059  31.744  19.202   3.550
81075W        W46060  13.823  33.997  14.991
81076W        W46061  30.428  37.394  14.991
81077W        W46062  41.773  39.096  11.184
81078W        W46063  40.898   1.723  14.862
81079W        W46064  39.503  41.859  14.175
81080W        W46065  37.492  33.884   2.904
81081W        W46066  19.062  15.223   1.446
81082W        W46067  24.770  39.357   3.301
81083W        W46068  22.261  14.390   3.406
81084W        W46069   8.291  39.943  10.887
81085W        W46070  42.317  13.636   1.074
81086W        W46071  29.024   5.165  13.929
81087W        W46072  36.740  23.874  10.737
81088W        W46073  16.634   1.941  14.449
81089W        W46074   3.510  20.816   0.310
81090W        W46075   8.217  40.057   1.534
81091W        W46076   6.682  30.103  12.526
81092W        W46077  30.952  42.087   0.203
81093W        W46078  31.593  37.663   4.850
81094W        W46079  17.184  11.398  13.544
81095W        W46080  36.081   1.863   1.860
81096W        W46081   9.293  22.910  12.462
81097W        W46082   1.287  16.569   3.263
81098W        W46083  23.863   2.945   2.275
81099W        W46084  24.991  27.754   2.418
81100W        W46085  38.034  22.517   2.274
81101W        W46086   3.762  18.322  11.516
81102W        W46087  24.155  11.114  10.620
81103W        W46088  29.796   2.385   1.282
81104W        W46089  19.263   2.539   3.041
81105W        W46090  24.094  16.777   2.824
81106W        W46091  14.620  20.522   3.792
81107W        W46092  12.060  28.918   3.521
81108W        W46093  37.173   6.191   3.652
81109W        W46094  16.254  14.001  13.332
81110W        W46095  40.810  33.512  10.757
81111W        W46096  19.723  34.984  11.794
81112W        W46097   7.270   8.210  12.566
81113W        W46098  10.165   4.731   4.199
81114W        W46099   8.759  25.531  11.152
81115W        W46100  34.120  36.590   3.081
81116W        W46101   4.145   0.910  12.029
81117W        W46102  21.486  10.800   1.997
81118W        W46103  40.705  37.982  11.023
81119W        W46104  29.520  24.523   2.930
81120W        W46105  44.081  13.216   5.302
81121W        W46106  17.210  20.282  14.445
81122W        W46107   0.290   8.253  13.323
81123W        W46108   3.034  13.698   3.367
81124W        W46109  12.688   3.461  11.245
81125W        W46110   7.180  29.999   2.626
81126W        W46111   1.193  21.220  12.185
81127W        W46112   6.713  39.953   0.902
81128W        W46113  40.227   7.476  11.435
81129W        W46114   7.287   2.232   0.804
81130W        W46115  16.870   8.281  11.492
81131W        W46116  30.392  38.666   3.585
81132W        W46117  22.205  39.510   3.423
81133W        W46118  34.920   5.927  13.556
81134W        W46119  18.766  20.235  12.248
81135W        W46120  32.613  23.020  11.852
81136W        W46121   4.851   3.463   3.420
81137W        W46122   9.744   4.752   4.954
81138W        W46123  25.015  20.638  10.451
81139W        W46124   3.249  44.097   0.239
81140W        W46125  35.293  33.516   3.639
81141W        W46126  18.900   6.719  13.402
81142W        W46127  16.110  15.654  12.126
81143W        W46128  16.165  43.395  14.790
81144W        W46129  13.819   6.315   0.718
81145W        W46130   6.397  34.788  12.377
81146W        W46131   6.392   7.255   1.768
81147W        W46132  35.450  19.338  12.528
81148W        W46133   3.424  42.968  11.318
81149W        W46134   9.521  20.528  10.516
81150W        W46135  25.046   1.287   0.626
81151W        W46136   9.787  44.204   0.372
81152W        W46137  10.173  13.790  11.970
81153W        W46138  38.094  36.371  13.610
81154W        W46139  42.437   9.107  11.569
81155W        W46140  41.638  38.088   2.717
81156W        W46141   1.935   0.787  13.874
81157W        W46142  25.084  15.542   0.763
81158W        W46143  43.052  13.428   2.539
81159W        W46144  22.764  23.703  10.358
81160W        W46145  15.260   8.913  13.396
81161W        W46146  35.871  25.084   1.151
81162W        W46147   5.168  12.134   4.748
81163W        W46148   4.414   7.749  14.043
81164W        W46149  37.830  21.527  12.104
81165W        W46150  14.771  24.508  14.896
81166W        W46151  33.433  29.365  10.617
81167W        W46152  20.286  34.381   4.259
81168W        W46153   3.038  38.865  13.780
81169W        W46154  30.236  16.224   3.564
81170W        W46155  38.205  34.873   1.795
81171W        W46156  37.899  38.301   4.524
81172W        W46157  36.981  37.966   0.785
81173W        W46158   9.632  31.117  13.990
81174W        W46159   0.764  27.872  14.766
81175W        W46160  31.712  17.726   5.090
81176W        W46161  21.200   2.923   1.134
81177W        W46162  44.642  43.108   2.752
81178W        W46163  24.071   7.403   4.810
81179W        W46164  36.550  18.436   1.817
81180W        W46165  28.113  34.953   4.831
81181W        W46166   8.365  14.883   4.294
81182W        W46167   7.709  35.297  11.141
81183W        W46168   6.475  12.655  11.674
81184W        W46169  36.490  23.554  12.594
81185W        W46170  28.351  43.736   3.099
81186W        W46171  24.376  18.369   3.859
81187W        W46172   5.380  26.579   1.724
81188W        W46173  36.068  40.873   4.667
81189W        W46174   0.456  39.733  13.027
81190W        W46175  35.942  36.463  12.360
81191W        W46176  30.394  22.146   3.243
81192W        W46177  36.753   3.905   0.965
81193W        W46178   4.259   9.317  13.075
81194W        W46179   2.119  23.067   1.458
81195W        W46180   1.962  35.132  12.946
81196W        W46181  44.931  32.764  14.227
81197W        W46182   1.686  43.409   4.630
81198W        W46183  29.578  19.116   0.689
81199W        W46184   7.277  29.685  13.469
81200W        W46185   4.260   4.434  12.873
81201W        W46186  38.505  35.348   2.695
81202W        W46187   5.872   2.492   0.063
81203W        W46188  41.543   1.835   4.441
81204W        W46189  33.341   9.838   0.548
81205W        W46190  38.208  35.568   4.566
81206W        W46191  37.440   5.678  12.125
81207W        W46192  28.530  29.643  10.591
81208W        W46193  18.983  41.950  10.685
81209W        W46194  26.615  20.719  13.038
81210W        W46195  29.172   1.223  10.560
81211W        W46196  12.243  16.128  12.150
81212W        W46197  33.687   3.972   4.997
81213W        W46198   0.247   0.265  13.934
81214W        W46199  28.633  25.658  12.655
81215W        W46200  44.031  11.847   4.093
81216W        W46201  13.083  39.978   0.283
81217W        W46202  38.909   3.508  13.923
81218W        W46203  22.702  17.904  12.310
81219W        W46204  44.389  15.729   1.435
81220W        W46205  14.273  28.213  14.619
81221W        W46206  22.721  27.134   0.469
81222W        W46207  20.510   9.866  13.558
81223W        W46208   2.360  37.637   4.746
81224W        W46209  31.915   7.839  14.394
81225W        W46210  41.504  30.332   2.285
81226W        W46211  11.840  32.113  12.155
81227W        W46212  32.397  13.269  12.396
81228W        W46213  25.436  24.049  13.208
81229W        W46214  25.254  24.839   1.343
81230W        W46215  15.664   9.199   3.542
81231W        W46216   6.944  30.223   0.459
81232W        W46217  38.151  21.227  10.792
81233W        W46218  39.367   0.404  11.002
81234W        W46219  41.552  22.240   5.008
81235W        W46220   7.430  30.860  12.036
81236W        W46221  44.239  32.956   4.293
81237W        W46222   4.335   0.818   0.229
81238W        W46223  33.168  40.059   0.020
81239W        W46224   7.056  44.048  13.339
81240W        W46225  15.305  29.635   2.230
81241W        W46226  42.200  37.436  12.575
81242W        W46227  34.362  44.960   2.755
81243W        W46228  15.624  41.364   3.567
81244W        W46229   1.043  28.014   1.661
81245W        W46230   2.728  24.289  12.445
81246W        W46231  39.000   8.860   0.886
81247W        W46232   6.945  22.269   2.690
81248W        W46233   9.670  10.840   0.348
81249W        W46234  29.738  16.934   5.067
81250W        W46235  19.735  43.413   2.764
81251W        W46236  11.059  30.057  14.420
81252W        W46237  26.986  11.191   2.875
81253W        W46238   7.384  16.311   0.886
81254W        W46239  11.979  30.085  11.245
81255W        W46240  13.230   2.147   1.895
81256W        W46241  38.403  40.395  14.554
81257W        W46242  15.743  14.328  10.639
81258W        W46243  42.892   1.268   3.912
81259W        W46244  36.429  41.000   1.944
81260W        W46245  26.029   4.476   2.770
81261W        W46246  19.743  28.596   4.605
81262W        W46247   5.922  42.947   4.921
81263W        W46248  35.924   9.277   4.617
81264W        W46249  16.767  23.672  14.933
81265W        W46250  40.281   4.895  10.435
81266W        W46251  12.613  33.755   2.920
81267W        W46252  26.190  24.716   2.812
81268W        W46253  37.368  36.806  13.969
81269W        W46254  33.926  38.166   2.742
81270W        W46255  18.300  18.011  13.880
81271W        W46256  27.239  25.906  11.964
81272W        W46257  11.218  27.795   4.550
81273W        W46258  36.837   6.624  11.048
81274W        W46259  22.818  20.686   1.350
81275W        W46260   6.571  39.871  10.655
81276W        W46261  18.956  36.127  13.696
81277W        W46262  30.510  24.914  11.090
81278W        W46263  27.555  37.118  14.742
81279W        W46264  15.637  12.660  12.672
81280W        W46265  17.192  16.907  14.399
81281W        W46266   9.107  16.778  11.597
81282W        W46267   2.860  31.440  10.665
81283W        W46268  41.404  22.686   3.496
81284W        W46269  15.154  29.129  13.057
81285W        W46270  34.527  23.946  11.956
81286W        W46271  11.884  10.821   2.262
81287W        W46272  22.912  20.052  11.963
81288W        W46273  26.576  33.598   9.980
81289W        W46274  19.194  42.966  11.632
81290W        W46275  16.223   0.833   0.854
81291W        W46276  30.773  25.650   1.038
81292W        W46277  33.902   7.704  13.897
81293W        W46278  34.856  13.276  10.560
81294W        W46279   0.756   3.253  11.293
81295W        W46280  30.940  35.431  10.826
81296W        W46281  24.212  14.270  10.758
81297W        W46282  22.510  30.482   5.048
81298W        W46283  27.036  10.430  14.312
81299W        W46284  27.687  28.947   1.242
81300W        W46285   8.369  28.129   2.349
81301W        W46286  12.145   1.414   2.882
81302W        W46287  42.012  14.321  13.294
81303W        W46288   5.083  33.852  10.780
81304W        W46289  16.763   2.880   0.671
81305W        W46290  33.061  13.900  13.821
81306W        W46291   1.996  40.934  11.756
81307W        W46292  41.453   4.924  14.495
81308W        W46293  19.531   6.209  11.886
81309W        W46294  24.070  28.445   4.148
81310W        W46295   2.153   4.460   2.323
81311W        W46296   9.294  42.687  14.686
81312W        W46297  21.181   5.159  13.902
81313W        W46298  20.159  36.825  12.848
81314W        W46299  13.173   6.739  13.167
81315W        W46300  35.517  19.294   3.106
81316W        W46301  21.995  34.437  14.909
81317W        W46302  12.155  20.296   0.640
81318W        W46303  25.522  43.026   4.213
81319W        W46304  19.683  32.417  14.002
81320W        W46305  25.944  40.898  13.398
81321W        W46306   7.817  42.993  12.959
81322W        W46307  36.435  17.556   1.909
81323W        W46308  11.166  39.568   2.666
81324W        W46309  43.718  32.901   3.032
81325W        W46310   6.255  31.091  13.596
81326W        W46311  24.141  34.160   4.458
81327W        W46312  11.454  18.620  13.094
81328W        W46313  17.716  12.789   0.953
81329W        W46314  12.191   6.608   4.716
81330W        W46315  39.086  39.551   0.156
81331W        W46316  30.506  20.031   2.788
81332W        W46317   8.371  28.603   4.144
81333W        W46318  28.008  42.073   0.987
81334W        W46319  16.214  35.937   0.791
81335W        W46320  22.710  41.521   1.368
81336W        W46321  23.413  13.887   4.588
81337W        W46322  14.849  21.319   4.187
81338W        W46323  43.894   3.270  14.907
81339W        W46324  34.530  11.205  12.896
81340W        W46325  40.401  15.698  11.778
81341W        W46326  15.824  20.339   0.054
81342W        W46327  22.069  11.576  10.700
81343W        W46328  11.195  16.715   1.503
81344W        W46329   9.866  10.811   2.265
81345W        W46330   0.285  22.288  10.468
81346W        W46331  31.951   2.683  14.050
81347W        W46332  16.041   4.282   0.762
81348W        W46333  12.128  41.757  10.636
81349W        W46334  22.210  41.724   3.032
81350W        W46335  23.082  13.354   3.195
81351W        W46336  41.620  36.212   4.840
81352W        W46337  19.605   0.413  13.165
81353W        W46338   3.384  32.223  10.641
81354W        W46339  11.808  37.314   1.847
81355W        W46340  27.968  43.481  12.913
81356W        W46341   0.805  18.325  13.418
81357W        W46342  33.984  35.340   2.803
81358W        W46343  35.179  14.144   4.540
81359W        W46344  30.813   2.636   3.252
81360W        W46345   8.980  19.076   1.332
81361W        W46346  36.387  25.014   1.220
81362W        W46347  16.422   7.522  11.481
81363W        W46348  20.133  38.049   3.384
81364W        W46349  13.817  18.605   4.410
81365W        W46350  12.292   3.904   0.798
81366W        W46351  24.699   3.372   1.179
81367W        W46352  38.344  21.021  13.316
81368W        W46353  40.066  37.460  11.837
81369W        W46354  18.064  24.508  13.374
81370W        W46355  17.005  12.681  12.415
81371W        W46356  10.393  22.170   2.712
81372W        W46357  21.185   8.346  10.858
81373W        W46358  25.309  34.433   2.804
81374W        W46359  13.785   5.603  13.737
81375W        W46360  44.375   7.675  12.130
81376W        W46361   6.307   8.630  11.924
81377W        W46362  17.361  13.251   1.800
81378W        W46363  10.732  26.590  12.909
81379W        W46364  43.029  18.475  13.553
81380W        W46365  32.490  10.199  12.162
81381W        W46366  31.372  14.496   4.888
81382W        W46367  27.112  12.648  11.231
81383W        W46368  12.162  17.724   0.238
81384W        W46369   1.277  23.555   4.671
81385W        W46370  41.443   7.239  11.214
81386W        W46371  24.195   1.419  12.230
81387W        W46372  32.850  41.267   5.093
81388W        W46373  21.690   2.799   3.312
81389W        W46374   1.681   8.832  13.890
81390W        W46375  34.799  27.016   3.098
81391W        W46376  44.051  26.188  11.126
81392W        W46377  26.233  25.164  14.409
81393W        W46378   1.951  24.166  12.179
81394W        W46379  35.313  30.691  11.133
81395W        W46380  30.650  38.952  13.137
81396W        W46381  24.647  15.708   4.072
81397W        W46382  12.585   7.263  10.607
81398W        W46383  24.110  28.852  13.013
81399W        W46384  18.313  40.316   2.399
81400W        W46385  13.639  18.030  14.511
81401W        W46386   9.119   7.695  12.087
81402W        W46387  20.750  22.732   3.887
81403W        W46388  29.561  44.286   2.887
81404W        W46389  28.942  14.884   0.795
81405W        W46390  27.510  41.264  12.431
81406W        W46391  39.460  41.112   4.303
81407W        W46392  37.537   4.733  14.059
81408W        W46393  28.187   3.788  13.554
81409W        W46394   0.255   2.502  13.723
81410W        W46395   0.707   8.002  12.154
81411W        W46396  36.964   4.913   4.072
81412W        W46397  28.051   5.458   2.787
81413W        W46398   4.923  23.907  10.952
81414W        W46399  26.183   3.744  13.390
81415W        W46400  18.968  33.950  14.898
81416W        W46401  23.986  44.519  12.894
81417W        W46402  27.703  14.216   0.850
81418W        W46403  40.760   9.682   1.943
81419W        W46404  13.103   3.298   4.608
81420W        W46405  39.213  14.647  12.184
81421W        W46406   0.481  12.117   3.400
81422W        W46407  20.602  20.771   4.630
81423W        W46408  13.046  17.225  11.219
81424W        W46409   9.720   9.179   3.186
81425W        W46410  11.755  40.529   4.616
81426W        W46411  16.399   1.946   3.789
81427W        W46412   3.177  36.550   4.089
81428W        W46413   1.410   1.479  12.954
81429W        W46414  20.067   0.768  13.390
81430W        W46415  24.901  22.522  10.508
81431W        W46416  44.272  15.240   1.751
81432W        W46417   2.878  30.154  14.394
81433W        W46418  15.584  16.561  13.755
81434W        W46419   2.799  16.387   4.513
81435W        W46420  21.264   1.947  14.546
81436W        W46421  17.887   2.125   4.596
81437W        W46422  20.668   7.848  14.773
81438W        W46423  23.184  17.968   4.149
81439W        W46424   2.824  24.722   2.729
81440W        W46425   0.421  33.630   4.551
81441W        W46426  11.157  28.148   4.164
81442W        W46427  22.596   5.939   1.578
81443W        W46428   1.246  29.936  10.514
81444W        W46429  40.957   0.670  12.588
81445W        W46430   1.340  33.462  14.262
81446W        W46431   2.481  23.023   4.536
81447W        W46432  39.085   4.825   2.423
81448W        W46433  35.920   5.201  12.873
81449W        W46434   3.173  33.909  12.421
81450W        W46435  10.859  26.100   0.334
81451W        W46436   9.446  12.969  10.439
81452W        W46437  26.332  37.318   2.649
81453W        W46438  15.755  26.084  12.428
81454W        W46439  29.347  13.111  14.271
81455W        W46440  42.362  16.856   2.786
81456W        W46441  13.077  42.097  13.855
81457W        W46442  42.976  33.541   2.370
81458W        W46443  19.241   2.937  11.189
81459W        W46444  37.093   9.375  14.438
81460W        W46445   8.382  28.772  11.982
81461W        W46446  33.165  32.750   2.766
81462W        W46447  36.390   2.803   1.412
81463W        W46448  29.948   2.776  14.220
81464W        W46449   2.258  41.477   4.756
81465W        W46450  25.072  38.477  13.763
81466W        W46451   9.934   1.982   2.084
81467W        W46452  24.141  36.152  14.286
81468W        W46453  37.596  16.821   4.609
81469W        W46454  17.664  24.024  14.002
81470W        W46455  15.991  18.569   4.609
81471W        W46456   3.705  40.323  14.402
81472W        W46457  41.585  42.856  13.667
81473W        W46458   9.383  16.548   4.651
81474W        W46459  26.313   4.651  11.185
81475W        W46460  44.442  11.370  14.800
81476W        W46461  11.821   8.925  11.446
81477W        W46462  43.341  44.794  14.518
81478W        W46463  36.815  36.089   1.558
81479W        W46464   5.819  24.497   2.830
81480W        W46465   2.818   0.836   4.366
81481W        W46466  30.345  34.054  12.995
81482W        W46467  42.863  43.728   3.651
81483W        W46468  40.609  44.559   4.820
81484W        W46469  30.243  11.412   5.009
81485W        W46470  39.535  32.598   1.619
81486W        W46471  36.000  40.298   0.941
81487W        W46472  38.688   9.724  10.611
81488W        W46473  30.181  22.450  11.226
81489W        W46474  27.014   7.839   2.818
81490W        W46475  19.661  13.230   4.959
81491W        W46476  19.549  33.627  11.615
81492W        W46477   3.475  27.620   1.396
81493W        W46478  16.159  33.650   0.702
81494W        W46479   8.556  22.573  10.694
81495W        W46480  39.032  14.644   1.635
81496W        W46481   8.152   7.827   2.736
81497W        W46482  21.836  28.416  14.441
81498W        W46483  39.253   6.236  11.273
81499W        W46484  15.092  13.918  11.129
81500W        W46485  14.857  14.560   2.699
81501W        W46486  19.269   3.421  10.936
81502W        W46487   1.419  33.970  12.161
81503W        W46488  41.842   8.146  13.487
81504W        W46489  12.812  13.209  10.672
81505W        W46490  36.866   1.220   3.638
81506W        W46491  37.615  10.014   9.867
81507W        W46492  23.233  12.784   2.794
81508W        W46493  29.401  10.129   2.653
81509W        W46494  26.060  33.350   4.118
81510W        W46495  43.187  21.742   2.688
81511W        W46496   5.829  40.188  10.965
81512W        W46497  28.497  31.053   1.806
81513W        W46498  12.918  16.690  12.530
81514W        W46499  17.366   1.311  12.536
81515W        W46500   2.263  39.324  11.164
81516W        W46501  11.367  16.215   4.049
81517W        W46502   6.323  23.729   4.280
81518W        W46503  26.557  18.438  14.846
81519W        W46504  20.991  35.812   3.260
81520W        W46505  13.876  11.685   3.026
81521W        W46506   0.264  38.627   1.061
81522W        W46507  24.597  25.177   1.269
81523W        W46508  34.547  36.567   3.945
81524W        W46509  19.484  16.287  10.330
81525W        W46510   5.369  18.794  11.545
81526W        W46511   5.329  37.524  10.029
81527W        W46512  35.148  16.295   3.668
81528W        W46513   3.698  22.220   1.214
81529W        W46514  39.889  24.531   2.012
81530W        W46515   7.153   1.410   4.098
81531W        W46516   9.477  14.637  12.838
81532W        W46517  17.235  27.220   1.363
81533W        W46518   1.779  21.270   2.599
81534W        W46519   5.288  11.467  10.475
81535W        W46520  18.250  17.191  11.987
81536W        W46521  44.242  19.605   2.764
81537W        W46522  30.576  32.534   2.883
81538W        W46523   5.758  44.345   2.680
81539W        W46524   8.875  14.838   1.218
81540W        W46525   8.769  22.686  14.368
81541W        W46526  34.569   4.588  13.631
81542W        W46527  23.308  25.793   0.242
81543W        W46528   5.790  28.002  12.505
81544W        W46529  23.244  13.550  12.838
81545W        W46530  43.006   5.707   2.693
81546W        W46531   1.331  42.998  13.059
81547W        W46532  25.134  27.406  10.709
81548W        W46533  10.213  35.870  10.800
81549W        W46534  24.785  21.179  12.922
81550W        W46535  30.580   1.710  12.004
81551W        W46536  39.270  26.429  12.283
81552W        W46537  24.212  27.580   1.756
81553W        W46538  29.995  29.809  11.311
81554W        W46539  18.681   7.635   2.763
81555W        W46540   3.215  24.631   3.188
81556W        W46541  41.894  28.602  13.560
81557W        W46542  16.948  23.478  13.943
81558W        W46543  30.930  31.630   0.901
81559W        W46544  21.794   3.342   5.153
81560W        W46545  44.294   5.325   0.380
81561W        W46546  21.337  33.525  14.844
81562W        W46547   4.484  20.759   0.415
81563W        W46548  24.750  17.218   4.621
81564W        W46549   2.361   5.398   3.865
81565W        W46550  25.588  34.344   0.971
81566W        W46551  36.830  36.622   1.413
81567W        W46552  19.681  19.222  11.220
81568W        W46553  30.030  36.466  11.699
81569W        W46554  41.949  29.986  12.694
81570W        W46555  35.638   6.637  12.129
81571W        W46556  41.907  11.202  14.544
81572W        W46557   6.960  24.155  12.975
81573W        W46558  16.423   9.344  14.762
81574W        W46559   3.328  19.078  13.221
81575W        W46560   9.496  10.956  13.163
81576W        W46561  41.792  16.621   3.862
81577W        W46562  18.441  28.101   2.955
81578W        W46563   9.324   1.690   0.221
81579W        W46564   7.220  41.277  14.563
81580W        W46565   5.033  17.031   3.172
81581W        W46566  32.796  39.634  11.080
81582W        W46567  38.917  24.285   1.738
81583W        W46568  20.365  30.171  13.265
81584W        W46569  17.051  10.744  12.406
81585W        W46570  35.749  32.505   1.449
81586W        W46571  36.000   8.382  13.427
81587W        W46572  16.297  20.552   3.029
81588W        W46573   0.516  26.695   1.630
81589W        W46574  28.618  27.543   4.620
81590W        W46575  20.525  33.403  12.567
81591W        W46576  16.297  40.415  13.814
81592W        W46577  23.822  29.437  11.017
81593W        W46578  29.382   9.200   0.782
81594W        W46579  30.076  28.719  14.721
81595W        W46580  30.708  25.249   4.080
81596W        W46581  26.004   3.943  11.381
81597W        W46582  42.006  19.647  10.699
81598W        W46583  40.271  13.607  13.901
81599W        W46584  44.435  17.130   4.882
81600W        W46585  17.372  38.892  10.016
81601W        W46586   1.257  24.625   4.724
81602W        W46587  11.340  12.545  14.573
81603W        W46588   9.188  16.962   0.566
81604W        W46589   3.912   7.115   4.612
81605W        W46590  33.587  33.290   4.172
81606W        W46591  39.923   0.750  12.869
81607W        W46592  39.789  30.567  11.465
81608W        W46593  12.836  25.965   4.174
81609W        W46594  36.380   7.363   0.020
81610W        W46595  22.395  17.924  12.720
81611W        W46596   7.390   0.303   3.994
81612W        W46597   8.135  13.205  12.569
81613W        W46598  16.359   6.006  13.434
81614W        W46599  39.488   5.243   0.323
81615W        W46600  10.772  13.116   1.966
81616W        W46601  16.630  35.550   4.653
81617W        W46602  25.121  42.174   4.224
81618W        W46603  27.244  26.448  14.222
81619W        W46604   0.009  23.496   3.762
81620W        W46605  35.442  36.645  14.807
81621W        W46606  26.012  43.903  11.651
81622W        W46607  39.394  34.502  13.085
81623W        W46608   7.097  41.562  12.089
81624W        W46609  37.073  14.830   1.196
81625W        W46610  24.916   8.431  13.072
81626W        W46611  40.664  44.974   2.004
81627W        W46612  35.614  23.704  12.523
81628W        W46613  10.847  37.887   1.828
81629W        W46614  17.324  10.470   3.743
81630W        W46615  18.082  42.431  13.110
81631W        W46616  11.323  38.351   0.156
81632W        W46617  20.295  35.322   4.523
81633W        W46618   5.110   6.717  12.458
81634W        W46619  18.746  23.958   3.691
81635W        W46620  18.276  39.935  13.092
81636W        W46621  22.725   3.496   5.092
81637W        W46622  31.451   8.004   2.673
81638W        W46623  39.941  36.644   1.947
81639W        W46624  23.758  10.246   4.610
81640W        W46625   5.880   4.228  11.211
81641W        W46626   2.266  34.969   1.754
81642W        W46627  28.572  12.690  13.137
81643W        W46628  15.036  27.820  12.576
81644W        W46629  41.009  13.805   0.035
81645W        W46630   4.871  19.178  12.418
81646W        W46631  37.020  38.970   1.397
81647W        W46632   9.431  27.505   4.067
81648W        W46633  19.493  41.788   4.637
81649W        W46634  21.750   9.773   1.862
81650W        W46635  44.993  40.541  12.193
81651W        W46636  23.246   3.716  13.489
81652W        W46637  41.628  27.944  13.822
81653W        W46638  43.551  24.606  10.580
81654W        W46639  26.968  44.017   3.069
81655W        W46640  39.202  37.068   4.410
81656W        W46641  17.251   7.264  13.071
81657W        W46642  32.440  34.416   2.140
81658W        W46643   3.258  13.634  13.749
81659W        W46644  36.350  26.655   1.677
81660W        W46645  32.424   1.211   1.391
81661W        W46646  42.674  37.415  10.772
81662W        W46647  10.939  34.413  14.351
81663W        W46648  23.944  16.313  11.528
81664W        W46649  20.254  40.522  14.303
81665W        W46650  12.700  20.129  10.702
81666W        W46651  44.428  38.444  14.469
81667W        W46652  27.032  14.742   3.153
81668W        W46653   5.682  23.760  12.149
81669W        W46654   2.182  41.121  13.944
81670W        W46655  14.416  22.054   3.286
81671W        W46656   9.378  42.996   2.872
81672W        W46657  21.659  18.497   5.429
81673W        W46658  44.398  29.107  14.648
81674W        W46659  19.012  34.923  14.123
81675W        W46660  19.998  43.952  12.302
81676W        W46661  28.749  29.652   1.423
81677W        W46662  10.807   7.842   9.520
81678W        W46663   0.328  19.525   1.331
81679W        W46664   5.478   6.417  13.331
81680W        W46665  37.871  37.627   0.780
81681W        W46666  14.608  41.517   0.356
81682W        W46667   0.270  43.813  14.458
81683W        W46668  21.996   9.147   0.794
81684W        W46669  34.603  34.047  14.489
81685W        W46670  27.507   5.308  13.888
81686W        W46671  14.866   1.428   4.129
81687W        W46672  20.944  40.105  13.802
81688W        W46673  26.366  37.576  14.863
81689W        W46674  28.172  27.534   4.323
81690W        W46675  27.621  21.767  11.095
81691W        W46676  20.172  16.364  13.899
81692W        W46677  20.675  38.281  14.873
81693W        W46678  19.976   2.605   3.956
81694W        W46679   7.944   0.743   0.450
81695W        W46680  12.372   7.308   3.630
81696W        W46681   3.152  33.240  13.587
81697W        W46682  17.658  28.167   0.896
81698W        W46683  41.220  15.469  12.341
81699W        W46684  39.053   5.478   1.944
81700W        W46685   3.209  21.529   2.224
81701W        W46686   4.243  13.954  12.586
81702W        W46687   9.234  19.401  10.695
81703W        W46688  44.801  31.474  11.545
81704W        W46689  10.349  31.755  13.326
81705W        W46690  14.094  24.612   3.220
81706W        W46691  43.942  15.429  13.295
81707W        W46692  38.413  42.993  11.256
81708W        W46693  19.052  28.700   0.839
81709W        W46694  19.750  35.517   1.780
81710W        W46695  33.917  22.693  12.163
81711W        W46696  39.799  22.265   0.805
81712W        W46697  15.793  12.384  13.096
81713W        W46698  15.872  40.675   2.413
81714W        W46699  25.179  29.340   4.156
81715W        W46700  23.955  37.636   9.843
81716W        W46701  23.655  35.589   4.605
81717W        W46702  43.931   5.289   2.040
81718W        W46703  30.741  17.542  13.218
81719W        W46704  33.641   4.754  13.536
81720W        W46705  21.450   8.701   1.288
81721W        W46706  19.768  26.030   3.641
81722W        W46707  21.687   1.793   4.194
81723W        W46708  16.060  41.416   0.233
81724W        W46709  31.443  38.846   0.416
81725W        W46710   7.391  12.262  14.527
81726W        W46711  29.454   2.476  10.955
81727W        W46712  25.032  27.085   0.741
81728W        W46713  32.380  27.026  11.615
81729W        W46714  19.727   8.569   9.586
81730W        W46715  12.341  19.290   0.769
81731W        W46716   3.806  36.798  13.501
81732W        W46717  30.929  42.298  14.432
81733W        W46718  17.008  26.877   1.048
81734W        W46719   5.783  43.628   0.263
81735W        W46720   4.765   0.912   3.424
81736W        W46721  39.882   0.722   3.310
81737W        W46722  26.025  27.726   0.507
81738W        W46723  12.735  18.454  12.591
81739W        W46724  39.303  11.087  14.444
81740W        W46725   7.479  20.613   4.534
81741W        W46726  30.098  18.670   1.738
81742W        W46727   1.170   0.451   4.926
81743W        W46728  16.265   7.754   0.241
81744W        W46729  21.333  29.410   1.053
81745W        W46730  25.261  37.555  10.864
81746W        W46731   2.599  38.552  11.938
81747W        W46732  38.325   1.726  12.856
81748W        W46733   2.864  23.489  13.351
81749W        W46734  41.892  17.007  10.690
81750W        W46735  10.768  37.430   3.524
81751W        W46736  15.785   7.060  13.445
81752W        W46737  43.588  31.640   1.899
81753W        W46738  23.040  16.505  13.550
81754W        W46739   7.875   9.267   1.174
81755W        W46740   4.239  26.522   0.709
81756W        W46741  15.559   9.749  10.217
81757W        W46742  30.395  26.442  13.993
81758W        W46743  18.290  12.701   0.051
81759W        W46744  41.464  13.695  14.780
81760W        W46745   1.834  26.675  13.011
81761W        W46746  10.119  13.151  13.547
81762W        W46747  17.192  19.172  10.150
81763W        W46748  41.709  18.393  11.096
81764W        W46749  31.022   5.492   0.933
81765W        W46750  43.051  26.719   0.823
81766W        W46751  28.906  42.497   1.257
81767W        W46752  20.939  14.704  10.769
81768W        W46753   2.069  28.641  14.930
81769W        W46754  38.071  29.998   4.872
81770W        W46755  22.149   5.291   4.791
81771W        W46756  25.168  27.053   3.569
81772W        W46757  38.922  21.325  10.682
81773W        W46758  30.980  36.211   0.814
81774W        W46759  36.942  27.191   1.444
81775W        W46760  42.686  10.479   4.952
81776W        W46761  33.651  25.504  11.531
81777W        W46762  34.097  35.999  13.854
81778W        W46763   2.413   6.894   3.709
81779W        W46764  26.106  35.168  14.946
81780W        W46765  40.843  33.711   5.417
81781W        W46766   5.281  12.258  12.643
81782W        W46767   7.171  18.059  13.384
81783W        W46768  14.594  43.454   2.035
81784W        W46769  29.182  44.348   3.266
81785W        W46770  38.443  29.165  14.151
81786W        W46771  28.539  18.789  10.902
81787W        W46772  33.583  28.425  10.873
81788W        W46773   9.745   9.075   0.776
81789W        W46774   1.967   5.764  11.659
81790W        W46775  36.794  18.621  11.931
81791W        W46776  42.717   3.257   2.813
81792W        W46777   3.020   6.849  14.750
81793W        W46778  20.487  16.056  12.160
81794W        W46779   0.936  34.183  14.815
81795W        W46780  37.384  37.487  10.728
81796W        W46781  43.486   1.702  14.447
81797W        W46782   6.132  19.322   0.309
81798W        W46783   8.731  23.409   2.929
81799W        W46784  33.403  25.925  13.592
81800W        W46785   0.074  13.764   4.914
81801W        W46786  13.770  13.723   2.500
81802W        W46787  10.430   2.992  12.249
81803W        W46788  35.018   8.494  14.219
81804W        W46789  21.246  17.792  12.798
81805W        W46790  10.741  30.475  13.087
81806W        W46791  10.594  22.526   2.377
81807W        W46792  20.245  24.086   2.482
81808W        W46793  39.974  38.449  11.730
81809W        W46794  26.132  40.968   1.733
81810W        W46795   8.664  17.246   1.694
81811W        W46796  34.336  19.352   2.275
81812W        W46797   2.331   4.859  14.428
81813W        W46798  44.918  10.917   2.603
81814W        W46799   8.675  31.382   1.163
81815W        W46800  23.605  22.310   3.125
81816W        W46801  42.350  39.081  10.190
81817W        W46802  16.950  33.480   0.233
81818W        W46803  43.183  41.470   3.667
81819W        W46804  25.035  42.869  14.846
81820W        W46805  32.636  32.960  12.473
81821W        W46806  32.514  22.657   4.055
81822W        W46807   9.726   3.060   3.732
81823W        W46808   8.326   2.500  13.303
81824W        W46809  36.574  20.463   4.123
81825W        W46810  15.169  30.634  11.953
81826W        W46811   7.272   6.973   5.018
81827W        W46812  40.903  13.536  12.570
81828W        W46813  36.347  31.238   3.182
81829W        W46814  44.512  36.820  11.428
81830W        W46815  33.406  38.230  11.573
81831W        W46816  19.594  14.424  10.746
81832W        W46817   8.448  13.295   3.370
81833W        W46818  23.450   1.087  12.171
81834W        W46819  21.132  25.916  12.038
81835W        W46820  14.538   0.727  10.725
81836W        W46821  22.584  10.973   2.387
81837W        W46822  29.094  19.494  11.175
81838W        W46823  35.958  40.289  12.678
81839W        W46824  42.421  29.987  11.126
81840W        W46825  20.494  10.554   4.251
81841W        W46826  31.587  23.649   3.542
81842W        W46827  10.394  22.929  12.212
81843W        W46828  27.049  44.503  10.394
81844W        W46829  42.592   1.815  14.629
81845W        W46830  31.635   9.608   9.929
81846W        W46831  30.630  17.732   2.615
81847W        W46832  39.331  20.264  14.570
81848W        W46833  32.036  10.218  12.851
81849W        W46834  11.206  36.574  10.779
81850W        W46835  42.509   1.012  10.589
81851W        W46836  29.050  23.948  13.472
81852W        W46837   6.442  19.985   2.255
81853W        W46838  39.470  21.016   1.642
81854W        W46839  26.330  36.445   3.359
81855W        W46840  30.548  16.366   0.921
81856W        W46841  21.018  19.644   0.813
81857W        W46842  12.297  20.570   4.821
81858W        W46843  29.735   4.214   4.420
81859W        W46844  31.412  19.176   1.821
81860W        W46845  23.711  41.912  10.630
81861W        W46846   4.671  24.745  11.139
81862W        W46847  37.582  20.677   2.925
81863W        W46848  21.900   6.708   2.598
81864W        W46849  29.367  40.847  11.203
81865W        W46850  31.161  26.185  14.404
81866W        W46851  33.409  23.667   4.052
81867W        W46852  18.109  26.182  13.988
81868W        W46853  29.161   4.922  12.657
81869W        W46854  21.716  24.797  13.906
81870W        W46855  25.519  29.928  13.389
81871W        W46856   0.515  16.505  14.843
81872W        W46857   7.673  34.651  12.050
81873W        W46858   0.853  15.082   0.430
81874W        W46859  34.797  13.878   2.928
81875W        W46860   0.753  27.299   0.766
81876W        W46861  26.922  14.098   2.789
81877W        W46862  41.740   7.739  14.283
81878W        W46863  27.971  26.708  11.146
81879W        W46864  20.141  34.013   4.682
81880W        W46865  13.824  36.495   1.500
81881W        W46866   7.482  20.670  11.546
81882W        W46867  40.260  18.212   3.745
81883W        W46868  39.480  32.409   4.649
81884W        W46869  42.563  18.807   1.701
81885W        W46870  28.638  28.756   4.188
81886W        W46871  35.647  17.273  11.936
81887W        W46872  32.693  28.167   1.550
81888W        W46873  27.482  39.804  13.780
81889W        W46874  13.728  33.209  11.490
81890W        W46875  14.754   9.811  13.538
81891W        W46876  44.819  44.434  13.789
81892W        W46877  29.525   8.257   4.147
81893W        W46878  43.544   6.985  14.882
81894W        W46879   0.260  30.693  11.916
81895W        W46880  32.546   7.523   2.689
81896W        W46881  36.865  36.380   3.460
81897W        W46882   8.303  36.653   4.205
81898W        W46883  36.530  21.044  12.327
81899W        W46884  29.147  41.815  10.632
81900W        W46885  13.340  37.302  10.317
81901W        W46886  32.786  44.427  12.992
81902W        W46887  22.303  19.765   0.294
81903W        W46888  19.590  42.721   1.076
81904W        W46889  33.010   2.917   3.300
81905W        W46890   8.598   7.649   0.841
81906W        W46891  30.388  29.101   1.383
81907W        W46892   0.153  12.648  12.835
81908W        W46893  13.042   7.621  11.276
81909W        W46894   2.255  26.115   3.245
81910W        W46895   1.338  25.989  11.499
81911W        W46896  13.768  43.861  12.565
81912W        W46897  13.601  12.068  11.142
81913W        W46898   1.211  13.616   0.818
81914W        W46899  39.334  34.624   3.119
81915W        W46900  10.896   1.051   3.548
81916W        W46901  29.177  30.538   3.117
81917W        W46902  41.583   7.257  13.439
81918W        W46903  30.450   5.852   3.108
81919W        W46904  41.867  14.172  11.584
81920W        W46905  11.947  36.382  14.999
81921W        W46906  17.391  26.650  13.054
81922W        W46907  36.464  18.553   2.335
81923W        W46908  15.674  12.897   0.299
81924W        W46909  44.841  28.893  14.854
81925W        W46910  15.501  23.369   4.449
81926W        W46911  31.956  35.771   3.136
81927W        W46912   2.197  16.974   3.196
81928W        W46913   9.484  21.932  10.511
81929W        W46914  20.182   7.099  12.821
81930W        W46915  44.419  27.108   5.004
81931W        W46916  44.849  19.303   1.919
81932W        W46917  27.491  14.863   2.752
81933W        W46918  32.627  33.483   0.616
81934W        W46919  28.741   5.837  11.628
81935W        W46920  28.652   9.609  11.455
81936W        W46921  14.543  21.038   3.843
81937W        W46922  12.922  13.752   4.585
81938W        W46923  34.393   0.235   4.024
81939W        W46924  14.916  41.397   5.480
81940W        W46925  13.683  16.810  10.534
81941W        W46926  15.812   2.022   1.552
81942W        W46927  11.198  24.756  11.827
81943W        W46928  29.186  31.593  11.175
81944W        W46929  44.568  41.300  10.762
81945W        W46930  23.221   0.446  13.520
81946W        W46931  35.936  26.625  13.028
81947W        W46932  31.665   3.415   2.411
81948W        W46933   3.399   9.014   0.829
81949W        W46934   0.551  23.302  13.268
81950W        W46935  10.663  27.090  11.854
81951W        W46936   2.447   5.636   1.918
81952W        W46937  30.193   6.858  13.281
81953W        W46938  24.100  16.463   3.235
81954W        W46939  32.377   7.392  13.346
81955W        W46940  26.025   2.864   0.454
81956W        W46941  21.727  33.615  11.610
81957W        W46942  32.076  19.586   2.868
81958W        W46943  37.353  29.931  12.977
81959W        W46944  14.323  22.926   3.744
81960W        W46945  12.130  26.870   0.179
81961W        W46946  26.353   7.979  13.277
81962W        W46947  30.101  39.463   4.609
81963W        W46948   0.272  27.556   2.487
81964W        W46949  42.952  20.159   3.438
81965W        W46950   2.110  26.137  12.116
81966W        W46951   7.761   1.899   3.320
81967W        W46952  39.357   4.924  14.921
81968W        W46953  41.886  14.661   0.369
81969W        W46954  10.867  33.234   4.599
81970W        W46955  41.414   3.753  12.655
81971W        W46956  40.495  42.941   4.599
81972W        W46957  12.763  44.303  11.537
81973W        W46958  23.917   9.819   2.148
81974W        W46959  19.383  39.881   2.354
81975W        W46960   1.339  31.499  12.034
81976W        W46961  29.378  38.026   0.248
81977W        W46962  21.809  39.308  12.864
81978W        W46963  28.443   5.439   1.213
81979W        W46964  40.324  35.183  14.921
81980W        W46965   3.768  35.763  13.363
81981W        W46966  11.396   3.380   0.884
81982W        W46967  23.975  28.479  11.617
81983W        W46968  28.904  28.074   3.090
81984W        W46969  40.402  13.603   1.371
81985W        W46970  14.916  33.794   3.078
81986W        W46971  14.494  12.813  12.079
81987W        W46972  25.284  37.587  11.706
81988W        W46973  10.920   8.327  12.157
81989W        W46974   3.360   6.344   1.751
81990W        W46975  41.014  30.666  13.955
81991W        W46976  18.974  34.529   4.333
81992W        W46977   7.665  43.889   0.894
81993W        W46978   2.643  44.131   0.372
81994W        W46979  36.848  37.470   0.805
81995W        W46980   0.996   4.209   4.548
81996W        W46981  25.286  21.147  13.904
81997W        W46982   1.279   1.961  11.688
81998W        W46983   6.554  15.308  10.939
81999W        W46984  12.042  35.089  11.694
82000W        W46985  36.965   6.258  12.548
82001W        W46986   7.482  24.106  13.024
82002W        W46987  18.742   2.396   0.986
82003W        W46988  37.079  33.509  13.938
82004W        W46989  16.290  18.101  13.993
82005W        W46990   8.077  32.336  13.615
82006W        W46991  24.407   9.846   3.094
82007W        W46992   2.076  34.441   1.844
82008W        W46993  42.061  20.565  11.675
82009W        W46994  11.674  29.866  13.851
82010W        W46995  29.082  38.688  14.760
82011W        W46996  22.709  43.341   3.708
82012W        W46997  11.905  43.917  12.074
82013W        W46998  13.673  41.667   3.046
82014W        W46999  39.542  29.031   3.111
82015W        W47000   8.424  24.021   0.400
82016W        W47001   1.235  30.116  13.837
82017W        W47002   2.249   2.719  12.980
82018W        W47003  36.457  27.140  14.909
82019W        W47004  23.028  30.037  13.744
82020W        W47005  19.312  10.370   0.158
82021W        W47006  29.369   8.200  11.679
82022W        W47007  30.051  29.716  11.823
82023W        W47008  17.935  22.662  11.538
82024W        W47009  31.383  17.648  14.479
82025W        W47010  23.471   3.997   2.245
82026W        W47011  10.769  18.965  13.948
82027W        W47012  34.065  19.694   1.277
82028W        W47013  15.351   7.081   2.206
82029W        W47014  15.723  18.292   1.214
82030W        W47015   6.070  43.248  10.693
82031W        W47016  18.539  23.141   3.282
82032W        W47017  16.372  12.354  11.674
82033W        W47018  40.695  17.112   3.113
82034W        W47019  27.994  40.896   1.239
82035W        W47020  27.494   6.210  13.512
82036W        W47021   2.567  17.893   2.791
82037W        W47022  27.724  24.748   4.185
82038W        W47023  42.338  27.021   1.874
82039W        W47024  31.934  37.126  10.578
82040W        W47025  42.366  35.163  13.943
82041W        W47026  39.430   6.932   0.683
82042W        W47027  37.339  25.163   4.823
82043W        W47028  11.867   1.506   0.282
82044W        W47029  43.772  23.764   3.188
82045W        W47030  40.068  18.626   3.488
82046W        W47031  41.079   0.244   2.254
82047W        W47032  25.982  44.141  12.100
82048W        W47033  18.149  43.182   3.892
82049W        W47034   9.288  44.148  12.923
82050W        W47035  17.679   0.701  12.047
82051W        W47036  25.844  22.906   0.786
82052W        W47037  39.503  34.054  11.645
82053W        W47038  32.623  20.002   3.677
82054W        W47039  21.048  25.402  14.523
82055W        W47040  42.324  10.864  14.248
82056W        W47041  32.727  10.955   1.113
82057W        W47042  29.651   0.396   0.351
82058W        W47043  44.888   4.791  11.705
82059W        W47044  24.414  37.440   4.180
82060W        W47045  30.665  24.143  10.409
82061W        W47046  41.392  41.804   0.111
82062W        W47047   5.742  24.059   2.514
82063W        W47048  21.310  18.072   4.146
82064W        W47049  36.389  19.789  13.573
82065W        W47050  10.332  36.128  12.155
82066W        W47051   2.961   3.563  11.614
82067W        W47052  18.236   3.928   2.473
82068W        W47053  17.151  44.575  11.234
82069W        W47054  18.133   7.896  10.920
82070W        W47055  43.491  40.036   0.452
82071W        W47056  35.899  29.002   4.498
82072W        W47057  44.557   3.382  13.871
82073W        W47058  12.633  27.129  12.456
82074W        W47059  16.770  44.490  14.431
82075W        W47060  24.239   7.717   0.769
82076W        W47061  43.490   3.824  10.677
82077W        W47062   1.066  33.612   3.265
82078W        W47063  40.447  30.093  12.046
82079W        W47064   0.837  10.282   2.773
82080W        W47065   7.418   5.099  10.203
82081W        W47066  41.973   6.866  12.612
82082W        W47067  43.032   9.900  13.587
82083W        W47068  19.366  35.548   2.781
82084W        W47069  23.969   9.333   3.811
82085W        W47070  37.889   9.369  13.945
82086W        W47071  27.065  35.109   4.919
82087W        W47072  15.344  38.670  14.027
82088W        W47073   6.747  26.080   1.855
82089W        W47074   3.497  18.611   3.593
82090W        W47075  31.171  29.064  12.976
82091W        W47076  40.407  12.255   2.632
82092W        W47077  39.628  20.461  10.487
82093W        W47078  30.630   6.362   1.851
82094W        W47079  42.754  15.616   4.173
82095W        W47080  33.418  17.250   5.084
82096W        W47081  36.095  26.443  12.192
82097W        W47082  17.564  42.663   0.140
82098W        W47083   5.148  39.081  14.787
82099W        W47084  23.917  38.914   3.149
82100W        W47085  10.723  43.380   3.756
82101W        W47086  43.559  16.777  13.348
82102W        W47087  34.473  44.502   2.942
82103W        W47088  11.402  10.146  12.804
82104W        W47089   1.347  16.694  14.793
82105W        W47090   5.997   9.356   1.956
82106W        W47091  27.464  42.203   3.235
82107W        W47092   6.249  31.085  14.118
82108W        W47093  30.878  18.866  10.587
82109W        W47094   0.332   5.638   4.552
82110W        W47095   0.892  42.790   1.021
82111W        W47096  14.108  22.711   2.646
82112W        W47097  30.924  33.947   2.337
82113W        W47098  12.904  36.980   2.884
82114W        W47099  18.605  37.331  10.252
82115W        W47100  21.113   7.835   2.925
82116W        W47101  14.641  17.668   4.015
82117W        W47102  43.886  41.244  12.607
82118W        W47103  36.967  44.425   4.622
82119W        W47104  20.328   0.982   3.088
82120W        W47105  26.893  22.416  14.280
82121W        W47106  11.802   7.961   1.887
82122W        W47107   8.361  37.363   1.216
82123W        W47108  10.260   7.553   2.737
82124W        W47109  22.402  27.526   1.229
82125W        W47110  37.932  28.304  12.582
82126W        W47111   1.149  28.703  12.819
82127W        W47112   4.316  10.359  13.389
82128W        W47113  25.893   2.985  14.060
82129W        W47114  21.800   0.411   2.749
82130W        W47115  31.140   6.126   4.977
82131W        W47116  26.615  39.753  12.024
82132W        W47117  38.399  18.117  10.950
82133W        W47118  42.346   4.122   2.105
82134W        W47119  42.450  13.354  14.161
82135W        W47120  19.985   2.341   3.156
82136W        W47121  19.750  44.379   0.725
82137W        W47122   4.217  12.368   3.116
82138W        W47123   0.855  16.859   3.345
82139W        W47124   3.888  26.501   1.784
82140W        W47125   2.123  15.887  12.074
82141W        W47126  16.865  35.457   4.071
82142W        W47127  27.966   3.647  14.006
82143W        W47128   8.432   9.382  12.435
82144W        W47129   5.253  44.215  11.917
82145W        W47130   6.210  33.606   3.316
82146W        W47131  35.169   3.953  11.090
82147W        W47132  30.415   5.208  12.765
82148W        W47133  44.788  19.222   0.795
82149W        W47134  21.914   2.274  14.997
82150W        W47135  11.873  17.266   0.518
82151W        W47136  13.419   6.286  11.450
82152W        W47137  12.238  18.907  12.835
82153W        W47138  25.217  11.222   0.392
82154W        W47139  16.472   2.421  14.582
82155W        W47140  36.961  43.883   4.534
82156W        W47141  14.901  41.792   4.026
82157W        W47142  41.264  27.976   0.766
82158W        W47143  34.110   7.971  13.490
82159W        W47144   4.196  18.550   4.082
82160W        W47145  35.377  30.489   0.774
82161W        W47146  29.012  31.550  13.590
82162W        W47147  10.729  19.021   1.432
82163W        W47148  38.142  40.545   0.790
82164W        W47149  21.329  35.503  10.562
82165W        W47150  28.929  10.933  12.623
82166W        W47151   7.653  12.077  12.368
82167W        W47152   6.981   1.466   0.413
82168W        W47153   3.902   7.607   2.282
82169W        W47154  27.192  32.407   3.768
82170W        W47155  15.054  38.852   1.722
82171W        W47156  16.865  29.013   0.868
82172W        W47157  34.602   9.165  13.234
82173W        W47158   2.985   0.242  11.086
82174W        W47159  18.714  42.973   4.619
82175W        W47160   5.904  29.048   2.453
82176W        W47161  28.418  42.726   0.313
82177W        W47162   6.716  26.035   2.372
82178W        W47163  31.585   1.006  12.314
82179W        W47164  17.023  17.922  14.435
82180W        W47165  37.295  25.104  13.825
82181W        W47166  31.545  26.612  10.271
82182W        W47167  28.721  13.114   2.292
82183W        W47168  35.157   8.822   0.242
82184W        W47169  15.287   9.412  11.043
82185W        W47170  15.205  17.828   0.636
82186W        W47171  24.025  31.475   4.765
82187W        W47172  16.060  40.997  11.517
82188W        W47173  39.429  39.209  10.756
82189W        W47174   4.938  36.381  10.663
82190W        W47175  35.400  13.042  14.327
82191W        W47176  15.304  14.150   1.839
82192W        W47177  24.618   8.888  11.455
82193W        W47178  40.557  20.286  13.382
82194W        W47179  28.131  24.070   3.781
82195W        W47180  41.385  39.967  10.741
82196W        W47181  44.889  30.346  12.121
82197W        W47182  37.398  43.285  13.334
82198W        W47183  35.028  32.162  12.201
82199W        W47184  30.943  29.981   1.444
82200W        W47185  18.283  33.765   3.416
82201W        W47186  10.735  23.022  11.349
82202W        W47187   0.901  14.564   0.623
82203W        W47188  24.754  15.228   4.311
82204W        W47189  35.359  44.093   1.495
82205W        W47190  42.281  19.056  13.766
82206W        W47191   6.129  35.896  11.737
82207W        W47192  23.821   4.720   3.590
82208W        W47193   2.687   7.771   2.885
82209W        W47194  40.223  38.487   0.681
82210W        W47195   6.711  34.959   0.701
82211W        W47196   2.805  37.367   2.601
82212W        W47197  12.294  15.143   4.621
82213W        W47198   4.317  30.112   3.694
82214W        W47199  41.473  23.973   4.851
82215W        W47200   7.688  24.141   3.650
82216W        W47201  37.295  36.341   0.268
82217W        W47202  22.825  13.172   4.164
82218W        W47203   1.813  12.593   2.708
82219W        W47204  27.480  18.102  11.488
82220W        W47205   0.302   4.686  11.414
82221W        W47206   3.771  40.542  13.036
82222W        W47207  35.167   2.362   3.663
82223W        W47208  29.954   1.582  12.439
82224W        W47209  37.499  42.598   0.183
82225W        W47210  13.190  16.052   0.456
82226W        W47211  23.888  37.186  12.565
82227W        W47212  30.114  12.386   4.654
82228W        W47213  34.290  19.893  11.728
82229W        W47214  34.891  35.965  14.973
82230W        W47215  17.139  35.041   1.445
82231W        W47216  40.256  39.290   3.366
82232W        W47217  42.938  42.424   3.609
82233W        W47218  39.615  27.925   3.560
82234W        W47219   9.659  31.450  13.047
82235W        W47220  30.195  26.738   4.097
82236W        W47221  31.363   3.827   2.385
82237W        W47222  17.355  39.997   0.743
82238W        W47223  44.546   9.745  12.004
82239W        W47224   9.460  27.372  11.115
82240W        W47225  30.540  38.489   2.779
82241W        W47226  18.444  13.247  12.640
82242W        W47227  27.472  31.620  12.061
82243W        W47228  26.226  33.577  13.994
82244W        W47229  22.553   8.289   1.304
82245W        W47230  29.946   1.146  14.867
82246W        W47231   3.019  17.676   4.383
82247W        W47232  21.549  35.840  14.319
82248W        W47233  12.409   5.330   1.299
82249W        W47234  44.364  43.816   3.803
82250W        W47235   8.607  31.616  13.986
82251W        W47236  33.602  17.097   4.216
82252W        W47237  19.637  36.583   4.261
82253W        W47238   2.589  19.803  11.747
82254W        W47239  19.336  25.646  11.950
82255W        W47240  35.976  20.249  12.509
82256W        W47241  21.765  14.519  14.667
82257W        W47242  23.690   8.237   4.112
82258W        W47243   9.736   4.018   1.784
82259W        W47244  43.414  38.759   1.703
82260W        W47245   2.160  31.093  12.050
82261W        W47246  16.300  36.847  11.235
82262W        W47247  36.560  31.643   4.595
82263W        W47248  23.179  42.329   2.236
82264W        W47249  39.520  12.596   1.371
82265W        W47250   4.277  36.844   3.274
82266W        W47251  15.144   7.591   2.332
82267W        W47252  44.419   1.784   1.715
82268W        W47253  31.144  22.758  10.522
82269W        W47254  44.858  11.693   2.887
82270W        W47255  31.643  44.621  11.674
82271W        W47256   7.328  19.898  10.486
82272W        W47257  12.299  12.595  12.971
82273W        W47258  44.002  39.801  13.928
82274W        W47259  44.381  17.030  14.783
82275W        W47260  19.120  12.983   3.122
82276W        W47261  33.071  44.903   5.125
82277W        W47262  21.190  36.063   4.687
82278W        W47263  29.727  24.651  13.744
82279W        W47264  11.671  37.369  14.519
82280W        W47265  15.759  22.937   1.852
82281W        W47266   2.689  24.675  12.751
82282W        W47267  27.265  38.085  10.955
82283W        W47268  13.503  34.409  14.865
82284W        W47269  37.364   3.755  14.400
82285W        W47270  38.397  39.987  14.939
82286W        W47271  19.277  21.605   3.609
82287W        W47272  38.917  29.833  14.373
82288W        W47273  12.782  31.531  11.377
82289W        W47274  23.712   6.001   3.603
82290W        W47275  25.567  33.832  13.465
82291W        W47276  15.520  35.474  14.539
82292W        W47277  19.824  42.719  13.433
82293W        W47278  24.508  34.424   0.292
82294W        W47279   0.779   3.242  10.771
82295W        W47280  34.641  21.505   0.471
82296W        W47281  14.409   4.299   0.520
82297W        W47282   9.783  19.045   3.872
82298W        W47283  36.476  25.154   0.736
82299W        W47284  25.129  24.960  10.984
82300W        W47285   4.002  15.572   4.383
82301W        W47286  22.753  16.142  14.574
82302W        W47287   5.597  20.265  11.084
82303W        W47288  12.796  21.200  14.268
82304W        W47289  22.195  16.988  14.949
82305W        W47290  44.015   6.402  12.309
82306W        W47291  40.464  20.759  13.872
82307W        W47292  30.773  27.023   1.379
82308W        W47293  17.121   9.912   2.591
82309W        W47294  31.472  17.177   2.793
82310W        W47295  25.963   2.484  13.890
82311W        W47296  22.433  15.774  14.318
82312W        W47297  30.094  19.248  13.738
82313W        W47298  32.501  29.496   4.743
82314W        W47299  23.592   6.224   4.253
82315W        W47300  17.286  37.377   3.583
82316W        W47301   8.132  35.313  13.253
82317W        W47302  15.120  12.058   0.297
82318W        W47303   8.261   2.896  12.037
82319W        W47304  18.799  18.073  10.796
82320W        W47305  15.752  17.359   4.112
82321W        W47306  44.082  33.522   4.764
82322W        W47307  38.443  22.657   4.012
82323W        W47308  12.324  33.232  12.472
82324W        W47309  29.973  19.955  14.943
82325W        W47310  23.345   3.758  12.543
82326W        W47311   0.551   0.987   3.511
82327W        W47312  39.128  10.155   2.723
82328W        W47313  39.905   6.287  12.071
82329W        W47314  17.696   9.589   5.787
82330W        W47315  19.987  16.830  13.739
82331W        W47316  34.727  27.639   4.197
82332W        W47317  32.914  23.625  13.736
82333W        W47318  42.566  31.126   3.246
82334W        W47319  43.038   7.726   4.173
82335W        W47320  38.397  28.422  11.225
82336W        W47321  18.541  42.312  11.706
82337W        W47322   2.300   4.345  13.424
82338W        W47323  14.075  30.348   2.381
82339W        W47324  28.556  22.214   2.397
82340W        W47325  32.403  35.093  14.285
82341W        W47326   9.490  17.750   3.513
82342W        W47327  13.142  36.943  11.968
82343W        W47328   7.802  31.520   0.638
82344W        W47329  43.727  43.764  12.908
82345W        W47330  34.277  35.871   0.562
82346W        W47331  31.215  25.975   4.522
82347W        W47332  20.014  20.978   1.847
82348W        W47333  29.734  29.537   4.651
82349W        W47334  33.044  21.837  11.927
82350W        W47335  32.136  29.500   3.386
82351W        W47336  28.612  26.658   3.871
82352W        W47337  15.119   5.913  12.246
82353W        W47338  15.644  31.577  14.994
82354W        W47339  10.615  31.534   0.426
82355W        W47340   2.182   9.865   3.800
82356W        W47341  31.430  29.339  13.391
82357W        W47342  20.159  31.255  11.158
82358W        W47343  22.063   7.181  12.712
82359W        W47344  42.546  40.312  12.111
82360W        W47345   6.736  27.824   3.728
82361W        W47346  25.452  43.266   2.869
82362W        W47347  31.605  19.952   3.136
82363W        W47348   5.953  13.291  14.371
82364W        W47349   6.185  10.147  11.649
82365W        W47350  42.577  18.258  13.435
82366W        W47351  20.629  43.445  14.424
82367W        W47352  36.974   1.823   4.249
82368W        W47353  31.003   3.210  14.673
82369W        W47354  42.069  35.704   1.588
82370W        W47355  16.204   7.825  14.743
82371W        W47356  26.864  40.613  11.628
82372W        W47357   8.126  20.180   2.602
82373W        W47358  12.590  29.027  11.499
82374W        W47359   1.959  20.069   0.731
82375W        W47360   5.220   5.325   1.462
82376W        W47361  31.934  37.357  14.817
82377W        W47362  19.520   9.723   3.608
82378W        W47363   3.913  36.360   4.543
82379W        W47364  31.967  22.919  11.182
82380W        W47365  31.159  40.561   0.961
82381W        W47366  35.178  19.823   1.335
82382W        W47367   4.541  38.432   2.552
82383W        W47368  30.915  20.722  10.376
82384W        W47369  23.734  35.666   0.933
82385W        W47370   3.633   1.347   0.734
82386W        W47371   3.297  33.050   4.604
82387W        W47372   7.361  17.505   2.115
82388W        W47373  39.858  43.157   0.396
82389W        W47374  31.437   9.774  11.240
82390W        W47375  18.927  35.200   2.788
82391W        W47376   1.564  42.729  11.647
82392W        W47377  22.048  17.209  11.437
82393W        W47378   8.209  27.429  12.415
82394W        W47379  21.714  37.679   4.606
82395W        W47380  13.767  13.227   0.290
82396W        W47381  34.895   3.407  13.312
82397W        W47382  15.044  18.303   2.860
82398W        W47383  43.373  14.864  13.410
82399W        W47384  15.096  14.097   2.727
82400W        W47385   1.440  19.555   2.090
82401W        W47386   1.803  30.325   0.377
82402W        W47387  20.522  28.949   2.329
82403W        W47388  10.132  37.392  10.745
82404W        W47389  41.062  29.615   0.652
82405W        W47390   4.604  26.103  13.021
82406W        W47391  35.422   4.898   1.217
82407W        W47392  26.935  20.140  12.218
82408W        W47393  23.104  26.264   0.156
82409W        W47394   1.546  32.490   0.841
82410W        W47395  19.571  39.589  12.440
82411W        W47396  41.806  33.283  13.302
82412W        W47397  15.154   3.219  14.526
82413W        W47398   5.742   6.501  12.105
82414W        W47399  43.862  12.691  11.391
82415W        W47400  44.967  20.492  14.375
82416W        W47401   0.817  27.496   2.923
82417W        W47402   2.805   6.396   1.452
82418W        W47403   5.987  40.592   0.859
82419W        W47404   9.647   3.057  11.457
82420W        W47405  21.099  43.069   2.732
82421W        W47406  37.387  10.023  10.997
82422W        W47407  30.563  27.909  14.881
82423W        W47408  37.871  43.821  10.727
82424W        W47409  42.401  26.662   2.238
82425W        W47410  16.619   6.469   0.363
82426W        W47411  18.126  19.018   3.164
82427W        W47412   2.775  30.197  13.808
82428W        W47413   1.733  43.567  13.558
82429W        W47414  36.529  16.106  14.770
82430W        W47415  20.117  36.562   2.401
82431W        W47416  27.164  17.823   3.585
82432W        W47417  27.006   3.428  13.559
82433W        W47418  20.642  21.297  14.027
82434W        W47419  24.544  22.129   1.714
82435W        W47420  24.956  17.519  14.553
82436W        W47421   2.220  20.171   1.171
82437W        W47422  24.425  18.841   0.866
82438W        W47423  17.703   8.714   1.311
82439W        W47424   5.627  21.775   0.447
82440W        W47425  15.480  42.237   2.302
82441W        W47426   5.510  19.090   1.856
82442W        W47427   1.683  13.987  10.665
82443W        W47428  18.893  41.774  11.154
82444W        W47429  35.936   4.954   1.319
82445W        W47430   9.937  28.322   0.467
82446W        W47431  18.274  42.482  10.863
82447W        W47432   2.482  40.103   2.072
82448W        W47433  34.551  27.499   2.411
82449W        W47434  18.685  44.339   5.024
82450W        W47435  30.720  23.793  11.216
82451W        W47436  12.546   6.413  14.054
82452W        W47437   9.792   2.328  12.526
82453W        W47438  36.446  39.619  12.843
82454W        W47439   5.920  15.548   1.029
82455W        W47440  20.513  41.359   3.803
82456W        W47441   8.720  31.629   1.602
82457W        W47442  18.267  42.914   3.432
82458W        W47443  22.998  43.558   1.707
82459W        W47444   9.874  42.368   4.114
82460W        W47445   9.525  34.952   2.223
82461W        W47446  10.820  14.859   0.448
82462W        W47447   0.791  41.875   0.101
82463W        W47448  43.015   2.207   0.116
82464W        W47449  20.024  44.976   3.167
82465W        W47450  44.213  16.265  12.015
82466W        W47451  33.752  36.041  10.994
82467W        W47452  26.115   3.940   3.040
82468W        W47453  40.107  41.927   2.835
82469W        W47454  38.050  15.068  10.914
82470W        W47455  24.594  31.202   0.439
82471W        W47456  12.359  18.710   4.634
82472W        W47457  44.562   2.892   2.928
82473W        W47458  14.348   0.331   0.279
82474W        W47459  13.543  15.754   4.639
82475W        W47460  32.479  12.973   0.407
82476W        W47461  15.144  22.939  10.730
82477W        W47462  23.685  13.662   3.246
82478W        W47463   7.777  36.381   3.192
82479W        W47464  32.485  43.759  11.902
82480W        W47465  12.604   2.403   2.200
82481W        W47466   4.432   8.170  11.882
82482W        W47467   1.819  19.764   2.857
82483W        W47468   8.601  32.358   0.947
82484W        W47469  40.375  23.873   9.823
82485W        W47470  22.776  18.262  11.933
82486W        W47471  24.145  13.018   1.936
82487W        W47472   9.844  38.359  10.762
82488W        W47473  33.880   4.841  14.009
82489W        W47474   8.270  21.033   2.618
82490W        W47475  23.823  35.839  10.941
82491W        W47476  17.046  35.456  14.347
82492W        W47477  29.850  32.423  13.471
82493W        W47478  18.303  28.307   4.622
82494W        W47479  38.370   3.708   2.304
82495W        W47480  44.279  43.763   5.128
82496W        W47481  34.440  38.566   2.378
82497W        W47482   2.177  41.573  14.323
82498W        W47483  23.511  43.783   1.948
82499W        W47484  42.198  33.502  11.123
82500W        W47485  30.213  44.135   0.360
82501W        W47486  32.755  22.270   4.282
82502W        W47487  16.274  16.662   1.044
82503W        W47488  12.115   1.514  13.527
82504W        W47489  42.364  39.818   4.657
82505W        W47490  12.726  24.487  13.356
82506W        W47491  36.406  30.451   1.990
82507W        W47492  36.472  37.610  14.459
82508W        W47493  17.496  44.889   2.950
82509W        W47494  36.100  13.911  14.804
82510W        W47495  34.835  31.014   3.913
82511W        W47496   5.843  18.599  10.790
82512W        W47497  13.241   7.733  13.444
82513W        W47498  23.904   3.335  14.852
82514W        W47499  14.815  12.376  14.380
82515W        W47500  35.203   1.056   1.392
82516W        W47501  14.213  24.966  14.394
82517W        W47502  29.929  12.096  12.335
82518W        W47503   0.990  35.048  13.398
82519W        W47504  11.064  25.619  13.566
82520W        W47505  35.135  14.627   2.192
82521W        W47506   0.430   7.990   3.309
82522W        W47507  22.020   1.923  12.784
82523W        W47508  31.562  23.413   1.322
82524W        W47509  22.985   6.962   3.304
82525W        W47510  29.267  41.593   0.185
82526W        W47511  36.997  25.921  12.036
82527W        W47512  34.600  25.502   4.935
82528W        W47513   3.966  22.753  12.926
82529W        W47514   7.844  10.585   0.777
82530W        W47515  40.947   5.162  10.723
82531W        W47516   8.763  35.969   2.417
82532W        W47517  37.416  17.535  12.330
82533W        W47518  36.006  42.274  12.603
82534W        W47519  15.519  32.300  14.046
82535W        W47520  39.100  24.690  10.827
82536W        W47521  41.315  33.441   5.385
82537W        W47522  36.965  41.341  12.121
82538W        W47523  40.820  19.095  11.907
82539W        W47524  22.703  30.149   2.979
82540W        W47525   5.494  10.919   2.220
82541W        W47526   7.686  12.571  13.544
82542W        W47527  21.058  27.204   2.622
82543W        W47528  26.933  43.452   2.749
82544W        W47529  43.006  32.035   2.282
82545W        W47530  41.627  11.339   4.052
82546W        W47531  26.610   5.345   1.911
82547W        W47532  36.156   3.164   3.626
82548W        W47533  13.377  10.086  14.775
82549W        W47534  10.282  31.472   2.891
82550W        W47535   3.193  38.039  12.396
82551W        W47536  13.200  13.075   2.770
82552W        W47537  44.829   5.196   2.323
82553W        W47538  15.769  22.977  12.625
82554W        W47539   4.292  33.318  10.537
82555W        W47540  43.894  29.345   2.745
82556W        W47541  17.649  15.574  14.582
82557W        W47542  17.137  29.701  13.750
82558W        W47543   3.298  11.614   5.039
82559W        W47544   2.499  30.981  14.267
82560W        W47545  30.127  25.303   2.697
82561W        W47546   7.953  22.169  14.494
82562W        W47547  31.894  44.778   4.377
82563W        W47548   8.362  34.575  14.955
82564W        W47549  37.950  34.480  10.706
82565W        W47550   1.839   0.977   2.680
82566W        W47551  17.621  13.807  12.679
82567W        W47552  12.749  11.098   1.944
82568W        W47553  41.546  25.069  12.857
82569W        W47554  39.837  12.737  13.826
82570W        W47555  23.138   2.293  11.702
82571W        W47556  36.129   5.302  13.514
82572W        W47557  13.063   2.564   3.300
82573W        W47558  39.005  16.753   2.798
82574W        W47559  12.865  19.525   1.234
82575W        W47560  33.667  31.130   2.974
82576W        W47561  24.596  43.312  11.989
82577W        W47562  19.876  31.742  10.449
82578W        W47563  32.825  22.116   3.425
82579W        W47564  41.477  17.129   1.322
82580W        W47565   3.429   1.989   1.349
82581W        W47566  34.364  41.613  12.523
82582W        W47567  43.226  42.454   4.833
82583W        W47568   9.920  14.071  13.623
82584W        W47569  42.263  35.712  12.079
82585W        W47570  38.032  28.039  14.371
82586W        W47571  42.734   3.404  13.448
82587W        W47572  14.881  21.318  14.864
82588W        W47573  41.392   2.809   0.282
82589W        W47574  10.040  31.461  12.020
82590W        W47575  19.142  32.397  12.018
82591W        W47576  16.590  17.710  14.212
82592W        W47577  23.429  42.750  13.482
82593W        W47578   6.665  19.100  11.951
82594W        W47579  25.230   9.349   2.344
82595W        W47580  14.664  15.660  12.467
82596W        W47581  21.511  31.092  11.555
82597W        W47582   6.925   2.699  10.938
82598W        W47583  38.842  27.944  14.406
82599W        W47584  33.106  30.369  14.435
82600W        W47585   5.224   4.570  10.707
82601W        W47586  18.808  12.696   4.002
82602W        W47587  28.658  36.820  12.854
82603W        W47588  30.955  12.813  11.509
82604W        W47589  42.511  26.702  14.305
82605W        W47590  43.527  44.841  13.710
82606W        W47591   0.476   4.337  13.877
82607W        W47592  15.354  37.238  12.595
82608W        W47593  12.005  32.551  13.106
82609W        W47594  41.456  30.835   0.920
82610W        W47595   9.355  13.881  11.571
82611W        W47596  24.284  37.416   0.316
82612W        W47597  18.397   8.405  12.837
82613W        W47598  10.349   8.015  12.566
82614W        W47599  36.470   8.623  13.443
82615W        W47600   4.216  41.263  14.436
82616W        W47601   9.058  32.207  11.970
82617W        W47602  22.803  24.060   2.421
82618W        W47603  22.555  25.443   0.795
82619W        W47604   6.633  36.873   2.352
82620W        W47605   3.503  35.134   2.264
82621W        W47606  24.851   2.130   0.995
82622W        W47607  21.921  44.442   2.369
82623W        W47608  38.166  30.057   2.919
82624W        W47609  31.414   6.667   3.795
82625W        W47610   2.764   9.176   3.674
82626W        W47611  20.504  44.369  10.555
82627W        W47612   2.673  14.218   2.355
82628W        W47613  22.027  27.987  10.725
82629W        W47614  39.732  11.209   4.811
82630W        W47615  37.871  25.003   5.040
82631W        W47616  10.292   4.836   2.856
82632W        W47617  22.629   9.906   9.989
82633W        W47618   2.187  39.027  14.758
82634W        W47619  27.083  38.534  10.603
82635W        W47620  11.578  34.571   3.792
82636W        W47621  41.938  27.658  13.446
82637W        W47622   4.141  16.009   2.527
82638W        W47623  10.186  15.075   4.216
82639W        W47624  27.661   9.686   1.312
82640W        W47625  44.509  36.481  13.938
82641W        W47626  26.647  14.523   0.248
82642W        W47627   7.734  21.062   4.617
82643W        W47628  27.052  34.629  10.393
82644W        W47629  12.911  22.136   3.575
82645W        W47630  36.754  27.076  13.211
82646W        W47631  18.775  33.192  10.898
82647W        W47632   4.844  21.580  10.449
82648W        W47633  28.635  16.611   1.748
82649W        W47634  28.004   9.743   1.756
82650W        W47635  37.775  13.504  14.350
82651W        W47636  10.231  40.484  14.053
82652W        W47637  38.492   5.425   4.193
82653W        W47638  39.301  18.080  12.123
82654W        W47639  41.578  10.705  13.615
82655W        W47640  11.172  26.224   3.263
82656W        W47641  14.338  22.164  12.387
82657W        W47642  31.801  24.994   0.465
82658W        W47643  44.054  28.345   1.223
82659W        W47644   0.685  38.373   0.922
82660W        W47645  19.716  35.536   3.155
82661W        W47646  36.634  35.549   3.439
82662W        W47647  21.279  15.930   1.901
82663W        W47648  36.562  42.863  11.573
82664W        W47649  21.604  23.339   2.956
82665W        W47650  16.363  35.460   4.174
82666W        W47651  25.144  33.173  14.732
82667W        W47652   7.989  16.091   4.675
82668W        W47653  32.676  22.288  13.468
82669W        W47654  30.855  18.637  11.837
82670W        W47655  44.869   7.684  10.329
82671W        W47656  34.871  35.374   2.926
82672W        W47657  19.874   6.588   9.889
82673W        W47658  43.316  31.461   1.493
82674W        W47659  24.116  17.022   3.300
82675W        W47660  15.857  21.189  14.028
82676W        W47661  13.496   1.315   1.342
82677W        W47662   6.257  10.275  10.268
82678W        W47663   1.702   3.763  14.623
82679W        W47664  13.170  14.213  14.782
82680W        W47665  29.610  23.289   4.197
82681W        W47666   3.233  13.667   4.639
82682W        W47667  38.894  34.537  10.283
82683W        W47668  29.671  41.596  12.495
82684W        W47669  18.916   0.319   3.302
82685W        W47670   0.221  10.609   1.163
82686W        W47671   4.649   7.677   0.351
82687W        W47672  32.208  22.567   2.858
82688W        W47673   3.937  26.033   4.886
82689W        W47674  34.171  37.987   3.174
82690W        W47675  40.482  44.067   4.727
82691W        W47676   8.159  14.122   1.443
82692W        W47677  32.342  36.623  11.104
82693W        W47678  33.541  33.849   0.784
82694W        W47679  25.382  22.673   2.571
82695W        W47680  40.598  24.901  12.994
82696W        W47681   0.405  41.063  14.323
82697W        W47682   1.909  38.631  11.175
82698W        W47683  35.923  11.755  12.354
82699W        W47684   6.527  42.491  12.199
82700W        W47685  42.687  44.710  11.131
82701W        W47686  43.102  16.519  13.403
82702W        W47687  33.145  43.529   1.437
82703W        W47688  40.558  39.038  12.433
82704W        W47689  16.227  30.950  13.478
82705W        W47690  32.125  20.185  14.923
82706W        W47691  19.072  12.777   2.629
82707W        W47692  12.292  40.880  10.718
82708W        W47693  29.922  37.354  12.817
82709W        W47694  27.976  13.307  12.005
82710W        W47695   8.678  13.550  13.002
82711W        W47696   0.218   0.343  12.910
82712W        W47697  21.293  38.210   3.260
82713W        W47698  14.603  40.016   0.307
82714W        W47699  26.175  42.991   3.591
82715W        W47700  25.303   8.108   0.365
82716W        W47701  21.672  14.755   3.183
82717W        W47702   9.059  21.727   2.633
82718W        W47703  30.783  14.905   4.186
82719W        W47704  12.766  12.704  12.794
82720W        W47705  40.740   1.285  10.682
82721W        W47706  43.527  23.121   1.832
82722W        W47707  28.947  37.420   2.243
82723W        W47708  18.889  35.396  13.079
82724W        W47709  37.655   8.843   1.460
82725W        W47710  31.635  32.531  14.514
82726W        W47711   4.754  18.646  14.767
82727W        W47712  34.582  36.938  14.022
82728W        W47713   9.253  26.370  14.629
82729W        W47714  27.294  28.159   1.239
82730W        W47715  42.970   5.893  14.310
82731W        W47716  44.553  23.606  11.616
82732W        W47717  35.656  17.135  10.683
82733W        W47718  24.490  35.555  12.085
82734W        W47719  26.304  27.045  12.574
82735W        W47720  17.374  35.946  12.124
82736W        W47721   5.217  16.569   3.374
82737W        W47722  24.517   1.860   9.720
82738W        W47723  37.800  27.392  12.494
82739W        W47724  39.517   8.901   2.825
82740W        W47725   2.550  17.450  11.616
82741W        W47726   8.909  42.453   0.858
82742W        W47727  24.067   2.045   9.553
82743W        W47728   4.531  38.675   1.177
82744W        W47729  25.981   5.451   2.627
82745W        W47730  25.309  37.792  13.015
82746W        W47731  34.288  30.509   0.836
82747W        W47732   2.689  30.417   0.927
82748W        W47733  17.717  18.705  12.002
82749W        W47734  24.683  13.691  14.726
82750W        W47735  42.820  32.764  13.600
82751W        W47736  12.035  35.565  11.513
82752W        W47737  14.458  13.283   3.852
82753W        W47738  19.728  27.341   3.330
82754W        W47739  41.858  42.481   0.292
82755W        W47740  36.312  15.621   4.576
82756W        W47741  25.232  10.247  10.343
82757W        W47742   1.775  14.729   3.081
82758W        W47743  32.687   1.635  12.755
82759W        W47744  44.852  37.800   9.858
82760W        W47745  33.945   6.806   2.116
82761W        W47746  33.336  21.896   1.748
82762W        W47747   3.001  22.354  11.983
82763W        W47748  17.867   6.526   0.152
82764W        W47749  13.891   8.261  12.193
82765W        W47750  43.909  18.378   1.824
82766W        W47751  18.253   6.257  12.730
82767W        W47752  27.883  41.999  12.362
82768W        W47753  33.445   9.049  12.983
82769W        W47754  42.854  42.766  12.333
82770W        W47755  24.298  12.776  11.636
82771W        W47756  13.065   0.164  14.551
82772W        W47757  44.050  26.986   0.282
82773W        W47758  15.129  37.514  13.417
82774W        W47759  32.043  28.097   0.312
82775W        W47760  12.777  42.423   4.556
82776W        W47761   2.370  41.925  13.578
82777W        W47762   1.277  19.168  13.002
82778W        W47763  27.751   3.452   0.330
82779W        W47764  39.859  16.100   1.882
82780W        W47765   1.287  30.216  11.504
82781W        W47766  44.027  37.630   1.218
82782W        W47767  17.043  25.081   2.235
82783W        W47768  25.176  23.026   0.498
82784W        W47769  35.002  24.924  13.910
82785W        W47770  19.652  28.313   3.263
82786W        W47771  32.211   4.143   4.756
82787W        W47772  37.654  20.136   2.202
82788W        W47773   2.543  12.647   1.345
82789W        W47774  10.565  25.257  12.097
82790W        W47775   3.704  12.791  14.350
82791W        W47776  24.604   6.764  13.087
82792W        W47777  11.877  23.757   2.297
82793W        W47778  14.260  40.096   4.652
82794W        W47779  11.689  22.100   3.167
82795W        W47780  14.268   3.166  13.034
82796W        W47781  38.859  37.629   2.187
82797W        W47782  39.962  14.779   2.229
82798W        W47783  17.290  41.472   4.961
82799W        W47784   0.318  38.908   4.651
82800W        W47785  22.854  19.126   5.106
82801W        W47786  32.340  20.635  14.812
82802W        W47787  38.527   8.727   3.185
82803W        W47788  30.517   6.430  14.429
82804W        W47789   7.222  41.983  10.787
82805W        W47790  32.006   4.178  14.508
82806W        W47791  24.684   9.597   0.833
82807W        W47792  10.806  32.453   1.928
82808W        W47793   5.775  15.685  12.558
82809W        W47794   9.878  10.651  13.895
82810W        W47795  22.718  32.917  12.040
82811W        W47796  30.142  42.958   0.790
82812W        W47797  39.025  22.149   5.109
82813W        W47798  18.833  26.113   3.722
82814W        W47799  34.257   6.431   4.689
82815W        W47800   3.953  13.537   2.606
82816W        W47801   5.823  10.308   4.814
82817W        W47802  15.836  38.374  13.387
82818W        W47803  18.568  34.118  10.465
82819W        W47804  27.644  18.792  10.717
82820W        W47805  26.216  42.915  11.529
82821W        W47806  41.026   1.777  11.875
82822W        W47807  34.021  38.522  12.735
82823W        W47808  37.418   6.307  10.819
82824W        W47809  42.277  21.683   0.742
82825W        W47810   7.778   1.909  10.150
82826W        W47811  20.826   9.352   4.868
82827W        W47812  12.855  28.845  10.708
82828W        W47813  18.820   1.411  14.208
82829W        W47814   9.806  21.990  11.203
82830W        W47815  40.839  27.141  13.095
82831W        W47816  33.801   7.578   4.085
82832W        W47817  27.875   3.776   1.073
82833W        W47818   1.315   7.770   3.112
82834W        W47819   3.347  16.511  13.555
82835W        W47820   7.215  42.285   0.527
82836W        W47821  21.581  38.542  10.638
82837W        W47822  16.699   0.540   1.901
82838W        W47823  28.963  30.279   1.702
82839W        W47824  14.557   9.551   2.937
82840W        W47825  35.102  44.375  11.901
82841W        W47826  27.388  20.129   1.310
82842W        W47827  25.739  43.113  10.718
82843W        W47828  21.412  43.974  10.388
82844W        W47829  41.880  44.895  13.913
82845W        W47830   0.733  19.375   0.959
82846W        W47831  42.862   7.368   0.478
82847W        W47832  38.971  40.940   3.242
82848W        W47833   5.398  27.238  13.826
82849W        W47834  33.180   7.855  12.560
82850W        W47835  41.158   0.609  13.965
82851W        W47836   7.173  16.587   3.187
82852W        W47837  44.312   2.956   4.258
82853W        W47838  40.159  25.662   1.265
82854W        W47839  18.299  26.433  14.423
82855W        W47840  29.394   4.158   0.851
82856W        W47841  23.861  20.561   1.408
82857W        W47842  16.005  16.851  11.521
82858W        W47843   5.239  13.826  11.749
82859W        W47844  18.580  43.267   3.275
82860W        W47845  23.990  17.693   4.732
82861W        W47846  20.577  34.699  11.552
82862W        W47847  38.362  12.694   3.551
82863W        W47848  38.091  36.427   3.759
82864W        W47849   1.504  34.317  13.065
82865W        W47850  28.470  26.944  12.410
82866W        W47851  33.159   2.254   0.897
82867W        W47852  32.658  15.771   0.234
82868W        W47853   8.209  38.474  14.915
82869W        W47854  30.501  41.943   4.573
82870W        W47855  13.340   3.536   0.763
82871W        W47856  17.482  23.543  13.929
82872W        W47857  24.050  21.739   0.858
82873W        W47858  42.354   7.657  11.148
82874W        W47859   8.273  23.648  12.708
82875W        W47860   5.740  18.537  13.431
82876W        W47861  33.391  41.804  11.529
82877W        W47862  36.012  16.825   0.381
82878W        W47863   0.308  33.999  14.003
82879W        W47864  32.895   4.241  10.660
82880W        W47865  11.378  43.752  11.212
82881W        W47866  42.534  36.530   2.549
82882W        W47867   6.290   3.161   2.337
82883W        W47868  35.737  22.740   3.262
82884W        W47869   4.594  11.553  11.106
82885W        W47870  25.797   5.150   1.238
82886W        W47871   0.817  20.911  10.087
82887W        W47872  15.327  30.470  14.315
82888W        W47873  22.933  44.459   3.112
82889W        W47874  17.226  32.720  11.983
82890W        W47875  12.589  16.760   2.435
82891W        W47876  29.451  31.131  10.586
82892W        W47877  36.603  31.208  11.102
82893W        W47878  25.225  11.377  12.873
82894W        W47879  16.143  31.351   4.533
82895W        W47880  38.330  25.183  12.581
82896W        W47881   6.741   0.842   3.162
82897W        W47882  16.746  37.334   0.334
82898W        W47883  21.561  40.451  12.794
82899W        W47884  24.972  15.035  13.522
82900W        W47885  35.546   7.151  13.640
82901W        W47886  41.095  33.061   0.904
82902W        W47887  14.829  34.012   3.567
82903W        W47888  31.400  14.197  13.409
82904W        W47889   4.023   6.741   2.192
82905W        W47890  10.834   9.274  14.415
82906W        W47891  16.069  23.564  12.621
82907W        W47892  12.586  40.298   1.315
82908W        W47893  12.156  36.887   2.154
82909W        W47894  20.483  25.275  13.316
82910W        W47895  23.576  19.926  14.951
82911W        W47896  24.637   3.948  13.803
82912W        W47897  24.792  36.581  12.787
82913W        W47898  39.412   4.453   0.858
82914W        W47899  15.868  27.485  13.534
82915W        W47900  37.575  41.361  13.826
82916W        W47901   9.953  35.318   3.297
82917W        W47902  11.633   8.563   3.220
82918W        W47903  20.941  24.748  12.594
82919W        W47904  12.625  38.055  13.874
82920W        W47905  24.114  41.598   1.964
82921W        W47906   9.199  15.335   3.932
82922W        W47907  35.169   4.474   2.920
82923W        W47908  12.610  23.710  12.172
82924W        W47909  44.261   7.825   2.824
82925W        W47910   2.831  34.648   5.044
82926W        W47911  31.983  18.217   2.604
82927W        W47912  21.695  19.021  11.762
82928W        W47913  20.050   2.734  13.093
82929W        W47914   5.682  26.924   4.137
82930W        W47915  35.029  43.915   0.509
82931W        W47916  25.001  25.110  14.507
82932W        W47917  13.839  29.130  14.044
82933W        W47918  18.818  12.166  11.404
82934W        W47919  17.687   7.920   3.316
82935W        W47920   9.564  41.297   4.846
82936W        W47921  31.530   2.214   3.109
82937W        W47922  33.640  41.035  13.897
82938W        W47923  28.285  27.942   1.463
82939W        W47924  28.272   2.474   1.237
82940W        W47925   8.464  41.033  12.430
82941W        W47926  34.082  25.625   3.799
82942W        W47927  38.915  44.703   1.505
82943W        W47928  29.085  42.959  13.176
82944W        W47929  19.495  23.408   0.327
82945W        W47930  41.520  34.647  11.577
82946W        W47931  14.296  28.747   1.843
82947W        W47932   8.177  10.184  10.549
82948W        W47933  12.091  16.464  11.184
82949W        W47934  37.816  42.897   0.800
82950W        W47935  40.786   0.038   4.887
82951W        W47936   9.859  25.234  12.725
82952W        W47937  31.640  26.538  12.328
82953W        W47938  10.709  34.364   3.716
82954W        W47939  20.296   6.287   0.523
82955W        W47940  32.703  26.499   4.163
82956W        W47941  42.273  14.775  13.363
82957W        W47942  40.409  25.797  14.976
82958W        W47943   8.822  39.021  10.574
82959W        W47944  38.638  38.463  12.096
82960W        W47945  32.323  19.801   1.519
82961W        W47946  44.713   0.458  12.853
82962W        W47947   8.497  26.269   2.321
82963W        W47948   3.472   7.896   2.356
82964W        W47949   0.846  34.604  10.129
82965W        W47950  44.531  28.593   2.971
82966W        W47951  41.932  41.088  10.361
82967W        W47952  23.811  44.681  10.786
82968W        W47953  17.124  14.283  13.361
82969W        W47954  37.482   3.899   4.870
82970W        W47955   2.199  26.936   4.419
82971W        W47956   7.313  28.954  14.768
82972W        W47957  39.997   9.732  14.522
82973W        W47958   4.560   6.665  12.546
82974W        W47959  36.275  32.390  12.950
82975W        W47960   9.421  38.900   4.642
82976W        W47961  44.883   5.109   3.223
82977W        W47962  32.620  21.083  14.857
82978W        W47963  37.090  21.614   4.385
82979W        W47964  41.310  16.698  12.470
82980W        W47965   3.808  16.053  12.896
82981W        W47966  30.522   4.451   0.335
82982W        W47967  19.566   0.687   1.784
82983W        W47968  17.207  32.046  14.988
82984W        W47969  26.155   5.728  12.293
82985W        W47970   9.121  13.551   3.880
82986W        W47971  16.611  33.663  11.628
82987W        W47972  23.543  25.614  14.787
82988W        W47973  28.049   0.419  13.863
82989W        W47974   5.059   8.481  11.169
82990W        W47975  14.073  28.729   4.395
82991W        W47976  33.081  43.253   3.281
82992W        W47977  26.427  11.811   2.778
82993W        W47978  41.001  14.232  14.255
82994W        W47979  15.230  35.631   1.950
82995W        W47980  27.797  22.034  12.513
82996W        W47981   6.188  22.206   4.345
82997W        W47982  27.145   4.777  11.560
82998W        W47983  35.956   7.136  14.800
82999W        W47984  10.653  20.081  10.778
83000W        W47985  35.135  20.455  14.491
83001W        W47986  39.838  19.248  13.378
83002W        W47987  21.623   5.124   3.593
83003W        W47988  36.745  14.318  14.261
83004W        W47989  30.916  14.196   1.884
83005W        W47990  24.493  24.649  12.485
83006W        W47991  31.430   9.792   1.932
83007W        W47992   8.162   5.681  14.985
83008W        W47993  32.602  21.833   1.724
83009W        W47994   5.962  20.223   2.267
83010W        W47995  25.460  32.982   1.338
83011W        W47996  35.018   6.578   3.671
83012W        W47997  12.694  43.545  11.151
83013W        W47998  44.841  40.969  12.459
83014W        W47999   3.849  34.472  12.765
83015W        W48000  30.513   7.449  14.458
83016W        W48001  40.760  39.840  11.101
83017W        W48002   1.850  42.810  13.052
83018W        W48003   2.240  33.622  13.140
83019W        W48004  11.144  16.779   4.502
83020W        W48005  43.077  23.171   0.041
83021W        W48006  38.928  12.745  13.822
83022W        W48007  23.248  22.092   2.791
83023W        W48008   0.275  14.352  14.531
83024W        W48009   9.436  24.049   1.435
83025W        W48010  28.085  18.319   0.268
83026W        W48011  42.816  44.823   4.567
83027W        W48012  27.106  17.068  12.528
83028W        W48013  22.560   4.266   2.370
83029W        W48014  12.428   2.509  11.054
83030W        W48015  19.161  12.164  13.626
83031W        W48016   1.421   6.929  13.917
83032W        W48017  34.691  32.454  10.575
83033W        W48018  12.643  39.071  11.151
83034W        W48019  26.751  34.686  12.617
83035W        W48020  36.347  28.070   1.400
83036W        W48021  18.744  14.784  10.812
83037W        W48022  43.265  38.272  12.405
83038W        W48023  24.444  10.774  13.889
83039W        W48024  10.042  35.334   4.185
83040W        W48025  24.065  24.294  13.815
83041W        W48026  30.376  37.488   3.390
83042W        W48027  28.534   3.623  14.869
83043W        W48028   9.812  16.370   3.797
83044W        W48029  33.220  42.737  13.009
83045W        W48030  28.431  33.611   3.198
83046W        W48031  14.304  11.215  12.079
83047W        W48032  25.817  39.025   1.592
83048W        W48033   0.865  28.738  12.389
83049W        W48034  25.590  35.047  14.850
83050W        W48035  14.414  18.069   3.700
83051W        W48036  30.107  37.017   3.342
83052W        W48037  39.941  17.286  13.692
83053W        W48038   1.422  10.970   1.694
83054W        W48039  30.630  20.384  11.626
83055W        W48040  44.894  13.409  13.450
83056W        W48041   7.830  32.688   2.749
83057W        W48042   4.247   8.430  11.477
83058W        W48043  18.755  29.613   3.620
83059W        W48044  17.249   2.918  10.822
83060W        W48045  42.225  15.313  12.481
83061W        W48046  26.139  27.968  13.883
83062W        W48047   2.232  37.951   1.211
83063W        W48048  29.171  32.040  10.936
83064W        W48049  43.841  40.530   4.073
83065W        W48050  19.943  35.437  11.676
83066W        W48051  43.314  44.995   4.592
83067W        W48052   9.302  20.266  12.573
83068W        W48053  42.749  27.230  14.969
83069W        W48054   2.993   7.396  12.622
83070W        W48055  43.500  22.326  14.222
83071W        W48056   7.237  23.744   0.242
83072W        W48057  18.046  33.546  11.524
83073W        W48058  30.838  29.966  11.583
83074W        W48059  35.317  13.342   3.928
83075W        W48060   4.028   0.361  14.220
83076W        W48061  21.288   3.339   3.601
83077W        W48062  33.275   0.054  13.539
83078W        W48063   9.575   8.396  13.244
83079W        W48064  41.329  10.958   0.357
83080W        W48065   1.839  31.277  11.672
83081W        W48066  28.464  11.920   4.644
83082W        W48067   1.413  15.130   2.210
83083W        W48068  18.125   9.395  12.828
83084W        W48069   8.216  31.166  14.843
83085W        W48070  10.740  35.345   1.190
83086W        W48071   7.984  41.366   0.802
83087W        W48072  42.129  35.134   0.419
83088W        W48073  36.433  10.598   2.274
83089W        W48074  17.862  22.692   5.004
83090W        W48075  16.756  31.414   3.105
83091W        W48076   6.985  31.954   4.660
83092W        W48077   5.325   1.373  10.730
83093W        W48078  40.211   9.385   0.099
83094W        W48079  12.333  10.623  14.273
83095W        W48080  19.449  34.045   2.678
83096W        W48081  42.842  19.688   4.236
83097W        W48082  22.750   8.249  12.141
83098W        W48083   1.940  25.727  13.916
83099W        W48084  27.046  21.003   4.824
83100W        W48085  30.632  12.636   3.821
83101W        W48086  11.992  34.889   3.682
83102W        W48087   6.865  33.993  11.343
83103W        W48088   5.313  17.825  13.002
83104W        W48089   6.216  16.626   1.178
83105W        W48090  18.930  42.865  12.067
83106W        W48091  20.811   8.862   1.893
83107W        W48092  14.061  21.284   0.588
83108W        W48093  10.667   5.273  14.408
83109W        W48094  12.192  11.246   3.641
83110W        W48095  41.070  23.998  13.905
83111W        W48096  36.068  35.860   4.634
83112W        W48097  37.411   4.112   3.923
83113W        W48098   0.995   2.478   4.042
83114W        W48099  35.733   4.436  12.389
83115W        W48100  32.955  18.236  10.486
83116W        W48101  30.896  18.224  11.537
83117W        W48102  11.193  32.487   4.816
83118W        W48103   7.091  14.773   2.867
83119W        W48104  10.876  23.999   0.359
83120W        W48105  43.781  27.507  14.699
83121W        W48106  27.094  17.834   2.441
83122W        W48107  29.613   4.448  11.358
83123W        W48108   0.260  40.513   2.366
83124W        W48109  42.373  38.436   9.775
83125W        W48110  35.565  15.226  11.148
83126W        W48111  22.256  19.711   3.652
83127W        W48112   0.507  41.469   1.415
83128W        W48113  16.486  14.589   1.728
83129W        W48114   4.018   2.169  10.759
83130W        W48115   1.979  23.752   4.216
83131W        W48116  15.345  34.942  12.389
83132W        W48117   6.279  38.415   3.117
83133W        W48118  23.977  37.050   3.845
83134W        W48119  23.454  35.264  10.305
83135W        W48120  19.330  26.168  11.865
83136W        W48121  42.837   1.302   4.949
83137W        W48122   6.460  41.594  11.065
83138W        W48123  26.760  31.358   2.279
83139W        W48124  30.091  11.758   1.917
83140W        W48125   7.730   0.958   0.911
83141W        W48126  24.313  16.294   2.765
83142W        W48127  29.641  18.093   3.106
83143W        W48128  20.664   7.155  12.607
83144W        W48129   8.705  23.030  12.363
83145W        W48130  24.440  32.120  13.043
83146W        W48131  16.711   4.885   0.322
83147W        W48132  19.752   0.374   1.321
83148W        W48133   3.900  13.564   4.158
83149W        W48134  23.646   9.700  12.926
83150W        W48135  11.074  39.588  10.597
83151W        W48136  39.341  15.234  14.570
83152W        W48137  42.034  21.669  11.444
83153W        W48138  17.884  20.365   1.696
83154W        W48139   3.085  31.923   3.272
83155W        W48140   8.796  12.246  13.455
83156W        W48141  30.182   1.877   3.999
83157W        W48142  41.872  22.940  11.071
83158W        W48143  21.090  22.461   3.516
83159W        W48144  11.890  28.660  14.379
83160W        W48145  17.051  15.646   3.342
83161W        W48146  32.013  20.553  12.454
83162W        W48147   4.450  42.444   1.271
83163W        W48148  28.600  20.273  14.517
83164W        W48149  21.013   5.355  11.174
83165W        W48150  18.339  11.692   0.550
83166W        W48151  38.345   5.949  11.242
83167W        W48152  15.061  39.546   4.141
83168W        W48153   2.596  22.663   0.836
83169W        W48154   2.864  42.464  14.823
83170W        W48155   5.656  34.971   1.680
83171W        W48156  13.461   0.874  13.601
83172W        W48157  28.248   6.322  13.479
83173W        W48158   4.154   7.468   3.344
83174W        W48159  26.332  12.162  11.230
83175W        W48160  23.489  26.415   4.639
83176W        W48161  27.104  33.040   2.410
83177W        W48162  21.471  21.293  11.645
83178W        W48163  42.134   0.433   3.637
83179W        W48164  37.076  38.489   1.606
83180W        W48165  26.473   0.986  13.536
83181W        W48166  19.673  22.492   3.203
83182W        W48167  33.852  18.582  10.607
83183W        W48168   6.390  26.381  13.146
83184W        W48169  25.738   2.683   4.628
83185W        W48170   0.433  24.719   5.000
83186W        W48171  24.070  17.559   0.729
83187W        W48172  35.222   1.345  12.045
83188W        W48173  12.804   7.457  14.443
83189W        W48174   2.239  24.491  12.541
83190W        W48175  37.891  42.787  10.680
83191W        W48176  16.146  25.131   0.634
83192W        W48177  32.528  18.130  13.127
83193W        W48178  35.922   5.431  12.383
83194W        W48179  10.175  31.465  11.513
83195W        W48180  23.681   8.475   2.796
83196W        W48181  27.803  27.887  13.865
83197W        W48182   3.398  15.534  13.801
83198W        W48183   9.277   3.805   3.891
83199W        W48184  31.092  42.378   4.925
83200W        W48185  20.045  25.738   3.954
83201W        W48186  30.462  10.363   4.210
83202W        W48187  15.113  35.328   2.370
83203W        W48188  27.205   1.201   3.597
83204W        W48189  19.910  43.990  14.333
83205W        W48190  10.875  15.034   2.587
83206W        W48191   4.819   3.718  11.509
83207W        W48192  26.271   8.102   1.337
83208W        W48193   5.443  27.261   0.945
83209W        W48194   1.754  38.974  14.426
83210W        W48195  25.243   6.754  14.798
83211W        W48196  20.270  35.710  14.937
83212W        W48197  28.575   4.895  13.961
83213W        W48198  21.013   7.622   4.295
83214W        W48199  31.010  31.878  11.286
83215W        W48200  14.372  37.030   1.424
83216W        W48201   7.744  17.434  14.581
83217W        W48202  42.475   8.182  13.819
83218W        W48203  44.230  17.827  12.946
83219W        W48204   6.158   4.338  10.781
83220W        W48205  40.619   5.459   4.049
83221W        W48206   4.808  20.724   3.837
83222W        W48207  44.892  24.820   5.505
83223W        W48208  24.043  21.027   3.693
83224W        W48209  31.235  18.670   0.415
83225W        W48210   6.960  38.850   3.236
83226W        W48211  13.614   5.821  14.814
83227W        W48212  33.882   9.079   3.247
83228W        W48213  37.604  31.349   3.855
83229W        W48214  28.736  19.661   2.220
83230W        W48215  16.995  18.175  13.463
83231W        W48216  42.516  20.442   2.239
83232W        W48217  14.299  30.120  12.066
83233W        W48218  32.458  20.152   4.481
83234W        W48219  18.723  23.121   0.758
83235W        W48220   8.750   0.859   0.762
83236W        W48221  32.620  15.402  12.808
83237W        W48222   4.762  43.927   2.559
83238W        W48223  29.692  32.811   1.790
83239W        W48224  21.318   2.043   3.228
83240W        W48225  35.105   8.633   2.978
83241W        W48226  26.137  14.141   4.072
83242W        W48227  32.105   1.914  10.463
83243W        W48228  14.898  17.838  12.082
83244W        W48229  10.509  34.660  13.776
83245W        W48230   9.134   8.456  14.604
83246W        W48231  28.131  22.644   2.240
83247W        W48232  20.587  28.729   3.510
83248W        W48233  37.243   9.516  10.935
83249W        W48234  30.819   8.757  12.836
83250W        W48235  21.545   9.062  13.966
83251W        W48236  13.184  13.315  12.410
83252W        W48237  13.160  25.044  14.801
83253W        W48238   0.196  11.192   0.262
83254W        W48239  31.847  18.078   1.002
83255W        W48240  30.544  16.047  11.336
83256W        W48241  17.265  24.997   0.383
83257W        W48242  25.921  17.781   0.389
83258W        W48243  15.079  37.677   4.879
83259W        W48244  37.757  15.178   4.560
83260W        W48245  33.056  32.612   0.333
83261W        W48246   9.236  11.383   4.603
83262W        W48247  40.718  36.985   4.713
83263W        W48248  29.207   5.888   1.400
83264W        W48249   8.261  11.122   0.065
83265W        W48250  32.055  40.442   5.147
83266W        W48251   6.210   4.203  13.817
83267W        W48252  21.503   8.673  11.984
83268W        W48253   0.744  14.241   2.740
83269W        W48254  12.151   6.535  11.537
83270W        W48255  19.805  35.468   3.647
83271W        W48256  33.396   0.471   1.444
83272W        W48257  19.314  15.187  14.927
83273W        W48258  28.622  33.640   2.310
83274W        W48259  15.114  34.664   1.604
83275W        W48260  24.165  30.171   4.559
83276W        W48261  33.877   2.888   2.471
83277W        W48262   0.395   1.808  11.212
83278W        W48263  26.014  20.998   0.227
83279W        W48264  32.861  29.045  14.406
83280W        W48265  20.130  42.925   3.903
83281W        W48266  39.878  21.695  13.566
83282W        W48267   9.276  17.019   1.811
83283W        W48268  17.747  36.798   4.188
83284W        W48269   0.204   8.471  12.497
83285W        W48270   9.287  17.534  13.320
83286W        W48271  15.154  36.954  12.992
83287W        W48272  22.699   6.368   1.154
83288W        W48273   8.275   2.535  11.084
83289W        W48274  40.455  32.863  11.451
83290W        W48275  23.562  33.927  12.612
83291W        W48276  10.666  14.360  13.150
83292W        W48277  27.408   7.160  13.526
83293W        W48278  24.161  34.457   4.884
83294W        W48279   9.711   6.459  13.129
83295W        W48280  42.490  32.455  14.876
83296W        W48281  22.591  29.699  12.119
83297W        W48282  38.767  42.241  12.921
83298W        W48283  40.010  38.750  12.144
83299W        W48284  10.268  11.791   0.810
83300W        W48285  17.295  39.581  14.399
83301W        W48286  24.939  39.245   4.388
83302W        W48287  37.878  43.893  13.640
83303W        W48288  13.127   6.807  10.751
83304W        W48289   8.928  43.454  13.307
83305W        W48290  26.675  15.661   1.401
83306W        W48291   5.657   0.851   4.773
83307W        W48292  35.274  25.583   0.395
83308W        W48293   0.521  28.985   2.189
83309W        W48294  22.656   9.185   2.930
83310W        W48295  44.815  40.468   4.275
83311W        W48296  37.467  43.520   0.126
83312W        W48297  42.964   6.380  10.869
83313W        W48298  32.972  13.789  11.955
83314W        W48299  44.996   3.467   4.117
83315W        W48300   6.325  43.433   2.062
83316W        W48301  41.338  33.479  13.927
83317W        W48302  36.654   8.154   0.368
83318W        W48303   5.465  13.755  10.784
83319W        W48304  25.233  16.210   4.615
83320W        W48305  13.734   8.329  14.953
83321W        W48306   8.317  33.829  12.626
83322W        W48307   0.661   8.228  11.087
83323W        W48308  16.508   3.747  11.975
83324W        W48309  14.238  35.921  14.873
83325W        W48310  19.420  22.568   2.282
83326W        W48311  43.875   4.127   3.580
83327W        W48312  32.629  31.524   1.231
83328W        W48313  40.743   9.206   3.116
83329W        W48314  27.272  29.961   0.413
83330W        W48315  20.746  27.634   3.500
83331W        W48316  37.714   7.214   0.301
83332W        W48317  32.351  15.246   4.242
83333W        W48318  35.041  37.809   3.725
83334W        W48319  21.995  38.620  14.343
83335W        W48320  11.332  18.446   5.076
83336W        W48321  31.043  22.567  13.875
83337W        W48322  10.279  35.493   4.641
83338W        W48323  14.543   2.037   0.763
83339W        W48324  32.621  30.994   1.831
83340W        W48325  28.459   8.177   1.255
83341W        W48326  28.638   7.912   2.742
83342W        W48327  32.098  13.703   1.666
83343W        W48328  20.130  32.511   1.871
83344W        W48329  41.468  10.660  14.954
83345W        W48330  44.299  13.881  10.986
83346W        W48331   8.910  13.085  13.005
83347W        W48332  33.342  44.329  10.433
83348W        W48333  28.033  33.871   4.017
83349W        W48334  38.776  30.551   0.954
83350W        W48335  27.669  44.263   0.870
83351W        W48336  15.411   2.940  11.561
83352W        W48337   9.056  20.945  11.240
83353W        W48338  32.622  11.104  12.731
83354W        W48339  39.308   8.095  14.326
83355W        W48340  23.453  29.471   3.816
83356W        W48341  24.521   2.402   4.923
83357W        W48342  22.702  13.918  11.641
83358W        W48343   1.613   3.096   3.667
83359W        W48344  43.738  31.285   3.889
83360W        W48345  24.763  37.810   0.921
83361W        W48346  19.400  44.802   3.838
83362W        W48347  12.074  37.492  10.420
83363W        W48348  44.677  17.181  11.909
83364W        W48349   7.814   7.162  11.343
83365W        W48350  41.494  39.801   4.580
83366W        W48351  21.623  12.246  11.549
83367W        W48352  19.764  39.049   1.805
83368W        W48353  33.093  36.578   3.314
83369W        W48354  28.476  32.664  12.256
83370W        W48355  42.463  13.224  12.097
83371W        W48356   0.788  44.450   4.589
83372W        W48357  22.224  29.011  11.508
83373W        W48358  33.641   8.383   2.681
83374W        W48359  30.419  18.707  12.131
83375W        W48360  35.483  12.677   2.250
83376W        W48361  16.301  27.514  10.770
83377W        W48362  42.228   8.738  14.328
83378W        W48363  19.128  44.676  11.140
83379W        W48364  41.787   3.225  14.344
83380W        W48365  23.484  38.655  11.784
83381W        W48366   5.037  43.918   4.412
83382W        W48367   3.855  25.461   0.064
83383W        W48368  18.746  16.381   4.400
83384W        W48369  15.315  21.111  14.041
83385W        W48370  22.307   4.826  12.824
83386W        W48371   6.719   9.116  14.969
83387W        W48372  11.797   5.192   4.551
83388W        W48373  35.107  30.932   0.804
83389W        W48374  40.294  43.915   1.899
83390W        W48375  20.750  25.167  14.932
83391W        W48376  19.617  25.739   1.931
83392W        W48377  23.710   1.303   4.530
83393W        W48378  18.923  15.537  11.439
83394W        W48379  11.748  38.386   1.800
83395W        W48380  37.881   2.770  10.795
83396W        W48381   7.173   6.182   2.279
83397W        W48382  40.403  13.226   4.712
83398W        W48383  36.736   7.585  12.893
83399W        W48384  15.179  41.069  13.771
83400W        W48385  40.346  37.582  13.065
83401W        W48386  24.289  42.401  12.065
83402W        W48387   6.251  41.387  13.506
83403W        W48388  28.123  43.917   0.840
83404W        W48389  44.698  31.863   5.051
83405W        W48390  31.829  30.984   1.474
83406W        W48391  36.029  20.089   3.317
83407W        W48392  41.013  43.952  12.887
83408W        W48393   1.983  32.613   2.582
83409W        W48394  39.153  20.215  12.653
83410W        W48395  17.652   7.467  12.113
83411W        W48396   0.363  37.745  14.958
83412W        W48397  15.731  32.876   0.422
83413W        W48398  30.515   2.275   3.465
83414W        W48399   5.465  39.265  11.284
83415W        W48400  21.139   9.975   4.366
83416W        W48401  38.490  23.997  14.445
83417W        W48402   6.298   2.819   1.924
83418W        W48403  26.628  37.630   3.789
83419W        W48404  40.960  27.505   0.945
83420W        W48405   9.306  31.449   3.162
83421W        W48406  43.301   3.677   3.368
83422W        W48407   1.636   8.918  14.959
83423W        W48408   5.207  35.265   1.737
83424W        W48409  23.544  41.012  10.673
83425W        W48410  37.363  15.968  11.567
83426W        W48411  30.077  17.161  12.110
83427W        W48412  40.355   8.778   2.278
83428W        W48413  44.778   5.357  12.961
83429W        W48414   6.958  33.390  11.960
83430W        W48415   3.895  35.942   2.280
83431W        W48416   1.367  30.980   0.850
83432W        W48417  14.966  40.353  13.098
83433W        W48418  30.576  33.896  13.450
83434W        W48419  19.589  43.569  12.947
83435W        W48420  42.403   6.879  10.489
83436W        W48421  12.186  42.389   4.771
83437W        W48422  40.765   4.307   3.281
83438W        W48423  30.466   3.343   0.803
83439W        W48424  29.397  44.784  11.624
83440W        W48425  19.608  11.609  14.990
83441W        W48426  26.216  29.525  10.576
83442W        W48427  25.002  31.381   3.478
83443W        W48428  41.700  22.045   2.756
83444W        W48429   5.245  39.349   1.413
83445W        W48430   6.630   1.202  11.987
83446W        W48431   4.403  32.511  13.401
83447W        W48432  16.749  17.062   1.696
83448W        W48433  34.129  33.626   1.817
83449W        W48434  23.547  29.629  11.984
83450W        W48435  40.851  39.256   0.392
83451W        W48436  18.231   0.661  13.311
83452W        W48437  22.035   9.233   3.613
83453W        W48438   5.749  12.852  13.645
83454W        W48439  26.536  20.536   0.751
83455W        W48440  42.113  27.570   1.774
83456W        W48441  16.155  42.482   3.456
83457W        W48442  13.114  44.758   3.048
83458W        W48443  44.336   8.963   4.138
83459W        W48444   9.099  27.503   3.265
83460W        W48445   4.889  22.491  11.473
83461W        W48446  19.568  39.655   4.563
83462W        W48447  12.110  24.498   3.429
83463W        W48448  10.249  42.085   3.466
83464W        W48449   2.487   2.502  13.431
83465W        W48450  16.381  12.722   2.745
83466W        W48451  37.605  43.428  12.020
83467W        W48452  44.051  28.174  11.644
83468W        W48453  33.921  32.043  10.652
83469W        W48454  30.184   1.473  10.629
83470W        W48455  32.144  12.256   5.039
83471W        W48456  18.882  22.214   2.949
83472W        W48457  12.205  27.480  14.825
83473W        W48458   6.443  30.589  11.638
83474W        W48459  38.114   2.619   1.014
83475W        W48460  35.805  17.866  14.665
83476W        W48461  42.389  41.307  12.013
83477W        W48462  34.492  31.619   0.432
83478W        W48463  19.992  18.884  13.022
83479W        W48464  42.101   6.919   3.868
83480W        W48465  21.670  43.759  10.777
83481W        W48466   7.590   1.421   1.834
83482W        W48467   3.289   0.032   2.406
83483W        W48468  25.709   6.816   2.671
83484W        W48469  39.052  44.990  14.535
83485W        W48470  16.369   0.268  14.391
83486W        W48471  20.788  35.024   2.857
83487W        W48472   9.241   3.774  11.143
83488W        W48473  16.513   7.979  11.719
83489W        W48474  38.631  17.306  10.899
83490W        W48475  31.904  29.052   3.334
83491W        W48476  43.062   1.754   4.108
83492W        W48477  44.522   1.020   4.232
83493W        W48478   1.424  42.804   1.790
83494W        W48479  27.961  38.748   3.676
83495W        W48480  18.573  26.715   2.447
83496W        W48481   8.774  30.660   1.985
83497W        W48482   4.747  26.513   3.902
83498W        W48483  38.405  23.733  12.464
83499W        W48484  37.339   0.051   3.806
83500W        W48485  15.713  33.092   3.844
83501W        W48486  21.302  43.168  13.767
83502W        W48487  26.419  35.281   1.876
83503W        W48488   0.692  25.167  13.380
83504W        W48489  44.546  33.602   4.951
83505W        W48490   7.202  36.362   2.681
83506W        W48491  33.855  30.307  12.096
83507W        W48492  27.453   9.301   2.491
83508W        W48493  15.572   4.165   0.513
83509W        W48494  28.374  11.299   3.010
83510W        W48495   4.379  30.399  13.742
83511W        W48496  21.628  39.405  12.109
83512W        W48497  24.271  24.481  12.025
83513W        W48498  37.811  19.536  14.490
83514W        W48499  22.025  18.937   3.077
83515W        W48500  23.621  13.412  14.453
83516W        W48501   1.002  11.840   3.742
83517W        W48502   0.803  28.858  10.920
83518W        W48503  44.929  19.628   3.602
83519W        W48504  43.132  40.225  11.343
83520W        W48505  19.996  23.973   2.929
83521W        W48506  17.997  11.787  13.060
83522W        W48507  32.495   3.643  13.595
83523W        W48508  16.248  15.087   0.942
83524W        W48509  20.070   2.219   4.602
83525W        W48510   7.679  11.956  11.035
83526W        W48511  38.766  39.205  12.413
83527W        W48512  16.198  14.720   4.475
83528W        W48513   8.257  17.293   0.943
83529W        W48514  16.347  10.372  10.168
83530W        W48515  10.546  14.915   2.987
83531W        W48516  41.039   7.740  10.418
83532W        W48517  25.770  12.863  14.814
83533W        W48518  39.110  25.337  13.130
83534W        W48519  12.592  18.764  14.985
83535W        W48520   3.680   2.818   3.573
83536W        W48521  44.247   3.310  10.780
83537W        W48522  42.415  11.580  14.956
83538W        W48523  31.143  44.459  13.956
83539W        W48524  17.071  40.410   0.893
83540W        W48525  21.248  43.788   0.663
83541W        W48526  21.663  38.102   0.330
83542W        W48527  26.482  26.913  13.932
83543W        W48528  37.823  41.738   1.991
83544W        W48529  27.667  19.339  13.373
83545W        W48530  12.130   2.372   0.401
83546W        W48531  16.663  22.892  13.100
83547W        W48532  42.955  39.543   4.759
83548W        W48533  12.899  26.184  11.562
83549W        W48534  41.944  11.772   4.987
83550W        W48535   8.669  43.021   4.326
83551W        W48536  17.035  33.427  11.466
83552W        W48537   4.048  35.126  11.556
83553W        W48538   1.852  17.571  12.753
83554W        W48539  21.826  16.825  13.263
83555W        W48540  36.379  28.077  10.460
83556W        W48541  39.111  12.478   2.398
83557W        W48542   3.241  35.481  13.420
83558W        W48543  20.544  12.821  10.634
83559W        W48544  35.273  15.764   4.514
83560W        W48545  20.913  10.922   1.576
83561W        W48546   0.445  37.376  14.181
83562W        W48547   3.262  17.265  11.795
83563W        W48548  32.591  23.989  12.392
83564W        W48549  26.444   9.233  14.438
83565W        W48550   7.397   8.324   5.033
83566W        W48551  31.549  32.220   2.809
83567W        W48552   9.938   9.141  11.131
83568W        W48553   1.490   7.706   0.804
83569W        W48554   2.087  44.696  11.087
83570W        W48555  40.184  25.023   1.995
83571W        W48556   9.259  15.069   0.915
83572W        W48557  40.251  39.742   0.975
83573W        W48558   4.659   2.883  11.177
83574W        W48559   0.570  17.284   3.175
83575W        W48560  24.732  27.513   0.791
83576W        W48561  17.704  23.183  12.451
83577W        W48562   4.151  35.964  11.302
83578W        W48563  30.920   4.373  12.559
83579W        W48564   0.990  41.549   4.214
83580W        W48565  16.365  39.296  14.328
83581W        W48566   8.671  25.390  12.266
83582W        W48567   8.657  36.969  13.092
83583W        W48568  28.470  24.683  11.960
83584W        W48569  34.899  23.946   2.316
83585W        W48570   8.800  37.400  12.840
83586W        W48571   9.157  27.092  12.921
83587W        W48572  33.452   7.100  10.761
83588W        W48573  16.048  38.848  13.557
83589W        W48574   8.120  34.306  10.274
83590W        W48575  24.395  22.548   0.978
83591W        W48576  43.302  26.273   0.765
83592W        W48577   1.022  19.911  12.008
83593W        W48578  19.050   0.213  12.015
83594W        W48579  36.711  42.787  12.982
83595W        W48580  28.623  23.465   1.235
83596W        W48581  27.172   7.945  11.074
83597W        W48582  41.069  16.494  14.662
83598W        W48583  33.109  34.641  11.198
83599W        W48584   8.683  40.565   3.872
83600W        W48585  39.516   7.928   2.279
83601W        W48586  27.457  34.159  13.011
83602W        W48587  42.507   6.276   0.306
83603W        W48588  39.133  14.636   1.107
83604W        W48589  13.080  26.612   2.321
83605W        W48590  17.752  41.946  12.127
83606W        W48591  19.770   1.194   1.790
83607W        W48592   4.007  33.715  11.895
83608W        W48593  40.319  12.282  13.307
83609W        W48594  39.821  35.007  14.855
83610W        W48595   1.233  20.710  14.010
83611W        W48596   1.535  42.300  14.445
83612W        W48597  18.988  11.632  13.405
83613W        W48598  23.709   5.302  13.946
83614W        W48599   6.744  36.116   2.535
83615W        W48600  31.459  37.526  14.920
83616W        W48601  25.173  16.057  13.394
83617W        W48602   2.778  34.456  14.009
83618W        W48603  23.688  12.916   2.630
83619W        W48604   6.953  27.080  12.934
83620W        W48605  29.853  40.778   0.878
83621W        W48606  22.519  22.785  12.333
83622W        W48607  17.963  20.866   3.988
83623W        W48608  37.796  31.499   4.567
83624W        W48609  33.952   5.199   0.509
83625W        W48610  35.084  19.563  10.144
83626W        W48611  23.994  31.199   3.098
83627W        W48612   1.268  14.703   0.957
83628W        W48613  21.783  20.168  10.266
83629W        W48614  13.045   9.649   2.213
83630W        W48615   9.372  19.663   2.848
83631W        W48616  27.542  23.444   3.239
83632W        W48617   8.373  10.057   1.951
83633W        W48618  17.372  13.124  13.973
83634W        W48619   3.044  34.615   1.665
83635W        W48620  28.118  20.296  11.547
83636W        W48621  22.525   9.096   0.769
83637W        W48622  34.829  32.567  12.658
83638W        W48623  37.137   2.368   1.276
83639W        W48624  44.866  32.018  13.744
83640W        W48625  34.467  31.650   4.121
83641W        W48626  12.263  15.280  13.007
83642W        W48627   7.802  23.484   1.887
83643W        W48628   4.309   5.165  10.470
83644W        W48629  21.106   0.802   9.879
83645W        W48630   0.022  18.275   1.674
83646W        W48631  13.844  26.761   4.214
83647W        W48632   1.574  12.334   4.385
83648W        W48633  40.578  18.775  14.808
83649W        W48634  19.126  32.052   1.260
83650W        W48635  19.621  18.385  10.538
83651W        W48636  24.721  19.303   3.681
83652W        W48637  30.507   7.456   0.273
83653W        W48638  26.008  32.285   1.870
83654W        W48639  32.388   7.879   2.374
83655W        W48640  35.125   4.809  11.086
83656W        W48641   6.716   0.772  14.384
83657W        W48642  19.623  36.865  13.515
83658W        W48643  14.003   0.925  13.500
83659W        W48644  21.007  34.418  11.455
83660W        W48645  33.471  21.017  14.586
83661W        W48646  37.213   8.996   4.989
83662W        W48647  22.805   8.715   2.256
83663W        W48648  26.452  19.264  11.967
83664W        W48649   7.726  42.950  12.118
83665W        W48650  29.442  10.229   4.103
83666W        W48651  20.950   9.008  11.602
83667W        W48652  38.007  42.718   0.337
83668W        W48653   0.994  29.081   3.745
83669W        W48654  37.955  19.872   4.105
83670W        W48655  31.055  29.111   0.711
83671W        W48656  31.684  22.213   0.713
83672W        W48657  24.569  41.073   2.242
83673W        W48658   7.750  44.682  14.090
83674W        W48659  44.505  39.428   1.772
83675W        W48660   1.112  44.424  12.020
83676W        W48661  44.262  14.200  13.448
83677W        W48662  16.498  40.734  10.752
83678W        W48663  22.102  18.106  13.505
83679W        W48664   4.187  39.445  10.685
83680W        W48665  35.005  30.498   5.236
83681W        W48666  42.975  25.013  10.290
83682W        W48667   1.494   2.332  13.567
83683W        W48668  16.023  12.726   1.808
83684W        W48669  42.286  20.487   1.363
83685W        W48670   7.388  16.618  11.027
83686W        W48671  14.303  15.718  10.654
83687W        W48672   1.298  14.293  14.567
83688W        W48673  38.381  25.989   1.333
83689W        W48674  19.151  39.901  13.910
83690W        W48675  37.236  29.143  11.928
83691W        W48676  27.931  18.194   3.345
83692W        W48677  12.089  34.534   2.454
83693W        W48678  33.278  30.001  14.063
83694W        W48679  37.009  14.589   4.217
83695W        W48680  37.609   9.448  13.503
83696W        W48681  16.436  33.368  13.919
83697W        W48682  15.848  12.295  14.429
83698W        W48683   1.479  19.013   2.146
83699W        W48684  17.254   6.014  11.932
83700W        W48685  24.065   9.873   1.639
83701W        W48686  23.588  38.507   3.066
83702W        W48687  41.371  28.408  13.778
83703W        W48688   5.730  14.266   0.011
83704W        W48689  15.677  36.433   1.233
83705W        W48690  33.520  21.059  12.710
83706W        W48691  24.702  41.569  10.688
83707W        W48692  41.770  37.417   5.395
83708W        W48693  38.858   2.521  11.613
83709W        W48694   0.783  16.746   1.633
83710W        W48695  32.475   1.710   3.447
83711W        W48696  34.892  10.781   4.130
83712W        W48697  32.553   8.784  14.518
83713W        W48698  44.832  25.929   4.544
83714W        W48699  28.599  21.229  12.076
83715W        W48700  44.761  38.401  13.028
83716W        W48701  11.727   2.266   0.981
83717W        W48702   7.879  23.268   3.931
83718W        W48703   4.838   8.197   4.194
83719W        W48704  15.480  32.965  14.423
83720W        W48705  10.958  41.168  13.446
83721W        W48706  26.296  39.786   1.054
83722W        W48707  19.513   4.763  13.339
83723W        W48708   7.156  11.243   4.600
83724W        W48709  30.248   4.274  13.932
83725W        W48710  28.781  16.057   4.090
83726W        W48711  35.993  23.322  12.530
83727W        W48712  22.124   4.310   1.441
83728W        W48713  35.961  27.593  11.157
83729W        W48714  37.749  10.381  11.134
83730W        W48715  26.532  27.452   3.261
83731W        W48716  40.374  25.552  12.035
83732W        W48717  22.234  23.804   0.860
83733W        W48718  41.341   6.743   4.299
83734W        W48719  26.984   8.288   1.885
83735W        W48720  19.352  27.538   0.233
83736W        W48721  19.736  43.526   0.860
83737W        W48722  32.602  31.516  12.271
83738W        W48723  28.553   3.913  13.176
83739W        W48724   2.454   1.374  10.809
83740W        W48725  44.420  41.446   3.364
83741W        W48726  44.288  25.433   2.714
83742W        W48727   0.853  16.283  11.727
83743W        W48728  10.844  23.204  12.937
83744W        W48729  30.844   4.495   3.426
83745W        W48730   4.014  35.483   2.871
83746W        W48731  13.540   7.402   1.330
83747W        W48732  28.226  38.542   3.276
83748W        W48733  14.699  38.872  13.892
83749W        W48734  34.356  16.672   3.310
83750W        W48735  40.790  22.481   1.854
83751W        W48736  11.178  43.348  13.908
83752W        W48737   8.770  21.002   2.831
83753W        W48738   5.547  13.374   3.407
83754W        W48739  14.337  24.028  12.124
83755W        W48740   5.844  16.844   0.349
83756W        W48741  10.127  17.072   4.420
83757W        W48742  34.917   1.330   2.873
83758W        W48743  38.579  32.696   3.162
83759W        W48744  35.911  20.767  14.965
83760W        W48745   1.474   5.914   3.089
83761W        W48746   9.576   5.044   1.795
83762W        W48747  17.302  26.911  14.309
83763W        W48748  18.647   8.854  12.980
83764W        W48749   1.226  21.693  12.560
83765W        W48750  37.409   1.390  11.250
83766W        W48751  41.560  20.741   2.209
83767W        W48752   4.786  25.083  13.110
83768W        W48753  29.941  14.362  12.414
83769W        W48754   7.185  21.529  11.981
83770W        W48755  31.427  37.401  13.926
83771W        W48756  35.087  44.912   0.107
83772W        W48757  13.849  40.070   1.889
83773W        W48758   9.997  10.468  13.404
83774W        W48759  12.766  38.391   4.263
83775W        W48760   9.092  10.365   2.312
83776W        W48761  43.248  38.873   3.515
83777W        W48762  43.740  12.158  14.348
83778W        W48763  30.620  22.982  12.981
83779W        W48764   3.034  34.565   2.633
83780W        W48765  26.658  22.118   4.867
83781W        W48766   7.225  31.851  12.207
83782W        W48767  26.882  40.363   4.215
83783W        W48768   7.252  21.016  13.985
83784W        W48769  44.459  15.559  14.688
83785W        W48770  43.049  22.567  11.899
83786W        W48771  12.647  35.795   1.486
83787W        W48772  28.116  11.734   3.072
83788W        W48773  41.830  31.875  13.524
83789W        W48774  25.060  22.628   0.980
83790W        W48775   9.423  16.276  11.608
83791W        W48776  13.201  35.413   4.439
83792W        W48777   8.707  40.394   0.193
83793W        W48778  36.442  28.994   2.804
83794W        W48779  23.740   3.325  11.099
83795W        W48780  24.238  19.585  11.472
83796W        W48781  34.189  28.521   0.197
83797W        W48782  41.809  44.027   0.422
83798W        W48783  44.354  25.678   4.589
83799W        W48784   2.529  24.047   4.466
83800W        W48785  14.735  42.476   4.558
83801W        W48786  19.550  42.817  13.883
83802W        W48787  38.573  44.506  14.431
83803W        W48788  42.210  18.342   2.789
83804W        W48789  35.467   7.925   1.737
83805W        W48790  40.987  42.984   1.019
83806W        W48791   2.264  14.654   1.647
83807W        W48792  13.434   8.583  10.021
83808W        W48793  11.203  33.155  13.903
83809W        W48794  24.005  30.120  13.513
83810W        W48795  34.822  19.583   2.313
83811W        W48796  33.392  35.460  11.063
83812W        W48797  13.512  42.436  13.908
83813W        W48798  23.273   4.620  12.923
83814W        W48799  21.181  36.039  11.304
83815W        W48800  39.543  37.314   0.260
83816W        W48801  22.565  24.755  11.404
83817W        W48802  37.028  22.564   4.556
83818W        W48803   5.213  29.000  12.825
83819W        W48804  29.495  16.605  10.324
83820W        W48805  24.073  40.648  13.304
83821W        W48806  30.024  12.279   3.771
83822W        W48807   4.427   7.149   3.822
83823W        W48808   9.678  20.143  12.257
83824W        W48809  13.850  18.121   0.930
83825W        W48810  29.006  25.972   1.039
83826W        W48811  30.788   9.754   5.651
83827W        W48812  30.431  35.654   0.270
83828W        W48813  34.849  14.234  10.639
83829W        W48814  32.656  31.489   4.082
83830W        W48815  25.266   9.229  13.374
83831W        W48816  28.959  44.905   0.771
83832W        W48817  35.659  26.494   2.194
83833W        W48818   3.486  18.256  14.774
83834W        W48819  22.081  26.965  13.100
83835W        W48820  23.719   8.130   1.400
83836W        W48821  19.529  39.114  14.050
83837W        W48822   2.242   8.635   2.563
83838W        W48823  10.342  42.050   3.977
83839W        W48824  14.222  20.017   1.361
83840W        W48825  23.383   0.175   3.557
83841W        W48826  41.776   2.999  13.307
83842W        W48827  41.545  16.861   1.789
83843W        W48828  17.293  33.831   3.627
83844W        W48829  34.560  44.974  13.133
83845W        W48830  36.865   1.229   1.739
83846W        W48831   9.425  40.610  13.932
83847W        W48832   9.639   3.453   0.003
83848W        W48833   1.116  25.518  12.698
83849W        W48834  14.157  43.354   0.320
83850W        W48835  10.945  40.256  12.361
83851W        W48836  31.852  43.765  13.961
83852W        W48837   9.676  30.681   0.474
83853W        W48838  39.284  28.965  11.105
83854W        W48839  23.354   1.900   3.024
83855W        W48840   2.334  12.197  11.180
83856W        W48841  13.261   7.710  14.360
83857W        W48842   0.160  24.613  11.179
83858W        W48843  42.336  20.189  13.400
83859W        W48844  17.111   1.877  14.758
83860W        W48845  32.336  29.915   4.079
83861W        W48846   4.945  35.306  10.680
83862W        W48847   2.290  41.460  10.591
83863W        W48848  17.699  18.820  14.516
83864W        W48849  22.653  20.045   2.416
83865W        W48850   7.736  14.549   2.262
83866W        W48851  43.751  38.906   3.321
83867W        W48852  18.745  35.463  11.178
83868W        W48853   6.365  29.668   2.951
83869W        W48854  30.456  29.948  10.679
83870W        W48855  11.935  28.009  11.214
83871W        W48856  33.908   2.217   0.207
83872W        W48857  11.795  16.859  14.560
83873W        W48858   0.488  29.100   3.668
83874W        W48859  15.835  40.504  13.994
83875W        W48860   4.755   1.846   9.892
83876W        W48861   9.201  11.948  13.370
83877W        W48862  22.778  43.907   3.792
83878W        W48863  19.529  35.386   4.594
83879W        W48864  34.063  38.494  14.439
83880W        W48865  19.019  25.553  10.629
83881W        W48866  24.742  31.771   5.104
83882W        W48867  34.104   1.052   2.242
83883W        W48868  21.573   1.327   4.378
83884W        W48869  36.301  31.483  11.978
83885W        W48870  24.626  35.573   4.566
83886W        W48871  19.769   6.710  13.533
83887W        W48872  32.168  25.050  10.295
83888W        W48873  35.866   0.750  14.457
83889W        W48874  38.305  32.553   0.340
83890W        W48875  20.586  21.007   2.759
83891W        W48876  24.082  38.629  11.144
83892W        W48877   2.081  13.649   0.406
83893W        W48878  26.940   0.428  14.971
83894W        W48879  29.532  28.551   4.233
83895W        W48880   4.611  28.817   4.106
83896W        W48881   1.458  39.121  12.061
83897W        W48882  44.975  40.081  11.362
83898W        W48883   9.464  11.769   2.158
83899W        W48884  34.152  40.625  10.863
83900W        W48885  29.321  39.566   2.916
83901W        W48886  37.394  10.606   2.216
83902W        W48887  42.977  39.263   3.155
83903W        W48888  13.168  21.860  11.113
83904W        W48889  15.667  18.475  11.416
83905W        W48890  25.046  33.462  12.979
83906W        W48891  37.557  32.370  11.591
83907W        W48892  21.693   2.441   1.915
83908W        W48893  18.536  37.073   4.657
83909W        W48894  37.038  19.647   3.798
83910W        W48895  15.841   8.472  11.592
83911W        W48896  29.974  13.817  13.322
83912W        W48897   5.475  37.718   4.190
83913W        W48898  17.969  38.049   3.949
83914W        W48899   0.210  36.355   1.462
83915W        W48900  18.267  14.749  14.041
83916W        W48901  42.174   7.916  14.911
83917W        W48902  37.262  23.542   2.417
83918W        W48903  27.179  37.022   3.220
83919W        W48904  16.916  23.706  14.434
83920W        W48905  10.927  22.601   3.304
83921W        W48906  25.010  44.934  10.760
83922W        W48907  32.422  37.786  12.418
83923W        W48908  16.523   7.652  13.037
83924W        W48909  22.725   9.141  11.946
83925W        W48910  21.605  33.231   4.512
83926W        W48911  39.357  34.997   4.263
83927W        W48912  11.254   7.283   2.947
83928W        W48913  32.105  36.017   3.624
83929W        W48914  12.259  24.834  11.004
83930W        W48915   9.200  23.339   2.336
83931W        W48916   9.664  37.975  10.480
83932W        W48917   3.600  32.683  12.558
83933W        W48918  22.273  10.623  10.432
83934W        W48919   6.686   6.380  14.588
83935W        W48920  32.203  40.393   3.144
83936W        W48921  41.420   5.755   2.148
83937W        W48922   2.984  42.233  13.422
83938W        W48923  34.266  14.775  12.201
83939W        W48924  11.782  19.983   3.331
83940W        W48925  22.862  13.553  11.973
83941W        W48926  38.130   9.297   0.335
83942W        W48927   9.938  43.227   1.183
83943W        W48928  29.752  14.027  14.005
83944W        W48929  10.330  18.673   4.582
83945W        W48930  32.168   6.965  11.147
83946W        W48931   2.851  32.580  13.006
83947W        W48932  22.172  38.010   0.487
83948W        W48933  29.535  43.074   2.266
83949W        W48934   4.401  14.574   4.146
83950W        W48935  32.094   5.810  14.351
83951W        W48936  39.316  42.427   0.283
83952W        W48937  32.422   2.789   1.686
83953W        W48938  22.288   0.723  12.952
83954W        W48939  34.569   7.601  12.315
83955W        W48940  25.257  21.510  14.285
83956W        W48941  28.051   6.970  11.201
83957W        W48942  44.153  17.049   0.265
83958W        W48943  41.544   3.057   0.738
83959W        W48944  41.529  36.506  10.685
83960W        W48945  30.747   4.112  13.833
83961W        W48946  35.143  20.891   4.062
83962W        W48947  37.275  33.212   1.342
83963W        W48948   4.745  18.753  13.310
83964W        W48949  13.554  37.602  14.877
83965W        W48950   0.340  36.522  11.454
83966W        W48951  18.468  19.707   3.558
83967W        W48952   4.697  44.849  12.364
83968W        W48953  19.226   3.379   4.627
83969W        W48954  44.001  17.487  12.621
83970W        W48955  41.224   3.777  14.119
83971W        W48956  18.609  22.421  11.620
83972W        W48957   4.739  29.044  11.072
83973W        W48958  40.894  32.429   4.116
83974W        W48959   4.322   4.425   3.058
83975W        W48960  18.600  41.284   1.896
83976W        W48961  24.278  34.889   0.414
83977W        W48962  27.570  15.084   1.304
83978W        W48963  13.841   3.768   2.710
83979W        W48964  12.666  24.600   2.796
83980W        W48965  21.012  42.373  12.454
83981W        W48966   1.047  19.837   3.797
83982W        W48967   4.991   1.232   2.219
83983W        W48968  25.468  27.374  11.086
83984W        W48969  34.655  36.643   2.335
83985W        W48970  43.225  41.596  10.776
83986W        W48971  25.569  12.559   1.889
83987W        W48972  22.143  39.025   3.634
83988W        W48973  23.904  15.788  13.108
83989W        W48974  13.351  13.808  11.828
83990W        W48975  30.658  24.017  12.330
83991W        W48976  41.456   9.448   2.823
83992W        W48977  18.334  44.769  13.808
83993W        W48978  33.852   7.231  12.977
83994W        W48979  38.556  44.319   1.376
83995W        W48980   8.180   4.357   1.027
83996W        W48981   0.588  34.250  10.428
83997W        W48982  42.956  43.737   0.951
83998W        W48983  13.969  41.493  10.388
83999W        W48984  42.915  24.421   0.932
84000W        W48985  22.414  11.869  11.994
84001W        W48986   1.495  16.350   2.849
84002W        W48987  31.985  39.551   4.101
84003W        W48988  31.651  42.189   3.945
84004W        W48989  34.732  23.707   3.541
84005W        W48990  40.753   1.864  11.458
84006W        W48991   4.302  22.199   0.025
84007W        W48992   4.095  15.380  14.885
84008W        W48993  16.277  12.424   4.041
84009W        W48994  18.681  44.801  10.381
84010W        W48995   1.743  38.321   4.721
84011W        W48996  29.943   2.080  12.589
84012W        W48997  40.145  29.225  11.113
84013W        W48998  29.308  11.912   4.336
84014W        W48999   2.498  42.341   3.380
84015W        W49000  24.243   4.293   1.721
84016W        W49001  32.454  10.760   3.297
84017W        W49002  25.067  40.530  12.943
84018W        W49003  21.650  44.926  11.637
84019W        W49004  12.584  37.914   2.418
84020W        W49005  10.111  42.529   4.905
84021W        W49006  17.066   8.993   2.306
84022W        W49007  28.656  32.888   2.778
84023W        W49008   9.436  26.663   1.372
84024W        W49009  22.588  13.166   2.362
84025W        W49010  37.459  32.670  14.359
84026W        W49011  40.085  37.226   0.175
84027W        W49012  38.080  42.537   1.706
84028W        W49013  26.440  10.521   2.368
84029W        W49014  34.462  18.300   1.250
84030W        W49015   7.333   5.104   4.522
84031W        W49016   4.964   3.301   0.480
84032W        W49017  33.876  33.268   3.630
84033W        W49018  34.345   3.983  14.328
84034W        W49019   8.111  43.859   0.264
84035W        W49020  40.293  22.007  13.437
84036W        W49021  12.248   9.285   2.642
84037W        W49022  20.662   1.139   2.148
84038W        W49023   7.223  40.063  14.986
84039W        W49024  20.309  39.472   2.452
84040W        W49025  44.372  22.575  11.527
84041W        W49026  42.742  35.282  12.939
84042W        W49027  44.635  22.216  13.022
84043W        W49028  18.640   0.165  13.690
84044W        W49029  36.357  16.218   4.278
84045W        W49030  21.578  34.549   0.199
84046W        W49031  43.332   6.694   2.634
84047W        W49032  15.581  25.645   3.620
84048W        W49033  35.604   6.886  12.562
84049W        W49034   3.797  41.093  12.149
84050W        W49035  44.868  26.077  12.605
84051W        W49036  30.008  32.515  11.567
84052W        W49037  30.689  31.302  13.925
84053W        W49038  39.825  14.663  14.891
84054W        W49039  16.010  38.428  13.866
84055W        W49040   5.644  27.269  13.367
84056W        W49041   3.256  42.303  12.977
84057W        W49042   0.244  36.578  13.062
84058W        W49043  34.931  26.603   5.127
84059W        W49044  38.957  29.876   2.827
84060W        W49045  26.047  27.006   2.667
84061W        W49046  20.043  14.784  11.487
84062W        W49047  16.947  36.974   3.598
84063W        W49048  27.687  41.575   2.696
84064W        W49049  10.836  14.311  11.436
84065W        W49050  38.881   2.527  12.591
84066W        W49051  35.528  41.394  11.357
84067W        W49052  21.749  29.397  12.614
84068W        W49053  29.248  21.026  12.508
84069W        W49054  37.057  26.629   2.693
84070W        W49055   1.061   2.448  12.055
84071W        W49056  42.519  30.899   1.809
84072W        W49057  21.619  34.665   4.197
84073W        W49058  33.974   7.982  14.773
84074W        W49059   0.365   4.254   0.839
84075W        W49060   0.406  19.537  14.749
84076W        W49061  15.262  26.378   5.555
84077W        W49062  30.802  15.668  12.528
84078W        W49063  27.074   3.887   3.158
84079W        W49064  40.998   3.125  11.979
84080W        W49065  10.730  31.605  12.614
84081W        W49066  38.536  16.118   3.814
84082W        W49067  37.926  14.790  13.896
84083W        W49068   9.297  37.035   2.217
84084W        W49069   5.122  15.597  10.152
84085W        W49070  42.980  33.092  10.891
84086W        W49071   6.757  14.618   4.216
84087W        W49072   6.267  18.741   4.775
84088W        W49073   3.520  14.569   1.429
84089W        W49074   5.416  41.072  13.737
84090W        W49075  23.433  34.691  14.962
84091W        W49076  13.849  12.918  14.856
84092W        W49077  32.945   1.467   0.483
84093W        W49078  43.346  16.017  14.307
84094W        W49079  31.477  35.020  12.880
84095W        W49080  22.656  27.969   0.463
84096W        W49081  32.493  10.194  13.178
84097W        W49082   8.656  16.103   3.155
84098W        W49083   2.910  40.956   4.641
84099W        W49084  17.150  29.204  12.017
84100W        W49085  43.858  39.555  12.104
84101W        W49086  25.103  35.849   3.359
84102W        W49087   1.096  22.530   2.732
84103W        W49088  37.087  25.069   3.956
84104W        W49089   3.245  22.274   0.493
84105W        W49090  32.593  27.653   3.854
84106W        W49091   1.159  32.849  14.852
84107W        W49092  26.565  10.736  12.532
84108W        W49093  31.648  10.242  10.983
84109W        W49094   7.208  19.800  14.573
84110W        W49095  27.944   6.303  12.601
84111W        W49096  35.478  15.213   3.234
84112W        W49097  35.313   0.886   3.272
84113W        W49098  18.133   5.907  11.629
84114W        W49099  37.936  44.031   4.832
84115W        W49100  34.806  27.770   1.777
84116W        W49101  26.705  34.468   2.281
84117W        W49102  37.968   3.829  12.110
84118W        W49103   4.732  17.042   1.290
84119W        W49104  33.050  44.812  12.592
84120W        W49105  31.928  13.865   4.753
84121W        W49106  38.877  23.660  14.330
84122W        W49107  44.365  43.680   3.313
84123W        W49108  12.133  28.034   4.308
84124W        W49109  31.548  39.297   1.374
84125W        W49110  10.319  28.682   4.218
84126W        W49111  35.934   5.832   4.587
84127W        W49112   8.478  30.008   3.176
84128W        W49113  36.127  38.090  12.791
84129W        W49114  34.188  13.551  11.564
84130W        W49115   1.262  33.092   4.501
84131W        W49116  33.211  41.512  11.918
84132W        W49117  36.475   7.771   1.640
84133W        W49118   2.538  39.914   3.084
84134W        W49119  14.496   8.830  13.817
84135W        W49120  43.660  32.163  10.296
84136W        W49121  34.343   1.420  11.137
84137W        W49122  42.767  44.348  12.433
84138W        W49123  36.572  14.600   3.930
84139W        W49124   3.429  44.938   0.861
84140W        W49125  15.338  33.292   1.255
84141W        W49126  44.526  12.400   4.616
84142W        W49127  40.577  39.810  10.615
84143W        W49128  38.286   7.907   2.112
84144W        W49129  21.875  17.695   4.554
84145W        W49130  22.259  29.019   4.415
84146W        W49131   6.448  29.170  12.526
84147W        W49132   9.868  32.435  11.860
84148W        W49133   0.704  44.561   1.376
84149W        W49134  26.933  42.514  14.777
84150W        W49135   6.906  19.699  10.730
84151W        W49136  29.699   6.020  12.005
84152W        W49137  10.219  34.665   3.815
84153W        W49138   9.747  28.141  12.391
84154W        W49139  11.643   4.683   2.593
84155W        W49140  44.025  13.133  12.872
84156W        W49141  32.704  27.092  11.208
84157W        W49142  20.744  28.438  14.860
84158W        W49143  43.746  32.528  13.076
84159W        W49144  32.633  31.544  11.273
84160W        W49145  43.528  30.615   3.257
84161W        W49146  33.019  43.392  14.693
84162W        W49147  26.636  29.992  11.644
84163W        W49148   4.886  16.055  10.209
84164W        W49149   0.760  29.117   4.206
84165W        W49150   8.015  40.441   0.819
84166W        W49151  33.319  23.546   0.871
84167W        W49152  37.088   6.735  10.590
84168W        W49153  32.617   4.223   4.135
84169W        W49154  40.963   4.887   0.838
84170W        W49155   5.843  28.074  11.107
84171W        W49156   1.053   6.721   2.308
84172W        W49157  20.714  26.612  12.781
84173W        W49158  26.026  24.587   4.081
84174W        W49159  23.186  30.021  10.406
84175W        W49160  20.771  42.339  13.339
84176W        W49161  25.535  26.021   0.954
84177W        W49162  43.174  19.194   2.288
84178W        W49163  30.839   3.651  14.860
84179W        W49164  22.259   6.676   3.573
84180W        W49165   3.838   7.371   0.683
84181W        W49166  22.744  16.084  12.424
84182W        W49167   7.908   6.570  12.572
84183W        W49168  39.017  14.262  11.532
84184W        W49169  36.032  24.023   0.205
84185W        W49170  25.735   8.813   4.686
84186W        W49171  37.474   7.327   1.363
84187W        W49172  26.486  15.725   4.178
84188W        W49173  35.839  42.850   4.651
84189W        W49174  16.604  44.992  14.790
84190W        W49175  21.755  44.313  14.909
84191W        W49176  13.222  35.626  12.199
84192W        W49177  11.816  37.584   1.398
84193W        W49178   0.412  24.384   9.846
84194W        W49179   0.226  33.846   4.129
84195W        W49180  27.185  42.059  14.860
84196W        W49181  20.999  37.407   5.053
84197W        W49182  10.849  24.556   1.301
84198W        W49183  27.849  16.681   1.370
84199W        W49184  42.096  42.632   1.991
84200W        W49185  22.217   5.201  10.544
84201W        W49186  22.999  19.189   3.128
84202W        W49187   1.008   2.407   3.213
84203W        W49188  21.233  14.111   1.699
84204W        W49189   2.312  20.001  14.806
84205W        W49190  37.101  36.485   4.958
84206W        W49191  27.433  34.380   2.410
84207W        W49192   0.667  22.174  14.452
84208W        W49193  20.174  12.909   3.326
84209W        W49194  25.223  12.693   0.814
84210W        W49195  11.731  35.124  12.950
84211W        W49196  25.147  26.346  10.713
84212W        W49197   6.407  26.755  11.462
84213W        W49198  18.560  23.222  14.752
84214W        W49199   2.932  18.129  14.056
84215W        W49200   3.701  23.265   0.434
84216W        W49201   7.468  14.563   4.482
84217W        W49202  24.456  39.300  13.320
84218W        W49203   9.250  36.146   1.366
84219W        W49204  36.043  17.662  13.647
84220W        W49205  13.921  36.083   0.302
84221W        W49206   3.456  30.198  10.605
84222W        W49207  12.656  24.510  10.587
84223W        W49208  37.451  18.370  13.362
84224W        W49209  35.177   7.404  11.120
84225W        W49210  33.943   3.481  12.154
84226W        W49211  24.079   1.956   0.476
84227W        W49212   9.952   0.351  13.922
84228W        W49213  26.433  27.446   2.363
84229W        W49214   7.899   3.809  14.417
84230W        W49215   5.201  31.326  10.633
84231W        W49216  44.848  13.766   3.910
84232W        W49217  16.660  18.222  11.562
84233W        W49218  17.321   8.648  11.585
84234W        W49219  42.773  29.510   1.344
84235W        W49220  39.301  16.870  11.715
84236W        W49221  22.313  29.106  13.537
84237W        W49222   8.180  19.563  14.446
84238W        W49223  14.564   3.446  12.263
84239W        W49224  41.244  38.499  12.673
84240W        W49225  10.103  26.697  13.995
84241W        W49226  10.346   4.785  13.046
84242W        W49227   8.189  39.358  14.128
84243W        W49228  33.439  24.072  12.766
84244W        W49229   6.444  38.912  11.521
84245W        W49230  21.559  29.793   2.473
84246W        W49231   4.272  20.528   0.834
84247W        W49232  39.444  21.569  14.762
84248W        W49233  32.480  34.852   3.812
84249W        W49234  27.297   1.031   2.735
84250W        W49235  18.064  40.563   4.203
84251W        W49236  18.710   2.768  13.709
84252W        W49237  39.406   4.261   2.773
84253W        W49238   2.090  42.500   1.919
84254W        W49239  24.548  16.691  12.574
84255W        W49240  11.703  17.335   2.872
84256W        W49241  35.618  16.612   2.692
84257W        W49242  12.171  37.364   2.878
84258W        W49243  17.974  42.990  13.833
84259W        W49244   6.655  20.722  13.568
84260W        W49245  38.371  40.443  13.957
84261W        W49246  41.210  33.975   3.255
84262W        W49247  41.608  28.067  14.709
84263W        W49248  13.099  31.634   0.206
84264W        W49249  26.661  11.672   0.038
84265W        W49250   6.472  16.245   3.918
84266W        W49251  40.719  37.460  11.106
84267W        W49252  21.484   3.572   0.391
84268W        W49253  29.102  34.705  13.292
84269W        W49254  41.233  23.863  11.531
84270W        W49255  22.377  32.805   2.823
84271W        W49256  41.240  10.276   2.293
84272W        W49257  23.979  21.984  12.120
84273W        W49258   3.997  15.073   0.919
84274W        W49259  23.067  40.925   4.695
84275W        W49260  26.027   3.200   2.213
84276W        W49261   4.305  30.522   3.392
84277W        W49262  26.286  15.035   2.594
84278W        W49263   1.770  20.185  10.527
84279W        W49264  29.458   2.966  11.081
84280W        W49265  12.327  42.551  12.545
84281W        W49266  24.003  31.996   3.236
84282W        W49267  30.764   7.009   0.276
84283W        W49268  41.029  30.059   0.361
84284W        W49269  42.348   7.371  13.010
84285W        W49270   9.347  23.694   3.156
84286W        W49271  25.153  14.127   1.238
84287W        W49272  44.442  13.623   0.479
84288W        W49273  23.499  25.236   4.604
84289W        W49274  24.029  20.043  14.395
84290W        W49275   0.018  15.492   4.609
84291W        W49276  24.906  41.515   0.378
84292W        W49277  42.513  28.655  14.269
84293W        W49278  11.814  28.248  11.673
84294W        W49279  14.176  34.294  12.086
84295W        W49280  36.010  19.165   2.923
84296W        W49281   7.957  32.904   3.396
84297W        W49282  10.788  27.777   3.275
84298W        W49283  43.836  32.916  14.584
84299W        W49284  36.531  18.064  14.348
84300W        W49285  12.192  22.941   1.221
84301W        W49286  39.854  28.127   0.731
84302W        W49287   3.816  25.772  11.704
84303W        W49288  24.524  16.238   4.054
84304W        W49289  12.349  26.152   2.100
84305W        W49290  31.038   1.486   4.414
84306W        W49291  16.794   4.174  12.033
84307W        W49292   3.917  29.519  14.062
84308W        W49293  15.559  17.581  14.820
84309W        W49294   3.887  24.568  10.718
84310W        W49295  40.759  41.262  14.332
84311W        W49296  11.310  21.581   2.437
84312W        W49297  37.073  35.909   4.764
84313W        W49298   7.345  20.752   1.698
84314W        W49299  30.654   5.735  14.958
84315W        W49300  20.113  41.736  14.827
84316W        W49301   3.425   0.696   2.714
84317W        W49302  27.904  10.216  13.846
84318W        W49303  33.363  23.475  14.039
84319W        W49304  36.965   5.278   0.955
84320W        W49305  38.911  43.757   1.266
84321W        W49306  14.136  16.033  14.834
84322W        W49307  15.609   9.248   1.733
84323W        W49308   5.484  33.557  10.568
84324W        W49309  19.034  37.002   4.555
84325W        W49310  10.279  21.569  10.563
84326W        W49311  22.359   1.696  11.327
84327W        W49312  16.340  20.198   2.433
84328W        W49313  34.335  10.233  11.990
84329W        W49314   9.274  24.953   4.263
84330W        W49315  42.073  18.315  13.410
84331W        W49316  16.752  37.802  10.824
84332W        W49317  11.883  18.790   2.283
84333W        W49318  40.976  15.818  12.855
84334W        W49319  26.286   5.689  11.077
84335W        W49320  20.792  22.615   2.042
84336W        W49321  36.323  19.994  11.182
84337W        W49322  32.561  22.591   3.540
84338W        W49323   2.389  13.789  13.924
84339W        W49324  39.416  36.819  10.711
84340W        W49325  31.732   2.491  11.022
84341W        W49326  40.159  43.702  14.140
84342W        W49327   5.639  15.125  11.414
84343W        W49328  20.955  28.532   4.820
84344W        W49329  27.618  13.509   3.279
84345W        W49330  29.533  10.779   1.740
84346W        W49331  35.901  22.626  14.303
84347W        W49332  44.066   7.174   2.533
84348W        W49333  12.192   4.871   2.449
84349W        W49334  19.566  15.850  13.546
84350W        W49335   3.138  27.916  13.938
84351W        W49336  28.044  29.637  13.341
84352W        W49337  18.492  41.864  10.833
84353W        W49338  12.708   8.136   2.809
84354W        W49339  15.067  14.355   3.161
84355W        W49340  33.151  17.420  14.638
84356W        W49341  38.626  20.471  13.860
84357W        W49342  38.700  33.415   2.777
84358W        W49343  19.315  29.547  11.813
84359W        W49344  37.279  22.673   3.160
84360W        W49345   4.939  13.179  12.362
84361W        W49346  16.223  21.228  10.573
84362W        W49347  27.594   1.654  12.833
84363W        W49348  23.610  17.629  12.657
84364W        W49349  22.252   8.452  12.988
84365W        W49350  16.252  37.077   3.224
84366W        W49351  10.834  12.556  10.722
84367W        W49352  38.411  21.296  12.878
84368W        W49353  22.028  29.683   1.362
84369W        W49354  11.111  25.228   2.215
84370W        W49355  37.971  36.847  13.478
84371W        W49356  31.588  10.824   4.121
84372W        W49357  16.579   8.842   0.974
84373W        W49358   9.738  11.092   0.814
84374W        W49359  30.171  24.911  13.584
84375W        W49360   9.339   8.206   4.022
84376W        W49361  10.736   7.370  10.736
84377W        W49362   0.771   4.153  11.184
84378W        W49363  31.480   2.459  13.679
84379W        W49364  33.354  44.749   1.773
84380W        W49365  40.376  40.757  13.487
84381W        W49366  11.819  14.215   3.722
84382W        W49367  29.659   8.206   0.942
84383W        W49368  36.347   9.205   1.222
84384W        W49369   2.264  21.449  14.940
84385W        W49370   0.055  17.671   3.711
84386W        W49371  28.518  11.874  11.565
84387W        W49372  21.388  14.621   3.800
84388W        W49373  22.515  23.055   2.060
84389W        W49374  38.086   8.350  13.892
84390W        W49375  11.561  24.161  10.238
84391W        W49376  32.044  28.252   3.280
84392W        W49377  26.615   6.981   1.940
84393W        W49378   9.252   6.594   1.086
84394W        W49379  29.700  25.188   4.140
84395W        W49380  22.945  14.167   2.798
84396W        W49381  29.167  28.992  13.000
84397W        W49382  31.645  14.172  12.003
84398W        W49383  38.469  13.153   4.697
84399W        W49384  27.157  21.910   4.971
84400W        W49385   9.222  33.463  11.686
84401W        W49386  41.096   8.153   1.861
84402W        W49387  12.710  28.885   1.798
84403W        W49388  40.262  30.700   4.123
84404W        W49389   8.300  21.457  13.950
84405W        W49390  20.653  28.367  13.373
84406W        W49391   1.638  29.012  14.210
84407W        W49392  19.881  17.488  10.314
84408W        W49393  42.871  40.984   4.566
84409W        W49394   5.875   4.759   1.938
84410W        W49395  22.633  17.231   4.072
84411W        W49396  31.646  11.122   3.673
84412W        W49397   1.184  33.760  11.621
84413W        W49398  20.259  13.493   1.261
84414W        W49399  43.404   2.374  10.591
84415W        W49400  38.444  22.577  13.455
84416W        W49401  37.812  41.055  13.457
84417W        W49402  44.780  17.544   1.530
84418W        W49403  42.212  32.397  12.089
84419W        W49404  42.244  41.532  11.571
84420W        W49405  23.525  15.216  12.429
84421W        W49406  42.289  26.566  11.193
84422W        W49407  27.703  42.809   4.572
84423W        W49408  27.411   1.718  14.354
84424W        W49409  36.809   1.423  14.038
84425W        W49410   0.356  39.885  11.057
84426W        W49411  32.535  26.989  13.011
84427W        W49412  19.045  31.613   2.384
84428W        W49413  38.427  11.087   2.229
84429W        W49414  28.732  38.448   3.159
84430W        W49415  21.592   3.386  11.095
84431W        W49416  41.903  31.970   3.658
84432W        W49417   7.385  14.196   0.459
84433W        W49418  14.070  12.892   1.856
84434W        W49419  23.186  17.078  14.897
84435W        W49420  37.849  42.050  12.531
84436W        W49421  41.109  23.155   2.749
84437W        W49422   3.307  23.489  13.971
84438W        W49423  38.089   6.768   1.147
84439W        W49424   1.801  34.427   0.366
84440W        W49425  13.412  35.677  12.654
84441W        W49426  44.896  26.200   1.099
84442W        W49427  11.759  29.439   0.923
84443W        W49428  33.309  17.177  12.939
84444W        W49429   7.735  19.230   3.259
84445W        W49430  20.295  39.050   1.756
84446W        W49431  13.595  19.061  10.711
84447W        W49432  35.836  20.156   4.713
84448W        W49433  17.062  24.436   0.491
84449W        W49434  36.918  33.531  13.421
84450W        W49435  39.996  23.639   1.853
84451W        W49436  36.044   1.906  11.602
84452W        W49437   3.511  18.249   2.656
84453W        W49438  18.298  32.527  10.548
84454W        W49439  42.702  21.617   4.138
84455W        W49440   5.384  16.850  13.965
84456W        W49441   6.856  36.445   3.333
84457W        W49442  18.658  15.777   4.987
84458W        W49443  39.550  38.577  11.425
84459W        W49444  19.562  44.397  14.318
84460W        W49445  36.818   9.248  14.956
84461W        W49446  42.505  19.247  13.336
84462W        W49447   8.182  33.692  10.747
84463W        W49448  19.623  13.590   1.795
84464W        W49449  24.643   9.189   0.511
84465W        W49450  30.082  23.395  14.569
84466W        W49451  42.800  18.167  13.920
84467W        W49452  19.657  15.643  13.088
84468W        W49453   0.358   4.361   2.880
84469W        W49454  24.683  18.847  11.608
84470W        W49455   0.937  13.966  12.897
84471W        W49456   7.877  43.324   0.948
84472W        W49457  18.793  12.787   3.494
84473W        W49458  38.943  31.093   0.797
84474W        W49459   3.920  39.235  12.372
84475W        W49460  17.819  35.873  12.382
84476W        W49461  31.742  25.179  12.573
84477W        W49462  44.495  15.251   1.278
84478W        W49463   1.846  33.156  11.067
84479W        W49464   4.229   2.575   0.342
84480W        W49465  43.555  42.473  11.168
84481W        W49466  20.213  37.584  10.326
84482W        W49467  14.148  22.703  14.807
84483W        W49468  25.636  14.235   4.226
84484W        W49469  11.734  37.706  12.013
84485W        W49470   9.799  30.000   4.820
84486W        W49471  22.121  13.555  12.510
84487W        W49472   2.794  13.922   1.741
84488W        W49473  21.529  22.602   4.647
84489W        W49474  20.235   3.701   1.871
84490W        W49475   8.761  17.007   4.285
84491W        W49476  12.266   2.790   2.267
84492W        W49477  24.238  39.312   3.268
84493W        W49478  38.465  21.042   2.846
84494W        W49479  24.069  34.615  14.255
84495W        W49480   7.357  20.786   2.761
84496W        W49481   7.608  30.523   2.159
84497W        W49482  19.218  31.002   3.626
84498W        W49483  38.443   5.601   4.691
84499W        W49484  24.781  41.978   1.205
84500W        W49485  39.292   2.158  12.559
84501W        W49486   5.450  13.122   4.692
84502W        W49487   9.216   3.895   3.402
84503W        W49488  43.009  33.492   3.363
84504W        W49489  30.091  29.698   0.789
84505W        W49490  23.010   3.506   1.387
84506W        W49491   7.014  31.192   2.370
84507W        W49492  33.898  17.833   0.341
84508W        W49493   0.789  33.251   0.789
84509W        W49494  29.854  13.145  13.064
84510W        W49495  10.252  19.004  12.629
84511W        W49496  32.337  41.889   0.312
84512W        W49497   0.905  42.366  13.154
84513W        W49498  30.268  11.400   1.157
84514W        W49499  24.394   2.368   9.855
84515W        W49500  33.337   0.947  13.463
84516W        W49501   1.903  35.110  11.133
84517W        W49502  32.686  21.666   2.211
84518W        W49503  15.376  18.664   1.858
84519W        W49504   5.895   8.223  12.693
84520W        W49505  44.470  11.117   2.343
84521W        W49506   5.253  44.204   0.898
84522W        W49507  33.074  11.287  14.020
84523W        W49508  17.831  11.976   0.409
84524W        W49509  30.158  16.866   2.657
84525W        W49510   3.084  35.022   4.714
84526W        W49511  10.579   1.787   2.893
84527W        W49512  30.429   1.563  11.080
84528W        W49513  10.605  12.295  13.981
84529W        W49514  31.742  40.066  11.652
84530W        W49515  24.211  39.133  12.910
84531W        W49516  18.604  16.656   1.401
84532W        W49517  40.051   3.984  12.324
84533W        W49518  22.600  33.374   3.673
84534W        W49519   9.673  44.885  13.895
84535W        W49520  33.687  42.070   4.153
84536W        W49521  32.467   5.626  14.789
84537W        W49522  30.668   1.181   1.395
84538W        W49523  26.964  41.774   0.214
84539W        W49524  15.033  39.984   4.938
84540W        W49525  30.370  35.412   4.947
84541W        W49526  10.698  28.937  11.432
84542W        W49527  39.340  39.597   4.122
84543W        W49528  17.558  33.673  10.626
84544W        W49529   9.948  39.861  12.429
84545W        W49530  25.812  34.083  11.930
84546W        W49531  16.955   7.221   4.936
84547W        W49532   0.296   1.724  13.432
84548W        W49533  35.432   4.388   1.405
84549W        W49534   8.534  21.126  14.341
84550W        W49535  44.873  28.564   3.823
84551W        W49536  37.635  15.335  11.175
84552W        W49537  26.698   2.152   2.995
84553W        W49538  36.466   6.002  12.092
84554W        W49539  16.292   6.896   2.303
84555W        W49540  34.040   5.017   1.922
84556W        W49541   0.093  25.556  12.600
84557W        W49542  15.317  32.848  12.613
84558W        W49543  35.150  18.649  13.127
84559W        W49544  19.076   5.454   2.848
84560W        W49545   5.356  13.233   2.922
84561W        W49546  32.720   1.313  13.890
84562W        W49547  20.126  40.455   2.119
84563W        W49548  38.249  10.973  13.567
84564W        W49549  17.946  22.636   2.078
84565W        W49550   3.343   8.051   0.932
84566W        W49551  13.674   6.341   3.113
84567W        W49552  31.446  14.285   2.156
84568W        W49553  38.282  18.089   2.688
84569W        W49554  26.696  25.650  11.471
84570W        W49555  24.063  24.962  12.135
84571W        W49556  24.060  35.395  12.974
84572W        W49557   4.839  10.342  12.094
84573W        W49558  14.136  42.908   1.554
84574W        W49559  22.183  13.938  11.590
84575W        W49560  40.314   0.792  12.050
84576W        W49561  42.720  37.370  12.487
84577W        W49562  38.745   6.428  13.691
84578W        W49563  35.193  15.603  11.272
84579W        W49564  40.086  24.105  13.881
84580W        W49565  25.433  41.765  11.659
84581W        W49566  28.607   9.337   0.312
84582W        W49567  19.513   6.992   2.344
84583W        W49568  31.323  15.746   1.279
84584W        W49569  27.013  42.427  13.898
84585W        W49570   3.579   1.144   0.260
84586W        W49571   1.837  25.547  10.793
84587W        W49572  39.802  12.160  11.111
84588W        W49573  36.579  19.088  14.297
84589W        W49574  18.217  28.690   2.809
84590W        W49575  18.578   6.274   3.222
84591W        W49576  18.499   2.531  11.480
84592W        W49577  14.869   6.898   4.992
84593W        W49578  38.189  15.565   0.794
84594W        W49579  36.163  14.064  11.057
84595W        W49580  13.340  37.037   3.184
84596W        W49581  34.058  30.951   2.682
84597W        W49582  35.493  32.406  14.955
84598W        W49583  18.453   8.354   3.159
84599W        W49584  43.127  30.040  10.476
84600W        W49585  10.948  30.115   4.959
84601W        W49586  13.158  26.761  12.920
84602W        W49587  11.205  24.336   2.653
84603W        W49588  32.052   2.711  12.670
84604W        W49589  32.087   3.954  13.296
84605W        W49590  29.862   2.231   4.228
84606W        W49591   4.245  12.303  11.494
84607W        W49592  15.765  13.843   3.666
84608W        W49593   8.345   7.148  13.407
84609W        W49594  10.757  24.206   2.891
84610W        W49595  39.535  13.318  13.378
84611W        W49596  39.366  19.559  10.663
84612W        W49597   0.038   9.956  11.146
84613W        W49598  35.325   9.674   0.899
84614W        W49599  23.595  26.016   0.954
84615W        W49600   0.474  26.604  10.304
84616W        W49601  17.246  15.875  11.884
84617W        W49602  12.861  22.611  13.479
84618W        W49603  22.740  21.042  14.865
84619W        W49604  27.013   7.198  10.573
84620W        W49605  19.597   0.018  13.548
84621W        W49606  38.053  15.324   0.307
84622W        W49607  26.198   8.971   4.865
84623W        W49608  30.556  20.053  13.451
84624W        W49609  43.773  33.081  11.272
84625W        W49610  38.115  12.201   2.403
84626W        W49611  30.171  41.001  12.453
84627W        W49612  12.389   0.287  14.510
84628W        W49613  38.380  14.462   2.299
84629W        W49614   7.396  16.374   4.332
84630W        W49615  17.275  32.491  13.043
84631W        W49616  32.443   3.800   4.420
84632W        W49617  37.128   6.145  13.902
84633W        W49618  12.704  24.780   2.301
84634W        W49619  43.813  38.100   3.603
84635W        W49620  25.932  28.940  13.030
84636W        W49621  20.345  34.452  14.512
84637W        W49622  19.359  28.492   0.475
84638W        W49623  13.809  16.120   2.225
84639W        W49624  10.171   7.845  11.208
84640W        W49625  22.471   9.215  13.506
84641W        W49626  10.092  29.616  12.104
84642W        W49627  34.673   0.312  14.784
84643W        W49628   5.985  13.682  13.875
84644W        W49629  28.277   5.189   3.189
84645W        W49630  30.717  12.813  14.486
84646W        W49631  44.162  33.084  13.607
84647W        W49632  24.081  33.505   2.706
84648W        W49633  31.969  28.687  10.803
84649W        W49634   5.959  37.809  11.956
84650W        W49635  20.828  33.522  12.141
84651W        W49636   5.029  39.432   4.577
84652W        W49637  18.067  20.949   3.123
84653W        W49638  21.262  39.463   1.136
84654W        W49639   9.857   0.849   2.695
84655W        W49640  35.813  19.788  14.263
84656W        W49641  41.843  24.589  11.614
84657W        W49642  11.533  36.057   3.661
84658W        W49643  20.624  25.429   0.522
84659W        W49644  44.215  22.627  12.564
84660W        W49645   5.923  38.613  13.592
84661W        W49646   7.703  39.218  11.444
84662W        W49647  10.289  40.939   0.648
84663W        W49648  20.562   6.682  12.446
84664W        W49649  43.303  36.098   0.824
84665W        W49650  15.889  27.006  14.877
84666W        W49651   4.965  29.985   1.452
84667W        W49652   3.248  15.126  12.993
84668W        W49653  34.583  25.097  12.830
84669W        W49654  12.283  21.897   4.540
84670W        W49655  25.922   5.908  10.787
84671W        W49656  44.315   9.395   0.945
84672W        W49657  27.027  28.982   3.204
84673W        W49658  41.464  34.441  14.773
84674W        W49659  34.693   2.156  14.848
84675W        W49660  35.299  16.941   2.320
84676W        W49661  14.271  16.229  13.994
84677W        W49662   6.308  23.854   0.349
84678W        W49663  38.294  35.863   2.592
84679W        W49664  15.643  26.248   4.607
84680W        W49665  36.380   5.852  14.151
84681W        W49666  28.959  13.320   3.360
84682W        W49667  41.326  16.139   1.363
84683W        W49668  34.999  29.381  12.127
84684W        W49669  28.464   5.739   0.794
84685W        W49670  20.803  44.111   0.710
84686W        W49671   1.932  22.776   2.770
84687W        W49672  23.557  30.213  13.296
84688W        W49673   9.932  37.416  12.458
84689W        W49674  33.122   4.884  13.477
84690W        W49675  43.367  40.729  13.011
84691W        W49676  30.963  26.143   0.868
84692W        W49677  24.608  22.109  10.720
84693W        W49678  37.148   5.853   4.102
84694W        W49679  36.931  17.636  12.533
84695W        W49680   1.960   2.447   2.901
84696W        W49681  42.946   2.815   2.998
84697W        W49682  23.035   6.321   1.956
84698W        W49683  11.894  24.619   2.125
84699W        W49684  12.270  22.940  12.468
84700W        W49685  35.587  24.105   4.089
84701W        W49686  19.506  19.310   3.550
84702W        W49687  42.772  32.729   0.214
84703W        W49688  10.720  42.233  10.646
84704W        W49689  20.571  43.720   4.145
84705W        W49690  28.223  24.567   3.423
84706W        W49691  20.205  38.355  14.666
84707W        W49692   0.527  28.718  11.576
84708W        W49693  14.679  14.729   3.134
84709W        W49694  35.535  27.578  12.475
84710W        W49695  11.656  20.977  14.902
84711W        W49696  15.490  34.517   3.670
84712W        W49697  43.432  41.041   2.510
84713W        W49698  18.291  28.374   2.159
84714W        W49699  32.135   5.293  13.463
84715W        W49700   8.475  32.003  12.818
84716W        W49701  36.690  32.638  12.162
84717W        W49702  27.887   3.769   4.337
84718W        W49703  42.780   5.756  11.565
84719W        W49704  26.478   0.063   2.109
84720W        W49705  30.124   1.827   0.478
84721W        W49706  20.671  40.472   3.809
84722W        W49707  23.665  33.354   0.358
84723W        W49708  12.576  17.544  14.464
84724W        W49709  18.351  16.987  14.672
84725W        W49710  33.053   3.263   4.888
84726W        W49711   4.807   1.188  14.121
84727W        W49712   9.326  20.739   2.559
84728W        W49713  15.380  11.864  11.061
84729W        W49714  40.484  25.847   2.060
84730W        W49715  28.644  43.089  11.402
84731W        W49716  18.889  43.390  10.866
84732W        W49717  24.948  26.521  13.418
84733W        W49718  14.223  12.702  11.648
84734W        W49719   0.841  13.944  13.801
84735W        W49720  16.837   6.698  14.355
84736W        W49721  41.117  18.830   3.117
84737W        W49722  36.614  14.718  13.545
84738W        W49723  29.577  41.115  10.752
84739W        W49724   8.695   1.367   0.677
84740W        W49725  29.514  20.541  10.664
84741W        W49726   9.155  11.172   2.492
84742W        W49727   9.820  26.286   1.298
84743W        W49728   4.882  36.922   1.053
84744W        W49729   2.195  42.476   0.823
84745W        W49730  42.561  40.010  12.536
84746W        W49731  21.564   9.953   3.175
84747W        W49732   4.321   3.055   0.388
84748W        W49733  23.948  33.419   3.598
84749W        W49734  36.530  21.802   0.413
84750W        W49735  32.109   7.755   2.834
84751W        W49736   5.730  28.079   0.227
84752W        W49737  31.600   2.311   1.658
84753W        W49738  10.934   4.253  12.502
84754W        W49739  43.973  38.658  10.833
84755W        W49740   8.736  20.997  10.712
84756W        W49741   4.866  11.109  11.154
84757W        W49742  22.002  38.394  10.374
84758W        W49743  28.179  20.746   4.766
84759W        W49744  35.543  29.218   2.677
84760W        W49745  37.658   7.219   2.219
84761W        W49746  37.764  33.917   3.358
84762W        W49747  38.740  35.943  14.987
84763W        W49748  31.002  13.768   4.649
84764W        W49749  16.516  27.906  12.831
84765W        W49750   3.429  24.643   1.836
84766W        W49751  20.240  14.263   3.141
84767W        W49752   8.897  20.352  13.232
84768W        W49753  12.377  20.536  13.288
84769W        W49754   6.182  14.298  13.411
84770W        W49755  38.572   4.226   2.188
84771W        W49756  40.008  35.100   2.502
84772W        W49757  28.567  30.227  13.025
84773W        W49758  22.120  39.000  11.563
84774W        W49759  28.237  37.093  12.967
84775W        W49760   6.306  30.489   4.290
84776W        W49761  37.006   9.687  13.989
84777W        W49762  11.800   2.281  13.073
84778W        W49763  44.601  20.650   4.789
84779W        W49764  29.991  34.862  10.744
84780W        W49765  36.359   7.457   2.713
84781W        W49766  37.393  11.676   1.474
84782W        W49767  21.730   4.608   1.348
84783W        W49768  31.993   7.933  12.031
84784W        W49769  28.637  26.580   2.554
84785W        W49770  38.120  21.332  11.289
84786W        W49771  18.799  35.483   3.408
84787W        W49772  37.479   8.909   4.161
84788W        W49773  18.773  32.353   4.101
84789W        W49774  30.916   5.738   4.063
84790W        W49775  36.089  33.622   1.849
84791W        W49776  21.458  20.157   3.748
84792W        W49777  11.686   7.349  12.283
84793W        W49778  10.332   3.437   0.741
84794W        W49779  39.867  10.300   4.351
84795W        W49780   5.224  26.870  14.745
84796W        W49781  20.402  43.867  14.206
84797W        W49782  19.678  31.049  11.189
84798W        W49783  38.487  19.503   1.295
84799W        W49784  31.977  37.330   2.741
84800W        W49785   9.642  24.243   0.005
84801W        W49786  34.414  36.363   4.419
84802W        W49787  21.140  38.456  12.035
84803W        W49788  28.560  15.342   3.676
84804W        W49789   0.981  42.749  11.644
84805W        W49790  23.519  10.214  14.929
84806W        W49791  15.050  39.387   1.680
84807W        W49792  33.538   5.694   3.351
84808W        W49793  25.433  25.142  11.917
84809W        W49794   5.593  30.900   1.103
84810W        W49795  34.956  12.665  14.940
84811W        W49796  40.995  22.483   1.364
84812W        W49797  29.431   0.239   4.053
84813W        W49798  43.029  41.099  10.636
84814W        W49799  33.362  37.341   4.434
84815W        W49800  23.695  23.150  11.060
84816W        W49801  34.420  35.352  11.818
84817W        W49802  13.785  15.168   2.370
84818W        W49803  23.615  42.291  14.969
84819W        W49804  21.656  36.278  11.290
84820W        W49805  44.759   4.826   1.970
84821W        W49806  35.491  33.435  14.859
84822W        W49807  12.699   1.041   2.278
84823W        W49808  16.243  36.283  11.958
84824W        W49809  22.118  40.426   3.350
84825W        W49810  42.907  19.594   1.009
84826W        W49811   3.656  13.734  13.413
84827W        W49812  27.047  20.450   2.477
84828W        W49813  33.834   2.769  11.619
84829W        W49814  39.232  16.787  11.215
84830W        W49815  16.325  16.927  13.541
84831W        W49816   9.276  38.309   3.173
84832W        W49817  22.724  23.910   4.226
84833W        W49818  14.978  33.196   5.067
84834W        W49819  39.001   8.652   1.808
84835W        W49820  15.794  34.934   3.706
84836W        W49821   5.748  21.542  10.593
84837W        W49822  21.884  11.068  13.789
84838W        W49823  39.382   2.197   0.692
84839W        W49824  16.090  33.394  12.396
84840W        W49825  39.810  31.404   2.074
84841W        W49826  27.214  27.719  14.032
84842W        W49827  44.800   1.086   1.313
84843W        W49828  41.386   8.381  13.384
84844W        W49829  40.884   6.053   1.818
84845W        W49830  30.183  44.949   3.359
84846W        W49831   9.647  23.111   2.153
84847W        W49832   7.134  25.309  12.043
84848W        W49833  28.818   4.774   0.772
84849W        W49834   8.325  43.717  12.986
84850W        W49835  18.114  18.526  10.629
84851W        W49836   7.742  20.505   3.695
84852W        W49837   0.318  36.969   2.328
84853W        W49838  30.005  23.651   1.974
84854W        W49839  37.609  31.575   1.900
84855W        W49840  25.580   5.724   5.491
84856W        W49841  34.152  26.644  12.099
84857W        W49842  38.768  36.083   2.705
84858W        W49843  44.885  24.506  10.591
84859W        W49844  22.982   6.464  12.593
84860W        W49845  30.228  24.515  11.196
84861W        W49846  28.150   7.954  12.561
84862W        W49847  35.950  20.018   0.462
84863W        W49848  43.404  41.067  12.622
84864W        W49849   7.181  25.308  14.851
84865W        W49850  29.706  31.175   4.107
84866W        W49851   9.983  18.157  14.385
84867W        W49852  10.104  37.947   4.014
84868W        W49853   3.348  42.006   0.408
84869W        W49854  36.428   1.881   4.346
84870W        W49855  13.840   7.168  10.867
84871W        W49856   5.785  43.544   3.776
84872W        W49857  21.668   5.295  12.345
84873W        W49858  10.724  26.274  14.457
84874W        W49859  37.804  30.424  12.717
84875W        W49860  28.072  42.764   5.003
84876W        W49861  19.022  15.218  13.008
84877W        W49862  27.970   5.206   0.581
84878W        W49863  29.992   0.580  12.534
84879W        W49864  21.522  28.197   3.597
84880W        W49865  28.102   2.487  14.332
84881W        W49866  17.072  15.468  13.859
84882W        W49867   6.245  31.497   4.807
84883W        W49868  30.513  24.855   4.393
84884W        W49869  23.169  23.381   4.621
84885W        W49870   4.446   4.795  12.503
84886W        W49871   6.279  14.121  10.690
84887W        W49872  27.578   4.204  13.909
84888W        W49873  22.111  25.158   3.268
84889W        W49874  24.626  16.175  12.655
84890W        W49875  20.688   8.372  13.790
84891W        W49876  44.831  12.107   4.276
84892W        W49877  37.039  31.496  11.206
84893W        W49878  16.641  22.195  11.580
84894W        W49879  25.171  25.211   4.097
84895W        W49880   8.256   5.451  11.912
84896W        W49881  19.517  40.681  10.799
84897W        W49882  11.856  35.546   0.927
84898W        W49883  28.407  11.733  14.118
84899W        W49884  39.445  13.171   0.517
84900W        W49885  25.974  10.731  14.623
84901W        W49886  22.337  25.098  10.264
84902W        W49887   9.120  40.757   1.294
84903W        W49888  25.326   7.294  12.007
84904W        W49889  10.041  15.404   3.730
84905W        W49890  33.474  43.536  10.640
84906W        W49891  25.782  42.947   1.619
84907W        W49892   4.968   1.871   3.871
84908W        W49893  30.551   0.463   0.445
84909W        W49894   8.106  12.711   3.985
84910W        W49895  33.651  26.486  11.990
84911W        W49896  12.596  25.264   2.189
84912W        W49897  10.612  38.523  12.432
84913W        W49898   7.966  36.580  13.476
84914W        W49899  42.512  12.802   2.115
84915W        W49900  10.716   4.840   5.088
84916W        W49901  18.573  33.657   4.696
84917W        W49902  28.496  29.974  11.549
84918W        W49903  10.833   6.328   2.923
84919W        W49904  18.795  11.844   0.815
84920W        W49905   0.889  26.595   1.276
84921W        W49906  30.437  26.603   1.363
84922W        W49907  39.917  28.431   1.612
84923W        W49908  33.093  33.172  12.524
84924W        W49909  37.555  19.791  14.104
84925W        W49910  11.661  38.139  13.343
84926W        W49911   2.286  16.490   0.288
84927W        W49912  13.678  32.437   3.847
84928W        W49913  17.088  11.880   1.530
84929W        W49914  44.253  24.900   1.821
84930W        W49915  29.938  35.196  12.371
84931W        W49916   5.607  34.945  11.852
84932W        W49917   1.811  39.578   3.226
84933W        W49918   8.850  20.987   0.189
84934W        W49919  33.470  28.670  11.746
84935W        W49920   4.769  20.344   0.750
84936W        W49921   5.798  41.644   2.233
84937W        W49922  44.515  21.736   3.662
84938W        W49923  13.740  17.389   0.425
84939W        W49924  15.110  25.162   3.699
84940W        W49925  41.787  10.717  10.976
84941W        W49926  32.855   0.509  12.278
84942W        W49927   5.166  42.510  14.961
84943W        W49928   2.383  43.245   1.626
84944W        W49929  40.391  27.955  14.516
84945W        W49930  30.160  43.564  12.607
84946W        W49931  19.205  13.405  12.487
84947W        W49932  20.948   0.995  13.051
84948W        W49933  15.528   6.423  11.949
84949W        W49934   5.234  23.574   1.390
84950W        W49935  12.829   8.958   3.150
84951W        W49936  22.678  17.275   4.727
84952W        W49937   9.359  30.442   3.078
84953W        W49938  12.498  10.238   4.545
84954W        W49939  35.285  43.131   2.219
84955W        W49940  22.921  17.794   3.649
84956W        W49941  43.369  25.642   1.248
84957W        W49942  36.549  15.616  12.512
84958W        W49943  41.468  23.996  12.278
84959W        W49944  41.820   3.986  12.467
84960W        W49945  27.272  10.718   0.228
84961W        W49946  11.694   7.390   4.258
84962W        W49947   3.401  15.515   3.540
84963W        W49948  29.437  19.472   1.232
84964W        W49949   9.276  38.716  10.690
84965W        W49950  43.952  44.207  12.787
84966W        W49951  29.356  23.217  13.647
84967W        W49952   6.294   1.060   0.724
84968W        W49953   3.179  11.894  13.471
84969W        W49954   5.279  29.475   1.668
84970W        W49955  19.787  36.566   4.786
84971W        W49956  16.307  15.626   1.390
84972W        W49957  20.761  32.650  13.070
84973W        W49958  44.556  40.799   1.585
84974W        W49959  27.453   6.443   0.205
84975W        W49960  25.016  14.073  13.527
84976W        W49961   2.327  42.836  12.285
84977W        W49962  14.809  16.161  14.024
84978W        W49963  39.666   3.887  11.985
84979W        W49964   2.888  23.798  10.853
84980W        W49965  13.357  31.537   1.209
84981W        W49966   6.531  18.995  13.194
84982W        W49967  12.303  33.585   3.302
84983W        W49968  28.876  20.223  13.001
84984W        W49969  16.529   6.408   3.142
84985W        W49970   8.708  36.521  11.032
84986W        W49971  43.009  33.141  13.919
84987W        W49972   9.752   5.135   3.528
84988W        W49973  19.566  36.068  12.908
84989W        W49974  24.974  10.418   3.670
84990W        W49975   3.414  18.683  10.671
84991W        W49976  32.438  13.639   4.974
84992W        W49977  20.956  25.486   3.724
84993W        W49978  28.592   9.563  14.838
84994W        W49979  19.209  25.664   0.723
84995W        W49980  36.082  40.503  14.350
84996W        W49981  31.061  14.277  11.136
84997W        W49982  16.800  44.993  14.292
84998W        W49983   3.527  16.413   4.048
84999W        W49984   7.607  38.551  12.557
85000W        W49985   2.749  35.004   2.595
85001W        W49986   4.093  43.187   4.546
85002W        W49987   9.728  24.845   4.575
85003W        W49988  43.005   4.403   3.405
85004W        W49989  37.217  27.085  11.771
85005W        W49990  32.352  34.318  11.516
85006W        W49991  23.002   6.312  14.625
85007W        W49992  12.126  36.775  12.057
85008W        W49993  12.615  21.253   3.710
85009W        W49994  13.149  35.347  10.256
85010W        W49995   1.927  16.173   2.650
85011W        W49996  21.458  38.893  12.039
85012W        W49997  32.567  32.979  11.509
85013W        W49998  37.175  15.847   0.863
85014W        W49999  27.350  35.037  10.512
85015W        W50000  32.159  22.773   1.806
85016W        W50001  44.850  12.721  11.461
85017W        W50002   7.177  18.811  11.955
85018W        W50003  15.721   5.576  14.470
85019W        W50004  40.819   2.511   1.113
85020W        W50005  39.503  41.781   4.821
85021W        W50006   4.670   7.827   3.439
85022W        W50007   9.743  18.313   0.752
85023W        W50008  37.778  34.280   9.472
85024W        W50009   2.902   1.024  13.929
85025W        W50010  21.608  34.967  10.104
85026W        W50011  40.309  43.516   3.349
85027W        W50012   2.418  36.062   1.764
85028W        W50013  27.168   0.022   2.688
85029W        W50014  11.543  18.305  12.475
85030W        W50015   2.291  21.018   3.305
85031W        W50016   1.741   6.493   1.369
85032W        W50017  33.038  13.794  12.943
85033W        W50018  21.715  20.819  11.627
85034W        W50019  12.936  35.048  11.741
85035W        W50020  31.921   2.644   4.544
85036W        W50021  25.544  32.168   2.156
85037W        W50022  13.051  20.014  14.770
85038W        W50023  41.860  36.310   0.975
85039W        W50024  35.926  11.669  11.348
85040W        W50025  29.411  31.547   1.869
85041W        W50026  40.504  36.723  11.655
85042W        W50027   1.333  24.536   1.192
85043W        W50028  33.701  16.153   2.759
85044W        W50029  13.104  26.714  13.903
85045W        W50030  36.485  24.880  11.624
85046W        W50031  29.967  21.195  14.158
85047W        W50032  30.437  37.094   0.564
85048W        W50033  37.549  42.995  12.941
85049W        W50034  41.211  31.725  10.570
85050W        W50035  37.835   4.321  11.087
85051W        W50036  12.661   6.797  10.344
85052W        W50037  26.086  28.433  13.076
85053W        W50038   0.802  23.465   0.821
85054W        W50039  43.423  39.526   4.500
85055W        W50040  37.956  16.366  14.448
85056W        W50041  22.445  13.774  10.746
85057W        W50042  23.212  36.598   1.769
85058W        W50043  33.821  14.131  13.044
85059W        W50044  29.134  15.909   1.494
85060W        W50045  18.177   0.587  11.898
85061W        W50046   9.093  11.561  12.490
85062W        W50047  38.111  38.362   1.322
85063W        W50048   0.780  20.694  12.807
85064W        W50049  38.541  33.871   1.136
85065W        W50050  36.389   9.684  12.318
85066W        W50051  31.996   1.437   0.734
85067W        W50052   5.740   1.965   4.885
85068W        W50053  13.679  28.260   1.684
85069W        W50054  21.015  41.300  12.996
85070W        W50055  32.928  28.691  11.095
85071W        W50056   9.271  24.662  11.378
85072W        W50057   3.025  19.044   1.651
85073W        W50058  25.530  42.293   3.660
85074W        W50059  39.488  26.310  10.482
85075W        W50060  14.889  24.506   1.820
85076W        W50061   9.722  17.645   4.154
85077W        W50062  29.196  12.075  13.855
85078W        W50063   2.908  20.681   1.303
85079W        W50064  11.382  26.482  11.220
85080W        W50065  10.827  18.196  14.222
85081W        W50066   6.900  16.798  14.222
85082W        W50067  15.561  14.820  13.897
85083W        W50068  30.023  17.119   4.598
85084W        W50069  32.434  17.079  14.830
85085W        W50070   0.326  41.878  12.452
85086W        W50071  23.508  30.954   1.364
85087W        W50072  20.971  10.839  12.015
85088W        W50073  15.765  22.729  14.842
85089W        W50074   2.807  28.943  10.617
85090W        W50075  20.488  18.043  13.402
85091W        W50076  15.264  13.167   1.842
85092W        W50077  38.426   4.929   0.734
85093W        W50078  33.197  23.972  11.668
85094W        W50079  30.427  21.642  10.642
85095W        W50080  38.692  11.186   0.285
85096W        W50081  25.058  31.713  12.208
85097W        W50082  43.918  31.673  11.069
85098W        W50083  37.487  20.474  10.600
85099W        W50084  37.362  27.465  10.223
85100W        W50085  16.248  36.408  10.971
85101W        W50086  40.527  22.733   0.484
85102W        W50087  20.760  31.067   4.228
85103W        W50088  28.038   5.765   3.196
85104W        W50089  39.024   5.920   3.336
85105W        W50090  37.981   1.289   2.632
85106W        W50091  37.902  38.428  12.860
85107W        W50092  40.879  12.568  12.645
85108W        W50093  23.978  16.728   4.441
85109W        W50094  25.141  37.510   0.717
85110W        W50095  34.617   0.220  13.843
85111W        W50096   7.712  10.658  14.912
85112W        W50097  32.101  38.058   1.413
85113W        W50098   7.709  28.556   2.288
85114W        W50099  43.366  35.717   2.969
85115W        W50100  37.929  16.080  13.424
85116W        W50101  20.024  34.567   3.079
85117W        W50102  18.114  10.824  14.990
85118W        W50103  29.231  37.881  13.783
85119W        W50104   1.718   7.859   1.242
85120W        W50105   1.900  16.885  11.125
85121W        W50106  24.280  37.900   3.991
85122W        W50107  39.261   0.864   2.345
85123W        W50108  16.852  16.145   3.389
85124W        W50109  14.143  32.146  10.711
85125W        W50110  41.404  18.932   2.644
85126W        W50111  23.106   6.343   4.085
85127W        W50112  19.522  18.763  14.544
85128W        W50113  11.297  33.669  13.894
85129W        W50114  32.770  24.112  10.782
85130W        W50115  27.988  13.146   2.705
85131W        W50116  29.284  26.638  12.462
85132W        W50117  36.402  33.477  14.274
85133W        W50118  26.111  21.956  14.780
85134W        W50119   6.707  43.502   4.192
85135W        W50120   6.771   8.686   3.125
85136W        W50121   4.731  25.499   3.915
85137W        W50122  19.481  44.199  13.805
85138W        W50123  11.612   3.946   4.193
85139W        W50124  25.092   7.139   0.436
85140W        W50125  38.698  18.616   1.674
85141W        W50126  35.269  37.377  13.800
85142W        W50127  23.781  18.182   2.787
85143W        W50128  38.730  35.845  11.434
85144W        W50129  40.017  39.383   0.259
85145W        W50130  22.968  21.043   2.641
85146W        W50131  38.906   5.389   3.286
85147W        W50132   3.953  38.326  14.328
85148W        W50133  32.092  27.638  12.047
85149W        W50134  37.475  23.977   2.629
85150W        W50135  13.224  40.604  11.715
85151W        W50136   8.632  38.730   2.319
85152W        W50137  44.877  25.711   1.842
85153W        W50138  18.634  32.557   2.807
85154W        W50139  20.542  23.302  10.751
85155W        W50140   5.325  27.424   1.452
85156W        W50141  29.845  31.367  12.053
85157W        W50142   4.904  36.875   2.999
85158W        W50143  17.646  25.379  11.234
85159W        W50144  30.526  27.663   2.824
85160W        W50145   9.899  23.538  12.117
85161W        W50146   3.474  22.481   4.142
85162W        W50147  14.976  16.128  11.606
85163W        W50148  10.592  30.514   3.878
85164W        W50149  30.066  25.348  12.454
85165W        W50150  42.269  27.255  13.499
85166W        W50151  34.675  38.863  10.669
85167W        W50152   7.281  35.860  12.411
85168W        W50153   8.211   5.781  12.476
85169W        W50154   2.132  41.296  12.084
85170W        W50155  18.487  32.959  14.880
85171W        W50156  44.743   5.476   2.813
85172W        W50157  20.522  44.852  12.514
85173W        W50158  21.372  12.941  14.575
85174W        W50159  19.462  37.884  12.691
85175W        W50160  21.108   7.676  13.092
85176W        W50161  16.102  13.937  13.981
85177W        W50162  13.634  16.368  11.924
85178W        W50163  35.575  44.575  11.790
85179W        W50164   6.191   1.384  14.861
85180W        W50165  26.583  16.446   0.913
85181W        W50166  16.584  24.006   2.204
85182W        W50167  26.729  44.246  12.494
85183W        W50168  23.943  38.814  11.592
85184W        W50169  33.315  37.609   3.620
85185W        W50170  23.609  13.545   4.252
85186W        W50171   5.390   4.720  14.658
85187W        W50172  14.820  22.271   0.358
85188W        W50173  35.898  35.353   4.556
85189W        W50174  10.630  37.683  14.105
85190W        W50175  43.309   1.237  12.042
85191W        W50176   0.068  20.228  13.059
85192W        W50177  33.581  33.685  14.035
85193W        W50178  42.830  35.304   0.926
85194W        W50179   7.093   5.370   1.252
85195W        W50180  24.679  43.969  11.559
85196W        W50181  41.113  26.558  14.207
85197W        W50182  37.626  25.535  13.967
85198W        W50183   6.827  22.036   3.609
85199W        W50184  24.671  17.605  13.515
85200W        W50185  37.552  30.932  11.190
85201W        W50186   0.110  13.724  12.653
85202W        W50187  44.054  19.364  12.944
85203W        W50188  43.392   0.044  14.991
85204W        W50189  14.490  34.342   3.777
85205W        W50190  26.174  16.244  13.836
85206W        W50191  24.107  14.870  12.525
85207W        W50192  10.117  34.378  11.735
85208W        W50193  38.920  23.818  11.677
85209W        W50194  36.551  14.733  12.616
85210W        W50195   2.118  27.897   3.357
85211W        W50196  35.357   1.232   4.522
85212W        W50197  13.314  34.872   2.566
85213W        W50198   9.721  27.515  10.678
85214W        W50199  30.468  10.794   2.428
85215W        W50200   2.668  11.631   0.423
85216W        W50201  29.827  27.915  12.854
85217W        W50202  31.352  23.227  10.614
85218W        W50203  22.188  11.642   4.558
85219W        W50204  21.553  20.568   0.762
85220W        W50205  31.211  28.228  14.821
85221W        W50206  12.702  44.991   3.238
85222W        W50207  25.659   1.800   2.722
85223W        W50208  41.691  27.974   4.485
85224W        W50209   5.768  40.152   2.161
85225W        W50210   8.350  17.578  13.522
85226W        W50211  12.525   3.612  11.724
85227W        W50212  15.875  11.246   1.387
85228W        W50213  13.221  11.386   3.910
85229W        W50214  26.149  30.419  14.629
85230W        W50215  43.648  20.948   5.190
85231W        W50216  28.231  34.090   3.576
85232W        W50217   7.393   2.907  10.986
85233W        W50218   4.300  27.200  14.095
85234W        W50219   7.294  11.622  11.161
85235W        W50220  34.330  28.022   1.810
85236W        W50221  28.447  10.758   4.381
85237W        W50222  31.249  37.418   1.339
85238W        W50223  12.499  20.624  11.493
85239W        W50224  17.822   2.757  11.681
85240W        W50225  34.597   4.180  12.873
85241W        W50226  26.953  24.716   2.298
85242W        W50227  19.054   8.363   4.314
85243W        W50228  32.958  39.754   2.817
85244W        W50229  24.006   8.179  14.851
85245W        W50230   1.367  39.242   0.284
85246W        W50231  34.378  11.643   1.808
85247W        W50232  22.947   9.220   1.590
85248W        W50233   6.943  10.487  11.359
85249W        W50234  32.637   8.817  12.605
85250W        W50235   4.455  41.829   2.453
85251W        W50236  38.347  19.563  10.351
85252W        W50237   5.701  16.352  11.865
85253W        W50238   7.395  33.022   2.627
85254W        W50239  35.279  24.549  12.551
85255W        W50240   3.901  21.452  10.625
85256W        W50241  22.342  42.296  13.510
85257W        W50242   3.180  21.954  14.344
85258W        W50243  30.465  28.855   0.916
85259W        W50244  21.768  17.682   2.273
85260W        W50245  16.519   1.893   3.242
85261W        W50246  17.359  13.035  11.039
85262W        W50247  30.077   2.447  12.219
85263W        W50248  35.949  33.812  10.743
85264W        W50249   2.777  33.009   4.679
85265W        W50250  10.292  11.611   3.126
85266W        W50251  23.464  18.746   4.502
85267W        W50252  29.384  25.099   4.557
85268W        W50253  43.335  33.825   3.142
85269W        W50254   8.855  33.568   3.664
85270W        W50255   2.865  34.380   3.067
85271W        W50256  30.648   7.838   1.618
85272W        W50257  18.162  31.951  14.501
85273W        W50258  26.267  13.487   0.410
85274W        W50259  24.616  19.935   1.460
85275W        W50260  43.029  44.171   1.252
85276W        W50261  18.323  33.363  11.107
85277W        W50262  41.297  23.597  12.571
85278W        W50263  42.607  42.774  10.014
85279W        W50264  35.306   4.645   3.633
85280W        W50265   7.394  18.039  14.340
85281W        W50266  15.404  17.372   0.261
85282W        W50267  24.738  39.022  12.999
85283W        W50268  27.725  41.991   3.626
85284W        W50269  17.039  38.666   1.260
85285W        W50270   8.352  15.131   2.868
85286W        W50271  36.432  28.382   1.838
85287W        W50272   4.423   1.753   0.551
85288W        W50273  24.494   2.705  12.286
85289W        W50274  10.693   3.838  12.714
85290W        W50275   9.198  40.257   1.342
85291W        W50276  10.156   3.952   4.394
85292W        W50277  22.247  10.569  11.629
85293W        W50278  24.125  28.066   3.319
85294W        W50279  26.640  26.737  12.989
85295W        W50280   8.937  34.465  12.748
85296W        W50281   1.444   2.515  10.678
85297W        W50282  42.689  22.783  13.118
85298W        W50283  24.023   8.769   0.285
85299W        W50284   6.939  21.589  12.576
85300W        W50285  23.586   8.204   2.357
85301W        W50286  23.225   6.010   0.597
85302W        W50287  14.186  30.147  14.881
85303W        W50288  38.031  23.237  14.705
85304W        W50289  28.571  13.145  12.395
85305W        W50290  44.820  11.576   1.964
85306W        W50291  38.118  25.710  13.965
85307W        W50292   1.631  40.916  14.867
85308W        W50293   2.522  27.518   1.255
85309W        W50294   7.429  25.595  13.544
85310W        W50295  41.568  16.670   2.254
85311W        W50296  25.456  43.353   4.632
85312W        W50297  39.145  43.870  11.545
85313W        W50298  20.497  24.837  12.368
85314W        W50299  41.951   8.929  13.920
85315W        W50300  16.896  41.287   2.623
85316W        W50301  28.032  31.578   0.764
85317W        W50302  25.927  11.238   1.879
85318W        W50303  24.986  35.858   4.946
85319W        W50304   1.902  32.382  12.761
85320W        W50305  13.168  17.717   1.469
85321W        W50306  12.060  29.155  14.393
85322W        W50307  37.435   8.108   3.758
85323W        W50308  18.311   0.505   2.314
85324W        W50309  21.036  37.988   2.880
85325W        W50310  13.857  31.726   1.380
85326W        W50311  37.568   4.956  11.628
85327W        W50312   4.140   9.124   3.719
85328W        W50313  13.164  28.703  13.862
85329W        W50314  11.383  25.998  13.802
85330W        W50315  35.413  41.873   1.864
85331W        W50316  39.454  39.337   3.689
85332W        W50317  11.087  13.518   1.830
85333W        W50318   9.718  28.920  13.832
85334W        W50319  34.301  37.744   0.865
85335W        W50320  22.895  12.683  14.520
85336W        W50321  19.084  32.461   4.809
85337W        W50322  43.033  30.164   2.792
85338W        W50323  38.605  30.980  11.100
85339W        W50324   3.989  30.433   4.964
85340W        W50325  10.148  16.227   2.891
85341W        W50326  11.229   8.642   9.972
85342W        W50327  25.137  12.842  12.983
85343W        W50328  39.347  30.419   3.380
85344W        W50329  16.633   1.505   0.930
85345W        W50330  31.865   7.901   4.185
85346W        W50331  36.848   9.196   1.334
85347W        W50332  28.245  14.507  12.428
85348W        W50333  43.575   7.673  10.697
85349W        W50334  23.250   1.982   4.241
85350W        W50335  29.278  28.966  14.404
85351W        W50336  19.214  16.348  11.591
85352W        W50337  41.203  19.344  11.638
85353W        W50338  38.080  25.569   1.278
85354W        W50339   7.821  27.337  12.858
85355W        W50340  14.796  30.150   3.115
85356W        W50341   6.114  37.490   9.678
85357W        W50342  43.305  28.561  10.677
85358W        W50343  19.230  35.813   4.652
85359W        W50344  42.389  42.500   4.193
85360W        W50345  23.238  40.836   2.120
85361W        W50346  38.681   2.088   4.959
85362W        W50347  17.174   2.357  12.845
85363W        W50348  22.294  44.754  13.009
85364W        W50349  32.151   0.890   3.534
85365W        W50350  15.146  15.912  11.146
85366W        W50351  34.113  30.074   1.600
85367W        W50352  17.231  42.180  13.037
85368W        W50353  22.186  17.441  14.022
85369W        W50354   8.834  42.829  14.913
85370W        W50355   9.323  23.397  14.646
85371W        W50356  11.290  24.555  10.844
85372W        W50357  16.475  24.072  11.860
85373W        W50358  41.554  13.294  11.655
85374W        W50359  36.430  34.525   2.416
85375W        W50360  18.603  40.757  11.537
85376W        W50361  13.070  22.156  13.382
85377W        W50362  21.186  20.527  14.830
85378W        W50363  32.585  18.643  13.951
85379W        W50364  14.389  44.308   4.546
85380W        W50365  13.735  38.480   2.259
85381W        W50366  29.025  29.972  12.110
85382W        W50367  38.587   2.989  12.499
85383W        W50368   7.289  35.584   3.214
85384W        W50369  32.705  13.431   0.471
85385W        W50370  36.591  13.045  14.760
85386W        W50371  12.554  22.613   1.404
85387W        W50372  32.032  24.944   3.774
85388W        W50373  16.396  42.773   0.409
85389W        W50374  32.639  14.379  11.389
85390W        W50375  27.561   6.921   1.872
85391W        W50376  37.678  34.530   5.062
85392W        W50377  27.031  39.263   4.788
85393W        W50378  37.943   9.104   4.148
85394W        W50379  14.871   1.816   2.803
85395W        W50380   4.985  43.292   1.420
85396W        W50381  12.628  26.219  11.131
85397W        W50382  13.472  26.424   4.094
85398W        W50383  29.692   9.743   2.838
85399W        W50384  29.203  29.543   4.617
85400W        W50385  31.603  27.458   4.397
85401W        W50386  15.344  39.488  14.410
85402W        W50387   5.170  12.076  13.945
85403W        W50388  29.154   0.748   2.896
85404W        W50389  19.854  20.539   2.092
85405W        W50390  25.213  27.688  12.484
85406W        W50391  28.432  29.120  12.880
85407W        W50392  29.042  31.033   2.970
85408W        W50393  21.070  23.961  14.810
85409W        W50394  29.434   3.761   1.854
85410W        W50395   2.435   1.375  11.573
85411W        W50396  41.086  19.091  10.983
85412W        W50397  42.599  14.801   4.275
85413W        W50398  15.668  35.506  11.460
85414W        W50399  13.561  13.381  14.843
85415W        W50400   8.662  21.700   4.157
85416W        W50401  34.069  23.209  13.873
85417W        W50402  30.959   2.384   2.819
85418W        W50403  32.895  11.660  11.505
85419W        W50404  15.629  33.887   0.501
85420W        W50405   3.390  38.385   4.342
85421W        W50406  43.919  38.576  14.348
85422W        W50407   6.694   6.619   0.056
85423W        W50408   3.207  22.500   3.319
85424W        W50409  42.209  19.656  12.616
85425W        W50410  21.247  11.195   2.924
85426W        W50411   5.692  10.655  11.242
85427W        W50412   6.122  21.422   2.199
85428W        W50413   3.942  28.398  12.947
85429W        W50414  21.363  39.110  13.037
85430W        W50415  18.581  33.242  13.851
85431W        W50416  29.966   6.404  13.318
85432W        W50417  33.340  31.459   3.246
85433W        W50418   5.179  35.770   4.582
85434W        W50419  11.891  31.439   3.722
85435W        W50420  18.040   1.263  11.124
85436W        W50421   4.429  44.748   1.225
85437W        W50422  12.307  36.999   0.309
85438W        W50423  39.838  43.772  14.685
85439W        W50424  28.161  16.124  14.847
85440W        W50425  11.438  41.007   1.436
85441W        W50426   9.605  35.715   0.469
85442W        W50427   9.751   9.214   4.237
85443W        W50428  22.105  42.741   1.311
85444W        W50429  28.850  18.755   0.746
85445W        W50430  41.429  43.310   0.505
85446W        W50431  31.673   2.510   0.697
85447W        W50432  36.429  23.255   2.348
85448W        W50433  29.211   2.454   3.642
85449W        W50434  23.766  29.908  12.371
85450W        W50435  21.116  40.022   0.461
85451W        W50436  14.380  28.811   1.313
85452W        W50437  34.579  11.168  13.738
85453W        W50438   3.849  33.101  12.406
85454W        W50439  10.147   4.861   0.498
85455W        W50440  23.587  21.782  14.608
85456W        W50441  42.293   9.602  12.475
85457W        W50442  19.283   3.858   0.059
85458W        W50443   8.920  44.474  12.015
85459W        W50444   7.368  36.581   4.733
85460W        W50445  24.731  18.583   0.397
85461W        W50446  40.534  21.237  10.969
85462W        W50447  25.493  43.258   0.495
85463W        W50448  17.986  36.332   4.225
85464W        W50449  20.115  19.076   4.053
85465W        W50450  41.044  21.206  14.995
85466W        W50451  27.189   3.016   2.716
85467W        W50452   7.688  36.197   4.512
85468W        W50453  35.378  22.006   2.714
85469W        W50454  36.794  13.651   2.731
85470W        W50455  27.937  16.337  11.522
85471W        W50456  23.186  38.152   1.081
85472W        W50457   5.162  22.811   2.179
85473W        W50458  12.648   6.034  13.741
85474W        W50459  17.853  36.559  13.073
85475W        W50460  15.660  28.144  12.684
85476W        W50461  25.106   3.248  11.611
85477W        W50462  40.416  13.526   3.470
85478W        W50463  18.584   7.660  11.071
85479W        W50464  26.617  22.094   1.727
85480W        W50465   0.781  17.323  14.459
85481W        W50466   4.504  14.183  11.743
85482W        W50467  20.970  30.653   2.291
85483W        W50468   9.923  30.609  13.762
85484W        W50469  25.696  44.867   1.284
85485W        W50470  11.671   2.037   2.249
85486W        W50471  38.002  35.371  14.829
85487W        W50472   7.859  44.994  13.133
85488W        W50473  32.931   2.744  13.888
85489W        W50474   1.922  44.432  14.851
85490W        W50475  10.121  31.664   3.372
85491W        W50476   6.658  15.389  12.968
85492W        W50477  23.530  41.562  14.085
85493W        W50478   0.223  37.533   4.248
85494W        W50479  12.431  14.471  11.187
85495W        W50480  25.172  17.701   2.293
85496W        W50481   6.757  28.874  11.534
85497W        W50482  17.305  38.993  11.757
85498W        W50483   0.692  27.473  12.984
85499W        W50484  19.840  33.601   4.304
85500W        W50485   2.632  25.627   2.375
85501W        W50486  24.029  31.141  14.428
85502W        W50487  16.352  30.506   5.005
85503W        W50488  33.403  42.383  13.967
85504W        W50489  43.951  10.057  14.123
85505W        W50490  35.408  13.556  14.368
85506W        W50491  17.295  29.566  14.228
85507W        W50492  39.270  18.675   2.414
85508W        W50493  33.292  38.826   1.239
85509W        W50494  38.619  10.182   2.791
85510W        W50495  40.006  18.730  12.108
85511W        W50496  42.676  11.085  11.109
85512W        W50497   9.176   5.631   1.388
85513W        W50498  17.652  11.432  13.800
85514W        W50499  26.615   0.703   4.117
85515W        W50500   0.220  40.772  14.747
85516W        W50501  11.463  23.973   0.360
85517W        W50502  40.920  27.631  14.912
85518W        W50503  41.047  22.069  12.888
85519W        W50504  23.928  39.545   3.723
85520W        W50505  29.552  22.514  13.805
85521W        W50506  44.712  10.874  14.808
85522W        W50507   9.424  21.990   1.832
85523W        W50508  18.823  26.078   1.813
85524W        W50509  20.229  43.382   4.635
85525W        W50510   6.188   7.143   1.320
85526W        W50511  41.212  20.421  14.858
85527W        W50512   5.035  13.267   3.313
85528W        W50513  17.309   0.043  13.019
85529W        W50514  12.082   7.366  14.941
85530W        W50515  35.932  12.423   2.296
85531W        W50516  31.649  16.278   4.902
85532W        W50517  35.357   2.753  13.620
85533W        W50518  35.442  42.471   4.626
85534W        W50519  24.182   8.989   1.660
85535W        W50520  43.362  29.457   1.161
85536W        W50521   8.940   8.513   1.702
85537W        W50522  24.669  11.793   0.788
85538W        W50523   2.214  13.217   1.242
85539W        W50524  20.321  38.467  11.655
85540W        W50525   2.615   8.971  13.492
85541W        W50526  34.159   5.323  14.178
85542W        W50527  23.014   5.268  14.313
85543W        W50528  21.100  30.607   0.384
85544W        W50529  26.527  26.609   1.959
85545W        W50530  43.300   1.306   3.594
85546W        W50531   7.441  44.090   4.911
85547W        W50532   8.511  24.237  11.067
85548W        W50533  34.309  26.384   0.018
85549W        W50534  29.924   6.268   2.056
85550W        W50535  39.139  44.966  12.004
85551W        W50536   6.186   6.350  11.859
85552W        W50537  19.914  25.725   2.787
85553W        W50538  11.996  13.104   0.887
85554W        W50539  37.544  34.390   2.883
85555W        W50540  44.446  14.212  13.936
85556W        W50541  42.338   0.975  12.089
85557W        W50542  43.076   5.370   3.717
85558W        W50543  37.423  35.602  11.517
85559W        W50544  10.328  28.354  14.405
85560W        W50545  36.662  26.661  14.893
85561W        W50546  39.616  26.771  14.442
85562W        W50547  40.979  21.155  14.477
85563W        W50548  21.069   6.227   1.258
85564W        W50549  20.750  44.704  14.755
85565W        W50550  36.064   1.991  12.459
85566W        W50551  34.255  35.933   1.074
85567W        W50552  12.201  33.381   4.832
85568W        W50553  30.866  37.086   1.857
85569W        W50554  19.572  14.700  12.711
85570W        W50555  14.208  34.582  12.953
85571W        W50556  12.762  34.193  12.204
85572W        W50557  21.502  23.022   1.671
85573W        W50558  24.153  39.239   4.251
85574W        W50559  43.404  19.593   0.759
85575W        W50560   4.687  42.217   3.826
85576W        W50561  43.522  36.313   0.368
85577W        W50562  29.841  20.488  11.094
85578W        W50563   1.058  42.552   4.601
85579W        W50564  32.907   4.885   1.247
85580W        W50565  13.565  10.224  12.930
85581W        W50566   4.868  11.824   5.087
85582W        W50567  35.185   5.747  10.886
85583W        W50568  39.789  27.143   1.147
85584W        W50569   5.688  16.123  10.920
85585W        W50570  16.788  42.800   0.880
85586W        W50571   9.416  40.392   0.887
85587W        W50572  19.840  44.679   5.079
85588W        W50573  27.652  17.412  10.844
85589W        W50574  29.058  17.465  11.020
85590W        W50575  43.375  24.966  12.534
85591W        W50576  31.553  22.083  12.398
85592W        W50577  40.080  37.155   1.988
85593W        W50578  16.125  23.717   0.536
85594W        W50579  25.819  28.921   4.542
85595W        W50580  32.695  35.075  10.612
85596W        W50581  23.445  36.920   2.556
85597W        W50582  42.215  24.979  11.600
85598W        W50583  27.094   1.754   1.281
85599W        W50584  31.618  13.324  13.873
85600W        W50585  17.536   9.144  10.673
85601W        W50586   4.540  23.621   2.850
85602W        W50587   6.884  39.822   1.435
85603W        W50588  37.034  32.253   1.447
85604W        W50589  10.803  44.841   2.871
85605W        W50590  19.038  38.355  14.934
85606W        W50591  36.961  26.677  11.607
85607W        W50592  38.051   0.730   3.886
85608W        W50593  37.392  38.587   3.797
85609W        W50594  30.889  34.688  10.253
85610W        W50595   4.852  41.760  14.855
85611W        W50596  26.377   3.844  12.821
85612W        W50597  40.721  12.602  11.670
85613W        W50598  44.476   5.309  14.886
85614W        W50599  22.074  36.110  12.307
85615W        W50600  12.375   6.661   1.956
85616W        W50601  35.738  19.294  10.724
85617W        W50602  40.374  44.076   1.007
85618W        W50603   3.203  37.087  14.348
85619W        W50604  31.390  37.279  12.106
85620W        W50605  18.614  43.477   3.731
85621W        W50606  10.062  42.386   0.513
85622W        W50607  12.569  22.149  13.310
85623W        W50608  28.666  37.503   1.807
85624W        W50609  32.496  42.536  12.485
85625W        W50610   4.709  44.035   0.887
85626W        W50611  42.512  18.254   5.337
85627W        W50612   4.892   0.051  11.042
85628W        W50613  23.313  19.719  11.963
85629W        W50614   7.284  39.254  12.588
85630W        W50615  23.949  26.306  11.998
85631W        W50616   6.953  31.222   0.835
85632W        W50617  41.308  10.704  14.042
85633W        W50618   7.287   7.186   4.152
85634W        W50619  19.149  14.777   1.217
85635W        W50620   5.236   4.254   4.977
85636W        W50621  30.139  22.029  14.632
85637W        W50622  33.991  17.063   2.409
85638W        W50623  43.944  16.022   1.474
85639W        W50624  12.216   1.898  10.702
85640W        W50625  23.022  10.986   3.143
85641W        W50626   7.951  19.085  14.699
85642W        W50627  21.639  29.112  14.069
85643W        W50628  22.326  42.328  11.613
85644W        W50629  38.341  34.664  10.973
85645W        W50630  40.540   2.195   3.744
85646W        W50631  36.426  26.669  13.405
85647W        W50632  29.685  34.101   0.761
85648W        W50633  40.902  37.022  14.126
85649W        W50634   2.316  32.514   2.194
85650W        W50635  43.894   0.589   1.280
85651W        W50636  44.357  20.612  13.572
85652W        W50637  35.074   8.997  14.352
85653W        W50638  30.576  40.153  10.609
85654W        W50639  13.966   8.065   0.818
85655W        W50640   0.708  13.173   2.400
85656W        W50641  39.899  34.271   5.012
85657W        W50642   5.651  26.786  13.500
85658W        W50643   0.773  27.813   3.334
85659W        W50644   8.755  43.414  10.684
85660W        W50645   9.142  27.060   2.888
85661W        W50646  11.378  24.000   1.241
85662W        W50647  26.852  23.490  11.152
85663W        W50648  32.428  41.694   3.748
85664W        W50649   5.704  22.550   2.856
85665W        W50650  36.428  39.866   3.347
85666W        W50651   0.047  10.231  14.687
85667W        W50652  19.632   4.382  10.929
85668W        W50653  40.367  39.375   2.374
85669W        W50654  31.337  39.536   3.189
85670W        W50655   4.241  16.404   1.979
85671W        W50656  25.957  41.471  13.299
85672W        W50657  34.515  29.506   1.665
85673W        W50658  32.114  33.097  13.337
85674W        W50659   8.715  11.466   4.737
85675W        W50660  20.568  12.778   3.023
85676W        W50661  35.085  34.312   4.682
85677W        W50662   3.429  34.475  10.617
85678W        W50663  25.634  29.911   3.653
85679W        W50664  38.297  25.711   1.790
85680W        W50665  28.991  41.937  13.712
85681W        W50666  13.821  12.335  11.587
85682W        W50667   4.221  12.163   0.376
85683W        W50668  22.658   6.189   2.901
85684W        W50669  26.513  31.580  14.763
85685W        W50670  33.653  25.661  11.050
85686W        W50671   1.965  38.093  13.404
85687W        W50672  30.062  16.214  10.621
85688W        W50673  31.275   8.796   0.440
85689W        W50674  10.873  22.360   1.912
85690W        W50675  44.788  12.748  13.971
85691W        W50676  38.105  27.528   0.502
85692W        W50677   1.522  25.112   0.540
85693W        W50678  42.811  43.816   4.693
85694W        W50679  39.553   6.288   4.023
85695W        W50680  11.299  23.505   0.231
85696W        W50681  36.994  14.305  12.320
85697W        W50682  43.955  43.382  10.938
85698W        W50683   4.788  11.047   2.564
85699W        W50684  28.490  30.459  11.733
85700W        W50685  44.586   7.279  14.195
85701W        W50686  18.141  30.697   4.528
85702W        W50687  18.808   4.740   2.597
85703W        W50688   3.706  41.901  13.971
85704W        W50689  29.614  35.587   3.373
85705W        W50690   2.336  32.185  12.585
85706W        W50691   8.109   3.739  11.558
85707W        W50692   2.251  17.371   4.172
85708W        W50693  42.895  25.215   2.755
85709W        W50694   2.309  10.209  11.413
85710W        W50695  11.350  33.033   0.802
85711W        W50696  19.725  14.360  13.391
85712W        W50697  30.288   8.866  14.440
85713W        W50698  35.969  40.031  12.062
85714W        W50699  31.469  44.034  12.490
85715W        W50700  26.688   4.213   4.665
85716W        W50701  37.381   2.051  10.637
85717W        W50702   4.992   5.267   4.457
85718W        W50703  39.280  21.598   0.247
85719W        W50704  20.500  30.898   3.359
85720W        W50705  34.542  43.217   4.569
85721W        W50706  15.833  15.574  13.478
85722W        W50707  37.425   7.650   4.740
85723W        W50708   9.591  33.947   3.108
85724W        W50709  18.689   7.889   3.201
85725W        W50710  14.274  26.245  14.907
85726W        W50711  38.971   2.499   1.967
85727W        W50712  43.246  34.950   2.393
85728W        W50713  20.086  14.642  13.572
85729W        W50714  15.591  17.510   0.748
85730W        W50715  11.131  34.695   4.775
85731W        W50716   0.571  42.866  12.555
85732W        W50717   0.839   9.383   4.651
85733W        W50718   4.669  13.740  13.603
85734W        W50719  41.891   9.775   0.973
85735W        W50720   3.911   3.978  12.480
85736W        W50721  39.593   7.189   4.225
85737W        W50722  28.867  31.558   2.161
85738W        W50723  33.810  13.183  13.976
85739W        W50724  39.497  10.898  14.967
85740W        W50725  17.723  30.213  14.872
85741W        W50726   8.915  28.087   2.388
85742W        W50727  42.439  13.700  11.100
85743W        W50728  43.742   2.874   4.623
85744W        W50729  10.201  13.705   3.049
85745W        W50730  11.723   1.538   2.387
85746W        W50731  35.859   5.286  13.940
85747W        W50732  23.160  22.452  12.083
85748W        W50733  38.975  39.886   1.119
85749W        W50734   7.611  21.727   2.644
85750W        W50735  27.766  40.756  10.627
85751W        W50736  16.790  42.513  11.397
85752W        W50737  14.070  16.801  13.957
85753W        W50738  13.742   5.072  13.429
85754W        W50739   6.229  20.463   3.129
85755W        W50740   6.133  19.323  13.342
85756W        W50741  15.026  24.033  11.601
85757W        W50742  34.629  17.138  13.918
85758W        W50743  23.329  14.481  11.983
85759W        W50744  28.267  18.487  12.948
85760W        W50745  30.751  21.696  12.817
85761W        W50746   4.968  27.484  13.634
85762W        W50747  28.074  29.550  14.361
85763W        W50748  17.505  22.698  12.372
85764W        W50749  36.075   4.731  11.127
85765W        W50750  11.122  40.353   2.422
85766W        W50751  42.376   5.128   1.458
85767W        W50752  23.125  19.498   2.680
85768W        W50753  23.738  39.422   3.207
85769W        W50754   2.555  38.361  11.068
85770W        W50755  40.035  32.979   0.503
85771W        W50756  12.723  35.898  14.719
85772W        W50757  42.328  15.762   0.373
85773W        W50758  13.059  22.615   4.600
85774W        W50759  27.980  38.845  14.281
85775W        W50760  19.700  34.157   0.976
85776W        W50761  17.748   7.147  13.019
85777W        W50762  43.208  42.927   5.093
85778W        W50763  17.634  39.266   2.753
85779W        W50764  42.703  21.950   3.717
85780W        W50765  44.412   6.225  14.892
85781W        W50766  10.295  25.157   0.997
85782W        W50767  36.312  39.309   4.262
85783W        W50768  26.195  15.025  12.489
85784W        W50769   5.442   6.413  14.952
85785W        W50770  20.618  34.120   3.439
85786W        W50771   6.913  15.194  11.511
85787W        W50772   5.952   0.841  12.532
85788W        W50773  44.365   9.860   0.729
85789W        W50774  36.789  38.399  11.556
85790W        W50775  22.591   4.909   2.411
85791W        W50776  42.867   4.917   1.412
85792W        W50777  12.618  38.658   3.861
85793W        W50778  16.099  33.033   3.048
85794W        W50779  13.079  29.490  14.914
85795W        W50780   4.151   6.300   0.568
85796W        W50781  27.646  41.052   2.868
85797W        W50782  16.576  37.258  11.891
85798W        W50783  27.375   5.368   2.285
85799W        W50784  42.867  23.230   3.213
85800W        W50785  27.014  14.286  14.914
85801W        W50786  11.077  37.024   3.745
85802W        W50787  31.215  33.430  12.952
85803W        W50788  30.714   6.670  14.868
85804W        W50789  10.090  43.534   2.823
85805W        W50790  13.137  38.250  12.507
85806W        W50791   1.391  25.441   4.761
85807W        W50792  34.393  36.155   3.144
85808W        W50793  41.305  20.791   3.136
85809W        W50794  26.716  34.065   0.518
85810W        W50795  15.274  43.798   3.602
85811W        W50796  17.194  10.779   2.083
85812W        W50797   9.254   3.896  13.902
85813W        W50798  40.777  33.875  12.729
85814W        W50799  19.730  26.220  10.594
85815W        W50800  17.779  33.428  11.087
85816W        W50801  36.323  36.214   2.683
85817W        W50802  39.983  29.062  14.609
85818W        W50803  12.198  30.634  10.915
85819W        W50804  19.324  23.763  10.742
85820W        W50805  12.416  11.727   3.640
85821W        W50806  14.820  37.971   0.849
85822W        W50807   0.848  44.131   2.675
85823W        W50808  11.812  13.439  10.543
85824W        W50809  25.012  13.517   4.113
85825W        W50810   4.378   6.109   4.720
85826W        W50811  35.473   6.148  13.327
85827W        W50812  24.311  41.222  10.779
85828W        W50813  14.284  13.893   4.577
85829W        W50814   5.282  41.598  12.814
85830W        W50815  30.525  39.317  11.152
85831W        W50816  36.526  29.604   3.589
85832W        W50817   2.988  44.449   0.573
85833W        W50818  29.501   8.320  14.336
85834W        W50819  43.860  21.169  14.050
85835W        W50820   3.832  25.114  10.956
85836W        W50821   5.841  29.421  11.450
85837W        W50822  25.656  22.018   1.642
85838W        W50823   5.815   0.628   0.172
85839W        W50824   0.040   7.653   3.378
85840W        W50825  20.257  26.155   3.718
85841W        W50826  32.149  15.410   0.291
85842W        W50827   3.295   9.326   2.106
85843W        W50828  43.714  11.108  14.392
85844W        W50829  11.747   2.052  10.489
85845W        W50830  16.474  21.204  12.906
85846W        W50831  39.610  32.388  12.475
85847W        W50832  43.784  26.547   0.297
85848W        W50833  14.737  40.004   2.050
85849W        W50834  11.116  21.056   4.594
85850W        W50835  31.440  16.114  11.009
85851W        W50836  44.766  10.169  11.552
85852W        W50837  17.505  40.985  13.543
85853W        W50838  41.353  27.488  12.633
85854W        W50839   7.663   0.708   3.799
85855W        W50840  31.133  16.352  10.668
85856W        W50841   1.789  13.547   1.254
85857W        W50842  21.021  42.821   0.872
85858W        W50843  44.314  39.951  14.496
85859W        W50844  18.568  18.017   0.144
85860W        W50845   3.699  10.143   2.387
85861W        W50846   7.702  27.471  11.652
85862W        W50847   3.460  30.884  12.427
85863W        W50848  30.328  38.750  11.805
85864W        W50849  42.510   6.145  11.742
85865W        W50850   9.098  21.686  11.886
85866W        W50851   1.938   6.618   0.564
85867W        W50852  20.639  11.074  10.752
85868W        W50853   2.450  35.918   4.150
85869W        W50854   7.384  14.063   4.636
85870W        W50855  22.166  13.767   2.727
85871W        W50856  21.988  20.275  13.045
85872W        W50857  21.432  37.387  11.957
85873W        W50858   3.883  29.732  12.444
85874W        W50859  25.942   8.667   1.862
85875W        W50860  33.479  28.853  12.416
85876W        W50861   6.403  26.644   1.794
85877W        W50862  10.553  16.760   0.947
85878W        W50863  19.213  24.982   1.004
85879W        W50864  28.918  14.664   2.125
85880W        W50865  33.823  28.927   4.852
85881W        W50866   0.679   0.275   3.495
85882W        W50867  11.248  30.721  12.047
85883W        W50868   2.199  29.060   0.573
85884W        W50869   3.456   6.827  11.488
85885W        W50870   6.878  10.968  14.995
85886W        W50871  12.362  34.960   1.758
85887W        W50872   5.188  37.610   1.870
85888W        W50873   9.281   7.932  11.667
85889W        W50874  24.975  41.699   4.148
85890W        W50875  38.906  23.527   2.247
85891W        W50876  34.157  21.337   0.330
85892W        W50877  43.366  19.668  14.802
85893W        W50878   0.101  20.159  11.183
85894W        W50879  20.046   0.291   0.874
85895W        W50880  23.447  25.563   1.729
85896W        W50881   3.764  26.528   4.994
85897W        W50882  19.233  44.444   0.790
85898W        W50883  37.420  29.485  14.754
85899W        W50884  41.336  40.948  11.608
85900W        W50885   8.922   2.366  10.742
85901W        W50886  24.134  30.651   9.657
85902W        W50887  12.443   3.936  12.814
85903W        W50888   2.176   8.377   2.105
85904W        W50889   1.245  35.561  10.981
85905W        W50890  15.293  13.340  13.780
85906W        W50891  28.518  24.062   2.120
85907W        W50892  23.957  35.142  12.329
85908W        W50893  36.328   2.433  13.163
85909W        W50894  22.797  22.181   3.631
85910W        W50895  10.215  37.916   0.806
85911W        W50896  25.396  33.359   2.148
85912W        W50897   8.303  23.098  10.549
85913W        W50898  41.056  14.879   2.527
85914W        W50899  44.927  35.069  12.998
85915W        W50900  39.759   6.075   2.430
85916W        W50901  17.641  11.061  13.452
85917W        W50902  41.737  38.921  12.058
85918W        W50903  27.282  28.957  13.456
85919W        W50904  38.521  22.742   2.334
85920W        W50905  25.946   5.474  14.774
85921W        W50906  16.448  39.514   4.884
85922W        W50907  35.105   5.300  13.360
85923W        W50908  12.328  18.670   1.365
85924W        W50909  31.005  14.705  11.558
85925W        W50910  24.242  21.720   4.256
85926W        W50911  44.519  41.349   2.857
85927W        W50912  41.556   2.206   3.722
85928W        W50913  22.975   3.689  11.465
85929W        W50914  36.494  33.295   0.221
85930W        W50915   9.824  41.087   4.367
85931W        W50916  18.796  16.765  11.507
85932W        W50917  28.196  34.493   4.607
85933W        W50918  37.832   3.272   2.555
85934W        W50919   1.796  18.160   0.835
85935W        W50920  37.836  35.276   4.765
85936W        W50921  23.190  13.597  11.564
85937W        W50922   9.234  37.104  11.519
85938W        W50923  29.352   8.637   2.675
85939W        W50924  43.036  34.612  13.944
85940W        W50925  33.485  26.934  14.518
85941W        W50926  14.843  42.445  11.116
85942W        W50927   8.865  28.909  14.834
85943W        W50928  10.719  20.263  14.372
85944W        W50929  27.090  31.073  12.084
85945W        W50930  15.784  35.999   3.249
85946W        W50931  33.237  16.685   1.754
85947W        W50932  14.238  18.172  14.797
85948W        W50933  26.139  27.043   3.165
85949W        W50934  32.428  14.841   1.361
85950W        W50935  30.113  24.860  14.096
85951W        W50936  42.437  41.075   1.693
85952W        W50937  43.426  15.738  12.902
85953W        W50938  16.012  41.892   2.845
85954W        W50939  12.229  32.605   0.483
85955W        W50940   0.816   2.141   3.686
85956W        W50941  29.994  22.047  12.766
85957W        W50942   2.781   8.382  12.568
85958W        W50943   9.276   7.296  13.197
85959W        W50944   4.049  39.047   3.122
85960W        W50945  41.774  26.401  13.036
85961W        W50946   5.504   8.290   1.094
85962W        W50947  20.960  15.793   3.629
85963W        W50948  13.662   1.852  10.825
85964W        W50949  11.260  12.081  13.336
85965W        W50950   4.048  22.053   4.854
85966W        W50951  43.027  44.012  12.109
85967W        W50952  14.312  40.767   0.082
85968W        W50953  31.232  37.989  14.860
85969W        W50954  22.294  28.673  12.930
85970W        W50955  10.342  10.419   5.008
85971W        W50956  38.585  40.415  10.653
85972W        W50957  33.062  24.343   1.687
85973W        W50958  10.340  11.477  12.136
85974W        W50959  42.483  31.170   1.337
85975W        W50960  26.905  38.426  11.067
85976W        W50961  29.627  36.891  12.850
85977W        W50962  12.869  32.629  13.383
85978W        W50963  17.080  15.155   0.565
85979W        W50964  18.989   1.870   1.874
85980W        W50965  23.613  25.950  10.675
85981W        W50966  16.920   0.269   2.345
85982W        W50967  32.190   0.347   0.218
85983W        W50968   1.738  25.885   2.244
85984W        W50969  18.262  35.592   1.871
85985W        W50970  25.959  43.189   0.327
85986W        W50971   3.467  15.205   3.106
85987W        W50972  33.523  15.920  10.383
85988W        W50973  21.752  13.297   4.209
85989W        W50974  26.733   0.932   3.630
85990W        W50975  30.464  14.407   2.043
85991W        W50976  36.882  30.578   3.633
85992W        W50977  18.500  27.525  14.455
85993W        W50978  20.044  17.154   5.173
85994W        W50979  16.155   7.381   4.532
85995W        W50980   0.975  34.769   0.460
85996W        W50981  34.370  38.303  11.519
85997W        W50982  27.722  10.647  14.082
85998W        W50983  43.938  31.510  11.564
85999W        W50984  32.477  36.821   2.514
86000W        W50985  42.294  17.991  13.046
86001W        W50986  32.047   0.883   1.570
86002W        W50987  22.836  33.701   1.924
86003W        W50988  10.717  10.247   4.604
86004W        W50989  26.133  25.829   0.910
86005W        W50990  40.061   2.821   0.742
86006W        W50991  28.503  18.496  13.971
86007W        W50992  32.423  15.649  10.755
86008W        W50993  17.173  22.723  14.754
86009W        W50994  15.251  22.197   1.961
86010W        W50995   2.970   4.298   3.628
86011W        W50996  33.463  43.516  14.479
86012W        W50997  40.468   8.412   4.129
86013W        W50998   1.234  33.482  10.770
86014W        W50999  11.936  42.362   3.095
86015W        W51000  27.815   4.055  11.591
86016W        W51001   4.311   3.199   3.935
86017W        W51002   6.411  34.846  14.507
86018W        W51003  29.572  10.627   2.244
86019W        W51004  21.553  37.806   0.740
86020W        W51005  37.063   6.286  14.730
86021W        W51006  17.770  38.921  11.044
86022W        W51007  17.048  39.074  13.533
86023W        W51008  34.631  28.648  14.338
86024W        W51009  40.241  11.359  10.983
86025W        W51010  18.831  33.567   4.234
86026W        W51011   2.389   6.438  13.350
86027W        W51012  38.351  33.055   1.947
86028W        W51013  31.877  25.731   3.353
86029W        W51014  35.558  38.012   3.641
86030W        W51015  22.651  17.433  10.319
86031W        W51016  12.087  38.446  12.575
86032W        W51017   0.979  36.589   3.655
86033W        W51018  36.522   6.773  11.556
86034W        W51019  10.862  23.035  13.958
86035W        W51020  42.413   1.995   4.176
86036W        W51021  26.223  36.808  12.957
86037W        W51022  21.196  33.031   0.893
86038W        W51023  41.953  23.890  12.168
86039W        W51024  33.442  15.211  11.134
86040W        W51025   4.724  24.873  10.644
86041W        W51026   8.320  16.067  11.420
86042W        W51027  27.907  10.724  10.303
86043W        W51028  38.620  44.271   4.509
86044W        W51029  14.849  27.493  12.208
86045W        W51030  12.838  27.258  13.872
86046W        W51031  32.592  28.676  13.817
86047W        W51032  12.892  14.083  10.475
86048W        W51033   1.320  28.761   0.147
86049W        W51034  33.884  26.056   1.360
86050W        W51035  12.218  26.624   4.668
86051W        W51036  18.394  35.822   3.062
86052W        W51037  15.048   7.854  11.501
86053W        W51038   9.116   2.447   1.313
86054W        W51039  18.529  20.492   4.988
86055W        W51040  39.807  29.417   3.834
86056W        W51041   5.921  27.695  13.449
86057W        W51042  12.111  14.210   1.233
86058W        W51043  34.953   4.790   2.547
86059W        W51044  19.216  36.018  10.769
86060W        W51045  39.440  38.975   4.397
86061W        W51046  23.127  43.068   1.718
86062W        W51047  44.202  44.395  11.104
86063W        W51048   5.884  27.200   4.671
86064W        W51049  36.481  23.003   3.817
86065W        W51050  10.414  11.672  14.754
86066W        W51051  18.393  30.476  12.779
86067W        W51052  43.345  28.465  12.497
86068W        W51053  13.763  12.215   0.269
86069W        W51054  30.588  41.715  13.792
86070W        W51055  41.021  29.085  14.454
86071W        W51056  33.857   1.825  11.965
86072W        W51057  13.352   5.254  13.687
86073W        W51058  26.983  33.612  12.459
86074W        W51059  41.005  34.349   2.827
86075W        W51060   3.448   0.176  14.243
86076W        W51061  36.459  23.705  13.889
86077W        W51062  29.636  22.631  12.433
86078W        W51063  12.742  27.970  10.344
86079W        W51064  19.812  30.342   3.295
86080W        W51065  16.269  11.692  14.817
86081W        W51066  33.059   7.475   3.594
86082W        W51067  14.251  20.230   0.821
86083W        W51068   9.516  31.996   1.177
86084W        W51069  27.594  27.635   1.054
86085W        W51070  42.817  12.555   2.715
86086W        W51071  33.101  39.767   0.846
86087W        W51072   6.237  40.609  11.620
86088W        W51073   0.607  21.787   1.369
86089W        W51074  40.282  33.515  14.836
86090W        W51075   5.684  29.039  13.017
86091W        W51076  33.121  39.005   2.245
86092W        W51077  33.553  12.579   4.631
86093W        W51078   8.287  22.604  11.128
86094W        W51079  25.768  28.551  10.111
86095W        W51080   7.286  33.984   2.631
86096W        W51081  14.871  27.101   2.767
86097W        W51082  37.824  16.197   0.383
86098W        W51083  16.919   6.683  11.575
86099W        W51084  31.423  30.197  10.853
86100W        W51085   3.232  31.983   4.671
86101W        W51086  20.376   2.626  14.962
86102W        W51087   5.448   8.912   2.663
86103W        W51088   0.734   5.190   3.718
86104W        W51089   6.287   1.034  13.465
86105W        W51090   5.754  17.592  11.116
86106W        W51091   4.669   2.669   3.798
86107W        W51092  16.665  35.594   2.619
86108W        W51093  15.760  10.063  11.595
86109W        W51094  17.539  36.973  10.591
86110W        W51095  35.801  37.646   2.590
86111W        W51096  33.587  25.475   0.235
86112W        W51097  18.345  34.005   1.826
86113W        W51098  17.609  28.529   1.802
86114W        W51099  20.028   3.570   2.699
86115W        W51100  18.769  29.180  13.279
86116W        W51101  21.523  43.795  12.194
86117W        W51102  11.681  31.917   0.322
86118W        W51103  36.936  26.389   4.720
86119W        W51104  38.404  42.920  10.752
86120W        W51105  15.742   3.247  14.392
86121W        W51106   7.799  43.535  10.424
86122W        W51107  29.620  20.190   3.798
86123W        W51108  28.156  27.633  14.526
86124W        W51109  30.643  37.255   4.754
86125W        W51110  30.428  42.832   2.697
86126W        W51111  40.761  26.167   9.985
86127W        W51112   4.039  20.361   1.861
86128W        W51113  39.438  22.473   4.942
86129W        W51114  20.227  14.759  14.036
86130W        W51115  21.066   5.254  10.469
86131W        W51116  31.453   0.441   1.704
86132W        W51117   9.190  17.059   4.583
86133W        W51118   8.239   4.762   2.671
86134W        W51119  19.942  19.113  14.399
86135W        W51120  30.200  27.552  12.901
86136W        W51121  40.509   9.720   3.501
86137W        W51122  10.423  22.631  14.907
86138W        W51123   0.970  36.393   9.873
86139W        W51124  25.444  34.933   2.918
86140W        W51125  22.249  41.498  12.171
86141W        W51126  10.653  24.450  12.409
86142W        W51127  11.078   8.792  11.963
86143W        W51128  39.338  20.265  13.140
86144W        W51129   2.738  37.866  12.726
86145W        W51130  31.481  30.846  11.952
86146W        W51131   1.667   4.322   2.425
86147W        W51132   4.357  36.757  11.903
86148W        W51133  16.320  42.295   4.266
86149W        W51134   0.837  28.461  11.965
86150W        W51135  14.923  40.546   4.939
86151W        W51136  19.363  17.683  13.369
86152W        W51137   1.351  41.287   1.274
86153W        W51138  13.449   2.848   4.028
86154W        W51139  28.962  18.605   2.158
86155W        W51140  11.371  28.362  10.144
86156W        W51141  43.541  35.378  14.472
86157W        W51142  40.753  24.481  10.359
86158W        W51143  30.029  42.448  14.312
86159W        W51144  20.776  34.539   4.191
86160W        W51145  32.243   8.563   1.290
86161W        W51146   8.259  42.431  13.382
86162W        W51147  24.465  28.508  11.811
86163W        W51148  35.727  31.831  10.738
86164W        W51149  16.277  26.166   4.106
86165W        W51150  40.563  14.066  10.221
86166W        W51151  12.276  28.588   3.129
86167W        W51152   3.696   3.193  11.939
86168W        W51153  41.546  26.711  14.455
86169W        W51154  44.091  10.275  14.581
86170W        W51155  31.637  29.740  10.731
86171W        W51156   2.694  42.353   0.864
86172W        W51157   3.657  20.041   1.515
86173W        W51158  30.921  43.275  11.609
86174W        W51159  25.072  22.434  14.082
86175W        W51160  14.249   4.985   4.549
86176W        W51161  22.620  32.159  13.486
86177W        W51162  26.683  14.099  11.161
86178W        W51163  25.979   8.326  11.582
86179W        W51164  18.873  20.999  13.510
86180W        W51165  19.281  36.278   3.368
86181W        W51166  36.429  19.136   3.595
86182W        W51167   1.309  20.144   2.961
86183W        W51168  14.358  22.226   1.787
86184W        W51169  43.951  41.367   0.381
86185W        W51170  38.750  22.804  12.883
86186W        W51171  15.146  33.751   0.318
86187W        W51172  18.036  16.167   0.962
86188W        W51173  33.949  17.713  11.145
86189W        W51174   9.298  25.713  13.988
86190W        W51175  40.055  43.762  10.550
86191W        W51176  17.796   3.689   3.134
86192W        W51177  29.660   1.369  14.471
86193W        W51178  21.369  14.283  14.288
86194W        W51179   4.374  14.659   4.689
86195W        W51180  39.807  28.740  13.877
86196W        W51181   6.719  31.366  10.767
86197W        W51182  41.761  29.641  10.780
86198W        W51183   3.629   0.956  11.015
86199W        W51184  42.313  14.770  10.208
86200W        W51185  17.601   7.448   1.071
86201W        W51186   8.760  30.956  11.408
86202W        W51187   6.324  14.131   1.464
86203W        W51188  30.562   6.601  12.568
86204W        W51189  21.096  11.351  10.793
86205W        W51190  18.124  30.647  14.271
86206W        W51191  37.740  39.384  13.140
86207W        W51192   4.489  43.698   2.170
86208W        W51193  19.099  43.386   2.076
86209W        W51194  20.719  33.172   4.438
86210W        W51195   9.187  37.134   4.131
86211W        W51196   5.355  32.232   5.064
86212W        W51197  25.529  34.140   4.856
86213W        W51198  13.599  16.959  14.494
86214W        W51199   3.234  36.165   1.057
86215W        W51200  41.017   7.200   1.240
86216W        W51201  42.498  23.627   0.200
86217W        W51202  29.152  21.743   2.835
86218W        W51203  36.812   1.833  12.927
86219W        W51204  29.042  44.029   3.674
86220W        W51205   6.935  33.971  14.825
86221W        W51206  40.227  30.828   1.368
86222W        W51207  33.554  25.054  12.594
86223W        W51208  15.138  37.792  11.072
86224W        W51209  11.841  34.550  10.735
86225W        W51210  31.043  26.547  11.173
86226W        W51211  22.978   7.860   0.442
86227W        W51212  19.802  11.841   4.513
86228W        W51213   9.193  35.637  13.482
86229W        W51214  17.205  41.692   1.772
86230W        W51215  22.219   7.149   0.819
86231W        W51216  43.598  32.922  12.570
86232W        W51217   7.501  21.622   2.149
86233W        W51218  10.139  15.588   1.831
86234W        W51219   7.278  17.045  13.324
86235W        W51220  30.477  26.180  13.479
86236W        W51221  42.909   0.429   3.845
86237W        W51222  43.013   1.662  12.074
86238W        W51223  17.714  12.231  10.716
86239W        W51224  39.222  34.598  11.094
86240W        W51225  34.799   0.969   1.011
86241W        W51226   1.374  26.555  14.984
86242W        W51227  20.820  34.743  11.089
86243W        W51228  10.589   2.475  13.957
86244W        W51229  18.301   3.622   4.049
86245W        W51230  44.865  43.880   2.608
86246W        W51231  32.069   0.837   0.070
86247W        W51232  32.016  26.464   0.475
86248W        W51233  17.138  43.915  10.480
86249W        W51234  13.646   2.774   2.929
86250W        W51235  40.348  16.892  12.578
86251W        W51236   1.752  38.017   0.994
86252W        W51237  44.913  33.840  10.517
86253W        W51238  33.995  33.588   4.046
86254W        W51239   0.778  11.824   4.242
86255W        W51240   9.900  27.492   0.256
86256W        W51241  33.399  34.595   4.464
86257W        W51242   4.935  41.137   2.207
86258W        W51243  12.211  26.641  12.890
86259W        W51244  15.695  29.668   1.368
86260W        W51245  18.540  39.023   0.994
86261W        W51246  11.869  25.652   3.510
86262W        W51247  33.981  32.886  14.065
86263W        W51248  12.872   9.459   3.235
86264W        W51249  18.377  36.327   3.005
86265W        W51250  23.274  20.048   0.750
86266W        W51251  38.507  36.072  12.204
86267W        W51252  22.035   3.808  11.827
86268W        W51253  12.662   2.194  13.574
86269W        W51254  29.709  34.121   1.311
86270W        W51255  15.740   4.846  11.522
86271W        W51256  10.353  27.698  13.432
86272W        W51257  12.576   5.669   0.959
86273W        W51258  37.519  16.839  13.572
86274W        W51259  12.218  36.443   4.788
86275W        W51260   9.589  25.927   4.564
86276W        W51261  30.434  11.306   9.968
86277W        W51262  43.967  26.829   4.305
86278W        W51263  13.805  43.436   2.246
86279W        W51264   5.133   1.617  14.780
86280W        W51265  20.790  33.837  13.855
86281W        W51266  32.499  44.028  14.470
86282W        W51267  25.592   7.864  10.502
86283W        W51268  15.144   0.680   2.346
86284W        W51269  15.024   6.474   4.759
86285W        W51270  11.673  42.427   0.294
86286W        W51271   0.212   8.435   3.179
86287W        W51272  39.872   5.798  13.835
86288W        W51273  30.575  10.246   5.045
86289W        W51274  21.038   0.472  11.053
86290W        W51275   4.016  32.140   4.139
86291W        W51276  39.811  37.920   2.485
86292W        W51277  17.474  10.519  10.544
86293W        W51278  11.203  44.952  13.870
86294W        W51279  34.837  31.399   0.830
86295W        W51280  33.018  10.860  13.303
86296W        W51281   2.952  16.530  12.822
86297W        W51282  16.083  30.536   0.213
86298W        W51283   3.818   4.463  12.611
86299W        W51284  43.950  29.192  13.268
86300W        W51285  15.077  12.099  11.951
86301W        W51286  15.224  44.563  14.758
86302W        W51287  39.506  31.464   4.887
86303W        W51288  42.364  42.043   1.863
86304W        W51289   3.439  13.346   4.290
86305W        W51290  10.332  24.760   0.224
86306W        W51291  30.852   9.074   3.483
86307W        W51292  10.428  32.202  13.583
86308W        W51293   5.903  37.872  11.143
86309W        W51294  31.061  20.581  11.406
86310W        W51295  36.863  33.914  11.807
86311W        W51296  10.118  34.121  12.179
86312W        W51297   4.130  12.768   1.935
86313W        W51298  27.672  13.883   1.616
86314W        W51299  11.232   8.841  13.088
86315W        W51300  16.120   0.232  13.930
86316W        W51301  21.696  27.980   4.535
86317W        W51302  18.662  28.517   1.794
86318W        W51303   1.660  21.967  12.173
86319W        W51304  42.493  13.329   3.636
86320W        W51305  16.749  11.604  11.504
86321W        W51306  34.463  42.997   1.016
86322W        W51307  18.111   3.183  12.897
86323W        W51308  27.608  36.499   1.697
86324W        W51309  37.395  41.929   0.468
86325W        W51310   4.990  42.353  11.509
86326W        W51311  41.554  15.870   1.830
86327W        W51312  26.349  25.258  12.319
86328W        W51313  12.139  27.110   4.486
86329W        W51314   1.945  30.999  14.326
86330W        W51315  41.569  14.189  14.624
86331W        W51316  15.983  10.292   4.967
86332W        W51317  31.149  44.543  10.447
86333W        W51318  35.301  36.932   1.845
86334W        W51319  14.451  10.428   3.746
86335W        W51320   9.051  31.664  14.869
86336W        W51321  22.960  33.424  12.022
86337W        W51322   7.940  14.462  13.120
86338W        W51323  23.268  27.532   2.639
86339W        W51324  13.537   5.351   0.617
86340W        W51325  20.691   1.856   2.761
86341W        W51326   9.869  36.203  10.998
86342W        W51327  29.019  44.949   1.692
86343W        W51328   2.160   3.769  14.949
86344W        W51329  31.540  12.641  12.006
86345W        W51330  26.210  12.575  11.552
86346W        W51331   2.658  33.862  12.430
86347W        W51332  10.124   2.874  14.572
86348W        W51333  35.475   8.592  12.471
86349W        W51334  39.007  42.108   1.671
86350W        W51335  31.108  22.320  14.335
86351W        W51336  26.121   2.969   4.426
86352W        W51337  35.081  22.024  14.270
86353W        W51338  36.051   6.315  12.149
86354W        W51339   7.315  29.043   2.922
86355W        W51340  32.955   8.111  12.991
86356W        W51341   2.154  12.670   2.330
86357W        W51342  22.217  15.083   4.629
86358W        W51343   2.600   9.818   4.678
86359W        W51344  29.152  43.060   4.121
86360W        W51345  44.785   2.139   2.914
86361W        W51346  31.264  32.639   2.294
86362W        W51347  20.550  21.077   4.200
86363W        W51348  30.066  22.043   0.557
86364W        W51349  19.978  41.455  11.712
86365W        W51350   7.487  40.568   3.091
86366W        W51351  38.993  37.612  11.645
86367W        W51352  20.559  44.857  11.261
86368W        W51353  18.975   3.269  14.542
86369W        W51354  24.986  31.221  13.515
86370W        W51355  12.892  39.031   3.097
86371W        W51356  11.010  16.329  10.718
86372W        W51357   8.266   1.678   3.537
86373W        W51358  16.053  36.170  14.886
86374W        W51359  31.355  18.657  10.686
86375W        W51360  36.442  38.872   3.166
86376W        W51361  13.403  27.727  13.034
86377W        W51362  20.044  38.868   3.831
86378W        W51363   5.405  14.170   2.396
86379W        W51364  16.032  42.442   1.979
86380W        W51365   2.881  27.251  11.121
86381W        W51366  23.525   6.309  14.767
86382W        W51367  22.596  24.714  13.762
86383W        W51368  12.173  30.350   2.223
86384W        W51369  42.670  10.542  11.077
86385W        W51370   5.977  32.220  12.021
86386W        W51371  43.955  43.671   1.981
86387W        W51372  12.046  36.381  12.667
86388W        W51373   6.359  21.064   0.281
86389W        W51374  42.837  23.193   2.338
86390W        W51375  13.299  19.787  14.349
86391W        W51376  39.763  22.606   1.996
86392W        W51377  42.735  17.033   3.141
86393W        W51378  27.438  34.245   2.907
86394W        W51379  33.163  35.799   2.775
86395W        W51380   6.074   7.466  14.383
86396W        W51381  23.981  35.043   2.236
86397W        W51382  19.114   5.178  11.643
86398W        W51383  16.110  37.296   2.768
86399W        W51384   3.943   7.478  13.963
86400W        W51385  24.226  24.431  11.213
86401W        W51386  38.827  14.334  12.023
86402W        W51387   5.047  31.867   0.785
86403W        W51388  23.725  16.546   0.026
86404W        W51389   4.953   9.614  10.496
86405W        W51390  10.085  19.671  14.451
86406W        W51391  17.472  40.409  14.347
86407W        W51392  20.179   1.928   2.869
86408W        W51393  43.768  18.006   1.476
86409W        W51394  40.096   9.648   3.878
86410W        W51395  23.314  24.668  11.104
86411W        W51396  15.149  19.104   2.007
86412W        W51397  30.029  19.709  10.913
86413W        W51398  33.429  30.492   1.825
86414W        W51399  32.950   2.059   1.361
86415W        W51400  20.694  31.517  13.052
86416W        W51401  34.540  15.778   2.315
86417W        W51402  13.431  12.507   2.617
86418W        W51403  32.072  38.413  11.113
86419W        W51404  39.999  22.669   0.521
86420W        W51405  36.132  25.519   2.124
86421W        W51406  23.680   1.501   2.281
86422W        W51407   3.834  39.369  14.279
86423W        W51408  43.721  26.969  11.541
86424W        W51409  20.129  13.369  12.215
86425W        W51410  10.645  23.244  10.895
86426W        W51411  12.918  22.039  13.877
86427W        W51412  34.376  17.778  13.526
86428W        W51413  37.605  22.267  11.115
86429W        W51414  22.455  33.124   3.241
86430W        W51415   7.817   4.339   4.172
86431W        W51416  25.003  23.662  12.614
86432W        W51417   2.877   8.698  13.143
86433W        W51418  40.566   0.888   1.886
86434W        W51419  31.227   9.738   4.190
86435W        W51420  37.321  42.339   2.892
86436W        W51421   6.809   2.649   1.927
86437W        W51422  14.940  13.790  12.686
86438W        W51423   1.374   3.713  12.442
86439W        W51424  23.732  24.248   3.667
86440W        W51425  17.115  16.565  12.914
86441W        W51426  20.945   8.843  14.543
86442W        W51427  24.991  10.625  11.307
86443W        W51428   5.411  11.279  13.324
86444W        W51429  12.185  43.246  14.530
86445W        W51430  13.796  35.982   2.855
86446W        W51431  29.594  15.349  14.048
86447W        W51432  38.136  20.728   1.684
86448W        W51433  41.383   5.927   4.562
86449W        W51434  40.504  25.396  12.945
86450W        W51435  36.626  35.139  15.000
86451W        W51436  29.949  11.706   3.901
86452W        W51437  18.226   3.475  11.779
86453W        W51438  38.742  40.108   3.823
86454W        W51439  18.015  42.828   0.414
86455W        W51440   0.891  25.443   1.840
86456W        W51441  12.329   1.018  10.334
86457W        W51442   4.371  33.080   4.137
86458W        W51443  34.469  36.820  12.633
86459W        W51444  11.566  10.573   3.223
86460W        W51445  34.652  29.747   0.189
86461W        W51446   0.476  19.802  12.887
86462W        W51447  33.375  15.992   1.787
86463W        W51448  29.957   8.084  14.537
86464W        W51449  32.141  39.104   2.281
86465W        W51450  33.665  21.434   0.427
86466W        W51451  15.421  28.245  11.989
86467W        W51452  13.656  19.229  12.065
86468W        W51453  23.299  30.966  10.048
86469W        W51454  22.044  22.568   4.984
86470W        W51455   6.962   9.701  10.746
86471W        W51456  25.674  18.538   3.410
86472W        W51457  31.043  44.344   0.838
86473W        W51458  41.936  41.901  13.037
86474W        W51459  27.592   7.068  13.041
86475W        W51460  33.038  35.752  12.046
86476W        W51461   8.728  20.348   4.293
86477W        W51462   9.866  24.935   0.437
86478W        W51463   8.733   9.890   3.632
86479W        W51464  42.533  39.534   5.046
86480W        W51465  35.877  37.070   3.252
86481W        W51466  31.026  36.089  13.665
86482W        W51467   8.305  37.670  12.141
86483W        W51468  14.810  35.592  10.796
86484W        W51469  25.614  26.877   3.804
86485W        W51470  19.205  33.481   2.757
86486W        W51471  21.839   5.748  10.611
86487W        W51472  43.888  23.370   5.111
86488W        W51473  24.106   6.180   1.013
86489W        W51474  38.573  24.906  10.691
86490W        W51475  29.686   1.101   3.739
86491W        W51476  20.463  16.819   3.876
86492W        W51477  22.365  33.315  12.882
86493W        W51478  33.464  39.818   2.157
86494W        W51479  31.397  27.087   2.699
86495W        W51480  40.807  40.109   4.968
86496W        W51481   9.717  24.075  12.993
86497W        W51482  27.946   9.398  10.271
86498W        W51483  19.138  36.348   0.337
86499W        W51484  37.086   3.190  12.973
86500W        W51485  32.586   2.778   0.184
86501W        W51486   7.752  16.300  13.081
86502W        W51487   7.269  18.350  12.912
86503W        W51488  16.168   6.683   0.244
86504W        W51489  24.591  32.161   0.486
86505W        W51490  18.096  24.727  14.783
86506W        W51491  35.892   1.762  12.916
86507W        W51492   9.984  30.063   4.335
86508W        W51493  20.499  36.737   3.876
86509W        W51494  14.328  39.427   3.175
86510W        W51495  40.779   3.232   3.128
86511W        W51496  40.687  13.026  10.424
86512W        W51497  33.589   4.856  11.888
86513W        W51498  16.146  22.572   4.661
86514W        W51499  33.064   0.213   2.906
86515W        W51500  35.408  12.528   1.717
86516W        W51501  38.542   6.757  11.676
86517W        W51502  36.532  37.932   3.071
86518W        W51503  39.835   3.338   0.184
86519W        W51504  33.872   6.726  11.518
86520W        W51505  44.814   8.678   0.746
86521W        W51506  29.146   6.961  13.047
86522W        W51507   4.452  12.307  14.431
86523W        W51508  32.812  20.134  11.716
86524W        W51509  36.859  34.007   0.419
86525W        W51510  19.758  21.037  14.700
86526W        W51511  14.581  10.243   1.507
86527W        W51512  16.881   7.587   5.314
86528W        W51513  30.699   3.466   3.764
86529W        W51514  39.990  12.317  10.644
86530W        W51515  22.201   4.689  12.294
86531W        W51516  12.375  28.871   4.490
86532W        W51517   4.749  38.654  11.695
86533W        W51518   4.046  31.099  14.425
86534W        W51519  44.356  40.894  11.541
86535W        W51520   3.490  34.556   1.941
86536W        W51521   8.612   8.678   4.693
86537W        W51522  22.186  23.591  13.555
86538W        W51523   9.254  44.933  12.431
86539W        W51524  20.450  35.964   2.880
86540W        W51525  30.233  23.200   0.373
86541W        W51526  31.975  19.147  14.933
86542W        W51527  42.263   2.743  11.252
86543W        W51528  42.288  23.826  14.776
86544W        W51529  19.527  43.869   2.799
86545W        W51530  38.855  44.797   2.433
86546W        W51531   1.209  31.421  12.958
86547W        W51532  33.518   9.630  12.273
86548W        W51533  24.482   1.380  10.574
86549W        W51534  34.939  29.887  13.820
86550W        W51535   2.270  12.685  12.164
86551W        W51536  32.002  12.025   2.840
86552W        W51537  13.171  43.794   2.571
86553W        W51538  44.813  27.436   2.157
86554W        W51539   7.721  35.870   1.777
86555W        W51540  39.272  19.817   3.795
86556W        W51541  10.456   1.358  14.569
86557W        W51542   6.515   6.582  13.607
86558W        W51543   7.361   7.713   5.413
86559W        W51544   2.249   0.398   3.825
86560W        W51545   1.919   5.518  12.550
86561W        W51546  14.896   9.755  14.067
86562W        W51547  28.587  36.602   4.260
86563W        W51548  18.463  22.471   2.079
86564W        W51549  11.485  18.336  11.397
86565W        W51550  38.860  42.498  13.386
86566W        W51551   7.696  11.563  10.729
86567W        W51552  15.647  21.196   4.570
86568W        W51553   6.904   1.699   4.644
86569W        W51554  19.266   9.467   1.762
86570W        W51555   1.564  27.503   0.774
86571W        W51556   8.808  40.000  10.739
86572W        W51557  22.966  17.389   0.289
86573W        W51558  18.587  38.061   1.141
86574W        W51559  23.057  35.552  11.429
86575W        W51560  26.570  11.793   1.426
86576W        W51561   7.438  44.833   4.208
86577W        W51562  32.722   9.738   4.064
86578W        W51563  12.823  15.672   0.869
86579W        W51564  22.001  12.204  11.182
86580W        W51565  30.542  32.114   3.660
86581W        W51566  44.857  15.773  12.910
86582W        W51567  20.981  12.657  10.374
86583W        W51568   1.973  10.680  13.050
86584W        W51569   1.725  44.911  14.826
86585W        W51570  44.437  25.254  12.026
86586W        W51571  41.931  39.066   3.537
86587W        W51572  41.950  13.246   4.512
86588W        W51573  30.423  17.740  12.029
86589W        W51574   7.578  17.217   2.474
86590W        W51575   2.924   3.304  14.049
86591W        W51576  33.772  29.630   2.734
86592W        W51577   9.379   5.829  12.476
86593W        W51578   2.038  24.092   1.913
86594W        W51579  28.959   5.882   4.706
86595W        W51580  43.874   4.248   4.067
86596W        W51581  10.695  43.475  10.463
86597W        W51582   4.982  44.726   0.414
86598W        W51583   2.688   4.736  14.822
86599W        W51584  23.975  17.993   0.448
86600W        W51585  26.924   3.985  11.135
86601W        W51586   3.850  19.707   1.012
86602W        W51587  33.410   3.274  13.424
86603W        W51588  35.574  22.496  12.560
86604W        W51589  28.136  20.655   1.411
86605W        W51590   7.350  18.549  14.295
86606W        W51591  14.210  31.683  14.943
86607W        W51592  44.943  24.560   5.039
86608W        W51593  34.640  32.542   0.383
86609W        W51594  24.118   5.320  10.531
86610W        W51595  25.640  24.037  13.689
86611W        W51596  19.126  11.401   1.611
86612W        W51597  30.334  37.488  12.118
86613W        W51598   0.446   9.328  13.895
86614W        W51599  16.903  10.784   4.433
86615W        W51600  17.760  32.968  13.972
86616W        W51601  13.856   4.927  12.928
86617W        W51602  16.125  25.070   3.802
86618W        W51603  10.123   2.404   4.068
86619W        W51604  40.244   4.915  13.960
86620W        W51605  13.793  23.395   0.524
86621W        W51606  38.869  14.284  13.969
86622W        W51607   3.772  12.678   4.974
86623W        W51608   1.708  31.559  12.995
86624W        W51609  10.120  39.709  13.138
86625W        W51610  30.179  17.211   3.078
86626W        W51611  32.076  25.432   0.347
86627W        W51612  13.742  31.678  12.493
86628W        W51613  33.534   7.759   3.642
86629W        W51614  32.297  38.794  14.502
86630W        W51615   9.793  39.799   4.065
86631W        W51616  15.749  17.608   3.660
86632W        W51617   5.199   5.975  13.514
86633W        W51618  16.702  16.282  14.007
86634W        W51619   2.010  25.641   4.320
86635W        W51620   3.687  35.802  12.009
86636W        W51621   4.958  42.506  12.903
86637W        W51622   5.056  24.687   4.546
86638W        W51623  17.268  29.626   2.307
86639W        W51624   6.425  19.335   1.693
86640W        W51625   0.287   2.846   4.631
86641W        W51626  40.059  22.206  14.811
86642W        W51627   6.621   4.364  11.770
86643W        W51628  31.005  17.081  13.175
86644W        W51629  27.001  39.107   0.685
86645W        W51630  44.080  16.847  13.316
86646W        W51631  42.523  24.875   3.946
86647W        W51632  25.690  26.255  12.577
86648W        W51633  21.727   1.719  14.434
86649W        W51634   8.287   7.801  14.447
86650W        W51635  12.104   5.383   4.151
86651W        W51636  43.638   8.242  10.761
86652W        W51637  16.201   6.725   1.753
86653W        W51638  34.044   4.337   4.340
86654W        W51639  19.541  42.563   0.039
86655W        W51640  37.267  36.408   4.086
86656W        W51641   6.184  23.001  11.945
86657W        W51642  41.374  34.273  11.193
86658W        W51643   8.879   8.163   3.757
86659W        W51644   0.969   0.812  10.481
86660W        W51645  19.312  19.961  13.914
86661W        W51646   9.128  13.316   2.160
86662W        W51647  24.699  22.216   0.352
86663W        W51648  32.150  11.456  14.331
86664W        W51649  39.933  38.744  13.510
86665W        W51650   6.181   6.712  13.228
86666W        W51651  41.985  19.336  13.437
86667W        W51652   1.387  16.211  14.540
86668W        W51653   2.978  13.605  11.009
86669W        W51654  31.088  23.645   1.146
86670W        W51655   8.774  28.910   1.142
86671W        W51656   8.447  42.017  11.560
86672W        W51657  14.235   6.200   1.084
86673W        W51658  23.235   8.651  14.827
86674W        W51659  16.320  19.107   1.872
86675W        W51660  39.777  25.147  12.427
86676W        W51661  42.774   8.350  13.419
86677W        W51662  34.946   2.037  12.087
86678W        W51663  23.931  22.116  14.436
86679W        W51664  26.630   5.282   2.831
86680W        W51665  31.909   1.311   3.360
86681W        W51666  11.226  40.042  11.631
86682W        W51667  25.097   0.207   3.946
86683W        W51668   8.293  10.515  10.138
86684W        W51669  10.249  18.474   5.066
86685W        W51670  17.673  34.152   2.757
86686W        W51671  25.272  27.511   0.901
86687W        W51672   8.536  23.520  14.647
86688W        W51673  35.465  12.347  11.888
86689W        W51674  27.007  28.656   2.183
86690W        W51675   2.948  33.106   1.821
86691W        W51676  13.561  11.113  13.764
86692W        W51677  15.830   0.165  11.613
86693W        W51678   3.710  29.914  11.178
86694W        W51679   4.390  43.205  12.748
86695W        W51680  44.872  10.621  14.358
86696W        W51681   0.066  18.117  14.357
86697W        W51682  37.082  43.491  12.011
86698W        W51683  26.595  15.344   3.810
86699W        W51684  36.822  39.867   2.352
86700W        W51685  13.653  23.719   4.847
86701W        W51686  43.774  37.432   2.858
86702W        W51687  43.076  17.847  14.224
86703W        W51688  12.594  32.995  11.980
86704W        W51689  30.674  30.478  11.535
86705W        W51690  25.377  28.809   0.526
86706W        W51691  44.476  38.094  12.648
86707W        W51692  38.774  10.229  11.181
86708W        W51693  26.504  37.346   5.469
86709W        W51694  32.401  22.810  14.334
86710W        W51695   0.755  17.485  12.885
86711W        W51696   4.269  34.525   0.470
86712W        W51697  26.402  27.465   0.267
86713W        W51698   9.083  39.548  12.209
86714W        W51699  38.760   6.968  11.248
86715W        W51700  26.252  10.817   1.924
86716W        W51701  20.198  10.603   3.768
86717W        W51702   1.805  22.866  13.909
86718W        W51703  31.320  15.810   4.075
86719W        W51704  32.931   4.469   0.277
86720W        W51705  12.301  38.946  10.755
86721W        W51706  22.616  18.756   0.318
86722W        W51707  41.208  33.319  11.005
86723W        W51708  11.420  33.083  10.786
86724W        W51709  34.961   2.539   2.184
86725W        W51710  34.089  10.704  11.872
86726W        W51711  36.294   0.677   0.770
86727W        W51712  12.082  33.877  11.959
86728W        W51713  18.185  10.199  11.076
86729W        W51714  27.051  40.395   2.494
86730W        W51715   9.182  30.448  13.091
86731W        W51716   7.498  40.454   0.869
86732W        W51717  40.673  36.036  14.690
86733W        W51718  44.180   8.310   9.998
86734W        W51719   3.055  25.794   1.369
86735W        W51720  36.930  31.324   1.381
86736W        W51721  33.692  33.815  12.575
86737W        W51722  30.917  33.472   2.570
86738W        W51723   3.326  35.342  14.841
86739W        W51724   2.759   1.269   3.121
86740W        W51725   3.325  44.167   2.786
86741W        W51726  10.206  30.927   3.799
86742W        W51727  25.427   2.800  13.887
86743W        W51728  34.516  10.429   4.081
86744W        W51729  15.420  12.454   4.225
86745W        W51730  36.248  11.370  14.408
86746W        W51731  19.388  17.605  10.211
86747W        W51732  37.963  23.376  12.497
86748W        W51733  27.640  26.878   3.708
86749W        W51734  23.983  30.769   1.193
86750W        W51735  33.875   0.173  11.507
86751W        W51736  26.683  30.958  11.762
86752W        W51737  41.378   8.091   4.129
86753W        W51738  31.495   2.950   0.976
86754W        W51739   7.611   3.505  11.862
86755W        W51740   5.852  31.716  11.145
86756W        W51741  30.685  21.654   3.354
86757W        W51742  43.609  37.826  11.614
86758W        W51743  34.553  21.248  12.847
86759W        W51744  33.568   4.709  14.414
86760W        W51745  21.287  17.677  13.309
86761W        W51746   7.156  22.907   2.326
86762W        W51747  17.590  19.115   5.479
86763W        W51748  27.516   0.867  12.547
86764W        W51749  10.790  11.365  11.659
86765W        W51750   6.226  29.151  11.700
86766W        W51751   1.513   8.818  12.644
86767W        W51752   2.921   6.304   0.953
86768W        W51753   1.334  33.366   2.763
86769W        W51754  14.406  12.530  13.894
86770W        W51755  12.472  30.137  11.129
86771W        W51756   0.937  29.029   4.691
86772W        W51757  22.647  28.758  13.347
86773W        W51758  44.739   7.224   3.262
86774W        W51759  33.090  19.463  13.372
86775W        W51760  24.536   9.648  12.997
86776W        W51761  10.343  12.633   0.291
86777W        W51762  44.665  33.196  14.831
86778W        W51763  30.165  44.309   4.074
86779W        W51764  15.225  13.637   0.501
86780W        W51765  10.898  31.680   1.376
86781W        W51766  24.523   3.274  12.241
86782W        W51767  26.876  15.297  13.825
86783W        W51768  35.121  26.166   2.797
86784W        W51769   3.161  32.765  13.732
86785W        W51770  38.360   0.031  13.447
86786W        W51771  23.459   8.668  12.110
86787W        W51772  16.739  44.287   3.169
86788W        W51773  27.535  35.733   2.154
86789W        W51774  32.413  40.885   0.770
86790W        W51775  19.167  16.295   0.517
86791W        W51776  29.607   8.671   2.125
86792W        W51777  10.768   5.734   4.117
86793W        W51778  30.983   3.772   1.616
86794W        W51779  32.639  44.018   4.440
86795W        W51780  38.360  40.497   2.796
86796W        W51781   2.866  40.536   4.047
86797W        W51782  39.887   5.519   4.740
86798W        W51783  25.296  29.661   1.408
86799W        W51784  36.500  15.351  12.057
86800W        W51785  15.274   6.019   1.304
86801W        W51786   1.792   5.412  12.028
86802W        W51787   8.220  18.849   2.847
86803W        W51788  36.926  28.930  14.777
86804W        W51789  21.336  30.375  10.644
86805W        W51790  23.456   7.508   3.652
86806W        W51791   6.183  43.615   2.936
86807W        W51792   4.093  10.211  11.535
86808W        W51793  10.613  44.655   2.404
86809W        W51794  24.289  33.943   0.332
86810W        W51795   5.212  23.617  13.947
86811W        W51796  24.533  14.088  11.616
86812W        W51797  29.005  22.331   0.413
86813W        W51798  13.409  22.223   1.427
86814W        W51799  39.585  43.965   3.346
86815W        W51800   2.946  31.472   0.924
86816W        W51801  22.777  39.863   0.471
86817W        W51802   6.664   3.924   4.071
86818W        W51803  13.711   7.256   4.567
86819W        W51804  28.711  25.156  14.328
86820W        W51805   5.479  23.954  12.920
86821W        W51806  31.097  24.202  12.158
86822W        W51807  27.936  40.435  13.486
86823W        W51808  22.469  33.359  11.220
86824W        W51809  15.534  18.534   5.058
86825W        W51810  24.227  27.146   3.090
86826W        W51811  23.257  22.148  12.481
86827W        W51812  23.088  37.860  12.410
86828W        W51813  26.218   9.131   0.506
86829W        W51814   8.009  30.908  10.095
86830W        W51815   2.027  30.586   3.189
86831W        W51816  21.858   3.092  11.399
86832W        W51817  44.092  19.207  14.749
86833W        W51818  30.322  26.506  14.900
86834W        W51819  37.826  31.108  14.801
86835W        W51820   7.787  12.246   1.884
86836W        W51821  10.213  42.888   0.363
86837W        W51822  32.684   4.042   0.453
86838W        W51823  21.163  13.794  14.941
86839W        W51824  23.679   7.828  11.556
86840W        W51825  37.929  38.835   1.399
86841W        W51826   0.255  30.486   4.351
86842W        W51827   5.284  29.303  12.360
86843W        W51828  26.113  41.292  14.927
86844W        W51829  31.951  29.020   2.449
86845W        W51830   9.852  27.486  13.318
86846W        W51831  13.813  30.029   3.693
86847W        W51832  41.391  41.523  13.830
86848W        W51833  25.724  38.824   0.721
86849W        W51834   5.518  28.583   3.138
86850W        W51835   6.298  28.658  11.547
86851W        W51836  29.854  41.012  11.169
86852W        W51837  25.079  18.194  10.663
86853W        W51838  10.181  38.308  14.872
86854W        W51839  40.927  21.562   1.267
86855W        W51840   9.448  11.354   0.462
86856W        W51841  38.931  30.541  13.290
86857W        W51842  33.642  22.664  12.694
86858W        W51843   6.762  26.498  12.795
86859W        W51844  13.901  18.076   3.664
86860W        W51845   7.256   1.216   0.865
86861W        W51846  15.181  34.368   2.066
86862W        W51847  20.216  35.534   3.032
86863W        W51848  23.787  30.557   4.699
86864W        W51849  42.750  39.031   4.928
86865W        W51850   0.672  21.175   0.501
86866W        W51851  32.074  29.687   2.785
86867W        W51852  37.612  27.534  10.695
86868W        W51853  25.518  18.188  14.040
86869W        W51854  32.167  25.197  13.390
86870W        W51855  22.535  10.457   2.530
86871W        W51856  13.611   0.916   3.783
86872W        W51857  31.976  18.633  14.762
86873W        W51858  23.746  17.592   2.600
86874W        W51859   8.293  33.847   0.709
86875W        W51860  41.948  44.761   4.479
86876W        W51861  35.386  24.081  13.402
86877W        W51862  36.613   3.822   1.876
86878W        W51863  40.829  40.906   1.193
86879W        W51864   9.769  25.175   0.898
86880W        W51865  15.918  10.665   0.711
86881W        W51866  30.697  37.506   0.430
86882W        W51867  41.715  12.251  13.415
86883W        W51868  20.008  19.346   0.918
86884W        W51869   0.889  36.982   0.985
86885W        W51870  12.738  42.873  10.094
86886W        W51871  38.074  28.206   0.902
86887W        W51872   3.815  27.257  13.853
86888W        W51873  42.168  30.196   4.253
86889W        W51874   5.946  10.639  12.476
86890W        W51875   4.373  25.559   0.241
86891W        W51876  12.920   3.151  14.831
86892W        W51877  25.956  21.592  10.710
86893W        W51878  35.385  17.674  12.410
86894W        W51879  33.846  43.105  13.790
86895W        W51880   6.583  43.988   0.113
86896W        W51881  37.281  16.796  11.234
86897W        W51882   2.730  25.657  12.841
86898W        W51883  27.783   8.739   0.860
86899W        W51884  17.348  29.984  12.587
86900W        W51885  13.668  15.855  11.978
86901W        W51886  22.111  18.454  10.654
86902W        W51887  14.970  39.536  12.995
86903W        W51888  34.913  31.914   4.427
86904W        W51889   3.350  11.115  12.998
86905W        W51890   5.748  41.095  11.082
86906W        W51891  23.439  19.893   5.096
86907W        W51892  26.213   5.835   2.857
86908W        W51893  29.504  44.332   5.466
86909W        W51894  10.762  40.603   3.333
86910W        W51895   0.395  18.541   1.964
86911W        W51896  27.694   1.837  14.777
86912W        W51897  17.068  16.635   1.682
86913W        W51898  39.461  15.459   4.001
86914W        W51899  32.574  24.118  12.896
86915W        W51900  42.139   5.201   4.056
86916W        W51901   0.874  16.837  14.612
86917W        W51902  21.220  42.872  11.834
86918W        W51903  31.957  15.051  11.134
86919W        W51904  40.950   9.846  14.923
86920W        W51905  22.757   7.746  14.992
86921W        W51906  19.154  16.329   2.298
86922W        W51907  24.712   3.936  14.919
86923W        W51908  15.135  25.361   5.048
86924W        W51909  17.027  23.068  12.735
86925W        W51910  27.516   5.749   0.857
86926W        W51911  41.440  32.386   0.124
86927W        W51912   4.716  22.952  14.308
86928W        W51913  30.434  29.101  13.553
86929W        W51914  41.974  13.343   3.636
86930W        W51915  11.780  43.215   1.653
86931W        W51916  34.159  24.193   0.073
86932W        W51917  21.670  33.080   4.027
86933W        W51918  21.234  28.022   1.235
86934W        W51919  15.604  35.584   2.355
86935W        W51920   4.060  23.732   2.674
86936W        W51921  16.585   7.657   1.781
86937W        W51922  36.057  23.413   4.643
86938W        W51923  15.611  21.109   1.813
86939W        W51924  10.455  37.251  10.371
86940W        W51925  38.346  15.081   0.970
86941W        W51926  26.255  41.875  10.600
86942W        W51927  40.995  19.731   4.413
86943W        W51928  37.050  33.722   3.192
86944W        W51929  21.775   2.232  14.484
86945W        W51930  44.415   5.805   2.545
86946W        W51931   0.891  44.911  11.992
86947W        W51932  14.768  40.431   3.574
86948W        W51933  12.437   0.959   2.702
86949W        W51934   7.148  24.124  14.329
86950W        W51935  11.232  23.979   3.839
86951W        W51936   8.265  25.696   2.231
86952W        W51937   5.846   0.507  12.120
86953W        W51938  29.423  23.667   2.773
86954W        W51939  15.155  23.040   2.862
86955W        W51940  35.977  29.683  14.342
86956W        W51941  16.571  38.992   1.475
86957W        W51942  35.800  26.668   4.077
86958W        W51943  11.689  38.784   2.696
86959W        W51944  28.433  44.101  14.261
86960W        W51945   9.959  35.409  13.809
86961W        W51946  37.378  44.484  10.975
86962W        W51947  42.044  44.969   1.349
86963W        W51948  43.575   4.242  12.519
86964W        W51949   3.420  36.735   3.507
86965W        W51950  31.068   9.254   0.376
86966W        W51951  16.196  42.498  12.616
86967W        W51952   5.922  32.141   1.452
86968W        W51953  43.556  35.083  11.789
86969W        W51954  35.890  36.602   3.807
86970W        W51955   9.547  39.949   3.627
86971W        W51956  16.201  19.996  14.989
86972W        W51957  21.761   2.328  11.010
86973W        W51958  36.623  41.966  14.361
86974W        W51959   7.701  16.792  12.393
86975W        W51960  26.513  19.495  13.856
86976W        W51961  19.412   5.404   4.837
86977W        W51962  22.035   5.305  11.936
86978W        W51963  38.093   3.874  12.604
86979W        W51964  30.145   0.369  13.034
86980W        W51965  43.093  28.413  12.044
86981W        W51966  35.160  17.681   0.883
86982W        W51967  12.565  12.744  14.544
86983W        W51968  44.441  41.338  11.272
86984W        W51969   3.815  37.808  13.451
86985W        W51970  21.774  34.491  11.917
86986W        W51971  11.384  27.880   3.681
86987W        W51972  12.757  10.911  11.172
86988W        W51973  40.610  37.355   0.912
86989W        W51974  20.701  33.172   3.909
86990W        W51975  14.585  27.099   9.917
86991W        W51976  31.560  39.158  12.019
86992W        W51977  40.006  21.103   4.953
86993W        W51978  44.051  44.347   2.694
86994W        W51979  10.262  20.520   2.780
86995W        W51980   1.162   6.347   0.515
86996W        W51981  20.266   1.770   4.406
86997W        W51982  37.248  38.557   1.063
86998W        W51983  19.470  37.517  14.032
86999W        W51984  27.797  33.344  13.518
87000W        W51985   7.376  24.616  11.401
87001W        W51986  22.432  27.681  13.433
87002W        W51987  41.654   4.852   2.322
87003W        W51988   6.386  35.591  14.776
87004W        W51989  35.585   8.490  11.675
87005W        W51990   3.012  27.464  11.575
87006W        W51991   1.946   7.914   3.729
87007W        W51992  18.475  33.087   2.299
87008W        W51993  26.475  41.408  13.093
87009W        W51994  37.891  23.124   3.533
87010W        W51995   6.349  31.832   0.896
87011W        W51996  24.558   6.294  13.343
87012W        W51997  31.056   5.338  11.461
87013W        W51998  21.125  13.951   3.174
87014W        W51999  18.387  42.357  13.545
87015W        W52000  27.144  39.437  12.514
87016W        W52001  39.497  41.562  12.867
87017W        W52002   6.523   1.235  12.933
87018W        W52003  31.954  13.376  11.698
87019W        W52004  16.865  38.345  14.305
87020W        W52005  42.277   6.794   2.396
87021W        W52006  44.712   8.148   4.275
87022W        W52007  39.599  36.939  12.442
87023W        W52008  37.286  11.379   4.845
87024W        W52009  36.847  13.231  10.796
87025W        W52010  44.821  42.557  11.739
87026W        W52011  26.123  42.942  10.137
87027W        W52012  26.457   0.301  10.660
87028W        W52013  23.202  13.752  13.831
87029W        W52014  27.545  12.269   1.848
87030W        W52015   6.055  39.704  10.673
87031W        W52016  41.002  31.170   4.131
87032W        W52017  22.665  35.087   2.935
87033W        W52018  23.613  25.994  13.954
87034W        W52019  24.131  39.927  10.788
87035W        W52020  39.909   9.163   0.491
87036W        W52021   9.002  38.608  11.117
87037W        W52022  30.519   9.607   3.743
87038W        W52023  11.678  11.501   5.315
87039W        W52024  31.428   0.049  12.581
87040W        W52025  17.972  27.176   0.817
87041W        W52026   5.077  36.145  10.222
87042W        W52027  31.635   3.519   4.190
87043W        W52028  42.851  14.230   3.180
87044W        W52029  29.746  32.587  14.729
87045W        W52030  38.343  17.594   0.759
87046W        W52031  10.770  18.183   3.417
87047W        W52032  29.371   0.394  14.365
87048W        W52033  19.706  30.933  14.829
87049W        W52034  15.553  39.482  13.896
87050W        W52035  20.719  15.306  13.919
87051W        W52036   6.664  27.114  14.988
87052W        W52037  22.463  21.084  12.496
87053W        W52038  16.305   7.774  12.152
87054W        W52039  39.513  33.871   2.791
87055W        W52040  26.611  42.290  13.009
87056W        W52041  29.294   3.555  11.641
87057W        W52042  33.380  30.480  11.223
87058W        W52043  41.056  15.564   3.711
87059W        W52044   1.909  33.206  13.145
87060W        W52045   8.348  26.816   4.549
87061W        W52046  22.561  40.394   4.143
87062W        W52047  26.115  32.421  11.612
87063W        W52048  34.386  21.465  11.628
87064W        W52049  22.556   9.180   3.450
87065W        W52050  28.356   8.841  11.188
87066W        W52051  24.446   6.478  11.488
87067W        W52052  31.613  28.914   4.567
87068W        W52053  32.219  27.221   2.418
87069W        W52054  36.800  42.963   3.881
87070W        W52055   7.373   8.821  11.203
87071W        W52056  37.843  41.895   0.717
87072W        W52057  26.107   8.539  11.134
87073W        W52058  44.753  37.836  10.660
87074W        W52059  16.053  44.377  10.461
87075W        W52060  27.482  12.960   3.983
87076W        W52061  44.418  41.935  14.019
87077W        W52062  27.686  38.271  12.227
87078W        W52063  39.196  18.035   4.538
87079W        W52064  35.730   8.541  13.831
87080W        W52065  37.510  30.287   3.302
87081W        W52066   7.732  17.536   2.861
87082W        W52067  24.666   8.243   2.317
87083W        W52068  16.719  37.306   1.217
87084W        W52069  40.924  23.697  10.331
87085W        W52070  40.783  15.139  10.714
87086W        W52071  28.076  27.203   3.003
87087W        W52072  27.160  36.208   3.822
87088W        W52073  19.852  18.139  13.792
87089W        W52074  26.680   7.748  11.149
87090W        W52075  15.099  25.934  11.657
87091W        W52076  17.619  20.354   4.492
87092W        W52077  17.198  16.149  11.430
87093W        W52078  39.608  41.228   3.807
87094W        W52079  36.800  35.001   3.235
87095W        W52080  13.396  11.054  13.284
87096W        W52081   0.312  21.948   2.241
87097W        W52082  18.331  30.224  14.467
87098W        W52083  44.759  27.243   3.854
87099W        W52084  10.550  32.206  10.009
87100W        W52085  38.014  16.753   0.449
87101W        W52086   6.865   0.338   1.515
87102W        W52087  38.331  19.561  13.439
87103W        W52088  14.096  26.439  10.305
87104W        W52089  16.278   8.841  14.621
87105W        W52090  19.559   2.756  13.953
87106W        W52091  19.615  23.191  11.190
87107W        W52092  31.850  26.995  11.508
87108W        W52093  33.928  40.454   4.873
87109W        W52094  44.182  37.832   3.331
87110W        W52095  23.148   1.539  12.097
87111W        W52096  28.183  12.870   3.713
87112W        W52097   2.374  40.851  14.366
87113W        W52098  40.664   0.835  13.337
87114W        W52099  27.566  29.423   1.379
87115W        W52100   5.701  38.898  14.636
87116W        W52101  25.135  27.002   4.587
87117W        W52102  31.952  11.492   4.489
87118W        W52103  11.781  15.738   3.728
87119W        W52104  33.541  35.632   4.504
87120W        W52105  31.424   5.384  14.479
87121W        W52106  39.794   1.310   0.270
87122W        W52107  37.953  24.722   1.862
87123W        W52108  37.366   8.271   0.701
87124W        W52109  10.526  15.268   3.822
87125W        W52110   2.782   5.645  13.416
87126W        W52111  42.065  21.156   3.643
87127W        W52112  44.368  33.933  12.201
87128W        W52113  11.623  42.747   1.786
87129W        W52114  14.532  16.691   0.871
87130W        W52115  10.224  27.895   0.302
87131W        W52116  23.362  18.695  12.497
87132W        W52117  10.568  24.155   1.587
87133W        W52118  27.407  40.424  12.974
87134W        W52119  28.919  44.816   2.523
87135W        W52120  21.294   1.483  12.459
87136W        W52121  21.732   7.118   2.908
87137W        W52122   4.812  43.412  13.929
87138W        W52123  18.800  44.502  11.634
87139W        W52124  10.279  18.683   2.315
87140W        W52125   5.240  23.468  12.110
87141W        W52126  32.070  21.075   1.805
87142W        W52127   0.226  29.614   4.668
87143W        W52128  27.843  35.823   5.021
87144W        W52129  16.776  24.136   4.624
87145W        W52130  43.220   1.673  11.112
87146W        W52131  41.341  18.407   2.851
87147W        W52132  20.511  36.062   1.845
87148W        W52133  43.816   7.415   3.781
87149W        W52134  27.391   8.312  14.212
87150W        W52135  21.077  16.541  11.169
87151W        W52136  26.003   7.223   3.751
87152W        W52137  34.393   0.380  12.376
87153W        W52138  19.024   2.342   2.650
87154W        W52139   6.468   7.859  12.397
87155W        W52140  33.405  23.435   1.791
87156W        W52141  36.932   0.499   2.886
87157W        W52142   2.711  36.123  11.984
87158W        W52143  18.211  22.276  12.340
87159W        W52144  29.915  16.650   3.750
87160W        W52145  18.813  43.735   2.403
87161W        W52146   0.418   1.803   0.356
87162W        W52147   0.377  26.042   3.806
87163W        W52148   7.205  39.123  13.073
87164W        W52149  17.616  40.125   1.166
87165W        W52150  43.063  41.780  12.052
87166W        W52151  37.720   7.829  12.366
87167W        W52152  20.116  33.073   3.074
87168W        W52153  14.857  32.391   4.505
87169W        W52154  40.980  31.387  14.585
87170W        W52155  29.997  43.101   4.659
87171W        W52156   6.704  34.914   0.190
87172W        W52157  33.182   6.162   1.841
87173W        W52158   4.781  37.793   4.609
87174W        W52159  25.730  13.797  11.196
87175W        W52160  16.043  12.286   2.764
87176W        W52161   7.692   8.143   3.288
87177W        W52162  23.499   2.346   3.943
87178W        W52163  44.608  38.953  12.966
87179W        W52164  36.355   1.239   3.632
87180W        W52165  44.136  37.781  11.633
87181W        W52166  41.793  30.251  13.684
87182W        W52167  30.960   5.625  12.977
87183W        W52168  39.894   9.936  11.577
87184W        W52169  21.171  35.457   2.882
87185W        W52170   4.771  26.016   4.103
87186W        W52171  19.163  17.741   0.927
87187W        W52172  18.119  14.816  13.563
87188W        W52173  42.777  13.625   0.145
87189W        W52174  14.711  13.783   0.206
87190W        W52175  15.136  21.189  13.564
87191W        W52176  37.919  43.063  12.538
87192W        W52177  36.432  29.020  13.136
87193W        W52178  38.898   8.694  13.648
87194W        W52179   0.800  11.364   2.649
87195W        W52180  25.800  31.969   0.388
87196W        W52181  35.912  31.845  13.475
87197W        W52182  15.859   7.300   4.106
87198W        W52183  11.663  30.919   4.373
87199W        W52184  39.864  17.621  14.434
87200W        W52185  16.581  14.731  10.558
87201W        W52186  21.540  21.398  14.988
87202W        W52187   0.245  30.001   4.090
87203W        W52188   1.012  17.128  12.606
87204W        W52189  39.516   6.803  11.510
87205W        W52190  25.146   1.571   3.094
87206W        W52191   0.234  25.457   0.230
87207W        W52192  39.844  43.300  13.948
87208W        W52193   4.604   6.384   5.109
87209W        W52194  27.768  34.139  11.617
87210W        W52195  23.191  18.481   4.139
87211W        W52196  15.279  28.676  12.856
87212W        W52197  41.302  40.427  10.975
87213W        W52198  43.759  15.101  14.280
87214W        W52199  38.757  22.250   2.829
87215W        W52200   9.173  17.221   2.683
87216W        W52201   1.965   1.716  14.370
87217W        W52202  16.342  24.536  10.607
87218W        W52203  34.655   0.495   0.293
87219W        W52204  12.629  30.782  14.960
87220W        W52205  35.114  23.276   0.436
87221W        W52206  38.787  38.006  12.991
87222W        W52207  16.744  36.302   0.262
87223W        W52208  16.738  29.556  14.548
87224W        W52209  28.185   6.434   0.613
87225W        W52210  34.186  25.522  11.023
87226W        W52211   4.193  41.356   4.547
87227W        W52212  30.703  26.153   4.511
87228W        W52213   7.232  11.822  12.521
87229W        W52214  13.262  30.742   1.767
87230W        W52215  26.075  29.192  11.539
87231W        W52216  24.415   5.270   2.824
87232W        W52217  20.227  26.408  12.898
87233W        W52218   4.890  33.771  12.050
87234W        W52219  38.836  41.573  14.402
87235W        W52220  34.374  10.368   3.240
87236W        W52221  43.086  35.406   2.233
87237W        W52222  41.287  18.316  14.333
87238W        W52223  22.603   8.794   5.154
87239W        W52224   8.666   8.455   4.200
87240W        W52225  41.870  24.287  13.444
87241W        W52226  43.524  13.976   0.793
87242W        W52227   9.938   4.235  14.409
87243W        W52228  20.631   4.386  10.290
87244W        W52229  20.027  44.651  10.617
87245W        W52230  25.162  23.481   0.258
87246W        W52231   1.270  19.830  13.913
87247W        W52232   1.162   1.445   1.897
87248W        W52233   7.874  20.850  11.242
87249W        W52234   7.839  41.743  13.114
87250W        W52235  26.640  42.843   1.289
87251W        W52236  22.662  30.621  13.608
87252W        W52237  21.568  28.045  12.157
87253W        W52238  17.445  34.304   1.026
87254W        W52239  37.527  34.470  10.412
87255W        W52240   6.322  40.400  11.158
87256W        W52241   8.186  20.191   3.635
87257W        W52242  42.479  33.937   1.863
87258W        W52243  42.361  38.528   0.243
87259W        W52244  10.654  42.405   2.717
87260W        W52245   0.612  37.658  12.295
87261W        W52246  16.135  25.575  11.234
87262W        W52247  23.210   0.968  10.326
87263W        W52248   0.569  41.796   3.665
87264W        W52249   0.163  12.909   0.737
87265W        W52250  42.319  26.946   0.024
87266W        W52251  42.990   5.716  12.970
87267W        W52252  23.074  31.359  10.789
87268W        W52253  20.291  38.567   4.219
87269W        W52254   2.823  44.898   2.817
87270W        W52255   9.420  32.562  12.148
87271W        W52256  17.697  23.566   1.895
87272W        W52257  26.648  22.171  12.474
87273W        W52258  35.861  13.766   4.156
87274W        W52259  44.418   8.721  12.055
87275W        W52260  27.465  14.788  11.594
87276W        W52261   6.538  23.061   5.017
87277W        W52262   5.278  20.170   0.867
87278W        W52263  37.845  35.880  14.739
87279W        W52264  21.393   0.248   3.748
87280W        W52265   0.778  28.383  11.172
87281W        W52266  20.597   8.410   1.256
87282W        W52267  27.053  25.673   2.795
87283W        W52268   4.190  38.678  14.003
87284W        W52269  17.685  22.986  13.374
87285W        W52270   9.322  17.101  12.043
87286W        W52271   4.729  16.606   1.968
87287W        W52272  27.457  38.983   0.468
87288W        W52273   3.959  27.071   2.630
87289W        W52274   3.469  34.562   2.951
87290W        W52275  18.509  19.765   1.749
87291W        W52276  20.710  10.419   3.798
87292W        W52277  13.915   6.932   4.179
87293W        W52278   5.289  25.953   1.276
87294W        W52279   7.374   0.201  11.642
87295W        W52280  13.771  11.379  14.730
87296W        W52281   1.473   3.451  14.235
87297W        W52282  25.131   2.546  14.799
87298W        W52283  32.592  16.179  10.669
87299W        W52284  10.272  23.881  11.889
87300W        W52285  18.236  41.049  13.015
87301W        W52286  11.931  31.935  11.267
87302W        W52287  26.387  21.360   1.204
87303W        W52288   3.696  11.922  13.366
87304W        W52289  30.668  15.071   0.289
87305W        W52290  20.564  32.912   1.399
87306W        W52291  24.934  43.824   0.865
87307W        W52292  40.369  28.153   5.080
87308W        W52293  12.363   6.431  10.610
87309W        W52294  44.426   1.992  14.944
87310W        W52295  26.461  43.299  12.385
87311W        W52296  43.243   6.916  13.314
87312W        W52297  24.494   1.202  11.038
87313W        W52298  21.190   5.693  11.553
87314W        W52299   7.831  14.383  12.637
87315W        W52300  13.782  10.340  10.612
87316W        W52301   9.933  23.990   1.295
87317W        W52302   3.842  33.044  10.595
87318W        W52303  36.384  11.838  14.547
87319W        W52304  21.094   6.602  12.448
87320W        W52305  29.406   1.032  14.792
87321W        W52306  20.052  42.139  12.537
87322W        W52307  40.976   7.361  14.507
87323W        W52308  13.156  23.788  10.713
87324W        W52309   6.402  34.350   2.735
87325W        W52310  21.557  36.757  11.142
87326W        W52311  15.861  18.905  13.497
87327W        W52312  43.505  14.617  11.660
87328W        W52313  37.042  20.958   1.228
87329W        W52314  38.302  19.755  11.992
87330W        W52315  31.868  10.232  10.523
87331W        W52316  44.527   7.746  11.644
87332W        W52317  16.805  20.164  14.150
87333W        W52318  27.440   2.721  11.607
87334W        W52319  27.640  35.617  12.036
87335W        W52320  44.745  20.074  12.372
87336W        W52321  28.733  28.045   1.719
87337W        W52322   3.959  43.993   1.371
87338W        W52323  36.776  16.409   3.532
87339W        W52324  31.442  12.835  13.858
87340W        W52325  35.482  11.568  12.629
87341W        W52326  40.901   5.368   0.361
87342W        W52327  15.082  43.947   2.699
87343W        W52328   5.919   7.843   4.237
87344W        W52329  13.768  44.300  12.862
87345W        W52330  33.594  43.850   0.679
87346W        W52331  19.379  31.748  10.714
87347W        W52332  22.176   2.959   4.111
87348W        W52333   6.438  23.194  10.897
87349W        W52334  29.450  41.407   2.001
87350W        W52335  19.345  44.821  13.967
87351W        W52336   0.866  40.888  12.560
87352W        W52337  26.722  20.259  11.726
87353W        W52338  36.556  32.841   2.023
87354W        W52339   3.861  33.121  14.570
87355W        W52340  16.960  21.575  11.153
87356W        W52341  42.111  37.506  10.749
87357W        W52342  26.296  30.113   4.435
87358W        W52343  31.488  10.926   3.225
87359W        W52344  14.508  22.103  12.970
87360W        W52345   3.293  10.530   4.820
87361W        W52346   6.785  23.208  11.667
87362W        W52347   1.381   9.195   1.436
87363W        W52348  22.762   1.759  10.004
87364W        W52349  44.398  24.654  10.721
87365W        W52350   1.464  34.089  13.549
87366W        W52351  44.041  16.231  11.047
87367W        W52352  11.495   8.078   0.248
87368W        W52353  26.080  42.248   0.315
87369W        W52354   2.400  39.348   0.878
87370W        W52355  44.519  37.532   1.319
87371W        W52356  16.219  40.925  13.973
87372W        W52357   6.830  43.838  12.915
87373W        W52358  34.971  34.573  13.805
87374W        W52359  14.096  26.189  13.098
87375W        W52360  28.902  40.182   2.188
87376W        W52361  35.447  12.855   4.104
87377W        W52362  41.575  35.599   2.268
87378W        W52363  13.700  25.246   4.010
87379W        W52364  38.144   7.445  13.865
87380W        W52365  14.602  28.695  10.929
87381W        W52366  41.560   8.919   2.786
87382W        W52367  22.779  39.057  13.468
87383W        W52368  40.968  16.283   0.505
87384W        W52369   0.361  44.877  13.117
87385W        W52370   1.951  41.298  13.083
87386W        W52371  34.510  24.107   4.634
87387W        W52372  18.195  42.978   4.363
87388W        W52373  31.077  24.035   1.486
87389W        W52374  37.147  18.782   5.067
87390W        W52375  11.171  11.846  14.044
87391W        W52376   1.423  29.137   2.385
87392W        W52377  43.293  10.124   1.216
87393W        W52378  33.998  28.245  14.323
87394W        W52379  41.310  37.540   4.443
87395W        W52380  17.028  36.916  10.533
87396W        W52381  18.994   5.669   4.060
87397W        W52382   4.206  36.020  10.805
87398W        W52383  39.375  19.518  13.365
87399W        W52384  36.736  40.622  14.852
87400W        W52385  25.998  25.602   1.416
87401W        W52386  29.634   2.502  12.490
87402W        W52387  15.400  22.765  14.443
87403W        W52388  43.400  24.515   0.712
87404W        W52389  16.585  17.722  11.522
87405W        W52390  10.805  34.972   3.049
87406W        W52391   5.406   4.256  14.336
87407W        W52392  10.123  32.200   1.756
87408W        W52393  27.260  24.196  12.603
87409W        W52394  43.717  38.924  10.446
87410W        W52395  33.519  17.090  14.832
87411W        W52396   7.824  42.287  14.889
87412W        W52397  16.277   4.163  12.970
87413W        W52398   4.124  21.843  12.094
87414W        W52399  38.931   1.761   4.152
87415W        W52400   4.495  13.767  13.012
87416W        W52401  35.957  37.107  13.878
87417W        W52402  12.289  43.758  10.393
87418W        W52403  18.268   5.164  14.759
87419W        W52404  19.858  14.389  11.728
87420W        W52405  38.167   8.021   1.313
87421W        W52406   2.357  35.802  10.793
87422W        W52407  31.586  38.509   0.012
87423W        W52408   1.986   0.798  14.840
87424W        W52409  23.778  26.935   3.362
87425W        W52410  39.035  37.140   1.233
87426W        W52411  10.697  39.110  14.960
87427W        W52412  25.251  16.544  11.568
87428W        W52413   6.842  43.293  12.905
87429W        W52414   7.118  21.616   0.445
87430W        W52415   5.158  25.132  10.562
87431W        W52416  35.612  16.211  10.685
87432W        W52417  10.666  27.433   2.284
87433W        W52418   7.182  18.084  14.832
87434W        W52419  29.314  13.044  10.710
87435W        W52420  15.844  37.419  12.655
87436W        W52421  44.249  24.078  14.719
87437W        W52422  23.487  28.223  11.991
87438W        W52423  17.246  17.106   1.860
87439W        W52424   3.301   4.765   4.537
87440W        W52425  25.695  20.271  13.775
87441W        W52426  10.399  35.619  11.218
87442W        W52427  14.332  15.385  12.093
87443W        W52428  44.664  12.893  14.460
87444W        W52429  15.375  12.719  14.860
87445W        W52430  17.677  20.590  12.255
87446W        W52431  28.683   6.827   2.831
87447W        W52432  41.313  12.334  10.688
87448W        W52433  10.793  25.288  14.428
87449W        W52434  42.804   8.710  10.408
87450W        W52435   6.932  37.197  11.069
87451W        W52436   8.775   9.232  14.902
87452W        W52437  23.175   0.472   2.709
87453W        W52438  33.926  17.092  13.391
87454W        W52439   1.352   0.691   3.291
87455W        W52440  40.987  43.069   2.807
87456W        W52441  41.371  29.520   1.424
87457W        W52442  36.694  40.005   3.783
87458W        W52443  13.703  23.549   3.800
87459W        W52444  13.344  40.051   1.976
87460W        W52445  32.477  44.910  13.800
87461W        W52446  34.515  23.649  11.159
87462W        W52447  36.317  25.498   2.602
87463W        W52448  18.759  28.485   4.153
87464W        W52449  14.616   0.389  11.929
87465W        W52450  25.173  24.843  10.485
87466W        W52451  13.259  10.518  12.609
87467W        W52452   2.171   0.144   1.026
87468W        W52453  35.514   4.031   4.632
87469W        W52454  40.922  23.146   1.813
87470W        W52455  19.308  24.840   1.938
87471W        W52456  23.958  26.671  13.499
87472W        W52457  22.738  16.289   0.888
87473W        W52458  39.656  20.571   1.920
87474W        W52459  10.560   6.301  14.017
87475W        W52460  27.512  17.869  14.601
87476W        W52461  41.358  31.552   4.115
87477W        W52462  24.448   4.403  13.587
87478W        W52463  34.789  33.063  11.932
87479W        W52464  14.411   4.362  11.546
87480W        W52465  25.335  12.241  11.042
87481W        W52466  31.997  18.185   0.528
87482W        W52467  44.914  19.131  11.011
87483W        W52468  30.845  19.119  11.696
87484W        W52469   6.734  17.318  10.567
87485W        W52470  34.221  16.595   3.819
87486W        W52471  16.242   8.215  12.438
87487W        W52472  32.525  17.484   1.347
87488W        W52473  38.525  27.462  14.003
87489W        W52474  23.722  33.958   1.414
87490W        W52475   3.168  19.086  13.720
87491W        W52476  25.246   9.710   1.482
87492W        W52477  42.395  34.428  12.613
87493W        W52478  26.145  23.591   1.265
87494W        W52479  11.206  22.451  14.497
87495W        W52480   3.513  44.421   1.488
87496W        W52481  13.343  44.202   2.240
87497W        W52482  25.163  24.354   3.445
87498W        W52483   7.797  19.723  11.674
87499W        W52484  44.477  42.929  12.510
87500W        W52485  33.507  38.941   4.454
87501W        W52486  28.591  10.678   2.164
87502W        W52487  34.862  15.235  13.505
87503W        W52488   5.422  22.504   4.518
87504W        W52489  44.804   5.372  11.083
87505W        W52490  27.911   0.876   2.209
87506W        W52491  37.013   0.384   1.961
87507W        W52492  16.687  28.033   0.818
87508W        W52493  37.323  30.467  12.963
87509W        W52494  17.461  38.069   0.507
87510W        W52495  39.927  37.129  11.469
87511W        W52496  28.086  14.747  12.863
87512W        W52497  28.691  15.560   4.130
87513W        W52498   9.205   1.549   2.825
87514W        W52499  41.257  36.669  12.105
87515W        W52500   1.432  26.460  11.653
87516W        W52501  24.913   7.810   2.209
87517W        W52502  34.879  22.312   0.712
87518W        W52503  23.291  36.051  10.694
87519W        W52504  44.062  40.381   3.181
87520W        W52505  19.042  22.213  11.919
87521W        W52506  19.082  29.118  12.888
87522W        W52507  30.505  36.046  11.287
87523W        W52508  22.393  20.838  10.780
87524W        W52509  15.545   6.420   1.163
87525W        W52510  13.650  11.559  11.230
87526W        W52511  29.907  36.031   2.393
87527W        W52512   7.284  36.044  14.943
87528W        W52513  37.023  44.950   0.113
87529W        W52514  31.573  33.369  14.904
87530W        W52515   9.300  33.409  14.378
87531W        W52516  17.371   8.932  11.129
87532W        W52517  30.582  30.653  12.418
87533W        W52518   6.298   0.491  11.476
87534W        W52519  41.349  12.591  13.532
87535W        W52520  14.042   6.060  14.593
87536W        W52521   1.720  38.502   0.644
87537W        W52522  44.435  26.655   9.812
87538W        W52523  29.970  35.403  13.095
87539W        W52524   7.893  13.227   4.366
87540W        W52525  42.095  22.913   2.928
87541W        W52526  40.453  14.519   3.660
87542W        W52527  43.390  10.975  10.816
87543W        W52528  41.328  18.099   1.400
87544W        W52529  20.500  26.641  13.269
87545W        W52530  34.337  15.300   0.775
87546W        W52531  31.905  20.689  13.454
87547W        W52532  26.618  12.275  14.891
87548W        W52533  39.801  16.316  11.600
87549W        W52534   7.523   6.301   4.004
87550W        W52535   4.143  12.193   4.046
87551W        W52536  41.976  28.763   2.305
87552W        W52537   0.779  18.827   1.720
87553W        W52538  41.926  10.661  14.493
87554W        W52539   8.652  26.672  14.218
87555W        W52540  27.007  37.770   0.541
87556W        W52541  29.995  27.675  12.432
87557W        W52542  40.566  28.485  12.931
87558W        W52543  14.343  10.088   4.174
87559W        W52544  34.063  27.423   1.307
87560W        W52545   9.094  27.731   3.739
87561W        W52546  40.590   4.746  13.294
87562W        W52547   4.193  18.670   0.916
87563W        W52548   3.808   5.622  14.346
87564W        W52549  18.746  10.460  11.560
87565W        W52550   7.820  19.696   0.938
87566W        W52551   7.488   1.467   0.391
87567W        W52552  33.075  40.904  11.101
87568W        W52553  31.004  26.755  12.157
87569W        W52554  14.515   4.418   1.601
87570W        W52555   0.989  21.667   4.933
87571W        W52556   5.109  20.004  10.952
87572W        W52557  10.970  25.117  13.943
87573W        W52558  10.704  24.749  11.986
87574W        W52559  23.141   7.429   0.670
87575W        W52560  12.183   8.356   1.863
87576W        W52561  19.686  25.940  12.766
87577W        W52562  43.759  30.539   4.525
87578W        W52563  20.886   4.306   3.613
87579W        W52564  24.167  22.718   4.185
87580W        W52565  18.677  14.571   1.171
87581W        W52566  25.238  11.771   4.305
87582W        W52567  32.487  17.186   1.775
87583W        W52568  28.405  31.400   2.860
87584W        W52569  33.400  21.477  14.965
87585W        W52570  31.432  36.657  13.034
87586W        W52571  16.011  37.564   2.320
87587W        W52572  15.071  31.348  12.447
87588W        W52573  25.437  16.284  14.544
87589W        W52574  44.813  34.150  12.947
87590W        W52575  14.166  24.154  13.776
87591W        W52576   6.833  32.114   2.744
87592W        W52577   0.831  36.549  14.526
87593W        W52578  35.412   0.756  14.233
87594W        W52579   9.542  28.124   3.828
87595W        W52580  18.558   0.043   3.559
87596W        W52581  20.771  33.062   1.885
87597W        W52582   0.735  18.875   1.174
87598W        W52583   3.196   7.262  11.316
87599W        W52584  10.519  33.940  14.408
87600W        W52585  36.115  27.000  11.936
87601W        W52586   3.919  31.336   2.731
87602W        W52587   5.876  18.761  13.900
87603W        W52588   5.193   8.539  14.254
87604W        W52589  36.927  13.283   3.431
87605W        W52590  36.631   1.312   3.180
87606W        W52591  36.118  26.871   2.717
87607W        W52592  13.909   2.860  12.462
87608W        W52593   6.456  37.015  13.049
87609W        W52594  37.860  21.766   1.842
87610W        W52595  40.471  30.964   3.144
87611W        W52596  44.449  17.457   5.297
87612W        W52597  12.694  13.671  12.476
87613W        W52598  36.024  14.762  12.657
87614W        W52599  44.936  18.782   1.809
87615W        W52600  11.858  15.139   3.274
87616W        W52601  27.016  14.254  13.916
87617W        W52602  31.534   5.169  11.567
87618W        W52603  44.752  29.898  11.512
87619W        W52604   1.880  23.146   0.962
87620W        W52605  42.794   1.965   2.733
87621W        W52606   0.560  38.425   1.443
87622W        W52607  25.772  36.577   1.710
87623W        W52608  25.121   4.284   4.076
87624W        W52609  36.997  20.897   4.994
87625W        W52610   4.724  14.588  13.005
87626W        W52611   3.494  35.472   2.859
87627W        W52612  30.562  37.859   2.347
87628W        W52613  11.189  39.289   4.557
87629W        W52614  27.948  30.493  13.278
87630W        W52615   1.753  32.599   3.996
87631W        W52616  28.847  28.055  12.906
87632W        W52617   9.221  17.666  14.511
87633W        W52618  13.765   2.989  13.731
87634W        W52619  32.106   9.405   2.797
87635W        W52620  23.575  39.894  11.270
87636W        W52621  36.407  32.898  13.005
87637W        W52622  17.871   1.468  12.500
87638W        W52623  28.158  32.234   2.012
87639W        W52624   6.810   4.488   1.292
87640W        W52625  15.538  12.765   1.637
87641W        W52626  11.913  40.083  13.280
87642W        W52627   1.868   3.384  13.015
87643W        W52628  32.483   1.793   4.341
87644W        W52629  37.044  14.398   0.237
87645W        W52630   2.802  18.275  12.630
87646W        W52631  13.866  40.997  10.491
87647W        W52632  43.423   3.424   0.172
87648W        W52633  35.280   5.912   1.237
87649W        W52634  40.832  32.395  14.468
87650W        W52635  29.796  27.581   0.109
87651W        W52636  31.862  33.189  12.029
87652W        W52637  17.467   1.516  13.935
87653W        W52638  42.255  32.414   2.864
87654W        W52639  15.604  26.571  14.857
87655W        W52640  37.999  21.702  10.635
87656W        W52641   4.770   8.837  10.263
87657W        W52642   7.319  31.923   2.727
87658W        W52643  43.865  35.229   3.691
87659W        W52644  15.510  11.498   2.241
87660W        W52645  21.685  22.743  14.811
87661W        W52646   9.185  25.004   2.979
87662W        W52647   6.669  39.457  12.767
87663W        W52648  43.227   9.722   0.385
87664W        W52649  31.177  30.165  13.615
87665W        W52650   5.025  15.014  12.358
87666W        W52651  41.033  31.047   1.831
87667W        W52652  17.797   1.979   0.435
87668W        W52653  10.134  20.524  14.954
87669W        W52654  24.297  38.781   0.022
87670W        W52655  13.596  16.149   2.713
87671W        W52656  21.070   6.740   2.945
87672W        W52657  13.656   6.348  14.807
87673W        W52658  34.109  14.394   3.481
87674W        W52659   2.515  29.449  14.830
87675W        W52660   3.722   9.140   0.399
87676W        W52661  30.015  23.034  14.927
87677W        W52662  31.804  32.924   3.201
87678W        W52663  44.833   2.321  14.799
87679W        W52664   9.112   2.525  12.128
87680W        W52665  17.101  38.313   4.797
87681W        W52666   2.402  10.672  10.638
87682W        W52667  13.001  25.984   0.832
87683W        W52668  12.661  32.687  13.860
87684W        W52669  38.456  16.287   2.854
87685W        W52670  21.232  16.790   3.358
87686W        W52671  25.121  19.519   0.019
87687W        W52672  41.567  44.769   1.184
87688W        W52673  32.078  36.902   4.240
87689W        W52674  29.955  10.652  12.466
87690W        W52675  34.986  33.668  13.943
87691W        W52676  24.187  39.661  13.035
87692W        W52677  25.800  28.979   1.842
87693W        W52678  29.208  11.762  12.348
87694W        W52679   4.216  42.492   0.816
87695W        W52680  24.968  25.527  11.206
87696W        W52681  42.964  34.571   0.130
87697W        W52682  26.108  14.304  12.074
87698W        W52683  20.440  21.995  14.016
87699W        W52684   4.967   7.754  12.697
87700W        W52685  43.878  25.390  12.808
87701W        W52686  36.274  13.478   4.139
87702W        W52687  22.019   3.455  12.609
87703W        W52688  19.280   9.143  13.480
87704W        W52689  38.959  38.361  13.572
87705W        W52690  42.248  15.129  13.795
87706W        W52691  21.615  26.120  14.007
87707W        W52692   7.724  12.347   3.957
87708W        W52693  42.790  10.296   4.409
87709W        W52694   1.744  30.167  11.260
87710W        W52695  15.597  39.813   0.051
87711W        W52696  16.373  40.661   1.303
87712W        W52697  16.372  15.552   2.268
87713W        W52698   1.990  40.560  12.118
87714W        W52699  41.356  34.980   0.692
87715W        W52700   4.792  20.560  14.820
87716W        W52701  25.987  38.192   1.348
87717W        W52702  26.232   7.486  11.175
87718W        W52703  13.268  11.026   1.948
87719W        W52704  17.783  18.751   2.739
87720W        W52705  25.224  34.897   3.609
87721W        W52706   0.911  35.578   0.872
87722W        W52707  25.223  12.516   2.743
87723W        W52708  42.138   8.361   2.477
87724W        W52709  17.179  43.909  12.432
87725W        W52710  24.733  32.825  12.609
87726W        W52711  41.851  29.146  12.685
87727W        W52712  13.260  24.957   1.639
87728W        W52713  21.041  33.548  11.394
87729W        W52714  27.242  38.475  11.478
87730W        W52715  14.145  44.540   0.819
87731W        W52716  17.168  42.284  13.924
87732W        W52717  22.626  26.913   2.821
87733W        W52718  43.898   5.301  12.630
87734W        W52719  36.067  38.787   2.370
87735W        W52720  30.078  26.209  12.114
87736W        W52721  20.507  15.820  14.370
87737W        W52722  11.153  40.244   4.177
87738W        W52723  35.907  37.480   0.737
87739W        W52724  36.834   3.292  10.941
87740W        W52725   5.026  29.778  10.941
87741W        W52726  16.606  31.065   2.711
87742W        W52727  44.650  24.884  10.327
87743W        W52728   2.994  26.409   4.051
87744W        W52729  43.895  39.371   1.296
87745W        W52730   3.052  25.538  12.454
87746W        W52731  24.201   7.229  11.903
87747W        W52732  26.446   6.424  10.434
87748W        W52733  14.705  23.401  11.453
87749W        W52734  20.300   1.968   1.911
87750W        W52735  23.557  27.477  11.711
87751W        W52736   8.775  28.730  13.398
87752W        W52737   8.132  13.350  11.685
87753W        W52738   3.417  27.992   2.738
87754W        W52739  41.795  44.326  10.925
87755W        W52740  10.377   9.817   1.658
87756W        W52741  11.609  14.863   0.489
87757W        W52742  11.456  10.713   1.333
87758W        W52743   3.869  23.079   1.856
87759W        W52744  44.587  40.389  14.376
87760W        W52745   9.033  20.025   2.792
87761W        W52746  20.980   0.811   3.738
87762W        W52747  16.695  43.039  13.190
87763W        W52748  43.321  22.869   2.273
87764W        W52749  41.448  14.238  10.368
87765W        W52750   8.401  40.773  11.119
87766W        W52751  26.554  17.702  10.782
87767W        W52752  28.729   7.334   3.447
87768W        W52753  36.065  20.702   2.818
87769W        W52754  11.844   7.582  13.502
87770W        W52755  32.151  27.817  12.910
87771W        W52756  26.240  44.787   5.689
87772W        W52757  13.725  12.830   0.907
87773W        W52758  38.495  41.267   4.346
87774W        W52759   8.292  20.503   4.038
87775W        W52760   3.487  10.617  13.118
87776W        W52761  14.554  39.267   2.737
87777W        W52762  18.366  31.528  13.756
87778W        W52763  24.584  44.001   0.406
87779W        W52764  20.399  16.424  12.528
87780W        W52765  30.424  43.469  11.653
87781W        W52766   2.374  21.773  11.618
87782W        W52767  27.972  37.882   3.141
87783W        W52768  12.095   7.789   0.706
87784W        W52769  29.949   0.307  10.700
87785W        W52770   1.904  28.857   2.353
87786W        W52771  34.985  24.282  11.184
87787W        W52772  43.210   6.841   3.116
87788W        W52773  33.536  29.484   1.737
87789W        W52774  42.909   3.417   2.282
87790W        W52775  16.367  21.106  13.900
87791W        W52776   8.219  33.810  11.718
87792W        W52777   9.940   4.719  14.579
87793W        W52778  22.152  25.090  11.545
87794W        W52779  21.198   5.057   3.298
87795W        W52780  38.768   9.698  13.771
87796W        W52781  43.386   6.243   1.380
87797W        W52782  11.577   7.722   3.828
87798W        W52783  28.712  44.971   1.244
87799W        W52784  10.279  13.196  12.594
87800W        W52785   3.305   4.298  12.901
87801W        W52786  15.860  42.829   0.367
87802W        W52787  25.070  22.589  11.984
87803W        W52788  36.011  42.490   0.289
87804W        W52789  26.234  18.199   4.581
87805W        W52790  12.548  27.293   9.833
87806W        W52791  29.632   3.896  11.370
87807W        W52792  30.569  40.317   0.079
87808W        W52793  29.896  11.309   3.279
87809W        W52794  32.399  33.502   1.947
87810W        W52795  17.277  38.517   0.362
87811W        W52796   3.859  20.192  13.810
87812W        W52797   8.891  14.665   4.470
87813W        W52798  36.938   3.857  12.053
87814W        W52799   7.666  15.595   1.911
87815W        W52800  14.764  10.765  11.709
87816W        W52801  39.676   2.661   2.316
87817W        W52802  10.133  19.302   3.110
87818W        W52803  42.047  41.345  12.406
87819W        W52804  17.600  24.040   3.016
87820W        W52805   5.372  10.620   3.787
87821W        W52806  44.315  30.895  14.783
87822W        W52807   6.676  21.386  10.318
87823W        W52808  10.634  38.564  10.319
87824W        W52809  23.459   9.113  14.903
87825W        W52810   4.441  21.969   3.399
87826W        W52811  33.218   6.121  13.072
87827W        W52812  37.069  14.102   4.460
87828W        W52813   8.872  25.948  10.836
87829W        W52814  21.982   4.880  13.224
87830W        W52815  34.691  24.172   1.889
87831W        W52816  12.592  11.823   4.612
87832W        W52817  36.973   7.740   4.489
87833W        W52818   8.508  11.832  14.398
87834W        W52819   7.368  16.205   2.903
87835W        W52820  32.057   7.410  12.028
87836W        W52821  28.995  28.706  13.420
87837W        W52822  18.701  26.821   1.123
87838W        W52823  29.295  16.089  12.974
87839W        W52824  23.606  17.364  14.042
87840W        W52825  15.970   9.167   3.947
87841W        W52826   3.245  40.387   1.894
87842W        W52827   8.680   2.730  14.021
87843W        W52828  15.048  36.874   2.265
87844W        W52829  29.135   1.040   0.234
87845W        W52830  44.914  27.483   0.198
87846W        W52831  38.226  36.900   9.745
87847W        W52832  41.186  23.336  10.565
87848W        W52833  30.508  10.549   0.591
87849W        W52834  26.369  43.412  14.012
87850W        W52835  24.688   3.440   3.131
87851W        W52836  39.392  19.195   0.657
87852W        W52837  28.070   3.332   1.297
87853W        W52838  19.803  12.324   0.839
87854W        W52839   3.140  27.541   2.808
87855W        W52840   3.693  28.218  12.510
87856W        W52841  35.035  14.872  12.803
87857W        W52842  10.223  30.087   2.217
87858W        W52843   7.464  10.635  10.460
87859W        W52844  13.300  10.716  11.204
87860W        W52845  25.462  39.556  14.383
87861W        W52846  40.066   1.321   1.292
87862W        W52847   8.276  23.558  10.793
87863W        W52848  24.319  13.205   3.803
87864W        W52849  42.419   8.615  12.400
87865W        W52850  15.770  16.537   4.586
87866W        W52851  20.682  32.890  14.876
87867W        W52852  12.732   3.790   3.209
87868W        W52853  25.136  10.242   3.218
87869W        W52854  29.854  17.313   0.780
87870W        W52855   1.341  43.811  13.783
87871W        W52856  21.267  31.741   1.180
87872W        W52857  14.721   0.689  13.315
87873W        W52858  24.423  10.842   4.277
87874W        W52859  29.850  31.223  13.954
87875W        W52860  23.736   1.789   4.101
87876W        W52861  38.740  28.096  12.099
87877W        W52862  21.589   0.480   1.718
87878W        W52863  35.938  16.338   0.495
87879W        W52864  38.903  23.212  14.589
87880W        W52865  15.166  25.832  12.150
87881W        W52866  34.876  32.039  11.703
87882W        W52867  13.606   5.904   2.848
87883W        W52868  41.410  17.616   0.560
87884W        W52869  41.592  22.906  13.973
87885W        W52870   1.541  15.600   0.780
87886W        W52871  27.116  33.856   0.253
87887W        W52872  11.167  19.476   2.125
87888W        W52873  39.852  24.578  12.865
87889W        W52874  44.453  12.905   4.457
87890W        W52875  39.003  44.361  13.187
87891W        W52876  43.419   8.356   2.822
87892W        W52877  30.678  11.187   3.847
87893W        W52878  20.072  38.867   4.568
87894W        W52879  36.718   5.236  13.597
87895W        W52880   3.293  22.280  11.090
87896W        W52881  33.569  34.225  10.456
87897W        W52882  23.951  26.607   4.281
87898W        W52883  19.730  40.285   2.393
87899W        W52884  41.430   0.950  12.666
87900W        W52885  44.336  13.945   2.688
87901W        W52886  20.299  33.201   1.732
87902W        W52887  21.169   6.792  11.465
87903W        W52888  11.935   2.855  13.940
87904W        W52889  21.607  18.276  12.079
87905W        W52890   3.270  31.092   4.580
87906W        W52891  44.258  33.384  14.028
87907W        W52892  34.079   9.787   1.341
87908W        W52893  42.957  41.891  14.690
87909W        W52894  22.395  30.581  12.367
87910W        W52895   7.816  20.750   4.132
87911W        W52896  10.901  22.159   2.681
87912W        W52897  25.255  40.556   4.043
87913W        W52898  21.010  26.237  11.053
87914W        W52899   7.253  44.248  10.562
87915W        W52900  33.485  20.975   1.758
87916W        W52901  15.150   6.727  12.938
87917W        W52902   9.449   1.972   2.254
87918W        W52903  24.647  37.405   2.332
87919W        W52904   0.344   0.820   1.990
87920W        W52905  25.550   3.844  11.118
87921W        W52906  37.076  34.683  13.511
87922W        W52907  38.416  38.918  12.008
87923W        W52908   9.295  41.261   1.335
87924W        W52909  38.893   0.718   3.229
87925W        W52910  38.950   7.174  14.197
87926W        W52911  12.966   5.125  10.052
87927W        W52912  29.109  11.841   3.857
87928W        W52913  18.136  27.976   0.756
87929W        W52914  30.149  17.581  12.447
87930W        W52915   6.839   2.205  14.521
87931W        W52916  17.663  15.713  12.173
87932W        W52917  36.605   4.352   3.909
87933W        W52918  10.212  16.472   1.851
87934W        W52919  30.995  16.386   2.956
87935W        W52920  33.120   6.115   4.060
87936W        W52921  30.195  11.043  12.762
87937W        W52922   0.517  10.150  11.176
87938W        W52923  39.506  12.129   2.332
87939W        W52924   9.133  27.642  14.347
87940W        W52925  18.257  37.528  14.256
87941W        W52926  37.569   8.246  11.181
87942W        W52927  35.601  13.792  14.801
87943W        W52928  15.056  39.766  12.003
87944W        W52929  15.370  22.548   4.229
87945W        W52930  32.015  10.735   0.583
87946W        W52931  32.314  40.401   1.945
87947W        W52932  19.932  16.595   2.812
87948W        W52933  25.059  44.737  14.118
87949W        W52934   6.822  21.235   1.203
87950W        W52935  13.516  30.004  14.268
87951W        W52936  36.284  41.778  13.480
87952W        W52937  23.129  18.281  10.129
87953W        W52938  32.545  18.543   1.217
87954W        W52939  30.515  31.685   1.517
87955W        W52940  15.851  19.416  13.436
87956W        W52941   8.188  30.075  11.160
87957W        W52942   3.068   5.018   2.922
87958W        W52943  31.083  44.558  12.886
87959W        W52944  28.696  36.381  11.150
87960W        W52945  40.510   8.120   2.733
87961W        W52946  43.084  32.992  12.620
87962W        W52947   3.486  32.712  10.780
87963W        W52948  38.845  20.331   0.958
87964W        W52949  29.172  12.267   4.709
87965W        W52950  15.518  30.420   0.773
87966W        W52951   1.049   6.704   4.659
87967W        W52952  21.941  16.259  11.715
87968W        W52953  14.958  32.396  10.944
87969W        W52954  12.620   9.242   3.665
87970W        W52955  30.047  29.608  12.328
87971W        W52956   3.519   4.355  10.404
87972W        W52957  42.039   5.210  12.888
87973W        W52958  19.575   3.800  10.746
87974W        W52959  10.316  27.200  13.329
87975W        W52960  26.211   3.988   4.600
87976W        W52961  38.701   5.311  12.591
87977W        W52962   8.592   2.092  11.062
87978W        W52963  27.748  10.829  11.131
87979W        W52964  16.691  14.173  13.096
87980W        W52965  12.632   1.776  14.884
87981W        W52966  35.909  44.944   0.346
87982W        W52967   2.731  21.799   2.255
87983W        W52968  26.744  18.181   1.852
87984W        W52969   1.055   7.746   2.181
87985W        W52970  30.619  19.640  11.961
87986W        W52971  15.338  22.694   2.068
87987W        W52972  38.266  35.198   5.501
87988W        W52973   1.376  36.760  14.283
87989W        W52974  23.935  35.544  12.000
87990W        W52975  38.818  28.736  11.101
87991W        W52976   6.002  34.143   3.735
87992W        W52977   8.649   4.187   4.514
87993W        W52978  43.846  18.220  14.071
87994W        W52979   9.903  28.044   4.812
87995W        W52980  42.846  10.102   3.935
87996W        W52981   9.817  36.395  13.810
87997W        W52982   3.796  28.432   4.362
87998W        W52983  19.591  18.924  10.177
87999W        W52984  44.967  40.897  10.765
88000W        W52985  22.156   6.316   4.941
88001W        W52986  24.437  41.808   0.246
88002W        W52987   2.680  32.228  11.187
88003W        W52988   7.366  23.694   1.701
88004W        W52989  25.557  18.788   4.416
88005W        W52990  35.551  29.978  14.399
88006W        W52991  23.601  42.770   4.959
88007W        W52992   1.300  15.354   2.660
88008W        W52993  27.039  33.797  12.923
88009W        W52994  38.328   6.020  12.175
88010W        W52995  13.580  23.033  11.120
88011W        W52996  40.822  44.332  10.604
88012W        W52997  20.651   2.072   4.570
88013W        W52998   9.230  43.291   3.307
88014W        W52999   4.701   4.474   4.386
88015W        W53000  43.534  42.566  14.008
88016W        W53001  25.749  11.262  12.689
88017W        W53002  39.517  14.536   1.460
88018W        W53003   0.353  44.829  13.663
88019W        W53004  18.280  18.717   2.770
88020W        W53005  12.694  23.190  12.887
88021W        W53006   9.929  19.799  11.941
88022W        W53007  40.512  17.230  12.228
88023W        W53008  36.576  35.571   9.998
88024W        W53009  17.329  39.668   1.221
88025W        W53010  32.549  14.301   4.188
88026W        W53011   6.156  23.517  12.092
88027W        W53012  15.009  19.298   3.484
88028W        W53013  22.017  23.235  13.950
88029W        W53014   0.449  13.606   2.287
88030W        W53015  31.162   5.744  10.176
88031W        W53016  23.068  42.260   1.299
88032W        W53017  30.668  22.280  11.184
88033W        W53018   8.877  30.654  14.072
88034W        W53019  25.523  41.232  11.609
88035W        W53020  13.519  29.975  12.528
88036W        W53021   3.723  42.291   3.643
88037W        W53022   3.729  28.401   2.651
88038W        W53023  27.981  31.966  12.887
88039W        W53024  19.919  21.270   4.144
88040W        W53025  23.515  39.324  14.225
88041W        W53026  38.672  43.520   1.751
88042W        W53027  15.212   3.823   2.627
88043W        W53028  34.094   0.853  12.965
88044W        W53029   3.430  22.215  13.391
88045W        W53030  14.242   6.472   1.932
88046W        W53031   2.811  32.548   3.887
88047W        W53032  23.712  43.403   2.269
88048W        W53033  26.278  30.190   2.073
88049W        W53034  41.504  41.076  12.066
88050W        W53035  27.472  33.105   3.404
88051W        W53036  43.842   3.712   4.030
88052W        W53037  41.152  23.958   5.605
88053W        W53038  13.607  20.960   3.729
88054W        W53039  33.688  29.876   4.333
88055W        W53040  22.014  42.555   2.219
88056W        W53041  31.136  18.154   4.288
88057W        W53042   0.570  14.728  11.170
88058W        W53043  16.761  30.726   4.796
88059W        W53044  39.786  32.087   3.219
88060W        W53045   3.270   8.442  14.439
88061W        W53046  37.584  15.697  12.553
88062W        W53047  29.487  38.912   0.073
88063W        W53048  11.749  21.836  10.524
88064W        W53049  25.589  35.393  14.385
88065W        W53050  32.618   6.926  13.277
88066W        W53051  33.008  39.592   3.657
88067W        W53052  37.924  18.699   0.436
88068W        W53053  31.140  16.123   4.800
88069W        W53054  37.582  18.027  10.574
88070W        W53055  21.848   9.699  12.544
88071W        W53056  28.475   5.708   4.914
88072W        W53057   9.807  28.481  10.712
88073W        W53058  40.132  43.446   0.728
88074W        W53059   3.496  24.155  11.118
88075W        W53060   0.124  31.306  11.947
88076W        W53061  29.989   9.120  12.558
88077W        W53062  24.530  43.039   0.360
88078W        W53063  17.474  22.127  11.179
88079W        W53064  19.951  22.739   2.320
88080W        W53065  31.998  42.688  12.407
88081W        W53066  18.028  21.216   3.595
88082W        W53067  43.331  38.289  11.588
88083W        W53068  39.841  44.258   4.236
88084W        W53069  25.138  18.068  12.404
88085W        W53070  21.971  17.998   1.341
88086W        W53071  13.841  22.594  10.323
88087W        W53072  41.785   3.171  10.773
88088W        W53073   2.737  33.547  12.840
88089W        W53074  41.665  32.505  14.609
88090W        W53075  35.340  39.842  14.341
88091W        W53076  29.163  18.235   2.863
88092W        W53077  30.522   2.193   2.418
88093W        W53078   2.272  33.401   2.729
88094W        W53079  13.600   5.740   9.873
88095W        W53080   2.601  25.727   3.288
88096W        W53081  13.659   1.067   4.904
88097W        W53082  10.742  11.273  13.383
88098W        W53083  23.705   7.965   3.670
88099W        W53084  16.778   1.378   3.167
88100W        W53085  16.107  40.230   1.212
88101W        W53086  13.083  37.625  10.616
88102W        W53087  27.135   6.798  14.740
88103W        W53088  42.776  41.044   3.212
88104W        W53089  43.912  14.177  13.867
88105W        W53090   4.506  40.852  14.324
88106W        W53091  31.627   1.646  11.497
88107W        W53092  15.869  22.636   4.229
88108W        W53093  40.012  30.504   2.385
88109W        W53094  26.975  36.132  13.368
88110W        W53095  28.898  17.870  14.556
88111W        W53096   7.434   7.302   0.310
88112W        W53097  25.718  19.321  11.189
88113W        W53098   3.583  27.162   4.489
88114W        W53099   1.445  39.400   3.832
88115W        W53100   1.972  44.366  13.962
88116W        W53101  25.580  16.039  10.804
88117W        W53102   2.674  10.427  13.498
88118W        W53103  16.171   2.025  14.839
88119W        W53104  35.819  29.163  11.595
88120W        W53105   8.521   2.922   2.185
88121W        W53106  22.581   4.094   3.893
88122W        W53107  10.614  41.664   1.779
88123W        W53108  23.400  28.427   2.084
88124W        W53109   4.743  31.571  10.563
88125W        W53110   3.847  31.369   1.838
88126W        W53111  23.356   5.111  12.754
88127W        W53112  13.265  38.041   1.296
88128W        W53113  39.378  30.809  10.660
88129W        W53114   3.693  16.567  12.885
88130W        W53115  20.647  16.801  14.843
88131W        W53116  40.325   3.526   0.061
88132W        W53117  44.271  42.116   4.218
88133W        W53118   7.359  14.573  14.420
88134W        W53119  28.334  16.458   1.305
88135W        W53120  43.512  44.322   4.079
88136W        W53121  10.138  33.333   2.807
88137W        W53122   3.329  16.246  13.062
88138W        W53123  29.201  41.360   4.585
88139W        W53124  35.971  41.241  11.165
88140W        W53125  16.246   6.894  14.785
88141W        W53126   8.032  43.924  13.374
88142W        W53127   2.051  13.824  14.310
88143W        W53128  44.371   2.885  13.867
88144W        W53129   7.914  38.391   0.353
88145W        W53130  20.789  35.421   4.743
88146W        W53131  10.438  18.351  14.530
88147W        W53132  40.558  22.987   4.595
88148W        W53133  37.544  30.959  11.694
88149W        W53134   3.496  38.991  11.953
88150W        W53135  12.235  18.367   0.025
88151W        W53136  40.934   1.977   4.605
88152W        W53137   7.502   1.468  13.681
88153W        W53138  33.880  41.602   2.316
88154W        W53139   1.667  24.707   2.695
88155W        W53140  40.722  30.019   4.652
88156W        W53141  35.500  25.713  10.662
88157W        W53142  19.314  34.428  14.479
88158W        W53143   5.556  42.357  11.605
88159W        W53144  27.690  24.888   1.319
88160W        W53145  18.705  44.557   4.547
88161W        W53146   1.909  41.805  10.702
88162W        W53147  25.710  44.338   4.644
88163W        W53148  42.983  24.141  10.693
88164W        W53149  32.523  10.674   4.251
88165W        W53150  33.597  15.718  12.487
88166W        W53151   5.832   1.318  11.573
88167W        W53152  12.200  35.075   4.153
88168W        W53153   0.149  43.987   4.169
88169W        W53154  23.220  16.093   3.458
88170W        W53155  36.333  13.414   2.832
88171W        W53156  11.873   8.907   1.676
88172W        W53157  40.310  41.895  14.383
88173W        W53158   7.123  26.330  12.323
88174W        W53159  24.133  40.127   0.405
88175W        W53160  29.312  17.817   0.499
88176W        W53161  44.717  32.100  14.940
88177W        W53162  25.547  40.499   3.121
88178W        W53163  23.666  21.017  13.177
88179W        W53164   2.239  31.608  11.682
88180W        W53165  13.031  29.997  12.360
88181W        W53166  29.570  22.256   2.377
88182W        W53167  30.954  27.552   1.651
88183W        W53168  37.040  37.767  12.053
88184W        W53169  25.078   0.561   2.969
88185W        W53170   8.720  15.721  10.570
88186W        W53171  18.993  21.251  14.348
88187W        W53172  21.328  37.393  10.922
88188W        W53173  20.877  31.187   3.740
88189W        W53174  12.773  44.736   4.718
88190W        W53175  35.919   1.148   2.026
88191W        W53176   1.442  20.765  12.109
88192W        W53177   3.486   1.944  14.200
88193W        W53178   8.394  28.382   0.362
88194W        W53179   9.159  34.051  12.978
88195W        W53180  10.727  23.917  11.635
88196W        W53181  14.798  39.178   2.264
88197W        W53182  29.243  40.527  14.691
88198W        W53183  23.861   4.929   2.242
88199W        W53184   5.917  34.072   0.686
88200W        W53185  16.949  36.090  12.369
88201W        W53186  20.321  44.343  14.869
88202W        W53187  42.546  19.229   4.165
88203W        W53188  38.857  36.291  11.171
88204W        W53189  33.849  21.248   4.220
88205W        W53190  32.346  17.039  11.509
88206W        W53191  41.498  26.201  11.692
88207W        W53192  22.424  19.954  11.726
88208W        W53193   3.543  40.520  11.090
88209W        W53194  24.756  24.120  12.593
88210W        W53195   4.709  24.713   4.181
88211W        W53196  34.419   8.253  14.860
88212W        W53197  11.859   5.269   3.697
88213W        W53198   8.235  25.731  10.372
88214W        W53199  27.785  42.744  12.504
88215W        W53200  28.507  16.264  14.456
88216W        W53201  18.621  33.222   0.327
88217W        W53202  25.165   6.691   2.812
88218W        W53203  42.054   1.175   4.131
88219W        W53204  35.546   6.869   2.807
88220W        W53205  44.210  40.040  13.510
88221W        W53206   7.680  17.552   4.727
88222W        W53207  34.845  19.724   2.827
88223W        W53208  37.907   0.790  14.805
88224W        W53209  41.518  18.615   0.270
88225W        W53210  11.033  27.839  13.839
88226W        W53211  19.822  21.603  10.313
88227W        W53212   0.836  31.928  11.141
88228W        W53213  38.600   6.421   4.613
88229W        W53214  17.141   9.175   3.261
88230W        W53215  33.929   5.159  11.118
88231W        W53216   2.210  41.362  11.566
88232W        W53217  21.086  31.504  14.763
88233W        W53218  17.799   6.519   1.166
88234W        W53219  22.781  13.585   2.673
88235W        W53220  17.703  30.656  11.068
88236W        W53221   6.175  12.038   1.070
88237W        W53222  28.060  35.604  10.754
88238W        W53223   3.077  19.307  11.169
88239W        W53224  19.292   0.770   0.707
88240W        W53225  23.104  17.767  10.278
88241W        W53226  35.929  44.334   4.665
88242W        W53227  13.512   6.221   1.570
88243W        W53228  39.802  39.801   2.199
88244W        W53229   8.456   3.832  11.916
88245W        W53230  10.659   5.304   4.396
88246W        W53231   2.994   2.003   3.733
88247W        W53232  35.196   0.029   1.145
88248W        W53233  15.902  23.988   5.120
88249W        W53234   5.772   8.567  12.324
88250W        W53235  30.894  40.329   0.473
88251W        W53236   4.397  32.946  11.766
88252W        W53237  31.697   9.549  12.155
88253W        W53238  29.559   5.675  14.937
88254W        W53239  16.748  23.718   3.840
88255W        W53240  31.652  21.535  13.327
88256W        W53241  13.679   4.387   2.735
88257W        W53242  40.564   2.230  14.283
88258W        W53243  25.817  35.843  11.666
88259W        W53244  20.520  30.800  12.445
88260W        W53245  34.381  34.970   0.438
88261W        W53246  34.543  23.088   1.273
88262W        W53247  35.378  27.108  10.756
88263W        W53248   3.820   3.000   0.800
88264W        W53249  28.485  43.224   0.491
88265W        W53250   7.784  24.671  13.884
88266W        W53251  10.368   3.541   4.196
88267W        W53252   0.974   5.495   1.845
88268W        W53253   8.606  40.902   1.410
88269W        W53254  35.402  33.884   0.712
88270W        W53255  16.358  18.498   4.988
88271W        W53256  33.801  13.454   3.772
88272W        W53257  43.145  30.326  11.459
88273W        W53258  10.743  15.823   4.083
88274W        W53259  31.032  27.799  12.436
88275W        W53260   6.849  14.191   2.191
88276W        W53261  14.412  35.960   3.132
88277W        W53262  38.195  28.925   0.087
88278W        W53263  38.920  21.126   3.153
88279W        W53264   7.550   6.915  12.303
88280W        W53265  14.730  16.513   2.689
88281W        W53266  31.989  12.598  10.543
88282W        W53267  20.380  19.830  14.691
88283W        W53268  33.564  36.426   4.185
88284W        W53269  42.815   2.314   4.190
88285W        W53270  14.208  11.884   1.276
88286W        W53271   5.772  32.132  14.880
88287W        W53272   9.414  31.752   3.856
88288W        W53273   1.722   1.288   3.791
88289W        W53274  14.869   0.967  13.716
88290W        W53275   9.108  30.204  13.915
88291W        W53276   7.985  30.914   2.216
88292W        W53277  28.767  30.133   1.189
88293W        W53278  12.072  10.601  10.587
88294W        W53279  25.595   8.678  13.366
88295W        W53280  23.448  24.117   3.277
88296W        W53281  37.972  44.283   1.799
88297W        W53282  39.906  33.866  10.916
88298W        W53283  36.592   3.429   3.508
88299W        W53284  40.437  36.196   3.121
88300W        W53285  17.707  39.471   3.683
88301W        W53286  35.403  18.537   0.274
88302W        W53287   5.860  24.165   0.316
88303W        W53288  21.802  41.520  13.596
88304W        W53289  31.462  43.316   0.821
88305W        W53290  12.251   3.809  10.793
88306W        W53291   3.758  14.221  14.293
88307W        W53292  17.349  24.714   0.814
88308W        W53293  11.749  35.433   4.916
88309W        W53294  22.072  26.737  12.607
88310W        W53295  42.242  27.869  12.504
88311W        W53296  23.370   6.726   1.993
88312W        W53297  25.934  43.381  10.323
88313W        W53298  11.093  17.721  14.091
88314W        W53299  24.935  17.416   4.069
88315W        W53300  13.829  15.790   3.774
88316W        W53301   2.868  39.403  12.074
88317W        W53302   6.859  44.564  14.027
88318W        W53303  41.393   0.367  13.355
88319W        W53304  29.202   8.220  12.977
88320W        W53305  25.211  39.300  11.392
88321W        W53306  25.147  38.267   1.752
88322W        W53307  36.610   9.653   1.260
88323W        W53308   3.647  32.039   3.231
88324W        W53309  11.691  22.012   0.926
88325W        W53310  34.418  31.603  13.987
88326W        W53311  20.171  30.675   4.604
88327W        W53312  28.643  20.967   4.867
88328W        W53313  17.073  11.066   3.991
88329W        W53314  29.466  27.470   2.629
88330W        W53315   4.470  21.624  14.362
88331W        W53316  38.075   6.468   0.709
88332W        W53317  19.767  26.841   4.587
88333W        W53318   8.356  15.041  12.397
88334W        W53319  19.962  23.670   2.298
88335W        W53320   2.343  14.271  14.351
88336W        W53321  25.135   6.885  13.906
88337W        W53322  15.426  10.409   3.456
88338W        W53323  11.781  37.360   0.933
88339W        W53324  11.606   4.770  10.215
88340W        W53325  17.963  15.668  12.614
88341W        W53326  16.529  43.684  14.008
88342W        W53327  22.769  29.663   2.850
88343W        W53328   7.306   7.644   1.823
88344W        W53329   4.465  15.038  13.349
88345W        W53330  36.942  28.653  14.330
88346W        W53331  37.282  10.950  11.885
88347W        W53332  32.430  33.466  10.928
88348W        W53333   1.224  35.860  12.204
88349W        W53334  24.144  35.931   3.335
88350W        W53335  13.228  20.263  10.793
88351W        W53336  23.100  38.384  13.344
88352W        W53337   8.333   5.768  14.504
88353W        W53338  18.418  20.216  13.557
88354W        W53339  11.197  34.172  13.964
88355W        W53340   0.166  15.430  11.560
88356W        W53341  38.807  24.675   3.442
88357W        W53342   9.372  27.058  13.721
88358W        W53343  10.162  19.286  13.083
88359W        W53344  19.662  17.496   1.797
88360W        W53345  21.347   4.416   2.661
88361W        W53346  14.704  10.688   1.262
88362W        W53347  17.162  17.134   2.459
88363W        W53348  30.438   8.326   1.507
88364W        W53349  40.511  23.697   4.177
88365W        W53350   3.851   4.327   2.888
88366W        W53351   6.927   9.638   1.786
88367W        W53352  43.217  40.040   2.735
88368W        W53353  11.843  33.120   4.231
88369W        W53354  28.777  23.785  13.025
88370W        W53355   5.064  43.850  13.163
88371W        W53356   1.782  27.025   2.807
88372W        W53357  11.703  27.505  12.497
88373W        W53358  42.394   4.742  13.369
88374W        W53359   9.673  27.524   0.957
88375W        W53360  30.044   9.852  11.552
88376W        W53361  35.525  36.758   0.846
88377W        W53362  15.837   8.300   4.174
88378W        W53363  17.588  21.463  14.898
88379W        W53364   5.861  14.817   0.351
88380W        W53365  33.109  41.528  13.589
88381W        W53366   2.773  12.064  11.424
88382W        W53367  37.586  41.499  12.907
88383W        W53368   6.917  33.909  12.874
88384W        W53369  41.011  35.548   2.726
88385W        W53370  31.052  13.113  14.776
88386W        W53371  19.686  27.155   4.162
88387W        W53372  37.905  20.358  12.562
88388W        W53373   3.921  24.204  13.854
88389W        W53374  34.447  19.087  13.590
88390W        W53375   2.484  36.048  13.977
88391W        W53376  23.921  16.601  13.858
88392W        W53377  26.615   8.467  13.490
88393W        W53378  24.434  34.516   1.346
88394W        W53379  44.816  34.999   1.317
88395W        W53380   2.052  12.113   2.709
88396W        W53381  35.593  40.739   1.800
88397W        W53382   3.256  18.323  13.729
88398W        W53383   8.415  36.757  14.543
88399W        W53384  41.740  39.180   0.401
88400W        W53385   9.051   4.775  12.897
88401W        W53386  35.421  33.940  14.801
88402W        W53387  12.809  25.660  11.547
88403W        W53388  38.152  33.907   0.210
88404W        W53389   3.891  41.611   1.689
88405W        W53390  31.653   7.137   3.616
88406W        W53391  33.132   9.939  12.010
88407W        W53392  38.004   2.837   2.353
88408W        W53393  35.360  24.383   3.111
88409W        W53394  15.661   4.598   2.296
88410W        W53395  38.639  29.456  12.073
88411W        W53396  21.653  43.988   0.429
88412W        W53397  19.176  36.483   1.908
88413W        W53398  14.123   1.719   3.417
88414W        W53399  26.423  28.666  13.401
88415W        W53400  18.430  31.538   1.876
88416W        W53401  20.954  15.864  13.108
88417W        W53402   2.362  19.623   3.608
88418W        W53403  44.391   8.827  10.490
88419W        W53404  36.035  44.297  10.626
88420W        W53405  25.132  26.036   2.457
88421W        W53406  15.481  21.216  13.157
88422W        W53407  27.418  36.294  12.560
88423W        W53408  34.850  37.786  10.659
88424W        W53409  28.023  39.282   3.785
88425W        W53410  17.181  15.203  10.538
88426W        W53411  30.948  38.629  13.376
88427W        W53412  38.425  13.860  13.493
88428W        W53413  24.153  13.385   4.260
88429W        W53414  12.518  19.959   4.088
88430W        W53415   1.286  31.931   1.662
88431W        W53416  13.091  11.324  13.594
88432W        W53417  35.242   4.205  12.396
88433W        W53418  25.476   3.900   2.202
88434W        W53419  22.211  31.082   3.797
88435W        W53420  28.198  27.079   1.338
88436W        W53421  16.433   7.794   4.518
88437W        W53422   4.896   9.590   4.111
88438W        W53423   6.997  40.830  13.932
88439W        W53424   5.229  10.144   2.125
88440W        W53425  23.906  44.989   1.378
88441W        W53426  17.602  42.771   3.101
88442W        W53427   6.631  41.524  11.887
88443W        W53428  26.256  13.738  11.214
88444W        W53429  38.504   4.245   0.653
88445W        W53430   6.355  35.440  11.599
88446W        W53431  16.336  33.997   1.276
88447W        W53432  39.032  44.274  11.204
88448W        W53433  37.334   7.785  14.011
88449W        W53434  34.411  40.064   3.909
88450W        W53435  37.825  22.315   0.770
88451W        W53436  24.172  16.571   0.675
88452W        W53437   2.485  36.608   0.781
88453W        W53438  16.629  10.563  12.667
88454W        W53439  13.461   7.941   3.670
88455W        W53440  33.520  41.066   4.091
88456W        W53441   4.832   6.964  10.779
88457W        W53442  13.230  33.070   3.214
88458W        W53443  30.589  41.033   3.855
88459W        W53444  30.669  13.343  10.831
88460W        W53445  30.378  33.912   3.334
88461W        W53446  17.258  23.969   0.368
88462W        W53447  27.198  15.727   0.686
88463W        W53448  29.452  39.526   3.426
88464W        W53449  10.761   0.976  14.752
88465W        W53450  28.428  35.509   3.345
88466W        W53451  21.222  34.428   3.926
88467W        W53452   0.686   9.377   1.894
88468W        W53453  44.357  43.243   5.117
88469W        W53454   3.834  33.950   4.560
88470W        W53455  26.385  25.937   3.756
88471W        W53456  19.220   8.746   3.146
88472W        W53457  33.379  12.643  13.602
88473W        W53458  29.979   7.543  11.454
88474W        W53459  21.705  19.638   2.824
88475W        W53460  22.693  36.433  11.545
88476W        W53461  33.076  25.581   0.300
88477W        W53462  36.391  37.464   3.241
88478W        W53463  17.765  37.883  14.042
88479W        W53464  22.422  32.088   0.982
88480W        W53465  14.287  30.991  11.491
88481W        W53466  44.984  14.435   4.564
88482W        W53467  36.777  32.197   4.104
88483W        W53468  24.526   8.589  10.485
88484W        W53469   0.325   6.027   0.289
88485W        W53470  27.030  29.289  11.597
88486W        W53471  22.665  35.297  10.999
88487W        W53472  24.743  43.305  11.149
88488W        W53473  39.637  27.572   4.001
88489W        W53474   2.927  36.597   1.061
88490W        W53475   1.584   5.304   1.830
88491W        W53476  34.973  14.262   4.057
88492W        W53477  13.654  32.982  11.931
88493W        W53478   8.190   2.813  10.657
88494W        W53479  43.605  10.240  14.761
88495W        W53480  16.754  22.773   3.286
88496W        W53481   3.677  17.050  11.998
88497W        W53482  21.644  18.212   0.295
88498W        W53483  43.830  20.056   2.150
88499W        W53484  27.558  25.123   4.580
88500W        W53485  12.873  16.283  13.616
88501W        W53486  37.999  18.741   3.219
88502W        W53487  10.783  28.984   0.914
88503W        W53488  19.752  14.561  13.984
88504W        W53489   3.794   0.907  12.440
88505W        W53490  26.461   4.451  10.727
88506W        W53491   1.361   3.332  11.503
88507W        W53492  34.349   9.791   1.920
88508W        W53493  28.611  34.685   2.270
88509W        W53494  11.776  40.938  10.963
88510W        W53495   1.324  43.320   4.994
88511W        W53496  36.150   6.705  12.981
88512W        W53497   9.319  20.096  13.436
88513W        W53498   0.543  30.124  14.808
88514W        W53499  40.634  42.479   3.343
88515W        W53500   1.350  24.941   2.358
88516W        W53501  14.109  39.231  11.695
88517W        W53502  21.427  12.846   4.170
88518W        W53503   2.248  10.993  13.354
88519W        W53504  34.888  19.534  12.935
88520W        W53505  32.438   6.331  12.466
88521W        W53506   4.890   2.899   3.356
88522W        W53507  12.538  30.373  11.699
88523W        W53508  15.165  16.178  14.389
88524W        W53509  32.266  37.368   0.209
88525W        W53510   0.285  24.483   5.439
88526W        W53511   4.596  43.064   5.048
88527W        W53512  43.757  43.434   4.294
88528W        W53513  11.728  17.682  12.984
88529W        W53514  43.951   0.721  10.735
88530W        W53515   9.427  29.848  13.457
88531W        W53516  33.676  11.833  12.003
88532W        W53517   9.103  36.231  10.844
88533W        W53518  15.607  25.198   3.865
88534W        W53519   0.044  34.014   1.767
88535W        W53520  21.490  33.590  11.161
88536W        W53521  26.059  10.702  10.673
88537W        W53522  12.658   7.564   2.803
88538W        W53523  22.471  10.976  11.117
88539W        W53524   4.203  29.122   3.204
88540W        W53525  42.951  33.066  14.476
88541W        W53526  28.874  29.402  12.856
88542W        W53527   4.853   6.429  12.134
88543W        W53528  32.532  28.032  11.124
88544W        W53529   3.168   5.238  12.078
88545W        W53530  11.909  14.320  14.524
88546W        W53531   3.370  10.679   1.696
88547W        W53532   7.004  10.008  12.955
88548W        W53533  38.597   7.362   2.333
88549W        W53534   2.820  11.308  14.436
88550W        W53535  16.891   3.940   0.913
88551W        W53536  32.690  10.633  12.943
88552W        W53537   1.479  32.764   2.726
88553W        W53538   9.307   6.482   1.638
88554W        W53539   6.234   0.124   4.651
88555W        W53540  32.046  32.424   0.437
88556W        W53541  26.449   9.215  12.326
88557W        W53542   8.448   8.767   0.437
88558W        W53543  39.318   2.438   4.162
88559W        W53544  27.058   0.958   3.176
88560W        W53545  28.567  35.024   3.472
88561W        W53546  13.292  29.094   3.788
88562W        W53547  26.411  21.687  10.482
88563W        W53548   8.944  40.757   1.773
88564W        W53549  24.236  39.057  13.728
88565W        W53550  40.609  26.622  14.257
88566W        W53551  34.443  27.948  13.586
88567W        W53552   5.617   7.832   1.328
88568W        W53553  14.342  31.009  13.912
88569W        W53554  17.383   9.834   4.338
88570W        W53555  16.830  33.943  14.941
88571W        W53556  17.039   6.869  12.444
88572W        W53557  33.263  29.123  11.578
88573W        W53558  25.525  25.715   3.106
88574W        W53559  39.319  10.523   1.982
88575W        W53560   0.764   2.953   4.101
88576W        W53561  15.859  38.858  14.965
88577W        W53562   6.510   8.835   3.588
88578W        W53563  22.164  41.493  10.999
88579W        W53564  42.287  43.533  12.492
88580W        W53565  36.920  19.256   2.787
88581W        W53566   9.263  22.115   0.899
88582W        W53567  29.757  39.908   1.045
88583W        W53568  42.376  42.700   0.307
88584W        W53569  31.679  28.610   2.250
88585W        W53570  32.331  34.584  13.988
88586W        W53571   1.300  30.125  11.001
88587W        W53572  18.322  29.470   0.887
88588W        W53573  43.910  27.844  10.519
88589W        W53574  38.670  10.687  10.453
88590W        W53575  44.917  16.554   3.718
88591W        W53576  20.286  38.840  10.931
88592W        W53577  16.152  28.022   3.500
88593W        W53578  14.284  41.293  10.760
88594W        W53579   0.017  29.630   3.337
88595W        W53580  19.675  40.052  13.086
88596W        W53581  31.367  28.162  13.020
88597W        W53582  13.355  29.596   1.371
88598W        W53583  43.437  12.406  12.529
88599W        W53584   8.467  42.531  11.588
88600W        W53585  37.443  22.257  11.998
88601W        W53586  33.718   0.220  10.117
88602W        W53587  16.550  43.367  11.513
88603W        W53588   5.466   0.185  12.019
88604W        W53589  32.607  39.198  12.053
88605W        W53590   3.304  13.060  12.994
88606W        W53591  25.253  25.893  14.424
88607W        W53592  42.967  39.978  12.872
88608W        W53593  20.342   6.270  11.761
88609W        W53594   2.625  41.306  14.364
88610W        W53595  20.834  35.624  11.998
88611W        W53596  41.792  33.554   1.748
88612W        W53597  32.343   7.249   1.811
88613W        W53598  14.038  41.775  14.963
88614W        W53599  13.591  38.654  13.537
88615W        W53600  37.574  19.969  14.762
88616W        W53601  31.602   6.235   4.087
88617W        W53602   6.002  14.332   0.507
88618W        W53603  39.579   4.439  13.188
88619W        W53604  20.281  24.172   1.505
88620W        W53605  32.450  38.518  14.024
88621W        W53606  33.091  12.579   0.457
88622W        W53607  31.649  38.403   4.203
88623W        W53608  12.589  12.947  11.056
88624W        W53609  23.630  40.832   3.525
88625W        W53610  38.487  15.311  14.982
88626W        W53611   8.623  20.984  12.572
88627W        W53612  20.497  43.852  14.729
88628W        W53613  31.960  38.354   0.979
88629W        W53614  36.594   1.510   4.008
88630W        W53615  44.445  12.768  13.447
88631W        W53616  11.147  40.772   0.363
88632W        W53617   1.916  26.603   1.246
88633W        W53618  40.272  17.663  13.531
88634W        W53619   7.103  22.205  11.573
88635W        W53620  20.236   7.907   3.269
88636W        W53621  44.227  43.170  14.345
88637W        W53622  41.409  16.932  11.491
88638W        W53623  26.884  41.077   3.237
88639W        W53624   2.496  16.673  10.992
88640W        W53625   4.061  33.471   4.783
88641W        W53626  44.374  14.918  12.119
88642W        W53627  42.383  44.227   5.078
88643W        W53628  19.142  10.307   4.652
88644W        W53629  38.589  18.476   9.717
88645W        W53630   2.222  21.099  10.699
88646W        W53631  33.010  10.767   3.281
88647W        W53632  25.982  12.877   0.276
88648W        W53633  37.393  21.487  11.404
88649W        W53634   7.885  18.201   0.222
88650W        W53635  44.265  18.363  12.825
88651W        W53636  34.951  32.009   1.284
88652W        W53637  34.737  11.234   4.420
88653W        W53638  28.367  34.338  11.669
88654W        W53639  42.452  18.168   3.218
88655W        W53640   9.718   8.442   4.929
88656W        W53641   9.404   4.702   2.150
88657W        W53642  31.640  33.149  10.443
88658W        W53643  32.243   4.988   0.134
88659W        W53644  38.353  38.745  14.790
88660W        W53645  22.813  25.065   0.070
88661W        W53646  20.723   0.623   2.166
88662W        W53647  32.952  43.012   3.716
88663W        W53648   0.014   1.934   0.073
88664W        W53649  34.938   2.457   1.265
88665W        W53650  31.525  13.653   1.004
88666W        W53651  31.560   8.408  11.159
88667W        W53652  25.456  42.597  14.713
88668W        W53653  22.081  34.291  14.414
88669W        W53654  11.379  38.840   0.800
88670W        W53655  24.655  38.585   0.409
88671W        W53656  42.850   8.851  11.666
88672W        W53657  32.177  15.923   0.169
88673W        W53658   7.374  43.754  13.032
88674W        W53659   8.409  42.400   4.228
88675W        W53660  14.379  42.773   3.280
88676W        W53661   4.709  16.704   2.876
88677W        W53662  20.169  42.357  13.941
88678W        W53663  39.126  43.737   3.239
88679W        W53664   9.703  16.266  14.273
88680W        W53665  44.156  35.351  13.459
88681W        W53666  14.108  35.599   0.261
88682W        W53667  17.511  16.308  12.714
88683W        W53668  24.178  20.835   9.986
88684W        W53669  30.359  12.406  11.061
88685W        W53670   7.472  30.327   3.298
88686W        W53671  15.886  12.200  10.189
88687W        W53672  42.531  29.220  14.749
88688W        W53673  14.917  12.602  13.936
88689W        W53674  24.663  41.854   4.544
88690W        W53675  44.446  39.103   0.864
88691W        W53676   5.703  26.923  11.638
88692W        W53677  26.495   1.154  14.786
88693W        W53678  30.212  42.122  12.129
88694W        W53679  13.145  39.382   2.754
88695W        W53680  30.506  32.380  10.717
88696W        W53681  13.687  20.246  12.189
88697W        W53682  30.200   3.342   3.166
88698W        W53683  44.773   8.372  13.338
88699W        W53684   2.769  18.234  13.570
88700W        W53685  22.297  16.720  10.823
88701W        W53686   6.230  41.660  10.586
88702W        W53687   4.055   9.748  12.159
88703W        W53688  29.222  33.933   1.279
88704W        W53689  19.668  21.503  10.790
88705W        W53690  18.619  30.725  14.150
88706W        W53691   9.253  38.049  11.287
88707W        W53692  17.516  16.284   0.236
88708W        W53693  25.113  18.233   0.782
88709W        W53694   2.171  14.665   3.746
88710W        W53695  17.733  41.867   2.669
88711W        W53696   1.300  27.161  12.145
88712W        W53697   3.734  12.048  10.568
88713W        W53698  32.782   5.861   2.720
88714W        W53699  11.728   3.298  12.317
88715W        W53700  35.883   1.805  10.491
88716W        W53701   1.340  20.718   2.073
88717W        W53702  12.508   8.677  12.186
88718W        W53703  24.531  29.163  13.022
88719W        W53704  24.070  19.158  13.878
88720W        W53705  40.882   4.636  12.029
88721W        W53706  32.985  37.838  11.547
88722W        W53707  43.814   4.419  13.862
88723W        W53708   4.931  33.648   1.677
88724W        W53709   6.963  23.692  11.574
88725W        W53710   4.320   5.053   0.412
88726W        W53711   8.757  30.606   3.419
88727W        W53712  37.410  39.913  11.978
88728W        W53713  27.736  24.433  14.939
88729W        W53714   4.347  39.246   1.363
88730W        W53715  31.231  37.419   0.390
88731W        W53716  37.754   0.969  12.398
88732W        W53717  13.713   4.503   4.570
88733W        W53718  20.597  24.520   3.748
88734W        W53719  39.362  30.670  12.346
88735W        W53720   3.676   8.809  11.118
88736W        W53721  20.672  25.319  13.780
88737W        W53722  16.620  44.544   0.043
88738W        W53723  30.105  20.090   1.383
88739W        W53724  25.548  15.296   0.949
88740W        W53725  41.367  35.786  12.394
88741W        W53726  42.525  19.705   1.943
88742W        W53727  32.149  31.646  14.902
88743W        W53728  12.131  28.589   0.686
88744W        W53729  19.533  26.664  13.946
88745W        W53730  16.074   0.175   3.253
88746W        W53731   1.695  17.029   2.261
88747W        W53732  15.649  24.500   0.285
88748W        W53733  30.636  43.442   1.956
88749W        W53734   2.246  37.867  13.024
88750W        W53735  43.345   6.681  14.341
88751W        W53736  31.700  25.106  13.591
88752W        W53737  18.162   7.424  12.848
88753W        W53738  27.686  42.165   1.897
88754W        W53739  28.653  32.681  11.066
88755W        W53740  24.440  37.989   0.393
88756W        W53741  39.853  20.190  13.880
88757W        W53742  14.364  13.398   4.659
88758W        W53743  13.163  33.199  10.691
88759W        W53744   7.836  21.311   0.089
88760W        W53745   7.214  36.407   5.183
88761W        W53746  40.995  27.484   3.719
88762W        W53747   0.878  17.273  13.618
88763W        W53748  22.126  36.443   3.206
88764W        W53749  42.085  14.724   4.339
88765W        W53750  24.291  43.883  13.019
88766W        W53751  12.326  13.320   1.288
88767W        W53752  37.185  36.634  14.833
88768W        W53753  31.937  42.572   2.857
88769W        W53754   2.798  21.177   1.439
88770W        W53755  38.557   0.217   3.647
88771W        W53756   8.117   5.255  12.385
88772W        W53757  43.844  33.775  12.252
88773W        W53758  24.283  21.007  11.547
88774W        W53759  31.127  32.341   0.396
88775W        W53760  26.657   5.955  13.012
88776W        W53761  14.085   9.399   3.692
88777W        W53762  33.089   4.407   4.338
88778W        W53763  40.913  14.058  12.535
88779W        W53764  24.783  43.323  14.997
88780W        W53765  30.929  15.802   4.417
88781W        W53766  42.694  27.627  12.111
88782W        W53767   7.164  20.117  14.007
88783W        W53768  21.244  37.585  13.470
88784W        W53769  16.217  29.278   5.404
88785W        W53770   8.907  13.993   3.716
88786W        W53771  17.585   4.913  13.993
88787W        W53772  13.842  42.296   0.029
88788W        W53773   8.844  43.772   5.088
88789W        W53774   3.464  44.295  13.708
88790W        W53775  39.343  39.758   1.950
88791W        W53776  22.417   3.532  10.653
88792W        W53777  25.461  24.526   4.663
88793W        W53778  13.238  37.748  12.647
88794W        W53779  39.455   5.665   2.292
88795W        W53780  12.268  23.522  11.857
88796W        W53781   3.194   6.372  12.865
88797W        W53782  13.284  38.877  14.808
88798W        W53783  21.157  30.731  12.119
88799W        W53784  33.500  20.191   0.265
88800W        W53785  31.980  16.715  12.415
88801W        W53786   8.926  22.597  11.586
88802W        W53787  13.282  35.067   0.203
88803W        W53788   1.967  27.655  10.764
88804W        W53789   8.360  41.288  11.110
88805W        W53790  12.089   5.325   1.732
88806W        W53791  37.730  34.572  14.627
88807W        W53792  29.480  39.294  11.958
88808W        W53793  38.287  32.081  14.523
88809W        W53794  42.576  21.003   3.534
88810W        W53795  18.298  42.348  14.734
88811W        W53796  13.316  15.132   1.469
88812W        W53797  27.524  33.633  12.895
88813W        W53798   5.227   0.300  14.015
88814W        W53799   4.781  10.339   1.322
88815W        W53800   1.658  33.472   4.104
88816W        W53801  11.298   1.748  14.459
88817W        W53802  37.788  33.668  10.155
88818W        W53803  38.051   7.629  11.575
88819W        W53804   3.364   8.079  11.942
88820W        W53805  42.968  41.311  12.497
88821W        W53806  34.987   8.435   0.630
88822W        W53807  37.609  19.139   0.418
88823W        W53808  17.997   7.900  12.790
88824W        W53809  23.728   7.930   2.775
88825W        W53810  14.520  21.273   1.522
88826W        W53811   0.383   1.857   3.592
88827W        W53812  41.747   3.510  13.424
88828W        W53813  19.791  30.155   9.593
88829W        W53814  28.187   5.421  14.591
88830W        W53815  42.662  12.139  12.521
88831W        W53816  17.547  38.734   1.167
88832W        W53817  26.459  14.909  10.755
88833W        W53818  12.829  40.987  12.853
88834W        W53819  35.010   9.240  12.913
88835W        W53820  13.881  32.773   4.671
88836W        W53821  17.218  43.420  12.235
88837W        W53822  27.037  28.457   3.165
88838W        W53823  16.327  20.173  10.661
88839W        W53824  17.147   8.658   3.228
88840W        W53825  22.821  37.873   2.160
88841W        W53826   8.280   3.224   0.430
88842W        W53827  14.509  36.350  14.933
88843W        W53828  32.664   2.491  14.279
88844W        W53829   5.928  16.109   2.595
88845W        W53830  14.116   1.385   3.021
88846W        W53831  26.008  29.391   4.026
88847W        W53832  17.458  33.082   1.963
88848W        W53833  11.249  21.850   4.290
88849W        W53834   9.454   1.547  10.833
88850W        W53835  12.667   8.852  11.684
88851W        W53836  18.295  43.674   1.603
88852W        W53837  16.548  37.907   3.593
88853W        W53838   3.354  39.558  10.768
88854W        W53839  15.028  14.347   2.244
88855W        W53840  35.335  28.091  10.775
88856W        W53841  43.719  17.653  13.035
88857W        W53842  19.766  26.399  14.972
88858W        W53843  32.534   3.827  10.517
88859W        W53844  15.199  43.325  14.402
88860W        W53845  34.428  18.526   1.762
88861W        W53846  39.169  17.289   2.905
88862W        W53847   8.139  32.872  11.002
88863W        W53848  11.564  32.245   5.086
88864W        W53849  14.127   3.928   3.501
88865W        W53850  26.414  20.322  10.869
88866W        W53851  13.374   3.373   4.130
88867W        W53852  21.612   9.891   4.553
88868W        W53853   1.713  24.175  11.660
88869W        W53854   0.473  22.303   1.295
88870W        W53855   6.498  21.956  11.110
88871W        W53856  37.464  20.456  14.940
88872W        W53857  16.375  25.663   4.213
88873W        W53858  21.991  22.135   1.002
88874W        W53859   9.539  43.529   1.219
88875W        W53860  39.855  34.496  13.339
88876W        W53861  13.752  40.889   1.969
88877W        W53862  12.569  42.046   4.838
88878W        W53863  26.649  17.509  13.040
88879W        W53864  13.759  15.807   1.095
88880W        W53865  11.831  40.250   3.647
88881W        W53866  36.289  37.541   2.718
88882W        W53867   0.771  27.223  13.423
88883W        W53868  22.382   4.749  11.654
88884W        W53869  34.478   4.766   2.360
88885W        W53870  12.540  10.755   4.381
88886W        W53871  25.483  23.483   2.866
88887W        W53872  29.361  14.627  11.547
88888W        W53873  41.972  43.506   2.244
88889W        W53874   1.984  40.521   4.498
88890W        W53875  35.773   5.483  10.604
88891W        W53876  20.214  10.213   1.942
88892W        W53877  21.136  15.677   2.751
88893W        W53878  35.818   0.394   3.802
88894W        W53879  35.383  31.032   0.380
88895W        W53880  18.025  16.665  10.196
88896W        W53881  37.804  34.966   1.449
88897W        W53882  38.472  22.093  10.545
88898W        W53883  44.994  33.987   1.231
88899W        W53884   5.770  39.098   2.161
88900W        W53885  11.618  41.890   1.776
88901W        W53886  39.546  12.648  11.201
88902W        W53887  14.233  26.835  11.149
88903W        W53888  15.796  43.735  12.366
88904W        W53889  13.342  42.832  12.069
88905W        W53890  29.503  27.130  11.820
88906W        W53891  16.011  24.161  14.843
88907W        W53892  13.673   2.958  12.019
88908W        W53893  12.872  42.838   0.974
88909W        W53894  42.072  16.536  14.639
88910W        W53895  20.690  22.003   0.394
88911W        W53896  33.126  25.672  11.513
88912W        W53897  17.377  25.775  12.995
88913W        W53898  36.978  38.482   4.144
88914W        W53899  44.404  12.900  10.050
88915W        W53900   7.569  30.073   4.544
88916W        W53901  37.320  26.144   1.083
88917W        W53902  34.510  37.658   0.325
88918W        W53903  15.841  23.809  10.223
88919W        W53904   6.613  42.176   3.620
88920W        W53905  42.955  44.489  11.534
88921W        W53906  28.173  36.487  12.074
88922W        W53907  16.487  12.105   0.073
88923W        W53908  17.054  10.411   3.265
88924W        W53909  21.688   2.788  14.301
88925W        W53910  11.401  18.332  10.490
88926W        W53911  15.345   4.198  10.583
88927W        W53912  35.935  19.621   4.704
88928W        W53913  21.600  17.149   3.195
88929W        W53914   2.526   5.139  10.591
88930W        W53915  41.731  40.691  14.376
88931W        W53916   4.194  24.996  14.370
88932W        W53917  43.838  19.067   0.405
88933W        W53918  28.477   8.743   2.356
88934W        W53919   6.230   8.786   4.566
88935W        W53920   6.315  26.831   0.938
88936W        W53921  25.113  20.570   0.393
88937W        W53922  36.525  42.890  10.424
88938W        W53923  14.151  41.319  13.078
88939W        W53924   3.760  39.510   3.622
88940W        W53925  44.742   0.266  14.058
88941W        W53926  19.988  35.071  12.227
88942W        W53927  26.308  32.102   1.030
88943W        W53928  12.708  41.243   2.715
88944W        W53929  10.878  27.636  14.531
88945W        W53930  13.234  37.798   4.810
88946W        W53931  14.810  41.910   1.317
88947W        W53932  17.235  22.308   0.978
88948W        W53933   5.463  20.464   0.406
88949W        W53934  42.707   6.102   2.754
88950W        W53935  38.907  15.302  10.992
88951W        W53936  37.410  38.328   4.787
88952W        W53937  10.731  35.147   0.692
88953W        W53938  14.316  22.808  13.465
88954W        W53939   2.865  41.427   3.856
88955W        W53940   5.710  19.214   1.373
88956W        W53941   3.920  33.035   1.492
88957W        W53942  13.199   8.777  13.393
88958W        W53943  33.785   6.713  14.521
88959W        W53944  15.663  36.425   2.713
88960W        W53945  12.238  34.837  12.080
88961W        W53946  43.910  40.718  11.360
88962W        W53947  22.691  17.090   3.585
88963W        W53948   0.163   5.748  11.163
88964W        W53949  37.854  38.033   4.072
88965W        W53950   6.881  19.289   3.292
88966W        W53951  27.209   4.364  11.996
88967W        W53952  38.829  14.650   3.022
88968W        W53953   1.968  22.679   1.790
88969W        W53954  16.288  12.275  10.537
88970W        W53955  13.594  13.787  14.473
88971W        W53956  25.825   7.679  10.938
88972W        W53957  23.921   0.926  14.063
88973W        W53958   7.964  26.141  14.109
88974W        W53959  16.650  18.519  10.271
88975W        W53960  31.158   9.841   1.198
88976W        W53961  33.045  19.197   0.277
88977W        W53962  39.005  25.234  14.505
88978W        W53963  29.920  34.588  11.192
88979W        W53964   0.223  12.107   0.321
88980W        W53965  16.846  42.489   4.903
88981W        W53966   1.435  31.646  13.807
88982W        W53967   9.385  39.200  10.571
88983W        W53968   6.183  16.324  11.683
88984W        W53969  40.443   9.812  12.282
88985W        W53970   7.227  26.613  14.150
88986W        W53971   5.908   9.827   1.706
88987W        W53972   0.717   0.973  14.335
88988W        W53973  26.985  44.059   4.860
88989W        W53974  31.472  19.331  14.858
88990W        W53975   7.675  22.595   0.326
88991W        W53976  43.101  37.956   4.194
88992W        W53977   4.777  35.498   0.823
88993W        W53978  10.372   9.500  14.363
88994W        W53979  34.640  17.144  12.855
88995W        W53980  32.979  43.818  14.394
88996W        W53981  23.515  10.108   4.145
88997W        W53982  31.564   9.441   0.327
88998W        W53983  15.998  23.255   4.273
88999W        W53984  25.082  12.367   1.726
89000W        W53985  22.056  20.680  13.383
89001W        W53986  13.560  10.309   4.595
89002W        W53987  21.262  37.452  11.460
89003W        W53988  27.506  41.342   0.638
89004W        W53989  34.079  35.544  12.392
89005W        W53990  13.409  42.936  13.058
89006W        W53991  24.583  34.455  11.898
89007W        W53992   4.222  22.340  11.998
89008W        W53993  40.843   6.139  12.055
89009W        W53994  17.893  30.650   4.052
89010W        W53995  30.141  42.078  13.482
89011W        W53996   0.005  41.838   4.550
89012W        W53997  34.817   3.446  11.873
89013W        W53998  20.189  21.260  13.736
89014W        W53999  31.009  43.983   5.060
89015W        W54000  24.753  26.292   1.295
89016W        W54001  39.251  35.908   2.670
89017W        W54002  43.888   4.915  11.307
89018W        W54003  40.514  33.379   0.334
89019W        W54004   9.103  25.176  12.059
89020W        W54005  31.570  17.354  12.337
89021W        W54006  26.374  44.581  12.667
89022W        W54007  13.074   8.269  13.426
89023W        W54008   6.690  35.917   4.633
89024W        W54009  21.435  36.776   4.946
89025W        W54010  30.205  22.617   0.787
89026W        W54011  18.376   2.111  14.719
89027W        W54012   3.503  37.498  12.148
89028W        W54013  14.230   7.300  11.168
89029W        W54014   2.329   8.869   9.984
89030W        W54015  32.302  12.938  14.903
89031W        W54016  28.026  36.629  14.438
89032W        W54017  23.259  28.210  14.531
89033W        W54018  13.976  22.110   0.042
89034W        W54019   6.613  42.445   2.270
89035W        W54020  23.540  20.265   4.345
89036W        W54021   0.447  21.578   3.378
89037W        W54022  28.676  35.084  11.177
89038W        W54023   5.424  36.165  10.640
89039W        W54024  26.325  28.641   3.678
89040W        W54025  10.424  17.333   3.523
89041W        W54026  24.270   0.308   2.737
89042W        W54027   3.546   6.061  13.129
89043W        W54028  42.185   6.434   1.280
89044W        W54029  38.132   9.675   3.396
89045W        W54030   6.143  26.574   3.410
89046W        W54031  24.584  37.378   0.731
89047W        W54032  35.471  42.322  12.107
89048W        W54033  27.524  22.156   4.227
89049W        W54034   4.627  21.680  12.145
89050W        W54035   8.933  11.370   0.635
89051W        W54036  41.766  30.544  10.891
89052W        W54037   9.268  24.982   0.910
89053W        W54038  15.626  42.743   2.229
89054W        W54039  21.738  25.105   2.103
89055W        W54040   5.996  19.247   3.649
89056W        W54041   4.716  31.866  14.855
89057W        W54042  32.387  24.070   1.444
89058W        W54043  12.579  35.015   0.850
89059W        W54044   3.891  36.899  12.587
89060W        W54045  42.708  28.550  13.385
89061W        W54046  27.100  10.735   3.154
89062W        W54047  42.956  18.600   3.676
89063W        W54048   3.634  18.531   4.700
89064W        W54049   5.220  30.279   3.796
89065W        W54050  11.113  18.019   1.311
89066W        W54051   5.120  37.438  10.691
89067W        W54052  15.520  34.033  12.344
89068W        W54053  27.965  39.769   4.958
89069W        W54054   1.472   8.850   0.772
89070W        W54055  38.816  30.960   1.288
89071W        W54056   6.283  44.400   4.114
89072W        W54057   1.805  34.400   2.283
89073W        W54058  15.191   2.396  11.603
89074W        W54059  27.122  35.380   2.147
89075W        W54060  25.429  39.415  13.612
89076W        W54061  15.863  15.674  14.375
89077W        W54062  21.155  37.451  13.970
89078W        W54063  29.632   0.995  13.488
89079W        W54064  17.163  42.969  12.518
89080W        W54065   2.898  23.779  13.793
89081W        W54066  40.125  27.450   0.429
89082W        W54067  37.982   4.955  13.974
89083W        W54068  32.961   2.366   3.163
89084W        W54069  14.596   7.660   4.592
89085W        W54070  20.977  24.459   2.109
89086W        W54071  13.250   6.823   1.744
89087W        W54072  33.112  33.529   0.376
89088W        W54073  26.420  41.514   1.871
89089W        W54074  36.399  22.790  10.333
89090W        W54075  28.937  14.431   5.291
89091W        W54076  12.022   7.463  11.919
89092W        W54077  44.882   9.695  13.889
89093W        W54078  26.676  34.942   0.955
89094W        W54079  16.848  32.897  12.331
89095W        W54080   1.443  12.327  12.404
89096W        W54081  29.197  23.653   3.232
89097W        W54082   9.373  13.325   0.436
89098W        W54083  14.185   1.985   1.588
89099W        W54084  33.026  17.887  11.930
89100W        W54085  36.599  19.524  10.947
89101W        W54086  38.548   0.625  11.253
89102W        W54087  18.695   4.027   2.277
89103W        W54088  39.426  13.608   1.441
89104W        W54089  23.021  28.702   3.833
89105W        W54090  34.776  38.131   1.442
89106W        W54091  35.635  28.812  13.486
89107W        W54092   0.878  40.345  12.534
89108W        W54093   3.206   8.139  12.770
89109W        W54094  37.126  33.490  12.935
89110W        W54095  18.575  19.133   2.819
89111W        W54096  41.363  35.564   0.248
89112W        W54097  35.918  13.661  14.384
89113W        W54098   1.791   6.087   3.713
89114W        W54099   5.174   2.291  11.765
89115W        W54100  13.625   7.668   1.773
89116W        W54101  15.233  41.108   0.450
89117W        W54102  13.015   5.334  13.327
89118W        W54103  44.464  14.179  14.912
89119W        W54104  18.879   3.845   5.136
89120W        W54105  11.755  10.220  14.922
89121W        W54106  27.633  23.144   3.785
89122W        W54107   5.118  14.101  10.910
89123W        W54108  11.465  24.814   0.684
89124W        W54109  36.890  24.693  11.342
89125W        W54110  26.750  44.174   4.073
89126W        W54111  15.176  32.401  12.436
89127W        W54112  40.790  15.314  14.895
89128W        W54113  24.469  32.684   3.178
89129W        W54114   4.980  40.432   0.935
89130W        W54115   8.873  30.408   4.615
89131W        W54116  38.203  32.321   3.192
89132W        W54117   8.755  22.632   4.555
89133W        W54118  43.147   7.974  13.872
89134W        W54119   2.187  34.074  12.499
89135W        W54120  40.254  10.177  14.430
89136W        W54121   5.294  26.544   4.669
89137W        W54122  34.959   2.116   4.501
89138W        W54123   3.270   2.012   3.280
89139W        W54124  26.578   8.590   4.163
89140W        W54125  31.047  39.002   2.832
89141W        W54126   1.916  10.450  11.201
89142W        W54127  44.473  15.408  12.058
89143W        W54128  14.138  33.035  13.094
89144W        W54129  26.178  24.040  13.520
89145W        W54130  22.992  39.334   3.406
89146W        W54131  14.101   5.003   2.749
89147W        W54132   8.397  44.647   2.126
89148W        W54133  25.149  37.256   0.247
89149W        W54134  40.993  41.097   2.692
89150W        W54135  34.511  39.353   0.874
89151W        W54136   3.357   9.859   2.042
89152W        W54137  24.871  44.421  10.704
89153W        W54138  11.861  39.145   2.231
89154W        W54139   9.668  40.094   1.285
89155W        W54140  19.751  18.746   9.698
89156W        W54141  36.568   3.289  10.479
89157W        W54142  36.778  43.788   1.496
89158W        W54143  26.790   0.364   9.798
89159W        W54144  32.906  41.992  13.440
89160W        W54145   1.709  13.671   0.766
89161W        W54146   4.213  36.548  12.352
89162W        W54147   6.914   7.333   0.256
89163W        W54148   5.806   2.827   3.716
89164W        W54149  39.965  32.877   3.744
89165W        W54150  43.721   7.941   2.815
89166W        W54151   3.331  39.213   2.936
89167W        W54152  44.978  38.489  14.518
89168W        W54153  15.198  42.304  12.612
89169W        W54154  16.034  38.473  12.893
89170W        W54155  35.292  12.495   4.930
89171W        W54156  40.537   0.398   4.610
89172W        W54157  31.567  27.608   2.461
89173W        W54158   9.234  32.000   0.753
89174W        W54159  29.896  38.452   0.808
89175W        W54160  16.837   4.682   2.741
89176W        W54161   8.128  16.672  10.679
89177W        W54162  37.597  43.874   1.123
89178W        W54163  21.697   5.793  11.605
89179W        W54164  19.124  27.946   4.232
89180W        W54165  22.930  36.010  13.534
89181W        W54166  24.605  16.270  13.477
89182W        W54167  28.946  36.824   2.776
89183W        W54168   8.717  25.368   4.581
89184W        W54169  39.733  10.613   1.700
89185W        W54170  34.847  16.081  11.975
89186W        W54171   2.426  44.694   0.954
89187W        W54172  25.918  21.810  12.928
89188W        W54173  30.358  24.427  14.953
89189W        W54174  12.170  36.851   3.770
89190W        W54175  31.381  28.547   0.480
89191W        W54176  20.476  13.105   4.371
89192W        W54177  31.827  29.948  12.111
89193W        W54178   4.966  19.316   3.588
89194W        W54179  36.649  30.031  14.238
89195W        W54180   4.345  10.065   1.215
89196W        W54181   3.294   4.820   0.355
89197W        W54182  21.798  16.006   0.753
89198W        W54183  29.021  18.980  11.077
89199W        W54184  34.977  36.434   3.641
89200W        W54185  13.609  35.400  11.927
89201W        W54186  39.053  13.396  14.536
89202W        W54187  13.304  17.584  13.132
89203W        W54188   2.674   5.321   0.836
89204W        W54189  14.704  11.095  14.358
89205W        W54190  37.462  44.521   3.850
89206W        W54191  43.512  10.951   0.896
89207W        W54192   8.566  25.783   3.313
89208W        W54193  17.873  10.547  14.556
89209W        W54194  44.797  23.257  13.925
89210W        W54195  35.949   2.143   0.385
89211W        W54196  38.522  17.416   3.421
89212W        W54197  15.768   7.318  12.437
89213W        W54198   3.860  27.913  14.437
89214W        W54199  38.911  36.596  10.763
89215W        W54200  17.821  21.452  12.199
89216W        W54201  20.942   3.095  11.662
89217W        W54202  35.518  41.346  11.852
89218W        W54203  20.753  31.415   3.283
89219W        W54204  15.865  35.684  14.932
89220W        W54205  19.026  18.261   0.916
89221W        W54206   3.900  25.943   4.368
89222W        W54207  37.311  41.406   2.666
89223W        W54208  25.111   3.773   3.202
89224W        W54209   8.683   8.223  14.435
89225W        W54210   2.776  25.048   2.033
89226W        W54211  44.514  36.326   2.324
89227W        W54212  44.025  21.260   2.772
89228W        W54213  17.416  42.483  12.657
89229W        W54214   7.015  44.411   3.236
89230W        W54215  30.511  26.009  14.980
89231W        W54216  43.320  21.279   4.648
89232W        W54217  37.992  14.797   0.313
89233W        W54218  42.702  21.100  11.081
89234W        W54219   7.658  35.957  14.014
89235W        W54220   9.991  27.953   1.059
89236W        W54221  27.121  17.296  13.873
89237W        W54222  10.903  33.731  12.618
89238W        W54223  20.218  44.981  13.884
89239W        W54224  23.424  38.801  12.301
89240W        W54225  41.521  25.814  14.133
89241W        W54226  14.407  41.253  14.913
89242W        W54227   4.493  36.244  12.065
89243W        W54228  21.250  20.669   2.070
89244W        W54229  35.942  41.111   4.225
89245W        W54230  39.371   1.571  10.723
89246W        W54231   6.738  44.321   2.792
89247W        W54232  33.651  34.607  11.201
89248W        W54233  24.185   9.519  11.335
89249W        W54234  37.904  25.000  13.396
89250W        W54235  44.883  36.452  13.543
89251W        W54236  38.478  29.451   4.119
89252W        W54237  14.554  13.861  12.337
89253W        W54238  23.143  13.133  11.977
89254W        W54239  39.311  41.762   0.935
89255W        W54240  23.657  31.829  14.476
89256W        W54241  14.536  11.807  13.399
89257W        W54242  12.895  21.780   1.427
89258W        W54243  37.077  26.145   1.924
89259W        W54244  29.894  20.788  11.949
89260W        W54245  43.692   0.853   2.414
89261W        W54246  31.907  20.786   3.144
89262W        W54247   5.702  38.490   2.702
89263W        W54248  39.433   5.768  10.573
89264W        W54249  35.057  28.342   3.177
89265W        W54250  17.186  38.020   4.369
89266W        W54251  23.682  12.871   1.714
89267W        W54252  36.481  25.364  11.445
89268W        W54253  19.026  34.437   1.790
89269W        W54254  35.006  24.119  13.042
89270W        W54255  16.507  38.828  10.611
89271W        W54256  20.656  31.058   0.716
89272W        W54257  26.137   6.858  10.368
89273W        W54258  30.787  11.171  13.524
89274W        W54259  43.717  21.625   3.996
89275W        W54260   8.184  11.941   3.239
89276W        W54261  41.906   0.267   4.673
89277W        W54262  28.732  23.343   0.308
89278W        W54263   7.176  28.137  11.626
89279W        W54264   1.277  38.815   2.969
89280W        W54265  17.077  41.998  14.353
89281W        W54266   6.186  19.673  14.916
89282W        W54267  21.386  32.237   2.691
89283W        W54268  24.237  27.039  13.278
89284W        W54269   0.935  33.806   1.628
89285W        W54270  25.628   6.415   4.495
89286W        W54271   1.981  37.073  14.772
89287W        W54272  13.500  34.984   4.281
89288W        W54273  43.356  16.678  14.796
89289W        W54274  29.724  13.758  14.461
89290W        W54275  21.738   2.879   4.364
89291W        W54276  42.415  43.357   4.101
89292W        W54277  38.873  17.133  10.036
89293W        W54278  21.096   8.802  14.042
89294W        W54279  23.164  34.615   0.817
89295W        W54280  42.256  39.836  12.087
89296W        W54281  22.945  34.358   2.381
89297W        W54282  10.772  12.225  11.134
89298W        W54283   4.353  42.291  10.679
89299W        W54284  44.323  15.221  11.604
89300W        W54285  18.375  33.034   2.816
89301W        W54286   3.389  16.467  12.484
89302W        W54287  38.435   8.170  10.992
89303W        W54288  14.622  18.147   4.184
89304W        W54289  34.199  24.796  11.141
89305W        W54290  36.067   7.398  11.074
89306W        W54291   7.651  16.521   3.386
89307W        W54292  18.165  10.395   1.769
89308W        W54293  43.943  38.766  11.705
89309W        W54294  37.058  16.493   2.769
89310W        W54295  20.632  32.814  13.947
89311W        W54296  19.045  17.211  10.041
89312W        W54297  25.113  25.584   1.726
89313W        W54298   0.983   4.250   3.654
89314W        W54299  44.396  12.491   2.247
89315W        W54300  20.292  37.438  14.446
89316W        W54301   7.155  25.050   2.689
89317W        W54302   0.929  44.678  12.447
89318W        W54303   7.001   4.464  10.374
89319W        W54304  21.718  42.246  11.049
89320W        W54305   7.860  10.441   3.608
89321W        W54306  28.790   7.427  14.302
89322W        W54307  27.457  34.392  13.950
89323W        W54308   4.862  12.850   2.478
89324W        W54309   6.827  23.463  12.583
89325W        W54310  38.084  16.180  10.444
89326W        W54311  18.135   7.856   2.215
89327W        W54312  27.891  12.215  10.973
89328W        W54313  23.997  44.280  10.471
89329W        W54314   7.155   1.956   5.022
89330W        W54315  11.294   9.729  11.539
89331W        W54316   9.075  44.437  10.720
89332W        W54317  27.163   8.766  14.282
89333W        W54318   8.995  17.163  10.398
89334W        W54319   4.878  17.019  13.894
89335W        W54320  34.422  14.784   4.704
89336W        W54321  19.724  30.081   2.303
89337W        W54322   6.743  11.343   4.068
89338W        W54323  17.483  18.433   3.054
89339W        W54324  22.795  12.106   3.648
89340W        W54325  21.895  22.132  14.566
89341W        W54326  36.362  15.685  11.625
89342W        W54327  36.137   4.398   0.814
89343W        W54328  35.266   4.147   1.852
89344W        W54329   7.980  26.469   1.360
89345W        W54330   2.508  10.401   1.310
89346W        W54331  41.890  16.759  13.624
89347W        W54332  10.398  30.143   0.806
89348W        W54333  18.819  13.551   4.112
89349W        W54334   2.002  17.139   3.656
89350W        W54335   2.205  10.923   2.382
89351W        W54336  38.047  17.498  11.985
89352W        W54337  12.407  40.845   1.360
89353W        W54338   2.847  36.339  14.226
89354W        W54339  29.782  25.043   0.529
89355W        W54340  40.821  10.479   4.566
89356W        W54341  21.140  38.036  14.893
89357W        W54342  24.073  39.985  12.583
89358W        W54343  25.104  26.112   2.975
89359W        W54344  10.167  25.608   2.665
89360W        W54345  29.949  14.809   3.204
89361W        W54346   3.298   6.268  10.703
89362W        W54347  21.633  29.826  14.357
89363W        W54348  37.268   5.998  11.752
89364W        W54349  32.157  10.623  13.128
89365W        W54350   5.612  39.909   4.608
89366W        W54351  36.855  11.348  14.947
89367W        W54352   4.135  19.566   2.817
89368W        W54353  38.585  16.500   4.591
89369W        W54354  21.559  16.540  12.889
89370W        W54355   9.841  43.227  13.458
89371W        W54356   9.798  17.399  11.633
89372W        W54357  22.815  21.216  13.423
89373W        W54358  14.258  11.963   2.187
89374W        W54359  24.240  32.932  11.398
89375W        W54360  37.363  12.408   4.345
89376W        W54361  31.930   2.025   2.297
89377W        W54362  17.256  44.764   2.050
89378W        W54363   6.801  38.484   3.832
89379W        W54364  33.057   1.800  12.416
89380W        W54365  10.344  21.324  11.159
89381W        W54366  19.209   7.271   3.252
89382W        W54367  19.670   7.198   4.845
89383W        W54368  17.161  19.527  12.415
89384W        W54369  33.369   3.868   3.390
89385W        W54370  31.911  12.508   4.645
89386W        W54371  18.999  28.986  14.446
89387W        W54372  31.422  44.209  13.091
89388W        W54373   1.240  39.611   1.748
89389W        W54374  10.939  14.779  13.318
89390W        W54375  17.659  36.247   3.026
89391W        W54376  30.888  16.736   0.253
89392W        W54377  20.168  22.109   0.480
89393W        W54378  20.211  25.082  14.814
89394W        W54379  17.731  27.815  11.976
89395W        W54380  15.455  16.970  11.015
89396W        W54381  38.130  20.660  13.964
89397W        W54382  40.948  22.208   4.215
89398W        W54383   8.172  12.954   0.994
89399W        W54384  26.713  34.110  14.475
89400W        W54385   3.510  17.689  10.401
89401W        W54386  37.434  40.344  12.416
89402W        W54387  34.414   2.392  13.421
89403W        W54388  23.137  28.463   2.524
89404W        W54389   2.621  27.936   4.613
89405W        W54390   5.481   1.967  14.534
89406W        W54391   1.705  16.103   2.197
89407W        W54392  39.002  41.774  12.988
89408W        W54393  23.795  37.932   2.188
89409W        W54394  41.427  24.993  12.345
89410W        W54395   8.932   9.755   2.766
89411W        W54396  22.117  39.552   3.955
89412W        W54397  24.462   0.283  12.135
89413W        W54398   4.911  23.823   4.291
89414W        W54399  11.199   4.427   4.883
89415W        W54400  28.178  44.844  11.154
89416W        W54401  24.793   7.124  10.978
89417W        W54402  37.772  37.311   4.730
89418W        W54403   8.184  16.381   0.420
89419W        W54404  24.111  35.304   4.616
89420W        W54405   5.089  27.934  13.308
89421W        W54406  35.219   3.827  13.635
89422W        W54407  16.679   5.376  11.580
89423W        W54408   8.396   6.019  13.777
89424W        W54409  23.008  18.126  10.638
89425W        W54410  32.256  39.468  13.523
89426W        W54411  11.745  25.217  12.414
89427W        W54412  26.469  44.368   3.658
89428W        W54413  31.087  19.441   3.113
89429W        W54414  27.565   5.199  13.282
89430W        W54415  40.257  37.594   2.189
89431W        W54416  27.904  17.778  10.602
89432W        W54417  18.439  10.781  14.581
89433W        W54418  31.369  34.815  13.332
89434W        W54419  18.411  11.867  11.193
89435W        W54420  37.022   6.371  12.030
89436W        W54421  30.883   4.441   2.849
89437W        W54422  31.400  39.055   1.811
89438W        W54423   6.644  21.479   2.309
89439W        W54424  33.882  18.637   2.328
89440W        W54425  31.154  29.153  12.062
89441W        W54426  37.133  13.125  13.883
89442W        W54427  15.339  35.093  14.010
89443W        W54428  31.273  40.084   0.743
89444W        W54429   7.854  38.084   4.764
89445W        W54430  26.995  33.684  14.526
89446W        W54431  14.279  17.321  13.917
89447W        W54432   6.836  15.171  12.518
89448W        W54433  17.726   9.602  10.744
89449W        W54434  12.940  10.117   1.909
89450W        W54435  11.847  22.985  14.834
89451W        W54436  27.981  14.190  13.836
89452W        W54437  27.746  37.787  12.420
89453W        W54438  29.215  26.122   1.497
89454W        W54439   5.474  18.135   0.670
89455W        W54440  20.544  23.093  11.201
89456W        W54441  39.401  35.078   0.846
89457W        W54442   0.433   5.633  13.456
89458W        W54443  22.006   9.615   1.368
89459W        W54444  12.719  18.743  11.707
89460W        W54445  37.938  42.908  12.057
89461W        W54446  21.814   7.269  13.468
89462W        W54447  24.061   1.965  14.964
89463W        W54448  21.446  33.154  11.427
89464W        W54449  35.314  13.112  10.698
89465W        W54450   8.804  38.033   2.763
89466W        W54451  27.969  38.086   2.340
89467W        W54452  36.320   1.742  14.283
89468W        W54453  43.826  30.071  14.333
89469W        W54454  43.652  32.656  13.815
89470W        W54455   7.000  10.765   0.962
89471W        W54456  35.012   3.959   3.102
89472W        W54457  35.114  36.436   2.181
89473W        W54458   0.830   4.954   3.237
89474W        W54459  14.980  35.312   1.382
89475W        W54460  30.433  25.419   3.222
89476W        W54461  44.244   3.158   2.224
89477W        W54462  16.049  25.921   4.525
89478W        W54463  31.773  32.609   2.436
89479W        W54464  10.196   5.646  11.137
89480W        W54465   8.882  15.179  11.115
89481W        W54466  13.136  16.490   4.897
89482W        W54467  29.987  16.375   2.685
89483W        W54468  26.647  32.677  12.457
89484W        W54469  41.414   1.223   3.774
89485W        W54470  23.109  44.153   2.731
89486W        W54471  36.886   3.661   2.350
89487W        W54472  26.568  41.799  12.083
89488W        W54473   0.402  16.150  12.464
89489W        W54474  20.534   2.721   2.400
89490W        W54475  40.324  37.069  12.011
89491W        W54476   7.856  42.677   1.390
89492W        W54477   9.749  43.398   4.612
89493W        W54478  36.467  44.046   4.477
89494W        W54479  18.241  35.482  11.105
89495W        W54480  20.243  28.169   1.075
89496W        W54481  12.307  10.782  13.761
89497W        W54482  32.682  37.985   4.337
89498W        W54483  32.100  37.555   2.270
89499W        W54484   0.481   4.760   0.801
89500W        W54485  28.764  38.272   0.439
89501W        W54486  34.926   6.896   1.252
89502W        W54487  18.489  42.448   3.464
89503W        W54488  38.758  10.091  13.409
89504W        W54489   9.944   2.833  12.326
89505W        W54490  31.414  24.648   0.787
89506W        W54491  32.483  16.704  10.573
89507W        W54492  40.030  21.381   0.380
89508W        W54493  20.116   6.946   1.219
89509W        W54494  21.972  25.038   2.771
89510W        W54495  20.094  27.454   1.186
89511W        W54496  25.816  24.371  13.338
89512W        W54497  38.205  28.666   4.399
89513W        W54498  25.080  44.343   3.541
89514W        W54499  39.913  16.749   0.568
89515W        W54500  38.395  31.684   3.867
89516W        W54501  30.945  24.695  12.118
89517W        W54502   8.842  41.889  10.745
89518W        W54503  31.445   2.029  14.386
89519W        W54504   8.168  13.902  11.127
89520W        W54505  20.772   2.854  13.431
89521W        W54506  36.579  13.842  13.593
89522W        W54507  11.186  14.833  14.807
89523W        W54508  33.131  18.022  12.888
89524W        W54509  18.715  17.456   0.972
89525W        W54510  17.946  31.561  13.415
89526W        W54511   8.685  21.624  14.258
89527W        W54512   9.365   0.796   3.224
89528W        W54513   0.326  28.090   4.265
89529W        W54514  10.680  29.104  14.487
89530W        W54515  37.522  17.839  14.064
89531W        W54516  20.326  42.590   4.261
89532W        W54517  39.569   7.438  12.910
89533W        W54518  37.260   6.308   2.275
89534W        W54519  18.543  33.590  11.638
89535W        W54520  14.863  43.880  14.994
89536W        W54521  16.119  27.722   3.101
89537W        W54522   0.337  16.841  10.703
89538W        W54523  22.545  32.142   4.322
89539W        W54524  29.941  32.781   1.341
89540W        W54525  22.290  21.166  13.372
89541W        W54526  22.363  22.095   4.525
89542W        W54527  34.228   1.556   2.321
89543W        W54528  30.516  25.501  14.798
89544W        W54529  20.030  17.416  14.914
89545W        W54530  31.593  10.368  13.626
89546W        W54531   5.497  40.045  11.462
89547W        W54532   0.994  10.129  14.591
89548W        W54533  23.733  15.772   0.002
89549W        W54534  33.491  15.257  12.724
89550W        W54535   2.801  22.066   1.373
89551W        W54536   4.551  22.010   4.738
89552W        W54537   6.899  38.333   4.710
89553W        W54538  16.583   0.668  11.567
89554W        W54539  24.157  13.239  13.438
89555W        W54540   5.975  39.612   0.058
89556W        W54541  31.401  44.539   2.786
89557W        W54542  12.292  31.055  14.079
89558W        W54543  40.693  29.256   3.068
89559W        W54544   0.973  21.544   0.661
89560W        W54545   7.745  17.750   1.367
89561W        W54546  34.811  29.050   3.655
89562W        W54547   9.895  13.472   4.578
89563W        W54548  18.282  43.731   0.349
89564W        W54549  22.981  30.946  10.443
89565W        W54550  23.393  28.530   3.518
89566W        W54551   0.540  27.604   4.291
89567W        W54552  17.652  43.342   0.784
89568W        W54553  23.956  42.044   2.166
89569W        W54554   6.785  26.914  12.441
89570W        W54555  24.427  33.573   2.297
89571W        W54556   0.353  31.391   3.276
89572W        W54557  34.364  16.618   0.291
89573W        W54558  17.153  11.242   4.498
89574W        W54559  34.261  16.149   2.778
89575W        W54560  22.329  21.928  10.946
89576W        W54561  35.850  24.046  14.300
89577W        W54562  31.504  20.701  11.136
89578W        W54563   7.901  34.539   2.442
89579W        W54564  19.136  29.395   4.603
89580W        W54565  34.404   5.283   1.670
89581W        W54566  13.185  18.899   0.247
89582W        W54567   9.374  29.680   1.183
89583W        W54568  27.229  38.876   1.180
89584W        W54569  19.892  41.906  11.330
89585W        W54570  39.969  30.982   3.771
89586W        W54571  11.817  13.292  11.047
89587W        W54572   2.746  39.774  13.819
89588W        W54573  30.502  11.874  13.018
89589W        W54574  30.928  31.512  14.981
89590W        W54575  15.194  44.344  10.705
89591W        W54576  37.540   1.692  13.588
89592W        W54577   9.438  21.286   1.287
89593W        W54578  43.066  13.906   4.652
89594W        W54579  44.954   5.111   1.186
89595W        W54580   6.651   2.944   1.528
89596W        W54581  44.939   9.931   1.359
89597W        W54582  18.675   7.419  12.745
89598W        W54583   1.341  41.979  12.147
89599W        W54584  12.456  36.115   3.404
89600W        W54585  43.428  30.586  12.146
89601W        W54586  28.662  36.091  12.853
89602W        W54587  36.343  12.910   2.802
89603W        W54588  20.903  41.839  12.580
89604W        W54589  42.774  30.947  14.532
89605W        W54590   9.831   8.336   2.856
89606W        W54591  35.078  14.950  14.222
89607W        W54592   0.004   9.955  12.024
89608W        W54593  19.725  23.013  13.139
89609W        W54594  12.038   8.460  13.577
89610W        W54595  35.514  16.532  14.010
89611W        W54596  33.141  23.892   1.933
89612W        W54597  20.585  15.460   0.617
89613W        W54598   8.178  15.981  14.306
89614W        W54599  17.291   3.630   0.155
89615W        W54600  30.479  14.075   2.966
89616W        W54601  41.584  13.618   2.319
89617W        W54602  35.490  22.467  11.170
89618W        W54603  33.004   1.792  11.554
89619W        W54604  29.576  21.758   2.258
89620W        W54605  17.210  28.459  12.160
89621W        W54606  39.267  37.663  11.096
89622W        W54607  22.471   3.892  14.344
89623W        W54608  18.776  34.460   3.112
89624W        W54609  31.674  32.928   4.181
89625W        W54610  16.262   1.867  13.835
89626W        W54611  29.476  25.214   1.011
89627W        W54612  23.550  34.991  12.583
89628W        W54613   8.685  19.864   0.746
89629W        W54614  18.892   4.500   2.131
89630W        W54615  25.185  42.681   0.707
89631W        W54616  18.503   3.351   1.018
89632W        W54617  13.281  19.003  12.955
89633W        W54618  14.260   0.896  11.136
89634W        W54619  12.747  13.134  11.522
89635W        W54620  37.388   8.244  10.683
89636W        W54621  24.449   7.773   0.297
89637W        W54622  34.085   4.864  14.483
89638W        W54623   9.852   4.870   0.052
89639W        W54624  26.038  40.277  14.590
89640W        W54625   2.486  40.047  11.629
89641W        W54626  44.796  43.844  10.513
89642W        W54627  15.045  10.859   2.703
89643W        W54628  29.017  42.064   2.328
89644W        W54629  17.671  26.955  13.949
89645W        W54630  13.072  44.349  11.083
89646W        W54631   7.559  41.603  10.792
89647W        W54632  26.680  14.607  13.776
89648W        W54633  23.466  22.594  10.653
89649W        W54634  37.438  10.806   3.295
89650W        W54635  10.082  23.564   3.873
89651W        W54636  21.750  12.858  13.713
89652W        W54637   0.224  42.906   2.718
89653W        W54638  37.961  13.023   4.170
89654W        W54639   9.569  26.697   0.371
89655W        W54640  31.533  21.784  12.829
89656W        W54641  33.131  32.591  14.368
89657W        W54642  18.223  30.388   2.216
89658W        W54643  18.096  19.937   3.283
89659W        W54644  12.159  33.982  13.030
89660W        W54645  25.251  11.738   2.324
89661W        W54646  32.594   0.589  11.058
89662W        W54647   4.237  15.882   1.414
89663W        W54648  11.047  23.998  12.446
89664W        W54649  34.830  28.737  13.460
89665W        W54650  17.693  10.787   3.405
89666W        W54651  44.382  18.869  12.941
89667W        W54652  22.066  40.987   4.077
89668W        W54653  14.616  14.046  13.546
89669W        W54654   8.501  16.080   3.650
89670W        W54655   8.928   5.216   3.483
89671W        W54656  12.732   6.845  12.706
89672W        W54657  10.504  42.682   4.604
89673W        W54658  24.405  18.624   4.696
89674W        W54659  30.663   7.988   2.113
89675W        W54660  32.161   9.401  11.720
89676W        W54661  24.120   0.835   2.757
89677W        W54662  24.571  13.112  11.356
89678W        W54663  16.230   4.697   0.192
89679W        W54664  15.329  17.817  13.028
89680W        W54665  35.130  40.919   1.105
89681W        W54666  43.753  44.359   2.216
89682W        W54667  18.187  10.462  13.588
89683W        W54668  12.591   3.254   4.541
89684W        W54669  31.948   6.349   3.092
89685W        W54670   7.244  22.657   0.638
89686W        W54671  15.826  40.588  13.076
89687W        W54672  36.612  44.891   0.449
89688W        W54673  36.944  18.781  10.646
89689W        W54674  43.738  43.923   4.533
89690W        W54675  37.731  44.309   2.343
89691W        W54676   1.393  16.097  13.582
89692W        W54677   5.859  31.448   3.308
89693W        W54678   2.343   6.393   4.581
89694W        W54679  21.693  26.639  13.877
89695W        W54680  11.264   9.550  14.499
89696W        W54681  36.515  10.035   2.196
89697W        W54682  26.229   0.520  13.454
89698W        W54683  28.680   8.296  12.126
89699W        W54684  40.360   9.486  13.708
89700W        W54685  17.282  20.042  12.368
89701W        W54686  14.112   3.212  12.112
89702W        W54687  23.832  18.284  14.072
89703W        W54688  42.333  35.347   1.868
89704W        W54689   1.722  19.549  14.860
89705W        W54690  18.798  22.043  13.023
89706W        W54691   0.187   6.913  11.605
89707W        W54692  35.865  21.103   3.088
89708W        W54693  30.555  43.023  11.123
89709W        W54694  23.433  35.119   4.062
89710W        W54695  17.262   9.479   2.304
89711W        W54696  38.115  39.928  11.265
89712W        W54697  12.313  28.998  14.810
89713W        W54698  18.107  22.987  13.042
89714W        W54699   0.151   7.195  11.133
89715W        W54700  25.500  10.274   2.148
89716W        W54701  14.878  34.954  11.513
89717W        W54702   2.999  30.608  13.603
89718W        W54703   0.492  17.301   0.408
89719W        W54704   7.942  41.034  11.264
89720W        W54705   3.999  23.668   3.508
89721W        W54706  18.832  14.349   0.730
89722W        W54707  24.284  23.049   1.067
89723W        W54708   9.349  19.593  13.782
89724W        W54709  10.120   3.969   2.950
89725W        W54710  38.043  18.468  12.949
89726W        W54711  25.640  25.986  13.560
89727W        W54712  10.882   2.891  14.036
89728W        W54713  31.479   6.632  12.857
89729W        W54714  25.103  43.460   3.681
89730W        W54715  41.234   6.214   4.143
89731W        W54716  42.929   2.364   2.112
89732W        W54717   7.870  15.187  12.564
89733W        W54718  30.856  15.188  11.845
89734W        W54719   4.656   5.320   2.210
89735W        W54720  39.876  22.013   3.230
89736W        W54721  16.677   4.035  11.228
89737W        W54722   5.262  24.031   1.067
89738W        W54723   1.386  15.473   1.246
89739W        W54724  17.978  21.449  14.468
89740W        W54725   4.474   3.916   1.429
89741W        W54726   7.348  31.999   3.647
89742W        W54727  13.115   6.988  13.632
89743W        W54728  27.694  10.198   4.654
89744W        W54729  11.318  27.609   0.797
89745W        W54730  24.039   3.770  11.042
89746W        W54731   9.643   0.680  12.433
89747W        W54732  34.632  16.708   0.743
89748W        W54733  15.646  36.477  11.573
89749W        W54734  39.250  11.259  13.509
89750W        W54735  15.779  18.304  12.643
89751W        W54736   5.679  20.099  12.971
89752W        W54737  36.256  11.316  13.094
89753W        W54738  23.093  39.375   2.907
89754W        W54739   1.047  34.102  10.714
89755W        W54740  22.127   2.008   4.453
89756W        W54741   4.762  44.868  13.288
89757W        W54742  28.361  41.796  10.978
89758W        W54743  20.769  29.628  14.045
89759W        W54744  39.781  31.347   2.575
89760W        W54745  29.527  36.364   0.494
89761W        W54746  37.577  44.595  12.569
89762W        W54747   4.580  39.865  12.903
89763W        W54748   9.200   1.018  11.623
89764W        W54749   0.500  14.258   0.486
89765W        W54750  43.621  39.777   1.898
89766W        W54751  23.594  27.684  11.229
89767W        W54752   1.758   2.892  12.900
89768W        W54753  40.376  17.409  12.694
89769W        W54754  17.093   0.524  10.895
89770W        W54755  16.070  18.733   2.170
89771W        W54756  27.487  39.312  13.677
89772W        W54757  24.320  11.605   4.677
89773W        W54758  44.235   0.218  12.999
89774W        W54759  22.206  16.065   4.546
89775W        W54760  21.004  25.199  13.403
89776W        W54761   1.948   0.923  12.342
89777W        W54762  14.516  15.762  13.861
89778W        W54763   9.764  18.371  12.902
89779W        W54764  42.389  27.135   3.777
89780W        W54765  29.589  34.967   2.328
89781W        W54766   1.799  22.274   1.450
89782W        W54767   2.747   4.284  13.706
89783W        W54768  27.538  16.326   2.632
89784W        W54769  39.440  17.254  13.089
89785W        W54770   8.234   9.753   0.308
89786W        W54771  40.980  15.802  14.828
89787W        W54772  10.841  30.685  11.473
89788W        W54773  34.964   4.595   1.144
89789W        W54774  27.243  38.831   1.695
89790W        W54775  14.814  43.404   4.300
89791W        W54776  35.926  12.182  12.071
89792W        W54777  30.880  27.830   0.284
89793W        W54778  44.852  31.603  14.985
89794W        W54779  38.779  20.017   1.898
89795W        W54780  10.244  37.375   3.577
89796W        W54781  23.057  27.933  13.695
89797W        W54782  23.022  12.584   1.848
89798W        W54783   7.683  11.850   3.222
89799W        W54784   6.883  26.951  11.505
89800W        W54785  13.453  36.484  12.672
89801W        W54786  14.517  26.625  13.613
89802W        W54787  44.761  43.869  12.961
89803W        W54788  40.422  14.026  14.582
89804W        W54789  27.145  20.051  13.411
89805W        W54790  21.224  13.160  13.587
89806W        W54791  15.160  36.324  14.314
89807W        W54792  42.244  30.520  14.570
89808W        W54793   2.843   6.695   0.594
89809W        W54794  13.550  40.646  14.339
89810W        W54795  39.005  33.920   2.679
89811W        W54796  31.768  24.660  11.556
89812W        W54797  33.665  43.406   1.965
89813W        W54798  23.201   7.671  14.691
89814W        W54799  26.226  21.803  11.150
89815W        W54800  10.168   5.725  10.434
89816W        W54801  30.202  42.504  13.794
89817W        W54802  26.982  21.239  13.955
89818W        W54803  19.115   4.384  10.889
89819W        W54804  17.011  25.282  10.709
89820W        W54805  21.031  41.789   4.432
89821W        W54806  10.720  38.116  10.633
89822W        W54807  13.069   5.682  10.784
89823W        W54808  33.775  38.919  14.336
89824W        W54809  26.550  13.944  13.006
89825W        W54810  37.545  30.946  12.211
89826W        W54811  22.826  15.782   0.916
89827W        W54812  31.990  15.342  10.712
89828W        W54813  41.713  22.003   4.586
89829W        W54814   4.760  20.145  14.044
89830W        W54815  28.920   5.477   0.400
89831W        W54816  42.493   4.163   4.595
89832W        W54817  26.297   0.037   2.639
89833W        W54818  42.031  35.093   3.078
89834W        W54819  18.988  26.040  13.852
89835W        W54820  22.102  26.102  11.653
89836W        W54821   3.305   7.757  11.131
89837W        W54822  20.510  38.767  14.870
89838W        W54823  26.686  40.024  14.003
89839W        W54824  18.453  39.941  11.255
89840W        W54825  23.212  11.517  10.703
89841W        W54826   6.985  19.565  13.216
89842W        W54827  27.226  13.796   0.064
89843W        W54828  20.173   5.398  10.706
89844W        W54829  34.808   9.948  13.502
89845W        W54830  20.571  11.384   2.904
89846W        W54831  15.927   6.466  14.685
89847W        W54832  20.920  28.930   3.140
89848W        W54833   4.879  38.552   2.167
89849W        W54834   5.896  41.396   5.071
89850W        W54835  32.095  20.257   1.440
89851W        W54836  28.539  39.808  11.020
89852W        W54837  42.500  37.974   2.408
89853W        W54838  36.860  38.467   0.704
89854W        W54839  19.538  29.603   2.244
89855W        W54840   5.573   5.306   2.232
89856W        W54841  18.773  43.169   2.392
89857W        W54842   8.120   7.828   3.507
89858W        W54843  41.320   8.960  11.866
89859W        W54844  16.104  30.747  12.111
89860W        W54845  18.052  14.122   2.739
89861W        W54846  27.714  40.258  12.488
89862W        W54847  31.332  18.687  12.226
89863W        W54848  42.355  38.391   4.357
89864W        W54849  14.743  34.528  10.608
89865W        W54850   3.359  31.242  10.692
89866W        W54851  31.695  39.550   1.823
89867W        W54852  13.259  21.719   3.661
89868W        W54853  18.052  38.912   1.210
89869W        W54854  13.308  15.233  12.216
89870W        W54855  39.892  40.646  12.610
89871W        W54856  33.650  38.785  13.012
89872W        W54857  34.985   4.157  11.534
89873W        W54858  42.924  21.734  10.383
89874W        W54859  18.995  38.410  12.080
89875W        W54860   1.135  26.871  12.541
89876W        W54861   2.071  39.796   1.464
89877W        W54862   3.221  14.165   1.562
89878W        W54863  14.486  35.065   4.075
89879W        W54864  39.280  18.104   5.028
89880W        W54865  44.101  32.485  14.003
89881W        W54866   7.964  23.072  13.942
89882W        W54867  10.347  29.579   2.108
89883W        W54868  21.279  33.546  11.836
89884W        W54869  16.496  30.451  10.596
89885W        W54870  34.585  41.331  11.420
89886W        W54871  26.046  28.450  14.083
89887W        W54872   1.936  36.217  11.650
89888W        W54873   8.767  30.568  10.646
89889W        W54874  25.594  18.222   0.568
89890W        W54875  37.573  25.092   3.781
89891W        W54876   5.498  17.710   4.346
89892W        W54877  42.475  31.426   1.813
89893W        W54878  42.432  24.995   2.818
89894W        W54879  34.389   4.279   2.573
89895W        W54880  26.143  39.341   1.830
89896W        W54881  11.620  23.005   0.429
89897W        W54882  26.286  18.569  13.875
89898W        W54883  16.856  34.532   4.082
89899W        W54884  33.246  17.193  13.950
89900W        W54885  31.258  41.842   4.136
89901W        W54886   1.647  13.067  11.646
89902W        W54887  39.086  14.276   4.650
89903W        W54888  21.070  29.032  14.391
89904W        W54889  37.917  10.650  13.306
89905W        W54890  22.787   4.012  13.923
89906W        W54891  32.534  16.603   2.176
89907W        W54892  34.411   3.371  13.461
89908W        W54893   5.944  12.807   0.927
89909W        W54894  11.017  18.218  11.925
89910W        W54895  26.124  37.553  14.350
89911W        W54896   7.853  35.148  10.669
89912W        W54897  22.720   3.309   2.183
89913W        W54898  11.625   3.164   2.892
89914W        W54899   0.474   7.294   0.305
89915W        W54900  26.168   6.752   3.968
89916W        W54901  23.482  30.196   5.055
89917W        W54902  22.200  34.096   0.238
89918W        W54903   0.405  37.230   0.100
89919W        W54904  33.019  19.487   1.266
89920W        W54905  17.264   2.448   3.750
89921W        W54906  15.066  15.700   3.231
89922W        W54907   7.253  36.386  12.437
89923W        W54908  26.886  29.055   0.167
89924W        W54909  37.866  10.968   0.610
89925W        W54910  29.158  25.711   4.605
89926W        W54911  16.652  25.812  12.425
89927W        W54912  14.813   1.808  14.427
89928W        W54913   4.504   0.955  14.753
89929W        W54914  41.260  14.075   3.192
89930W        W54915   8.190   0.808  10.718
89931W        W54916  14.637   0.853   1.324
89932W        W54917   9.372  23.092   0.659
89933W        W54918  22.662  16.715   3.929
89934W        W54919  34.639  16.884   2.901
89935W        W54920   6.694  34.462  11.137
89936W        W54921  27.207  43.017  11.621
89937W        W54922   6.249   2.862   2.811
89938W        W54923  27.904  21.260   3.805
89939W        W54924  34.914  15.747  13.374
89940W        W54925  10.283  25.226  13.021
89941W        W54926  31.645  12.758  14.389
89942W        W54927  36.442   1.999  10.517
89943W        W54928  34.338  17.789  12.296
89944W        W54929   9.277  16.308   3.886
89945W        W54930  40.963  38.585   4.429
89946W        W54931   7.916  14.714   3.513
89947W        W54932   1.531   0.600  12.296
89948W        W54933  26.107  33.959  12.784
89949W        W54934   2.052  32.174  11.676
89950W        W54935  21.217  19.610  13.523
89951W        W54936   9.322  19.214   3.076
89952W        W54937   3.797  19.594  11.983
89953W        W54938  13.881  37.758   0.291
89954W        W54939  13.070  29.080   0.395
89955W        W54940  39.932  30.021  11.910
89956W        W54941  24.085   6.461  13.471
89957W        W54942  41.513  34.797  14.373
89958W        W54943  19.141  26.110   3.042
89959W        W54944  42.598   9.303  10.669
89960W        W54945  37.523   2.645  14.872
89961W        W54946  16.118  16.218   4.300
89962W        W54947   3.195  12.801  13.417
89963W        W54948  35.156  38.478   4.266
89964W        W54949  21.725  34.540  10.394
89965W        W54950  18.954  23.550   2.152
89966W        W54951   3.933  27.183  12.042
89967W        W54952  31.447  30.967   3.699
89968W        W54953  42.378  15.534   1.814
89969W        W54954  30.086  21.202  13.145
89970W        W54955  14.177  33.232   3.380
89971W        W54956  35.599  10.278   2.096
89972W        W54957   3.945  35.872   0.899
89973W        W54958   6.284  17.843   0.021
89974W        W54959  15.016  17.310  11.037
89975W        W54960  44.282  30.042  13.779
89976W        W54961  26.881  33.398   2.710
89977W        W54962   8.879  33.021   1.666
89978W        W54963  16.601  42.907  10.708
89979W        W54964  33.393  21.691  12.317
89980W        W54965  30.069  37.877  11.071
89981W        W54966  41.606  20.935   0.776
89982W        W54967   2.784  43.913  13.972
89983W        W54968  10.166  12.672  13.822
89984W        W54969  23.046  12.386   2.327
89985W        W54970  36.749  42.630  10.010
89986W        W54971  30.138  14.845  13.347
89987W        W54972  19.578  12.353  13.896
89988W        W54973  38.870  39.801  10.622
89989W        W54974   0.461  35.374  13.026
89990W        W54975  36.245  15.726  12.950
89991W        W54976  12.894  29.573  13.089
89992W        W54977  37.483  42.193   1.520
89993W        W54978   0.898  16.640  10.940
89994W        W54979  27.003  33.125   1.844
89995W        W54980  20.043  35.520   1.328
89996W        W54981  15.574  34.966   4.193
89997W        W54982   8.082   4.274   1.753
89998W        W54983  29.049  12.363   2.768
89999W        W54984  14.298  40.422   0.452
90000W        W54985   0.246  44.769   1.145
90001W        W54986  36.998  40.799   1.673
90002W        W54987  18.153   9.712   3.694
90003W        W54988  16.603  39.000   0.511
90004W        W54989   9.129  36.879   3.126
90005W        W54990  43.001  25.089   4.023
90006W        W54991  10.795  32.180  11.383
90007W        W54992   1.389  42.547  10.830
90008W        W54993  31.013  22.564   1.356
90009W        W54994  40.181  27.153  13.486
90010W        W54995   0.245  18.059  12.201
90011W        W54996  20.261  30.345   5.027
90012W        W54997  16.665   5.953   0.342
90013W        W54998   7.883   0.502  13.085
90014W        W54999   2.168  37.314   0.210
90015W        W55000  41.531  23.782   4.220
90016W        W55001  30.963  33.980   4.476
90017W        W55002  30.942   9.607  14.217
90018W        W55003   8.309  38.026   2.987
90019W        W55004  19.602  39.297   2.245
90020W        W55005  33.600  10.684   1.377
90021W        W55006  33.235   1.312  13.840
90022W        W55007  11.218  16.087  12.032
90023W        W55008  30.969  25.774  10.740
90024W        W55009  14.963   5.396  14.703
90025W        W55010   4.993  11.895   0.835
90026W        W55011   1.906  31.156  14.924
90027W        W55012  13.122  13.138  14.730
90028W        W55013   3.160   0.760  11.779
90029W        W55014   7.711   9.194   2.203
90030W        W55015  13.651  26.323   2.728
90031W        W55016   0.417   9.443  14.905
90032W        W55017  34.849  26.377  11.503
90033W        W55018  15.356  40.957   1.479
90034W        W55019   1.986  13.095   2.669
90035W        W55020  16.713  42.792  13.630
90036W        W55021   9.016   4.739  11.477
90037W        W55022  14.698  36.095  14.496
90038W        W55023   3.491   5.381  10.986
90039W        W55024  17.581  18.370   2.399
90040W        W55025  37.430   9.870  13.788
90041W        W55026   9.204   8.692  12.289
90042W        W55027   1.805   6.743  14.297
90043W        W55028  39.220  11.283   4.830
90044W        W55029  40.055   7.294  10.973
90045W        W55030  15.052  12.695  12.946
90046W        W55031  27.940  28.968   0.509
90047W        W55032  31.859  16.392   3.114
90048W        W55033  27.796  12.111   3.244
90049W        W55034   4.388  17.715  11.465
90050W        W55035   9.961   5.210   2.641
90051W        W55036  36.457  19.003   4.683
90052W        W55037   3.694   1.713   3.247
90053W        W55038   7.474   7.238  12.806
90054W        W55039  26.016  42.438  12.399
90055W        W55040  16.116  27.418   2.699
90056W        W55041  17.176  33.053  12.820
90057W        W55042  34.612   4.956  14.384
90058W        W55043   7.307   3.457   2.667
90059W        W55044  26.334  44.318  11.711
90060W        W55045  33.488  38.885   3.600
90061W        W55046  15.285  37.495   1.338
90062W        W55047  33.467  17.446   2.243
90063W        W55048  41.376  40.084   0.481
90064W        W55049  32.217   5.809   2.151
90065W        W55050  27.100   1.811  14.773
90066W        W55051  26.709  35.942  13.837
90067W        W55052  44.379  14.630   2.363
90068W        W55053  10.996  26.406  11.552
90069W        W55054   1.574  31.739   2.430
90070W        W55055  25.565  11.757  14.488
90071W        W55056  14.137  26.987   0.405
90072W        W55057  22.624  15.129  13.942
90073W        W55058  26.109  35.109  13.573
90074W        W55059  29.034   1.554   0.332
90075W        W55060  31.672  35.153  14.970
90076W        W55061  28.855  31.337   2.614
90077W        W55062  16.657  26.193  13.253
90078W        W55063  42.583  37.743  11.621
90079W        W55064   5.887  21.153  12.040
90080W        W55065  34.660  38.851   0.799
90081W        W55066  10.843   7.021  14.946
90082W        W55067  27.015  33.353  14.923
90083W        W55068   8.096  19.715   1.766
90084W        W55069   5.684  37.535   2.188
90085W        W55070  20.602  42.620  13.744
90086W        W55071  23.718  11.107  12.480
90087W        W55072  24.487   6.743   1.413
90088W        W55073  16.900  39.869   0.937
90089W        W55074  27.905  23.092   3.323
90090W        W55075  43.899  26.712  12.452
90091W        W55076   7.689  16.403  10.651
90092W        W55077  24.098  11.013  14.682
90093W        W55078   8.620  23.475   4.963
90094W        W55079  39.483  33.986  12.668
90095W        W55080  32.005   4.375  11.999
90096W        W55081  24.404  19.537   0.414
90097W        W55082  25.874  34.557   4.601
90098W        W55083   8.985  11.169  11.563
90099W        W55084  15.750  15.760   0.468
90100W        W55085  19.714  30.550   4.365
90101W        W55086  29.401  22.147  10.621
90102W        W55087  29.433  41.167   5.045
90103W        W55088  36.811  38.439  14.842
90104W        W55089   3.020  32.432   2.484
90105W        W55090  10.187  39.941  13.648
90106W        W55091  12.694  24.267   2.375
90107W        W55092  34.950  43.891  12.072
90108W        W55093  32.463  21.355   2.879
90109W        W55094  16.375  18.830  11.961
90110W        W55095   4.335  10.898   3.193
90111W        W55096  20.800  27.269   3.883
90112W        W55097  43.837  36.329  10.856
90113W        W55098  32.449  41.785  13.445
90114W        W55099   2.413   1.822   1.787
90115W        W55100   4.318  29.422   2.781
90116W        W55101  27.488  23.608  11.638
90117W        W55102  37.421  35.514   4.553
90118W        W55103   0.308  34.201  11.221
90119W        W55104   5.348  21.782   1.485
90120W        W55105   5.820  19.157   3.154
90121W        W55106   3.498   0.769  10.562
90122W        W55107  25.521  37.857  13.526
90123W        W55108  10.093  40.414   0.411
90124W        W55109  29.993  12.059  12.871
90125W        W55110  10.805  29.021   4.449
90126W        W55111  28.155  37.350   4.053
90127W        W55112  34.959  44.518  14.330
90128W        W55113  23.677  16.074  10.436
90129W        W55114  35.120   9.346  13.971
90130W        W55115  11.162  41.420  10.954
90131W        W55116  25.616  27.218  14.536
90132W        W55117  42.625  23.462   1.152
90133W        W55118  29.380  26.527  13.792
90134W        W55119  13.105  11.339   0.947
90135W        W55120  23.445  36.040  13.542
90136W        W55121  44.217   5.420   2.866
90137W        W55122  32.872  25.314  11.816
90138W        W55123  27.021  19.779   5.127
90139W        W55124  32.160  29.092   3.787
90140W        W55125  22.690  22.172   2.144
90141W        W55126  37.578   2.332  14.469
90142W        W55127  30.529  37.398   2.105
90143W        W55128  28.394  44.854  12.862
90144W        W55129   0.022  21.446   3.064
90145W        W55130   7.472  35.818  10.354
90146W        W55131   1.242  18.313  12.103
90147W        W55132   7.350  16.028  10.699
90148W        W55133  41.418  43.815   3.119
90149W        W55134  31.080   6.242   4.069
90150W        W55135  21.521  37.197  13.696
90151W        W55136  42.264  29.616  12.858
90152W        W55137  37.016  42.080   1.284
90153W        W55138  18.935  28.165   0.876
90154W        W55139  22.784  36.105  10.721
90155W        W55140   9.147  33.212  12.568
90156W        W55141  14.029  38.921   3.672
90157W        W55142   5.687  25.755   0.454
90158W        W55143  44.897  15.239  14.866
90159W        W55144  36.279  15.305   1.596
90160W        W55145   6.910  32.377   0.436
90161W        W55146  23.275   1.276   0.031
90162W        W55147  29.385  42.525   1.454
90163W        W55148   5.719  42.101  11.122
90164W        W55149   6.942  20.245  13.472
90165W        W55150  10.760  37.265  11.971
90166W        W55151  22.231  17.326   0.798
90167W        W55152  38.329  26.617  14.792
90168W        W55153  36.985   3.034  14.940
90169W        W55154  24.859  14.308   4.940
90170W        W55155  35.299  28.113  14.202
90171W        W55156  20.206  37.781  11.742
90172W        W55157  18.667   9.707  14.877
90173W        W55158  31.931  17.175   4.613
90174W        W55159  32.329  15.103  14.883
90175W        W55160  44.766  13.329   0.792
90176W        W55161  35.170   3.569   2.320
90177W        W55162  40.820  31.856   1.833
90178W        W55163   8.415   7.468  13.814
90179W        W55164  26.603  29.154   4.189
90180W        W55165  27.509   0.592   3.974
90181W        W55166  17.599  34.561  13.105
90182W        W55167  10.240   5.409   4.686
90183W        W55168  32.852  12.850   2.903
90184W        W55169  38.630  37.389   0.751
90185W        W55170  11.621  34.055   2.156
90186W        W55171  12.162  35.697   3.240
90187W        W55172   9.444  44.841   3.242
90188W        W55173  35.697  23.637   3.821
90189W        W55174  33.349  39.406   2.863
90190W        W55175   0.239  12.025  11.194
90191W        W55176  32.214   9.824   4.145
90192W        W55177  22.783  30.405   4.613
90193W        W55178   7.414  33.395  12.192
90194W        W55179  43.767  34.903  14.371
90195W        W55180  31.359  33.054  11.458
90196W        W55181  29.704  43.346  12.099
90197W        W55182  14.168  25.989  11.749
90198W        W55183   9.622  12.749   2.707
90199W        W55184  44.722  41.855   4.122
90200W        W55185  34.976  20.851  11.190
90201W        W55186  13.799   8.257  10.231
90202W        W55187   5.333  33.905   1.377
90203W        W55188  16.316  20.240  11.505
90204W        W55189  38.100  24.629  12.053
90205W        W55190  44.421  12.884  12.101
90206W        W55191  43.540  10.802   3.721
90207W        W55192  29.002  18.485  10.928
90208W        W55193   6.611  17.033  10.969
90209W        W55194   8.763  12.588   3.131
90210W        W55195  19.119  22.162   1.338
90211W        W55196   6.657   0.839   4.550
90212W        W55197   9.731  42.191   4.603
90213W        W55198  42.703  21.515  14.971
90214W        W55199  15.490  29.674   3.054
90215W        W55200  33.290  14.548   0.010
90216W        W55201   2.520  20.194   0.750
90217W        W55202   8.375  13.006   4.298
90218W        W55203   6.312  29.669  12.557
90219W        W55204  39.697  27.157   2.862
90220W        W55205  31.361  17.178  11.046
90221W        W55206  16.050  28.555  13.498
90222W        W55207  17.664  32.034   0.768
90223W        W55208  36.802  14.293  13.750
90224W        W55209  31.079  44.593   4.450
90225W        W55210  17.883   7.363  14.567
90226W        W55211  19.629  27.509   1.438
90227W        W55212  22.825  28.656  14.264
90228W        W55213   6.247  35.670   1.711
90229W        W55214   3.275  40.531   2.748
90230W        W55215  17.398   8.810   4.804
90231W        W55216   2.329  30.301  13.344
90232W        W55217  18.311  43.160   1.491
90233W        W55218  17.090  19.159   2.874
90234W        W55219  17.388  31.574  13.593
90235W        W55220  15.747  28.607   3.195
90236W        W55221  22.811  32.719  10.566
90237W        W55222  14.155  31.189  13.001
90238W        W55223  27.262  20.955  14.377
90239W        W55224  25.145   0.477   1.668
90240W        W55225   0.203  26.240  14.052
90241W        W55226  19.692   2.171  12.388
90242W        W55227   3.900  39.764   0.247
90243W        W55228  36.300  31.625   0.436
90244W        W55229  35.846   5.822   0.276
90245W        W55230  25.832  36.780  11.168
90246W        W55231  40.416  18.769  12.965
90247W        W55232  38.028  42.017  13.508
90248W        W55233   9.297  26.929  14.686
90249W        W55234   0.143   0.314   4.174
90250W        W55235  43.778   5.909   3.671
90251W        W55236  32.948   9.276   2.880
90252W        W55237  38.825  16.324   2.459
90253W        W55238  44.492   4.743  10.754
90254W        W55239  42.344  14.627  11.164
90255W        W55240  12.666  38.921  13.784
90256W        W55241  32.557  40.931   4.741
90257W        W55242  40.003  19.843  14.787
90258W        W55243  15.676   9.629   0.838
90259W        W55244  39.426  19.810  12.918
90260W        W55245  12.372  34.662  13.564
90261W        W55246  37.330  34.412   3.765
90262W        W55247  20.643  19.875  14.056
90263W        W55248  21.993  33.643   2.925
90264W        W55249  34.111  24.114   3.350
90265W        W55250   8.537  20.140   1.195
90266W        W55251   9.380  37.052  14.521
90267W        W55252  41.792  30.116  10.592
90268W        W55253  32.014   4.219   0.337
90269W        W55254  17.734  20.685  11.153
90270W        W55255   5.730  25.998   1.927
90271W        W55256  32.590  38.379  10.391
90272W        W55257  39.254   9.434  11.169
90273W        W55258  15.302  31.554  14.453
90274W        W55259  24.005  38.640   3.577
90275W        W55260  34.171  42.805   4.051
90276W        W55261  22.471  27.992   0.961
90277W        W55262  22.482  34.380  12.733
90278W        W55263   0.212  36.285   0.030
90279W        W55264   2.459  39.547  11.594
90280W        W55265   8.933   8.337  13.987
90281W        W55266  11.613   0.600  11.603
90282W        W55267   3.894  25.934  14.817
90283W        W55268  30.479   8.264  13.374
90284W        W55269  21.185  32.127  10.663
90285W        W55270  38.872  39.364   1.858
90286W        W55271  21.998  29.159   2.194
90287W        W55272  42.563  29.699  11.958
90288W        W55273  30.606  28.723   3.277
90289W        W55274  33.499  38.301   0.275
90290W        W55275  23.055  36.147  14.530
90291W        W55276  34.555   5.881  13.999
90292W        W55277   2.203  36.052   2.706
90293W        W55278  38.628   5.898  14.412
90294W        W55279  34.550  20.237   4.909
90295W        W55280   6.593  43.868  11.891
90296W        W55281   0.864  20.263   2.167
90297W        W55282  27.535  14.827   4.580
90298W        W55283  31.414  16.594  11.891
90299W        W55284  36.538   8.211   2.408
90300W        W55285   0.510   9.854  12.535
90301W        W55286  30.417   9.187   1.316
90302W        W55287   0.245  22.209   2.701
90303W        W55288  30.695  17.315  11.944
90304W        W55289  30.521  11.596  11.959
90305W        W55290  23.877  32.461   4.524
90306W        W55291   5.865   6.724  14.945
90307W        W55292  13.376  24.237   1.255
90308W        W55293  35.428  34.268  12.093
90309W        W55294  18.679  21.189   2.053
90310W        W55295  28.388   2.569   3.299
90311W        W55296  32.398  13.705  10.744
90312W        W55297   1.034  28.646  11.533
90313W        W55298   3.991  26.872  14.362
90314W        W55299  36.003  22.301   3.606
90315W        W55300  14.674   4.822   1.305
90316W        W55301  41.546   4.931  13.541
90317W        W55302  18.231  34.970  11.321
90318W        W55303  35.141   0.520  11.101
90319W        W55304  20.714   2.423  12.961
90320W        W55305   6.307  31.357   1.796
90321W        W55306  32.025  33.686  14.906
90322W        W55307  39.913  18.702  10.655
90323W        W55308   4.737  25.190   4.764
90324W        W55309  10.826  38.317  12.876
90325W        W55310  42.896  31.720   0.238
90326W        W55311  13.896  12.610  13.868
90327W        W55312   2.199  11.183  11.924
90328W        W55313  25.172  19.050  14.792
90329W        W55314  40.993  21.869  10.314
90330W        W55315  15.280  10.190  11.433
90331W        W55316  26.434  30.629  13.271
90332W        W55317  33.157  24.860   5.257
90333W        W55318  24.175  10.604   0.626
90334W        W55319   3.983  11.331   1.472
90335W        W55320   2.414  42.891   1.992
90336W        W55321  27.686  43.345  14.915
90337W        W55322   7.689  41.547   4.657
90338W        W55323   7.042   7.430   5.102
90339W        W55324   5.210  34.636  11.927
90340W        W55325  39.159  29.488   4.708
90341W        W55326  35.514  41.051  10.782
90342W        W55327  37.012  37.925   2.326
90343W        W55328  24.166  24.650  12.972
90344W        W55329   4.650   6.691   9.850
90345W        W55330  37.020  14.596   0.716
90346W        W55331  15.162   7.963  13.598
90347W        W55332  28.693  18.046   2.720
90348W        W55333  37.101  19.262   2.238
90349W        W55334  31.963  25.346   1.271
90350W        W55335   1.279  19.183  13.529
90351W        W55336  27.754  22.141   2.755
90352W        W55337   6.446  18.058  11.143
90353W        W55338  41.550  14.465   1.855
90354W        W55339  27.127  29.326  10.252
90355W        W55340  31.031   9.557   3.363
90356W        W55341  27.073  12.660  13.034
90357W        W55342   8.936  39.203  13.620
90358W        W55343   9.993  41.374   5.126
90359W        W55344  22.850  43.361   0.021
90360W        W55345  28.506  15.157   1.324
90361W        W55346   8.464  22.944   4.875
90362W        W55347  21.177  24.965  11.699
90363W        W55348  18.575  23.577   4.465
90364W        W55349  25.058   3.235  12.511
90365W        W55350  37.077  32.400  12.501
90366W        W55351  16.127   6.450  13.516
90367W        W55352  15.748   6.765   1.504
90368W        W55353  38.745  16.162   0.285
90369W        W55354  10.629  20.542  11.989
90370W        W55355  12.328   6.688  12.415
90371W        W55356   9.601  14.569  14.894
90372W        W55357  10.530   8.656   4.072
90373W        W55358  41.979  32.337   4.594
90374W        W55359   0.327  30.110  11.960
90375W        W55360  36.699  17.058  10.812
90376W        W55361  20.724  36.090  11.098
90377W        W55362  19.658  37.150  10.515
90378W        W55363  26.723  44.810   1.179
90379W        W55364  32.985  16.517   4.562
90380W        W55365  32.394  22.297   1.858
90381W        W55366   4.447  27.845  10.790
90382W        W55367  10.588   5.471   0.983
90383W        W55368  37.073  43.000  11.649
90384W        W55369  19.818   4.723  11.926
90385W        W55370  22.841  28.949   1.822
90386W        W55371   2.631  40.446  14.558
90387W        W55372   1.039  41.556  11.014
90388W        W55373  40.042   6.002   4.614
90389W        W55374  22.496  35.786  11.016
90390W        W55375  27.965   2.293  14.795
90391W        W55376  20.721  13.237  12.359
90392W        W55377  18.081  30.397  12.360
90393W        W55378   9.537  15.757   1.747
90394W        W55379   5.885   7.229   2.665
90395W        W55380  16.995  17.425  11.147
90396W        W55381  37.621  38.103  11.280
90397W        W55382  16.094  10.389  14.548
90398W        W55383   8.307  31.023   1.266
90399W        W55384  16.390  38.537   2.723
90400W        W55385  16.195  16.662  12.905
90401W        W55386  19.296  42.562  14.299
90402W        W55387  16.780  14.279   0.943
90403W        W55388  37.209  42.798  13.394
90404W        W55389   6.727  25.885  14.318
90405W        W55390  38.319  25.719   5.042
90406W        W55391  11.372  22.214  10.527
90407W        W55392  43.420  19.856  12.521
90408W        W55393  32.399  24.500  12.193
90409W        W55394  37.456  39.542   2.794
90410W        W55395  20.844  40.894   4.050
90411W        W55396  35.609   0.122  11.815
90412W        W55397   0.045  11.290   1.592
90413W        W55398   6.667  37.336   4.502
90414W        W55399  31.606  36.915  13.960
90415W        W55400  43.255  10.903   0.428
90416W        W55401  18.801  43.387  13.865
90417W        W55402  37.090  43.852   1.007
90418W        W55403  44.833  12.392  13.562
90419W        W55404  39.690  18.359  11.892
90420W        W55405  11.349  28.247  11.038
90421W        W55406  44.626  31.112   2.204
90422W        W55407   3.488  26.606  12.164
90423W        W55408  12.557   1.812   3.688
90424W        W55409  31.068  25.719  12.063
90425W        W55410   3.465  15.673  10.634
90426W        W55411  27.148  30.345   0.764
90427W        W55412  39.512  10.843   0.515
90428W        W55413  23.586  44.727  12.543
90429W        W55414   9.367  43.025  13.292
90430W        W55415  17.155  23.964  13.826
90431W        W55416   0.311   6.187   1.760
90432W        W55417   9.621  10.897  10.412
90433W        W55418   5.773  27.419   3.351
90434W        W55419  33.430   1.447   4.149
90435W        W55420  43.867   8.604   3.360
90436W        W55421   1.371  34.995  12.078
90437W        W55422  27.120  21.774  11.159
90438W        W55423  43.897  17.986   3.282
90439W        W55424  38.436  13.367   0.303
90440W        W55425  43.482  30.418   2.754
90441W        W55426  39.102   2.551  13.460
90442W        W55427   1.752  44.996  12.944
90443W        W55428  21.437  11.441  11.246
90444W        W55429  40.911  44.046  11.044
90445W        W55430  28.097   8.511  10.843
90446W        W55431  12.681  34.044   0.823
90447W        W55432  38.072  38.300   0.045
90448W        W55433  19.759  32.663  10.777
90449W        W55434  38.081  26.660  10.719
90450W        W55435  17.809   8.290  10.714
90451W        W55436  40.755  16.203   3.132
90452W        W55437  31.112   6.713   2.632
90453W        W55438  26.950  30.675  12.638
90454W        W55439   8.610  29.563  11.964
90455W        W55440  37.469  38.860  14.712
90456W        W55441  17.094  43.867  14.877
90457W        W55442  28.006   6.412   1.091
90458W        W55443   1.950  27.223   0.953
90459W        W55444   8.059   3.115   2.323
90460W        W55445  37.305  44.323   0.875
90461W        W55446   5.412  40.309   4.876
90462W        W55447  42.522  34.652  14.011
90463W        W55448  37.707  13.612  10.604
90464W        W55449  15.305   7.782  14.534
90465W        W55450  37.863  22.297   1.832
90466W        W55451  36.874  12.915  13.468
90467W        W55452   1.426   8.026   3.626
90468W        W55453   6.703  28.140  10.581
90469W        W55454  36.295  42.377  14.433
90470W        W55455  31.742  29.591   5.051
90471W        W55456  18.610  29.746  13.936
90472W        W55457  11.256  19.423  14.723
90473W        W55458  17.309  22.270   3.194
90474W        W55459  37.288  37.817  12.613
90475W        W55460  13.787  28.224   2.810
90476W        W55461   5.459  42.902   4.690
90477W        W55462  32.155  29.944  14.385
90478W        W55463   8.169  11.807   4.635
90479W        W55464  16.295  22.934  14.178
90480W        W55465   3.750  36.284  13.392
90481W        W55466   1.828  20.053  14.984
90482W        W55467   8.660   2.958  13.172
90483W        W55468  13.757  34.989   2.819
90484W        W55469  16.323  44.521   2.943
90485W        W55470  23.992  43.319  11.628
90486W        W55471  20.634  18.513  13.198
90487W        W55472   9.433   4.257   4.102
90488W        W55473  20.555   0.321  11.021
90489W        W55474  19.612  24.574  12.380
90490W        W55475   7.508  16.852   4.219
90491W        W55476  31.519  36.053   3.042
90492W        W55477   6.928  20.570   4.589
90493W        W55478  40.306  31.246   0.192
90494W        W55479   9.155  15.826  13.323
90495W        W55480  23.534   9.381   2.860
90496W        W55481  44.094  24.349   9.775
90497W        W55482   7.834  44.540   3.357
90498W        W55483   8.830  34.564  11.436
90499W        W55484  42.580  39.364  14.058
90500W        W55485  41.904  15.163   5.014
90501W        W55486  29.538  15.070   3.879
90502W        W55487  22.081   4.841  13.745
90503W        W55488  11.599   7.204  11.789
90504W        W55489  15.351  21.692   2.085
90505W        W55490  37.546  25.917  10.978
90506W        W55491  41.023  20.103  12.700
90507W        W55492  32.825  32.019   9.796
90508W        W55493   8.684  18.048  12.993
90509W        W55494  39.528  39.864  14.280
90510W        W55495  26.978  24.750  13.940
90511W        W55496  43.686  21.242   0.403
90512W        W55497  41.951  38.501   3.787
90513W        W55498  14.676  21.885  11.100
90514W        W55499   5.232  44.516  11.501
90515W        W55500  41.253   2.471   2.842
90516W        W55501  12.072   3.612  12.571
90517W        W55502  41.523  29.221   4.878
90518W        W55503  39.497  16.696   1.328
90519W        W55504  30.382  32.973  12.521
90520W        W55505  19.629  23.704  11.389
90521W        W55506  35.280   7.712  13.877
90522W        W55507  26.643  38.415  14.552
90523W        W55508  16.764  40.444  13.273
90524W        W55509  39.157  29.536   0.446
90525W        W55510  22.111  18.506   3.308
90526W        W55511   6.769  19.698   1.900
90527W        W55512  35.689  27.222  12.128
90528W        W55513  39.389   9.884  11.782
90529W        W55514  29.163  27.338  11.222
90530W        W55515  22.308  44.807  11.705
90531W        W55516  16.589  29.130   5.744
90532W        W55517   9.448  32.913  10.578
90533W        W55518  33.845   9.771   0.403
90534W        W55519  23.667   9.807   2.619
90535W        W55520   6.179  14.923  12.087
90536W        W55521  22.098  35.755   1.992
90537W        W55522  31.383  14.106   2.812
90538W        W55523  26.990  11.508  11.572
90539W        W55524  39.827   3.197   3.239
90540W        W55525  11.612  41.799  11.934
90541W        W55526   2.086   5.213   1.978
90542W        W55527  36.073  11.921   5.745
90543W        W55528  30.592  16.606   2.716
90544W        W55529  32.979  39.098   1.764
90545W        W55530  24.567   1.476   4.186
90546W        W55531  15.931  15.991   1.513
90547W        W55532  33.941  38.724   2.702
90548W        W55533  32.189   2.995   3.332
90549W        W55534  41.751  36.912  11.358
90550W        W55535  11.807   4.411   4.052
90551W        W55536  12.879  36.372  13.320
90552W        W55537  12.692  24.591  11.095
90553W        W55538  24.569  35.352  14.340
90554W        W55539  41.368   0.573  14.426
90555W        W55540  44.836   2.682  13.976
90556W        W55541  28.116  29.660   3.657
90557W        W55542  27.251  13.224   4.554
90558W        W55543   6.095  33.111  12.887
90559W        W55544  17.720  39.809  10.773
90560W        W55545  34.064   1.624   3.905
90561W        W55546   8.795  13.119   3.747
90562W        W55547   1.007   9.665  10.004
90563W        W55548  41.724   3.834  13.992
90564W        W55549  20.048  30.427  10.740
90565W        W55550  27.533  16.786   0.498
90566W        W55551   3.898  24.048  14.359
90567W        W55552  32.878  32.118   4.243
90568W        W55553  32.841  30.908  14.059
90569W        W55554  19.399  10.082   1.939
90570W        W55555   3.277  34.954  13.327
90571W        W55556  14.872  31.049   2.640
90572W        W55557  30.426  38.423  10.631
90573W        W55558  33.826   5.724  14.274
90574W        W55559  12.624  36.963   3.402
90575W        W55560   9.378  32.463   3.326
90576W        W55561  25.193  43.874   3.331
90577W        W55562  44.475  33.031   3.840
90578W        W55563  20.172  41.918   2.149
90579W        W55564  37.612   3.186  12.081
90580W        W55565  10.654  27.405   1.419
90581W        W55566  11.544  27.946  13.884
90582W        W55567  44.468   9.821  12.488
90583W        W55568   7.865  32.565   1.858
90584W        W55569  27.444  15.904  12.313
90585W        W55570  15.196  43.465  11.069
90586W        W55571  15.334  28.665  14.022
90587W        W55572  20.356   6.735  11.975
90588W        W55573  22.709  21.494   2.758
90589W        W55574  36.338   0.329   0.347
90590W        W55575  16.404  32.261  12.082
90591W        W55576   6.513   1.789  14.762
90592W        W55577  29.308  16.048   3.377
90593W        W55578  11.405  31.420   1.258
90594W        W55579   5.802  10.775   3.523
90595W        W55580  27.169  32.005  12.356
90596W        W55581  36.604  21.298  11.873
90597W        W55582   3.173  21.009   3.037
90598W        W55583  35.493   1.699  14.578
90599W        W55584  19.253  25.329  14.387
90600W        W55585  41.895  20.481   1.818
90601W        W55586  30.026  34.908  12.953
90602W        W55587  30.619  21.540   3.879
90603W        W55588  31.514  25.179   1.458
90604W        W55589  36.037  10.377   2.839
90605W        W55590  21.017   3.279  12.598
90606W        W55591  12.582  44.554  11.116
90607W        W55592  28.067  11.636  10.745
90608W        W55593  16.527  10.721   2.516
90609W        W55594  13.868  44.585  14.473
90610W        W55595  20.480  33.469   1.314
90611W        W55596   1.997   8.528  11.267
90612W        W55597  35.820   7.542  13.857
90613W        W55598  33.632   4.395   4.712
90614W        W55599  23.326  17.148  11.465
90615W        W55600  43.063  19.900  10.674
90616W        W55601  11.397  31.194   4.733
90617W        W55602  41.736   0.749   4.535
90618W        W55603  35.074  35.500  12.444
90619W        W55604  13.072  21.052  10.910
90620W        W55605  38.087   5.167  12.500
90621W        W55606  21.482  18.346  12.560
90622W        W55607  43.950  39.792   0.406
90623W        W55608   0.446  27.575  14.443
90624W        W55609  42.006   2.880  13.881
90625W        W55610   2.855  39.131   4.314
90626W        W55611  12.288  10.180  13.540
90627W        W55612  11.661  22.088   4.061
90628W        W55613  26.094  36.733  12.030
90629W        W55614  29.256  32.400  14.049
90630W        W55615  18.786  34.377   2.235
90631W        W55616  15.742   6.011   3.220
90632W        W55617  36.379   2.889   2.437
90633W        W55618   5.204  10.640   1.238
90634W        W55619  30.902  34.151  14.815
90635W        W55620   1.068   3.774  13.338
90636W        W55621  40.974  21.460   3.603
90637W        W55622   2.167  33.983  11.528
90638W        W55623  33.902   9.090   2.357
90639W        W55624  22.350  19.836   1.213
90640W        W55625   9.621  12.530  12.027
90641W        W55626  41.613  44.388   3.904
90642W        W55627  24.584  12.755   4.140
90643W        W55628  41.606   8.194  12.374
90644W        W55629  12.853   4.812  12.968
90645W        W55630   8.301  14.423   4.898
90646W        W55631  11.153  22.774   1.783
90647W        W55632   4.259  44.220  12.568
90648W        W55633   9.324  26.150   1.346
90649W        W55634  20.768  22.175   4.662
90650W        W55635  16.402   1.975  11.942
90651W        W55636  43.332   4.959  12.932
90652W        W55637   8.753   0.710   1.248
90653W        W55638  40.316  33.211  12.531
90654W        W55639  38.485  27.219   0.706
90655W        W55640  26.488  22.824   0.477
90656W        W55641  25.601  13.178   2.131
90657W        W55642  21.213  24.910  12.210
90658W        W55643  23.263  15.030  14.978
90659W        W55644   1.482  20.634   3.044
90660W        W55645  20.485  24.950   0.329
90661W        W55646  32.519  25.119   3.847
90662W        W55647  15.615   1.265  13.461
90663W        W55648  23.192  29.373   0.891
90664W        W55649  14.607  12.263   4.703
90665W        W55650  35.033  44.512   4.113
90666W        W55651  31.155   9.246   2.427
90667W        W55652  21.999  41.463   4.307
90668W        W55653  30.473  42.907   4.634
90669W        W55654  32.812  27.155   0.270
90670W        W55655  30.008  32.479   0.925
90671W        W55656  13.065  35.059   0.673
90672W        W55657   1.215  30.142   4.132
90673W        W55658  41.012  15.930  10.059
90674W        W55659  28.040  43.186   4.676
90675W        W55660  34.164  35.521  11.408
90676W        W55661  34.510  32.228   3.179
90677W        W55662  15.391  34.001   2.917
90678W        W55663   1.107   1.121   5.170
90679W        W55664   3.332  42.878  13.627
90680W        W55665  33.029  34.894   1.131
90681W        W55666  33.330  36.179  12.498
90682W        W55667  29.207  28.694  11.716
90683W        W55668  20.132  26.679  14.662
90684W        W55669   2.350   3.289   2.790
90685W        W55670  22.981  19.221   4.553
90686W        W55671  25.439   3.041  10.736
90687W        W55672  28.183  37.805  11.172
90688W        W55673   3.257   5.336   2.108
90689W        W55674   0.385   7.346   1.272
90690W        W55675   2.987  30.389  10.725
90691W        W55676   5.347  11.896  13.501
90692W        W55677  20.788   9.863  10.658
90693W        W55678  26.010  28.421  13.580
90694W        W55679  44.327  21.784  12.914
90695W        W55680   4.373  26.178  13.926
90696W        W55681  13.841  42.979   1.990
90697W        W55682  16.311  33.833  14.824
90698W        W55683  15.584  35.567   4.678
90699W        W55684   8.137  40.777  12.109
90700W        W55685   5.271   1.324   0.191
90701W        W55686  33.402  40.548  13.828
90702W        W55687   0.757  23.628   4.696
90703W        W55688  18.855  28.111   3.793
90704W        W55689   5.500  10.729  14.396
90705W        W55690  42.513  41.546  12.456
90706W        W55691  27.688  38.849   0.923
90707W        W55692  25.579   3.223  12.979
90708W        W55693  24.211   5.314   1.522
90709W        W55694  44.950  17.683   9.788
90710W        W55695  36.269  29.921  12.144
90711W        W55696  21.122  17.785   1.487
90712W        W55697   4.623  20.469  11.132
90713W        W55698  30.003  18.013   1.257
90714W        W55699   7.309  28.044   4.590
90715W        W55700   8.134  41.531  13.463
90716W        W55701  22.958   4.813   3.396
90717W        W55702  28.504   6.415  10.665
90718W        W55703  44.304  16.021   3.227
90719W        W55704   3.384  44.168  12.358
90720W        W55705  13.772  44.461   2.399
90721W        W55706  14.282  13.852   0.804
90722W        W55707   0.730  21.625   1.911
90723W        W55708  25.666  42.803   2.787
90724W        W55709  15.221  32.442  11.836
90725W        W55710   6.217  41.198  10.811
90726W        W55711  44.858  33.521   1.436
90727W        W55712  43.836  28.176   3.970
90728W        W55713   3.649  39.054  10.049
90729W        W55714  43.491  39.335  11.348
90730W        W55715  14.608  23.094  14.440
90731W        W55716   0.466  18.773  10.530
90732W        W55717  30.003  15.561  14.747
90733W        W55718  42.820  26.566   1.291
90734W        W55719  41.019  27.088   0.394
90735W        W55720  18.105  25.585   2.229
90736W        W55721  23.204   7.283  12.933
90737W        W55722   0.479  25.234   2.545
90738W        W55723   6.203  36.823  12.611
90739W        W55724  29.964  30.225  14.015
90740W        W55725  24.160  14.983  14.921
90741W        W55726  21.549  29.074  10.801
90742W        W55727  28.478  41.608  11.546
90743W        W55728  33.816  27.942   0.284
90744W        W55729  13.927  29.426   0.301
90745W        W55730  39.803  32.397   3.663
90746W        W55731   5.415  16.544   0.322
90747W        W55732   4.310  24.885  12.412
90748W        W55733  31.584   5.345  12.160
90749W        W55734  10.808  26.461  11.095
90750W        W55735  33.236  29.135   0.314
90751W        W55736  34.426  17.777   1.205
90752W        W55737   2.470   9.125   4.994
90753W        W55738  20.487  27.101   1.866
90754W        W55739  32.533  15.006  12.478
90755W        W55740   2.497   6.395  14.650
90756W        W55741  20.249   9.459  14.385
90757W        W55742   3.907  10.196   0.904
90758W        W55743  12.759  42.118  14.306
90759W        W55744  16.074  21.604  13.211
90760W        W55745  35.970  43.877  12.018
90761W        W55746  42.642  33.305   4.001
90762W        W55747  34.842  26.190  12.449
90763W        W55748  35.496  14.363   0.950
90764W        W55749  24.854  26.607   0.831
90765W        W55750   5.904  21.350   0.319
90766W        W55751   0.702  22.541   1.981
90767W        W55752   2.140  15.873   4.158
90768W        W55753  41.222   5.785   0.320
90769W        W55754   3.146  13.200   3.815
90770W        W55755  19.214  24.668   1.449
90771W        W55756  10.429  11.409   3.945
90772W        W55757   6.379   7.030   0.165
90773W        W55758  13.318   9.930   2.828
90774W        W55759  13.893  17.215  13.024
90775W        W55760  41.209  22.648   0.798
90776W        W55761  19.763  34.535  12.036
90777W        W55762  30.844  20.680  13.644
90778W        W55763   2.169  16.056  14.258
90779W        W55764  42.952  42.813  14.712
90780W        W55765  14.184   0.738   2.186
90781W        W55766  23.507  35.475  11.693
90782W        W55767  36.759   1.876   5.233
90783W        W55768  32.665  12.233  13.810
90784W        W55769  11.061  18.581   0.782
90785W        W55770  24.986  11.758   1.882
90786W        W55771  36.985  35.398  14.178
90787W        W55772  16.818  23.505  12.971
90788W        W55773  24.244  33.358   3.176
90789W        W55774   9.118  10.638  12.981
90790W        W55775  27.690  28.810  10.976
90791W        W55776  39.298  38.496  12.659
90792W        W55777  12.813  37.058   0.466
90793W        W55778  44.597  18.519   1.489
90794W        W55779  40.962   7.700  12.471
90795W        W55780   1.875  29.724   3.611
90796W        W55781   5.616  39.616   0.461
90797W        W55782  32.366  13.701  14.993
90798W        W55783  13.574  10.181   1.194
90799W        W55784  22.591  39.384   3.718
90800W        W55785   2.694  32.570  13.983
90801W        W55786   1.862  24.709   4.586
90802W        W55787  38.563  37.967   2.917
90803W        W55788  26.615  29.836  12.600
90804W        W55789   4.489  37.298  11.294
90805W        W55790   7.438  26.119  14.274
90806W        W55791  33.678  14.643  14.319
90807W        W55792  35.095  20.435  11.989
90808W        W55793  42.272  16.447   3.695
90809W        W55794   1.255   5.847   0.689
90810W        W55795  44.551  31.054   3.330
90811W        W55796  35.478  35.320   1.808
90812W        W55797  15.145  21.076  12.341
90813W        W55798  12.211   2.603  14.929
90814W        W55799  15.647  44.577   3.695
90815W        W55800   0.978  23.262  13.949
90816W        W55801  16.782  43.452   1.281
90817W        W55802  42.492  26.501  14.821
90818W        W55803  10.422  11.119  10.324
90819W        W55804  28.140   8.707   4.705
90820W        W55805  23.083  31.611   4.775
90821W        W55806  20.239  44.805   0.966
90822W        W55807  43.449  42.105   2.388
90823W        W55808   7.707  30.429  11.909
90824W        W55809  35.592  20.721   2.597
90825W        W55810   1.727  20.243   2.629
90826W        W55811  36.368  27.520   1.736
90827W        W55812  25.043  23.632  14.359
90828W        W55813  44.484  17.125   1.044
90829W        W55814  20.673  19.017  12.030
90830W        W55815  25.867  23.264  14.867
90831W        W55816  22.243  44.442   3.122
90832W        W55817  15.373  27.000  14.098
90833W        W55818  23.483  18.994  10.469
90834W        W55819  29.159  22.630  14.865
90835W        W55820   9.069  41.846  12.449
90836W        W55821  15.687  29.261   3.970
90837W        W55822  36.305  27.057  10.566
90838W        W55823  31.703  31.395  13.140
90839W        W55824   4.197  31.054  11.922
90840W        W55825  14.482  44.409   0.442
90841W        W55826  27.702  10.173  11.615
90842W        W55827  43.980  25.357   1.978
90843W        W55828   5.431  18.139  10.265
90844W        W55829   6.930  36.091   1.310
90845W        W55830  13.112  20.845   2.355
90846W        W55831  35.432  14.263  14.887
90847W        W55832  42.554   1.193   1.177
90848W        W55833  17.238  22.144  12.486
90849W        W55834  43.379  17.541   2.778
90850W        W55835  37.794  28.054   2.364
90851W        W55836   8.033  21.090   0.517
90852W        W55837  27.533  17.854   2.765
90853W        W55838  11.355  27.090   3.281
90854W        W55839  27.546  12.925   1.344
90855W        W55840  39.817  44.138   1.265
90856W        W55841  38.870   5.907  13.958
90857W        W55842   4.502  38.293  13.084
90858W        W55843  33.415  41.920  13.436
90859W        W55844  41.553  29.154  14.403
90860W        W55845  17.692  20.050   0.038
90861W        W55846  12.177   1.890   0.191
90862W        W55847  34.376  13.413  10.693
90863W        W55848  21.562  32.155  13.002
90864W        W55849  28.969  37.509  14.068
90865W        W55850  16.671  34.034  12.064
90866W        W55851  37.850  22.249   2.682
90867W        W55852  14.832   8.940  12.437
90868W        W55853  18.260  19.024  13.868
90869W        W55854  26.781  22.118  10.513
90870W        W55855  40.688  11.152   0.134
90871W        W55856  30.635  17.184   3.405
90872W        W55857  13.616  43.645  11.623
90873W        W55858  44.775   9.889  13.339
90874W        W55859  12.642   0.992   0.805
90875W        W55860  29.120  19.721   0.913
90876W        W55861  28.371  39.956   3.257
90877W        W55862  39.107   1.481   3.441
90878W        W55863  33.470   5.695  14.677
90879W        W55864  36.803  25.768  11.010
90880W        W55865  36.716  42.782  13.569
90881W        W55866  12.206  30.654  13.219
90882W        W55867  37.846  18.295  12.402
90883W        W55868  38.403  28.221  13.404
90884W        W55869  43.861  32.591   4.461
90885W        W55870  23.007  25.269   2.900
90886W        W55871  17.127  26.215  12.959
90887W        W55872  17.811   0.222   1.067
90888W        W55873  43.431  42.011   3.781
90889W        W55874  14.121  39.217  11.193
90890W        W55875   7.871   5.780   0.680
90891W        W55876  43.974  18.628  10.468
90892W        W55877   8.622  34.119  13.000
90893W        W55878  12.934  17.300   3.693
90894W        W55879  23.583  32.550   3.148
90895W        W55880  21.686  27.540  12.361
90896W        W55881  25.007  26.592   3.708
90897W        W55882   8.999  28.551  11.137
90898W        W55883   2.169  33.481   4.135
90899W        W55884  17.689  38.553   0.704
90900W        W55885   0.248  24.703  13.838
90901W        W55886  12.767  33.430  11.548
90902W        W55887  14.699  43.361  12.982
90903W        W55888  35.890  26.642   3.572
90904W        W55889  17.084  32.086   3.343
90905W        W55890  43.432  24.549   1.601
90906W        W55891  27.732   2.920   2.748
90907W        W55892   8.762  35.927  13.561
90908W        W55893  19.353  32.010   2.626
90909W        W55894  32.174  36.871  11.906
90910W        W55895  17.371  32.085   2.897
90911W        W55896  34.410  22.706   2.876
90912W        W55897  31.949  12.110  14.876
90913W        W55898  25.691  39.355   4.136
90914W        W55899  37.346   9.948  11.788
90915W        W55900  31.686  31.106   0.520
90916W        W55901  43.021  32.975   3.230
90917W        W55902  15.227  13.236  14.781
90918W        W55903  39.356  18.928   4.287
90919W        W55904  24.684  44.981   1.453
90920W        W55905  37.575  23.717   0.369
90921W        W55906  34.453   7.011   0.376
90922W        W55907  33.524  44.954   3.160
90923W        W55908  12.134   0.395   4.823
90924W        W55909   6.600  32.824   3.763
90925W        W55910  19.973  27.053   0.826
90926W        W55911   4.336   5.299  11.862
90927W        W55912  12.033  24.224   1.817
90928W        W55913  39.610   1.381  13.777
90929W        W55914  14.071  17.199  14.397
90930W        W55915  39.014  32.002  13.840
90931W        W55916   8.305  21.943  13.036
90932W        W55917  29.000  19.979  14.876
90933W        W55918   9.312  30.684   1.330
90934W        W55919  14.236  18.695   0.604
90935W        W55920   5.300  11.227  12.314
90936W        W55921  24.435  13.182  14.825
90937W        W55922  21.600  33.499  12.651
90938W        W55923  30.786  26.719  12.667
90939W        W55924  35.727   1.428  11.720
90940W        W55925   2.282   9.353   3.702
90941W        W55926  25.547  24.716  13.076
90942W        W55927  35.369  44.281  14.120
90943W        W55928  18.115  31.756   2.642
90944W        W55929  27.068  21.269  12.487
90945W        W55930  37.082  15.134  12.928
90946W        W55931  25.003  11.838   3.223
90947W        W55932   3.177   3.961  10.471
90948W        W55933   7.665  11.356  14.373
90949W        W55934  22.334  25.919  12.999
90950W        W55935  40.549  11.253   5.113
90951W        W55936  30.817  20.513   4.991
90952W        W55937  37.847  32.925   2.015
90953W        W55938  27.797  27.230  12.586
90954W        W55939   0.580  33.703   2.447
90955W        W55940  10.194  14.555  12.986
90956W        W55941   3.176   0.438   4.420
90957W        W55942  33.367   7.495  11.525
90958W        W55943   0.279   7.688  12.939
90959W        W55944  17.695  30.958  13.015
90960W        W55945  29.144  18.138   0.846
90961W        W55946  29.638   6.382  14.298
90962W        W55947   9.378  29.437   3.114
90963W        W55948  39.131   5.018   4.742
90964W        W55949  26.509  26.516   1.414
90965W        W55950  23.222  20.617  12.334
90966W        W55951  36.930  23.776  11.245
90967W        W55952  18.540   3.767   3.631
90968W        W55953   9.360  19.041  11.955
90969W        W55954   6.289  44.929   3.159
90970W        W55955  27.112  37.477   3.614
90971W        W55956   1.208  17.725  11.146
90972W        W55957  43.270  26.016   3.052
90973W        W55958  44.204  11.829  14.826
90974W        W55959  29.196  35.925   3.233
90975W        W55960  34.058  40.468   4.378
90976W        W55961  31.577  30.355  13.376
90977W        W55962   6.677  27.889  11.699
90978W        W55963   0.386  30.710  13.052
90979W        W55964  18.283  13.838   3.131
90980W        W55965  21.696  29.359  14.528
90981W        W55966  25.597  44.674  13.535
90982W        W55967  32.549  30.608   0.378
90983W        W55968  31.060   7.275  11.642
90984W        W55969  33.846  35.500  13.747
90985W        W55970  37.470   2.054   4.292
90986W        W55971  25.648   0.237   5.188
90987W        W55972  24.208  37.826   4.485
90988W        W55973  37.928  37.654   2.197
90989W        W55974  43.345  30.540   0.304
90990W        W55975  24.577  35.908  12.474
90991W        W55976  41.964  41.584   1.156
90992W        W55977   3.054  33.326   2.335
90993W        W55978   8.365  13.780  11.578
90994W        W55979  28.735  41.853  14.565
90995W        W55980  29.439  33.969   0.296
90996W        W55981  18.083  14.158  11.088
90997W        W55982  43.846   4.223   0.932
90998W        W55983  37.340  41.904   1.940
90999W        W55984  22.433  32.417   2.183
91000W        W55985  20.507   3.218  12.503
91001W        W55986   5.257  26.464  13.456
91002W        W55987  26.987   9.973  13.984
91003W        W55988  36.017  38.875   0.968
91004W        W55989   3.986  19.296   3.566
91005W        W55990   7.067  11.281   0.482
91006W        W55991  39.520  19.257  11.513
91007W        W55992  23.587   2.902   4.712
91008W        W55993  31.673  18.574  14.122
91009W        W55994   5.688  27.454  12.888
91010W        W55995  36.388  29.459  10.915
91011W        W55996  44.933  30.984  11.528
91012W        W55997  44.955  23.332   4.251
91013W        W55998  28.421  25.431   3.176
91014W        W55999   3.276  16.342  11.996
91015W        W56000  30.731  31.432  10.447
91016W        W56001  19.989  41.259   3.849
91017W        W56002  33.819  41.832   3.692
91018W        W56003  32.507  23.184   0.938
91019W        W56004  30.519   1.338  12.901
91020W        W56005  36.445  20.412  14.277
91021W        W56006   7.844  16.143  13.558
91022W        W56007  16.142  34.162   4.635
91023W        W56008  24.671  40.004  11.885
91024W        W56009  15.873  40.215  14.890
91025W        W56010   9.609   1.317   0.870
91026W        W56011  24.458  28.010   1.879
91027W        W56012  40.161  14.662   0.287
91028W        W56013   7.197  13.676   0.416
91029W        W56014  15.666  17.805   0.274
91030W        W56015  31.190  36.779   2.653
91031W        W56016   2.388   3.274   0.910
91032W        W56017   4.960  17.919  10.230
91033W        W56018  15.082  11.530   0.366
91034W        W56019  43.930   4.890  11.797
91035W        W56020  40.335  41.285  10.661
91036W        W56021  18.725  39.148  10.831
91037W        W56022  37.960  18.426  11.899
91038W        W56023  15.977  26.493   1.798
91039W        W56024  42.885  34.656  11.713
91040W        W56025  27.581  20.700  12.792
91041W        W56026  16.029   4.575   4.720
91042W        W56027  31.189  28.203  10.713
91043W        W56028  41.580  37.167  14.858
91044W        W56029   7.321  16.320   1.914
91045W        W56030   4.478  15.063   2.208
91046W        W56031  20.610  13.862   1.195
91047W        W56032   8.612   6.998   2.286
91048W        W56033  37.497   8.252  12.598
91049W        W56034  17.960  21.784  12.567
91050W        W56035  22.841  13.100   2.815
91051W        W56036  42.292   0.287   3.167
91052W        W56037  25.610   4.387   1.797
91053W        W56038  37.503   8.649  12.155
91054W        W56039  33.510  18.003   1.856
91055W        W56040  14.244  12.037   0.242
91056W        W56041  27.684  25.038  11.542
91057W        W56042  35.214  40.331  11.635
91058W        W56043  30.874   5.451   4.854
91059W        W56044  14.964  38.462  13.746
91060W        W56045  14.144  29.949   2.720
91061W        W56046  43.712  12.679  14.525
91062W        W56047   4.293  17.513  13.384
91063W        W56048  40.025  14.588  11.810
91064W        W56049   5.916  22.870  14.459
91065W        W56050  20.617  41.833   3.539
91066W        W56051  22.535   2.252   3.094
91067W        W56052   4.207  35.944   3.699
91068W        W56053  34.516  30.782  13.053
91069W        W56054  28.508  18.150   4.134
91070W        W56055  18.068  16.509  11.029
91071W        W56056  16.016  40.264   4.026
91072W        W56057  39.604  32.308  13.381
91073W        W56058   5.776  24.089   3.849
91074W        W56059  33.669  44.668   3.598
91075W        W56060  29.521  34.679  12.908
91076W        W56061   1.759  15.903  13.948
91077W        W56062   1.294  42.038  10.820
91078W        W56063   1.345   4.966  13.190
91079W        W56064  36.006  26.039  14.387
91080W        W56065  39.767   1.721   3.570
91081W        W56066  44.966  42.804  14.286
91082W        W56067   9.306  23.487  13.868
91083W        W56068  27.835   5.142   2.316
91084W        W56069  40.318   2.341   4.193
91085W        W56070  43.059   5.656   3.199
91086W        W56071   5.043   5.498  13.883
91087W        W56072  42.048   8.780   3.469
91088W        W56073   4.462  32.948   2.148
91089W        W56074  28.016  31.112  14.948
91090W        W56075  41.327   9.395   4.925
91091W        W56076  44.025  11.655  13.455
91092W        W56077  18.308  11.902  14.055
91093W        W56078   5.975  18.248  11.178
91094W        W56079  30.981  36.748   0.835
91095W        W56080  44.983  35.393  12.363
91096W        W56081  31.114   7.150   2.253
91097W        W56082  32.790   2.192   3.601
91098W        W56083  35.002  36.351  11.934
91099W        W56084  13.920   7.401   0.924
91100W        W56085  43.444  39.423   3.244
91101W        W56086  39.956  28.573   2.092
91102W        W56087  37.742  19.679   5.014
91103W        W56088  28.528  37.767   1.345
91104W        W56089  40.484  33.413   1.330
91105W        W56090  31.645  36.748   2.429
91106W        W56091  37.785  28.319  11.169
91107W        W56092   7.301  43.528   1.756
91108W        W56093  12.924   0.783   2.679
91109W        W56094  18.140   3.303   3.219
91110W        W56095  43.101   3.787  10.322
91111W        W56096  14.718  13.825   3.735
91112W        W56097  25.230  22.246  11.327
91113W        W56098  16.698  42.024   3.076
91114W        W56099  19.191  10.728   3.860
91115W        W56100   5.760  36.605  12.925
91116W        W56101  20.456   0.790  13.034
91117W        W56102  30.399  17.670  14.704
91118W        W56103  35.953  43.479  12.997
91119W        W56104   3.639  24.640  11.148
91120W        W56105  27.505   1.996  10.827
91121W        W56106  24.053   9.765  10.915
91122W        W56107  40.957   9.421   4.512
91123W        W56108  14.145  22.766   0.873
91124W        W56109   7.212  39.677   4.590
91125W        W56110  17.000   1.850   0.815
91126W        W56111   0.985  11.606  13.056
91127W        W56112  38.440  18.055   0.033
91128W        W56113   2.882  29.739   2.814
91129W        W56114  24.523   2.528  10.339
91130W        W56115  15.094  16.742   1.730
91131W        W56116  12.366  40.419   3.825
91132W        W56117   0.907  22.679   0.482
91133W        W56118  36.018  38.850  11.366
91134W        W56119   1.891   5.980   1.422
91135W        W56120  23.571  34.994  11.412
91136W        W56121   1.901  22.029   0.541
91137W        W56122  24.983  44.674  14.667
91138W        W56123  14.759  15.290  13.828
91139W        W56124  35.596  28.930  14.452
91140W        W56125  37.785  18.289   2.320
91141W        W56126  21.254   9.068   3.104
91142W        W56127   3.757   1.471   4.108
91143W        W56128  23.229   1.272   4.724
91144W        W56129  18.683  21.706  14.398
91145W        W56130   6.179  43.741   0.938
91146W        W56131  29.489  30.428   5.046
91147W        W56132   1.295  32.324  14.911
91148W        W56133  15.551   9.324   4.779
91149W        W56134   9.182  36.032   0.478
91150W        W56135  44.362   0.007   3.208
91151W        W56136  43.568  25.556  11.506
91152W        W56137  22.601  37.044   3.824
91153W        W56138  15.842  31.705  11.782
91154W        W56139  15.958   2.751   4.097
91155W        W56140  33.428  11.616  11.548
91156W        W56141   6.178  34.580   0.729
91157W        W56142  31.809   3.182  14.185
91158W        W56143  37.896  17.328   0.476
91159W        W56144   6.977   7.813  12.450
91160W        W56145  33.565  28.883   4.029
91161W        W56146  36.498  24.235  10.404
91162W        W56147   8.720  43.420  12.796
91163W        W56148  40.802  23.059   2.337
91164W        W56149  27.840  13.418   1.243
91165W        W56150  15.215  34.086   4.443
91166W        W56151  13.489  32.326  12.800
91167W        W56152  20.879  15.678  12.165
91168W        W56153  42.440  15.799  12.418
91169W        W56154   2.499   0.022  11.055
91170W        W56155  38.936   1.297   2.374
91171W        W56156  41.257   1.155   0.869
91172W        W56157   7.362   3.864   1.161
91173W        W56158  17.002  21.517   2.829
91174W        W56159  26.723  44.833   2.857
91175W        W56160  16.999  36.471  14.858
91176W        W56161   9.119  36.566   4.565
91177W        W56162  13.888  38.081   3.582
91178W        W56163  36.151  29.606   0.489
91179W        W56164  10.734   4.758  14.546
91180W        W56165  29.324  12.559   3.205
91181W        W56166  32.668   3.152  14.132
91182W        W56167  14.884  31.081   3.138
91183W        W56168  24.384  22.728   3.433
91184W        W56169   8.341  33.711   4.984
91185W        W56170  15.439   7.850  11.057
91186W        W56171   3.974  30.681   4.104
91187W        W56172  38.013   0.385   1.810
91188W        W56173  12.227  35.140   3.199
91189W        W56174   8.463  27.181  11.212
91190W        W56175  34.899  32.623  14.051
91191W        W56176  10.790  26.203  12.406
91192W        W56177  27.745  13.125  14.874
91193W        W56178  13.778   3.932   1.796
91194W        W56179  24.232  26.917   5.099
91195W        W56180  24.531  35.100  13.002
91196W        W56181  34.903  30.741  14.226
91197W        W56182  17.300  28.934   1.734
91198W        W56183  44.468  44.231   0.384
91199W        W56184  13.228   4.422   0.903
91200W        W56185  22.514   8.452  11.711
91201W        W56186  11.024  20.320  11.730
91202W        W56187   6.672  16.690   1.420
91203W        W56188  34.015   5.366  12.678
91204W        W56189  24.143  13.098   2.446
91205W        W56190  42.735  34.479   3.212
91206W        W56191  29.189  35.094  11.157
91207W        W56192   4.770  29.045  12.569
91208W        W56193   4.843  15.087  13.741
91209W        W56194  21.990   8.742   1.293
91210W        W56195  12.932  34.587   2.344
91211W        W56196  41.592  32.328   0.646
91212W        W56197  23.564  15.383  13.174
91213W        W56198  31.893  36.478   1.703
91214W        W56199  43.573  11.229  12.108
91215W        W56200  35.572  29.394  14.182
91216W        W56201  30.150  32.975  14.770
91217W        W56202  34.185  40.815   1.929
91218W        W56203  39.693  33.361   3.750
91219W        W56204  17.146  43.818   2.308
91220W        W56205  10.253  25.466   4.019
91221W        W56206  34.834  10.917  10.820
91222W        W56207  17.248  24.026  10.282
91223W        W56208  12.893  16.592  10.816
91224W        W56209  31.319  31.644   1.687
91225W        W56210  17.617  43.259   3.890
91226W        W56211   7.008  35.330   2.823
91227W        W56212   7.116  43.677  13.747
91228W        W56213  24.484   0.426  14.613
91229W        W56214  32.221  13.251   5.273
91230W        W56215  24.101  23.476  12.108
91231W        W56216   6.222  34.375  14.737
91232W        W56217   4.799  19.774   9.811
91233W        W56218   4.964  27.879  10.979
91234W        W56219  27.667  44.462  12.146
91235W        W56220  18.126   9.816   1.330
91236W        W56221  34.261   4.709   0.416
91237W        W56222   0.204   3.821  11.725
91238W        W56223   7.859  38.300  13.976
91239W        W56224  41.543  29.948   0.365
91240W        W56225  34.540  30.021  12.511
91241W        W56226  17.208  33.842   2.841
91242W        W56227  25.591  23.417  11.986
91243W        W56228  36.827   9.211  13.917
91244W        W56229  12.869  30.096   3.147
91245W        W56230  10.204  30.405   0.402
91246W        W56231  11.963  37.679   0.434
91247W        W56232   7.163  44.024   2.831
91248W        W56233  10.756  33.194  12.407
91249W        W56234  32.229   0.176  11.142
91250W        W56235  13.611  18.982  12.517
91251W        W56236   1.969  43.360   3.037
91252W        W56237  28.649  41.683   1.231
91253W        W56238  11.212  23.154  11.192
91254W        W56239  27.239  40.889  13.049
91255W        W56240  21.012  10.474   4.264
91256W        W56241  21.955  14.790  10.673
91257W        W56242   7.669  14.019  11.107
91258W        W56243  14.277   0.456  13.492
91259W        W56244   0.500  23.488   3.950
91260W        W56245  21.437   6.737  14.503
91261W        W56246  31.120  27.232   3.128
91262W        W56247  17.295   3.829   4.158
91263W        W56248  21.057   5.827   4.630
91264W        W56249  22.537  41.833  12.480
91265W        W56250  11.660   2.430   4.358
91266W        W56251  35.545   4.207   0.422
91267W        W56252  37.406  29.164   4.806
91268W        W56253  15.225  26.579   4.742
91269W        W56254   7.934   3.808  12.101
91270W        W56255  18.627   2.270   1.923
91271W        W56256  23.673  12.379  11.115
91272W        W56257   3.031  39.794   1.389
91273W        W56258  29.064  21.212   2.789
91274W        W56259   1.264   5.090  11.126
91275W        W56260  28.293  23.100  14.782
91276W        W56261  33.229  23.521  12.418
91277W        W56262  26.220  40.036  13.227
91278W        W56263  28.516  27.709   0.974
91279W        W56264  21.620  35.435   2.171
91280W        W56265  36.415  10.932  14.924
91281W        W56266  38.995  24.305  11.776
91282W        W56267  32.661  43.089  11.083
91283W        W56268   6.308  14.818  14.569
91284W        W56269  16.128   4.001   1.198
91285W        W56270  25.088   0.885   2.508
91286W        W56271  24.636  36.081   1.439
91287W        W56272  42.963  18.533   1.508
91288W        W56273  39.325  31.780  14.381
91289W        W56274  39.363  23.090   4.034
91290W        W56275  10.770  39.669  13.115
91291W        W56276   9.199  29.408   1.598
91292W        W56277  34.634  35.485   1.649
91293W        W56278   5.223   5.307   0.942
91294W        W56279  41.966  11.137  12.887
91295W        W56280   1.682  34.105  12.585
91296W        W56281   6.404  10.244   1.421
91297W        W56282  29.214  24.480  11.117
91298W        W56283   8.141  33.550   3.315
91299W        W56284  44.467  40.028  12.617
91300W        W56285  21.991  28.207   0.790
91301W        W56286  37.822  30.192  14.962
91302W        W56287  32.969  34.664   3.294
91303W        W56288  22.623  41.558  13.876
91304W        W56289  20.824   1.067   0.824
91305W        W56290  32.646  16.068   1.315
91306W        W56291  27.220   0.453  10.081
91307W        W56292  30.875  35.947   0.333
91308W        W56293  20.731  29.468  12.038
91309W        W56294   3.637  44.643   9.831
91310W        W56295  19.741  20.209   2.678
91311W        W56296  19.295  40.338  14.833
91312W        W56297   2.364  33.587   0.553
91313W        W56298  31.469  22.708  13.556
91314W        W56299  44.703   2.747   0.052
91315W        W56300  12.873  39.846  10.717
91316W        W56301  34.038  12.812   3.969
91317W        W56302  37.396   0.207  14.833
91318W        W56303   1.356  22.745  11.846
91319W        W56304   7.654  28.361   0.394
91320W        W56305  23.268   5.093   1.154
91321W        W56306  33.548  27.429   0.701
91322W        W56307  33.374  34.588  10.767
91323W        W56308   0.813  13.325  11.526
91324W        W56309   4.866  18.518   5.089
91325W        W56310  10.715  39.949  10.428
91326W        W56311   2.660  30.963  11.971
91327W        W56312  28.168  33.920   2.139
91328W        W56313  21.612   0.481  13.993
91329W        W56314  39.097   2.712  13.959
91330W        W56315  37.957  30.319  13.187
91331W        W56316   6.466   3.397   4.102
91332W        W56317  15.645  32.918   4.839
91333W        W56318  40.924   4.364  14.054
91334W        W56319   4.968   9.033   4.762
91335W        W56320  39.859  15.087   0.284
91336W        W56321  24.410  21.682   2.292
91337W        W56322  31.878  37.814   4.476
91338W        W56323  44.711  36.254   1.564
91339W        W56324   8.839  11.327   1.176
91340W        W56325   7.651  36.389  14.816
91341W        W56326   7.601  36.128  11.568
91342W        W56327  36.664  21.277   5.083
91343W        W56328  11.651  30.389   2.043
91344W        W56329   9.867  29.162   2.148
91345W        W56330  14.861  17.949   4.592
91346W        W56331  43.325  33.453   0.226
91347W        W56332   0.834  31.372   2.094
91348W        W56333  44.230   3.819   4.378
91349W        W56334  29.502  23.635   4.580
91350W        W56335  32.639  18.931   3.117
91351W        W56336  11.633   5.357   5.015
91352W        W56337  35.310  44.350  11.413
91353W        W56338   0.467  23.408  13.789
91354W        W56339   1.603  18.866   3.333
91355W        W56340  35.013  42.111  12.674
91356W        W56341  21.991  10.955  12.863
91357W        W56342  13.050   6.414   4.192
91358W        W56343  32.536  16.090  14.821
91359W        W56344  39.930  35.850  13.974
91360W        W56345  19.445  44.509  11.870
91361W        W56346  16.633   9.821  14.861
91362W        W56347  26.442  13.244   0.835
91363W        W56348  31.138   3.723   4.106
91364W        W56349  27.422  29.484  14.411
91365W        W56350   4.063  33.682  10.221
91366W        W56351  29.198  43.193  14.958
91367W        W56352  21.072  19.187  12.982
91368W        W56353  36.381  12.639  12.196
91369W        W56354  27.462   3.332  13.313
91370W        W56355  26.972   6.610   1.963
91371W        W56356  18.069  28.989  12.904
91372W        W56357  19.044  40.819   2.012
91373W        W56358  40.345  37.066   1.354
91374W        W56359  31.534  18.937  14.486
91375W        W56360   4.113   1.675  13.598
91376W        W56361  13.108   6.862   4.478
91377W        W56362   4.712  32.146   3.084
91378W        W56363  25.594  44.914  11.547
91379W        W56364  10.974  17.354  13.722
91380W        W56365  18.590  22.065  12.062
91381W        W56366  23.200  21.251  10.450
91382W        W56367  23.087  44.270  10.663
91383W        W56368   3.471  13.776  12.863
91384W        W56369  41.230  31.607  13.919
91385W        W56370  39.260   5.256  12.495
91386W        W56371   0.239  31.013  11.106
91387W        W56372  27.893   9.831   0.351
91388W        W56373   5.636   9.116   3.780
91389W        W56374  30.930  39.633  11.296
91390W        W56375   8.011   5.797  12.958
91391W        W56376  19.889  23.729  13.806
91392W        W56377   9.380  34.825   0.872
91393W        W56378  25.826  32.021   1.193
91394W        W56379   2.265   9.286  10.657
91395W        W56380  10.672   1.904  10.256
91396W        W56381  16.271   3.406   0.980
91397W        W56382  32.905  34.511   3.836
91398W        W56383  32.435  17.560   4.168
91399W        W56384  27.624  14.189  13.439
91400W        W56385   8.744  43.262   3.881
91401W        W56386   7.363  40.594  13.350
91402W        W56387  23.404  14.620   0.230
91403W        W56388  22.843  25.900  14.876
91404W        W56389   6.126  27.737   1.348
91405W        W56390   8.137   8.834   1.370
91406W        W56391  38.541  10.328   1.992
91407W        W56392   7.841  38.551   4.038
91408W        W56393  41.341  24.695  14.470
91409W        W56394   8.596  43.718  12.361
91410W        W56395  31.108  41.791   3.158
91411W        W56396  27.226   5.773  11.952
91412W        W56397  30.866  40.434  12.798
91413W        W56398   2.389  25.665   0.946
91414W        W56399   5.770  25.288  14.528
91415W        W56400  40.478  44.533  14.299
91416W        W56401  40.911  43.376  14.695
91417W        W56402  29.595  25.421   4.890
91418W        W56403  25.240   4.287   3.209
91419W        W56404  29.845  28.164  11.977
91420W        W56405  21.457  25.164  13.159
91421W        W56406   5.007  33.101   2.860
91422W        W56407  43.713  34.566   4.981
91423W        W56408  19.329   1.166   3.587
91424W        W56409  12.290   9.140  11.471
91425W        W56410   0.607   1.542  12.148
91426W        W56411  20.665  13.005   0.008
91427W        W56412  41.557  14.089  13.418
91428W        W56413   4.451   6.662  14.760
91429W        W56414  41.821   6.600  13.038
91430W        W56415  27.770  39.527   4.548
91431W        W56416   6.751  30.680  12.940
91432W        W56417  20.594  34.570   3.712
91433W        W56418  17.088   3.102   5.439
91434W        W56419  29.060  41.028  11.586
91435W        W56420  15.614  29.270  11.229
91436W        W56421   3.415   8.676  10.660
91437W        W56422  34.072  39.851  11.257
91438W        W56423  44.015  42.722  11.525
91439W        W56424  22.501  19.275   0.262
91440W        W56425  21.450  36.803  14.473
91441W        W56426   7.042  25.508  11.517
91442W        W56427  12.636  31.507   0.552
91443W        W56428  39.866  39.288   2.200
91444W        W56429  44.457  43.593  12.585
91445W        W56430  41.050   4.572  12.950
91446W        W56431  31.686  36.745  14.466
91447W        W56432  40.276   2.297   1.747
91448W        W56433   6.456   3.707  10.321
91449W        W56434   5.424   8.661  13.324
91450W        W56435  39.622  21.116  14.608
91451W        W56436  14.571  29.627  13.887
91452W        W56437  19.519  10.100  13.372
91453W        W56438  21.664  42.021  11.511
91454W        W56439   8.280  37.166   4.174
91455W        W56440   2.420  14.117   5.173
91456W        W56441  37.608   5.320  11.208
91457W        W56442  39.787  15.950  13.344
91458W        W56443  28.220  18.241   4.852
91459W        W56444  40.824   4.818   4.412
91460W        W56445  12.387  11.042  13.065
91461W        W56446  41.058  32.495  12.523
91462W        W56447  33.667  29.801  11.941
91463W        W56448   4.668  20.280   2.835
91464W        W56449   4.208   6.321   4.273
91465W        W56450  32.629   7.049   2.184
91466W        W56451  22.515  16.254   3.737
91467W        W56452   2.153   8.316  13.702
91468W        W56453  14.427  24.810   3.582
91469W        W56454  12.129   2.280   2.366
91470W        W56455   6.339  42.455   0.716
91471W        W56456  18.646   1.699  14.820
91472W        W56457  42.291  15.281   0.645
91473W        W56458   8.018  38.956  14.991
91474W        W56459  19.687  44.429   3.624
91475W        W56460  40.348   5.899  13.031
91476W        W56461  41.361  19.252   3.261
91477W        W56462  40.905  25.016   3.997
91478W        W56463  12.333  18.988  13.344
91479W        W56464  19.164   9.281   4.317
91480W        W56465  39.073  31.536  12.387
91481W        W56466  35.487  39.439   2.390
91482W        W56467   8.599   9.831   4.126
91483W        W56468   9.872  33.188  14.137
91484W        W56469  41.909   9.307   2.648
91485W        W56470   0.826  40.628  11.262
91486W        W56471  32.051  12.862   2.422
91487W        W56472   1.103   7.352  13.890
91488W        W56473   8.204   5.886   1.405
91489W        W56474  19.589  24.573  14.769
91490W        W56475  38.475  21.094   0.454
91491W        W56476  36.153  15.852  11.057
91492W        W56477  15.770  12.295   1.166
91493W        W56478   5.762   9.814   4.062
91494W        W56479   8.203  20.060   0.803
91495W        W56480  21.615  14.321   4.843
91496W        W56481  30.114  33.481   3.349
91497W        W56482   8.042   7.313   2.777
91498W        W56483  36.601  26.993  12.732
91499W        W56484  16.577   0.884   2.276
91500W        W56485   8.633   9.248  13.845
91501W        W56486  26.975  27.411   1.677
91502W        W56487  43.494  28.647   3.227
91503W        W56488  16.659  19.239   5.558
91504W        W56489  39.414  12.086  12.053
91505W        W56490  37.891  43.527   1.388
91506W        W56491   9.000   3.148  13.992
91507W        W56492  32.330  35.561  14.050
91508W        W56493  34.841  15.357   2.808
91509W        W56494  36.506  39.778  11.544
91510W        W56495  12.690   0.367  14.929
91511W        W56496   2.841  17.385   4.801
91512W        W56497  39.968  21.731  14.628
91513W        W56498  39.502  40.524   0.607
91514W        W56499  19.687  14.681   2.558
91515W        W56500  37.735  11.951   1.052
91516W        W56501  17.144  34.930  13.073
91517W        W56502  32.734  15.893  12.713
91518W        W56503  11.439  12.182  10.805
91519W        W56504   9.154   0.775  14.250
91520W        W56505  21.741  39.475   4.345
91521W        W56506  40.581   1.315   3.675
91522W        W56507  32.120  40.726  12.494
91523W        W56508  14.029  24.834  13.355
91524W        W56509  15.674  28.827   0.753
91525W        W56510  13.663  23.411   2.855
91526W        W56511  16.572  39.324  11.638
91527W        W56512  31.500  20.556  13.125
91528W        W56513  44.707  34.450   4.117
91529W        W56514  31.833  12.634  14.855
91530W        W56515  26.506   3.260  13.441
91531W        W56516  20.264   7.362   3.624
91532W        W56517  33.015   8.375   1.737
91533W        W56518  25.207  39.524  13.145
91534W        W56519  13.653  37.018  11.863
91535W        W56520  44.390  39.923  10.606
91536W        W56521  17.197  31.222   0.591
91537W        W56522   0.923  33.947   0.272
91538W        W56523   7.686  30.351  11.100
91539W        W56524   5.852   0.803  11.697
91540W        W56525  40.434  25.909  12.997
91541W        W56526  42.185  14.421   1.227
91542W        W56527   4.387   0.687   2.644
91543W        W56528  12.172  14.544  12.577
91544W        W56529   2.871   0.042   3.708
91545W        W56530  21.070  39.330  12.381
91546W        W56531  21.462  16.157  14.759
91547W        W56532  31.143   8.406   2.766
91548W        W56533  12.051   3.216   4.530
91549W        W56534  30.592   2.735  13.833
91550W        W56535  19.787  44.325   2.628
91551W        W56536  42.965  39.676  11.564
91552W        W56537  10.171  37.943  11.651
91553W        W56538  21.476  17.821   1.873
91554W        W56539  36.335  35.037   4.622
91555W        W56540  11.997  15.433  12.594
91556W        W56541  22.328  21.407   4.982
91557W        W56542  27.914   4.728  14.899
91558W        W56543  40.256  14.010   2.374
91559W        W56544  39.619  22.592   1.200
91560W        W56545  31.589  17.351   0.300
91561W        W56546  29.945  13.712   1.834
91562W        W56547  26.161   2.865  13.571
91563W        W56548   3.316  29.664   3.777
91564W        W56549  12.586  36.963   2.436
91565W        W56550  37.931  34.468  11.217
91566W        W56551  17.362   6.450  11.675
91567W        W56552  33.710  35.463  13.229
91568W        W56553  11.353  17.835  12.616
91569W        W56554  36.562  18.653  11.025
91570W        W56555  15.578  44.705   0.633
91571W        W56556   7.014  42.601  12.389
91572W        W56557  30.017  27.904   3.129
91573W        W56558  20.713  25.030   3.757
91574W        W56559  38.022  22.363  14.819
91575W        W56560  31.570  34.994   1.727
91576W        W56561  19.736   6.197  11.046
91577W        W56562   9.817  36.804   2.183
91578W        W56563  25.487  37.760  10.416
91579W        W56564  29.459   5.420   4.007
91580W        W56565  43.655  38.458  11.225
91581W        W56566   6.762  42.753  10.551
91582W        W56567   6.392  41.062   2.415
91583W        W56568  18.587  15.754  13.956
91584W        W56569   0.774  30.489   4.534
91585W        W56570  23.773  34.627   0.815
91586W        W56571  12.335   5.682  11.380
91587W        W56572  34.014  36.905  14.033
91588W        W56573  16.580  24.616   3.100
91589W        W56574  14.557  24.238  12.917
91590W        W56575   6.291  15.680   4.701
91591W        W56576  35.351  10.636  13.154
91592W        W56577   6.198  36.029   3.770
91593W        W56578  14.089  13.238  11.627
91594W        W56579  17.195  36.377  14.395
91595W        W56580   1.849  42.764  10.641
91596W        W56581  36.533  39.957   1.708
91597W        W56582  18.669   4.178  13.329
91598W        W56583  24.081  28.582   2.581
91599W        W56584  19.547  14.788   0.263
91600W        W56585   5.311  44.824  10.624
91601W        W56586  22.779   4.438   0.784
91602W        W56587  42.917  39.832  11.055
91603W        W56588  10.246  42.959  13.285
91604W        W56589   0.983  38.065   3.862
91605W        W56590  32.915  27.672   0.061
91606W        W56591  34.090   6.097  14.031
91607W        W56592  37.307  25.615  11.768
91608W        W56593  24.129   4.182   2.275
91609W        W56594  22.291  21.550  14.518
91610W        W56595  24.225  35.095  10.699
91611W        W56596  33.930  16.487   4.664
91612W        W56597  27.403   0.052  11.161
91613W        W56598   9.990  26.016  11.623
91614W        W56599   3.409   7.230  10.325
91615W        W56600  41.199  13.268  12.176
91616W        W56601   3.898   2.479   1.413
91617W        W56602  32.106  24.124   0.987
91618W        W56603  16.200  25.727  12.166
91619W        W56604  43.901  44.368   3.749
91620W        W56605   4.348  42.804  11.885
91621W        W56606   6.283  26.227   2.596
91622W        W56607   1.911  40.563   3.160
91623W        W56608  17.732  17.722  14.711
91624W        W56609  40.560  15.837   1.905
91625W        W56610   3.298   7.407  14.388
91626W        W56611  15.565  29.657   0.200
91627W        W56612  34.700   7.629  11.022
91628W        W56613  27.946  17.165   1.185
91629W        W56614   7.165  32.187  14.149
91630W        W56615   9.333  11.731  12.908
91631W        W56616  26.621  35.169  12.463
91632W        W56617   4.651  23.549   1.542
91633W        W56618  11.625  35.738  10.806
91634W        W56619   4.541   9.779  10.825
91635W        W56620   7.312  29.407  13.019
91636W        W56621  32.584   2.460   2.670
91637W        W56622  39.841  13.389  12.081
91638W        W56623  38.064  23.592   3.720
91639W        W56624  25.037  16.625   1.683
91640W        W56625  18.261  16.476  14.617
91641W        W56626   8.805  22.106   1.932
91642W        W56627   2.945  12.426   0.989
91643W        W56628  11.341   6.037  12.716
91644W        W56629  26.478   1.959   2.108
91645W        W56630  15.463  24.969  10.182
91646W        W56631   8.966  29.195  13.445
91647W        W56632  36.785  33.581  11.000
91648W        W56633  28.679  25.842   0.135
91649W        W56634  25.379  10.752   3.297
91650W        W56635   5.722  26.698  10.734
91651W        W56636  16.684   9.852  13.847
91652W        W56637  24.825  30.913   0.836
91653W        W56638  30.234  12.418  12.589
91654W        W56639  35.210  23.456  10.236
91655W        W56640   9.209  23.159   0.124
91656W        W56641   4.645   7.901  12.288
91657W        W56642  28.627   0.441   4.628
91658W        W56643  21.128  40.435  14.572
91659W        W56644  17.251  26.708   1.499
91660W        W56645   0.015  16.001   4.725
91661W        W56646  41.924  25.253   1.149
91662W        W56647   6.231   3.890   1.746
91663W        W56648  21.918  13.768  10.754
91664W        W56649  23.552  39.540   4.629
91665W        W56650   3.525  25.698  12.576
91666W        W56651  39.473  43.972  11.129
91667W        W56652   7.113  37.402   2.704
91668W        W56653  40.891  10.158   3.744
91669W        W56654  21.312  40.963  11.589
91670W        W56655  34.617  11.199   1.621
91671W        W56656  38.616  40.887  14.722
91672W        W56657  12.123   9.789  10.964
91673W        W56658   5.753  43.817   2.725
91674W        W56659   6.724  26.962   2.398
91675W        W56660  13.970   8.738  14.052
91676W        W56661  24.155  43.583  13.422
91677W        W56662  32.129  22.390  12.863
91678W        W56663  35.027  15.025   1.013
91679W        W56664  26.479  18.024  14.497
91680W        W56665   6.208  20.634  14.968
91681W        W56666  29.415  30.141  11.494
91682W        W56667  17.168  11.948   3.662
91683W        W56668  37.293  36.423   2.391
91684W        W56669   8.287  42.106  14.731
91685W        W56670  22.176  23.387  14.458
91686W        W56671  40.373  41.985  12.640
91687W        W56672  21.946  40.966   1.273
91688W        W56673  34.611  24.351  13.261
91689W        W56674  24.682  41.330  11.151
91690W        W56675  43.391   5.200  10.726
91691W        W56676  44.958  37.040  14.288
91692W        W56677  37.979  24.942  14.410
91693W        W56678   8.166   2.792   1.826
91694W        W56679  31.279  17.535  13.086
91695W        W56680  32.389   1.996   3.870
91696W        W56681  39.122  41.367   3.997
91697W        W56682  37.087  33.471   1.857
91698W        W56683  38.879  33.053   1.732
91699W        W56684  14.424   5.425   2.849
91700W        W56685  36.828  32.519   4.512
91701W        W56686   3.244   1.820  10.854
91702W        W56687   7.146  22.740   2.845
91703W        W56688  10.155   8.725   1.197
91704W        W56689   4.971  20.110  10.201
91705W        W56690  15.837  16.102   1.015
91706W        W56691  11.407  19.480  11.868
91707W        W56692   4.388  12.426  13.763
91708W        W56693   7.495  42.840  11.057
91709W        W56694  29.780  27.149   4.862
91710W        W56695  28.011  11.464  13.901
91711W        W56696  33.886  18.777   4.325
91712W        W56697  36.683  24.669   2.788
91713W        W56698  22.477   4.832  13.364
91714W        W56699  29.922   6.563  10.551
91715W        W56700   1.057  35.087  10.852
91716W        W56701  11.931  25.402   0.170
91717W        W56702  21.575  32.404   0.386
91718W        W56703  10.442  29.455   2.636
91719W        W56704  33.507  12.521   2.289
91720W        W56705  20.221  42.249  14.843
91721W        W56706  15.639  20.696   4.787
91722W        W56707   1.388  28.619   1.674
91723W        W56708  19.078   3.802  12.632
91724W        W56709  28.025  15.101   4.225
91725W        W56710  17.701  23.309  12.951
91726W        W56711   0.965   9.516   2.324
91727W        W56712  19.147   2.236   0.285
91728W        W56713  26.485  43.759   0.750
91729W        W56714  44.224   1.098  13.360
91730W        W56715   4.291  16.033   4.312
91731W        W56716   1.497  13.235   1.884
91732W        W56717  17.575  17.860   2.258
91733W        W56718  38.837  26.030   2.227
91734W        W56719  27.452   6.923  10.609
91735W        W56720  10.596   8.295   2.383
91736W        W56721  35.618  16.322  11.661
91737W        W56722  18.782  34.001   0.951
91738W        W56723  24.291  28.649  10.908
91739W        W56724  26.872  41.293   2.447
91740W        W56725  36.223  42.805   0.810
91741W        W56726  14.096   3.364  13.984
91742W        W56727  40.022   6.925   4.070
91743W        W56728  41.950  30.578  10.409
91744W        W56729  21.966   8.843  14.521
91745W        W56730  23.769  12.885  11.085
91746W        W56731  42.847  40.321  13.708
91747W        W56732   8.288  39.291   2.658
91748W        W56733   5.158   4.161  12.478
91749W        W56734  38.349  41.770   4.197
91750W        W56735   2.423  36.055  11.561
91751W        W56736  26.615   3.909  10.725
91752W        W56737   4.319  28.337  10.686
91753W        W56738  31.476  32.007   4.647
91754W        W56739   3.526  21.872  11.305
91755W        W56740  44.825  17.672   0.894
91756W        W56741   3.705   0.339   3.650
91757W        W56742  17.216  22.755  10.499
91758W        W56743  13.621   7.840   3.174
91759W        W56744  27.694   6.918  11.581
91760W        W56745   8.278  40.969  14.546
91761W        W56746  25.240  18.209   1.719
91762W        W56747  18.739  16.676   0.485
91763W        W56748  25.464  31.678  14.193
91764W        W56749  44.781   3.191   0.299
91765W        W56750  31.981  42.341  13.795
91766W        W56751   0.376  23.557   0.061
91767W        W56752   9.740   7.252  11.434
91768W        W56753  27.063  17.378   2.705
91769W        W56754   8.348  18.563  11.265
91770W        W56755   6.493   8.711  11.458
91771W        W56756  20.162  19.369  12.911
91772W        W56757   0.166  31.089   2.905
91773W        W56758  36.820  42.545   4.204
91774W        W56759  35.462  15.180   0.225
91775W        W56760  14.005  14.650   2.385
91776W        W56761   5.330  30.956   1.576
91777W        W56762  20.243  38.880  14.447
91778W        W56763  33.996  24.862   2.820
91779W        W56764   3.112  24.606  11.101
91780W        W56765  26.973  35.548  12.516
91781W        W56766   3.405  41.016   0.330
91782W        W56767  16.923  37.489  11.574
91783W        W56768  11.848   8.698   2.706
91784W        W56769  13.584  31.427   0.257
91785W        W56770  38.118  40.804  10.881
91786W        W56771   5.394   5.699  12.556
91787W        W56772   1.319  19.049  10.753
91788W        W56773  23.095   1.901  13.896
91789W        W56774  20.491  40.037   1.444
91790W        W56775  40.988  44.846  11.597
91791W        W56776   0.196  29.438   0.082
91792W        W56777  39.289  34.395   9.967
91793W        W56778  36.628  17.985  12.260
91794W        W56779  10.414  33.340   2.181
91795W        W56780  11.205  13.312  12.087
91796W        W56781  20.974   9.256  14.866
91797W        W56782  28.244  32.953  10.886
91798W        W56783   3.781  33.875   3.127
91799W        W56784  24.733  12.918  10.754
91800W        W56785  14.805  37.665  11.461
91801W        W56786  22.470  14.577   1.261
91802W        W56787   0.388  42.517  10.720
91803W        W56788   8.364  25.030   0.369
91804W        W56789  22.854  25.062  10.215
91805W        W56790  40.166  38.801   3.813
91806W        W56791   0.444   0.896   2.485
91807W        W56792  15.731  13.147  14.825
91808W        W56793   9.862  24.777  11.612
91809W        W56794   6.443  32.098  11.743
91810W        W56795  23.538   3.356   2.167
91811W        W56796  13.850  41.361   0.784
91812W        W56797  11.870   5.879  12.953
91813W        W56798  32.606  22.327  14.337
91814W        W56799  13.223   1.598  10.625
91815W        W56800  35.633  14.784   2.998
91816W        W56801   2.324  13.157  12.392
91817W        W56802   3.769   1.913   0.401
91818W        W56803  16.754  21.098  11.073
91819W        W56804  21.845  16.614   4.942
91820W        W56805  32.328   5.004  14.631
91821W        W56806   4.880  22.165  14.062
91822W        W56807  29.918  29.142  13.441
91823W        W56808  33.183   7.721  13.531
91824W        W56809  15.772  17.902   2.172
91825W        W56810  39.242  13.465   4.220
91826W        W56811  38.907  30.576  10.784
91827W        W56812   0.372  14.904   1.394
91828W        W56813   0.899  25.963  12.590
91829W        W56814  42.236  10.818  11.179
91830W        W56815  41.027  16.688   2.425
91831W        W56816  31.092  23.525  10.969
91832W        W56817  26.422   3.870   1.848
91833W        W56818  21.724   4.633   3.796
91834W        W56819  24.025  24.806   0.829
91835W        W56820  17.234  43.835   0.377
91836W        W56821   0.792  19.100  11.371
91837W        W56822   2.491  13.304  10.745
91838W        W56823  34.423  14.696   3.197
91839W        W56824  31.858  40.315   2.740
91840W        W56825  26.528  42.426   4.565
91841W        W56826  14.087  15.576   2.305
91842W        W56827   0.714  31.553  12.873
91843W        W56828  41.295  14.620  14.487
91844W        W56829  12.347  37.846   0.746
91845W        W56830  15.641  37.324   2.560
91846W        W56831  36.348  42.627   4.553
91847W        W56832   5.584  28.915  10.589
91848W        W56833   1.967   1.741  13.492
91849W        W56834  14.373  38.062   3.773
91850W        W56835  21.623  37.351   3.260
91851W        W56836  38.826  31.491   3.661
91852W        W56837  35.952  41.754  12.573
91853W        W56838  44.454   3.324   2.669
91854W        W56839  13.342  31.518   2.111
91855W        W56840   0.810  23.356   3.313
91856W        W56841  21.721  22.373  10.092
91857W        W56842  19.156  18.072   4.722
91858W        W56843   3.911  11.239   4.646
91859W        W56844  30.118  12.748  12.211
91860W        W56845  23.148  16.013  14.884
91861W        W56846  41.530   2.378  14.380
91862W        W56847  44.919  16.808  11.092
91863W        W56848  31.926   4.725   0.416
91864W        W56849   5.372  20.250  13.368
91865W        W56850  42.009   5.299  11.555
91866W        W56851  35.390  42.830  11.964
91867W        W56852  25.099  14.609  11.251
91868W        W56853  15.300   3.349   5.370
91869W        W56854  24.022  12.510   1.822
91870W        W56855  27.070  43.561  10.780
91871W        W56856  33.287  30.860  13.814
91872W        W56857   8.283  11.988   0.675
91873W        W56858  25.431  27.997   0.883
91874W        W56859  17.739   3.924   0.477
91875W        W56860  25.301  11.839  13.103
91876W        W56861  20.623  43.196   2.941
91877W        W56862  28.052   0.430   0.866
91878W        W56863  25.090   5.627   0.116
91879W        W56864  23.108  31.948  13.614
91880W        W56865  42.497  42.374   3.149
91881W        W56866  15.211  28.404  14.451
91882W        W56867  44.722  14.511  12.946
91883W        W56868  40.397  31.895  11.221
91884W        W56869  27.203  14.499   0.359
91885W        W56870  20.805   4.913   4.547
91886W        W56871  35.431  34.455  11.621
91887W        W56872   7.166  14.100  11.104
91888W        W56873  27.184  44.873   1.437
91889W        W56874  24.093   9.121  14.005
91890W        W56875  18.373  14.732   0.739
91891W        W56876   6.373  35.403  10.688
91892W        W56877  19.100  19.145   3.058
91893W        W56878  28.630  15.232  12.258
91894W        W56879  37.547  42.013  11.143
91895W        W56880  32.377   4.015   2.699
91896W        W56881  11.364  23.207  10.712
91897W        W56882  29.497  29.134   3.979
91898W        W56883  33.399   5.552   5.099
91899W        W56884   7.947  12.331   0.328
91900W        W56885  17.810  18.728   5.768
91901W        W56886  40.294  13.100  12.109
91902W        W56887  40.810  20.659  14.572
91903W        W56888   4.050  24.590   4.784
91904W        W56889  15.948  43.883   5.137
91905W        W56890   4.254  26.615   4.120
91906W        W56891   0.040   0.218   0.313
91907W        W56892  11.915  25.955  12.442
91908W        W56893  21.978  17.739   3.662
91909W        W56894  36.821  29.657   0.504
91910W        W56895  33.409  23.775   1.374
91911W        W56896  12.551  38.930   4.497
91912W        W56897  32.449   2.678   0.668
91913W        W56898  43.169  41.474  14.920
91914W        W56899  15.321  20.206   3.336
91915W        W56900  24.976  10.625  11.842
91916W        W56901   0.889  21.124   0.986
91917W        W56902  34.685  13.439  11.659
91918W        W56903  20.088  20.086   3.213
91919W        W56904  11.778   8.435  11.593
91920W        W56905  20.718  39.067  14.512
91921W        W56906  41.108  32.116   2.212
91922W        W56907  41.819  23.234   2.203
91923W        W56908  38.037   5.674   0.468
91924W        W56909  17.348  24.951   3.739
91925W        W56910  30.551  41.768   1.273
91926W        W56911  10.819  28.846   2.298
91927W        W56912  39.442  40.136  12.016
91928W        W56913  14.322  35.461  12.601
91929W        W56914   6.314   1.033  11.605
91930W        W56915  33.195  24.623   0.329
91931W        W56916  22.372  23.849   5.057
91932W        W56917   9.268  25.629   1.367
91933W        W56918  39.785  15.750   3.657
91934W        W56919  20.518   0.144   0.673
91935W        W56920  42.912   8.433  13.930
91936W        W56921  43.485   9.743  13.331
91937W        W56922   3.438  20.349   0.503
91938W        W56923  40.429  41.539  14.010
91939W        W56924  25.352  24.779  14.705
91940W        W56925  11.237  30.418   0.294
91941W        W56926  42.278  11.845   0.422
91942W        W56927  24.017  18.230  11.601
91943W        W56928   0.070  13.144  11.231
91944W        W56929   8.919  31.094   3.447
91945W        W56930  16.780  15.360  11.631
91946W        W56931  36.930  39.342   2.204
91947W        W56932  35.442  34.008  12.533
91948W        W56933   8.251  25.496  12.563
91949W        W56934  20.210  26.498   4.547
91950W        W56935  20.709   5.408  13.958
91951W        W56936  24.594  29.131  10.950
91952W        W56937   8.915  28.144  12.557
91953W        W56938  19.781  17.585  11.676
91954W        W56939  18.210  33.947   4.298
91955W        W56940   1.949  10.812   3.857
91956W        W56941  14.625  27.067  13.351
91957W        W56942  28.528  34.994   4.539
91958W        W56943  23.506  23.976  10.775
91959W        W56944   3.946   7.203   1.947
91960W        W56945   8.695  43.825   4.065
91961W        W56946   4.841   2.371  12.653
91962W        W56947  42.896  17.358  14.817
91963W        W56948  26.748   9.986  13.501
91964W        W56949   1.782   9.437   3.665
91965W        W56950  33.430  25.134  10.771
91966W        W56951   8.397  35.809   1.221
91967W        W56952  43.260  43.048  12.557
91968W        W56953   9.414  25.135   1.391
91969W        W56954  42.197  21.581   4.137
91970W        W56955   8.305  10.592  11.046
91971W        W56956  40.251  36.808   2.344
91972W        W56957  31.464   2.280   0.257
91973W        W56958  28.625  10.796  13.795
91974W        W56959  34.433  18.124  13.007
91975W        W56960  32.215  35.395  12.941
91976W        W56961   4.074  17.168   3.548
91977W        W56962   1.983  17.269   1.258
91978W        W56963  16.568  23.331  14.418
91979W        W56964  25.229   5.261   3.186
91980W        W56965  34.970  13.712  11.331
91981W        W56966  12.584  11.630   2.818
91982W        W56967  30.895  38.983  11.108
91983W        W56968  18.999  32.089  10.675
91984W        W56969  15.158  31.189   4.348
91985W        W56970  36.939  36.808   4.252
91986W        W56971  39.389   3.470   3.120
91987W        W56972  19.622  27.035   2.778
91988W        W56973  15.798  12.373  12.002
91989W        W56974  38.066  15.579  14.837
91990W        W56975   4.233   8.282  10.609
91991W        W56976  11.085  30.865   0.052
91992W        W56977   8.992  28.734   3.025
91993W        W56978  27.292   4.343   3.332
91994W        W56979  15.645  19.137   2.690
91995W        W56980  22.406   1.150  12.081
91996W        W56981  38.869  15.252  14.400
91997W        W56982  41.967  24.141  11.228
91998W        W56983  30.866  18.417   3.287
91999W        W56984   1.956  42.588  14.267
92000W        W56985  37.812  23.175  13.790
92001W        W56986  13.622  14.016  13.349
92002W        W56987  25.753  26.431   5.027
92003W        W56988  18.557  22.674  13.480
92004W        W56989  32.335  15.693   5.011
92005W        W56990   0.347  42.262   3.646
92006W        W56991  18.758   3.830  14.974
92007W        W56992   3.472   7.719  13.962
92008W        W56993  23.061  20.351   2.325
92009W        W56994   3.355  28.103   3.748
92010W        W56995  42.398  12.797  11.267
92011W        W56996  12.661  28.161   3.103
92012W        W56997  18.244  35.570   0.269
92013W        W56998   4.377  36.808   0.764
92014W        W56999   9.892  10.131  14.040
92015W        W57000  15.668  25.638  10.988
92016W        W57001  20.528  22.117  11.966
92017W        W57002  36.054  23.654   4.192
92018W        W57003  37.133  14.749  13.520
92019W        W57004   3.791  36.375   0.884
92020W        W57005  30.885  14.176  13.408
92021W        W57006   3.490   9.269  13.844
92022W        W57007  35.462  30.129   4.322
92023W        W57008  15.112  25.186   9.851
92024W        W57009  17.338   2.964  11.657
92025W        W57010  23.443  18.544   2.644
92026W        W57011   6.890  32.457  14.491
92027W        W57012  23.222   2.152  12.544
92028W        W57013  44.034  34.979  13.123
92029W        W57014   4.009  22.541  10.394
92030W        W57015  37.141  31.505   3.731
92031W        W57016  35.378  20.241   2.724
92032W        W57017  17.661   9.976  12.468
92033W        W57018  30.859  35.984  11.642
92034W        W57019  23.560  40.785   0.821
92035W        W57020  22.931  31.235  11.291
92036W        W57021  35.883  36.072  11.247
92037W        W57022  18.273  34.344   2.248
92038W        W57023   6.390  40.305   0.013
92039W        W57024  40.337   9.243  14.616
92040W        W57025  19.573   0.184  12.715
92041W        W57026  40.294  20.201  11.002
92042W        W57027  28.062  42.768   1.599
92043W        W57028  22.711  34.090  14.453
92044W        W57029   7.173  18.703  11.107
92045W        W57030  13.132  44.794   4.009
92046W        W57031  32.944  34.380   4.329
92047W        W57032  40.318  30.054   3.616
92048W        W57033  27.362   0.330   2.178
92049W        W57034  14.309  22.177  11.364
92050W        W57035  12.670  22.633   3.800
92051W        W57036  29.578  19.598  14.940
92052W        W57037  16.254  34.956  12.072
92053W        W57038  28.412  29.253   1.421
92054W        W57039  26.028   3.746   4.047
92055W        W57040  35.655  37.098   0.489
92056W        W57041  22.212  23.550  13.023
92057W        W57042  43.425  30.924   2.841
92058W        W57043   5.753  29.532   3.698
92059W        W57044   0.048  43.507   0.491
92060W        W57045  26.076  37.185   4.505
92061W        W57046   2.785  31.064  13.830
92062W        W57047  17.107   3.185   0.406
92063W        W57048   4.883  18.571  11.611
92064W        W57049  38.115   2.667  14.864
92065W        W57050  35.045   6.403  10.790
92066W        W57051  23.731  28.496   0.781
92067W        W57052   3.392  34.451  13.452
92068W        W57053  44.348   6.980  10.593
92069W        W57054  35.969  26.388  13.498
92070W        W57055  21.548  40.370  14.892
92071W        W57056   4.854  14.722   4.913
92072W        W57057  14.702  38.515  10.397
92073W        W57058  22.808  32.523   4.528
92074W        W57059   9.455  37.582   4.225
92075W        W57060  13.189  38.867  13.835
92076W        W57061  30.922  23.077   3.046
92077W        W57062  38.915  10.628   2.794
92078W        W57063  43.072  14.013  14.907
92079W        W57064  28.609  30.199  10.751
92080W        W57065  26.048  24.223  14.525
92081W        W57066  41.836   6.825   0.382
92082W        W57067  38.192   8.404   1.954
92083W        W57068   8.740  34.825   4.174
92084W        W57069   5.305  33.692  12.367
92085W        W57070  27.067  25.708   0.448
92086W        W57071   1.849   2.934   4.743
92087W        W57072  31.911  33.384  14.497
92088W        W57073  25.604  38.010  11.726
92089W        W57074  34.697  40.001  10.570
92090W        W57075  33.567  29.158   2.671
92091W        W57076  11.614  26.968   0.211
92092W        W57077  44.014   3.936  13.709
92093W        W57078  11.616  35.212   0.648
92094W        W57079  42.718   2.957   4.789
92095W        W57080  19.640  11.421  12.967
92096W        W57081   2.205  41.587   0.377
92097W        W57082  29.191  31.931  13.265
92098W        W57083   8.230  20.598   2.324
92099W        W57084  12.088  28.888  13.528
92100W        W57085  28.652   9.596   2.899
92101W        W57086   1.446   2.755  11.142
92102W        W57087  35.657  21.652   2.375
92103W        W57088  19.738   7.022  12.317
92104W        W57089  18.253  31.254   2.724
92105W        W57090  27.248  41.744   3.682
92106W        W57091  40.345  37.697   0.053
92107W        W57092   3.652  41.755   3.273
92108W        W57093  40.984  24.914  11.736
92109W        W57094  32.296  24.562  11.329
92110W        W57095   1.250  37.439  11.604
92111W        W57096  27.221  23.926  14.329
92112W        W57097  15.355   1.253   3.353
92113W        W57098   1.291   7.377  14.810
92114W        W57099  39.559   7.646  13.371
92115W        W57100   9.631  19.726   0.803
92116W        W57101  26.628  26.079  13.511
92117W        W57102  40.303  30.704  13.427
92118W        W57103  14.670   4.343  12.026
92119W        W57104  30.926  37.589  11.236
92120W        W57105  10.520  36.354  14.709
92121W        W57106  24.005  34.490   4.068
92122W        W57107  27.309  29.524  12.006
92123W        W57108   0.937  14.333   1.141
92124W        W57109   0.209  40.944   4.108
92125W        W57110  23.122  44.657   2.433
92126W        W57111   1.503  28.300   0.339
92127W        W57112  19.544  14.726  14.420
92128W        W57113   0.720   0.869   1.647
92129W        W57114   7.211  23.259   2.710
92130W        W57115  25.621  20.122   2.919
92131W        W57116  13.714  19.087   3.580
92132W        W57117   4.017   3.000   1.338
92133W        W57118  17.233  42.967   2.810
92134W        W57119  31.071  40.558   2.461
92135W        W57120   8.876  13.081   3.188
92136W        W57121  25.106   9.580  13.959
92137W        W57122  20.020  43.430   0.414
92138W        W57123  37.004   8.881  13.413
92139W        W57124   5.495  18.371  11.198
92140W        W57125  20.129  31.862  12.044
92141W        W57126  21.585  26.584   1.304
92142W        W57127  43.197  28.468  13.432
92143W        W57128  26.393  20.664  14.355
92144W        W57129  41.407   5.697   4.085
92145W        W57130  31.656  34.392  13.377
92146W        W57131  22.345  14.135   0.864
92147W        W57132  24.559  12.253   0.974
92148W        W57133  19.155  37.363  13.583
92149W        W57134   4.880  19.663  14.790
92150W        W57135  16.205  18.531  11.101
92151W        W57136   2.751  33.538  14.271
92152W        W57137  15.146  27.137   0.327
92153W        W57138  23.458   4.273   0.072
92154W        W57139  15.275  37.366  14.399
92155W        W57140   2.037  21.281   1.746
92156W        W57141  44.054  43.850  13.879
92157W        W57142   6.784  35.708   1.619
92158W        W57143  14.110  10.381   2.942
92159W        W57144  27.196  23.421  14.281
92160W        W57145  17.878  34.306   4.098
92161W        W57146  32.665  23.811  14.139
92162W        W57147   4.751  34.309  10.752
92163W        W57148  38.162  13.218  11.248
92164W        W57149  39.380  17.829  14.362
92165W        W57150  11.191  21.169   0.012
92166W        W57151   0.225  32.419  12.965
92167W        W57152  40.275   4.433  10.676
92168W        W57153  33.621  44.378  13.940
92169W        W57154  33.392  32.880   1.477
92170W        W57155   9.866  16.586  11.864
92171W        W57156  25.166  31.048  14.774
92172W        W57157  42.571  25.670   1.898
92173W        W57158  13.623  36.086  10.604
92174W        W57159   1.459  31.316  13.404
92175W        W57160  17.869  16.128  12.407
92176W        W57161   2.975  37.529  13.053
92177W        W57162  43.828  41.697  11.578
92178W        W57163  24.056  42.528  14.882
92179W        W57164  37.818  43.523   4.681
92180W        W57165  26.204   7.622  12.046
92181W        W57166  12.773  17.305   0.811
92182W        W57167  28.245  25.979  11.008
92183W        W57168  29.066  11.679   3.383
92184W        W57169  43.344   4.861   0.496
92185W        W57170  27.684  20.725  13.958
92186W        W57171  29.882  40.394  11.628
92187W        W57172   2.808   8.976  11.317
92188W        W57173  31.303  28.742   0.979
92189W        W57174   6.235  32.820  13.575
92190W        W57175  34.682  35.965   2.768
92191W        W57176  25.420  44.876  14.899
92192W        W57177  29.532  43.779   3.720
92193W        W57178  39.244  32.159   3.232
92194W        W57179  31.657  43.813   0.335
92195W        W57180  26.173  19.434  13.383
92196W        W57181  12.870  34.520  10.793
92197W        W57182  30.118  16.207   4.582
92198W        W57183  25.755   6.294   3.352
92199W        W57184  16.025  15.310   0.521
92200W        W57185  42.568   4.590   4.888
92201W        W57186  12.746  41.581   0.234
92202W        W57187  41.214  37.072  13.532
92203W        W57188  11.085  23.033   0.294
92204W        W57189  26.304   5.248   1.272
92205W        W57190  44.930   1.830  14.587
92206W        W57191  24.343  22.444  14.426
92207W        W57192  33.189  26.941  11.234
92208W        W57193  16.216  35.058  13.472
92209W        W57194  16.684  20.964   4.008
92210W        W57195  35.084  39.069   4.531
92211W        W57196  18.529  41.088   0.242
92212W        W57197   8.396   9.628   1.625
92213W        W57198  23.501  17.613  11.620
92214W        W57199   1.287  27.160  11.087
92215W        W57200   0.375  10.469  13.904
92216W        W57201  41.515  37.051   5.152
92217W        W57202   1.903  23.723  12.483
92218W        W57203   6.215  25.054   0.806
92219W        W57204  15.023  23.993  10.721
92220W        W57205  27.299  20.071   4.432
92221W        W57206  34.139  44.877   0.907
92222W        W57207   0.534   4.776  10.132
92223W        W57208   8.737   9.389   3.797
92224W        W57209  31.531  17.141   3.335
92225W        W57210   6.313  15.540   4.182
92226W        W57211  18.300  10.707  12.738
92227W        W57212  16.401  31.023  13.959
92228W        W57213  14.328  40.928   3.224
92229W        W57214  14.784  36.858   4.518
92230W        W57215  37.381  12.827   1.947
92231W        W57216  14.085  42.796  10.683
92232W        W57217   1.435   4.479  12.983
92233W        W57218  24.053  41.762  12.481
92234W        W57219  28.115  17.986  14.853
92235W        W57220  24.058  19.036   2.884
92236W        W57221   3.248   0.721  12.287
92237W        W57222  20.368  36.323  11.387
92238W        W57223  25.242  17.189   4.421
92239W        W57224  22.365  31.925   3.885
92240W        W57225  34.096   0.446   0.299
92241W        W57226   9.391  10.814   3.160
92242W        W57227  26.073  10.701  12.057
92243W        W57228  37.259  32.513   0.389
92244W        W57229  16.622   2.397   4.331
92245W        W57230  43.072  44.992   3.599
92246W        W57231  21.275   2.917   4.565
92247W        W57232  21.262  21.808   2.677
92248W        W57233   3.024   4.798  13.825
92249W        W57234   8.439  23.099   3.386
92250W        W57235  14.905  14.556  14.484
92251W        W57236  15.995  38.488   4.148
92252W        W57237  26.148   2.862   2.846
92253W        W57238  40.549   2.402  12.279
92254W        W57239  34.707  29.857  11.987
92255W        W57240  16.774   6.200  14.511
92256W        W57241   0.471   2.752  12.492
92257W        W57242  18.465  35.080   4.727
92258W        W57243  29.718  32.095   4.418
92259W        W57244  40.364  23.699  11.559
92260W        W57245  44.719  43.411  14.286
92261W        W57246  32.701  37.382  11.689
92262W        W57247  43.093  12.644   2.000
92263W        W57248  20.835  33.079  14.372
92264W        W57249   8.273  36.348   1.942
92265W        W57250  37.437  37.860  10.323
92266W        W57251  43.657  12.806  13.143
92267W        W57252  36.526  12.121  13.363
92268W        W57253   8.296   6.961   4.993
92269W        W57254   3.423  19.195   0.727
92270W        W57255  24.472  26.536  14.994
92271W        W57256  29.831  30.114  14.539
92272W        W57257  18.085  13.730  13.961
92273W        W57258  24.971  29.971  11.995
92274W        W57259  18.653  10.432  11.063
92275W        W57260  31.450  21.222  10.986
92276W        W57261  23.952  23.822   1.752
92277W        W57262  36.409  34.579  10.717
92278W        W57263   7.843  35.059   3.734
92279W        W57264   2.237  33.661  13.635
92280W        W57265  38.903  22.667  10.922
92281W        W57266   0.937  17.603  12.375
92282W        W57267  39.262  23.525  10.877
92283W        W57268   5.417   0.047   2.696
92284W        W57269  32.986  39.276   1.270
92285W        W57270  35.620  23.141  10.395
92286W        W57271  32.209  19.316  14.008
92287W        W57272  10.688  43.850  13.372
92288W        W57273  18.655  36.859   4.194
92289W        W57274  30.343  11.329   4.239
92290W        W57275  44.083  16.906  11.485
92291W        W57276  25.702   5.120   3.959
92292W        W57277   6.507  39.176  14.020
92293W        W57278  41.814  14.139   0.499
92294W        W57279  21.705  30.300   2.607
92295W        W57280   8.078   9.315  10.614
92296W        W57281  14.734  26.411  13.148
92297W        W57282  22.570  15.692   5.403
92298W        W57283  13.028  12.147  13.998
92299W        W57284  34.795  16.159  12.466
92300W        W57285  13.302   6.165   3.813
92301W        W57286  42.419   5.106   4.930
92302W        W57287  23.095  35.507   3.972
92303W        W57288   3.496  29.942   0.829
92304W        W57289  38.332  14.715   2.816
92305W        W57290  22.740  35.377  12.953
92306W        W57291  27.992   7.371   2.601
92307W        W57292  40.063   7.569   1.290
92308W        W57293  31.929   2.551   2.342
92309W        W57294  25.447   0.596   2.081
92310W        W57295  17.727   5.499   1.309
92311W        W57296  14.948  26.954  14.373
92312W        W57297  20.782  13.276  13.884
92313W        W57298   0.198  35.344   3.528
92314W        W57299  29.948  19.756  10.393
92315W        W57300  31.336  43.386   4.184
92316W        W57301  15.459  16.292  11.651
92317W        W57302  27.589  36.966  11.557
92318W        W57303  26.990  41.833   2.394
92319W        W57304  41.318  37.532   3.523
92320W        W57305  28.019  24.796  10.663
92321W        W57306   4.739   4.930   4.143
92322W        W57307  34.200  44.872  14.491
92323W        W57308  27.926  32.871   4.168
92324W        W57309  21.532  27.511   0.476
92325W        W57310   1.249  29.104   0.963
92326W        W57311  14.538   1.298   3.312
92327W        W57312  32.505  37.106   4.464
92328W        W57313  30.244   7.512  10.978
92329W        W57314  31.684   7.769  10.335
92330W        W57315   8.424   8.168  11.649
92331W        W57316  26.542  29.173   3.285
92332W        W57317  37.864  20.581   2.087
92333W        W57318  15.122   1.877  11.348
92334W        W57319   8.512   4.765  13.451
92335W        W57320  44.890  23.693   0.181
92336W        W57321  37.208  24.089   3.618
92337W        W57322  36.776  30.269  11.626
92338W        W57323  36.839  30.017  12.966
92339W        W57324  25.675  14.153  11.827
92340W        W57325  31.574  36.985  14.924
92341W        W57326  12.650   7.330  11.453
92342W        W57327   9.574   1.376  11.558
92343W        W57328   1.518   5.048  11.560
92344W        W57329  30.974  33.424   9.888
92345W        W57330   1.270  19.596  11.641
92346W        W57331  37.844  25.520   4.160
92347W        W57332   2.923  20.978  14.266
92348W        W57333  37.612  16.116   3.205
92349W        W57334  11.144  34.523  14.804
92350W        W57335  17.710  37.410  14.294
92351W        W57336  16.815  33.006  14.070
92352W        W57337  13.765  38.928  14.522
92353W        W57338  28.608  40.429   1.507
92354W        W57339  39.348  18.309  14.567
92355W        W57340  12.131  15.587   3.369
92356W        W57341  14.834  32.796  13.418
92357W        W57342  35.457  39.940  11.070
92358W        W57343  26.123  40.226  11.276
92359W        W57344  23.530   3.906  10.152
92360W        W57345   1.540  38.024   0.517
92361W        W57346  20.293  20.871   3.497
92362W        W57347  12.871  31.573   1.426
92363W        W57348   7.838  37.350  12.089
92364W        W57349  27.518   2.000  13.214
92365W        W57350  18.071  18.568  14.783
92366W        W57351   8.907   6.236  11.599
92367W        W57352   3.767  26.138  10.730
92368W        W57353   8.916  20.135  14.761
92369W        W57354  38.269  24.545   1.201
92370W        W57355  21.932  16.591   1.749
92371W        W57356   2.827  32.032   3.739
92372W        W57357   1.858   8.824   2.862
92373W        W57358  20.575  18.231   3.607
92374W        W57359  10.941   5.285   1.334
92375W        W57360  44.518  32.318  12.540
92376W        W57361  32.595  25.409   0.294
92377W        W57362  17.964  24.288  12.922
92378W        W57363  29.612  41.609  10.661
92379W        W57364  20.599  31.864  12.663
92380W        W57365  23.707  16.026  14.212
92381W        W57366   4.854   1.163  10.758
92382W        W57367   8.152   1.335  11.406
92383W        W57368  20.275  38.346  10.768
92384W        W57369  19.046  23.079  10.971
92385W        W57370  40.085   7.184   2.844
92386W        W57371  27.813  41.611  12.683
92387W        W57372  13.551   3.019   0.088
92388W        W57373  21.340  10.497  12.161
92389W        W57374  15.008  21.120   0.341
92390W        W57375   3.505  32.592   2.609
92391W        W57376  41.364  30.212  11.077
92392W        W57377  25.672  20.658  12.172
92393W        W57378  13.614  33.201  13.293
92394W        W57379   3.836   3.856   3.701
92395W        W57380  11.187   2.508   4.820
92396W        W57381   8.360  42.150   3.386
92397W        W57382  36.085  21.702   2.731
92398W        W57383   2.228  28.090  10.579
92399W        W57384  44.478  30.123   0.394
92400W        W57385  13.715  12.234  10.678
92401W        W57386  41.444   3.907   3.199
92402W        W57387  31.444  40.145  11.240
92403W        W57388  40.796  27.523  14.418
92404W        W57389  16.087  25.112  10.993
92405W        W57390  23.980  27.969   4.336
92406W        W57391  28.429  31.370  14.391
92407W        W57392  34.794  33.373   3.746
92408W        W57393  39.077  32.652   3.243
92409W        W57394  24.193  41.479  11.200
92410W        W57395  20.440  30.021  13.755
92411W        W57396  32.039  20.117  10.666
92412W        W57397  29.601  35.829  10.161
92413W        W57398   8.012   1.598  11.826
92414W        W57399   8.850  29.679   2.214
92415W        W57400   3.012  34.495  13.100
92416W        W57401  18.158  37.573   4.057
92417W        W57402  24.050  32.276   2.358
92418W        W57403   3.244  37.277  14.848
92419W        W57404  34.894  37.006  12.916
92420W        W57405  18.327  30.192   2.752
92421W        W57406  18.014  39.858   3.634
92422W        W57407  16.669  33.848  10.714
92423W        W57408  39.770  15.050   4.098
92424W        W57409  34.864  25.125   4.656
92425W        W57410   4.845  37.576   2.230
92426W        W57411  30.907  32.934  12.405
92427W        W57412   9.324  17.374   0.939
92428W        W57413  28.185  31.634  12.427
92429W        W57414  13.674   9.605  12.125
92430W        W57415   1.428  25.060   3.871
92431W        W57416  31.476  30.559  12.916
92432W        W57417  11.564  17.520  11.628
92433W        W57418  25.136  19.657  11.707
92434W        W57419  20.231   3.062   3.821
92435W        W57420  37.237  39.266   3.158
92436W        W57421  36.579  10.388   1.795
92437W        W57422  29.680   5.100   0.881
92438W        W57423  38.596  36.214   0.393
92439W        W57424  12.428  43.923  12.915
92440W        W57425  35.681  11.410   4.170
92441W        W57426  19.178   5.898   0.958
92442W        W57427   0.231  17.784  11.170
92443W        W57428   5.442  20.624  11.483
92444W        W57429   8.871  42.611   2.504
92445W        W57430  31.110   3.065  12.144
92446W        W57431  41.520   0.220   0.864
92447W        W57432  16.121   8.426   1.438
92448W        W57433  43.128  36.839  11.570
92449W        W57434  31.287  40.909  10.537
92450W        W57435  11.104  35.491  11.642
92451W        W57436   0.805  26.119  14.366
92452W        W57437  42.387  10.282   4.095
92453W        W57438  15.255   6.397  13.539
92454W        W57439  43.265  32.460  11.179
92455W        W57440   2.076   1.887  14.833
92456W        W57441  40.970  29.391   3.597
92457W        W57442  34.928   9.048   2.184
92458W        W57443  10.901   8.821  10.546
92459W        W57444   8.635  26.948  11.639
92460W        W57445  31.508  43.530  12.451
92461W        W57446  25.098  37.611   2.905
92462W        W57447  24.555   4.278  11.016
92463W        W57448  37.484  14.112  13.073
92464W        W57449  20.159  36.400   2.896
92465W        W57450  15.830  38.538   0.418
92466W        W57451  40.786  25.191   0.697
92467W        W57452  19.499  32.412  11.162
92468W        W57453   8.847  13.647   2.419
92469W        W57454  10.796  37.469   1.341
92470W        W57455  27.525  38.994   2.393
92471W        W57456  36.583  26.386  14.309
92472W        W57457   6.135  13.305   0.976
92473W        W57458   9.938  23.047  11.979
92474W        W57459   9.918  20.245   3.090
92475W        W57460   1.133  29.631  12.248
92476W        W57461  40.474  38.731   1.077
92477W        W57462  20.484   4.272   1.386
92478W        W57463  14.737  31.912   4.712
92479W        W57464   9.010  33.887  14.920
92480W        W57465  11.679   1.414  11.446
92481W        W57466  29.180   1.719  14.855
92482W        W57467   6.704  25.095  13.492
92483W        W57468  19.104   9.898  12.473
92484W        W57469  35.693  35.538  13.451
92485W        W57470  23.088  29.092   0.104
92486W        W57471  14.576  37.201  11.523
92487W        W57472  11.120  32.790  14.974
92488W        W57473  40.779  40.440   4.142
92489W        W57474  28.420  42.722   1.201
92490W        W57475  14.006  32.058   3.365
92491W        W57476   6.131   3.183  11.162
92492W        W57477  41.402  36.774   3.044
92493W        W57478   4.797  18.632   1.575
92494W        W57479   9.912  36.993   2.674
92495W        W57480  37.938  36.920  11.710
92496W        W57481  15.801  44.553   2.833
92497W        W57482   9.403  35.075  12.970
92498W        W57483  15.676  18.288  10.425
92499W        W57484  11.921   8.658   4.992
92500W        W57485   2.112  37.903  11.642
92501W        W57486  22.469  18.524   4.622
92502W        W57487  37.223  36.062   3.732
92503W        W57488  23.681  13.439  11.674
92504W        W57489  42.306  17.064   2.308
92505W        W57490  14.323  12.713  10.794
92506W        W57491  21.485  11.733  14.318
92507W        W57492  18.390  26.773  13.008
92508W        W57493  16.249  31.146   3.103
92509W        W57494  11.794  33.577   4.458
92510W        W57495  44.859  10.164   4.549
92511W        W57496  14.789  22.201   4.238
92512W        W57497  36.860  30.905   2.643
92513W        W57498   5.690  32.405  14.425
92514W        W57499  40.633  39.623   5.028
92515W        W57500   4.665  36.381  12.564
92516W        W57501  13.153  30.491   2.211
92517W        W57502  34.643  19.710   0.839
92518W        W57503  13.865  19.144   2.647
92519W        W57504  33.363  12.580  10.565
92520W        W57505   1.927  32.897   0.291
92521W        W57506  44.645   1.245  10.247
92522W        W57507  37.238   4.893   2.286
92523W        W57508   4.315  26.254  14.865
92524W        W57509  16.619  23.175  14.949
92525W        W57510  17.743  29.755  11.658
92526W        W57511  33.027  23.258  14.857
92527W        W57512   6.861   5.714  12.607
92528W        W57513  36.830  27.420  12.542
92529W        W57514  25.201  13.018  13.543
92530W        W57515   5.552   6.204  10.101
92531W        W57516  25.163  39.965   0.474
92532W        W57517   9.877  44.289   1.135
92533W        W57518  44.334  32.453  10.919
92534W        W57519  37.087  13.044   0.453
92535W        W57520  24.472  14.704  10.746
92536W        W57521  14.944  24.990   0.079
92537W        W57522   4.700  23.696  14.066
92538W        W57523  32.370  33.935  11.140
92539W        W57524   5.777  43.290   2.784
92540W        W57525  28.004  29.233  11.608
92541W        W57526  39.113  42.778  11.370
92542W        W57527  30.014  36.575   2.316
92543W        W57528  36.453   7.843   3.205
92544W        W57529  28.709   3.875  11.430
92545W        W57530  24.551  17.661   3.106
92546W        W57531  27.926  18.949   0.011
92547W        W57532  44.010   7.671   3.321
92548W        W57533   8.638  12.315   0.964
92549W        W57534  28.394  34.141  13.803
92550W        W57535  29.210   2.270  11.973
92551W        W57536  31.972  17.320   3.090
92552W        W57537  37.473  37.324   0.400
92553W        W57538   0.356  43.025   3.228
92554W        W57539  12.809  26.986  11.989
92555W        W57540  11.870  43.845  11.145
92556W        W57541  31.868  10.107  14.436
92557W        W57542  13.319  31.181  10.478
92558W        W57543   2.281   3.161  11.040
92559W        W57544  42.309  31.222   4.196
92560W        W57545  41.924  12.282   4.826
92561W        W57546   2.412   0.427  12.856
92562W        W57547   6.400   8.431   2.296
92563W        W57548  37.875  16.545  14.980
92564W        W57549  28.703  12.702  11.000
92565W        W57550  17.478  34.805   1.853
92566W        W57551  30.569  23.157   1.690
92567W        W57552   0.872  12.253  10.663
92568W        W57553  26.642  17.359   3.012
92569W        W57554   4.337  18.798   2.335
92570W        W57555  29.976  19.425  12.624
92571W        W57556  16.086  12.932   3.141
92572W        W57557  17.865  22.252   1.773
92573W        W57558  32.505   1.172   2.296
92574W        W57559  42.422  12.538  13.014
92575W        W57560  17.881  30.535   2.860
92576W        W57561  42.197  20.642   3.466
92577W        W57562  17.222  10.242  11.222
92578W        W57563  24.444  28.465   3.796
92579W        W57564  30.218   5.156   1.749
92580W        W57565  42.763   8.616   1.408
92581W        W57566  14.597   9.363   2.427
92582W        W57567  13.035  44.449  13.887
92583W        W57568  43.361  21.705  13.107
92584W        W57569   3.231   0.188  12.430
92585W        W57570  41.915  29.531  14.476
92586W        W57571   9.052  37.246   2.696
92587W        W57572  23.667  19.618  14.526
92588W        W57573  37.033  41.996   3.722
92589W        W57574  41.907  44.809   3.761
92590W        W57575   0.340   4.383   1.819
92591W        W57576  25.861  41.162  14.493
92592W        W57577  33.352  39.594  14.874
92593W        W57578  31.145  41.695  12.688
92594W        W57579  32.249   2.638  13.185
92595W        W57580  30.442  15.304  11.528
92596W        W57581  16.609  44.224  11.132
92597W        W57582  30.516  33.793   4.725
92598W        W57583  36.548  24.245   1.920
92599W        W57584  35.711  11.888  12.957
92600W        W57585  15.758   2.408  10.977
92601W        W57586  13.181   1.825   4.632
92602W        W57587   7.535  39.086  14.843
92603W        W57588  21.505   2.411   3.641
92604W        W57589  13.070  28.616   0.694
92605W        W57590  22.257  13.618   0.865
92606W        W57591  28.818  14.644   0.342
92607W        W57592  19.294  29.814  10.434
92608W        W57593   7.440  17.333   1.610
92609W        W57594   8.725  10.229   2.656
92610W        W57595  26.625  14.274   3.919
92611W        W57596  29.556   3.683   4.712
92612W        W57597   2.702  12.938   3.967
92613W        W57598  35.470   5.616  12.544
92614W        W57599  13.540  36.880   0.787
92615W        W57600  44.284  33.161  14.478
92616W        W57601  40.368   2.603  11.785
92617W        W57602  16.345  35.944   0.266
92618W        W57603   1.617  30.928   4.349
92619W        W57604  15.747  44.684  12.155
92620W        W57605  16.179  14.774   3.110
92621W        W57606  44.036   6.820   0.960
92622W        W57607  11.707  36.116   1.360
92623W        W57608  25.033   4.773  14.949
92624W        W57609  20.749  41.361   4.273
92625W        W57610  32.986  42.742   4.646
92626W        W57611  21.673   0.793   2.127
92627W        W57612  16.942  34.093   2.397
92628W        W57613  38.134  29.467   3.228
92629W        W57614  10.316  42.611  11.393
92630W        W57615  24.099  38.391   3.132
92631W        W57616   8.260  39.030  12.367
92632W        W57617  23.633  32.898   1.812
92633W        W57618  36.969  34.646   1.171
92634W        W57619   3.363  33.248  10.719
92635W        W57620  11.738  41.569   2.446
92636W        W57621  20.027  17.131   0.366
92637W        W57622  14.852  36.094  13.481
92638W        W57623  25.174  41.851  14.089
92639W        W57624  13.108  13.869  14.317
92640W        W57625   6.754   9.137  11.368
92641W        W57626   9.190  39.345   4.517
92642W        W57627  22.466   1.906  12.522
92643W        W57628  34.916  25.119   5.169
92644W        W57629  11.621   8.892  10.975
92645W        W57630  15.429   4.428   0.068
92646W        W57631  38.649   1.377   3.239
92647W        W57632  20.377  44.726   1.456
92648W        W57633  23.500  34.178  14.997
92649W        W57634  44.838  26.198  10.537
92650W        W57635  33.579  19.801   3.527
92651W        W57636  30.988  30.655  13.560
92652W        W57637  15.475  26.318   5.094
92653W        W57638  40.033   7.986  10.706
92654W        W57639  29.455  16.522  12.157
92655W        W57640  29.712   0.018   1.230
92656W        W57641  19.026   5.859  12.134
92657W        W57642  15.657  20.008   2.466
92658W        W57643  36.146  32.806   3.295
92659W        W57644   9.723  27.242   1.436
92660W        W57645  37.774  14.272   3.167
92661W        W57646  41.510  25.899   2.955
92662W        W57647  33.578  15.722  13.001
92663W        W57648  29.605  16.255  12.582
92664W        W57649  44.703   0.925  13.441
92665W        W57650  19.486  40.193   4.592
92666W        W57651  19.990   5.688   2.208
92667W        W57652  12.684  23.236  12.376
92668W        W57653  28.957  26.667  14.834
92669W        W57654   0.869  35.021   4.665
92670W        W57655   0.638  30.750   5.089
92671W        W57656   7.232  40.533   4.360
92672W        W57657  37.627   8.039  14.385
92673W        W57658  31.087  38.486  14.842
92674W        W57659  40.001  39.080  13.901
92675W        W57660  43.365  42.015  12.416
92676W        W57661  34.104  34.947  10.789
92677W        W57662  14.182  11.691  14.850
92678W        W57663  39.762   0.243  10.698
92679W        W57664  22.099   5.891   2.594
92680W        W57665   2.441   6.013   0.072
92681W        W57666  23.028  14.402   4.195
92682W        W57667  32.117  27.477   4.204
92683W        W57668   8.832  19.762   3.691
92684W        W57669  37.658   1.370   3.206
92685W        W57670  39.494  43.991   0.503
92686W        W57671   9.340  43.983   0.229
92687W        W57672  20.503   4.786  13.524
92688W        W57673   7.954  12.260  10.670
92689W        W57674  36.244  22.458  11.735
92690W        W57675  22.034  39.113   3.107
92691W        W57676  42.458  41.913   3.363
92692W        W57677  17.262   0.281  13.473
92693W        W57678  24.059  35.930   1.260
92694W        W57679  22.257  27.384  14.392
92695W        W57680  26.146  15.051  11.155
92696W        W57681   7.874   9.176  14.365
92697W        W57682   0.836  38.860   5.014
92698W        W57683   7.404  32.456  14.544
92699W        W57684  16.650  35.517  11.740
92700W        W57685  44.034  19.590   2.238
92701W        W57686  43.219   7.807   2.845
92702W        W57687  44.318  10.171   1.157
92703W        W57688  33.979  24.750   1.847
92704W        W57689  17.064  41.736   4.316
92705W        W57690  38.352  39.030   0.253
92706W        W57691   1.022  43.853  11.062
92707W        W57692  33.762   6.356   4.767
92708W        W57693  19.773  32.285   3.668
92709W        W57694  25.200  26.017   1.377
92710W        W57695  25.048  12.176   4.602
92711W        W57696  35.697  37.850   2.126
92712W        W57697  30.611  29.603  13.502
92713W        W57698   7.937  36.969   0.753
92714W        W57699  40.993  11.345  11.941
92715W        W57700  33.435  30.621  12.201
92716W        W57701  41.437  42.435  13.964
92717W        W57702  39.769   6.807  12.056
92718W        W57703  18.769  33.491   2.154
92719W        W57704  10.500  32.719  13.447
92720W        W57705  38.134  25.603  10.713
92721W        W57706  31.492   4.947   3.203
92722W        W57707  33.107  33.355   1.411
92723W        W57708   3.917  22.601  14.496
92724W        W57709   3.411  10.406   0.240
92725W        W57710   3.526  41.799  14.961
92726W        W57711  24.027  29.900   0.343
92727W        W57712  26.169  44.325  14.083
92728W        W57713  12.218  34.017  11.116
92729W        W57714  24.026  44.094  12.064
92730W        W57715  31.407  27.005   0.550
92731W        W57716  18.357  13.267  13.987
92732W        W57717  30.268  44.509  10.024
92733W        W57718  26.961  36.378   4.824
92734W        W57719   5.360  34.940   0.403
92735W        W57720  13.505  11.305  12.470
92736W        W57721  17.763  43.899  11.758
92737W        W57722  44.588  33.595   0.164
92738W        W57723  31.096   2.624  13.065
92739W        W57724  12.157  27.574   3.654
92740W        W57725   9.974  30.103   3.186
92741W        W57726   0.323  23.447   0.573
92742W        W57727  35.852  34.996   1.685
92743W        W57728   3.551   8.538  11.904
92744W        W57729   8.610  28.791   1.892
92745W        W57730  20.232  14.001   4.684
92746W        W57731   2.726  21.017  13.330
92747W        W57732  11.316  43.851   3.694
92748W        W57733   1.975  15.099  13.801
92749W        W57734   8.623  36.326   1.201
92750W        W57735   7.485   0.511   0.385
92751W        W57736   6.866   3.751   9.850
92752W        W57737  28.186  26.374  13.012
92753W        W57738  26.694  23.519  10.663
92754W        W57739  28.975  26.474   3.525
92755W        W57740  27.134   2.298  11.521
92756W        W57741   0.585  31.065  12.071
92757W        W57742  41.823  32.457   3.782
92758W        W57743  23.039  40.445   2.866
92759W        W57744  14.254  19.084   2.303
92760W        W57745  36.826  30.091  14.723
92761W        W57746  37.523  36.645  11.151
92762W        W57747  18.358   6.963  12.998
92763W        W57748  13.143  21.848   2.350
92764W        W57749   8.833  18.206   3.814
92765W        W57750  40.136   6.937   3.563
92766W        W57751   5.261   7.733   2.275
92767W        W57752  42.337   3.216  12.499
92768W        W57753  26.106  42.429   2.404
92769W        W57754  33.611  32.859   1.972
92770W        W57755  30.801  21.378  14.340
92771W        W57756   2.782   2.838   4.221
92772W        W57757  41.948  28.710   4.124
92773W        W57758  11.245   2.894   1.111
92774W        W57759  15.280  43.536  14.916
92775W        W57760  16.826  35.636  12.576
92776W        W57761   7.150  10.751   3.343
92777W        W57762   9.687   6.704   3.358
92778W        W57763  19.627  37.202   2.846
92779W        W57764  22.953  17.990   1.570
92780W        W57765  13.748  26.161  11.517
92781W        W57766  37.364  18.671   1.434
92782W        W57767  38.030   1.212   4.048
92783W        W57768  40.510   3.340   4.513
92784W        W57769  12.330  29.871   2.427
92785W        W57770  17.381   3.233  11.215
92786W        W57771  19.235  22.018   3.290
92787W        W57772  43.535  29.185   2.359
92788W        W57773  29.141  14.693   3.883
92789W        W57774   6.337  12.669  14.037
92790W        W57775  26.752  10.238   2.041
92791W        W57776  36.189  11.792   1.264
92792W        W57777  33.086   6.431   0.930
92793W        W57778  37.493  28.074   2.854
92794W        W57779  19.976  21.049  11.506
92795W        W57780  39.348   1.689  11.575
92796W        W57781  11.267   2.035   4.663
92797W        W57782   3.462   8.298   2.701
92798W        W57783  33.536  19.033   4.608
92799W        W57784  26.315  21.471   2.256
92800W        W57785   5.188  15.728  13.396
92801W        W57786   4.993  18.452   4.224
92802W        W57787  20.750  33.303   0.910
92803W        W57788  24.102   6.869  13.144
92804W        W57789   9.304  40.117  13.877
92805W        W57790  44.069  32.557  12.680
92806W        W57791   4.068  38.236  12.204
92807W        W57792  32.055  34.555   4.581
92808W        W57793  20.522  17.223   0.233
92809W        W57794   9.172   0.731   4.111
92810W        W57795  40.679  41.807   4.143
92811W        W57796  43.872  29.394   2.006
92812W        W57797  29.045   3.600  10.713
92813W        W57798   2.312  32.430   3.096
92814W        W57799   7.538  17.572  11.376
92815W        W57800  33.904  18.163  10.926
92816W        W57801  37.749  18.844  12.137
92817W        W57802  15.158  37.511   3.315
92818W        W57803   7.336   5.803  14.983
92819W        W57804  34.152  30.261  11.097
92820W        W57805   3.789  10.621  12.253
92821W        W57806  36.104   1.341   3.155
92822W        W57807   5.386  10.008  13.930
92823W        W57808  17.625  21.604  12.935
92824W        W57809   7.657   9.156   0.720
92825W        W57810  34.997  39.580   2.357
92826W        W57811  22.649  17.169  13.950
92827W        W57812  44.344  33.355  10.998
92828W        W57813  42.124   9.327  12.015
92829W        W57814  39.769  28.701  12.493
92830W        W57815   9.668  38.436  12.496
92831W        W57816  31.389   9.504  10.389
92832W        W57817  13.304  24.070   4.695
92833W        W57818   8.086  24.675   1.146
92834W        W57819   1.192  19.133   1.210
92835W        W57820   8.762  15.113   0.774
92836W        W57821  43.297  12.587  14.960
92837W        W57822  30.941  13.572   0.008
92838W        W57823  32.995  22.202   1.526
92839W        W57824  28.647  22.678   2.155
92840W        W57825   0.884   0.528   3.092
92841W        W57826  16.927  36.011  10.534
92842W        W57827  40.333  28.171   0.946
92843W        W57828  27.023  32.054   4.530
92844W        W57829  36.832  11.234   2.743
92845W        W57830  33.318  25.086   2.329
92846W        W57831  32.078   0.516  14.313
92847W        W57832  44.899  43.107   4.583
92848W        W57833  11.277  39.053  14.511
92849W        W57834   2.042  16.623  12.995
92850W        W57835  23.921  31.793   2.399
92851W        W57836  15.866  23.923  14.408
92852W        W57837  34.965  37.849   0.174
92853W        W57838   5.449  32.164   0.296
92854W        W57839  37.437  34.383   1.938
92855W        W57840   0.790  27.514   2.377
92856W        W57841  43.441   4.497  14.654
92857W        W57842  34.846  38.517  12.605
92858W        W57843  40.801   8.322  14.549
92859W        W57844  19.631   2.738  10.508
92860W        W57845  39.620  43.509   0.742
92861W        W57846  16.299  30.476  12.516
92862W        W57847  14.369  30.260   3.354
92863W        W57848  16.104   8.230  11.952
92864W        W57849  14.588  28.918  13.574
92865W        W57850  17.491  20.712   4.114
92866W        W57851  12.082  36.410  11.048
92867W        W57852  13.813  14.620  13.456
92868W        W57853  27.583  26.108  14.044
92869W        W57854  16.708  19.028   3.669
92870W        W57855  19.523  24.634   4.440
92871W        W57856  12.653  22.306  11.458
92872W        W57857  17.692  40.242   4.526
92873W        W57858   6.450  11.178   1.286
92874W        W57859  28.131  44.529  11.931
92875W        W57860  37.717  17.696   1.893
92876W        W57861  31.984   2.040  11.964
92877W        W57862  37.233  28.439   0.964
92878W        W57863  10.164  35.021  10.325
92879W        W57864  37.659  18.339   3.385
92880W        W57865   8.621  27.665   2.249
92881W        W57866   4.374   4.070  14.696
92882W        W57867  30.202   3.926   1.322
92883W        W57868  10.646  28.574   1.702
92884W        W57869   3.300  26.465   0.313
92885W        W57870  23.590   0.603  12.020
92886W        W57871  39.530  36.415  13.039
92887W        W57872  16.984  10.479  14.424
92888W        W57873   1.942   9.102   4.976
92889W        W57874  30.955   4.305  10.656
92890W        W57875  15.180  33.354  12.063
92891W        W57876  43.396  27.642  11.123
92892W        W57877  44.725  19.586   0.375
92893W        W57878  35.110   5.627   0.834
92894W        W57879  37.220  23.054   0.775
92895W        W57880   6.647   7.772  10.719
92896W        W57881  28.075   7.852  11.547
92897W        W57882  18.198   9.406   1.029
92898W        W57883  10.514   6.825  10.105
92899W        W57884  20.497  23.810  13.412
92900W        W57885  28.129  43.740  12.443
92901W        W57886  24.533  44.810   2.814
92902W        W57887  34.586  10.604  14.876
92903W        W57888   2.281  19.651   3.079
92904W        W57889  25.130  32.503  11.199
92905W        W57890  28.507   5.758   1.629
92906W        W57891  17.604  13.509   4.566
92907W        W57892  29.330  28.485   1.478
92908W        W57893   3.505  30.147   1.327
92909W        W57894  43.998  28.652   5.588
92910W        W57895  35.710  12.948  13.875
92911W        W57896   9.735  27.860   0.567
92912W        W57897  27.960  38.613  10.837
92913W        W57898  12.788  22.704  14.683
92914W        W57899   1.015  42.432   3.235
92915W        W57900   6.920  15.343   0.861
92916W        W57901  21.941  12.741  13.206
92917W        W57902   7.660  27.475  10.826
92918W        W57903  19.763  30.185   1.390
92919W        W57904  42.851   7.762  11.120
92920W        W57905   4.970  35.859   1.183
92921W        W57906   5.073   4.641   2.611
92922W        W57907  33.040  28.392  13.861
92923W        W57908   4.938   5.800  12.805
92924W        W57909   4.928  22.682  12.923
92925W        W57910  24.265  20.654   4.537
92926W        W57911   6.250   0.969   0.206
92927W        W57912  40.683  21.522  14.737
92928W        W57913   2.936  35.670  14.839
92929W        W57914  27.630   0.903   3.570
92930W        W57915  36.421  13.670   1.373
92931W        W57916  14.802   0.861   3.304
92932W        W57917  39.408  21.092  10.700
92933W        W57918  42.511  17.243  11.993
92934W        W57919   7.138  35.556   4.562
92935W        W57920   1.465  20.234   0.923
92936W        W57921  26.008  10.370  14.987
92937W        W57922  39.101   7.777   3.799
92938W        W57923   0.538  28.391  14.732
92939W        W57924  17.074  14.720  10.384
92940W        W57925  34.656  12.063   1.761
92941W        W57926  30.106   6.183  10.995
92942W        W57927  33.678  14.740  12.905
92943W        W57928  29.975  25.596   4.582
92944W        W57929  43.441  21.459   3.589
92945W        W57930   5.199  31.256  12.660
92946W        W57931  36.169  43.849  13.367
92947W        W57932  29.268  25.129   1.713
92948W        W57933  25.222   6.391  12.009
92949W        W57934  41.085   4.683   4.893
92950W        W57935  20.536   2.331   0.543
92951W        W57936  18.398  21.428   3.300
92952W        W57937  38.024   2.531   0.526
92953W        W57938  35.455  30.864  14.894
92954W        W57939  15.694  22.467  12.565
92955W        W57940  23.877  26.592  12.530
92956W        W57941  14.373  15.194   3.191
92957W        W57942  23.507  25.085   1.987
92958W        W57943  13.342  20.272  13.438
92959W        W57944  28.970  27.937   4.529
92960W        W57945  35.872  14.484  14.009
92961W        W57946  27.699  41.786  13.150
92962W        W57947  20.634  43.570  11.150
92963W        W57948  21.281  25.346   5.169
92964W        W57949  23.997   6.637  13.984
92965W        W57950  34.987  40.295   3.935
92966W        W57951   8.108   4.832  14.350
92967W        W57952  13.771  11.741   0.504
92968W        W57953  41.939  11.758  13.323
92969W        W57954  24.485  39.317   0.738
92970W        W57955  43.322  28.979   4.443
92971W        W57956  35.917  10.684  11.440
92972W        W57957  28.366  22.683  12.332
92973W        W57958  14.192  36.196   2.623
92974W        W57959  18.247   4.315   1.711
92975W        W57960  38.029   0.715  10.506
92976W        W57961  29.443   1.200   2.875
92977W        W57962  23.680   5.918  10.963
92978W        W57963   6.148   4.224  14.728
92979W        W57964  12.921  25.654   3.683
92980W        W57965  12.808  13.649  13.674
92981W        W57966  41.257  22.107   5.423
92982W        W57967  21.804  15.268   1.492
92983W        W57968  27.560  11.662   4.873
92984W        W57969  35.589  25.919   2.937
92985W        W57970  42.058  29.023  10.203
92986W        W57971  33.163  10.923   3.747
92987W        W57972  15.758  22.133  10.692
92988W        W57973  19.072  34.039  10.586
92989W        W57974  34.963  29.694  14.787
92990W        W57975  35.064  15.220  10.974
92991W        W57976   5.362  22.165  14.341
92992W        W57977  36.017  28.009   0.917
92993W        W57978  36.265  25.212   3.986
92994W        W57979  11.647  15.334   2.300
92995W        W57980  41.422  29.405  12.518
92996W        W57981  43.344  17.402  14.326
92997W        W57982  32.638  36.020   3.638
92998W        W57983   9.352  35.469  12.098
92999W        W57984   6.847  20.698   2.920
93000W        W57985  44.835  31.929   4.548
93001W        W57986   7.913  17.049  11.982
93002W        W57987   1.691  12.867  13.564
93003W        W57988  15.668  23.485   0.471
93004W        W57989  33.443  35.202   3.656
93005W        W57990  32.536  30.145   2.736
93006W        W57991  39.360  24.029   4.216
93007W        W57992  14.136  10.112  12.774
93008W        W57993  21.784   6.819   0.875
93009W        W57994  15.729  23.017  13.470
93010W        W57995  18.192  16.716   1.723
93011W        W57996  43.233   1.407  14.809
93012W        W57997  36.999   3.419   0.923
93013W        W57998  14.661   3.442  12.753
93014W        W57999  11.462  22.551   3.234
93015W        W58000  22.983  14.435   1.365
93016W        W58001  11.952  17.532   5.007
93017W        W58002   6.937  20.293  12.331
93018W        W58003  29.484  42.556  14.216
93019W        W58004  42.408   7.564  12.529
93020W        W58005   5.961  18.342  13.004
93021W        W58006  33.159  42.920   4.171
93022W        W58007   4.052  19.173  11.827
93023W        W58008   7.452  15.616  13.051
93024W        W58009  21.708  22.655   4.137
93025W        W58010  26.849  14.443   0.731
93026W        W58011  10.160  17.292   3.967
93027W        W58012  13.204  16.631   1.891
93028W        W58013  24.394  40.523   3.731
93029W        W58014  33.479   0.070   4.521
93030W        W58015  28.510  17.110  13.974
93031W        W58016  40.301  19.319   4.109
93032W        W58017   2.434  24.059  13.861
93033W        W58018  43.024   8.177   1.496
93034W        W58019   7.296  13.719  10.743
93035W        W58020  16.743  21.733   0.323
93036W        W58021  18.328  39.049   2.626
93037W        W58022  35.567  38.932   2.570
93038W        W58023  28.180   8.231  13.894
93039W        W58024   7.619  10.840   1.159
93040W        W58025  34.311  17.391   2.098
93041W        W58026  11.291  37.827   4.196
93042W        W58027   0.466  21.248   3.785
93043W        W58028  42.952  24.437  11.612
93044W        W58029  33.077  19.045   3.712
93045W        W58030  29.972   8.601   0.776
93046W        W58031  27.483  42.474  14.942
93047W        W58032  41.342  24.002   0.723
93048W        W58033   4.330  32.788   1.691
93049W        W58034  26.011   0.471   2.108
93050W        W58035  39.319  11.902   1.618
93051W        W58036   3.358  20.706   2.633
93052W        W58037  41.524   7.963  13.863
93053W        W58038  32.280   0.881  14.592
93054W        W58039  42.399  21.722  12.093
93055W        W58040  28.590  18.167  12.024
93056W        W58041  44.995  16.255  12.053
93057W        W58042  19.749  20.622   1.574
93058W        W58043  19.951  10.242  10.799
93059W        W58044  11.468  42.929  13.990
93060W        W58045  41.401  26.714   0.432
93061W        W58046  34.546  19.278   2.815
93062W        W58047  33.655   6.377   1.842
93063W        W58048  40.002  21.651   2.285
93064W        W58049  19.894  18.553   4.093
93065W        W58050  32.420   4.191   0.023
93066W        W58051  38.933  14.798   3.517
93067W        W58052   0.134  14.648   5.044
93068W        W58053  16.166   9.373  11.379
93069W        W58054  16.864  21.715  11.640
93070W        W58055   6.305  18.622   2.808
93071W        W58056  33.475   4.878   4.606
93072W        W58057  36.806   4.401  14.461
93073W        W58058  30.576  26.202  11.036
93074W        W58059  29.944  41.740   3.681
93075W        W58060  20.808  13.371   1.264
93076W        W58061   4.173  35.405   0.444
93077W        W58062   4.450  21.644  11.181
93078W        W58063  29.367  22.184   0.067
93079W        W58064  24.150   8.217   4.354
93080W        W58065  43.806  21.549   1.436
93081W        W58066  31.297  43.112   2.698
93082W        W58067   2.548  28.851  11.515
93083W        W58068  39.464   8.681   3.297
93084W        W58069  27.661  21.262  14.233
93085W        W58070   8.301  24.972  12.503
93086W        W58071  43.880  40.320   2.364
93087W        W58072  12.120  20.133  14.826
93088W        W58073  10.760   7.647   1.200
93089W        W58074  43.081  13.089  13.366
93090W        W58075   7.425  22.303   0.974
93091W        W58076  23.691  38.627  13.580
93092W        W58077  14.354  16.214  10.828
93093W        W58078  33.623   3.834  11.923
93094W        W58079   1.353  30.712   2.210
93095W        W58080  39.633  15.455  11.509
93096W        W58081  15.563  26.463   3.168
93097W        W58082   7.472  19.015   4.846
93098W        W58083   0.940  34.522  11.584
93099W        W58084  33.577  12.447  14.592
93100W        W58085  18.121  28.711   1.787
93101W        W58086  42.036  39.563  11.125
93102W        W58087  27.747  14.912  13.214
93103W        W58088  40.765  11.194   4.653
93104W        W58089   7.004  39.241   2.339
93105W        W58090   6.837  29.341   3.684
93106W        W58091  32.941   5.522  14.517
93107W        W58092  43.347  32.000   2.888
93108W        W58093  38.631  24.438   5.537
93109W        W58094  15.011  18.656  14.004
93110W        W58095  19.611   2.769   4.321
93111W        W58096  25.512  34.621   5.045
93112W        W58097  44.707  41.875   3.304
93113W        W58098  23.184  41.930  10.599
93114W        W58099  33.305  16.734   3.421
93115W        W58100  38.963  12.013   0.001
93116W        W58101  29.642   1.689   9.761
93117W        W58102  25.445  37.520   5.089
93118W        W58103  10.559   6.853   0.961
93119W        W58104  44.499  22.069  11.592
93120W        W58105  10.865  31.183  12.374
93121W        W58106  25.155  39.000  13.804
93122W        W58107  22.006   9.161  14.920
93123W        W58108  40.349  23.769   3.289
93124W        W58109  29.134  30.059   5.068
93125W        W58110  25.527   7.358   1.787
93126W        W58111  21.997   5.071  11.440
93127W        W58112   3.725   2.486   0.904
93128W        W58113  11.991  22.557   3.179
93129W        W58114  17.001   2.021   1.700
93130W        W58115  29.634  21.829   4.129
93131W        W58116  33.006  35.062   0.621
93132W        W58117  38.341  36.515  11.986
93133W        W58118  43.991  44.696  10.737
93134W        W58119  35.777  44.793  12.192
93135W        W58120  24.736  33.838   4.089
93136W        W58121  43.053  27.667   0.810
93137W        W58122  33.138  14.492   1.529
93138W        W58123  13.738  16.982   1.703
93139W        W58124  38.257  36.594   2.181
93140W        W58125  18.236  37.996   1.984
93141W        W58126  22.121  32.089   2.498
93142W        W58127  41.871  15.969   5.380
93143W        W58128  38.834  14.859   0.748
93144W        W58129   3.495  23.796   0.712
93145W        W58130   3.011  28.680   1.208
93146W        W58131  22.625  26.952   3.657
93147W        W58132  30.537   2.512  14.328
93148W        W58133  27.351  41.508  13.393
93149W        W58134   0.874  43.739  13.099
93150W        W58135  36.614  21.776  13.028
93151W        W58136   4.413  42.860  14.419
93152W        W58137  11.768  30.213  12.576
93153W        W58138  41.214  44.311  12.552
93154W        W58139   8.337  38.451   4.091
93155W        W58140  10.236  32.421   3.665
93156W        W58141  35.064  23.270   4.422
93157W        W58142  39.427  17.341  14.508
93158W        W58143  10.923  20.224  13.519
93159W        W58144  13.047  28.648   3.668
93160W        W58145  42.795  12.894  12.934
93161W        W58146   0.209   8.803   4.542
93162W        W58147  10.188  44.571  14.336
93163W        W58148  34.896  10.562  11.627
93164W        W58149  33.786  10.339   4.530
93165W        W58150  12.130  43.839   0.347
93166W        W58151  37.116   3.722   3.691
93167W        W58152  30.116  17.507   1.253
93168W        W58153  22.165  40.045   0.428
93169W        W58154  37.410  17.804   4.546
93170W        W58155  15.604   9.230  11.423
93171W        W58156  11.859  20.220  11.972
93172W        W58157  22.362  40.070   5.198
93173W        W58158   6.127  20.309   1.771
93174W        W58159   6.167  30.474   3.746
93175W        W58160   6.608  11.843  14.678
93176W        W58161  40.552   5.751   3.629
93177W        W58162  30.077  20.679  14.308
93178W        W58163   8.648  15.812  13.477
93179W        W58164  11.337  29.939   2.728
93180W        W58165  42.247  19.309   4.568
93181W        W58166  16.923  18.078  11.964
93182W        W58167  41.844   1.802   2.923
93183W        W58168  31.613   5.204  13.565
93184W        W58169   8.427  30.971   3.588
93185W        W58170  30.020  18.168   2.763
93186W        W58171   9.936  22.076  10.717
93187W        W58172  44.514  16.357  10.327
93188W        W58173  24.942  29.587   0.045
93189W        W58174  37.968  19.589   3.661
93190W        W58175  37.936  10.422   0.320
93191W        W58176  33.934  18.865   0.328
93192W        W58177   5.165  13.867  13.499
93193W        W58178  44.438  22.145   1.185
93194W        W58179  27.380  27.705   9.990
93195W        W58180  17.363   3.218   2.489
93196W        W58181  29.277  14.910   4.331
93197W        W58182  23.902   2.533   3.664
93198W        W58183  23.152  29.891  13.266
93199W        W58184   2.361   0.195   4.756
93200W        W58185   0.478  34.465  13.864
93201W        W58186  33.553  10.320  14.200
93202W        W58187  43.958  39.780  12.587
93203W        W58188  28.639  40.498   2.841
93204W        W58189   8.727  23.989  14.456
93205W        W58190  12.825  10.203  10.737
93206W        W58191  16.564   1.557   1.865
93207W        W58192   5.742  36.338   0.720
93208W        W58193  33.635  12.338  13.248
93209W        W58194   1.777   6.019  12.514
93210W        W58195   6.896  37.164  12.768
93211W        W58196  25.655  36.474  12.785
93212W        W58197  13.996  26.708   0.807
93213W        W58198   4.146  33.641  14.949
93214W        W58199   3.981  23.637  11.598
93215W        W58200   4.823  13.834   2.886
93216W        W58201  22.828  19.127   0.635
93217W        W58202  34.506   1.151  14.032
93218W        W58203   3.894  10.082   0.352
93219W        W58204  42.384   7.896   2.623
93220W        W58205  39.460   9.485   3.466
93221W        W58206  23.817  20.975   2.931
93222W        W58207  41.497   4.969   1.430
93223W        W58208  12.999  20.248  12.586
93224W        W58209  11.701  32.415  11.450
93225W        W58210  14.077  28.698   3.822
93226W        W58211   0.765  28.372   2.469
93227W        W58212  22.540  34.117   2.004
93228W        W58213  21.909  43.075   2.267
93229W        W58214  33.838  20.557   1.018
93230W        W58215  34.358  34.974   3.745
93231W        W58216  24.467  24.012   4.111
93232W        W58217  11.922  10.947  13.260
93233W        W58218   6.783  22.449   0.429
93234W        W58219   9.241  10.650  10.658
93235W        W58220  33.913  41.852  12.392
93236W        W58221  12.586  27.622  11.569
93237W        W58222  42.275  24.685  12.250
93238W        W58223  22.476  25.607   1.691
93239W        W58224  25.790  28.151   2.209
93240W        W58225  21.438  11.334   0.921
93241W        W58226  36.501  18.028   2.113
93242W        W58227  34.766  20.637  11.629
93243W        W58228  21.646  42.858  14.012
93244W        W58229   2.350   2.840   3.948
93245W        W58230  23.017   1.477   0.447
93246W        W58231  43.874   5.642   0.320
93247W        W58232  14.991  33.647   2.173
93248W        W58233  27.506  22.857   1.489
93249W        W58234  21.490  32.083   0.802
93250W        W58235  43.834  25.975  11.929
93251W        W58236   1.202   7.864   1.263
93252W        W58237  28.284  36.128  11.525
93253W        W58238  21.043  23.529   0.454
93254W        W58239   2.850  39.116   0.495
93255W        W58240  22.206  22.239  10.242
93256W        W58241   3.727  24.982  10.448
93257W        W58242  33.397  26.449  12.953
93258W        W58243   9.780  13.188   3.658
93259W        W58244  30.863   8.742  11.625
93260W        W58245  14.257  40.025  12.630
93261W        W58246  16.144  34.837  10.319
93262W        W58247  43.301   4.355   1.130
93263W        W58248  34.086  31.823   0.712
93264W        W58249  34.383  18.626   0.470
93265W        W58250  10.655  10.630  11.182
93266W        W58251  18.772  41.625   5.031
93267W        W58252  34.437  15.639  13.509
93268W        W58253   2.926  38.224  14.955
93269W        W58254  29.129   5.457  11.944
93270W        W58255   9.810  32.116  12.507
93271W        W58256  33.069  24.445  11.550
93272W        W58257  12.346   2.948   4.867
93273W        W58258  17.790  24.028   4.481
93274W        W58259  19.741   9.210   3.678
93275W        W58260  10.875  40.861  10.996
93276W        W58261  28.948  35.957  14.948
93277W        W58262  44.814  28.089   0.826
93278W        W58263  42.712  27.959   1.198
93279W        W58264  13.666  13.114  12.433
93280W        W58265  31.883   0.546   3.803
93281W        W58266   2.119  37.180  11.902
93282W        W58267  21.024  30.399  11.052
93283W        W58268   9.104  17.630  10.690
93284W        W58269  25.145   0.790   0.539
93285W        W58270  28.131  13.339   0.834
93286W        W58271  29.288   6.451  11.943
93287W        W58272  36.921  41.051  14.382
93288W        W58273  22.741  11.275  13.316
93289W        W58274  18.257  34.102   3.802
93290W        W58275  17.435  17.383  11.955
93291W        W58276  24.288  34.648   0.870
93292W        W58277  43.316  19.148   3.550
93293W        W58278  20.583   7.986   0.731
93294W        W58279  22.674  31.611  10.503
93295W        W58280  27.438   2.733  12.471
93296W        W58281  18.042  34.467  14.933
93297W        W58282  28.146  12.709  11.643
93298W        W58283  20.952  18.582   0.793
93299W        W58284  29.858  11.125  13.873
93300W        W58285  13.919   4.934  10.219
93301W        W58286  18.570  35.052  10.937
93302W        W58287   0.886  25.640  14.635
93303W        W58288   9.190   9.655   1.433
93304W        W58289   2.081  25.106  11.528
93305W        W58290   0.246  22.037  12.234
93306W        W58291  43.693  28.904   1.883
93307W        W58292  24.382  16.728   4.062
93308W        W58293  32.549  27.943  12.588
93309W        W58294   9.405  22.332   4.186
93310W        W58295  14.716  35.065  11.990
93311W        W58296  27.650  34.697   2.064
93312W        W58297  19.536  31.405   3.753
93313W        W58298   5.255   2.497  13.799
93314W        W58299  21.961   4.887  10.186
93315W        W58300  18.567  10.647  13.306
93316W        W58301  36.390  27.074  11.471
93317W        W58302  37.473  29.222   1.859
93318W        W58303  27.461  15.862   3.880
93319W        W58304  42.200  42.889  13.546
93320W        W58305  12.365  21.217   2.927
93321W        W58306  35.786  43.271   2.244
93322W        W58307  38.508  29.710  14.829
93323W        W58308  30.923  43.877  11.099
93324W        W58309  42.959  37.727   2.259
93325W        W58310  12.357  27.150  12.918
93326W        W58311   7.229  43.297  11.617
93327W        W58312  21.163  10.495   1.724
93328W        W58313   0.022  38.027   4.255
93329W        W58314  41.035  24.153  11.158
93330W        W58315  19.793  43.284  13.904
93331W        W58316  36.968  15.145  14.378
93332W        W58317  34.292  20.784  14.416
93333W        W58318   1.036   8.391  12.021
93334W        W58319  37.448  44.296   1.890
93335W        W58320  13.149  20.493  13.021
93336W        W58321  39.174  38.045   3.893
93337W        W58322   6.764  34.787  11.983
93338W        W58323  13.788  12.774   2.875
93339W        W58324  15.113  10.331  12.916
93340W        W58325  12.864   6.417   3.688
93341W        W58326  20.251  42.378  13.424
93342W        W58327  42.865  24.274   1.452
93343W        W58328  37.533  25.685  12.267
93344W        W58329  28.622  19.828   1.330
93345W        W58330  31.933   5.784  12.852
93346W        W58331  24.949  21.273  11.056
93347W        W58332  12.094  15.082  11.697
93348W        W58333  25.352  32.966   0.506
93349W        W58334  21.005  44.213  10.592
93350W        W58335  11.536  40.842  14.470
93351W        W58336  32.463  42.932  13.716
93352W        W58337  20.033   2.398   1.741
93353W        W58338   8.480   7.948   4.346
93354W        W58339  36.002  10.264  14.667
93355W        W58340  24.215  37.407   2.699
93356W        W58341  44.828   1.550   0.850
93357W        W58342  25.525  15.549   2.168
93358W        W58343  18.364  12.195  14.905
93359W        W58344  18.226  13.540  13.503
93360W        W58345  40.912  13.098   4.524
93361W        W58346  44.326  29.832  11.842
93362W        W58347  22.062  16.743  11.652
93363W        W58348  25.612  15.687  10.098
93364W        W58349  28.918  16.816   1.340
93365W        W58350   0.688   8.127   0.877
93366W        W58351  26.449  12.899  11.873
93367W        W58352  15.256  32.690  13.772
93368W        W58353  40.416   3.127  11.651
93369W        W58354  16.613  33.864   4.742
93370W        W58355   6.758   3.448   2.411
93371W        W58356   7.509   2.974   3.211
93372W        W58357  20.152  11.895  14.403
93373W        W58358  43.965  36.685   1.361
93374W        W58359  37.264   3.254  11.221
93375W        W58360  34.301   0.959   1.220
93376W        W58361   2.595  27.585   2.987
93377W        W58362  16.643  29.948   2.229
93378W        W58363   3.282  35.343  14.285
93379W        W58364  37.741  11.318  12.887
93380W        W58365  41.720  10.223  11.119
93381W        W58366  35.786  43.405  14.490
93382W        W58367   8.348  38.789   0.728
93383W        W58368  36.170  18.564  12.809
93384W        W58369   5.260  41.267  11.076
93385W        W58370  15.682  16.686  11.946
93386W        W58371  24.122   8.139  11.515
93387W        W58372  42.706   1.863  11.159
93388W        W58373  39.778  28.060  13.150
93389W        W58374  32.052  16.281   4.099
93390W        W58375   1.294  11.568  11.622
93391W        W58376  36.538   8.454  11.961
93392W        W58377  38.459  15.689  10.964
93393W        W58378  38.922  44.203   3.273
93394W        W58379  16.632  26.506  14.062
93395W        W58380  27.528   8.277   1.093
93396W        W58381   9.020  35.752  10.645
93397W        W58382  30.991  15.428   2.770
93398W        W58383  30.643   0.038   4.120
93399W        W58384  32.620  10.150  14.186
93400W        W58385  36.559  26.694   3.231
93401W        W58386  34.925  18.748  11.309
93402W        W58387   0.733  44.215  12.417
93403W        W58388   2.422  14.781  11.504
93404W        W58389  22.946  28.511   4.716
93405W        W58390   1.958  44.725   1.241
93406W        W58391  36.440   5.086  10.340
93407W        W58392  15.665  33.052   0.921
93408W        W58393   7.624   8.450   1.820
93409W        W58394  43.513  42.536   1.907
93410W        W58395   2.183  37.939   0.671
93411W        W58396  32.637  41.988   4.117
93412W        W58397   5.347   3.416   2.125
93413W        W58398   7.367  16.296   1.406
93414W        W58399  23.542  34.633  11.057
93415W        W58400  29.332   4.300  13.417
93416W        W58401  21.469   8.061   1.769
93417W        W58402  38.125  43.484   2.432
93418W        W58403  19.137  31.097  13.010
93419W        W58404  31.617  30.925   2.138
93420W        W58405  41.402  14.322  11.401
93421W        W58406  19.889  43.300   1.763
93422W        W58407  28.631   2.078   3.357
93423W        W58408   5.157  18.441   3.244
93424W        W58409   2.842  40.481   4.861
93425W        W58410  11.052  26.483   3.705
93426W        W58411  25.482  17.751   1.871
93427W        W58412   0.687  11.223   0.438
93428W        W58413  26.942  19.086  12.003
93429W        W58414  29.230  43.924   2.642
93430W        W58415   3.718   9.091   2.312
93431W        W58416  12.246  43.000   1.859
93432W        W58417  28.539  21.242   2.964
93433W        W58418  31.793  30.685   2.753
93434W        W58419  12.356  30.974   2.696
93435W        W58420  12.599   2.413  14.600
93436W        W58421   1.975  20.617   4.912
93437W        W58422  12.122  13.265   2.757
93438W        W58423  40.352  33.017   3.143
93439W        W58424  39.862  40.716   3.659
93440W        W58425  31.450  15.238   3.713
93441W        W58426  32.177  21.114  14.597
93442W        W58427  14.244  35.304  14.381
93443W        W58428  15.075  12.115  13.870
93444W        W58429  32.115  15.518  13.255
93445W        W58430  18.648  18.197   2.092
93446W        W58431  14.297  16.601  13.516
93447W        W58432  17.138   1.444   3.964
93448W        W58433  37.048  31.982  11.504
93449W        W58434   0.712  37.420  13.745
93450W        W58435  32.924  39.801  12.824
93451W        W58436  34.108  24.300  14.500
93452W        W58437  24.249  26.166   3.525
93453W        W58438   6.201  33.045  12.042
93454W        W58439   1.404  13.825  13.050
93455W        W58440   5.690  17.943   2.819
93456W        W58441  17.736  18.180  10.760
93457W        W58442  32.617  17.859  11.229
93458W        W58443  34.972  28.735  11.197
93459W        W58444  16.275  28.041  10.832
93460W        W58445  37.543  38.795  14.138
93461W        W58446   0.868  13.081  12.032
93462W        W58447  25.498  33.228  13.061
93463W        W58448  38.144  33.752  12.996
93464W        W58449  27.865  40.357  11.585
93465W        W58450  14.350  37.451   4.168
93466W        W58451  21.368  15.805   3.920
93467W        W58452   9.851  37.928  13.426
93468W        W58453   5.731  11.500   1.563
93469W        W58454  18.980  10.690  14.693
93470W        W58455  28.506  30.079  12.094
93471W        W58456   7.266  24.463   1.260
93472W        W58457  18.192  32.325   1.738
93473W        W58458  24.931  13.817   0.210
93474W        W58459  22.991  32.211  10.429
93475W        W58460   9.884  20.558   2.432
93476W        W58461   9.509  39.450  14.520
93477W        W58462  25.518  36.396   2.294
93478W        W58463  27.069  19.646   4.617
93479W        W58464  38.266  24.500  10.643
93480W        W58465  10.314   0.363  13.551
93481W        W58466  10.148  11.060   1.352
93482W        W58467  35.926  25.745   4.212
93483W        W58468  10.957  26.967   3.644
93484W        W58469  14.078  35.782   4.063
93485W        W58470  30.105  42.406   0.454
93486W        W58471   0.960  35.291   1.850
93487W        W58472  40.735  30.388  10.291
93488W        W58473  35.920  27.134   3.731
93489W        W58474  35.090  42.948   5.044
93490W        W58475  43.227   5.266   1.261
93491W        W58476  31.691   1.268  13.914
93492W        W58477  36.505  32.473   2.631
93493W        W58478  19.703  32.644   3.151
93494W        W58479  31.005  26.230  12.013
93495W        W58480  29.873   1.736  14.084
93496W        W58481   9.325  13.830   3.223
93497W        W58482  39.336   9.275  14.871
93498W        W58483  37.589  25.183  10.677
93499W        W58484  16.759  43.132   0.426
93500W        W58485  10.196   2.399   2.216
93501W        W58486  35.543  16.462  12.146
93502W        W58487   8.381   9.722  10.649
93503W        W58488   8.601  10.139   0.749
93504W        W58489  14.192  30.844  13.438
93505W        W58490  32.021   5.436  14.998
93506W        W58491  37.421  14.846  13.954
93507W        W58492  24.930   0.359   1.208
93508W        W58493  15.294  34.164  10.335
93509W        W58494  15.156   1.174  14.109
93510W        W58495  44.778   1.330  14.494
93511W        W58496  31.526  21.706  11.106
93512W        W58497  32.033  32.688   3.887
93513W        W58498  28.245   9.834   3.144
93514W        W58499  10.055  10.232  11.950
93515W        W58500  29.495  21.499   4.525
93516W        W58501  27.839  28.840   3.599
93517W        W58502  36.955  38.965   0.879
93518W        W58503   5.603  25.144   1.446
93519W        W58504  22.534  44.352   9.991
93520W        W58505   6.124  35.418  13.398
93521W        W58506  17.670   9.338  11.180
93522W        W58507   1.050  18.486   5.001
93523W        W58508   7.262  41.234   1.865
93524W        W58509  33.072   9.447  13.847
93525W        W58510  41.904  24.483  10.849
93526W        W58511  39.830  19.103   4.167
93527W        W58512  44.057   0.813   4.239
93528W        W58513  38.599  18.094   3.963
93529W        W58514  25.433  23.844   4.141
93530W        W58515  29.466  12.294   0.908
93531W        W58516  18.628   6.214  14.287
93532W        W58517  24.913  37.427  13.902
93533W        W58518  24.028  44.989  12.571
93534W        W58519  42.092  33.668  14.500
93535W        W58520  12.701  37.433   1.611
93536W        W58521  11.709  10.841  10.246
93537W        W58522  42.557  16.541   0.852
93538W        W58523  30.078  25.583   1.716
93539W        W58524  30.400  40.072   3.168
93540W        W58525  24.782  15.111  10.666
93541W        W58526  44.423   1.800   2.214
93542W        W58527  25.889   7.828  11.664
93543W        W58528  24.998   6.377  13.900
93544W        W58529   8.934   9.740  14.782
93545W        W58530   5.769  38.773   1.699
93546W        W58531  17.218  26.677  13.867
93547W        W58532   5.701  42.876  10.691
93548W        W58533  38.880  38.120  11.770
93549W        W58534  38.012   9.316   4.600
93550W        W58535   4.667  24.006   0.044
93551W        W58536  30.212  15.551   5.056
93552W        W58537   2.344  21.716   0.395
93553W        W58538  24.502   5.940   0.421
93554W        W58539   4.374  29.920   2.585
93555W        W58540   2.611  22.218  11.685
93556W        W58541  24.990   0.697  13.878
93557W        W58542  42.153  29.212   4.115
93558W        W58543  44.770  38.428   0.427
93559W        W58544  35.426  37.552  14.298
93560W        W58545   0.308  16.829   1.251
93561W        W58546  34.882  28.480   0.866
93562W        W58547  40.477   0.695   5.094
93563W        W58548  43.593  28.639   4.124
93564W        W58549  21.139  34.919  14.415
93565W        W58550  40.512   9.190  14.135
93566W        W58551  25.571   3.469   3.982
93567W        W58552  12.156  22.621  10.648
93568W        W58553  12.844   7.136   2.515
93569W        W58554  24.587  14.706  12.830
93570W        W58555   0.078  12.432   3.309
93571W        W58556   5.664  38.224  11.516
93572W        W58557  27.826  43.565   5.037
93573W        W58558  42.840   9.219   2.872
93574W        W58559  24.915  13.834   3.701
93575W        W58560  22.519  14.649   0.612
93576W        W58561  17.137   6.744  12.944
93577W        W58562  42.541  12.735   1.169
93578W        W58563  11.882  33.890   3.152
93579W        W58564  33.196  29.696   1.405
93580W        W58565  29.838  16.648   4.638
93581W        W58566   8.499   6.546  13.886
93582W        W58567  38.033  22.558  11.186
93583W        W58568  20.778  19.169  13.406
93584W        W58569  35.574  10.650  12.686
93585W        W58570  34.608  19.200   3.728
93586W        W58571   1.312  11.127   3.536
93587W        W58572  32.159  35.793  14.475
93588W        W58573   9.834  17.163  13.489
93589W        W58574  40.551  44.076  14.574
93590W        W58575  39.394  19.353   4.005
93591W        W58576  36.369  14.288  13.373
93592W        W58577   7.143  42.011   4.428
93593W        W58578  27.468  16.633  14.936
93594W        W58579  24.695  42.102  10.679
93595W        W58580   1.644  12.597  14.046
93596W        W58581  29.084  38.631  12.050
93597W        W58582   5.929  25.701  10.497
93598W        W58583  37.468  34.580  11.847
93599W        W58584  28.431  38.084   4.368
93600W        W58585   9.449   0.864   0.283
93601W        W58586  11.321  11.695  12.992
93602W        W58587  17.777  33.185  13.475
93603W        W58588  33.171  14.674  12.894
93604W        W58589  36.295   0.511  10.449
93605W        W58590  16.158  42.067   4.696
93606W        W58591  11.817  34.106  11.593
93607W        W58592   3.996   4.129  11.120
93608W        W58593   7.920  14.183  11.780
93609W        W58594   2.218  38.750   0.195
93610W        W58595   8.364  33.671   0.243
93611W        W58596  26.390   8.456   2.842
93612W        W58597  17.812  15.592   1.350
93613W        W58598  16.211  32.218   5.080
93614W        W58599   7.355  38.222  12.902
93615W        W58600  13.509  18.620  13.786
93616W        W58601   1.044   8.737   2.971
93617W        W58602   5.691  35.965   3.737
93618W        W58603  18.142  32.877   0.279
93619W        W58604  28.725  33.911   3.531
93620W        W58605  20.163  19.008   3.191
93621W        W58606  37.979  12.120   4.924
93622W        W58607  39.395  17.097  14.967
93623W        W58608  40.871   8.664   3.957
93624W        W58609  30.119  39.921  12.511
93625W        W58610  23.074  28.165  12.628
93626W        W58611  22.790   0.335  13.276
93627W        W58612  13.720  36.151  14.419
93628W        W58613  29.462   8.449  12.584
93629W        W58614   1.957  33.686  11.105
93630W        W58615  25.992  12.710  12.009
93631W        W58616  23.049  36.761   2.243
93632W        W58617   2.526  30.493   3.195
93633W        W58618   5.914  34.849  14.682
93634W        W58619  27.951   7.209   0.208
93635W        W58620  20.245  39.979  13.078
93636W        W58621  11.099  24.539  12.672
93637W        W58622   6.779  43.516   1.399
93638W        W58623  14.123  27.306  10.558
93639W        W58624  11.849  38.612   2.246
93640W        W58625  32.466  12.685   3.212
93641W        W58626  18.796  24.488   3.707
93642W        W58627  12.055  29.109   0.253
93643W        W58628  18.486  12.216   1.715
93644W        W58629  16.573  21.441  12.448
93645W        W58630   6.327   9.883  13.814
93646W        W58631  41.432   8.586  12.645
93647W        W58632  31.954  10.665   3.141
93648W        W58633   2.970  42.238   3.217
93649W        W58634  15.725  35.337  10.587
93650W        W58635  41.580  18.663   3.282
93651W        W58636   1.912  34.619   0.880
93652W        W58637  43.858  28.588   3.659
93653W        W58638  14.720   8.673   1.420
93654W        W58639  38.894   0.261  11.170
93655W        W58640  33.669  26.863   3.905
93656W        W58641  23.152   3.229   4.821
93657W        W58642  35.891  22.648   1.925
93658W        W58643  20.277  27.061  13.529
93659W        W58644  41.260   7.287  12.531
93660W        W58645   2.106   6.668   4.954
93661W        W58646  25.052  38.553   1.250
93662W        W58647  43.288  43.990   4.900
93663W        W58648  21.204   1.376   1.707
93664W        W58649  24.541  33.556  14.868
93665W        W58650  27.488  15.692  13.850
93666W        W58651  24.330  31.829  12.652
93667W        W58652  14.591  22.528   0.754
93668W        W58653  37.609   0.260   0.798
93669W        W58654  40.154  36.837  14.837
93670W        W58655  37.307  44.732  12.159
93671W        W58656  18.061  16.217   1.956
93672W        W58657  38.483  30.495   2.918
93673W        W58658  29.476   3.797  13.423
93674W        W58659  38.804   8.931   4.473
93675W        W58660  16.576  17.007  12.084
93676W        W58661  31.857  24.792   1.322
93677W        W58662  24.330  14.198  12.944
93678W        W58663   7.832  31.226  12.985
93679W        W58664  14.641  35.075   3.170
93680W        W58665  23.175  23.821   1.365
93681W        W58666   3.945  11.123  10.545
93682W        W58667   2.720  33.142  13.853
93683W        W58668  22.691  26.738  11.405
93684W        W58669  32.141  24.614   0.319
93685W        W58670   6.011  38.262  13.968
93686W        W58671  32.014   1.042  12.044
93687W        W58672  44.596  44.091  12.483
93688W        W58673  33.159  21.231  12.390
93689W        W58674   1.337  38.670  13.724
93690W        W58675  38.090  12.299   0.850
93691W        W58676   8.304  37.465  11.256
93692W        W58677  25.954  13.666   2.658
93693W        W58678  33.616  11.199  10.724
93694W        W58679  23.253  43.219  13.353
93695W        W58680  23.142   9.929  12.074
93696W        W58681  22.918  32.440  13.806
93697W        W58682  41.383  39.402  12.610
93698W        W58683  43.638  16.408   3.621
93699W        W58684   7.336   5.281   5.021
93700W        W58685  11.674  30.427   1.001
93701W        W58686   0.007  27.938  11.942
93702W        W58687   1.887  31.362  12.547
93703W        W58688  29.171  19.362  12.192
93704W        W58689  43.765  38.072   3.096
93705W        W58690   2.512  40.770   3.723
93706W        W58691   7.276  12.848  13.373
93707W        W58692  38.373   5.790  10.675
93708W        W58693  33.583  18.331   1.468
93709W        W58694   6.122  16.241  11.161
93710W        W58695   5.601  17.294  10.712
93711W        W58696   8.904  21.665   0.127
93712W        W58697  35.334  19.611   1.782
93713W        W58698  29.660   2.087  12.140
93714W        W58699   7.918  38.967   0.962
93715W        W58700  12.185   6.940  10.603
93716W        W58701  43.407   4.457  12.970
93717W        W58702  38.928  34.905   0.983
93718W        W58703  14.060  12.127  13.951
93719W        W58704  32.241   6.130  11.933
93720W        W58705   2.466   0.969   1.501
93721W        W58706  25.028  20.148  10.665
93722W        W58707   9.228   3.179   1.593
93723W        W58708  44.215  21.449  11.037
93724W        W58709   0.031  12.532   2.764
93725W        W58710  19.596  12.505  14.586
93726W        W58711  18.357  26.085   0.415
93727W        W58712  22.165  20.189   2.575
93728W        W58713  23.099  39.821   3.173
93729W        W58714  30.477   6.802   3.794
93730W        W58715  17.858  29.989  12.606
93731W        W58716  34.663  40.937  14.786
93732W        W58717  43.479  13.645  12.051
93733W        W58718  40.851  28.265   3.120
93734W        W58719  11.556  30.104  14.271
93735W        W58720   3.451  33.254   3.685
93736W        W58721  43.850   3.233   0.422
93737W        W58722  11.884  15.209  11.253
93738W        W58723  22.689  15.760  13.401
93739W        W58724  13.131  17.298   3.205
93740W        W58725  11.115  30.717  10.682
93741W        W58726  42.087  42.331  12.139
93742W        W58727  11.659  11.329   4.548
93743W        W58728  12.160  28.673  12.210
93744W        W58729  33.589  11.194   3.599
93745W        W58730  38.401   6.945  13.017
93746W        W58731   0.867  33.137  13.427
93747W        W58732   8.162  20.926  12.845
93748W        W58733  31.241  22.448   0.911
93749W        W58734  20.772   9.433  11.335
93750W        W58735  28.507  36.997   1.774
93751W        W58736  42.877   9.276   2.293
93752W        W58737  20.123  40.340  14.811
93753W        W58738  43.011  15.144   1.327
93754W        W58739  34.057  23.146  11.922
93755W        W58740  26.418  27.692  11.099
93756W        W58741   9.547   6.888   3.804
93757W        W58742  41.951  29.189  10.678
93758W        W58743   4.337  30.373  14.267
93759W        W58744  21.723  39.064  14.443
93760W        W58745  20.465  37.679  12.215
93761W        W58746   5.059   6.488  14.066
93762W        W58747  44.937  17.941  13.876
93763W        W58748   2.430  42.977  14.417
93764W        W58749  41.025  31.109  12.519
93765W        W58750  40.248   7.743  14.418
93766W        W58751  33.138  32.569  10.461
93767W        W58752   8.233   2.183   0.673
93768W        W58753  32.498   4.259   3.150
93769W        W58754   2.399  27.668   3.865
93770W        W58755  35.966  25.875   2.489
93771W        W58756  22.642  17.804   3.219
93772W        W58757  29.678   2.766  13.305
93773W        W58758  23.687  41.591   2.281
93774W        W58759   5.457  42.302  10.710
93775W        W58760  27.433  20.164   2.266
93776W        W58761  30.560  15.239   4.873
93777W        W58762  15.406  19.842  11.918
93778W        W58763  40.481  26.463  10.900
93779W        W58764  16.415  28.614   4.026
93780W        W58765  26.010  33.211  11.487
93781W        W58766  12.342   7.217  12.858
93782W        W58767  38.490   8.204   3.332
93783W        W58768  37.292  24.154   4.878
93784W        W58769  19.274   8.123  12.603
93785W        W58770  42.878  20.071   0.140
93786W        W58771  40.455  11.407  12.823
93787W        W58772  21.443  16.019  12.980
93788W        W58773  13.243  21.664  11.644
93789W        W58774  21.197  19.724   2.618
93790W        W58775  26.201   0.234   5.427
93791W        W58776  37.902  13.720   2.838
93792W        W58777  12.734  28.089  14.396
93793W        W58778  23.716  44.008   2.938
93794W        W58779  28.722  26.106   1.918
93795W        W58780  41.825  40.330  11.508
93796W        W58781   6.989  24.581  11.758
93797W        W58782  22.098  32.005  13.447
93798W        W58783  33.142  38.066  11.998
93799W        W58784  24.248  29.383   4.047
93800W        W58785  24.769   8.184  13.580
93801W        W58786   5.690  40.476   3.710
93802W        W58787  19.322  37.316   1.278
93803W        W58788   5.311   8.246   4.398
93804W        W58789  14.535  10.183   3.267
93805W        W58790  20.548  12.534  11.068
93806W        W58791  10.352   2.558   3.246
93807W        W58792  23.767   2.449   2.410
93808W        W58793   1.629  43.213  10.748
93809W        W58794   9.743   9.414  10.720
93810W        W58795   1.584  35.821   4.547
93811W        W58796  35.137  16.086   3.162
93812W        W58797  18.231  29.401  14.005
93813W        W58798  39.099  29.156   3.328
93814W        W58799  12.012   9.229   2.154
93815W        W58800  25.241  43.019  10.689
93816W        W58801  38.856   3.108  14.239
93817W        W58802   1.343   1.203   0.914
93818W        W58803  28.055  11.647  13.107
93819W        W58804  30.770  26.999   3.803
93820W        W58805   3.086  11.759   1.345
93821W        W58806  32.950  36.899   1.291
93822W        W58807  41.846  43.879   4.491
93823W        W58808  13.737  19.180   2.159
93824W        W58809  18.940  26.408  11.610
93825W        W58810   0.689  39.582  10.554
93826W        W58811  41.457  16.814  11.995
93827W        W58812   8.160  13.451   2.960
93828W        W58813  42.354  10.921   3.271
93829W        W58814  20.072   2.724   4.803
93830W        W58815  17.022  29.686  11.840
93831W        W58816  23.015  40.885  14.375
93832W        W58817  36.610   1.589   2.347
93833W        W58818   9.797  26.803   4.289
93834W        W58819  34.498   1.609  11.570
93835W        W58820   9.805  19.004   1.388
93836W        W58821  27.268   3.838   1.661
93837W        W58822  25.673  13.044  10.830
93838W        W58823  33.974  10.605   2.393
93839W        W58824   7.296   2.512   1.777
93840W        W58825   6.440  38.402  10.847
93841W        W58826   8.849  17.281  11.890
93842W        W58827   7.457  30.652   1.293
93843W        W58828  32.643  36.515  13.535
93844W        W58829  37.178   7.879  11.701
93845W        W58830  39.907  44.730  12.335
93846W        W58831  10.795  25.857   3.328
93847W        W58832  18.116  37.333   0.852
93848W        W58833  38.911   7.983  11.547
93849W        W58834  15.312   0.417   1.717
93850W        W58835  14.632  11.600  14.280
93851W        W58836  39.339  24.619  11.542
93852W        W58837  33.899  21.278  11.494
93853W        W58838  31.364  20.795   0.033
93854W        W58839  19.888  18.526   2.426
93855W        W58840  21.281  42.196   1.544
93856W        W58841  39.912  42.407  13.518
93857W        W58842  43.285  43.467   3.549
93858W        W58843  37.864  17.886  10.163
93859W        W58844  25.713  37.788  10.889
93860W        W58845  24.096  17.365   5.121
93861W        W58846  10.171  34.490   0.225
93862W        W58847  37.335  26.117   2.756
93863W        W58848   8.275  14.044   1.929
93864W        W58849   5.616  27.826  14.374
93865W        W58850   2.171  40.406   3.604
93866W        W58851  29.945  34.143   2.008
93867W        W58852  14.088  24.910   0.250
93868W        W58853  16.376  26.975  13.859
93869W        W58854  23.638   4.289  11.216
93870W        W58855   2.653  10.137   4.184
93871W        W58856  36.287  15.155  12.460
93872W        W58857  33.848  32.032   0.290
93873W        W58858  39.472   2.291  11.503
93874W        W58859  22.313  44.267   0.949
93875W        W58860  32.017   9.767  14.936
93876W        W58861  33.050   7.627   5.186
93877W        W58862   2.403  19.250   4.511
93878W        W58863   2.437  22.611   2.602
93879W        W58864  27.538  30.212  13.896
93880W        W58865   7.264  10.618  11.768
93881W        W58866  43.092  38.376  11.125
93882W        W58867   7.941   2.897  11.600
93883W        W58868  17.745  26.590   1.691
93884W        W58869  33.068   0.776  13.025
93885W        W58870  36.793  36.315   2.414
93886W        W58871  44.430  10.886   0.933
93887W        W58872   3.955  14.746  11.482
93888W        W58873  11.375  13.654  13.881
93889W        W58874  38.863  22.950   3.947
93890W        W58875  31.006  20.069  11.526
93891W        W58876  31.829  34.531  13.915
93892W        W58877  35.798   8.648  12.874
93893W        W58878  14.662   5.430  12.397
93894W        W58879   3.333  36.688  14.061
93895W        W58880   2.387  24.744  14.896
93896W        W58881  27.530  37.976   0.709
93897W        W58882  14.092  17.656  12.606
93898W        W58883   9.835  11.394  13.000
93899W        W58884   8.276  17.324   2.021
93900W        W58885  25.993   8.001   4.562
93901W        W58886  34.570  24.435  12.112
93902W        W58887  11.143  42.849   4.936
93903W        W58888  25.208   3.879   0.539
93904W        W58889  35.827  40.395   4.551
93905W        W58890  16.937  28.556   2.862
93906W        W58891  38.531  30.198   4.718
93907W        W58892   2.837   6.133  14.322
93908W        W58893  31.887  31.085  12.678
93909W        W58894  15.651  25.280  11.884
93910W        W58895   6.607   5.245   0.853
93911W        W58896  37.660  40.295  13.092
93912W        W58897  38.420   6.319  12.613
93913W        W58898   8.904  18.731   2.296
93914W        W58899   8.943  11.078  10.654
93915W        W58900  32.817  41.815  10.718
93916W        W58901  14.270   4.892   5.509
93917W        W58902  16.075  13.614   1.843
93918W        W58903  21.757  44.285   1.895
93919W        W58904   0.916   3.997   4.082
93920W        W58905  11.693   7.893  12.257
93921W        W58906  41.665  24.236   3.999
93922W        W58907  17.784  34.317   1.456
93923W        W58908  18.586  22.145  11.155
93924W        W58909  27.599   5.744  13.270
93925W        W58910  39.263  33.369  12.513
93926W        W58911  25.961   6.357   0.035
93927W        W58912   2.735   8.252   4.105
93928W        W58913   4.622   1.516   0.979
93929W        W58914  10.364  30.678   0.815
93930W        W58915  31.518  40.239  14.872
93931W        W58916   5.073  40.858   4.911
93932W        W58917  16.899  30.704  10.349
93933W        W58918  22.770  36.418  14.095
93934W        W58919   1.741  40.829  13.894
93935W        W58920  26.264  18.702   0.183
93936W        W58921  27.121   3.948   2.148
93937W        W58922   7.362  37.082  13.095
93938W        W58923  18.882  35.676   2.939
93939W        W58924  41.951  16.715   3.382
93940W        W58925  44.801  18.729   3.678
93941W        W58926  11.395   7.272  11.144
93942W        W58927   5.755  19.672  12.449
93943W        W58928  43.200  17.241  12.614
93944W        W58929  12.835  29.123  13.961
93945W        W58930   7.781  31.405   2.180
93946W        W58931  18.124   2.330   2.200
93947W        W58932  10.138  37.934  10.727
93948W        W58933  23.552  44.247  13.884
93949W        W58934  30.463  22.034  12.534
93950W        W58935  32.930   3.492  11.304
93951W        W58936  34.432  42.856   3.616
93952W        W58937   8.562   7.228   4.124
93953W        W58938  42.468   0.980   0.061
93954W        W58939  20.537   6.150  13.126
93955W        W58940  36.391  38.291   0.981
93956W        W58941   5.719  30.479  11.210
93957W        W58942  32.876  16.797   3.748
93958W        W58943   1.947  38.998   4.114
93959W        W58944  17.358  32.667   1.661
93960W        W58945  17.093  26.442  13.431
93961W        W58946  37.206  15.311   2.625
93962W        W58947  24.287   1.394  12.735
93963W        W58948  29.617  28.391  12.661
93964W        W58949  15.168  28.505  13.337
93965W        W58950   0.722  35.061  14.400
93966W        W58951   0.468  22.945   0.668
93967W        W58952  20.533  43.006   4.455
93968W        W58953  37.792   6.382   2.406
93969W        W58954  22.635   1.426   0.792
93970W        W58955  21.725  20.021  10.758
93971W        W58956  30.101  12.805   3.736
93972W        W58957  27.474  23.314   1.914
93973W        W58958   2.650  10.688  13.954
93974W        W58959  11.359  44.713  14.299
93975W        W58960   1.446   6.843   4.340
93976W        W58961  21.580  35.442  14.682
93977W        W58962   2.805   8.672   1.367
93978W        W58963  14.586  35.396  11.618
93979W        W58964  23.753   6.569   2.404
93980W        W58965  36.105   8.360   3.621
93981W        W58966  34.370  28.510  11.963
93982W        W58967  15.350  30.889  13.367
93983W        W58968  18.673  24.010   2.152
93984W        W58969  20.091   6.975   2.813
93985W        W58970   5.594  39.911   3.713
93986W        W58971  11.367  13.227  10.715
93987W        W58972  18.470  34.805  14.926
93988W        W58973  34.645   6.738  10.646
93989W        W58974   0.948  20.667  11.340
93990W        W58975  36.179   9.711   4.476
93991W        W58976  14.286  31.280  11.036
93992W        W58977  12.391  19.518  13.531
93993W        W58978  21.889  20.592   4.540
93994W        W58979   1.727  19.505  13.333
93995W        W58980  23.303   9.266   1.166
93996W        W58981  31.210  15.744   3.173
93997W        W58982  23.975  24.602  12.499
93998W        W58983  10.194  21.199  13.830
93999W        W58984  19.645   7.852  10.567
94000W        W58985  20.701  15.556   4.463
94001W        W58986  32.410  41.921   5.052
94002W        W58987  31.589   4.326   0.049
94003W        W58988  44.154  39.808   1.935
94004W        W58989  29.059  28.252  12.478
94005W        W58990  35.168  38.114   3.305
94006W        W58991  35.925   4.702  14.851
94007W        W58992   8.795  37.032   1.792
94008W        W58993  41.886  27.171  14.824
94009W        W58994  28.123  30.987  13.162
94010W        W58995  12.760  31.596   4.291
94011W        W58996  29.604  34.968   0.194
94012W        W58997  13.893  23.455  11.172
94013W        W58998  36.120  40.069   2.997
94014W        W58999  17.388  16.676  14.828
94015W        W59000  16.731  25.629   1.703
94016W        W59001  24.949   6.417  10.732
94017W        W59002  12.351  41.793  14.394
94018W        W59003  19.808  28.372   2.775
94019W        W59004  24.209  44.347   1.923
94020W        W59005  33.520  41.026   1.317
94021W        W59006  38.986  12.080  11.548
94022W        W59007  18.044  43.252  11.057
94023W        W59008  27.589  18.867  13.615
94024W        W59009  14.277   5.707   1.214
94025W        W59010   9.934   3.976  11.931
94026W        W59011  13.259  12.601   9.802
94027W        W59012  20.082  34.947  10.458
94028W        W59013  38.072  29.809   1.892
94029W        W59014  21.311  23.323  13.017
94030W        W59015  34.136   7.955  12.550
94031W        W59016  38.427  17.682  11.177
94032W        W59017  43.463   9.185   2.125
94033W        W59018  17.538  39.756  13.953
94034W        W59019  28.661  41.976  12.792
94035W        W59020  41.823  13.226   0.900
94036W        W59021  27.815  14.197   4.085
94037W        W59022  27.940  44.919   2.200
94038W        W59023  41.510   2.896   2.384
94039W        W59024   6.610   9.411  13.681
94040W        W59025  13.149  32.840   4.759
94041W        W59026  18.672   2.707   2.858
94042W        W59027  43.735   3.704  13.345
94043W        W59028  22.488  38.948  14.833
94044W        W59029  15.544  30.056  12.591
94045W        W59030  34.682  36.451  12.989
94046W        W59031   8.173   4.089  13.023
94047W        W59032  41.681  44.324   0.867
94048W        W59033  31.157  12.563  14.294
94049W        W59034  22.771  24.142  10.662
94050W        W59035   3.885   9.769  11.657
94051W        W59036  44.058  19.846   1.653
94052W        W59037   1.620  20.693  11.072
94053W        W59038  27.603   5.157   3.653
94054W        W59039   9.657  12.608  14.871
94055W        W59040  25.220  39.056  14.967
94056W        W59041   2.722   5.033  12.978
94057W        W59042  14.747  43.329  10.165
94058W        W59043  36.099  10.310   0.169
94059W        W59044  25.853   9.918   0.852
94060W        W59045   6.060  34.738  13.716
94061W        W59046  12.611  40.708   2.708
94062W        W59047  33.969  10.803  12.383
94063W        W59048   4.798  19.127  12.946
94064W        W59049  37.262  42.253   4.121
94065W        W59050  19.257  20.233  12.092
94066W        W59051   2.235  15.259  11.498
94067W        W59052  11.548  33.827  12.012
94068W        W59053  16.822  33.004   4.717
94069W        W59054  24.162   9.289  10.717
94070W        W59055   8.192  12.083  11.109
94071W        W59056   9.285  23.422  12.537
94072W        W59057   9.603  40.834   2.993
94073W        W59058  13.815  42.440   4.734
94074W        W59059  27.207  14.741  13.000
94075W        W59060   0.473  20.757   2.896
94076W        W59061  15.641  17.051   2.944
94077W        W59062  18.762   5.273   0.715
94078W        W59063  11.636  19.251   2.213
94079W        W59064   1.369   1.415   4.537
94080W        W59065   1.883   5.546   3.774
94081W        W59066  26.926  33.188  14.426
94082W        W59067   2.775  34.806  12.474
94083W        W59068  25.231  35.903  10.332
94084W        W59069  18.649  21.014   2.575
94085W        W59070  24.061   9.155  12.147
94086W        W59071  39.509  38.362   4.127
94087W        W59072  20.739  31.514  11.633
94088W        W59073  42.314   8.951  10.388
94089W        W59074  25.728  12.491   2.886
94090W        W59075  37.029  11.455   3.656
94091W        W59076  25.131  39.849  13.558
94092W        W59077  36.471  22.269  13.049
94093W        W59078   8.931   4.578   2.303
94094W        W59079  20.274   3.757  13.830
94095W        W59080  13.681  32.941   0.842
94096W        W59081   1.281  35.127   0.229
94097W        W59082   8.681   9.918  14.352
94098W        W59083  33.283  39.546   1.674
94099W        W59084  21.613  32.597   3.015
94100W        W59085  37.000  20.826  10.642
94101W        W59086  11.297  41.402  14.200
94102W        W59087  37.839  35.530  12.533
94103W        W59088   5.138  32.614   4.592
94104W        W59089  27.362   0.605  12.995
94105W        W59090  26.482  13.152  11.038
94106W        W59091  11.674  13.787  10.914
94107W        W59092  28.895  24.778  12.771
94108W        W59093  38.891  39.614   2.344
94109W        W59094  13.082  22.539  10.488
94110W        W59095  19.325  21.300  14.812
94111W        W59096   1.755   9.240  12.818
94112W        W59097  28.041   6.166  10.710
94113W        W59098  24.469   8.695   3.598
94114W        W59099  18.351  15.700   2.259
94115W        W59100  34.691  24.788  13.516
94116W        W59101  32.662  21.679   3.232
94117W        W59102   1.985  12.353  10.571
94118W        W59103  12.306  17.223   0.234
94119W        W59104  39.038  29.456  13.007
94120W        W59105  41.433  11.688   3.359
94121W        W59106  40.723   1.751  14.368
94122W        W59107  14.412  15.453  13.428
94123W        W59108   1.355  25.723   1.676
94124W        W59109  39.558  30.688   1.583
94125W        W59110  11.026  31.403  11.460
94126W        W59111   4.949   5.256  13.386
94127W        W59112  13.151  32.450  12.411
94128W        W59113   8.729   9.627  13.514
94129W        W59114   2.897   2.526   2.778
94130W        W59115  22.243  38.402  14.772
94131W        W59116   3.638   7.663  12.014
94132W        W59117  16.567  37.061   0.754
94133W        W59118  29.169  17.672  12.642
94134W        W59119  29.046  27.902   2.129
94135W        W59120  27.017  11.948  14.794
94136W        W59121  12.219  24.016   3.256
94137W        W59122  33.546  14.590  10.492
94138W        W59123   0.191   2.354  14.205
94139W        W59124  13.036  31.141   4.101
94140W        W59125   2.108  42.154   2.292
94141W        W59126  32.151  38.975  12.101
94142W        W59127  21.041   6.272  12.999
94143W        W59128  39.302   8.784   4.554
94144W        W59129   1.707  41.017  12.181
94145W        W59130  43.958  29.084   3.699
94146W        W59131  41.290   8.120   3.311
94147W        W59132  26.173  19.496   4.124
94148W        W59133   3.096   8.811   5.095
94149W        W59134  12.839   2.913   0.565
94150W        W59135   3.037  18.189   0.053
94151W        W59136  35.340  36.090  11.241
94152W        W59137  40.351  35.785  14.306
94153W        W59138  25.629  11.842   3.945
94154W        W59139   0.621   8.984   3.272
94155W        W59140   1.565  42.766  13.493
94156W        W59141  34.484   1.508   4.528
94157W        W59142  13.150  22.794  10.921
94158W        W59143  16.863  15.296   3.030
94159W        W59144  31.491  32.827  11.929
94160W        W59145  21.487  28.084  13.095
94161W        W59146   0.308  41.388   0.908
94162W        W59147  38.483  23.106   4.291
94163W        W59148   7.511   1.357   4.491
94164W        W59149   8.333   2.883  14.478
94165W        W59150  42.049   6.766   0.841
94166W        W59151  30.260   4.401   0.907
94167W        W59152  40.030  37.720  13.469
94168W        W59153   0.345  32.978  12.995
94169W        W59154  13.831   9.866  14.955
94170W        W59155  15.674  44.393   4.168
94171W        W59156  44.520   6.507   2.410
94172W        W59157   6.994   8.181  10.767
94173W        W59158  33.097  42.235   4.597
94174W        W59159  40.063   6.084  12.519
94175W        W59160  14.370  29.505  11.060
94176W        W59161  26.269  26.124   2.780
94177W        W59162  13.630  15.510  11.077
94178W        W59163  24.341  20.809   1.402
94179W        W59164  41.760  26.029   0.835
94180W        W59165  35.434   2.570   1.156
94181W        W59166  24.982  11.680   0.407
94182W        W59167  25.910  29.926  12.127
94183W        W59168  35.036  14.722  13.316
94184W        W59169  13.352  14.749  14.431
94185W        W59170  14.763  42.298   0.888
94186W        W59171  20.758  36.489   5.056
94187W        W59172  31.607   4.707   0.979
94188W        W59173  38.320  35.686  13.047
94189W        W59174   4.759  13.750   4.917
94190W        W59175  22.826  29.712   0.949
94191W        W59176   3.886   0.993   3.923
94192W        W59177  22.230   3.252   0.887
94193W        W59178   9.872  35.901  14.015
94194W        W59179  37.444  38.905   0.703
94195W        W59180   8.849  39.589  14.864
94196W        W59181  42.754  30.262   9.784
94197W        W59182   4.254  17.799   1.342
94198W        W59183  20.622  16.258  14.094
94199W        W59184  39.318   3.751   4.666
94200W        W59185  14.293  28.592   3.346
94201W        W59186  26.948  13.253   0.805
94202W        W59187  12.112  44.828  11.226
94203W        W59188   0.958  12.616   1.384
94204W        W59189  25.955  16.834   1.750
94205W        W59190  43.439  40.816   1.041
94206W        W59191  16.419  27.736  11.243
94207W        W59192  20.395  17.794  14.816
94208W        W59193  42.253  30.700   4.182
94209W        W59194  34.681  38.108   3.152
94210W        W59195   7.969  14.679   4.532
94211W        W59196  36.460  35.344   0.454
94212W        W59197  26.752  34.889   1.968
94213W        W59198  43.234  27.537   2.860
94214W        W59199   8.152  24.001  12.370
94215W        W59200  36.690  14.157  11.932
94216W        W59201  23.598  29.467  14.047
94217W        W59202  41.474  20.770   1.696
94218W        W59203  37.445  17.031  10.328
94219W        W59204  15.625  21.625   0.721
94220W        W59205   8.634  22.132  12.558
94221W        W59206   4.144  15.400   1.292
94222W        W59207   4.494  39.433   4.673
94223W        W59208  23.741  18.151  12.848
94224W        W59209   6.478   5.948  11.659
94225W        W59210   4.146   2.208   0.678
94226W        W59211  35.559  24.661   3.497
94227W        W59212   4.704  15.555   4.986
94228W        W59213  20.229  28.400   3.242
94229W        W59214   4.295  18.550  13.471
94230W        W59215  30.958  14.156   1.362
94231W        W59216  32.183  36.932   0.961
94232W        W59217  25.042  43.069  12.001
94233W        W59218  43.364  29.326   1.870
94234W        W59219  24.786   9.363  13.553
94235W        W59220  16.597  38.837  13.421
94236W        W59221  31.075  29.428  14.285
94237W        W59222  23.566  28.534  10.649
94238W        W59223  22.939  19.847   5.054
94239W        W59224   8.401  15.054   0.413
94240W        W59225  38.123  30.768   0.371
94241W        W59226  33.075   9.420  12.090
94242W        W59227   6.768   9.628  11.218
94243W        W59228   9.745   4.210   0.874
94244W        W59229  19.024   9.316  10.722
94245W        W59230  33.985   0.677  12.483
94246W        W59231  33.812  26.927  11.766
94247W        W59232   3.974  11.416  14.958
94248W        W59233  15.931  41.881   0.500
94249W        W59234  16.552   6.738  12.928
94250W        W59235  41.525  37.911  13.339
94251W        W59236  27.015  32.294  13.099
94252W        W59237  25.561  38.226  13.909
94253W        W59238  38.492  12.531  13.974
94254W        W59239   0.966  38.815   0.884
94255W        W59240  24.935  21.762   1.179
94256W        W59241   6.687  21.937   0.395
94257W        W59242  19.775  44.694  14.854
94258W        W59243  22.928  12.054   0.991
94259W        W59244   1.924  31.039   3.879
94260W        W59245  26.926   0.786  12.810
94261W        W59246  41.136  24.833   0.903
94262W        W59247  27.447  38.546  11.018
94263W        W59248   3.871   3.448  13.756
94264W        W59249  19.597  14.721   4.128
94265W        W59250   1.303  42.221   2.866
94266W        W59251  15.848  10.148  13.345
94267W        W59252  10.405  14.774  13.414
94268W        W59253  36.511   9.286  12.656
94269W        W59254  30.672  33.100   1.781
94270W        W59255  26.435  35.886  14.280
94271W        W59256  25.670  39.226  13.192
94272W        W59257  38.349  15.516   2.371
94273W        W59258  40.063  34.302   3.579
94274W        W59259   8.729  30.993  13.350
94275W        W59260  11.888  34.396  13.446
94276W        W59261  30.906  29.668   1.937
94277W        W59262  20.641  23.274   4.062
94278W        W59263  21.375   7.742   4.932
94279W        W59264  28.963   0.405   1.425
94280W        W59265  11.371  36.784  13.375
94281W        W59266  18.463  17.639  12.022
94282W        W59267   0.196  17.121  11.997
94283W        W59268  13.793  28.580   3.171
94284W        W59269  26.687  19.459  12.671
94285W        W59270  31.458  25.452  14.320
94286W        W59271   3.280  33.550   0.482
94287W        W59272  33.546   2.031  13.866
94288W        W59273  10.609  23.093   4.895
94289W        W59274  17.986  42.180  14.328
94290W        W59275  13.169  39.021  11.133
94291W        W59276  13.716  18.000   1.864
94292W        W59277  14.709   9.553  14.516
94293W        W59278  22.743  14.291  12.824
94294W        W59279   9.625  23.576   1.273
94295W        W59280  29.160  11.680  12.847
94296W        W59281   1.466  25.109  14.026
94297W        W59282  40.282  14.179   0.893
94298W        W59283  19.108  42.367   2.218
94299W        W59284  26.118   4.352  14.165
94300W        W59285   4.829  17.100  11.060
94301W        W59286   8.718   7.946  10.785
94302W        W59287  42.548  38.991  12.368
94303W        W59288  42.363  10.193   3.573
94304W        W59289  19.779  21.504   5.244
94305W        W59290  20.976  32.641   4.506
94306W        W59291  28.531  10.128   4.086
94307W        W59292  39.627  18.813   2.065
94308W        W59293   3.452  35.184  13.782
94309W        W59294  34.868  12.858  13.879
94310W        W59295  37.879  36.648  12.148
94311W        W59296  35.374  22.341   0.526
94312W        W59297   0.434  15.749  10.668
94313W        W59298  41.705  12.738   0.772
94314W        W59299   1.871  19.775  12.898
94315W        W59300  38.038   8.601   4.120
94316W        W59301  42.075  35.610   0.201
94317W        W59302   1.491  14.344  13.535
94318W        W59303  36.639  20.105   2.192
94319W        W59304  15.758  32.365   0.407
94320W        W59305  42.378  26.066   3.076
94321W        W59306  29.672  26.246   1.215
94322W        W59307  37.710  33.019  10.948
94323W        W59308  40.406  21.160   5.307
94324W        W59309  34.594  33.534  14.315
94325W        W59310  39.742   3.139   4.061
94326W        W59311  10.888  28.629   2.986
94327W        W59312  33.012  29.395  12.942
94328W        W59313  15.824  35.423   2.837
94329W        W59314  42.942  36.971  10.563
94330W        W59315   1.944   7.487  12.479
94331W        W59316  15.651  23.399  12.358
94332W        W59317   4.496   1.951  11.218
94333W        W59318  17.583  22.575   4.034
94334W        W59319  18.978  18.649  12.807
94335W        W59320  22.236  26.130   3.690
94336W        W59321   5.878  26.767   0.305
94337W        W59322  23.609  22.285   4.004
94338W        W59323  34.098  10.412   4.949
94339W        W59324  38.464  18.503   5.147
94340W        W59325   4.861  19.819   1.762
94341W        W59326  19.626  38.038  14.072
94342W        W59327   2.413  19.455   1.708
94343W        W59328   7.478   1.995   1.760
94344W        W59329  33.044  18.271   4.141
94345W        W59330  41.924   3.374   1.636
94346W        W59331  26.075   4.370  14.705
94347W        W59332  39.122  26.961   2.172
94348W        W59333  35.693  32.449   3.976
94349W        W59334  43.983  28.012   1.958
94350W        W59335  15.854  21.132  12.163
94351W        W59336   4.120  34.306  12.379
94352W        W59337  14.609  15.138   4.060
94353W        W59338  34.917  38.839  13.440
94354W        W59339  26.947   3.911  11.981
94355W        W59340  40.314  17.817   1.786
94356W        W59341   7.412  23.220  13.858
94357W        W59342  36.060  34.967  14.121
94358W        W59343   5.471   0.019   1.401
94359W        W59344  15.597   2.868  10.701
94360W        W59345  25.549   3.971   4.120
94361W        W59346  30.461   4.738  12.991
94362W        W59347  15.802  25.018   0.228
94363W        W59348  24.586  18.305  14.447
94364W        W59349  18.712   1.369   1.007
94365W        W59350  35.813  18.328   3.878
94366W        W59351  34.331  14.665   2.660
94367W        W59352  13.153  29.056   2.001
94368W        W59353  41.621   8.874  13.533
94369W        W59354  30.363  13.802  10.752
94370W        W59355  21.404  27.045  14.046
94371W        W59356  26.196   7.200   1.679
94372W        W59357  40.666  31.922  11.699
94373W        W59358  41.774  30.372  12.425
94374W        W59359  24.271  44.009   1.375
94375W        W59360  36.438  23.016   1.881
94376W        W59361  31.140  20.691  14.070
94377W        W59362  31.144  41.523  10.962
94378W        W59363  13.699  37.623  13.419
94379W        W59364  38.541  16.872   4.230
94380W        W59365   4.386  27.915  14.455
94381W        W59366   4.601   3.259   1.411
94382W        W59367  20.767  36.956   1.976
94383W        W59368  21.276  22.685  13.795
94384W        W59369  24.523  42.818  11.145
94385W        W59370  40.746  40.017   1.828
94386W        W59371  21.657   5.138   3.064
94387W        W59372   5.034  11.571  12.033
94388W        W59373   8.885  22.605  14.897
94389W        W59374  42.144  23.097   5.427
94390W        W59375   7.886  21.010  11.733
94391W        W59376   0.360  38.279  11.722
94392W        W59377  38.331  37.903   1.960
94393W        W59378   1.748  25.396  11.275
94394W        W59379  14.282   4.530   2.891
94395W        W59380  32.113  27.085  14.798
94396W        W59381  20.151  29.452  10.518
94397W        W59382  22.122  12.123  11.663
94398W        W59383  42.897  38.032   3.709
94399W        W59384   3.487  41.443  13.948
94400W        W59385  28.014  25.006  12.707
94401W        W59386  42.776   5.874   4.482
94402W        W59387  17.542  34.999  10.622
94403W        W59388  38.270  23.265  12.101
94404W        W59389  26.048  25.956  13.886
94405W        W59390  42.897   8.257  11.218
94406W        W59391  41.731  36.012  11.671
94407W        W59392  39.712   3.347  14.391
94408W        W59393   0.952  41.486   3.338
94409W        W59394   0.568   2.802   3.141
94410W        W59395  39.081  24.616   2.377
94411W        W59396  19.061   5.282  14.379
94412W        W59397  44.965  10.737   0.274
94413W        W59398   7.790  21.067  13.166
94414W        W59399  44.818  19.520  14.537
94415W        W59400  43.505   1.807   1.720
94416W        W59401  24.722   2.963  14.882
94417W        W59402  38.109  24.549  13.615
94418W        W59403  38.324  34.614   0.315
94419W        W59404  44.330  36.085   1.872
94420W        W59405  41.952  16.041   4.869
94421W        W59406  40.444  24.121   0.008
94422W        W59407  44.587  25.034   0.490
94423W        W59408  28.256  36.331  10.242
94424W        W59409  32.087   1.536   2.201
94425W        W59410  18.572  27.127   5.622
94426W        W59411  28.241  30.196  12.547
94427W        W59412  39.142   8.475   2.766
94428W        W59413  34.630   9.586  14.711
94429W        W59414   4.957  38.190   0.734
94430W        W59415  12.803  42.279  12.551
94431W        W59416  43.959  44.811   3.447
94432W        W59417  39.029  39.990  13.373
94433W        W59418  41.142  34.900  11.892
94434W        W59419  29.661   8.938  10.601
94435W        W59420  32.855  17.188   2.922
94436W        W59421  28.034   8.222  14.812
94437W        W59422  23.473  18.190   9.682
94438W        W59423  21.971  38.082  11.164
94439W        W59424  41.832  36.913   5.544
94440W        W59425   5.979  33.504  12.003
94441W        W59426  31.351  20.605   4.979
94442W        W59427   5.592   5.708   0.964
94443W        W59428  15.323   9.393  11.926
94444W        W59429   4.288  24.687  14.893
94445W        W59430  22.452   8.529  13.965
94446W        W59431   5.680  16.231   0.826
94447W        W59432  14.103  16.362  11.744
94448W        W59433  41.333   5.256   2.281
94449W        W59434  20.253  37.349   5.001
94450W        W59435   2.459  11.977  10.388
94451W        W59436  25.569  27.740  14.835
94452W        W59437   1.714  39.505  14.358
94453W        W59438  42.780  11.672   4.443
94454W        W59439  26.464  13.674   2.723
94455W        W59440  27.242  34.522  13.325
94456W        W59441  38.305  38.131  11.200
94457W        W59442   8.363  11.429  12.099
94458W        W59443  27.619  42.029  11.925
94459W        W59444  11.070  44.205  12.519
94460W        W59445  14.370   6.878   2.730
94461W        W59446  38.004  11.087  11.554
94462W        W59447  21.652  18.004   2.799
94463W        W59448  16.552  36.065   2.370
94464W        W59449  23.266  35.713   1.889
94465W        W59450  20.144  24.631  11.672
94466W        W59451  15.956  33.226  13.774
94467W        W59452  35.038  38.623   3.229
94468W        W59453  14.180   2.705  13.775
94469W        W59454  31.669  30.513  11.613
94470W        W59455  42.739  36.945   1.309
94471W        W59456  21.780  31.744  10.436
94472W        W59457   8.655   7.880   2.670
94473W        W59458  30.152  12.264   2.727
94474W        W59459  31.530  42.034  14.362
94475W        W59460   3.674  29.405   2.849
94476W        W59461  44.325  33.720   2.689
94477W        W59462  39.359  14.247  10.716
94478W        W59463  20.110  41.240  12.165
94479W        W59464  11.161   1.494  14.905
94480W        W59465  38.346  34.576  11.524
94481W        W59466  44.873  18.354   4.401
94482W        W59467  38.101  34.154  13.310
94483W        W59468  10.243  32.318  14.047
94484W        W59469   9.530  43.601  12.523
94485W        W59470  41.953  36.998   3.188
94486W        W59471  31.972  37.994  12.086
94487W        W59472  10.881  18.481  13.739
94488W        W59473  33.993   1.195  14.915
94489W        W59474   3.395  15.751  12.861
94490W        W59475   5.303  36.369  11.429
94491W        W59476  17.367  15.887   4.497
94492W        W59477   4.728  12.418   3.240
94493W        W59478   9.758  36.944  11.495
94494W        W59479   1.249  35.383   4.207
94495W        W59480  12.298  29.476   1.291
94496W        W59481  11.727  15.500   4.195
94497W        W59482  10.206  15.585  11.493
94498W        W59483  31.957  22.659  13.779
94499W        W59484   0.678  11.405   0.924
94500W        W59485  24.067  29.446   3.142
94501W        W59486  31.480  15.411   0.892
94502W        W59487  41.056  16.811  13.745
94503W        W59488  22.585  20.742   4.091
94504W        W59489  17.157   4.249  13.369
94505W        W59490  28.554  14.651  13.847
94506W        W59491  11.986  33.103  14.900
94507W        W59492  41.864   8.459  11.683
94508W        W59493  20.785  27.092   1.448
94509W        W59494  31.998  28.545  12.174
94510W        W59495  12.768  14.703   0.759
94511W        W59496  35.567  34.550  12.528
94512W        W59497  11.012  39.163   0.974
94513W        W59498  29.896   1.342   0.481
94514W        W59499  10.457  40.320   1.641
94515W        W59500  27.884  18.162  14.401
94516W        W59501  40.394  18.833  11.566
94517W        W59502  41.363  36.284  12.492
94518W        W59503   8.158  39.510  10.640
94519W        W59504   2.443  26.773  11.608
94520W        W59505  39.468  15.512   3.236
94521W        W59506  28.056  44.917   0.679
94522W        W59507  29.368  39.325   1.207
94523W        W59508  27.310   1.875  11.281
94524W        W59509   7.667   0.284   1.655
94525W        W59510  41.713  23.590  13.972
94526W        W59511  33.736  22.606  10.229
94527W        W59512   8.264  19.302   2.572
94528W        W59513  34.116  39.864   2.767
94529W        W59514  44.544   6.205  13.592
94530W        W59515  18.223   1.316   1.199
94531W        W59516   6.569   2.345   3.246
94532W        W59517  44.227  30.077  12.736
94533W        W59518  10.708  38.741  13.894
94534W        W59519  30.349   9.924   3.362
94535W        W59520   8.630  36.848   0.025
94536W        W59521  26.165  40.524   3.543
94537W        W59522   2.616   4.961   3.769
94538W        W59523  14.446  31.346  10.199
94539W        W59524  28.730   6.388  13.309
94540W        W59525  16.759  10.248  10.445
94541W        W59526  32.321  16.639   3.014
94542W        W59527  25.711  34.570  11.469
94543W        W59528  40.341  42.494   0.768
94544W        W59529   2.464  39.541  14.723
94545W        W59530  22.178  38.642   4.212
94546W        W59531  12.282  23.254   1.669
94547W        W59532  21.607   4.708  13.557
94548W        W59533   1.911  34.617  12.909
94549W        W59534  35.649  35.650  11.116
94550W        W59535  29.523  23.231  11.220
94551W        W59536  26.201   4.996   2.699
94552W        W59537   6.960   0.533   4.234
94553W        W59538  34.470  32.640   3.930
94554W        W59539  40.538  11.067  11.950
94555W        W59540   6.259  40.503  13.505
94556W        W59541   8.154   2.145   4.239
94557W        W59542  33.183  13.142  14.846
94558W        W59543  32.801   5.031  14.399
94559W        W59544  18.064  10.236   1.053
94560W        W59545  39.520  10.137   1.694
94561W        W59546  40.283   8.123  11.143
94562W        W59547  42.433  24.592  10.775
94563W        W59548   6.017  29.938  14.624
94564W        W59549  12.743  38.028   1.414
94565W        W59550  44.419  15.918   0.548
94566W        W59551  10.678  39.642  14.929
94567W        W59552  34.964   7.273  12.189
94568W        W59553  33.993  19.038   0.814
94569W        W59554  14.884   3.826  11.066
94570W        W59555  44.370  43.078  10.670
94571W        W59556  37.062  39.867   2.817
94572W        W59557  39.368  33.413   1.036
94573W        W59558  22.530  29.925  12.951
94574W        W59559  32.646  22.699   2.064
94575W        W59560  31.368   4.187  12.321
94576W        W59561  25.205  18.752  10.688
94577W        W59562  23.145  34.694  11.396
94578W        W59563  24.057  11.875  13.565
94579W        W59564  11.571  23.035  13.473
94580W        W59565  23.749  21.968   2.769
94581W        W59566  30.741  36.877   4.315
94582W        W59567  36.796  31.096   3.593
94583W        W59568  39.356   3.106   0.265
94584W        W59569  15.375  15.104  12.849
94585W        W59570  19.914  38.130  12.516
94586W        W59571  32.460  38.312  12.533
94587W        W59572  43.458   2.217  13.515
94588W        W59573  42.430  24.747  13.254
94589W        W59574  15.278  18.216  13.908
94590W        W59575  27.438  20.072   4.947
94591W        W59576  32.521   1.873   4.842
94592W        W59577  15.264  38.315  11.056
94593W        W59578  17.207  26.264   3.346
94594W        W59579   7.857  13.735   4.568
94595W        W59580  23.338  18.587  11.392
94596W        W59581  33.584  19.401  13.614
94597W        W59582  22.923  27.533  13.405
94598W        W59583  23.198  30.518   0.415
94599W        W59584  36.782  43.309  11.378
94600W        W59585  37.204   3.902  11.614
94601W        W59586  30.151   9.834  13.932
94602W        W59587   7.275  11.332  10.512
94603W        W59588  19.139  44.072  14.272
94604W        W59589  37.560  17.208   1.856
94605W        W59590  39.818  12.254   4.014
94606W        W59591  23.039  38.846  11.539
94607W        W59592  17.198  42.002  10.802
94608W        W59593  32.038  41.304   4.591
94609W        W59594  39.762  18.037  14.726
94610W        W59595  30.964  14.522   2.283
94611W        W59596  10.145  24.620  12.422
94612W        W59597  25.668  25.242   2.208
94613W        W59598  18.543  34.569  11.194
94614W        W59599  13.380  24.608  11.032
94615W        W59600   3.949   1.103  11.606
94616W        W59601  15.858  37.772  13.038
94617W        W59602  22.784  42.925  11.880
94618W        W59603  11.652  24.434   0.180
94619W        W59604  32.630  26.724   1.148
94620W        W59605  36.519   7.386  14.018
94621W        W59606   4.961  44.343   1.323
94622W        W59607  12.134  38.056  14.051
94623W        W59608  29.532   5.700   3.586
94624W        W59609  40.239  43.364   4.370
94625W        W59610  37.899  43.917  13.088
94626W        W59611  39.020   6.931   3.074
94627W        W59612  18.280  36.799   2.855
94628W        W59613  40.341  29.432  14.447
94629W        W59614  40.175  28.637   4.951
94630W        W59615  17.480   2.177  14.323
94631W        W59616   0.267  14.541  13.046
94632W        W59617   2.802  37.868  14.401
94633W        W59618  22.761  21.182   0.402
94634W        W59619  16.749  14.236  11.617
94635W        W59620  20.957  23.312   1.401
94636W        W59621  41.478  38.460  13.133
94637W        W59622  19.057  40.743   2.528
94638W        W59623  19.761  34.050   3.631
94639W        W59624  32.571  43.351  13.354
94640W        W59625  15.052   0.080  14.793
94641W        W59626   1.189  17.054   2.406
94642W        W59627  13.206  41.470   1.905
94643W        W59628  37.776  17.897   4.165
94644W        W59629  42.526   4.290   3.562
94645W        W59630  37.627  43.032  11.672
94646W        W59631  31.574  20.477   1.734
94647W        W59632  36.146  21.718   2.207
94648W        W59633  14.388  24.874  12.977
94649W        W59634  37.517  39.170   3.587
94650W        W59635  11.304   2.065   0.762
94651W        W59636   5.933  33.995  14.191
94652W        W59637  44.405  33.686  11.386
94653W        W59638   5.971  34.037   0.186
94654W        W59639  20.268  17.620  14.340
94655W        W59640  22.438   9.254   3.965
94656W        W59641   1.284  41.477   4.627
94657W        W59642   0.362  43.662   1.324
94658W        W59643  31.800   0.752  13.245
94659W        W59644  25.213  23.140   1.321
94660W        W59645  35.056   2.924  13.154
94661W        W59646  39.887  40.083   2.608
94662W        W59647  15.060   7.342  14.451
94663W        W59648  35.286   6.502  11.527
94664W        W59649   5.556  14.892  13.271
94665W        W59650  28.822  42.332   3.165
94666W        W59651  19.154  11.243   2.676
94667W        W59652  33.944  15.362   3.070
94668W        W59653  22.853  17.646  10.744
94669W        W59654  35.339   2.096   1.343
94670W        W59655  10.271   0.532   2.375
94671W        W59656  33.881  40.485  12.073
94672W        W59657  11.730  42.710  11.725
94673W        W59658  31.011  22.632  11.409
94674W        W59659   8.323  37.455  13.034
94675W        W59660  35.131  31.864   0.820
94676W        W59661  17.288   4.447   2.695
94677W        W59662  43.754  41.261   0.857
94678W        W59663   5.417   8.189  14.563
94679W        W59664  33.562  10.298  14.753
94680W        W59665  25.010  40.020  13.062
94681W        W59666  24.379   1.842   3.379
94682W        W59667  11.307  27.289   4.562
94683W        W59668  29.450   6.630  10.757
94684W        W59669  23.069  44.327   3.630
94685W        W59670  15.695  19.653  11.108
94686W        W59671  33.149   7.843  14.466
94687W        W59672  44.031  35.319  14.550
94688W        W59673  42.814  22.592  13.587
94689W        W59674  29.504  33.871   4.104
94690W        W59675  38.393   2.636   3.198
94691W        W59676  30.559  33.539   2.976
94692W        W59677   9.547  23.594   0.724
94693W        W59678   6.939   0.056  14.154
94694W        W59679  27.655  43.070   5.030
94695W        W59680  28.725   6.665  14.746
94696W        W59681  16.609  35.176  12.738
94697W        W59682   3.616  21.791   3.436
94698W        W59683  16.770  44.726  12.410
94699W        W59684  43.008  29.651   2.811
94700W        W59685  11.748  29.763   4.013
94701W        W59686  17.338  24.919  13.197
94702W        W59687  37.571   1.545  11.714
94703W        W59688  18.050  43.808  14.012
94704W        W59689  10.521   5.804   4.554
94705W        W59690  33.605  31.258   2.462
94706W        W59691  20.240  38.504   0.647
94707W        W59692  32.872  25.548   4.163
94708W        W59693  24.672  23.648   1.192
94709W        W59694  13.665   9.118  11.431
94710W        W59695  39.060  37.535  13.069
94711W        W59696  30.815  14.233  11.585
94712W        W59697   6.908  11.895   2.186
94713W        W59698  12.700  26.435  12.606
94714W        W59699  16.520   1.541  14.159
94715W        W59700  38.083   9.156   2.335
94716W        W59701  17.662   0.088  14.911
94717W        W59702  24.655   2.453   3.382
94718W        W59703   0.935  41.564   0.522
94719W        W59704  26.002  18.390  10.529
94720W        W59705  10.885   6.736  11.843
94721W        W59706  40.927  31.186   3.125
94722W        W59707  25.203  15.241  11.969
94723W        W59708  38.644  18.148   3.069
94724W        W59709  22.522  42.547  13.981
94725W        W59710  33.433  42.574  11.171
94726W        W59711  23.903  37.502   4.186
94727W        W59712  17.043  15.045   0.037
94728W        W59713  30.371  12.376   4.199
94729W        W59714  38.147  14.510  13.541
94730W        W59715  14.685  12.276  13.542
94731W        W59716  15.138  20.114   0.209
94732W        W59717  37.919  18.637  13.444
94733W        W59718  33.531  44.051   4.491
94734W        W59719   4.234  23.988   2.241
94735W        W59720  27.917  27.476   3.854
94736W        W59721  10.456  15.805   2.780
94737W        W59722  17.440  24.265   4.144
94738W        W59723   1.446   5.995  10.696
94739W        W59724  33.465  32.376  12.360
94740W        W59725  29.813  34.650   2.805
94741W        W59726   7.232  20.681  12.114
94742W        W59727  16.815  20.013  10.600
94743W        W59728  21.788  30.448  13.560
94744W        W59729  42.799  43.778   4.155
94745W        W59730   5.820  28.236   4.570
94746W        W59731  15.714   6.187  13.385
94747W        W59732  28.464  44.926   4.583
94748W        W59733   5.168   1.988  13.551
94749W        W59734  28.006  36.641  13.056
94750W        W59735  28.725  28.959   3.309
94751W        W59736  28.216  18.143  10.794
94752W        W59737  21.529  22.039   4.002
94753W        W59738  13.911  34.117  13.593
94754W        W59739  13.161   3.193  14.381
94755W        W59740  36.887  23.219   3.564
94756W        W59741  10.244   1.052   2.393
94757W        W59742  32.175  28.112  10.738
94758W        W59743  12.059   2.457  10.678
94759W        W59744  42.362  10.141  10.584
94760W        W59745  38.992  26.326  12.807
94761W        W59746  31.819  42.772  11.536
94762W        W59747  27.504   7.971   4.597
94763W        W59748  42.726  15.354  12.598
94764W        W59749   4.797  26.486   4.890
94765W        W59750  41.313  43.535  12.921
94766W        W59751  12.652   5.066   3.218
94767W        W59752  12.494  11.835  13.379
94768W        W59753  30.901  40.712  11.726
94769W        W59754  14.127  31.567   3.626
94770W        W59755  14.126  12.949  11.207
94771W        W59756   0.409  41.877   2.772
94772W        W59757  39.283   2.005  12.046
94773W        W59758  44.352   9.360  10.413
94774W        W59759  14.934  37.542  12.407
94775W        W59760  36.967  21.728   2.696
94776W        W59761   2.237  14.388  13.003
94777W        W59762  20.511  41.763   4.514
94778W        W59763  37.672  25.757  11.457
94779W        W59764  20.607   8.600  12.378
94780W        W59765  30.403   7.909  11.262
94781W        W59766  24.031  24.336   1.776
94782W        W59767  18.336  32.932   1.792
94783W        W59768  13.798  36.662  14.466
94784W        W59769  42.068  31.514  12.882
94785W        W59770   5.622  37.553  10.609
94786W        W59771  24.949  20.893  13.596
94787W        W59772  39.451   0.969  14.506
94788W        W59773  22.624   1.110   1.197
94789W        W59774  15.367   6.670   1.852
94790W        W59775  27.966  30.213  14.947
94791W        W59776  30.110  24.455   2.308
94792W        W59777   2.161  37.051   0.690
94793W        W59778  24.490   7.228  13.263
94794W        W59779  27.448   4.808   4.813
94795W        W59780  11.306  29.209   2.255
94796W        W59781  11.696  37.137   3.647
94797W        W59782   8.154  31.963   3.117
94798W        W59783   7.656  35.275  11.925
94799W        W59784  22.962  27.982  12.111
94800W        W59785   9.585  29.609   0.438
94801W        W59786   3.064  35.000   0.373
94802W        W59787   5.155  39.002  11.768
94803W        W59788   4.983  34.579  10.202
94804W        W59789  44.348  35.331  11.260
94805W        W59790  26.473   7.674  14.527
94806W        W59791  13.585   2.316   4.145
94807W        W59792  39.965  13.350  14.310
94808W        W59793  11.070  41.436   3.604
94809W        W59794  34.339  17.695   3.374
94810W        W59795  30.734  38.751   3.174
94811W        W59796  35.220  16.252   2.661
94812W        W59797   2.195  11.885  12.489
94813W        W59798  31.175   2.537   0.875
94814W        W59799  27.974  23.901  13.800
94815W        W59800  29.987   6.309   0.176
94816W        W59801   4.891  38.752   4.670
94817W        W59802  12.139   6.396  12.024
94818W        W59803  11.321   9.864   1.825
94819W        W59804  43.288  32.634  12.903
94820W        W59805   8.001  34.836  12.924
94821W        W59806   8.684  31.430  12.030
94822W        W59807  17.367   8.646  14.325
94823W        W59808  10.352  18.099  10.370
94824W        W59809  27.588  36.649   0.817
94825W        W59810  32.929  41.238   4.578
94826W        W59811  32.888  41.915   2.281
94827W        W59812  37.529  32.887  13.628
94828W        W59813  32.330  25.714  13.395
94829W        W59814  17.496   6.264   1.491
94830W        W59815  25.794  43.767   5.459
94831W        W59816  21.184  16.349   4.493
94832W        W59817   9.941   1.400  10.715
94833W        W59818   5.799  18.384   3.826
94834W        W59819   7.724   3.729  10.572
94835W        W59820   1.814  33.624   2.717
94836W        W59821  10.501  41.058   1.096
94837W        W59822  34.855  13.726  10.813
94838W        W59823  41.267  11.226  12.437
94839W        W59824  41.573  34.210   1.125
94840W        W59825  38.463  33.972   4.543
94841W        W59826   3.022  31.066  13.346
94842W        W59827   1.283  18.317   2.766
94843W        W59828  18.075  13.745   1.835
94844W        W59829  13.709  33.653   1.891
94845W        W59830  37.638  44.280   1.421
94846W        W59831  44.404   6.275  12.597
94847W        W59832  34.741  18.044   2.289
94848W        W59833  42.999  12.091   4.667
94849W        W59834  35.981  11.282  12.146
94850W        W59835  24.567  27.041  14.959
94851W        W59836  20.119   5.832  11.050
94852W        W59837  11.197  20.044   4.619
94853W        W59838  19.034  25.161  14.849
94854W        W59839  29.430   2.792  14.252
94855W        W59840  22.670  39.771   4.907
94856W        W59841  44.954  24.720  12.413
94857W        W59842  34.435  25.208  13.314
94858W        W59843  38.045  31.372   4.124
94859W        W59844  11.196  39.403  12.409
94860W        W59845  42.097  17.878   4.438
94861W        W59846  16.758  29.745   0.398
94862W        W59847  12.109  16.796  12.860
94863W        W59848  15.859  30.923   4.580
94864W        W59849   2.273   2.719   1.930
94865W        W59850  40.031   2.971   3.664
94866W        W59851   7.983   8.026   4.240
94867W        W59852   0.837  27.345  14.717
94868W        W59853  26.449   0.033  12.376
94869W        W59854   1.375  27.726   1.196
94870W        W59855  35.474  17.803   4.122
94871W        W59856  44.537  15.876   2.794
94872W        W59857  23.455  23.161  13.322
94873W        W59858  39.498  22.528  13.824
94874W        W59859   2.002  17.827   4.102
94875W        W59860   1.851   1.182   2.189
94876W        W59861  33.244  35.561   2.306
94877W        W59862  34.851   1.559   3.334
94878W        W59863  28.452  36.403   1.174
94879W        W59864  40.263   2.631  12.649
94880W        W59865  20.243  29.189  11.466
94881W        W59866   8.065  34.999  12.004
94882W        W59867  24.645  28.676  13.043
94883W        W59868  32.075  37.341   0.686
94884W        W59869  29.407   2.449   3.164
94885W        W59870  44.774  27.006  13.853
94886W        W59871  41.085  35.715   2.196
94887W        W59872   7.757  23.674   0.001
94888W        W59873   2.812  11.183  13.044
94889W        W59874  22.026  38.565  13.400
94890W        W59875  37.940  18.015   0.763
94891W        W59876   2.331  18.199  11.232
94892W        W59877  13.409   1.144   1.849
94893W        W59878  37.383  26.122  10.539
94894W        W59879  25.199   3.551   3.652
94895W        W59880   4.434  28.116   2.075
94896W        W59881  39.777  15.420   1.311
94897W        W59882  11.391   5.929   1.418
94898W        W59883  12.152  42.932  11.399
94899W        W59884  44.697   4.157   3.581
94900W        W59885  38.315   1.683   3.563
94901W        W59886  39.806  28.166   3.087
94902W        W59887  13.052  14.229  11.958
94903W        W59888  21.753  23.524   4.507
94904W        W59889  35.911  28.918  12.996
94905W        W59890  43.723  38.969  12.944
94906W        W59891  27.995  38.397  14.909
94907W        W59892  26.073  35.101  10.702
94908W        W59893  31.542  13.173  12.920
94909W        W59894  30.627  24.101  12.817
94910W        W59895   2.279  12.401   0.259
94911W        W59896  26.062   0.884   2.463
94912W        W59897   4.168  24.416   3.364
94913W        W59898  38.023   9.671  13.317
94914W        W59899  40.808  36.909  12.082
94915W        W59900  27.115   5.711  12.506
94916W        W59901  33.282  42.016   0.869
94917W        W59902   3.486  27.213   0.805
94918W        W59903  44.787  17.868   5.288
94919W        W59904  16.286  35.377  14.827
94920W        W59905  39.289  24.532   1.460
94921W        W59906  36.516  18.589   4.370
94922W        W59907  31.580  16.769   4.651
94923W        W59908   5.985  13.248   4.044
94924W        W59909  31.047  35.710   0.969
94925W        W59910  27.039  18.515   3.138
94926W        W59911  21.839  33.632  14.723
94927W        W59912  14.472  34.693   0.781
94928W        W59913   0.058  32.192  14.191
94929W        W59914  31.591   4.008  14.196
94930W        W59915  27.143   7.133   4.662
94931W        W59916  30.310   4.827  10.656
94932W        W59917   2.514  11.662  11.208
94933W        W59918   1.204  14.803  12.872
94934W        W59919  27.917  39.438  14.922
94935W        W59920  18.246  44.990   2.214
94936W        W59921  11.961  29.421   5.058
94937W        W59922  31.411  30.951   1.187
94938W        W59923  22.012  14.551  12.367
94939W        W59924   1.714  19.511  12.438
94940W        W59925   5.166  31.338   4.075
94941W        W59926  32.938  22.082   0.475
94942W        W59927  26.447  25.601   4.174
94943W        W59928  32.434   6.603  12.031
94944W        W59929  21.206  31.676   4.575
94945W        W59930  10.818  11.605  12.974
94946W        W59931  34.873  37.585  11.530
94947W        W59932   3.361  15.861  11.823
94948W        W59933  10.818  34.491  13.377
94949W        W59934  37.666  14.757  13.442
94950W        W59935  40.945  27.331   4.357
94951W        W59936  35.027  22.965  14.081
94952W        W59937  22.889  40.518   0.681
94953W        W59938  29.183   6.439   2.060
94954W        W59939  43.081  25.730  12.829
94955W        W59940  14.156   6.731   0.458
94956W        W59941   2.935  39.790  11.641
94957W        W59942   8.264  36.874   0.381
94958W        W59943  17.580  22.468  13.226
94959W        W59944   4.885  29.420   4.684
94960W        W59945  40.166  24.150   5.332
94961W        W59946  32.756  41.256   0.872
94962W        W59947   2.899  39.415   3.680
94963W        W59948  28.132  10.354   4.324
94964W        W59949  26.691  35.814  12.891
94965W        W59950  12.795  18.053   1.699
94966W        W59951  17.826  13.198   2.812
94967W        W59952  14.343  24.001   1.443
94968W        W59953  39.334  22.471  12.547
94969W        W59954  27.415  21.676   0.023
94970W        W59955  33.413  34.830   0.803
94971W        W59956  19.772  38.596   4.205
94972W        W59957   1.206  31.655   3.250
94973W        W59958  31.462  19.656   0.293
94974W        W59959  19.183  42.021   3.681
94975W        W59960  14.530  19.111   1.851
94976W        W59961  23.404  22.795   3.138
94977W        W59962  30.929  12.368   1.872
94978W        W59963  31.972  20.791  11.976
94979W        W59964  20.936  19.392   0.334
94980W        W59965   1.904  22.899  11.934
94981W        W59966   9.791  32.564  10.360
94982W        W59967  36.263  20.213  12.062
94983W        W59968  39.857  20.722   4.642
94984W        W59969  33.368  19.581  11.635
94985W        W59970  39.065   0.533   0.724
94986W        W59971  41.512  43.666  11.981
94987W        W59972  43.235   8.798  14.232
94988W        W59973  38.601  25.503   1.372
94989W        W59974  12.007  36.895   0.898
94990W        W59975  32.923  37.876  13.373
94991W        W59976  36.974  14.708   3.614
94992W        W59977  18.396  36.196   4.718
94993W        W59978  41.587  33.449  12.860
94994W        W59979  36.084   8.460   3.100
94995W        W59980  14.141  26.494  11.969
94996W        W59981  18.322   3.131   4.181
94997W        W59982   1.402  36.764   4.625
94998W        W59983  41.439  27.742   2.796
94999W        W59984   1.309   9.206  12.361
95000W        W59985   4.440  40.985  11.587
95001W        W59986   8.165  25.203  11.104
95002W        W59987   4.624  34.840  14.285
95003W        W59988  37.151  39.043  14.341
95004W        W59989  17.685  27.290  14.344
95005W        W59990   9.573  23.576  12.953
95006W        W59991  12.803  33.437  13.139
95007W        W59992  21.438  33.726  13.467
95008W        W59993  43.434  21.752  10.226
95009W        W59994  41.828  31.882   1.256
95010W        W59995   3.020  31.552  13.048
95011W        W59996  37.841   2.389  11.267
95012W        W59997  34.967  34.204  14.821
95013W        W59998  31.403  35.355   3.759
95014W        W59999  33.482  27.457   4.818
95015W        W60000   8.024  29.640   3.408
95016W        W60001  25.134  29.463  11.615
95017W        W60002  43.249  33.248   5.251
95018W        W60003  25.801   6.663  12.409
95019W        W60004   0.924  11.742   0.527
95020W        W60005  38.581  37.304  11.697
95021W        W60006  10.609  35.051  10.610
95022W        W60007  18.710  31.655  14.118
95023W        W60008   2.112  14.904  13.266
95024W        W60009  24.418  25.195  11.677
95025W        W60010  16.808  22.475   2.848
95026W        W60011  32.677  20.069   2.380
95027W        W60012  43.540   3.251   3.539
95028W        W60013  32.918   6.932  14.711
95029W        W60014   6.265  12.837  13.519
95030W        W60015  44.787  26.238  11.051
95031W        W60016  34.604  21.718  11.200
95032W        W60017  23.740   3.596   5.007
95033W        W60018  28.466  13.753   1.878
95034W        W60019  24.023  29.620  13.339
95035W        W60020  35.484  42.592  13.297
95036W        W60021  18.604   1.907   3.696
95037W        W60022  31.065  17.320  12.295
95038W        W60023  26.279   3.263  14.308
95039W        W60024   1.936   6.832  13.771
95040W        W60025  15.235  14.228  14.272
95041W        W60026   8.251  30.551  10.914
95042W        W60027  39.294  14.482   3.239
95043W        W60028  44.755  16.338   2.739
95044W        W60029  13.728   5.485   4.806
95045W        W60030  13.187  20.766   1.391
95046W        W60031   5.325  41.399   0.127
95047W        W60032  22.367  39.121   4.123
95048W        W60033  15.840  35.885   0.433
95049W        W60034  12.223  39.400   3.145
95050W        W60035  11.436  21.280  10.041
95051W        W60036  42.889  19.611   0.500
95052W        W60037  28.883  22.824   0.306
95053W        W60038  36.883  18.847   2.450
95054W        W60039  16.287  25.941  11.610
95055W        W60040   3.726  20.698   4.741
95056W        W60041  40.692  43.225   1.377
95057W        W60042  36.573  11.767   4.520
95058W        W60043  41.610  25.642   0.497
95059W        W60044   5.695  37.330  13.876
95060W        W60045  35.978  26.383   2.595
95061W        W60046   9.441  43.848  10.680
95062W        W60047  24.539  13.575  11.558
95063W        W60048  23.162  12.664  13.130
95064W        W60049  12.861  44.113  11.993
95065W        W60050  11.183   1.064   1.882
95066W        W60051  28.977  28.320   2.436
95067W        W60052  28.968  37.707   3.749
95068W        W60053   6.522  10.584  11.644
95069W        W60054  27.277  26.127  12.435
95070W        W60055   0.026  26.013   9.534
95071W        W60056  19.977  13.758  12.503
95072W        W60057  16.028  19.586   1.143
95073W        W60058  20.653  44.073  11.110
95074W        W60059  14.196  35.372   4.373
95075W        W60060  40.275  14.867   3.236
95076W        W60061   9.824  21.089  13.469
95077W        W60062  34.558  28.882  13.024
95078W        W60063  34.009  16.464   1.308
95079W        W60064  15.044  35.269  14.388
95080W        W60065  20.465   6.450   2.358
95081W        W60066  25.502   0.503   3.756
95082W        W60067  17.196   5.543  12.131
95083W        W60068  21.597   6.663  10.657
95084W        W60069   3.262  15.529  13.308
95085W        W60070  30.329   0.826  12.871
95086W        W60071  37.920   5.667   4.547
95087W        W60072  36.539   3.866   2.838
95088W        W60073   8.633  27.868   4.016
95089W        W60074  32.530  37.006   3.434
95090W        W60075  32.065   4.545  14.901
95091W        W60076   8.914  18.734   4.611
95092W        W60077  12.908   6.317  11.571
95093W        W60078  36.527  36.688   2.624
95094W        W60079  24.273  44.933  11.598
95095W        W60080  19.232  15.275   2.339
95096W        W60081  10.430  17.790  11.194
95097W        W60082  44.587  38.925   3.998
95098W        W60083   2.745   4.463   0.982
95099W        W60084  28.367   9.181  13.924
95100W        W60085   6.601  21.024  11.232
95101W        W60086  13.188   4.999   3.044
95102W        W60087   8.225  11.087  10.481
95103W        W60088  29.974   3.621  13.488
95104W        W60089   7.334   0.413   3.190
95105W        W60090  25.248  27.723  13.871
95106W        W60091  24.107  27.921   0.466
95107W        W60092  15.808  41.720   4.528
95108W        W60093  23.710  12.304  11.948
95109W        W60094  28.848  31.966  11.408
95110W        W60095  13.082  14.558  10.555
95111W        W60096  42.608   9.370  14.880
95112W        W60097  26.152  43.293  13.010
95113W        W60098  28.619   4.750  12.618
95114W        W60099  31.992   3.025   1.385
95115W        W60100   3.234  37.857   1.368
95116W        W60101  15.329  31.514   0.835
95117W        W60102  17.300  38.960  12.270
95118W        W60103  17.262  42.795  11.475
95119W        W60104   3.890  24.624   0.494
95120W        W60105  42.958   2.910  10.741
95121W        W60106  23.640  34.972   1.807
95122W        W60107  34.580  26.609  13.614
95123W        W60108  35.807   9.915  13.827
95124W        W60109   7.460   5.733   1.349
95125W        W60110  38.365  16.611  10.542
95126W        W60111  15.622   2.698  11.947
95127W        W60112   5.771  24.005  10.464
95128W        W60113  41.284   6.779   2.190
95129W        W60114  33.191   3.304  10.921
95130W        W60115  40.981  32.564   0.400
95131W        W60116  43.489  29.889   2.867
95132W        W60117  34.496   6.365  13.807
95133W        W60118  18.276  37.498   4.561
95134W        W60119  39.746  14.049   1.470
95135W        W60120  40.446  23.054   0.890
95136W        W60121  29.511  18.635   0.917
95137W        W60122  29.144   5.398   4.729
95138W        W60123  22.789  33.635  10.676
95139W        W60124   4.638   1.679  11.655
95140W        W60125  27.938  39.264   2.851
95141W        W60126  12.261  44.221  14.416
95142W        W60127   8.265  25.115   1.909
95143W        W60128   5.601  36.468   0.231
95144W        W60129  35.799  20.850  11.568
95145W        W60130   3.920  20.587  11.554
95146W        W60131  44.197  17.168   2.997
95147W        W60132  12.171   1.152  11.198
95148W        W60133  42.124  23.469  14.429
95149W        W60134  24.228  32.729  12.385
95150W        W60135   3.902   6.691   2.702
95151W        W60136   9.602   4.480  10.463
95152W        W60137  19.112  20.773  13.070
95153W        W60138  43.610  41.584   4.082
95154W        W60139  19.305  23.337   3.750
95155W        W60140  10.709  11.880   4.571
95156W        W60141  24.381   5.429  12.470
95157W        W60142  14.573  28.505  12.135
95158W        W60143   0.653  40.542  13.543
95159W        W60144  29.660   7.832   1.370
95160W        W60145   1.290  21.996  13.037
95161W        W60146   6.460  36.113   1.559
95162W        W60147  34.547  16.636  12.685
95163W        W60148  38.901   3.284  14.960
95164W        W60149  23.189  31.482   1.921
95165W        W60150  18.434  22.452   0.263
95166W        W60151  37.276  28.138   0.530
95167W        W60152   7.766   1.990  12.643
95168W        W60153  34.959  22.638   2.808
95169W        W60154  24.832  11.706   4.648
95170W        W60155  33.427  40.864   0.337
95171W        W60156  16.642   9.459   0.223
95172W        W60157   3.407  29.882   1.775
95173W        W60158  22.034  25.454   4.648
95174W        W60159  39.231  32.556   0.024
95175W        W60160   7.954  41.860   0.937
95176W        W60161   6.153  14.603   0.938
95177W        W60162  41.709   4.777  10.296
95178W        W60163  17.345  42.923   1.768
95179W        W60164  34.022  21.089  11.962
95180W        W60165  34.357   7.773   2.125
95181W        W60166  21.673  23.499   1.539
95182W        W60167  25.566  15.727  13.528
95183W        W60168  10.458  27.644  11.885
95184W        W60169  34.931  21.167  13.854
95185W        W60170   6.545  14.975   0.878
95186W        W60171  29.494  41.404   3.843
95187W        W60172   7.903  10.738  11.374
95188W        W60173  23.516  43.948  14.453
95189W        W60174  37.017  12.101   0.309
95190W        W60175  23.183  42.522  11.930
95191W        W60176  18.631  34.497   4.710
95192W        W60177  36.966  13.198  11.610
95193W        W60178  42.518  37.394  12.980
95194W        W60179  32.059  28.148  13.297
95195W        W60180  43.956  14.380  11.586
95196W        W60181  37.407  19.446   2.632
95197W        W60182   6.726  34.406   0.027
95198W        W60183  42.928  42.062   3.174
95199W        W60184  19.405  38.499   1.303
95200W        W60185  40.228  27.165   0.876
95201W        W60186  44.500   3.920  10.492
95202W        W60187  12.668  36.017   2.356
95203W        W60188  33.792  38.905   1.090
95204W        W60189  19.149   0.443  10.633
95205W        W60190  40.134  29.066  12.458
95206W        W60191  14.644  35.249  11.144
95207W        W60192   3.805  37.041   3.273
95208W        W60193  30.305  17.599   3.492
95209W        W60194   0.194  21.225   0.410
95210W        W60195   5.409  26.925   1.336
95211W        W60196  28.124  44.403   1.024
95212W        W60197   0.969  36.615  12.047
95213W        W60198  42.849  29.173   2.902
95214W        W60199  22.196  34.547  10.654
95215W        W60200  20.834   3.350   3.244
95216W        W60201  25.165   0.776  12.552
95217W        W60202  44.020  24.962   4.360
95218W        W60203  42.880   2.969  14.568
95219W        W60204  12.602  19.737  14.861
95220W        W60205  36.431   3.550   0.229
95221W        W60206   3.809  37.572  13.951
95222W        W60207  35.814  36.738  10.639
95223W        W60208   5.795  18.492   4.650
95224W        W60209  10.237  20.190   4.157
95225W        W60210  37.816  11.859   3.255
95226W        W60211  44.906  15.850   1.439
95227W        W60212  28.989  42.855  10.635
95228W        W60213   6.933  21.978  11.991
95229W        W60214  26.974  11.191   4.366
95230W        W60215  36.297  44.436   5.184
95231W        W60216   1.763   5.748   0.819
95232W        W60217  41.841  28.674  10.476
95233W        W60218   9.894  17.799  14.771
95234W        W60219  17.489  42.921  10.986
95235W        W60220  25.013   5.840   4.256
95236W        W60221  28.616   3.340  10.541
95237W        W60222  24.547  43.739   4.119
95238W        W60223  39.381  43.205  14.128
95239W        W60224  44.415  24.551   0.337
95240W        W60225  33.093  14.892  10.645
95241W        W60226   6.464  32.380  12.781
95242W        W60227   1.318  40.826   2.303
95243W        W60228  11.623  14.215   1.405
95244W        W60229  24.861  24.578  13.849
95245W        W60230  31.280  26.897  12.562
95246W        W60231   6.639  17.503  11.196
95247W        W60232  25.187  29.234   5.044
95248W        W60233  32.757   6.174  12.019
95249W        W60234  17.620  25.585  12.592
95250W        W60235  13.678  15.606  10.153
95251W        W60236  28.559  32.402  11.464
95252W        W60237  26.027  36.282   4.300
95253W        W60238  20.039  31.138  12.507
95254W        W60239  37.041  12.093  13.876
95255W        W60240   4.651  37.403  13.422
95256W        W60241   5.333  37.418   2.812
95257W        W60242  11.124  15.132  11.632
95258W        W60243  44.847  23.025  10.604
95259W        W60244   8.825  11.364   1.703
95260W        W60245  16.585  28.134   3.188
95261W        W60246  17.257  21.632  13.296
95262W        W60247  15.180  26.242  14.874
95263W        W60248   7.829  40.476  14.965
95264W        W60249  11.823   1.324  11.945
95265W        W60250  21.569  19.782  11.938
95266W        W60251  13.770   3.641   3.258
95267W        W60252  30.438   6.235  14.939
95268W        W60253  33.218  35.008  10.489
95269W        W60254  43.362  43.043   3.798
95270W        W60255  10.377   4.901   2.350
95271W        W60256  23.041  33.602   1.144
95272W        W60257  29.368  26.090  11.555
95273W        W60258   3.646  36.390   2.197
95274W        W60259   0.687   3.722  14.494
95275W        W60260   6.879   7.396  13.364
95276W        W60261  23.236  43.814  11.597
95277W        W60262   1.850   8.074   0.387
95278W        W60263  22.313  23.233   4.571
95279W        W60264   6.484  42.462  10.124
95280W        W60265  20.306   9.192   0.198
95281W        W60266  32.941  31.872   2.604
95282W        W60267  14.068   7.853   4.012
95283W        W60268  32.520   3.704   3.102
95284W        W60269  23.469   5.659   1.283
95285W        W60270  34.076  19.614  12.143
95286W        W60271   6.302  11.367  12.081
95287W        W60272  31.867  42.832  10.728
95288W        W60273   6.051  35.901  10.835
95289W        W60274  43.027  37.434  12.916
95290W        W60275  18.765  32.951  13.442
95291W        W60276  25.772   8.181   1.405
95292W        W60277  29.512  36.345   1.454
95293W        W60278  36.925   1.814   3.174
95294W        W60279  38.921  31.373   2.622
95295W        W60280  42.571  17.633  11.647
95296W        W60281  30.695  35.612   2.426
95297W        W60282  24.404  37.665  12.047
95298W        W60283  17.304  15.672   1.355
95299W        W60284   8.068  30.092   1.919
95300W        W60285   8.906  36.988   4.778
95301W        W60286  19.560  28.946  11.991
95302W        W60287   6.985   2.402  11.709
95303W        W60288  43.587  12.682   1.837
95304W        W60289  30.619  40.751   2.315
95305W        W60290  16.936  36.828   1.707
95306W        W60291  23.158  44.538   4.666
95307W        W60292  20.947  16.301   1.066
95308W        W60293  32.507  31.663   0.350
95309W        W60294  38.826  13.810   2.694
95310W        W60295  37.396  30.654  13.964
95311W        W60296  29.379  29.475   1.934
95312W        W60297  24.925  33.628  11.994
95313W        W60298  21.944  30.427   3.778
95314W        W60299  27.158  43.448  11.266
95315W        W60300  25.508   7.032   3.824
95316W        W60301   3.383  43.976   3.732
95317W        W60302  44.819  43.926  12.040
95318W        W60303  37.867   9.557  12.449
95319W        W60304   0.954  27.461  10.625
95320W        W60305  26.643  21.248   4.543
95321W        W60306  44.576  25.575  11.629
95322W        W60307  43.630  22.127  12.949
95323W        W60308  32.656   8.041   2.787
95324W        W60309  25.352  33.768  11.709
95325W        W60310  23.619   3.823   3.163
95326W        W60311  22.248  21.980   2.797
95327W        W60312  40.156  16.168   4.913
95328W        W60313  37.565   9.162   2.227
95329W        W60314  26.925  32.386   1.817
95330W        W60315  25.427  40.582   4.907
95331W        W60316  19.945  10.713   2.064
95332W        W60317  40.124  12.808   2.720
95333W        W60318  10.368  40.031   0.178
95334W        W60319   6.344  16.539  13.977
95335W        W60320  15.084   0.268  13.030
95336W        W60321  43.107  26.097   1.220
95337W        W60322  14.585  26.959  14.742
95338W        W60323  44.844  39.307   0.434
95339W        W60324  31.932  11.181  11.608
95340W        W60325  25.269  36.953  13.941
95341W        W60326  30.109  44.219  14.180
95342W        W60327  10.578  26.228   0.868
95343W        W60328  36.090  32.437  11.226
95344W        W60329   5.674  24.701  12.063
95345W        W60330  16.152  30.822   2.627
95346W        W60331  33.482   5.867  10.671
95347W        W60332   8.260  33.362  12.811
95348W        W60333   0.874  31.015   1.690
95349W        W60334  20.667  24.043  12.975
95350W        W60335  41.604  36.211   9.679
95351W        W60336  16.678  17.363  12.420
95352W        W60337   6.412  24.679  10.729
95353W        W60338  21.247  27.311  12.591
95354W        W60339  33.389  43.418  10.150
95355W        W60340   3.739  35.474   3.327
95356W        W60341  25.761  10.251   4.599
95357W        W60342   6.197  34.868   2.861
95358W        W60343  42.563  23.400   0.651
95359W        W60344  18.823  22.879  11.756
95360W        W60345  26.222  18.976   1.028
95361W        W60346  43.427  17.882   4.965
95362W        W60347  43.732   4.340   1.443
95363W        W60348  29.954   5.408   3.776
95364W        W60349  22.779  17.765   2.341
95365W        W60350  37.106  30.801   1.328
95366W        W60351  17.530  14.186   2.765
95367W        W60352  20.784  25.636  14.156
95368W        W60353   3.978   0.080  12.895
95369W        W60354   8.246  27.464   0.851
95370W        W60355  23.871  26.508  14.377
95371W        W60356   8.198  27.705   3.422
95372W        W60357  37.011  24.356   1.456
95373W        W60358  15.163   5.522  12.571
95374W        W60359  12.398  15.201   0.243
95375W        W60360  11.171  26.521  13.611
95376W        W60361  44.274  20.543  11.072
95377W        W60362  35.399  15.790  10.492
95378W        W60363  43.402  16.158  14.843
95379W        W60364  21.070  32.201   0.379
95380W        W60365  18.484  38.374  12.039
95381W        W60366   4.917  27.671  14.587
95382W        W60367  44.992  11.448  14.051
95383W        W60368  15.078  24.502   4.731
95384W        W60369  14.734  17.587  13.834
95385W        W60370   4.430   1.645   1.468
95386W        W60371  29.314  27.733   0.754
95387W        W60372  24.224   0.719  13.253
95388W        W60373  43.854   5.254  10.499
95389W        W60374  15.878  27.800  10.604
95390W        W60375  12.343   3.459   1.117
95391W        W60376  27.468   9.294  13.502
95392W        W60377  28.717  13.775  13.930
95393W        W60378  32.800  14.779  14.996
95394W        W60379  33.079  25.551   2.378
95395W        W60380  27.036  27.921   1.711
95396W        W60381  32.506   9.065   2.666
95397W        W60382  41.592   7.623  11.624
95398W        W60383  16.163  34.602   0.276
95399W        W60384  19.265  31.168   0.918
95400W        W60385  14.207  37.936   1.474
95401W        W60386  38.517  33.179  12.116
95402W        W60387  10.049  32.835   2.695
95403W        W60388  34.042  44.474   3.873
95404W        W60389  23.652  34.505  11.576
95405W        W60390  38.712  43.073   0.809
95406W        W60391  29.606  27.562  11.064
95407W        W60392  18.842  23.098   3.733
95408W        W60393  16.980  41.009  13.505
95409W        W60394  11.770  40.750   0.784
95410W        W60395  16.362  41.065   3.260
95411W        W60396  44.408  25.938   0.253
95412W        W60397  26.496  41.662   2.361
95413W        W60398  17.108  21.261  11.528
95414W        W60399  34.720  16.702   3.701
95415W        W60400  25.179  10.372   4.412
95416W        W60401  40.131  22.164   2.808
95417W        W60402  43.994   1.997   3.440
95418W        W60403  42.803  26.462   0.402
95419W        W60404  15.697   2.310   4.102
95420W        W60405  12.351  32.702   3.589
95421W        W60406  19.767  16.691   2.333
95422W        W60407  43.503  18.011   0.776
95423W        W60408  25.441  16.772  12.491
95424W        W60409  28.575  34.493  12.568
95425W        W60410  24.690   7.629  12.467
95426W        W60411  19.212  36.353   3.874
95427W        W60412  34.431  42.930  10.952
95428W        W60413  38.608  16.693  12.401
95429W        W60414   2.284   4.969   2.388
95430W        W60415   2.717  37.916   1.449
95431W        W60416  18.736   1.485  12.432
95432W        W60417  32.373  17.688  14.307
95433W        W60418   4.952  15.019   2.428
95434W        W60419   1.364  29.842  14.247
95435W        W60420  38.485  30.579   2.399
95436W        W60421  19.897  40.769   0.846
95437W        W60422  25.599  25.787  12.403
95438W        W60423  19.008   7.312  11.066
95439W        W60424  44.981  14.323  11.559
95440W        W60425  24.703  32.568  13.044
95441W        W60426  10.178  21.715  13.922
95442W        W60427  24.237  28.388  13.165
95443W        W60428  24.977   9.305  14.897
95444W        W60429  30.924   1.531   2.575
95445W        W60430  23.915  34.652  10.701
95446W        W60431  19.528   7.806   2.769
95447W        W60432  31.414   9.743   2.442
95448W        W60433  20.291  29.580   1.695
95449W        W60434  41.119  31.241  11.239
95450W        W60435  42.071  40.803   4.104
95451W        W60436   5.246  32.883   3.255
95452W        W60437  36.421  11.447   4.121
95453W        W60438  11.430  32.840   4.026
95454W        W60439  32.811  37.166   1.787
95455W        W60440  39.346  27.963   3.132
95456W        W60441  24.425  20.298  12.119
95457W        W60442  39.579  26.001  12.131
95458W        W60443   7.760  28.209   1.798
95459W        W60444  17.773  10.388  14.052
95460W        W60445  14.493   4.457  12.481
95461W        W60446   8.686  15.531   4.572
95462W        W60447  12.657   6.259   2.770
95463W        W60448  32.154  16.788   0.910
95464W        W60449  15.866  19.916  11.644
95465W        W60450  32.696  34.341  11.133
95466W        W60451   1.417  13.874   0.395
95467W        W60452  12.537   4.451  10.249
95468W        W60453  41.379  29.615  14.092
95469W        W60454  35.659  20.025   1.819
95470W        W60455  13.470  32.343  11.477
95471W        W60456   6.183  21.483  14.508
95472W        W60457  27.942  42.942   2.330
95473W        W60458   2.221  18.621  12.102
95474W        W60459  40.500  37.922  12.408
95475W        W60460   5.665  35.799  11.952
95476W        W60461  14.597  18.012  14.452
95477W        W60462  23.513  28.879   2.313
95478W        W60463  10.948   0.711  14.318
95479W        W60464  40.416   7.676  10.922
95480W        W60465  14.075  17.601  10.747
95481W        W60466   1.287  24.037  11.903
95482W        W60467  43.964  16.713   2.904
95483W        W60468  10.851   0.328   1.801
95484W        W60469  37.419  38.634  12.354
95485W        W60470  34.611   2.228   1.622
95486W        W60471  23.682  29.986  10.257
95487W        W60472  25.518  27.701  11.995
95488W        W60473  27.951  16.135   1.393
95489W        W60474  33.523   6.157  12.472
95490W        W60475  13.578  39.435   1.802
95491W        W60476  12.846   2.448   1.757
95492W        W60477   3.638  25.284  12.283
95493W        W60478  29.879  23.961  13.933
95494W        W60479  42.464  14.311  13.554
95495W        W60480   0.754   6.340   1.525
95496W        W60481  21.512  29.571   4.089
95497W        W60482  19.749   0.219  14.825
95498W        W60483  41.036  33.134   2.408
95499W        W60484   3.297  18.268  12.428
95500W        W60485   8.823  33.561  11.994
95501W        W60486  19.513  10.065   2.681
95502W        W60487  23.625   2.759  12.473
95503W        W60488  15.060  30.114   2.274
95504W        W60489   9.088   1.915  12.623
95505W        W60490  17.105  38.476  11.633
95506W        W60491  38.318  23.721   0.814
95507W        W60492  24.761   2.477   0.147
95508W        W60493  41.455   0.811   4.099
95509W        W60494   7.920  13.205   3.351
95510W        W60495  21.692  17.743  14.922
95511W        W60496  23.226  41.905  14.515
95512W        W60497   4.868  41.520   5.061
95513W        W60498  41.483  44.271   0.019
95514W        W60499  17.606  20.094  11.598
95515W        W60500  20.709  33.871   2.411
95516W        W60501  29.120   0.869   1.613
95517W        W60502  12.837   9.573   4.128
95518W        W60503   5.199  22.581   2.677
95519W        W60504  29.319  22.514  10.242
95520W        W60505  19.402  32.986   2.861
95521W        W60506   7.306  38.412  11.071
95522W        W60507  21.691  11.801   4.175
95523W        W60508  39.463  38.955   2.377
95524W        W60509  33.603   0.693  10.340
95525W        W60510  39.368  31.940  10.593
95526W        W60511  12.612   7.260   1.225
95527W        W60512  41.421  32.897  11.194
95528W        W60513  32.519  41.378  14.424
95529W        W60514   9.955   1.933  12.922
95530W        W60515  26.477  11.307   2.751
95531W        W60516  24.762  12.613  13.242
95532W        W60517   6.900  10.855  14.485
95533W        W60518  39.638   0.885   1.953
95534W        W60519  38.360  18.076  13.951
95535W        W60520   4.123  36.551   2.137
95536W        W60521   2.734  11.611  11.670
95537W        W60522  28.205  15.157  11.036
95538W        W60523  38.634   3.183  11.991
95539W        W60524  14.231  10.895   3.730
95540W        W60525  44.272  20.745   3.809
95541W        W60526  43.976   3.330   4.365
95542W        W60527   5.378  41.604  13.737
95543W        W60528  42.497  16.257  13.981
95544W        W60529   7.430  10.698   4.307
95545W        W60530  18.148  33.943   2.747
95546W        W60531   7.189  12.546   2.770
95547W        W60532   8.113  12.789   1.623
95548W        W60533  15.135  11.447  14.421
95549W        W60534  10.349   5.308  12.949
95550W        W60535  37.914  14.610   3.685
95551W        W60536  24.575  27.690   0.256
95552W        W60537  43.849  41.720   5.009
95553W        W60538  19.143  27.070  13.857
95554W        W60539  10.737   6.463   1.924
95555W        W60540  43.350  38.098  12.893
95556W        W60541  22.794  21.716   4.136
95557W        W60542  27.191   1.758   3.607
95558W        W60543  13.186   4.962  12.608
95559W        W60544  40.914  25.765   3.739
95560W        W60545  43.500  26.375   3.585
95561W        W60546  17.439  38.492   1.612
95562W        W60547   9.993  38.703  11.119
95563W        W60548  34.452   5.229   3.182
95564W        W60549  28.367  41.712   0.345
95565W        W60550  16.036  35.490   3.755
95566W        W60551  10.912  33.035  10.711
95567W        W60552  42.279  14.248   3.174
95568W        W60553  31.507  36.580  12.115
95569W        W60554  36.379  12.068   3.062
95570W        W60555  27.309  27.019   1.506
95571W        W60556  37.017  18.678   1.992
95572W        W60557  28.704  25.863   4.769
95573W        W60558  31.961  43.285  12.447
95574W        W60559  30.923  14.789  13.684
95575W        W60560   9.303  15.805   4.093
95576W        W60561   4.841  25.733  14.485
95577W        W60562  38.852   6.098  12.326
95578W        W60563  12.281  22.882  11.073
95579W        W60564  21.942  44.535  13.501
95580W        W60565  38.264  33.396  10.886
95581W        W60566  15.931  35.030   2.164
95582W        W60567  34.132  18.387   4.813
95583W        W60568  18.777  21.393   2.929
95584W        W60569  27.192   5.755   4.451
95585W        W60570  41.827   5.935  12.477
95586W        W60571   1.387  28.128   0.813
95587W        W60572  29.071  16.212  12.469
95588W        W60573  30.379   3.873  14.847
95589W        W60574  24.018  39.488   1.019
95590W        W60575  42.309  39.593   3.376
95591W        W60576   5.249   8.722  11.861
95592W        W60577   0.192  38.733  11.514
95593W        W60578  25.166  32.789   3.592
95594W        W60579   7.632  39.432  13.024
95595W        W60580  20.629   2.486  11.609
95596W        W60581  38.909  20.146   3.954
95597W        W60582  39.060  31.119  13.989
95598W        W60583  23.377  12.153   4.853
95599W        W60584  28.504   0.686   0.777
95600W        W60585  29.026  33.464   2.609
95601W        W60586  38.091  24.722   0.752
95602W        W60587  14.665  19.196  13.962
95603W        W60588  20.770   2.070  13.368
95604W        W60589   6.892  10.273   1.178
95605W        W60590  43.546   9.876  12.569
95606W        W60591  43.927  30.438  13.949
95607W        W60592  27.588  23.683   4.115
95608W        W60593  18.993   2.009   0.750
95609W        W60594  40.908   0.758   2.308
95610W        W60595   5.186  23.099  14.141
95611W        W60596   4.228  34.945  12.080
95612W        W60597  39.108  31.102  13.106
95613W        W60598  30.729  37.116  11.207
95614W        W60599  10.419  23.447  12.165
95615W        W60600   1.296  29.524   3.717
95616W        W60601  16.450   9.336   3.894
95617W        W60602   0.875  40.058  12.990
95618W        W60603   5.360  33.372   1.622
95619W        W60604  39.153   0.504  14.452
95620W        W60605  17.143  41.596  12.583
95621W        W60606   9.854   5.360   0.288
95622W        W60607  44.500  35.385   2.425
95623W        W60608  10.389  23.905   4.125
95624W        W60609  16.544  29.091   1.247
95625W        W60610   4.784  16.177   2.701
95626W        W60611  12.671  13.453  11.120
95627W        W60612   6.491  41.932  11.523
95628W        W60613  30.397  36.513   3.228
95629W        W60614  21.252   6.230  11.518
95630W        W60615  34.401  27.494   1.920
95631W        W60616  44.567  22.768  14.010
95632W        W60617   9.775   8.690  12.477
95633W        W60618  33.659  42.414   3.346
95634W        W60619  44.436  10.594   3.340
95635W        W60620  12.290  37.762  11.223
95636W        W60621   4.369   7.268  11.978
95637W        W60622  36.906  20.435   0.186
95638W        W60623  28.318  33.451   1.875
95639W        W60624  38.582  26.683   1.622
95640W        W60625  24.892  29.789   0.541
95641W        W60626  30.202   3.750  13.030
95642W        W60627  22.477   3.957   0.275
95643W        W60628  42.914  13.331   4.906
95644W        W60629  43.805  28.706  12.454
95645W        W60630  29.888   8.004   3.769
95646W        W60631  22.580  24.166  11.140
95647W        W60632  39.117  35.282  13.418
95648W        W60633   6.732  39.137   0.464
95649W        W60634   5.954   4.873  13.340
95650W        W60635  14.494  22.646   4.565
95651W        W60636   1.027  34.170  13.272
95652W        W60637  18.202  37.530   3.525
95653W        W60638  21.745  41.429  10.680
95654W        W60639   0.383   9.261   3.790
95655W        W60640  31.077  44.798   2.320
95656W        W60641  34.486  19.176   0.923
95657W        W60642  35.107  21.114  14.781
95658W        W60643   9.219  22.145  12.763
95659W        W60644  30.490  13.710   4.731
95660W        W60645  23.743  28.472  12.996
95661W        W60646   8.211  15.100  14.042
95662W        W60647  19.649  19.536  14.079
95663W        W60648  14.643   8.800  14.834
95664W        W60649  20.153   9.660  13.929
95665W        W60650  18.688  24.614  11.563
95666W        W60651  29.438  14.498  12.424
95667W        W60652  29.383   2.548   0.428
95668W        W60653  26.627  19.545   3.845
95669W        W60654  40.236  25.217   0.626
95670W        W60655  26.552   6.785   3.046
95671W        W60656   3.197  11.962   4.644
95672W        W60657  17.899  12.133   2.934
95673W        W60658  32.684  10.131   2.685
95674W        W60659   4.844   8.429   0.008
95675W        W60660  12.827   0.816   3.177
95676W        W60661  38.912  44.730   4.283
95677W        W60662   8.871  10.433   5.030
95678W        W60663  37.019  21.195  14.518
95679W        W60664  28.977  22.191  11.965
95680W        W60665   2.290  24.943   4.769
95681W        W60666  40.753  16.230   0.022
95682W        W60667  44.276  27.122   4.022
95683W        W60668  38.823  38.851  14.990
95684W        W60669   7.319   1.719   0.803
95685W        W60670  43.843  23.066  13.420
95686W        W60671   8.458  14.822   3.479
95687W        W60672  24.183  30.556  13.285
95688W        W60673  44.739  34.431  14.309
95689W        W60674  13.335  33.452   2.301
95690W        W60675   3.636  13.761   2.248
95691W        W60676  15.506  42.825  12.261
95692W        W60677  30.018  29.225  12.677
95693W        W60678  30.570  11.887   3.319
95694W        W60679  14.347  12.083   4.272
95695W        W60680  30.113  40.272   3.569
95696W        W60681  12.167  34.756  14.925
95697W        W60682  44.940  35.971  11.571
95698W        W60683  22.140  37.084  12.049
95699W        W60684  22.496  26.426  11.037
95700W        W60685  44.430   3.342   4.610
95701W        W60686  25.931  33.795   1.594
95702W        W60687  21.586  11.457  12.007
95703W        W60688  30.722   0.311  14.031
95704W        W60689  15.750  14.087   0.874
95705W        W60690  34.535   4.231  14.746
95706W        W60691   8.938  17.205   5.100
95707W        W60692  18.280  14.085  14.274
95708W        W60693  16.753   5.760   1.706
95709W        W60694  43.005  21.998   1.240
95710W        W60695  18.598  43.758   4.160
95711W        W60696  21.480  32.535  13.949
95712W        W60697  16.004  33.603   0.218
95713W        W60698  12.234   9.639  12.404
95714W        W60699  16.117  30.603  13.878
95715W        W60700  21.674  36.896  12.919
95716W        W60701  38.445  28.707   3.651
95717W        W60702  17.561  28.966  12.929
95718W        W60703  37.598  39.006   2.790
95719W        W60704  35.147   5.514  14.455
95720W        W60705  42.464  24.197  13.035
95721W        W60706  13.375  26.812  11.039
95722W        W60707  26.634  39.519   4.562
95723W        W60708  30.392  41.807  11.179
95724W        W60709   6.828  34.876  14.195
95725W        W60710   3.904  17.800   1.777
95726W        W60711  43.154  40.274  10.830
95727W        W60712  27.115  17.539   4.253
95728W        W60713   7.266  19.083  14.281
95729W        W60714  32.458  16.106   2.308
95730W        W60715  13.348   9.456  11.740
95731W        W60716  35.910  16.814  11.988
95732W        W60717   7.755  38.587  13.537
95733W        W60718  41.972  15.557   4.633
95734W        W60719   9.520  37.928   3.841
95735W        W60720  36.040  16.453  14.486
95736W        W60721  24.959  35.563   2.444
95737W        W60722  40.024  13.185   4.173
95738W        W60723  43.704  27.665  11.938
95739W        W60724   3.898   7.114   2.993
95740W        W60725   1.427   3.147  14.930
95741W        W60726  10.202  26.143  13.156
95742W        W60727  32.053  44.203  14.271
95743W        W60728  28.429  34.521   1.330
95744W        W60729  43.299  33.072  12.170
95745W        W60730   0.961  40.796  10.424
95746W        W60731  30.280  19.903   5.084
95747W        W60732  22.113  40.386   2.828
95748W        W60733  10.364   7.957   1.337
95749W        W60734  25.561   8.605   0.257
95750W        W60735  26.659   6.306   4.281
95751W        W60736   5.286   1.258   1.770
95752W        W60737  15.679  12.319   4.678
95753W        W60738  42.511  19.325   0.717
95754W        W60739  43.023   8.583   3.770
95755W        W60740  15.033   7.342   4.678
95756W        W60741  39.565  40.840  14.866
95757W        W60742  15.764  17.510  13.098
95758W        W60743  37.720  38.046   9.520
95759W        W60744  40.701  44.846   0.478
95760W        W60745   4.285  33.375  12.528
95761W        W60746   3.794   3.324   5.094
95762W        W60747  33.976   0.825  13.484
95763W        W60748   8.890  44.837   4.144
95764W        W60749  27.765  15.318  10.498
95765W        W60750  11.309  33.715  14.802
95766W        W60751  39.978  34.245   2.258
95767W        W60752   9.557  26.247   0.054
95768W        W60753  44.319  23.104   0.264
95769W        W60754  17.999  20.945  14.550
95770W        W60755  33.123  36.456  13.373
95771W        W60756  36.515  28.494   3.129
95772W        W60757  30.638  30.039   4.872
95773W        W60758  13.592  29.899  11.650
95774W        W60759  23.505  25.651  12.557
95775W        W60760   5.929  38.524   4.853
95776W        W60761  14.832  40.841  12.295
95777W        W60762  22.236  40.396  13.386
95778W        W60763   1.296   9.638   4.559
95779W        W60764  16.856   2.886  13.856
95780W        W60765  12.226  16.307   1.534
95781W        W60766   0.132  44.669  14.560
95782W        W60767   5.231  24.420   0.215
95783W        W60768   7.762  44.903  10.859
95784W        W60769  43.258  20.024   4.393
95785W        W60770  17.231   7.658   3.232
95786W        W60771  42.069  33.210  10.706
95787W        W60772  25.184  12.908   1.876
95788W        W60773  33.653  30.031   3.801
95789W        W60774  40.955  21.504   4.775
95790W        W60775  20.059   0.810   0.028
95791W        W60776  30.943  17.765  12.066
95792W        W60777  41.987  17.386  11.042
95793W        W60778  41.851  28.072   4.965
95794W        W60779   7.712  17.508  13.014
95795W        W60780  36.418  25.618  13.348
95796W        W60781  12.432  27.686   4.074
95797W        W60782  28.083  25.838  11.497
95798W        W60783  29.349  40.535  11.627
95799W        W60784  13.616  26.637  14.061
95800W        W60785  28.154  13.928   4.981
95801W        W60786  20.154   4.611  13.887
95802W        W60787  18.228  44.492   3.316
95803W        W60788   7.412  13.402  12.412
95804W        W60789  29.539   6.862  14.468
95805W        W60790  26.656  33.328  14.026
95806W        W60791   6.664  18.236  12.549
95807W        W60792  34.242   0.742   4.116
95808W        W60793   0.519  38.266  13.639
95809W        W60794   8.856  15.310  14.752
95810W        W60795  14.319  24.555  12.115
95811W        W60796  43.698   1.509  11.078
95812W        W60797  10.654  21.203   4.784
95813W        W60798  16.179  10.572   3.691
95814W        W60799  16.325  22.479  14.433
95815W        W60800  19.574  17.584   3.198
95816W        W60801  17.157  29.267   0.433
95817W        W60802   6.214  35.147  12.957
95818W        W60803  24.044   1.191  10.745
95819W        W60804   9.943  28.737  11.152
95820W        W60805  19.259  18.086   4.080
95821W        W60806  25.541   2.998   0.318
95822W        W60807  41.449  43.025  12.869
95823W        W60808  12.211  37.619   3.333
95824W        W60809   0.433  32.567  10.617
95825W        W60810   7.217  39.574  11.663
95826W        W60811   0.382  16.757   3.794
95827W        W60812  10.938  33.461   0.723
95828W        W60813  28.959  41.398  14.792
95829W        W60814  18.914  18.201  14.742
95830W        W60815  34.892  28.516   1.790
95831W        W60816  38.476  11.032   0.764
95832W        W60817  23.471  26.933  12.458
95833W        W60818  32.364  11.261   3.123
95834W        W60819  26.478  26.093  11.394
95835W        W60820  13.056  13.566   2.853
95836W        W60821  37.578  21.652   4.196
95837W        W60822  44.894  14.520  13.938
95838W        W60823   5.351   2.390  12.808
95839W        W60824  22.437  42.413   0.778
95840W        W60825  41.511   5.821   3.125
95841W        W60826   2.741  31.360   1.719
95842W        W60827   9.091  27.856  10.288
95843W        W60828  18.210   9.867   2.666
95844W        W60829  36.356  31.180  11.557
95845W        W60830  40.373  32.641   1.854
95846W        W60831  39.019  27.606  13.873
95847W        W60832  34.098  26.567   2.241
95848W        W60833  44.878  30.569   5.090
95849W        W60834  24.561  41.349  14.994
95850W        W60835  24.655   5.993   1.854
95851W        W60836  17.768   8.775  11.944
95852W        W60837  38.037  11.878  11.157
95853W        W60838  15.852  43.433   4.376
95854W        W60839   1.381  18.026  11.579
95855W        W60840  24.492  36.560   4.472
95856W        W60841  40.469  27.975  11.917
95857W        W60842  13.233  23.573   3.585
95858W        W60843  43.101   5.149   1.821
95859W        W60844  24.243   8.157   4.863
95860W        W60845  32.037   1.056   1.089
95861W        W60846  35.049   4.404  13.019
95862W        W60847  15.857  12.629  14.020
95863W        W60848   5.779  26.249   0.324
95864W        W60849  44.417   6.082   2.092
95865W        W60850  31.954   4.976   4.195
95866W        W60851  32.631  43.185   2.096
95867W        W60852  42.484  27.093   3.279
95868W        W60853  38.305  27.775   3.649
95869W        W60854   6.366  15.895  11.485
95870W        W60855  26.123  15.686  14.812
95871W        W60856  33.773  29.754  13.422
95872W        W60857  22.591  31.602   0.828
95873W        W60858  18.161  17.098   1.368
95874W        W60859  28.561  33.654  11.219
95875W        W60860   5.872   1.903  14.172
95876W        W60861  20.017  14.588   1.503
95877W        W60862  17.667  35.089  13.804
95878W        W60863  28.354  44.675  12.389
95879W        W60864  11.770  17.778   2.613
95880W        W60865   0.542  43.163   1.422
95881W        W60866  23.553   5.627  13.471
95882W        W60867  22.596  32.419  13.040
95883W        W60868  20.539  15.866  11.587
95884W        W60869   6.261  43.964  14.011
95885W        W60870  23.446  28.113   1.679
95886W        W60871  29.640  27.531   3.123
95887W        W60872  19.478  31.139  14.392
95888W        W60873  23.454  11.190   4.464
95889W        W60874  25.957  40.375  13.540
95890W        W60875  28.619  22.617   1.636
95891W        W60876   9.142  28.019  14.008
95892W        W60877  12.085  19.142   3.090
95893W        W60878  34.389  27.591  12.738
95894W        W60879  16.672  13.246   3.860
95895W        W60880   7.307  20.831   3.677
95896W        W60881   9.484   4.469  14.433
95897W        W60882  18.794  28.099   4.603
95898W        W60883  43.742  42.250  10.742
95899W        W60884  10.790  35.894   5.137
95900W        W60885   1.674   7.945  12.477
95901W        W60886  21.056  34.756  12.151
95902W        W60887  33.978  20.373  12.594
95903W        W60888  11.673  39.024  11.380
95904W        W60889  40.411  15.349   1.948
95905W        W60890   4.946  22.065  12.176
95906W        W60891   1.410   7.515  12.463
95907W        W60892  28.925  43.146  10.207
95908W        W60893  28.928  24.793   4.586
95909W        W60894  18.844  27.837  10.195
95910W        W60895   9.656  42.018   1.787
95911W        W60896  15.745  32.939   2.541
95912W        W60897  28.073  23.475  11.406
95913W        W60898   2.744  27.014   1.314
95914W        W60899  43.224  16.195   0.355
95915W        W60900   7.752  28.737   1.772
95916W        W60901  23.104  14.005  11.944
95917W        W60902  28.008  32.537   1.033
95918W        W60903  20.468  21.272  12.675
95919W        W60904   9.765  18.044   0.276
95920W        W60905  29.109  20.806   1.831
95921W        W60906  44.035  35.949   3.197
95922W        W60907  23.294  15.530  14.974
95923W        W60908  17.690  18.573  13.517
95924W        W60909   5.852  41.397  13.819
95925W        W60910   8.163   0.866   4.518
95926W        W60911  34.817  35.518  14.739
95927W        W60912  31.920  44.533   1.683
95928W        W60913  41.098   4.346   4.495
95929W        W60914  33.014  21.493  13.242
95930W        W60915  22.729  30.953   3.085
95931W        W60916   6.040   0.599   1.453
95932W        W60917  11.174   7.665   4.181
95933W        W60918  38.050  44.430  14.505
95934W        W60919  44.994  21.553  11.551
95935W        W60920  41.687  33.403  14.297
95936W        W60921  20.763  20.943   1.392
95937W        W60922   3.321   7.341   0.275
95938W        W60923  20.705  22.132  10.246
95939W        W60924  17.188  36.448   4.640
95940W        W60925   3.396   4.725  12.649
95941W        W60926  11.617   4.888   0.257
95942W        W60927  44.371  24.368   1.850
95943W        W60928  24.344   5.743  11.992
95944W        W60929  35.313  31.002  14.405
95945W        W60930  33.783  38.571   1.737
95946W        W60931  11.366  22.086   4.774
95947W        W60932   5.837  25.828   3.176
95948W        W60933  30.871  22.694   2.713
95949W        W60934  42.959  39.369  12.076
95950W        W60935  12.214   0.881  12.883
95951W        W60936  10.614   9.419   2.231
95952W        W60937  43.445  14.199   2.291
95953W        W60938   7.338  16.808   4.731
95954W        W60939  14.823  25.287  14.014
95955W        W60940  10.400  16.552  11.663
95956W        W60941  23.617  32.293  12.423
95957W        W60942   6.259  38.613   0.768
95958W        W60943   4.222  26.762  12.663
95959W        W60944   0.432  31.675  11.720
95960W        W60945  14.523  17.174   2.198
95961W        W60946  23.023  18.148  11.507
95962W        W60947  31.246  42.977   1.278
95963W        W60948  17.709  16.784   0.254
95964W        W60949  15.827  21.110   4.090
95965W        W60950  31.983  40.359   1.477
95966W        W60951  36.377  29.957  11.644
95967W        W60952  43.666  36.969   4.554
95968W        W60953  23.202  18.711   3.681
95969W        W60954   4.079  27.000   1.877
95970W        W60955  18.006  17.133   2.855
95971W        W60956  31.940   4.538   5.008
95972W        W60957  42.744  33.531   0.860
95973W        W60958  25.296  43.031  11.551
95974W        W60959  34.615  37.633  14.819
95975W        W60960   2.245  25.548   2.966
95976W        W60961  42.998  11.369   4.059
95977W        W60962  38.202  14.515  11.862
95978W        W60963  18.683   7.061   4.056
95979W        W60964  15.030  23.555   3.293
95980W        W60965  19.208  29.532  12.316
95981W        W60966  36.981   1.805   0.224
95982W        W60967  22.949   2.289   0.716
95983W        W60968  37.414   8.324   2.332
95984W        W60969   5.703  21.982   2.146
95985W        W60970   8.838  29.591  14.388
95986W        W60971  16.136  43.289  11.222
95987W        W60972  24.992  21.766  11.675
95988W        W60973  41.407  36.546  14.444
95989W        W60974  17.336  40.075   4.100
95990W        W60975   7.767  18.536  12.996
95991W        W60976  34.882   0.189  10.786
95992W        W60977  17.492  40.382  13.105
95993W        W60978  38.804  41.339   2.696
95994W        W60979   3.093  13.108  13.823
95995W        W60980  42.256   7.853   4.821
95996W        W60981  40.404  21.334   4.084
95997W        W60982  27.182  23.552   0.348
95998W        W60983   4.801  43.502  11.245
95999W        W60984  20.624  21.704   3.832
96000W        W60985  11.899  14.156  12.321
96001W        W60986   4.922  30.412   3.108
96002W        W60987  36.944  26.187  13.331
96003W        W60988  10.766  43.034   1.406
96004W        W60989  44.908  44.960   4.451
96005W        W60990  12.964  36.093   2.768
96006W        W60991  27.234   5.447   1.202
96007W        W60992  28.211  41.756   2.808
96008W        W60993  23.159  29.753   1.761
96009W        W60994  41.648  42.869  14.176
96010W        W60995   2.215  27.926  13.357
96011W        W60996  33.140  34.914  14.786
96012W        W60997  13.409  38.260  11.522
96013W        W60998  25.064   9.235   0.909
96014W        W60999   3.791  27.083  14.813
96015W        W61000   7.507  29.418   2.150
96016W        W61001  19.652  37.980   1.296
96017W        W61002  43.177  40.860   2.929
96018W        W61003  37.907  19.540   4.537
96019W        W61004  17.461  20.025   1.746
96020W        W61005  24.324  35.008   1.278
96021W        W61006  10.283  44.235  10.360
96022W        W61007  42.664   6.316  12.214
96023W        W61008   0.323  23.203  12.353
96024W        W61009  28.141  15.198  11.932
96025W        W61010  19.699   0.290   3.987
96026W        W61011  38.902   7.892   3.354
96027W        W61012  28.218  28.509  11.564
96028W        W61013  22.082  33.473  12.459
96029W        W61014  18.019  17.586   2.149
96030W        W61015  10.866  34.065  14.789
96031W        W61016  21.412  21.533   9.519
96032W        W61017  14.390  11.559  12.486
96033W        W61018  20.535  16.932  12.514
96034W        W61019   5.715   6.883  13.483
96035W        W61020  31.392  38.851  13.549
96036W        W61021  16.906  36.939  13.436
96037W        W61022  26.232  35.146  10.214
96038W        W61023  41.494  15.844  14.884
96039W        W61024  38.115  11.821   4.071
96040W        W61025  20.533  38.476  11.195
96041W        W61026  32.495  18.833   1.667
96042W        W61027   0.891  36.547  13.366
96043W        W61028  10.152  26.146   1.700
96044W        W61029   1.130  14.700  13.361
96045W        W61030  41.925   1.199   4.653
96046W        W61031  25.366  25.128   0.906
96047W        W61032  32.430   8.531  14.091
96048W        W61033  41.015  15.688  13.360
96049W        W61034  34.883   2.442  14.469
96050W        W61035  38.915  37.830   0.813
96051W        W61036  40.572   1.139   1.247
96052W        W61037  32.994   9.391   1.914
96053W        W61038  23.256  25.147   2.449
96054W        W61039  44.267  10.097  11.719
96055W        W61040  13.674  34.940  11.125
96056W        W61041  34.942  38.875   0.353
96057W        W61042   2.311  43.889  11.997
96058W        W61043  28.461  29.581   1.870
96059W        W61044  13.855  13.296  14.436
96060W        W61045  10.833  43.625   4.767
96061W        W61046  10.335  22.265   4.047
96062W        W61047  13.554  28.976   2.333
96063W        W61048  39.543   2.622  10.548
96064W        W61049  10.768   5.250   2.291
96065W        W61050  28.441   7.336   0.160
96066W        W61051   9.457  28.460  13.840
96067W        W61052  10.084  35.401  11.567
96068W        W61053   6.181  26.163  10.816
96069W        W61054  20.075  37.383   4.286
96070W        W61055  20.293  35.585  12.532
96071W        W61056   9.261  16.392  13.328
96072W        W61057   9.756  26.219  14.554
96073W        W61058  34.333  38.502  13.129
96074W        W61059  14.210  33.785  12.128
96075W        W61060  15.741  35.915   2.743
96076W        W61061  19.870  40.057   3.313
96077W        W61062  35.671   4.992   2.335
96078W        W61063  42.105   1.913   0.506
96079W        W61064  41.076  33.572   4.513
96080W        W61065  16.629  42.012  14.734
96081W        W61066  26.254   5.476   4.654
96082W        W61067  34.702  22.232   4.564
96083W        W61068   9.446   8.355   1.480
96084W        W61069  25.024  24.542  12.529
96085W        W61070   8.235  28.012  13.169
96086W        W61071  24.573  29.062   0.956
96087W        W61072  10.739  18.164  13.284
96088W        W61073  35.994  35.856   2.241
96089W        W61074  29.138  31.113  10.984
96090W        W61075  31.907   2.965  10.694
96091W        W61076  21.763  11.748  10.306
96092W        W61077  44.311   6.834   3.209
96093W        W61078  24.645  25.231   3.995
96094W        W61079  35.874  32.843   4.740
96095W        W61080  18.826   0.787   0.449
96096W        W61081  29.511  13.317  14.726
96097W        W61082  12.883  19.284   0.018
96098W        W61083  30.965   4.065   4.470
96099W        W61084  14.557  44.858   0.741
96100W        W61085  16.548  16.350  14.879
96101W        W61086   3.733  40.453   1.297
96102W        W61087  19.752  10.897   4.623
96103W        W61088  38.504  40.029   3.037
96104W        W61089  19.328  37.668   3.846
96105W        W61090  20.683  18.440  12.045
96106W        W61091  10.183  20.097  10.035
96107W        W61092   9.918   7.349   4.606
96108W        W61093  37.357  39.968   2.403
96109W        W61094  24.685  42.866  14.024
96110W        W61095   9.959   5.350  10.798
96111W        W61096  14.401  28.161   0.918
96112W        W61097   9.826  28.939  14.814
96113W        W61098  44.835  41.401  11.647
96114W        W61099  37.502   4.308   3.429
96115W        W61100  27.171  15.332   2.364
96116W        W61101  30.934  44.824  14.273
96117W        W61102   4.792  28.088  11.586
96118W        W61103  43.037  28.922  11.988
96119W        W61104  39.491  16.681   4.519
96120W        W61105  44.355  30.562   3.316
96121W        W61106  23.932  41.416   5.043
96122W        W61107  16.885  40.602   1.327
96123W        W61108  12.584  37.133  11.191
96124W        W61109  21.229  37.106   1.198
96125W        W61110  14.212  44.751  14.851
96126W        W61111  42.398  17.126  11.516
96127W        W61112  25.375  29.603   0.351
96128W        W61113  23.041  23.462  12.050
96129W        W61114  35.002  37.626   0.655
96130W        W61115  32.573  12.233   4.690
96131W        W61116  40.989  36.823  10.632
96132W        W61117  18.865  25.703   0.334
96133W        W61118   0.266  27.578   1.957
96134W        W61119  40.975  23.645   1.952
96135W        W61120  37.503   2.286   1.654
96136W        W61121  18.742   3.838  12.015
96137W        W61122  27.421  25.079   5.066
96138W        W61123  22.099   0.136  14.800
96139W        W61124  34.375  14.879  14.766
96140W        W61125  42.272  37.593   5.315
96141W        W61126  41.708  24.058   2.067
96142W        W61127  26.470  13.926  12.062
96143W        W61128   5.329   9.802   4.887
96144W        W61129  20.307  28.064  12.615
96145W        W61130   2.842  35.501  13.075
96146W        W61131  32.087   1.416  10.685
96147W        W61132  27.057  29.210   4.921
96148W        W61133  38.354  24.747  14.866
96149W        W61134  29.691  30.999  13.327
96150W        W61135  40.210   5.904   1.277
96151W        W61136  41.384  17.988   0.895
96152W        W61137   1.436  10.885   4.003
96153W        W61138  37.898   1.164  11.564
96154W        W61139  25.457  20.662  10.743
96155W        W61140  23.755  43.986   1.462
96156W        W61141  28.527  35.532  12.420
96157W        W61142   1.925  21.773   1.598
96158W        W61143  17.833   8.387  11.593
96159W        W61144  13.555  44.452  12.385
96160W        W61145   0.375  23.251   4.545
96161W        W61146   0.601  35.681  13.970
96162W        W61147  10.766  22.067   0.943
96163W        W61148  19.223  13.371  11.939
96164W        W61149  39.890  44.244  13.909
96165W        W61150   5.195  24.511  12.023
96166W        W61151   0.482   8.189  13.817
96167W        W61152  36.026  41.777  11.138
96168W        W61153  22.610  39.160   2.780
96169W        W61154  29.671  19.752   4.563
96170W        W61155  36.450  43.915   3.206
96171W        W61156  15.024  10.997   4.577
96172W        W61157  30.839  26.025   2.718
96173W        W61158  29.488  13.857  10.903
96174W        W61159  32.347  39.069   2.771
96175W        W61160   7.655  11.464   3.747
96176W        W61161   2.872   5.856  13.895
96177W        W61162  25.024  39.539  11.844
96178W        W61163  17.321  23.923   2.589
96179W        W61164  35.292  24.498   3.898
96180W        W61165  30.010  18.152   0.334
96181W        W61166  23.670  20.278  10.694
96182W        W61167  36.442  28.021   2.833
96183W        W61168  41.015   2.436  14.421
96184W        W61169   2.279  22.921  14.580
96185W        W61170   5.837  36.012   2.422
96186W        W61171  11.089   9.849   2.812
96187W        W61172   3.973  10.275  13.823
96188W        W61173   8.810  10.909   2.003
96189W        W61174   0.556  22.571  14.752
96190W        W61175  34.467  44.409  11.068
96191W        W61176  34.876  16.103   1.744
96192W        W61177  36.868  31.686   4.153
96193W        W61178  11.342  32.300   0.084
96194W        W61179  34.943   2.295   0.286
96195W        W61180  11.763  21.058   4.143
96196W        W61181  11.636   0.785   0.770
96197W        W61182  22.077  31.529   2.603
96198W        W61183   1.885  33.412   0.382
96199W        W61184  18.508  13.219   3.861
96200W        W61185  29.489  16.850  11.597
96201W        W61186   1.444  23.501  12.473
96202W        W61187   7.310  12.913  11.522
96203W        W61188   8.627  44.839   0.830
96204W        W61189   2.638  26.121  14.032
96205W        W61190  29.550  32.341  11.129
96206W        W61191  27.661  44.496  14.545
96207W        W61192  41.604  11.680   1.446
96208W        W61193  27.642  37.387   1.875
96209W        W61194  24.703   6.209  11.123
96210W        W61195  28.486  17.238   1.815
96211W        W61196  26.928  13.104  11.955
96212W        W61197  10.003  20.512   3.759
96213W        W61198   7.883   8.205   3.774
96214W        W61199  15.600   4.871   1.284
96215W        W61200  34.577   6.918  10.081
96216W        W61201   6.251  34.105  10.182
96217W        W61202  28.455   8.688   1.340
96218W        W61203  42.789  38.220  11.586
96219W        W61204   8.325  30.749  13.965
96220W        W61205  36.052   0.222  10.815
96221W        W61206  33.375  42.527   1.517
96222W        W61207  17.079  12.417   3.384
96223W        W61208  20.026  18.198  12.477
96224W        W61209   6.469  29.042  13.362
96225W        W61210  27.472  37.475  12.728
96226W        W61211   1.467   7.211   2.921
96227W        W61212  31.458   1.032  13.513
96228W        W61213  31.004  32.112  12.197
96229W        W61214  15.665  18.314   0.255
96230W        W61215  43.860   7.406  13.333
96231W        W61216  37.918  42.359   3.385
96232W        W61217  20.224  42.805   4.842
96233W        W61218  43.156  37.506  10.996
96234W        W61219  13.248  14.630   1.356
96235W        W61220  38.098   4.688   0.384
96236W        W61221  17.074  27.960   3.456
96237W        W61222   3.406  25.440   4.573
96238W        W61223  11.182  12.654   4.851
96239W        W61224  22.112  22.575   0.673
96240W        W61225  16.776  12.257   3.812
96241W        W61226  15.327  30.085  13.919
96242W        W61227   5.279  25.011  13.367
96243W        W61228  17.548   2.505  10.726
96244W        W61229  34.819  20.786  13.000
96245W        W61230  14.050  32.615  10.901
96246W        W61231   8.345  39.426  11.605
96247W        W61232  35.057  33.953   3.798
96248W        W61233  20.229   0.776   2.167
96249W        W61234  32.796   6.662   2.472
96250W        W61235  20.138  19.665  11.927
96251W        W61236  31.358  30.060   4.172
96252W        W61237  33.339  23.473  11.708
96253W        W61238   1.755   1.293  12.034
96254W        W61239  40.114   3.209  14.723
96255W        W61240  39.773  36.809  11.090
96256W        W61241  26.929  20.135   0.465
96257W        W61242  13.674   2.287  10.551
96258W        W61243  32.429  40.264  12.084
96259W        W61244  19.615  37.648   4.274
96260W        W61245  23.909  33.074  12.614
96261W        W61246  24.113   4.876  12.242
96262W        W61247  42.509  41.249  14.038
96263W        W61248   9.120  24.941  14.812
96264W        W61249   3.260  20.210  14.989
96265W        W61250  44.286  31.906  12.766
96266W        W61251   6.934  11.495   0.040
96267W        W61252  12.717  39.897   4.526
96268W        W61253  14.018  26.652   4.826
96269W        W61254  40.045  14.140   2.821
96270W        W61255   5.680  44.006  14.864
96271W        W61256  27.635   2.340  13.591
96272W        W61257  35.427  36.936  13.036
96273W        W61258   8.327  43.979   4.420
96274W        W61259  27.533  44.691   2.837
96275W        W61260  12.736  18.654  11.213
96276W        W61261   0.036  25.423  11.327
96277W        W61262   7.326  38.158  14.783
96278W        W61263  22.545   7.875   4.623
96279W        W61264  26.470  29.061  14.842
96280W        W61265  28.480  42.816  11.002
96281W        W61266   3.298  34.282   3.825
96282W        W61267   9.882  31.246  11.121
96283W        W61268  43.441   4.370   0.648
96284W        W61269  28.925  41.468  11.894
96285W        W61270  17.365  19.644   2.837
96286W        W61271  28.626   0.931   0.316
96287W        W61272  17.309  25.130  12.472
96288W        W61273   8.442  10.126   1.437
96289W        W61274  19.929  26.642   2.863
96290W        W61275  13.533  12.855  14.447
96291W        W61276  20.806  43.090  13.603
96292W        W61277   6.701  37.123  14.003
96293W        W61278  40.997  17.313   0.638
96294W        W61279   8.945  42.784   3.771
96295W        W61280   8.672  29.620  13.452
96296W        W61281  23.730  37.234   2.931
96297W        W61282  22.276   8.950  13.052
96298W        W61283  34.385  13.720   1.132
96299W        W61284  40.099  36.310  14.827
96300W        W61285  26.676   6.736  13.636
96301W        W61286  23.214   5.293  13.218
96302W        W61287  43.034   6.433   2.311
96303W        W61288  42.871  20.668  11.860
96304W        W61289  33.560   2.673  14.375
96305W        W61290  32.275  31.021   4.928
96306W        W61291   4.382   6.627   4.685
96307W        W61292  15.745   0.353   0.602
96308W        W61293  15.356  39.000  12.436
96309W        W61294  15.879  12.804   2.653
96310W        W61295  24.089   1.251   5.057
96311W        W61296  25.954  41.722  10.985
96312W        W61297  25.059  40.866   2.297
96313W        W61298  25.078  38.072  11.624
96314W        W61299   8.197  20.477  11.085
96315W        W61300  42.790   6.619  11.837
96316W        W61301  40.218  24.397  10.351
96317W        W61302  43.787  36.435   4.486
96318W        W61303  11.844   4.370   2.220
96319W        W61304   4.391  19.567   1.722
96320W        W61305  41.280  42.348   1.471
96321W        W61306  26.926  23.302  14.731
96322W        W61307  27.528  13.777   4.590
96323W        W61308  17.701  21.799   1.904
96324W        W61309  24.722   7.444  14.175
96325W        W61310  31.740   8.657   1.399
96326W        W61311   7.222  14.368  14.934
96327W        W61312  34.805   2.044   2.316
96328W        W61313  20.950  15.565  14.397
96329W        W61314  15.747  31.828   2.368
96330W        W61315  24.305  11.348  14.301
96331W        W61316  33.762  11.160  14.781
96332W        W61317  43.468  39.428  12.846
96333W        W61318  44.249   6.646  13.460
96334W        W61319   7.098  16.182  11.109
96335W        W61320  40.036  20.609  13.632
96336W        W61321  33.871  43.498   0.356
96337W        W61322   8.201   1.719  12.706
96338W        W61323  33.484  29.429   0.679
96339W        W61324  14.710  41.309  14.487
96340W        W61325  24.108  44.173  14.759
96341W        W61326  24.534  44.478   1.543
96342W        W61327  39.554  44.981  14.330
96343W        W61328  39.367  27.571  14.899
96344W        W61329  16.280  31.976   3.745
96345W        W61330  34.441   1.365   3.052
96346W        W61331  24.908  20.385  13.516
96347W        W61332  44.147  30.213   9.943
96348W        W61333  27.088  22.473  13.450
96349W        W61334  42.724   9.673  14.456
96350W        W61335  31.137  43.059   2.195
96351W        W61336  17.498  41.966  12.592
96352W        W61337  34.387  40.527   1.264
96353W        W61338  24.176  36.796   1.832
96354W        W61339   9.276  41.612  13.996
96355W        W61340  19.033  23.984  11.091
96356W        W61341  12.228   9.026  12.863
96357W        W61342  29.396  23.525  10.345
96358W        W61343   9.948  20.032  14.816
96359W        W61344  13.626  25.498   0.001
96360W        W61345  27.931  31.169  13.897
96361W        W61346  17.168  32.662  11.032
96362W        W61347  22.668  39.348   0.523
96363W        W61348  16.012  20.269  12.638
96364W        W61349  11.193  15.625  10.458
96365W        W61350  41.622  32.534   4.254
96366W        W61351  18.778  26.645  14.341
96367W        W61352  35.466  33.078  13.410
96368W        W61353  25.269  30.012   0.022
96369W        W61354  34.939  40.364   4.515
96370W        W61355  43.814   2.259   4.264
96371W        W61356  19.013  42.041  11.567
96372W        W61357  31.438  11.740   2.824
96373W        W61358  13.691  43.819   1.315
96374W        W61359  34.820   2.167   3.993
96375W        W61360  20.040  11.160  10.977
96376W        W61361  38.989  33.059   3.720
96377W        W61362  36.694  40.038   4.655
96378W        W61363  31.962  11.577  14.847
96379W        W61364  32.370  40.879  13.438
96380W        W61365  35.809  15.585   1.392
96381W        W61366  31.093  35.947  14.790
96382W        W61367  14.459  14.780  12.166
96383W        W61368  33.450  18.523  10.273
96384W        W61369  22.629   3.163   3.616
96385W        W61370  38.386  14.607  14.005
96386W        W61371  27.158  15.035  13.453
96387W        W61372  23.746  35.622   3.208
96388W        W61373  18.703  30.709  10.634
96389W        W61374  10.069  11.825  12.408
96390W        W61375  39.889  44.299  12.067
96391W        W61376  19.239  34.955   4.508
96392W        W61377  28.974   0.398   1.940
96393W        W61378  21.313   8.609  10.443
96394W        W61379  34.096   6.610  14.111
96395W        W61380  41.784   0.221  13.008
96396W        W61381  23.755   5.417  10.905
96397W        W61382  32.197  35.005   2.733
96398W        W61383  14.048  24.515  11.681
96399W        W61384  39.943  11.236   4.288
96400W        W61385  31.869  16.047  13.916
96401W        W61386  12.370  28.449  13.480
96402W        W61387  42.627  20.216  13.840
96403W        W61388   0.937  42.877   0.062
96404W        W61389  43.504   6.737  12.362
96405W        W61390  30.513   5.925  14.485
96406W        W61391  19.247  43.755  12.218
96407W        W61392   2.042  27.158  13.083
96408W        W61393   2.337  39.245   0.358
96409W        W61394   4.390  28.590   3.307
96410W        W61395  39.002  13.352  11.117
96411W        W61396  31.657  20.182  12.390
96412W        W61397   6.238  29.559   3.950
96413W        W61398  37.526  41.515  12.032
96414W        W61399   0.761  18.016   4.123
96415W        W61400  13.150  14.555  13.902
96416W        W61401  42.938  27.604  13.558
96417W        W61402  29.493  11.811   1.122
96418W        W61403   6.177  28.926  14.234
96419W        W61404  40.064   2.312  13.420
96420W        W61405  18.495   1.667  10.307
96421W        W61406   6.953   9.658  13.345
96422W        W61407  35.026  38.811   2.738
96423W        W61408  28.180  41.549   4.573
96424W        W61409   6.925  25.567   2.548
96425W        W61410  42.775   3.489   1.386
96426W        W61411   4.369  14.185  13.590
96427W        W61412  20.394   1.069  11.661
96428W        W61413  28.505  20.311  11.201
96429W        W61414  26.048  11.210   3.719
96430W        W61415  22.142  13.148  13.516
96431W        W61416  12.860  39.325  13.502
96432W        W61417  44.599  32.382  14.038
96433W        W61418  43.858  39.049   5.003
96434W        W61419  16.823   4.663  13.441
96435W        W61420  29.141  36.838   3.277
96436W        W61421   8.307  30.417   2.717
96437W        W61422  27.208  14.236   3.262
96438W        W61423  37.849   1.522   0.372
96439W        W61424  23.048  24.475  13.935
96440W        W61425  27.248  22.075   2.831
96441W        W61426  29.047  30.143   9.761
96442W        W61427  30.843  25.769  11.608
96443W        W61428  15.824  31.550  11.304
96444W        W61429   6.372  24.198   4.569
96445W        W61430   4.959  38.376   3.771
96446W        W61431  34.388  11.546  10.285
96447W        W61432   8.552  20.076   2.973
96448W        W61433  39.498  37.318  11.977
96449W        W61434   9.961  40.606   3.287
96450W        W61435   6.231  30.166   3.107
96451W        W61436  27.388   9.850   0.279
96452W        W61437  17.166  29.997  11.011
96453W        W61438  22.190   3.631   2.209
96454W        W61439  22.440   4.162   1.069
96455W        W61440  16.073   6.421   2.424
96456W        W61441  42.909  36.879   0.016
96457W        W61442  43.771  38.840  13.437
96458W        W61443   3.890  20.634   3.226
96459W        W61444   4.688  29.251   0.970
96460W        W61445  10.125  22.847   4.927
96461W        W61446  26.659  31.089   0.272
96462W        W61447  39.484   6.891   2.336
96463W        W61448   0.873   2.284   0.930
96464W        W61449  40.281  24.549   4.459
96465W        W61450   2.861  10.787  11.255
96466W        W61451  29.669   4.282   4.945
96467W        W61452  27.259  25.802   0.921
96468W        W61453  36.514   6.000   5.410
96469W        W61454  40.740  25.541   2.754
96470W        W61455   4.354  34.008   2.306
96471W        W61456  12.273  44.492   2.851
96472W        W61457  31.964  16.846   3.353
96473W        W61458  42.543   1.953  10.678
96474W        W61459   8.307  28.868  12.679
96475W        W61460  11.989  22.351  11.642
96476W        W61461  36.135   7.507   4.098
96477W        W61462  20.700  13.661   3.622
96478W        W61463  13.792  23.968  12.501
96479W        W61464  21.345  18.214   3.190
96480W        W61465  19.303   0.083   4.264
96481W        W61466   7.649   5.132   1.945
96482W        W61467  36.108  11.735  11.852
96483W        W61468  43.287  30.962  13.455
96484W        W61469  33.894  35.013  13.426
96485W        W61470   6.215   9.309   4.677
96486W        W61471  38.941  40.984   2.246
96487W        W61472  43.281  27.659  14.505
96488W        W61473  19.160  44.483   3.145
96489W        W61474  16.469  18.333  12.081
96490W        W61475   5.778  22.085   4.679
96491W        W61476  44.241  20.364   0.350
96492W        W61477   7.255  44.787  13.784
96493W        W61478  25.200  42.918  13.825
96494W        W61479  30.217   5.686  12.691
96495W        W61480  38.787  14.691   2.506
96496W        W61481  25.955  40.244   2.281
96497W        W61482   6.218  38.488   1.591
96498W        W61483   2.965  27.483   1.524
96499W        W61484  35.715  11.672   2.201
96500W        W61485   0.515  25.018   1.604
96501W        W61486  42.602  30.983  11.042
96502W        W61487  19.556  24.094  11.078
96503W        W61488  18.505  24.211  12.852
96504W        W61489  12.060  35.437   0.449
96505W        W61490  27.002  33.486   3.196
96506W        W61491   8.251  24.518   0.296
96507W        W61492  16.049   2.200   3.258
96508W        W61493  43.991   6.349  13.767
96509W        W61494   8.178  17.394   4.863
96510W        W61495  22.484  15.055   0.274
96511W        W61496  32.973  26.367  12.635
96512W        W61497  22.960  26.644  13.377
96513W        W61498   3.301  31.721  10.520
96514W        W61499  44.362  40.310   4.030
96515W        W61500   4.264  30.786  10.455
96516W        W61501  36.942   4.172  13.029
96517W        W61502  44.882   7.137  12.576
96518W        W61503  27.130  38.370   4.229
96519W        W61504  20.513   2.926  12.971
96520W        W61505   3.423  40.848   4.706
96521W        W61506   8.950  10.859   3.453
96522W        W61507   9.345  41.298  10.203
96523W        W61508  15.740  23.799   4.232
96524W        W61509  39.192  38.150  14.532
96525W        W61510   8.895  25.687  14.567
96526W        W61511   2.590   5.040  11.089
96527W        W61512  25.130  38.512  12.423
96528W        W61513   0.516  22.100   0.020
96529W        W61514  35.897  14.502  11.164
96530W        W61515   1.948  40.062   1.032
96531W        W61516  40.086   1.803   1.841
96532W        W61517  31.135  40.834  13.043
96533W        W61518   9.310   9.391   0.918
96534W        W61519   7.441  12.302  10.720
96535W        W61520   6.388  20.013  14.306
96536W        W61521  44.809   5.142   0.269
96537W        W61522  29.217   9.183   2.903
96538W        W61523   7.270  24.680   3.261
96539W        W61524  16.522   6.437  10.656
96540W        W61525  12.786   8.829   2.209
96541W        W61526  26.068  37.437   3.108
96542W        W61527  38.072   1.670   2.279
96543W        W61528  34.927  14.082  12.114
96544W        W61529   8.460  37.192   2.553
96545W        W61530   6.309  16.737   4.792
96546W        W61531  18.080  26.042  11.874
96547W        W61532  41.864  21.675   3.709
96548W        W61533  29.693   6.703  14.926
96549W        W61534  12.391  38.439   4.632
96550W        W61535  36.393  25.422  10.944
96551W        W61536  33.931  39.889   0.965
96552W        W61537   1.206  38.039  13.107
96553W        W61538  30.450  33.790  13.976
96554W        W61539   0.243  38.012  12.167
96555W        W61540  37.162  17.299  12.888
96556W        W61541  13.877  23.154  13.847
96557W        W61542  11.797  14.414   1.830
96558W        W61543  35.948   0.769  10.791
96559W        W61544  36.551   6.849  10.686
96560W        W61545  11.114  42.906  13.330
96561W        W61546  10.242  26.929  11.159
96562W        W61547  44.060  34.106  11.371
96563W        W61548   6.280  32.516   4.137
96564W        W61549  35.444  10.504  14.995
96565W        W61550   6.384  25.194   3.124
96566W        W61551  39.451   5.356   4.992
96567W        W61552   8.630   0.544  14.319
96568W        W61553  35.603  40.969   0.864
96569W        W61554  36.619  11.733  13.039
96570W        W61555   0.359  18.133  13.060
96571W        W61556  26.613  39.224  12.092
96572W        W61557   3.460  25.127   3.185
96573W        W61558  27.629   4.130   3.753
96574W        W61559  24.265  13.527  11.110
96575W        W61560  10.825  14.719  14.459
96576W        W61561  43.965  12.886  10.546
96577W        W61562  35.327  22.231   1.412
96578W        W61563   5.774  28.580  13.777
96579W        W61564  35.399   5.129  11.936
96580W        W61565  42.091   1.741  14.485
96581W        W61566  26.130  10.992  12.473
96582W        W61567  32.353  39.816  10.799
96583W        W61568  40.936  18.786  12.878
96584W        W61569  14.010  18.201   1.433
96585W        W61570   0.499  24.574  12.143
96586W        W61571  20.253  24.995   2.174
96587W        W61572  10.400  40.985   4.603
96588W        W61573  43.890  41.858   2.259
96589W        W61574  42.936  28.362  14.484
96590W        W61575  12.257   0.024   2.968
96591W        W61576  12.623  30.605  11.245
96592W        W61577  23.207  20.998  10.909
96593W        W61578  13.720  42.571  14.378
96594W        W61579  14.300  24.045   0.412
96595W        W61580  14.810  33.167   0.949
96596W        W61581   0.984   2.227   1.948
96597W        W61582  24.692  30.617  13.127
96598W        W61583  41.118   8.971  13.570
96599W        W61584  25.416  32.486  12.157
96600W        W61585  36.503   9.066   1.706
96601W        W61586  27.441  16.689  10.691
96602W        W61587  20.772  12.337  12.443
96603W        W61588  21.350  42.407  14.901
96604W        W61589  35.894  19.889  12.890
96605W        W61590   4.325  42.728  12.460
96606W        W61591   3.250  23.683  11.211
96607W        W61592   0.494  39.876   4.537
96608W        W61593   7.826  13.759  11.536
96609W        W61594  28.098  34.311  11.173
96610W        W61595   5.400   6.182   1.657
96611W        W61596  36.740  28.071  12.040
96612W        W61597  43.250  24.489   4.687
96613W        W61598  36.658   0.387   3.358
96614W        W61599   1.486   9.625  12.616
96615W        W61600  13.189  30.645   0.814
96616W        W61601   7.566  44.843   3.704
96617W        W61602   3.934  43.355  13.527
96618W        W61603   0.742  38.964  14.746
96619W        W61604   3.076   8.364   4.649
96620W        W61605   5.429  17.620   0.752
96621W        W61606  14.497  12.264   1.080
96622W        W61607  34.984  19.460  11.905
96623W        W61608  34.488  33.469   4.179
96624W        W61609  34.470   9.861  11.646
96625W        W61610  28.061  13.045  12.440
96626W        W61611  33.576   1.773   3.765
96627W        W61612  35.898  28.387   1.737
96628W        W61613  12.509  40.215   2.694
96629W        W61614  41.196   8.617  14.411
96630W        W61615  19.131  38.525   3.946
96631W        W61616  15.140  24.606   0.420
96632W        W61617  29.692  32.654   4.821
96633W        W61618  36.325   9.859   0.855
96634W        W61619  24.544   0.657   4.557
96635W        W61620  33.743   0.836   4.128
96636W        W61621  26.716  42.849  11.624
96637W        W61622  17.425  26.228   1.480
96638W        W61623  42.814   5.419   4.714
96639W        W61624   2.467   6.057   0.969
96640W        W61625  19.214  37.008  11.661
96641W        W61626   3.435  17.410   4.190
96642W        W61627  34.488  37.955   4.537
96643W        W61628  44.510  27.598   4.151
96644W        W61629  23.705  33.918  10.357
96645W        W61630  22.730  44.904   1.009
96646W        W61631  35.629  37.246   4.981
96647W        W61632   7.813  21.783  14.822
96648W        W61633   4.929   8.628  10.703
96649W        W61634   9.335  17.030  10.008
96650W        W61635  31.389   5.792   4.298
96651W        W61636   7.227  27.024   1.597
96652W        W61637   3.426  10.167   1.643
96653W        W61638  25.208  13.627   1.100
96654W        W61639  19.485  38.958   3.861
96655W        W61640  19.370  32.128   4.053
96656W        W61641  35.525   8.931   1.932
96657W        W61642   5.680  21.507  13.210
96658W        W61643  41.991  41.971  14.497
96659W        W61644  43.858  22.720  11.409
96660W        W61645  33.282  15.405   4.986
96661W        W61646   6.439  29.420  13.960
96662W        W61647  31.421   0.966   2.723
96663W        W61648  41.302  41.971  12.618
96664W        W61649   3.969  18.784  12.655
96665W        W61650  16.733  30.746  12.572
96666W        W61651  29.140   3.683  13.020
96667W        W61652  36.593  32.618   3.120
96668W        W61653  19.012  19.044  14.503
96669W        W61654  19.667  17.236   2.298
96670W        W61655  23.746  34.453  14.620
96671W        W61656  33.884  28.202  12.445
96672W        W61657  44.866   0.957   1.829
96673W        W61658  25.226   9.575   4.040
96674W        W61659  10.876  24.774  10.609
96675W        W61660  43.847  42.178   1.684
96676W        W61661   2.495  44.698   4.663
96677W        W61662  33.158  35.492  11.592
96678W        W61663  29.151  41.799  12.775
96679W        W61664  43.616  35.950  13.942
96680W        W61665  25.932  27.509   3.285
96681W        W61666  12.042  44.944   1.349
96682W        W61667   1.873  23.929  14.911
96683W        W61668  39.673   1.300  12.962
96684W        W61669  43.053   5.675   1.851
96685W        W61670   0.860   1.850  10.943
96686W        W61671  24.485   2.841   0.361
96687W        W61672  30.957  40.336  13.792
96688W        W61673   7.136   4.229   0.837
96689W        W61674  11.863  25.033  10.736
96690W        W61675  26.551  40.489  11.119
96691W        W61676  32.073  35.114   3.580
96692W        W61677  22.730  41.944   1.064
96693W        W61678  21.243  35.368   3.384
96694W        W61679  17.568   8.737   0.280
96695W        W61680  17.886   6.126  13.114
96696W        W61681  29.038  15.977  14.742
96697W        W61682   6.430  44.912   4.155
96698W        W61683   0.272   8.050   4.674
96699W        W61684   2.567  28.033   2.331
96700W        W61685  22.185   1.737   0.706
96701W        W61686   3.893   4.643  14.188
96702W        W61687  23.216  24.025   2.808
96703W        W61688   9.263   6.734   0.014
96704W        W61689  43.203  25.191   5.323
96705W        W61690  37.417  43.895   2.243
96706W        W61691  11.262  29.146  12.103
96707W        W61692  38.172  39.237  14.761
96708W        W61693  18.308   2.464   3.174
96709W        W61694  29.166   7.299   0.687
96710W        W61695   3.767  30.890  11.143
96711W        W61696  20.266  27.562  13.338
96712W        W61697  15.528  27.922   1.690
96713W        W61698  34.160  41.696   2.733
96714W        W61699  10.323  33.389  10.922
96715W        W61700  22.508   6.679  13.373
96716W        W61701  29.197  21.734  14.857
96717W        W61702   5.365  37.206   4.212
96718W        W61703   1.369   5.449  13.368
96719W        W61704  21.084   2.801  12.071
96720W        W61705  20.754   8.400   2.417
96721W        W61706  13.550  27.185   9.870
96722W        W61707  26.185  36.396  14.440
96723W        W61708  37.397  20.535   1.453
96724W        W61709  24.132  25.041   0.379
96725W        W61710  40.001   9.266   4.232
96726W        W61711  21.310  10.224  10.700
96727W        W61712  28.963   8.417  13.420
96728W        W61713  33.753  34.380   2.792
96729W        W61714  33.369  25.504   0.709
96730W        W61715  16.580  11.621   0.244
96731W        W61716  37.779  37.371  12.580
96732W        W61717  38.440   7.632   0.628
96733W        W61718  29.401  27.048   4.504
96734W        W61719  39.872   3.470   3.688
96735W        W61720   4.207  12.141  12.874
96736W        W61721   3.180   0.334   3.399
96737W        W61722  40.742  43.322   3.194
96738W        W61723   3.802  15.820  14.809
96739W        W61724  33.652  36.584   3.332
96740W        W61725  26.790  32.027   0.386
96741W        W61726  17.456  28.492  10.370
96742W        W61727  40.799  33.547  11.268
96743W        W61728  43.871  14.127   4.173
96744W        W61729  14.677  37.115   0.523
96745W        W61730  29.456  37.396   1.376
96746W        W61731  33.620  11.994   1.552
96747W        W61732  15.195   2.294  12.541
96748W        W61733  19.743   0.168  14.029
96749W        W61734  17.094  16.372  10.965
96750W        W61735  11.774  32.473   1.762
96751W        W61736  44.507  13.748  13.432
96752W        W61737   0.237  29.107   4.116
96753W        W61738  28.476  32.418   2.828
96754W        W61739  20.160  11.154  10.484
96755W        W61740  31.035   5.045   3.527
96756W        W61741  29.257  13.829   4.130
96757W        W61742   4.157  32.435  12.466
96758W        W61743   5.125  21.104  14.035
96759W        W61744  39.157  39.202   1.038
96760W        W61745  31.463  10.178  11.604
96761W        W61746  17.177   0.300   3.766
96762W        W61747  30.712  19.814   3.204
96763W        W61748   5.317  14.751  11.613
96764W        W61749  35.052  36.632   4.135
96765W        W61750   5.423  17.208  11.588
96766W        W61751  37.437  19.673   2.182
96767W        W61752  24.548  27.107  12.866
96768W        W61753  27.639  43.015  10.319
96769W        W61754  10.505   2.969   0.834
96770W        W61755   9.884  35.282  14.791
96771W        W61756  17.190   9.688  10.030
96772W        W61757   5.032   8.674  12.831
96773W        W61758  41.589  10.747   3.129
96774W        W61759   0.342  33.961  10.770
96775W        W61760  37.747  26.296  12.948
96776W        W61761  31.290  18.943  13.983
96777W        W61762  14.655  34.949   1.669
96778W        W61763  10.626  42.463   4.150
96779W        W61764  16.138  34.317  14.843
96780W        W61765   0.803  39.038   4.526
96781W        W61766   7.294   6.331   4.461
96782W        W61767  28.418   8.251   4.568
96783W        W61768   0.958  20.537   2.971
96784W        W61769  36.602  16.093  13.032
96785W        W61770  28.567  38.298  14.912
96786W        W61771  15.419  37.227   4.108
96787W        W61772  37.418  39.000   0.211
96788W        W61773   8.362  41.733   0.605
96789W        W61774  40.561  10.703  12.351
96790W        W61775   3.057  20.218   0.820
96791W        W61776   0.971  35.578   2.370
96792W        W61777   6.237  15.715  11.024
96793W        W61778  34.967  16.786  10.985
96794W        W61779  21.669   7.667  13.765
96795W        W61780  44.480   5.266  13.434
96796W        W61781   2.545  40.619   4.468
96797W        W61782   4.327  34.994   4.891
96798W        W61783  17.218   6.703  14.731
96799W        W61784  10.836  21.630   0.369
96800W        W61785  19.732  43.462  14.909
96801W        W61786   8.169  17.261   0.400
96802W        W61787  33.069  29.691   3.220
96803W        W61788   9.791   6.386   3.731
96804W        W61789   2.464  43.804   3.747
96805W        W61790  28.686   7.658  14.820
96806W        W61791  29.762  35.395  11.930
96807W        W61792   2.527  39.567   2.694
96808W        W61793  36.983   4.726  11.099
96809W        W61794  36.101   4.397   4.112
96810W        W61795   0.872  36.974  13.966
96811W        W61796  31.891  43.281  14.241
96812W        W61797  30.096  35.925   1.893
96813W        W61798  11.093  16.207   4.488
96814W        W61799  12.630  40.859   0.831
96815W        W61800  24.728  18.861  14.940
96816W        W61801  11.227   0.944  12.178
96817W        W61802  44.160   2.332  11.041
96818W        W61803  37.424  43.134   3.060
96819W        W61804  30.612  37.474  12.573
96820W        W61805  32.177  43.021   0.144
96821W        W61806  30.040  36.005   1.361
96822W        W61807  35.278  31.201  11.380
96823W        W61808  31.906  37.842   2.670
96824W        W61809  20.120   9.367  11.729
96825W        W61810   6.157   0.331  13.808
96826W        W61811  44.044  24.222   0.185
96827W        W61812  33.838  39.859  14.331
96828W        W61813  42.779  33.343  11.779
96829W        W61814  12.162  38.567  12.056
96830W        W61815   4.941   1.396   1.386
96831W        W61816  14.932  35.527   0.883
96832W        W61817  40.562  39.015  10.238
96833W        W61818  24.082  32.009   0.562
96834W        W61819   2.637  28.416  13.890
96835W        W61820  38.414  34.350  10.502
96836W        W61821   4.328  43.760   1.122
96837W        W61822   7.138  34.415   1.440
96838W        W61823  19.508  31.245  10.618
96839W        W61824  14.137  37.616   3.716
96840W        W61825  23.354  26.915  12.988
96841W        W61826  38.598  10.721   3.827
96842W        W61827  29.001   6.594  14.070
96843W        W61828  33.892  13.167  10.670
96844W        W61829  34.164  30.749  13.486
96845W        W61830   7.987  31.941   1.400
96846W        W61831  31.542  12.247   2.822
96847W        W61832  31.127  42.997  12.149
96848W        W61833  17.601   8.308   1.602
96849W        W61834  21.440   0.252  11.292
96850W        W61835   8.882  43.892   3.570
96851W        W61836  38.017   2.469   1.560
96852W        W61837   9.628  42.791  14.290
96853W        W61838  42.082   5.657  13.154
96854W        W61839   6.037   4.337   4.583
96855W        W61840  43.179  29.575   2.316
96856W        W61841  23.989  12.575  10.731
96857W        W61842  35.081  18.586   4.577
96858W        W61843  20.592  30.630   1.509
96859W        W61844  27.997   6.654   1.940
96860W        W61845   2.358  32.951  11.980
96861W        W61846  12.711  31.888   1.813
96862W        W61847  29.711  21.688  11.449
96863W        W61848  28.480  41.272  10.270
96864W        W61849  24.580  24.743   0.432
96865W        W61850  14.207  16.806   3.929
96866W        W61851   1.269  11.861  12.065
96867W        W61852  36.876  31.185  13.533
96868W        W61853   7.590  18.615   1.041
96869W        W61854  39.008  18.179   1.709
96870W        W61855  40.022  42.463   4.128
96871W        W61856   5.681  14.389  13.317
96872W        W61857  22.175  30.224   3.122
96873W        W61858  39.315  27.098  10.481
96874W        W61859  44.556  28.067  11.677
96875W        W61860   4.237  17.066  10.396
96876W        W61861  13.826  39.309   3.279
96877W        W61862  27.521  17.592   5.031
96878W        W61863  20.031  44.990  14.436
96879W        W61864  21.615   0.222  12.624
96880W        W61865   7.804  33.674   1.787
96881W        W61866   0.006   6.912   1.342
96882W        W61867   4.512  12.324  11.952
96883W        W61868  31.438   2.008   3.651
96884W        W61869   4.209   1.295  14.478
96885W        W61870   3.550  39.590  13.207
96886W        W61871  30.114  40.127  13.439
96887W        W61872  20.646   8.959   0.488
96888W        W61873  29.939  12.374  13.377
96889W        W61874  12.769  43.243  11.595
96890W        W61875  37.410  26.411  13.347
96891W        W61876  37.269  35.820   1.611
96892W        W61877   0.475  43.813   0.453
96893W        W61878  15.990  28.053  13.450
96894W        W61879  17.673   6.586  11.221
96895W        W61880  33.385  22.347   4.974
96896W        W61881  43.959  14.099  10.295
96897W        W61882  31.856  37.962   5.178
96898W        W61883   8.401  40.490  12.490
96899W        W61884   6.408   0.218   1.276
96900W        W61885   1.859  19.119   4.686
96901W        W61886  44.300  19.814  13.092
96902W        W61887  42.345  16.285   0.459
96903W        W61888  12.355  23.560   2.111
96904W        W61889  43.265  14.631   0.666
96905W        W61890   8.436  13.784   2.677
96906W        W61891   8.561  16.256  14.526
96907W        W61892   9.327  10.866   3.783
96908W        W61893  28.286  38.293  11.094
96909W        W61894  16.006  16.164   3.799
96910W        W61895   7.073  35.327   1.452
96911W        W61896  21.990  34.500  13.366
96912W        W61897   4.265  34.095   4.232
96913W        W61898   4.392  22.753  11.731
96914W        W61899  25.688   3.084  14.545
96915W        W61900  28.781  10.473  11.022
96916W        W61901  25.523   5.079   4.444
96917W        W61902  10.799  26.692   4.177
96918W        W61903  21.257  29.089   2.764
96919W        W61904   6.148  20.672   0.955
96920W        W61905  11.715  21.207   1.320
96921W        W61906  13.125  25.291  13.425
96922W        W61907   3.512   3.521  11.487
96923W        W61908  29.815  23.481  13.712
96924W        W61909   2.517  29.828  13.513
96925W        W61910  27.459  11.282  11.118
96926W        W61911   2.320  37.105   1.649
96927W        W61912  22.591  44.492   0.217
96928W        W61913  23.033  19.462  13.912
96929W        W61914   4.441   2.078  13.447
96930W        W61915   5.101  44.353  10.570
96931W        W61916  29.846   5.702  13.931
96932W        W61917  23.126   2.083  14.403
96933W        W61918   7.120  37.364   2.190
96934W        W61919   3.465  12.792   2.642
96935W        W61920  13.619  26.431  13.172
96936W        W61921  22.117  13.404   2.350
96937W        W61922  33.079  43.768   3.133
96938W        W61923  27.186   7.620   0.873
96939W        W61924  26.150  14.086  12.541
96940W        W61925  16.662  29.370   3.405
96941W        W61926   9.967  17.357   3.072
96942W        W61927  12.372  39.613   4.256
96943W        W61928  10.269  43.716  10.303
96944W        W61929  22.450  27.530   0.296
96945W        W61930  16.245  43.927   4.677
96946W        W61931  42.871   0.332  12.625
96947W        W61932   2.484  26.631   4.093
96948W        W61933  38.826  19.122   1.954
96949W        W61934  27.310  36.739  11.163
96950W        W61935  11.069   0.370   1.316
96951W        W61936  30.049  13.933   4.540
96952W        W61937  20.528   0.489  13.453
96953W        W61938  11.387   7.764   2.744
96954W        W61939  33.371   7.688   1.428
96955W        W61940  36.487  17.319   3.270
96956W        W61941   0.047  37.921   4.934
96957W        W61942  38.536  15.803  12.306
96958W        W61943  35.069  17.252  12.492
96959W        W61944  19.663  42.742  11.605
96960W        W61945  32.890  36.340  14.500
96961W        W61946  41.485  21.522   4.663
96962W        W61947  10.931  22.164   3.621
96963W        W61948  40.311  40.294  14.401
96964W        W61949  31.170  20.132   4.859
96965W        W61950  32.548  36.206   4.141
96966W        W61951  13.186  41.866  10.992
96967W        W61952  10.710  23.590  12.608
96968W        W61953  13.786   0.785  12.040
96969W        W61954  30.417  28.435  13.297
96970W        W61955  32.832  13.149  14.303
96971W        W61956  17.962  32.981  14.809
96972W        W61957  29.799   3.397   0.280
96973W        W61958  18.952  36.821   0.582
96974W        W61959  20.463  29.832   4.839
96975W        W61960  38.551   5.756   3.353
96976W        W61961  13.038  41.406   1.410
96977W        W61962  32.544  44.883   2.754
96978W        W61963   8.265  37.526  10.765
96979W        W61964  28.430  25.749  13.119
96980W        W61965   3.298  42.686   2.990
96981W        W61966   7.731  43.967   3.644
96982W        W61967   1.732  10.056  12.525
96983W        W61968  37.729  15.500  11.666
96984W        W61969  40.191  23.591  13.978
96985W        W61970  27.062  40.838  14.849
96986W        W61971   0.216   3.467   0.437
96987W        W61972   1.513  39.262  14.789
96988W        W61973  24.680  35.243   2.718
96989W        W61974  16.101  22.967   1.425
96990W        W61975  39.071  23.595   0.461
96991W        W61976  18.022  43.856  14.924
96992W        W61977  33.605  32.386   3.677
96993W        W61978  31.925   4.405  12.979
96994W        W61979  37.609  39.563   0.358
96995W        W61980  18.109   8.851   4.113
96996W        W61981  15.226   6.847  11.867
96997W        W61982  23.508  29.247   3.185
96998W        W61983  22.565  18.127  13.719
96999W        W61984  31.888   7.408  11.166
97000W        W61985  24.797   4.352   4.475
97001W        W61986  42.504  37.624   4.823
97002W        W61987  18.266  42.408   2.245
97003W        W61988  39.627  11.637  12.195
97004W        W61989  21.742  44.283  12.227
97005W        W61990   7.190  24.135  11.448
97006W        W61991  16.439  25.675   3.216
97007W        W61992  35.106  37.081   0.638
97008W        W61993   3.273  27.121   1.293
97009W        W61994  17.385  10.827   4.731
97010W        W61995  12.474  10.576  11.500
97011W        W61996   9.808  30.434   2.201
97012W        W61997  15.685  43.323   0.497
97013W        W61998  40.954   3.747  12.398
97014W        W61999  12.794  12.727  12.291
97015W        W62000  21.775   8.319  12.264
97016W        W62001   9.910  17.571  12.582
97017W        W62002  37.119   0.232   2.454
97018W        W62003   6.264   2.228  14.864
97019W        W62004   8.746  37.652   1.904
97020W        W62005  34.068  21.388  13.932
97021W        W62006   7.815  17.218  14.120
97022W        W62007   4.291  23.720  14.415
97023W        W62008   0.173  12.758  12.055
97024W        W62009  19.204   8.828  14.879
97025W        W62010  11.701  13.256  12.564
97026W        W62011  12.185  29.884   3.740
97027W        W62012   1.995   8.327   1.556
97028W        W62013   6.774  23.536  13.924
97029W        W62014   2.442   4.519   1.412
97030W        W62015  32.007  41.529   2.136
97031W        W62016  10.160   4.436   4.621
97032W        W62017   8.225  36.982  12.800
97033W        W62018  31.585   8.845   5.180
97034W        W62019  21.284   0.347   2.854
97035W        W62020  26.041  12.821   4.595
97036W        W62021   7.542  17.036   3.739
97037W        W62022   7.230  16.072  14.422
97038W        W62023  11.633   1.774  14.866
97039W        W62024  29.191   2.894  13.428
97040W        W62025   8.640  12.805   2.680
97041W        W62026  36.821   2.408  13.342
97042W        W62027   2.109  33.675   4.975
97043W        W62028  39.354  16.724  13.234
97044W        W62029  43.905  15.435   2.075
97045W        W62030   5.497  31.099   3.469
97046W        W62031  22.544  11.656   3.788
97047W        W62032  15.314   9.777   1.644
97048W        W62033  21.462  21.524  13.413
97049W        W62034  42.358   9.709   0.739
97050W        W62035   5.677  31.106  12.366
97051W        W62036  38.287  17.544  12.703
97052W        W62037  10.309  38.773  12.768
97053W        W62038  12.204  29.975  13.836
97054W        W62039  19.963   7.632   0.268
97055W        W62040   8.585  11.827  12.510
97056W        W62041  40.138   2.176  12.061
97057W        W62042  25.723  26.097   0.466
97058W        W62043  39.737  42.421  11.867
97059W        W62044  30.974  44.677   0.409
97060W        W62045  26.469   9.876  13.922
97061W        W62046  42.865  40.376   2.146
97062W        W62047   8.408   6.909   1.193
97063W        W62048  44.955   5.651   0.380
97064W        W62049  14.832  38.980  11.659
97065W        W62050   9.366  21.434  10.481
97066W        W62051  36.483  18.094   2.621
97067W        W62052  12.952  12.711  10.769
97068W        W62053  16.196  20.516  14.732
97069W        W62054  25.465   5.326   2.505
97070W        W62055  32.207  17.634   1.814
97071W        W62056  10.448  14.131  11.700
97072W        W62057  34.162  29.932   0.164
97073W        W62058   5.505   9.865   3.119
97074W        W62059  22.700  10.989  13.944
97075W        W62060  10.206  16.565   3.320
97076W        W62061  18.756  24.309   5.175
97077W        W62062  35.293  43.470  13.617
97078W        W62063  13.570  11.446   1.905
97079W        W62064   9.096   1.912  10.875
97080W        W62065  40.985  17.575   3.103
97081W        W62066   2.368  18.296   0.857
97082W        W62067  15.570  13.999  12.031
97083W        W62068  42.320   7.381  13.937
97084W        W62069  38.602  39.397   4.754
97085W        W62070   9.900   7.434   1.693
97086W        W62071   9.515  29.937   4.213
97087W        W62072  20.552   7.194  11.110
97088W        W62073   3.192   6.875  12.553
97089W        W62074   8.304   1.500   1.333
97090W        W62075   3.737  40.855   4.218
97091W        W62076  35.919  19.116  13.511
97092W        W62077  17.119  37.161   2.700
97093W        W62078   2.005  29.606  14.838
97094W        W62079   6.806  30.470   0.011
97095W        W62080  16.875  18.487  11.183
97096W        W62081   1.078  16.065  13.141
97097W        W62082  21.265   5.913  11.094
97098W        W62083  30.499  14.180  13.070
97099W        W62084  17.479  33.423   3.074
97100W        W62085  37.649  26.611   1.212
97101W        W62086  12.852  14.809  11.121
97102W        W62087  44.399   4.940  11.599
97103W        W62088  21.020   4.170  13.636
97104W        W62089  24.519  13.304   2.775
97105W        W62090  33.886   4.401  12.134
97106W        W62091  10.896  40.369   3.753
97107W        W62092  25.863  39.241  10.791
97108W        W62093  38.944  12.632   3.351
97109W        W62094  23.480  23.038   3.623
97110W        W62095  27.612  22.068   1.428
97111W        W62096   9.390  41.783   1.296
97112W        W62097  44.306  37.571   4.163
97113W        W62098  24.307  38.586   0.795
97114W        W62099  28.144  12.193   2.830
97115W        W62100  43.434   9.727   1.765
97116W        W62101  33.519  39.306   1.266
97117W        W62102  25.746  32.065   3.057
97118W        W62103  11.514  35.319   1.806
97119W        W62104  22.234   2.286  10.766
97120W        W62105  43.797  12.119  13.465
97121W        W62106  22.265  35.842  14.845
97122W        W62107   9.248  30.205  14.853
97123W        W62108   7.887  17.531  12.172
97124W        W62109   5.256  25.502   0.274
97125W        W62110  36.691  13.397  13.927
97126W        W62111   8.699  42.906   0.952
97127W        W62112  19.817  37.466   3.824
97128W        W62113   8.753  14.553   2.196
97129W        W62114  31.376  32.186  10.771
97130W        W62115  38.859   3.783  14.917
97131W        W62116  21.769  15.003   3.718
97132W        W62117  31.881  25.265  12.083
97133W        W62118  23.045  30.868  10.959
97134W        W62119  22.522  18.704  12.023
97135W        W62120  43.505  43.289  12.981
97136W        W62121  16.861  17.885   3.083
97137W        W62122  30.869   8.057  11.112
97138W        W62123  14.813  41.253   0.769
97139W        W62124  18.775  38.835   2.421
97140W        W62125  43.525  23.087  10.280
97141W        W62126  36.439   4.115  11.951
97142W        W62127  44.271  29.802  11.282
97143W        W62128  22.114   1.012   1.327
97144W        W62129  22.578  28.883   0.004
97145W        W62130  38.433  21.102   3.359
97146W        W62131   4.472  26.777   1.640
97147W        W62132  40.913   6.063  13.008
97148W        W62133  30.156  20.535   4.156
97149W        W62134  44.861  42.919   3.189
97150W        W62135  39.982  26.168   0.255
97151W        W62136   8.465  11.575   2.732
97152W        W62137   2.404  36.561  13.963
97153W        W62138   4.438  19.964  11.907
97154W        W62139  13.273   1.040  12.921
97155W        W62140  21.120   4.273  11.572
97156W        W62141   3.525  33.866  12.025
97157W        W62142  28.059  36.367   0.830
97158W        W62143   9.107   1.180   4.845
97159W        W62144  41.702  39.933  11.194
97160W        W62145  14.052  31.405   2.740
97161W        W62146  11.163  11.726  11.711
97162W        W62147   0.660   8.608   4.298
97163W        W62148  39.152  32.234   2.366
97164W        W62149  21.388  10.323  13.435
97165W        W62150   1.994  19.122  12.226
97166W        W62151   5.628  40.956  14.551
97167W        W62152  30.380   0.463   1.528
97168W        W62153  26.225  33.042   4.523
97169W        W62154  30.014  42.911   2.395
97170W        W62155  12.697  23.167  10.948
97171W        W62156  29.675  18.063  14.720
97172W        W62157   1.753  28.062  13.566
97173W        W62158   2.697  10.816   3.589
97174W        W62159  29.214  18.243   1.621
97175W        W62160  34.641  29.924  13.395
97176W        W62161  23.004  21.046   4.342
97177W        W62162  18.588  22.031   0.517
97178W        W62163   5.589  15.839  10.179
97179W        W62164   0.938  30.944   2.388
97180W        W62165   0.190  42.418  13.394
97181W        W62166  44.181  27.849   1.380
97182W        W62167  32.394  19.710  10.778
97183W        W62168  15.861   0.493  14.575
97184W        W62169  21.150   8.184  13.969
97185W        W62170  16.724  16.030   0.864
97186W        W62171   8.018  40.273  12.145
97187W        W62172   8.980   1.797   0.610
97188W        W62173   1.882   9.892  12.054
97189W        W62174   3.557  11.434  10.688
97190W        W62175  36.529  20.977   4.271
97191W        W62176  33.999  37.243   4.101
97192W        W62177  35.679  16.755   4.530
97193W        W62178  41.615  41.511   3.296
97194W        W62179  11.046  23.664  13.059
97195W        W62180   2.792  30.755   2.803
97196W        W62181   4.371  36.873   4.769
97197W        W62182  19.824  38.642  12.566
97198W        W62183  19.075   2.162   3.644
97199W        W62184  23.352   6.190  10.062
97200W        W62185  11.132  15.653   3.220
97201W        W62186  27.730  23.675  12.112
97202W        W62187  26.607  33.772   4.623
97203W        W62188  41.691  43.936  13.996
97204W        W62189  30.463  41.285  12.076
97205W        W62190  15.575  42.964   2.726
97206W        W62191  25.153  44.472   0.700
97207W        W62192   2.752  30.631  14.580
97208W        W62193   2.863  14.557  14.765
97209W        W62194  32.890  26.267  14.945
97210W        W62195  12.437  25.065   2.676
97211W        W62196   0.660   9.529   3.254
97212W        W62197   4.475  19.850  14.523
97213W        W62198  11.726  12.816  14.343
97214W        W62199  13.140   3.479  13.919
97215W        W62200  21.016  14.157  14.628
97216W        W62201   9.909  40.976  12.574
97217W        W62202  25.496  36.302   2.816
97218W        W62203  31.589  41.543  13.380
97219W        W62204  10.015  28.669  13.239
97220W        W62205   6.782  35.381   3.272
97221W        W62206  13.692  42.166   2.969
97222W        W62207  21.282  15.318  10.397
97223W        W62208  37.305  18.122   2.062
97224W        W62209  38.113  23.074   3.049
97225W        W62210   1.804   8.612   0.359
97226W        W62211   5.258  24.213   4.635
97227W        W62212  29.420  18.126  12.484
97228W        W62213  44.232  19.839   0.333
97229W        W62214  29.515  31.633   4.259
97230W        W62215  42.026  38.387  14.438
97231W        W62216  29.444  23.048  11.695
97232W        W62217   4.852  20.761   2.877
97233W        W62218  18.266  29.664  11.180
97234W        W62219   4.998   7.652  11.514
97235W        W62220  22.102  10.221   0.043
97236W        W62221  44.220   6.327   1.096
97237W        W62222  14.732  33.901   4.613
97238W        W62223  36.262  41.920   0.325
97239W        W62224  31.510   0.232   2.194
97240W        W62225  30.034   9.701  14.633
97241W        W62226  11.320  40.992  10.685
97242W        W62227  23.185  13.086  14.366
97243W        W62228  43.373  20.067   2.389
97244W        W62229  37.979  26.999   1.372
97245W        W62230   0.827  33.761   0.726
97246W        W62231  21.001  32.615   1.360
97247W        W62232   0.352  12.336  10.781
97248W        W62233  42.357  17.897   3.674
97249W        W62234  26.185  11.604   4.615
97250W        W62235  14.605  14.648  10.764
97251W        W62236   1.646  18.919  13.783
97252W        W62237  43.545  21.330   5.516
97253W        W62238  37.241   8.164  13.059
97254W        W62239  35.472  19.583  12.038
97255W        W62240  43.821   5.308  11.013
97256W        W62241  13.174  23.527  11.601
97257W        W62242  44.909  33.516  10.111
97258W        W62243  16.119  33.657  13.562
97259W        W62244   6.621  36.503   0.407
97260W        W62245  17.944  27.935   1.250
97261W        W62246   3.112  18.613   2.774
97262W        W62247  16.666  10.071  12.513
97263W        W62248  31.965   3.912  13.806
97264W        W62249  40.382  14.012   3.600
97265W        W62250  39.796   0.408   0.312
97266W        W62251   6.639  14.850  10.709
97267W        W62252  44.051  13.038  14.369
97268W        W62253  42.149  24.223   2.282
97269W        W62254  30.750  22.485   0.759
97270W        W62255  21.255  18.779   5.206
97271W        W62256  34.598  26.582   2.358
97272W        W62257   4.905   2.914   1.698
97273W        W62258  23.480  27.055  11.409
97274W        W62259   3.502  29.157   1.255
97275W        W62260  25.993  35.568  10.528
97276W        W62261  40.884  44.624  13.838
97277W        W62262  38.474   6.333   1.922
97278W        W62263  30.826  24.737  12.981
97279W        W62264   6.369  22.954   2.195
97280W        W62265  39.886  37.260  13.285
97281W        W62266  41.755  30.674   1.763
97282W        W62267  41.902  11.441   0.032
97283W        W62268   8.673  36.063  12.586
97284W        W62269  37.881  39.121   0.485
97285W        W62270  13.708   8.209  11.252
97286W        W62271  14.162  33.975   2.372
97287W        W62272   3.914  14.706   3.873
97288W        W62273  32.335  44.795   4.070
97289W        W62274  17.256   5.889  14.732
97290W        W62275  36.158  34.378   4.583
97291W        W62276   8.562  29.034   4.384
97292W        W62277   5.398  18.574  10.546
97293W        W62278  15.221  18.866   1.019
97294W        W62279   3.940  43.704  11.583
97295W        W62280  37.234   2.717   1.730
97296W        W62281   8.896  43.872   0.895
97297W        W62282  30.383  20.531   2.801
97298W        W62283  38.877  32.289   4.052
97299W        W62284  32.087  34.503   1.198
97300W        W62285  15.004  42.413   4.104
97301W        W62286  22.971  11.203   0.787
97302W        W62287  27.455   4.143   2.876
97303W        W62288  11.360  15.182   3.159
97304W        W62289  26.177  15.341   0.201
97305W        W62290  15.884   2.195   0.414
97306W        W62291  26.750  18.105   3.840
97307W        W62292  26.045  17.311  11.833
97308W        W62293  35.057  24.726  14.396
97309W        W62294  17.770  28.051   1.719
97310W        W62295   1.261  25.385  14.404
97311W        W62296  32.353   1.598  11.103
97312W        W62297  40.084  28.697  10.225
97313W        W62298  15.279   3.498  11.549
97314W        W62299  29.481  29.443  14.507
97315W        W62300  22.608  37.278  12.019
97316W        W62301  11.822  39.607  10.321
97317W        W62302  20.562   2.364   1.077
97318W        W62303  37.823  39.346   1.482
97319W        W62304  37.192  35.598  11.030
97320W        W62305  18.032  37.765   2.983
97321W        W62306   5.631  42.063   3.319
97322W        W62307  25.210  37.263  12.114
97323W        W62308  23.137  27.031   2.766
97324W        W62309  28.407  32.991   0.486
97325W        W62310  42.544  38.510  12.121
97326W        W62311  42.814  38.374   4.103
97327W        W62312  17.208  11.588   2.735
97328W        W62313  30.632  15.378   3.363
97329W        W62314   4.263  12.213  10.967
97330W        W62315   0.058  23.119  12.857
97331W        W62316  29.449   3.737   2.394
97332W        W62317  39.238   1.775   1.494
97333W        W62318  24.113   6.268   0.509
97334W        W62319   8.470  26.322  12.174
97335W        W62320  23.485   1.490   0.690
97336W        W62321  14.154  18.744  11.703
97337W        W62322  19.223  30.827   2.717
97338W        W62323  39.847  34.342  12.854
97339W        W62324  28.109  18.115  13.924
97340W        W62325  27.048  41.618  12.021
97341W        W62326  12.288  34.379   4.422
97342W        W62327  44.648  13.508   2.669
97343W        W62328   1.917  19.553  11.925
97344W        W62329  38.846  10.308  10.155
97345W        W62330  35.053  36.490   1.675
97346W        W62331  14.155   1.610   2.545
97347W        W62332  16.560   4.749  13.898
97348W        W62333  43.345  37.744   1.924
97349W        W62334  27.346  13.575  11.125
97350W        W62335  26.013   9.377   1.831
97351W        W62336  18.459  41.047  12.523
97352W        W62337  41.850  42.507   4.400
97353W        W62338  18.624  25.508  12.723
97354W        W62339  10.089  33.565  13.157
97355W        W62340  28.561  34.906   1.672
97356W        W62341   6.333   1.964   0.638
97357W        W62342  44.289  10.254   2.091
97358W        W62343   7.795  27.041   2.341
97359W        W62344  17.008   6.374   1.033
97360W        W62345  32.808  32.193  11.673
97361W        W62346  18.840  33.193   4.610
97362W        W62347  16.766  26.433   4.208
97363W        W62348  31.008  40.076  14.821
97364W        W62349  41.210  37.818  11.176
97365W        W62350  28.048  17.297   2.201
97366W        W62351  27.280  26.003  14.535
97367W        W62352  16.223  31.763  12.131
97368W        W62353  10.201  39.794  10.450
97369W        W62354  23.010  35.673  10.935
97370W        W62355  24.712  41.108  12.572
97371W        W62356  42.601   9.785   4.339
97372W        W62357  24.100  34.177   0.759
97373W        W62358   0.765  17.065   2.741
97374W        W62359  26.029  18.008  13.249
97375W        W62360  27.969  42.978  11.102
97376W        W62361  30.077  15.669   4.269
97377W        W62362  32.248  15.545  11.992
97378W        W62363  36.586  40.656  14.292
97379W        W62364  19.622  32.477   4.653
97380W        W62365  43.153  12.165   2.272
97381W        W62366  12.450  33.729   2.443
97382W        W62367  20.623  43.869  10.650
97383W        W62368  41.526  11.192   3.543
97384W        W62369   5.789  24.109   0.911
97385W        W62370  27.856  22.745  12.427
97386W        W62371   7.217  25.134  13.478
97387W        W62372  38.573   9.568  14.573
97388W        W62373   1.873  21.910   1.061
97389W        W62374  24.406  36.530  11.416
97390W        W62375   4.283  27.659  12.719
97391W        W62376   8.802  18.271   1.922
97392W        W62377  41.497  39.957  11.672
97393W        W62378   0.411  27.676  11.499
97394W        W62379  19.083  27.776  14.857
97395W        W62380  17.814  27.149  13.488
97396W        W62381  13.227   2.507   0.783
97397W        W62382  31.517  12.041   2.345
97398W        W62383  28.595  23.510  14.839
97399W        W62384  20.075  17.073   2.638
97400W        W62385  40.823  12.279  10.847
97401W        W62386  16.750  25.100   1.819
97402W        W62387  15.102  18.310  11.145
97403W        W62388  33.388  19.230   2.983
97404W        W62389   3.955  19.337   1.967
97405W        W62390  42.367  22.599   2.185
97406W        W62391  32.994   0.300   2.018
97407W        W62392   8.995   6.818  10.313
97408W        W62393  33.734   6.777  11.037
97409W        W62394  21.590  34.682   4.734
97410W        W62395  40.231  22.735  10.766
97411W        W62396  39.509  10.149  10.734
97412W        W62397  36.453  34.064  13.466
97413W        W62398  19.268  28.252  12.618
97414W        W62399  19.808   2.460  14.889
97415W        W62400   9.277  29.253  11.572
97416W        W62401  21.986   5.964   3.104
97417W        W62402  30.438   6.252  13.511
97418W        W62403  34.627   0.486  11.101
97419W        W62404  16.566  23.222   1.500
97420W        W62405  33.597  34.077   0.243
97421W        W62406  40.825  32.382   1.870
97422W        W62407   0.991  19.971  13.030
97423W        W62408   4.809   3.978   1.023
97424W        W62409  21.924  44.797   0.411
97425W        W62410  21.199   0.681  11.486
97426W        W62411  20.749   5.979  14.990
97427W        W62412   0.231  40.209   2.782
97428W        W62413   7.587  33.054  13.765
97429W        W62414  12.414   9.086  14.488
97430W        W62415  13.903  28.639   2.525
97431W        W62416   5.274  31.043   2.080
97432W        W62417  36.607  26.508   0.400
97433W        W62418  21.420  44.676  13.997
97434W        W62419  43.416  32.026   0.225
97435W        W62420  25.178   4.322  14.733
97436W        W62421   5.613  36.905   2.208
97437W        W62422  28.545  35.024   1.153
97438W        W62423   6.666  32.793  12.014
97439W        W62424   3.029  28.480  10.380
97440W        W62425  22.030   3.465   2.805
97441W        W62426  44.838   6.719   3.247
97442W        W62427  22.540  18.065  13.212
97443W        W62428  21.619  24.618  13.395
97444W        W62429  35.424  39.891  12.937
97445W        W62430  13.515  40.387   2.693
97446W        W62431  20.618  39.880  14.929
97447W        W62432   0.964  27.640  11.648
97448W        W62433  34.140  42.300   4.756
97449W        W62434   4.937  18.208  12.001
97450W        W62435  25.631  23.135  12.418
97451W        W62436  17.792  41.584  14.939
97452W        W62437  39.979   8.318  12.331
97453W        W62438  18.625  26.963  10.459
97454W        W62439  28.080  19.362   1.788
97455W        W62440  16.729  16.542   0.817
97456W        W62441  27.357  40.261  11.632
97457W        W62442  11.482  27.681   5.028
97458W        W62443   4.387   6.009   2.811
97459W        W62444  37.994  22.111  11.432
97460W        W62445  19.595  30.050   4.523
97461W        W62446  35.588  20.674  14.416
97462W        W62447  42.003  39.393  13.697
97463W        W62448  22.293   5.053   1.957
97464W        W62449  40.389  13.166  14.977
97465W        W62450  23.708  36.472   0.593
97466W        W62451  35.813   9.133  14.874
97467W        W62452  16.203   2.334   4.952
97468W        W62453   0.390  18.005  14.859
97469W        W62454  25.361  33.341   0.897
97470W        W62455  28.394   2.118  12.019
97471W        W62456  35.478  15.415  12.860
97472W        W62457  28.987  38.741  12.529
97473W        W62458  16.303  12.281   1.836
97474W        W62459  22.328  11.564   1.342
97475W        W62460  31.077  22.275   4.163
97476W        W62461   7.385  26.129   0.305
97477W        W62462  44.964  18.558   1.180
97478W        W62463  19.671  26.502  11.036
97479W        W62464  13.620  32.395   0.264
97480W        W62465   4.349  13.902   2.608
97481W        W62466   8.809  26.709  14.718
97482W        W62467  24.442  38.749   1.274
97483W        W62468   2.237  35.394   0.338
97484W        W62469  16.639   8.419   3.145
97485W        W62470  13.249  29.440   2.363
97486W        W62471  44.344  41.039  13.517
97487W        W62472  30.238  21.603  12.857
97488W        W62473   8.314   4.978  13.883
97489W        W62474   6.905  23.190  13.561
97490W        W62475  41.112  24.425  11.588
97491W        W62476  33.442  17.979   4.324
97492W        W62477   3.934   4.394  10.696
97493W        W62478  28.502  30.403  13.831
97494W        W62479  44.764   2.812   4.498
97495W        W62480  19.798  28.090  14.064
97496W        W62481  32.627  36.470  11.630
97497W        W62482  35.353  39.083  13.306
97498W        W62483  34.931  15.578  12.100
97499W        W62484  29.020  17.375  14.490
97500W        W62485  10.849  35.254  12.089
97501W        W62486  19.048   2.936   0.011
97502W        W62487  33.994  11.187   3.271
97503W        W62488  28.602   7.705   1.449
97504W        W62489  11.417  41.788  14.542
97505W        W62490  38.868   8.961  10.752
97506W        W62491   2.733  27.191   0.419
97507W        W62492  41.908  17.061   2.632
97508W        W62493  28.617  37.472   4.692
97509W        W62494  42.495  25.572  14.484
97510W        W62495   7.458  27.152   4.652
97511W        W62496  20.543   0.139   4.627
97512W        W62497   6.830   7.508  13.881
97513W        W62498   6.364  41.397  14.009
97514W        W62499  17.599  43.387  11.898
97515W        W62500   6.181  21.565  12.299
97516W        W62501  13.780  28.041  11.965
97517W        W62502   4.433  27.213  10.215
97518W        W62503  31.212   1.931   2.811
97519W        W62504  12.102  32.940  12.109
97520W        W62505  12.325  30.544   0.439
97521W        W62506   2.288  23.533   1.315
97522W        W62507  28.868   4.533  13.518
97523W        W62508  19.517  42.356   3.181
97524W        W62509   4.451  43.936  12.189
97525W        W62510  37.672   9.912   5.005
97526W        W62511  15.135  39.521   3.627
97527W        W62512   5.682  35.374   0.437
97528W        W62513  37.263  30.143  11.623
97529W        W62514  12.069  40.285   2.390
97530W        W62515  41.665  29.124   4.204
97531W        W62516  32.576   5.889   0.278
97532W        W62517  16.321   4.181   5.355
97533W        W62518  39.770  39.551   1.724
97534W        W62519  40.390  15.722  14.031
97535W        W62520   5.314   7.229  13.714
97536W        W62521  16.099  31.439   1.775
97537W        W62522  39.542  23.247   3.575
97538W        W62523  23.923  12.341  13.347
97539W        W62524  25.402   4.018   9.568
97540W        W62525   6.411  14.363   2.416
97541W        W62526  17.269   6.357  13.894
97542W        W62527  39.418  21.140  11.563
97543W        W62528  25.686  34.319  13.574
97544W        W62529  35.393  29.003  12.836
97545W        W62530  17.550  23.736   4.912
97546W        W62531  39.159  34.858   2.680
97547W        W62532  39.859  31.853  12.601
97548W        W62533  35.615  27.434  14.523
97549W        W62534  40.359  32.127  13.086
97550W        W62535  37.871  36.802   4.547
97551W        W62536  12.125  23.316   0.679
97552W        W62537  11.157  44.223  14.313
97553W        W62538  29.923  28.483  13.441
97554W        W62539  29.144  28.821  10.440
97555W        W62540  18.408  19.579   2.595
97556W        W62541  23.180   1.770   2.356
97557W        W62542   6.195  28.352   4.220
97558W        W62543   2.305   4.133   4.855
97559W        W62544  23.222  23.467   3.696
97560W        W62545   1.638   6.178  11.533
97561W        W62546  11.715  17.325   4.586
97562W        W62547  10.940   5.606   3.660
97563W        W62548   8.297  36.954   4.643
97564W        W62549  15.289   7.274   4.219
97565W        W62550   5.708  29.953   0.524
97566W        W62551  34.910  40.279   0.458
97567W        W62552   2.266  29.212   2.127
97568W        W62553  14.172  16.771  13.005
97569W        W62554  27.560  40.086   3.831
97570W        W62555   3.389   5.952   3.099
97571W        W62556  29.870  29.574   1.856
97572W        W62557   9.200   7.796  11.009
97573W        W62558   7.906  23.140  12.879
97574W        W62559  29.242  35.559  12.837
97575W        W62560   3.242  43.307   1.783
97576W        W62561  18.809  26.477  12.941
97577W        W62562   2.889  26.401  14.994
97578W        W62563  44.843  42.848   2.344
97579W        W62564  43.012  15.617  10.833
97580W        W62565   4.122  33.101  11.376
97581W        W62566  27.682   7.601   1.422
97582W        W62567  27.551  39.334  11.144
97583W        W62568   3.828  19.673   2.382
97584W        W62569  42.531   0.693   2.932
97585W        W62570  33.983  28.714  13.422
97586W        W62571  27.535  36.051  14.351
97587W        W62572  10.892  23.799   4.189
97588W        W62573  23.152  27.120  14.682
97589W        W62574   1.851  40.331  13.869
97590W        W62575  37.983   9.620   4.178
97591W        W62576  39.390  38.242  11.040
97592W        W62577  19.697  38.914  11.181
97593W        W62578  14.058  27.403  11.686
97594W        W62579   7.287  25.988  13.244
97595W        W62580  20.075  30.093  11.709
97596W        W62581   9.126   3.617   1.348
97597W        W62582  19.039  42.964   2.820
97598W        W62583  37.133   7.331  11.799
97599W        W62584  27.780   1.139  12.910
97600W        W62585  16.695   9.027   0.498
97601W        W62586  19.220  26.508   1.133
97602W        W62587  14.128  13.480   2.847
97603W        W62588  23.498  10.140   0.831
97604W        W62589   8.866   5.271  11.228
97605W        W62590  41.820   6.292   3.386
97606W        W62591  22.173  29.701   3.297
97607W        W62592  17.177   8.320   4.977
97608W        W62593  33.098   8.525   2.309
97609W        W62594  28.940  38.154   3.510
97610W        W62595  39.514  13.382  12.486
97611W        W62596  40.474  11.553  12.102
97612W        W62597  26.081  43.774  11.164
97613W        W62598  44.514  37.896   4.785
97614W        W62599   8.241  24.069   1.293
97615W        W62600  33.153  18.624  12.478
97616W        W62601  27.436  39.117   4.499
97617W        W62602   8.225   6.046  11.067
97618W        W62603  15.521   3.813   5.137
97619W        W62604   4.892   0.677   4.341
97620W        W62605  13.279  40.958   2.175
97621W        W62606   4.503  15.588   4.485
97622W        W62607  36.937   6.156   2.639
97623W        W62608  33.939  32.894  12.625
97624W        W62609   9.841  31.572  12.510
97625W        W62610   5.058  13.120   1.173
97626W        W62611  16.650  19.761   4.607
97627W        W62612   3.455   1.178  11.598
97628W        W62613   3.192   8.287   3.176
97629W        W62614   8.835   3.588  12.628
97630W        W62615  38.508  23.243  14.971
97631W        W62616   3.291  39.112  10.455
97632W        W62617  14.686  15.528  12.980
97633W        W62618   8.400  21.340   2.215
97634W        W62619  33.420  37.402  10.191
97635W        W62620  14.844   7.345  12.929
97636W        W62621  21.063   3.573   4.206
97637W        W62622  24.235  18.265  13.163
97638W        W62623   6.565   6.180   6.064
97639W        W62624  23.623   5.596  12.583
97640W        W62625   4.350  41.377  12.150
97641W        W62626  14.614  29.059  14.455
97642W        W62627  24.644  12.657   1.296
97643W        W62628  40.490  42.064  13.127
97644W        W62629   2.395  19.254   3.972
97645W        W62630  29.274  14.362   4.273
97646W        W62631  10.919  36.417   3.285
97647W        W62632  37.639   4.806   3.268
97648W        W62633   6.175  39.130   3.649
97649W        W62634  36.640  23.278  12.119
97650W        W62635  14.104  18.324  11.116
97651W        W62636  25.031  31.662  13.885
97652W        W62637  13.873  35.636  13.446
97653W        W62638  24.762  44.971  11.530
97654W        W62639   8.316  28.572  13.106
97655W        W62640  20.950  37.575  12.028
97656W        W62641   5.783  27.905  11.614
97657W        W62642  40.096  10.691   2.067
97658W        W62643   6.598  12.013   0.723
97659W        W62644  25.131   0.603  14.901
97660W        W62645   7.967  14.374  11.308
97661W        W62646  39.228   6.730  11.075
97662W        W62647  34.880   9.874   0.389
97663W        W62648  44.316  29.040  10.746
97664W        W62649  17.165  43.833  13.925
97665W        W62650  16.132  20.365  10.243
97666W        W62651  14.358   4.508   2.381
97667W        W62652  26.534  17.536  14.750
97668W        W62653  11.395  10.155  11.038
97669W        W62654  34.441   9.667  10.126
97670W        W62655  37.089  27.414   0.987
97671W        W62656   7.796  29.780   0.742
97672W        W62657  26.552  22.354  12.951
97673W        W62658  36.982   4.251   1.296
97674W        W62659  13.265  32.583   3.460
97675W        W62660  26.506  31.592   0.297
97676W        W62661  22.868  10.057  13.399
97677W        W62662  44.418  10.405   0.700
97678W        W62663   2.880  13.414   1.809
97679W        W62664   1.776  28.666   3.218
97680W        W62665  25.647  18.648  12.835
97681W        W62666  35.358  37.116   0.069
97682W        W62667  44.000  27.857   3.023
97683W        W62668  17.015  16.603   4.175
97684W        W62669  35.798  44.506   0.815
97685W        W62670  24.353  36.404  13.205
97686W        W62671  11.397   1.508  12.861
97687W        W62672  43.899  26.999  10.695
97688W        W62673  34.554  23.548   2.266
97689W        W62674  22.084  22.981  12.111
97690W        W62675  25.705  12.847  10.352
97691W        W62676  37.815  43.492  11.541
97692W        W62677  25.332  38.945   1.468
97693W        W62678  43.008  20.971   3.828
97694W        W62679  21.615  30.158   0.820
97695W        W62680  26.720  35.556   2.766
97696W        W62681  34.839   2.079   3.375
97697W        W62682  25.507  24.860   9.996
97698W        W62683  14.637  42.557   1.921
97699W        W62684  41.503  44.679  11.130
97700W        W62685  37.981  31.095  11.974
97701W        W62686  11.337   2.382   1.919
97702W        W62687   0.567  44.992  12.624
97703W        W62688  19.293  40.767   3.922
97704W        W62689  28.411  23.609   1.872
97705W        W62690   2.741   9.117  10.825
97706W        W62691  25.589  24.163   2.333
97707W        W62692  28.119  17.262  10.688
97708W        W62693  24.572  30.873  13.550
97709W        W62694  20.912   2.006  14.909
97710W        W62695  22.999  19.029  13.096
97711W        W62696  18.200  12.328  14.415
97712W        W62697  35.900  13.152  14.321
97713W        W62698   4.629  35.266  11.934
97714W        W62699  25.176  34.145  13.567
97715W        W62700  19.483  32.738   0.254
97716W        W62701  29.065  37.575  13.318
97717W        W62702  32.547  10.278   0.748
97718W        W62703  36.248  13.896  12.630
97719W        W62704  13.577  24.649   3.171
97720W        W62705  40.724  42.328   1.670
97721W        W62706  23.595  30.184   9.745
97722W        W62707  22.497  21.780   2.385
97723W        W62708  14.633  19.723  13.964
97724W        W62709  18.305  12.873  12.305
97725W        W62710  25.866  41.176   1.251
97726W        W62711  28.097  24.790  11.650
97727W        W62712  31.682  23.523  14.056
97728W        W62713  22.434  29.029   4.942
97729W        W62714  43.428  42.772  12.948
97730W        W62715  22.559  38.384   3.940
97731W        W62716  30.616  41.531   3.192
97732W        W62717  11.039   9.806   0.931
97733W        W62718  32.106   4.784  10.843
97734W        W62719   7.639  19.478   3.682
97735W        W62720  41.277  43.219  12.120
97736W        W62721  34.825  40.136   0.946
97737W        W62722   7.952  35.418   0.940
97738W        W62723  16.294  26.581   5.283
97739W        W62724  19.282  24.643   3.576
97740W        W62725  36.775  41.602  13.535
97741W        W62726  21.234  28.412  10.748
97742W        W62727  11.865  26.520   0.928
97743W        W62728  35.937  34.386  11.957
97744W        W62729  18.700   4.721  12.466
97745W        W62730  35.850   9.252   1.318
97746W        W62731  43.686  40.580  14.712
97747W        W62732   2.331  33.342  11.216
97748W        W62733  26.080   8.768   0.098
97749W        W62734  37.483  13.096   4.914
97750W        W62735  40.124  24.186  12.232
97751W        W62736   7.606  16.642  13.448
97752W        W62737  43.797  30.783   3.684
97753W        W62738  38.064  37.495  12.967
97754W        W62739  34.268  30.603   3.532
97755W        W62740   2.810  14.088   1.246
97756W        W62741   5.096  38.056  10.988
97757W        W62742   3.740  39.876  12.107
97758W        W62743  22.596  34.621   2.720
97759W        W62744  17.285  29.524  12.872
97760W        W62745  23.510  44.927   3.998
97761W        W62746  42.793  34.729   2.758
97762W        W62747  10.246  30.923  14.521
97763W        W62748   0.806  18.993  10.865
97764W        W62749   7.136  23.120   1.508
97765W        W62750  36.914  10.874   0.190
97766W        W62751  14.415  26.009   4.213
97767W        W62752  24.666  19.361  11.728
97768W        W62753  18.353   6.483   0.283
97769W        W62754  14.116  37.115  12.103
97770W        W62755  36.050  42.004   4.671
97771W        W62756  20.290   8.085  13.973
97772W        W62757  17.406  31.168  13.984
97773W        W62758  10.777   3.812  12.211
97774W        W62759  27.017  38.859   3.610
97775W        W62760  31.205  11.089  12.445
97776W        W62761   1.476  36.329  12.337
97777W        W62762  19.917  23.517   3.228
97778W        W62763  23.609  21.640  11.982
97779W        W62764  24.851  14.303  13.061
97780W        W62765  20.173  21.191  11.976
97781W        W62766  39.127  40.499  13.415
97782W        W62767  43.868  11.538  12.549
97783W        W62768   1.813  41.370   0.600
97784W        W62769   0.329  21.435   2.218
97785W        W62770   5.082  35.077  11.712
97786W        W62771  35.357  41.607   2.307
97787W        W62772  22.611  35.314  14.971
97788W        W62773  23.565  41.419  11.644
97789W        W62774   6.459   1.280   3.829
97790W        W62775  14.995  32.036   1.764
97791W        W62776  36.525   2.712  14.020
97792W        W62777  19.264  31.473   3.300
97793W        W62778  23.998  33.607  10.054
97794W        W62779   5.179  31.849  10.554
97795W        W62780  41.905  29.969   2.197
97796W        W62781   4.860  32.906  11.584
97797W        W62782   6.988  30.578   3.243
97798W        W62783  39.002  37.280  12.075
97799W        W62784  19.919  44.209   2.144
97800W        W62785  26.585  34.107   3.858
97801W        W62786   0.886  31.889  14.055
97802W        W62787  34.857  25.891  11.674
97803W        W62788  39.051   3.814   4.231
97804W        W62789  15.055  27.292  12.643
97805W        W62790  14.811  24.016   3.161
97806W        W62791   9.606  34.557  13.856
97807W        W62792   9.291  34.324  14.848
97808W        W62793   7.797   8.188  11.067
97809W        W62794  24.474  36.538  10.553
97810W        W62795   3.837  17.297  13.162
97811W        W62796   2.094   9.459   2.376
97812W        W62797  31.730  11.147  14.391
97813W        W62798  43.905  23.189  14.447
97814W        W62799   1.215   8.902  14.066
97815W        W62800  24.140  21.257   0.703
97816W        W62801   0.205  44.188  12.406
97817W        W62802  36.555  22.178  10.743
97818W        W62803  36.998  32.412   2.808
97819W        W62804  44.264  22.255  12.052
97820W        W62805   5.251  26.246   0.752
97821W        W62806  29.424  18.692  11.197
97822W        W62807  15.914  37.317  12.143
97823W        W62808  37.044  40.258   4.102
97824W        W62809  27.085  38.517   2.698
97825W        W62810   2.427   5.441  12.447
97826W        W62811  39.299   3.541   2.316
97827W        W62812  38.566  37.526  12.947
97828W        W62813  38.490  26.676   0.754
97829W        W62814  32.961   3.040  12.125
97830W        W62815  11.228  35.511   2.374
97831W        W62816  10.784   8.601  13.933
97832W        W62817  41.006  41.788   4.538
97833W        W62818  29.642  38.640   4.110
97834W        W62819  35.140   6.662   0.841
97835W        W62820  40.399   5.532  11.253
97836W        W62821  13.226  18.822  14.347
97837W        W62822  21.650   5.292   0.812
97838W        W62823  10.300  21.155  14.739
97839W        W62824  24.515  20.816  10.389
97840W        W62825  11.609  28.018  12.645
97841W        W62826  23.449  15.336   1.311
97842W        W62827  17.284  16.060   3.118
97843W        W62828  10.852   5.843   0.681
97844W        W62829   9.940  26.786   1.335
97845W        W62830  40.006  26.575   4.893
97846W        W62831  15.564  39.831  12.056
97847W        W62832   1.581  16.801   4.164
97848W        W62833  33.580  42.925   1.248
97849W        W62834  24.764  16.680  11.337
97850W        W62835  29.812   8.847  11.078
97851W        W62836  23.920   1.349   1.504
97852W        W62837  19.016  43.376  11.914
97853W        W62838  14.596  26.570   1.472
97854W        W62839  35.454  21.588  10.903
97855W        W62840   2.707  29.402   2.378
97856W        W62841  35.833  16.894   3.166
97857W        W62842   1.156  14.382  10.416
97858W        W62843   6.159  14.164   4.931
97859W        W62844  44.358   0.695   3.809
97860W        W62845  16.261  23.829  14.012
97861W        W62846  41.984  37.348   0.912
97862W        W62847  34.823  31.964  14.319
97863W        W62848  18.120  13.602   2.668
97864W        W62849  11.901  31.320   4.783
97865W        W62850  38.346   1.930  14.563
97866W        W62851   4.222  44.514  14.421
97867W        W62852  36.011  11.237   1.040
97868W        W62853   7.372   7.204  13.302
97869W        W62854  42.870   8.403   1.933
97870W        W62855  31.448  25.514  12.811
97871W        W62856   2.463  42.528  14.153
97872W        W62857  35.198  27.087  12.968
97873W        W62858  40.486  25.393  13.990
97874W        W62859  15.364   2.873  14.208
97875W        W62860  35.505  38.755  14.770
97876W        W62861  17.514   1.229   2.623
97877W        W62862  18.225  21.205   2.323
97878W        W62863   1.969  27.560   1.370
97879W        W62864  18.607  33.372   1.681
97880W        W62865   6.217  10.843  11.289
97881W        W62866   0.207  18.851   0.297
97882W        W62867  22.196  31.531   1.629
97883W        W62868   6.588  39.369   1.455
97884W        W62869  23.990   9.048   5.067
97885W        W62870  41.356  32.599  13.730
97886W        W62871  39.296  34.309   0.410
97887W        W62872   9.875  11.865   3.679
97888W        W62873   5.393   4.996   4.639
97889W        W62874  14.740  21.260  13.906
97890W        W62875  14.663  39.371  13.996
97891W        W62876  35.103   4.209  14.038
97892W        W62877   4.240   3.131  13.610
97893W        W62878  22.205  44.692   1.249
97894W        W62879  19.833  17.653  14.019
97895W        W62880  32.034   4.088   4.262
97896W        W62881   0.771  18.931  11.923
97897W        W62882  44.924  36.729   1.682
97898W        W62883  34.600  10.150   3.644
97899W        W62884  27.098  29.104   4.052
97900W        W62885  26.176  43.013  13.454
97901W        W62886   4.241  14.334  11.261
97902W        W62887  28.731  29.113   3.797
97903W        W62888   9.754  16.661  13.336
97904W        W62889  19.921  18.662   0.363
97905W        W62890   2.787  25.526   2.870
97906W        W62891  28.243   6.157   2.286
97907W        W62892  36.404  10.462  12.001
97908W        W62893  34.354  27.621  12.224
97909W        W62894  29.983  22.919   2.560
97910W        W62895  33.162  19.747  11.185
97911W        W62896  43.897  44.067   1.191
97912W        W62897  42.284  31.660   1.379
97913W        W62898  13.555  20.995   4.622
97914W        W62899   3.453  23.566   4.060
97915W        W62900  36.160   4.868   2.224
97916W        W62901  12.820  39.802   2.622
97917W        W62902  15.194  16.905   0.276
97918W        W62903   0.420  39.369  14.695
97919W        W62904   1.025  35.528  12.577
97920W        W62905   1.633  31.857   4.814
97921W        W62906  23.304  20.992   3.037
97922W        W62907  32.121  39.869   2.744
97923W        W62908  20.603  23.656  13.891
97924W        W62909   5.838  43.150   0.491
97925W        W62910  36.500   9.665  14.077
97926W        W62911  44.061  27.372  10.385
97927W        W62912   3.443  42.903   4.810
97928W        W62913  38.364  43.297  13.135
97929W        W62914   9.431  20.305   0.318
97930W        W62915  12.293  26.646   0.605
97931W        W62916   4.979  38.419   1.190
97932W        W62917  37.355  29.488  12.461
97933W        W62918  14.763   0.169   4.538
97934W        W62919   7.634  16.720   1.229
97935W        W62920  37.308  23.074  13.809
97936W        W62921  22.254   5.896  12.792
97937W        W62922  13.263  35.068  13.713
97938W        W62923   7.331   0.305   1.259
97939W        W62924  18.671  41.031  10.518
97940W        W62925  33.429  27.498  10.604
97941W        W62926  44.331  44.542   0.834
97942W        W62927  42.612  24.019   2.325
97943W        W62928   9.787   8.065   3.310
97944W        W62929  24.782  36.284   0.215
97945W        W62930   3.401   3.325  14.991
97946W        W62931   3.879  10.754   3.713
97947W        W62932  29.657  10.016   2.226
97948W        W62933  22.569  35.575  13.461
97949W        W62934  10.297  26.226  12.123
97950W        W62935  16.444   4.347  11.614
97951W        W62936  20.733  14.494   4.574
97952W        W62937  36.021  38.006  13.348
97953W        W62938   7.120  21.504   3.364
97954W        W62939  44.345  28.636   2.009
97955W        W62940   6.606  16.540  13.257
97956W        W62941  32.606   7.111  11.973
97957W        W62942  12.986   0.850   1.904
97958W        W62943   4.164  35.849   1.396
97959W        W62944   3.298  12.355   4.314
97960W        W62945  13.173   0.895  11.219
97961W        W62946  43.236   0.983  12.979
97962W        W62947  36.269  29.725   2.175
97963W        W62948  22.179   8.604   3.068
97964W        W62949  43.730  17.299   2.169
97965W        W62950  18.938  28.584  14.761
97966W        W62951   4.540   9.390   0.320
97967W        W62952  33.160  12.120   1.177
97968W        W62953  29.114  24.899   1.219
97969W        W62954   7.618  44.314  11.564
97970W        W62955  14.709   8.520   3.666
97971W        W62956  36.638  37.868  14.008
97972W        W62957   9.620   9.487  11.357
97973W        W62958  17.952   4.559   4.867
97974W        W62959   4.878  44.386   4.662
97975W        W62960  14.760  40.742   4.023
97976W        W62961  42.879   9.357  14.056
97977W        W62962  12.116  14.241   0.712
97978W        W62963  15.005  25.576  13.052
97979W        W62964  27.007   5.351   4.167
97980W        W62965   8.399  16.483  11.119
97981W        W62966  40.014  42.901   0.861
97982W        W62967  12.894  40.890   3.077
97983W        W62968  18.603  38.537   0.846
97984W        W62969  44.639  20.733  10.194
97985W        W62970  19.870  23.001   1.004
97986W        W62971  36.593  27.487   4.076
97987W        W62972  26.739  28.458  10.609
97988W        W62973   1.344  25.401  12.166
97989W        W62974  41.825   8.750   0.375
97990W        W62975  40.847  32.995   3.348
97991W        W62976   4.374  37.594   3.800
97992W        W62977  19.822  31.537  10.915
97993W        W62978  35.353  26.476   1.773
97994W        W62979  32.991  43.790   1.861
97995W        W62980   0.230  22.717  12.546
97996W        W62981   6.460  20.148   0.314
97997W        W62982  35.135  16.612   0.872
97998W        W62983  26.683  40.096   1.225
97999W        W62984  12.309  30.553   4.204
98000W        W62985  29.946  29.638  14.354
98001W        W62986   0.504  18.069   1.711
98002W        W62987  17.301  31.058  10.572
98003W        W62988  43.284  27.959  12.450
98004W        W62989  36.515   1.618   0.892
98005W        W62990  14.418  33.037  10.769
98006W        W62991   1.266  37.570  12.861
98007W        W62992  24.861  16.883   4.233
98008W        W62993  37.976  18.404  10.987
98009W        W62994  18.877  31.389  11.224
98010W        W62995  34.651  41.225   2.773
98011W        W62996  13.047  10.158  12.993
98012W        W62997  13.706  26.004   3.130
98013W        W62998   1.229  19.658   4.246
98014W        W62999  30.894   6.890  13.958
98015W        W63000  26.618  42.813  10.247
98016W        W63001   4.725  20.397  11.978
98017W        W63002  30.580  23.036  14.032
98018W        W63003  12.680  35.314  14.053
98019W        W63004  37.950  38.487   1.807
98020W        W63005   3.897  37.953   1.142
98021W        W63006  30.971  16.257  11.162
98022W        W63007   6.755  25.670  11.907
98023W        W63008   8.194   9.348  12.904
98024W        W63009  10.603  40.398   0.444
98025W        W63010   6.630  12.607   2.755
98026W        W63011  27.860  19.008  14.049
98027W        W63012  15.930  39.757   3.900
98028W        W63013  43.923  30.728   2.681
98029W        W63014  44.899  17.087   3.755
98030W        W63015  26.510  21.061   4.988
98031W        W63016  22.450  10.224   5.057
98032W        W63017  43.640  30.561  14.368
98033W        W63018  36.113   0.364   4.227
98034W        W63019  34.161  31.455  12.456
98035W        W63020  35.978   7.858  13.393
98036W        W63021  24.312  25.096   2.475
98037W        W63022  25.384  20.935  14.382
98038W        W63023  34.882   7.871   3.382
98039W        W63024  20.660  31.817  14.112
98040W        W63025  21.305  21.019   0.936
98041W        W63026   5.038  17.317  10.642
98042W        W63027  30.501  33.459   1.003
98043W        W63028  25.723   5.498   4.706
98044W        W63029  12.629  21.606  12.076
98045W        W63030  40.897  30.956   4.623
98046W        W63031  12.035  36.512  10.543
98047W        W63032   9.663   8.897  13.461
98048W        W63033  18.141  32.383  12.864
98049W        W63034   2.066  10.443   2.083
98050W        W63035  42.854   1.074  14.286
98051W        W63036  24.198  33.306  13.018
98052W        W63037   1.861  36.914   0.256
98053W        W63038  38.424  14.955  12.666
98054W        W63039  24.516   5.284  13.488
98055W        W63040  30.635  17.123   2.837
98056W        W63041   2.747  17.730   1.325
98057W        W63042  30.040  32.685   0.443
98058W        W63043   9.264  41.893  11.463
98059W        W63044  20.550  24.707  14.872
98060W        W63045  24.981  13.774  10.683
98061W        W63046  35.424   2.303   2.176
98062W        W63047  19.338  43.503  10.624
98063W        W63048  32.645  29.096   4.113
98064W        W63049  43.050  16.501   0.974
98065W        W63050  38.418  13.121  12.042
98066W        W63051   2.216  22.704   4.195
98067W        W63052   1.850  44.870  13.844
98068W        W63053  31.452  25.618  10.643
98069W        W63054  29.914  29.259   4.222
98070W        W63055  17.346   6.735   1.211
98071W        W63056  31.410  44.829  10.807
98072W        W63057  43.587  39.368  14.755
98073W        W63058  34.135  32.375   4.832
98074W        W63059  35.270  36.109   4.959
98075W        W63060  10.602  18.833  14.435
98076W        W63061  34.851   7.208  14.010
98077W        W63062  40.211   1.407   2.257
98078W        W63063  23.203  15.505  12.073
98079W        W63064  22.566  26.491   3.902
98080W        W63065  23.120  28.208   3.820
98081W        W63066  43.461   4.168   3.284
98082W        W63067  44.152  41.500  13.417
98083W        W63068  28.310   0.675   4.977
98084W        W63069  35.931   7.670  10.241
98085W        W63070   4.435  15.886   2.967
98086W        W63071  42.458  43.287  12.072
98087W        W63072  13.151  20.755   2.865
98088W        W63073  42.816  27.449   3.134
98089W        W63074   6.433  19.934   1.332
98090W        W63075  18.723  38.857   2.930
98091W        W63076   0.925   1.289   4.289
98092W        W63077  13.040  42.294  10.716
98093W        W63078  24.717  41.828  13.282
98094W        W63079  14.495  18.207  12.062
98095W        W63080  31.511  20.632  12.130
98096W        W63081  25.716   8.165  12.011
98097W        W63082   4.370  34.363   1.904
98098W        W63083  31.174   1.320  12.824
98099W        W63084  17.706  14.725   3.330
98100W        W63085   2.846  15.440   3.617
98101W        W63086  36.474   1.779   0.391
98102W        W63087   6.148  12.321  12.912
98103W        W63088  22.677  26.043   0.361
98104W        W63089  38.431  16.277   1.497
98105W        W63090   6.316  16.953   0.782
98106W        W63091  41.476  38.627  11.729
98107W        W63092  36.056  12.149  14.127
98108W        W63093  13.152   5.366  11.636
98109W        W63094   2.916   6.019  14.822
98110W        W63095  42.829  12.215  13.007
98111W        W63096  21.736  29.700  10.790
98112W        W63097  19.790  40.349  14.408
98113W        W63098  27.130  17.309  12.985
98114W        W63099  10.858  26.074  13.808
98115W        W63100  12.377  40.921  12.562
98116W        W63101  35.625  19.866   4.339
98117W        W63102  40.775  43.740   1.450
98118W        W63103  25.441   2.893  12.477
98119W        W63104  11.145  35.975   0.639
98120W        W63105  27.558   9.843  14.782
98121W        W63106   7.587  43.851  12.083
98122W        W63107  14.593  31.510  10.673
98123W        W63108  34.569  41.786  12.067
98124W        W63109  14.856   5.187  11.543
98125W        W63110  26.510   8.189  14.551
98126W        W63111  32.630  44.342   4.020
98127W        W63112  12.230  21.507  13.080
98128W        W63113  40.239  16.186   3.115
98129W        W63114  32.911  22.762  13.459
98130W        W63115   5.464  24.534  13.526
98131W        W63116  20.423   2.588   3.654
98132W        W63117  43.922   5.469  14.465
98133W        W63118  41.012   3.948   4.141
98134W        W63119  32.906  10.276   3.158
98135W        W63120   5.676   2.714  12.552
98136W        W63121  41.362  30.145  13.982
98137W        W63122  43.233  22.432  13.819
98138W        W63123  10.764   5.059  10.228
98139W        W63124  36.266  20.025   3.787
98140W        W63125  43.991  38.558  10.208
98141W        W63126  18.067   7.960  11.431
98142W        W63127  12.100  30.408   1.305
98143W        W63128  30.024  36.407  14.068
98144W        W63129  41.252  20.105  14.059
98145W        W63130  29.356  33.557  10.737
98146W        W63131  36.306   7.787  13.796
98147W        W63132  27.640  27.125  11.577
98148W        W63133  23.054  29.362  11.443
98149W        W63134  17.145  16.914  11.050
98150W        W63135   6.908  12.289   0.409
98151W        W63136  18.569  23.144  13.223
98152W        W63137  42.598  17.683  13.986
98153W        W63138  35.629  25.615  12.618
98154W        W63139   1.450  40.078   4.072
98155W        W63140  19.214  14.058  10.628
98156W        W63141  33.158  25.547   1.191
98157W        W63142  14.409  38.006   2.763
98158W        W63143  25.243  10.591   2.819
98159W        W63144  31.020  18.989  14.542
98160W        W63145  37.873  37.449   1.699
98161W        W63146  24.587  24.740  14.506
98162W        W63147  37.837   8.812   4.560
98163W        W63148  28.485   2.213   1.852
98164W        W63149  12.082  23.031  13.514
98165W        W63150  19.045  43.862   1.887
98166W        W63151  28.459  22.467   0.307
98167W        W63152  15.645  11.358  14.277
98168W        W63153  30.117  44.756  12.072
98169W        W63154  19.668  22.055  12.806
98170W        W63155  26.528  37.129  12.459
98171W        W63156  16.617  22.236   2.413
98172W        W63157   2.384  32.439  12.107
98173W        W63158  16.681   4.434  14.323
98174W        W63159  25.710  13.727  12.556
98175W        W63160  31.221   0.743   3.255
98176W        W63161  27.718  34.370  12.594
98177W        W63162  40.510  29.965   0.390
98178W        W63163  10.372  42.789  10.019
98179W        W63164   8.301  35.754  14.292
98180W        W63165  28.416  15.656  10.978
98181W        W63166  30.847  12.178   4.151
98182W        W63167  34.548  10.161   4.945
98183W        W63168  20.826  12.119   1.013
98184W        W63169  36.090  29.520  14.852
98185W        W63170   7.836  36.489   1.043
98186W        W63171   9.504  40.623  12.032
98187W        W63172  39.000   5.277  12.992
98188W        W63173  36.289  21.459   3.607
98189W        W63174  23.214  39.035   3.758
98190W        W63175  37.785  18.216  11.452
98191W        W63176   2.538  24.704  12.194
98192W        W63177  33.657  30.197  14.351
98193W        W63178  41.322  26.702  11.997
98194W        W63179  44.320  18.345   4.947
98195W        W63180  22.223  23.144   2.799
98196W        W63181  41.498  28.592   2.495
98197W        W63182  17.086   1.487   2.774
98198W        W63183  27.002   6.206   1.646
98199W        W63184  43.022  42.296   2.670
98200W        W63185  11.376   2.836   4.480
98201W        W63186  43.234  29.676  11.030
98202W        W63187  11.716   5.106  14.376
98203W        W63188  18.543  25.942   2.727
98204W        W63189  39.420  36.245   3.072
98205W        W63190  13.705  20.452  10.959
98206W        W63191  13.301  35.336   1.772
98207W        W63192  29.071  29.506  13.334
98208W        W63193  15.748  30.466   9.795
98209W        W63194   8.165   6.301  10.211
98210W        W63195  17.218  15.603  11.452
98211W        W63196  40.313  41.153   2.385
98212W        W63197  31.098   3.986  13.452
98213W        W63198   2.531  26.951   3.464
98214W        W63199  29.233   4.669  13.842
98215W        W63200  20.829  19.909  10.823
98216W        W63201  13.829   9.051   1.809
98217W        W63202   7.888  39.904  13.135
98218W        W63203  32.567  17.121   2.304
98219W        W63204  37.461   5.378   1.742
98220W        W63205  34.886  14.387   3.087
98221W        W63206  32.968   1.766   4.537
98222W        W63207  27.559  14.732  14.744
98223W        W63208  24.590   1.345   0.364
98224W        W63209  35.785   9.679  11.083
98225W        W63210  31.950  12.623   9.978
98226W        W63211   2.753  16.270   0.372
98227W        W63212  25.709  23.088   3.323
98228W        W63213  36.941  27.380   4.451
98229W        W63214  29.676  28.516  14.974
98230W        W63215  19.780  31.616   3.355
98231W        W63216  42.205   9.652   3.269
98232W        W63217  14.313  29.497   2.468
98233W        W63218  16.976   2.881   4.159
98234W        W63219  22.580  18.507   1.374
98235W        W63220  40.166  34.847  14.512
98236W        W63221  16.433  11.802  13.338
98237W        W63222  40.327   9.758  11.798
98238W        W63223  22.668  29.522  14.044
98239W        W63224  44.354  40.568   2.350
98240W        W63225  12.698  14.635  12.554
98241W        W63226  31.037  38.339   3.025
98242W        W63227   4.417   6.846  13.010
98243W        W63228   8.593  31.835   4.121
98244W        W63229  25.731  21.698  14.455
98245W        W63230  34.592  22.521   0.332
98246W        W63231   5.674   6.985   4.664
98247W        W63232  42.051   8.348  12.175
98248W        W63233  41.763  38.796   2.014
98249W        W63234  28.093  22.911  12.852
98250W        W63235  10.425   4.013   4.823
98251W        W63236  20.170  27.996   3.565
98252W        W63237  31.176   1.273  13.986
98253W        W63238  26.622  30.156  13.431
98254W        W63239   0.947  23.658   3.726
98255W        W63240  12.137  26.746  14.236
98256W        W63241  24.474   3.256   1.681
98257W        W63242  12.075  13.062  11.891
98258W        W63243  25.960  20.082  11.132
98259W        W63244  37.918   4.216   4.042
98260W        W63245  39.481  17.220   2.496
98261W        W63246  43.131  41.806   0.452
98262W        W63247  25.567  34.379   1.492
98263W        W63248  35.055   7.627   1.863
98264W        W63249   2.346  24.701  11.720
98265W        W63250  43.773  33.565  13.975
98266W        W63251  42.225  10.779   4.057
98267W        W63252   6.094  40.767  12.089
98268W        W63253  20.700  29.152  13.786
98269W        W63254  39.530  13.140   3.936
98270W        W63255  24.169   9.879   2.640
98271W        W63256  23.029   4.468   2.997
98272W        W63257   1.763  28.336   2.395
98273W        W63258  38.855  41.952   0.771
98274W        W63259  35.009  42.080  11.231
98275W        W63260  30.595  14.751   4.660
98276W        W63261  28.061  26.978  14.982
98277W        W63262   5.952  44.024  13.045
98278W        W63263  34.966   6.380   3.209
98279W        W63264  22.085  25.446  11.962
98280W        W63265   5.195  28.927   3.330
98281W        W63266   9.807  41.034  12.044
98282W        W63267   4.741  36.903   3.488
98283W        W63268  28.628  41.781  14.053
98284W        W63269  29.162  36.163   0.830
98285W        W63270   2.440  44.188  12.408
98286W        W63271  27.115   8.004   3.761
98287W        W63272  42.448  10.298  11.520
98288W        W63273   3.249  18.720  14.859
98289W        W63274  31.123  42.500   1.465
98290W        W63275   9.246  17.569   3.091
98291W        W63276  25.665  15.805  12.625
98292W        W63277  26.767  18.708   2.136
98293W        W63278  25.269  26.954  13.460
98294W        W63279   4.277  37.659  10.533
98295W        W63280  29.206   2.719   2.730
98296W        W63281  21.644  34.056  14.955
98297W        W63282  14.266  43.969  14.477
98298W        W63283  10.813  42.997  10.267
98299W        W63284  25.748  15.074   0.312
98300W        W63285  24.115  39.813   3.217
98301W        W63286  33.329   1.226  11.127
98302W        W63287   7.660  10.373   0.344
98303W        W63288  12.951  43.556  14.348
98304W        W63289  38.898  31.466  14.437
98305W        W63290  37.421  24.372  11.947
98306W        W63291  44.774  18.130  11.992
98307W        W63292  30.523   3.175   1.917
98308W        W63293   8.592  23.530   0.246
98309W        W63294  14.607  13.388  12.481
98310W        W63295  33.974   4.127   2.202
98311W        W63296  31.431  14.777   2.352
98312W        W63297   9.375  26.014  12.132
98313W        W63298  36.665  35.074  13.594
98314W        W63299  33.174  16.013  11.804
98315W        W63300  23.665  34.129   4.137
98316W        W63301  10.379  24.657  11.570
98317W        W63302   3.497  40.865   3.767
98318W        W63303  28.542   2.927  14.301
98319W        W63304   9.251  30.657   2.246
98320W        W63305  29.025  43.431  14.526
98321W        W63306  19.252  28.082   1.308
98322W        W63307   0.893  30.259  10.709
98323W        W63308  16.162  29.784   5.483
98324W        W63309   7.629  21.747  14.305
98325W        W63310  33.469  15.589  14.020
98326W        W63311  32.500  42.836   1.713
98327W        W63312   0.804   3.486  14.953
98328W        W63313  30.432   2.379  13.484
98329W        W63314   6.430   3.284   1.215
98330W        W63315   0.859  27.943  12.054
98331W        W63316  22.462  11.823   0.903
98332W        W63317   1.218  30.195   3.212
98333W        W63318  25.503  43.563   0.954
98334W        W63319  29.470  33.306  12.116
98335W        W63320  17.303  40.420   3.666
98336W        W63321  26.209  32.147  13.674
98337W        W63322  11.674  10.415  11.942
98338W        W63323   0.445  38.419  11.187
98339W        W63324   5.385  35.958   0.514
98340W        W63325   4.351  37.814  13.214
98341W        W63326   5.728  15.631  11.043
98342W        W63327  33.632  30.264   2.278
98343W        W63328  13.591   3.746   2.237
98344W        W63329   5.287  43.899   1.318
98345W        W63330  43.339   0.821   1.850
98346W        W63331   8.187  36.121  12.834
98347W        W63332  13.467  13.883  11.325
98348W        W63333   4.175  32.161  13.711
98349W        W63334  26.571  19.231   4.671
98350W        W63335  17.271   6.258   1.956
98351W        W63336  27.555   1.771   3.183
98352W        W63337  30.358  20.070  12.062
98353W        W63338   0.709  43.036  11.316
98354W        W63339  34.087  23.784   4.675
98355W        W63340   6.699  14.228  14.815
98356W        W63341   4.655   2.927   0.781
98357W        W63342  13.866  24.450   3.655
98358W        W63343   2.004  17.449   3.241
98359W        W63344  15.613  33.533  13.518
98360W        W63345  42.926  42.937   3.532
98361W        W63346  22.472  23.671  14.774
98362W        W63347  21.799  35.539   4.733
98363W        W63348  29.016  14.076  10.832
98364W        W63349  43.651  12.066   2.456
98365W        W63350  11.689  44.466   3.577
98366W        W63351  28.090  31.607  14.742
98367W        W63352  40.347  32.646   2.756
98368W        W63353  15.129  15.808  12.896
98369W        W63354  12.710  23.470  14.303
98370W        W63355  15.563  36.336   4.984
98371W        W63356  14.288   9.548   5.073
98372W        W63357  44.706  37.924   3.395
98373W        W63358  24.458   4.148   1.228
98374W        W63359  23.028  42.780   1.291
98375W        W63360   3.631   0.436  13.821
98376W        W63361   5.158  14.246   2.849
98377W        W63362  44.522  24.072   4.528
98378W        W63363  16.293  28.216  13.854
98379W        W63364  18.594  11.378   2.869
98380W        W63365   1.912  25.025  12.858
98381W        W63366  23.102  40.500  10.025
98382W        W63367  33.852   1.277  11.120
98383W        W63368   6.153  36.798   4.114
98384W        W63369  44.341  43.403   1.628
98385W        W63370   1.797  21.648   3.818
98386W        W63371  23.219  24.184  12.467
98387W        W63372  30.865  38.007   3.665
98388W        W63373  32.417  22.133   3.756
98389W        W63374  41.541  29.426   0.477
98390W        W63375  31.645  17.736   0.656
98391W        W63376  39.835  26.984  13.878
98392W        W63377  28.894  14.250  13.820
98393W        W63378  25.568   0.683   5.449
98394W        W63379  34.400  18.131   0.720
98395W        W63380  35.989  25.987   0.933
98396W        W63381  13.272  11.221  11.029
98397W        W63382  43.369  12.690  13.555
98398W        W63383  43.828   0.440  12.467
98399W        W63384  38.951  12.381  11.957
98400W        W63385  23.915  39.519  12.077
98401W        W63386   0.524  17.537   4.118
98402W        W63387  44.768   2.270   4.630
98403W        W63388   7.730   0.987  13.628
98404W        W63389  24.745  22.517   4.804
98405W        W63390  37.218  34.205   4.968
98406W        W63391  32.046  31.866  12.451
98407W        W63392  30.180  26.673   2.744
98408W        W63393  42.372  42.912   2.801
98409W        W63394  37.825   5.803   2.733
98410W        W63395  12.116  40.755  13.052
98411W        W63396  39.432  26.700   2.935
98412W        W63397   2.874  32.430  13.504
98413W        W63398   5.746  40.926  12.909
98414W        W63399  21.472   1.826   2.330
98415W        W63400  27.691  11.303  10.666
98416W        W63401  30.910  43.574  13.973
98417W        W63402   3.811  23.001  11.553
98418W        W63403  39.960   5.151   0.935
98419W        W63404  15.293  16.237   4.529
98420W        W63405  25.333  32.077  12.471
98421W        W63406  20.057  21.488   1.827
98422W        W63407   7.162   5.252  11.978
98423W        W63408  31.038  13.260  11.182
98424W        W63409  37.292  23.321  12.936
98425W        W63410   0.357  27.078  10.604
98426W        W63411  33.668  43.569  12.549
98427W        W63412  30.718  28.021  10.948
98428W        W63413  16.098  13.583   0.042
98429W        W63414  10.457  37.066   1.326
98430W        W63415  30.057  33.646   0.358
98431W        W63416  11.310  24.022   4.408
98432W        W63417  15.842  31.897  14.036
98433W        W63418  26.808   3.382   0.506
98434W        W63419  10.683  10.789   4.725
98435W        W63420   4.249  23.030  12.633
98436W        W63421  37.734   7.982  10.389
98437W        W63422  35.965  20.440   2.361
98438W        W63423  17.675  41.004   2.223
98439W        W63424  24.811  12.135  11.078
98440W        W63425   3.405  14.533   1.939
98441W        W63426  26.001   4.754   0.910
98442W        W63427  18.246  24.743   0.924
98443W        W63428  13.381   3.618  13.097
98444W        W63429  25.126  20.034   1.678
98445W        W63430   9.687  12.152   1.587
98446W        W63431  39.828   2.256   2.004
98447W        W63432  12.323   4.486  12.021
98448W        W63433  16.611  31.128   1.209
98449W        W63434  17.759  21.700   4.530
98450W        W63435  43.577   9.205  12.028
98451W        W63436   6.855   3.984   1.248
98452W        W63437   6.712  10.264  12.479
98453W        W63438   8.410  22.600  12.480
98454W        W63439  36.611  11.695   2.220
98455W        W63440  24.463   0.859  10.646
98456W        W63441  42.330  10.596   0.217
98457W        W63442  36.332  35.146  12.319
98458W        W63443  22.240  17.125  12.434
98459W        W63444   7.758  34.548   1.458
98460W        W63445  40.864  31.226  13.831
98461W        W63446   6.785   4.045   0.018
98462W        W63447  34.591  15.658   4.093
98463W        W63448  28.326  32.619   2.353
98464W        W63449  18.330   1.799  14.031
98465W        W63450  30.613   1.717   4.768
98466W        W63451  23.032  31.029   1.096
98467W        W63452  21.716  18.379   9.725
98468W        W63453  44.192  29.696   3.710
98469W        W63454  44.401   7.282  12.776
98470W        W63455  23.387  26.454  12.634
98471W        W63456   5.791  44.394   0.853
98472W        W63457  15.781  38.922  11.704
98473W        W63458  22.124  40.039  11.582
98474W        W63459  28.599  20.846   1.161
98475W        W63460  39.790  30.077  13.764
98476W        W63461  20.150   6.343  10.770
98477W        W63462  17.027  38.498   4.290
98478W        W63463  30.903  39.827  10.004
98479W        W63464  18.714  10.060  10.019
98480W        W63465  30.982  26.644  13.539
98481W        W63466  16.505  16.617   4.179
98482W        W63467  17.121   6.787   0.740
98483W        W63468  24.683   8.757   2.339
98484W        W63469  39.368  35.141  12.080
98485W        W63470  18.998  29.723   3.197
98486W        W63471   3.290  19.574   2.359
98487W        W63472  15.052  23.576   4.621
98488W        W63473  31.176   8.705   2.233
98489W        W63474  17.235  23.746  11.568
98490W        W63475  32.422   3.857  14.068
98491W        W63476  41.304  17.119   2.279
98492W        W63477  36.207  23.043   0.932
98493W        W63478  38.076  36.354  10.537
98494W        W63479  20.100  43.350   2.248
98495W        W63480  41.270  41.524   2.242
98496W        W63481  12.656   5.435   4.976
98497W        W63482  30.900  40.871   1.890
98498W        W63483  37.532  15.585   1.203
98499W        W63484   1.772   6.267  11.046
98500W        W63485   5.299  16.329   1.278
98501W        W63486  42.522  32.426   0.844
98502W        W63487  27.666  11.347  12.917
98503W        W63488  28.958  24.747   0.306
98504W        W63489  30.398   2.879   3.022
98505W        W63490  25.193   4.352   2.213
98506W        W63491  13.842  20.062   0.501
98507W        W63492   6.153   3.521  14.444
98508W        W63493  21.399  21.974  12.509
98509W        W63494   3.244  44.957   1.347
98510W        W63495  41.902  10.762   1.877
98511W        W63496  36.133  37.442  11.706
98512W        W63497  21.275   5.919   0.009
98513W        W63498  44.039  23.208   1.847
98514W        W63499  28.632  42.067   2.660
98515W        W63500  29.941  12.657   4.232
98516W        W63501  38.930   6.330  14.679
98517W        W63502   1.978  11.119  14.083
98518W        W63503  38.459  22.965  14.515
98519W        W63504  27.428  12.514   3.183
98520W        W63505  19.263  40.267   4.056
98521W        W63506  40.411  27.518  14.820
98522W        W63507  18.480   5.421   3.142
98523W        W63508  36.966   8.392   3.673
98524W        W63509   5.181  44.823   4.605
98525W        W63510  10.556   0.433  14.027
98526W        W63511  19.171  36.985   2.574
98527W        W63512   4.878  31.646  14.428
98528W        W63513  37.515  13.140  11.558
98529W        W63514  14.307  36.353   0.763
98530W        W63515  24.394  20.085  14.790
98531W        W63516   3.434  38.489  12.153
98532W        W63517  33.427   2.492  11.487
98533W        W63518  19.224  42.395   0.742
98534W        W63519   0.969  31.290  12.512
98535W        W63520   7.028  21.650   1.980
98536W        W63521  39.285  18.177   2.502
98537W        W63522  23.446  28.708   0.351
98538W        W63523  36.103  20.699   4.227
98539W        W63524  23.400  25.482  12.068
98540W        W63525  31.057   7.871  11.932
98541W        W63526  32.270  13.684   4.404
98542W        W63527   2.508   1.461   2.181
98543W        W63528  44.322  25.897   1.831
98544W        W63529   7.977   8.610  13.372
98545W        W63530  31.038  11.926   2.147
98546W        W63531  14.609  40.836  14.257
98547W        W63532   5.385   3.782  12.021
98548W        W63533  16.541  30.913   0.726
98549W        W63534  40.994  29.823   5.034
98550W        W63535  19.722  30.117   2.822
98551W        W63536  31.481  27.450  11.211
98552W        W63537   9.811  43.447  12.130
98553W        W63538  11.795  24.177  12.922
98554W        W63539   6.393  25.246  11.042
98555W        W63540  38.474  27.461  10.616
98556W        W63541   6.785  37.631  14.010
98557W        W63542  31.613  19.606  11.985
98558W        W63543   2.498  14.060  10.303
98559W        W63544   6.006  42.337  14.817
98560W        W63545  38.866  17.074   0.323
98561W        W63546  34.853  11.316  10.219
98562W        W63547  32.032  27.274  10.682
98563W        W63548  31.866  25.078  14.457
98564W        W63549   6.271  13.819  14.325
98565W        W63550   1.147  17.234  12.071
98566W        W63551  39.110   0.774  12.319
98567W        W63552  30.744   9.397  13.512
98568W        W63553  44.746   4.465   3.991
98569W        W63554  16.152  13.494  10.700
98570W        W63555  42.052  19.459  14.012
98571W        W63556  19.712  27.753  10.595
98572W        W63557  30.637  28.589   4.138
98573W        W63558   6.734  37.521  11.503
98574W        W63559  25.620  35.361   1.314
98575W        W63560  18.817  26.073  11.130
98576W        W63561   6.294  44.260   0.698
98577W        W63562  30.811  39.323  12.488
98578W        W63563  11.702  37.159  11.206
98579W        W63564  23.868  19.423   9.985
98580W        W63565  32.597  16.612  14.767
98581W        W63566   9.198  20.179  10.304
98582W        W63567  19.673  42.245   3.667
98583W        W63568  44.336  22.498   3.220
98584W        W63569  13.655   8.853  13.660
98585W        W63570   7.355  29.467   0.740
98586W        W63571  43.530  27.172  11.989
98587W        W63572  38.167   5.398   2.750
98588W        W63573  39.439  24.798   1.896
98589W        W63574  19.715  19.774   0.987
98590W        W63575  17.314   2.391   1.492
98591W        W63576  11.186  41.477  10.445
98592W        W63577  43.167  39.222   0.377
98593W        W63578  34.481  44.340   2.444
98594W        W63579  32.745   3.080   1.378
98595W        W63580  25.118  43.798  14.422
98596W        W63581  43.863  25.433   4.543
98597W        W63582  14.248  31.391  13.509
98598W        W63583  43.843   4.690   4.358
98599W        W63584  28.954   3.160   2.665
98600W        W63585   9.221  39.465  13.990
98601W        W63586  35.923  44.826  13.420
98602W        W63587  29.709  29.143   3.083
98603W        W63588  16.477  43.919   1.446
98604W        W63589  34.969   6.264   4.415
98605W        W63590  21.512  35.827  13.422
98606W        W63591  31.185  18.555  14.302
98607W        W63592  16.846   9.758  10.859
98608W        W63593  17.533  14.034   1.391
98609W        W63594  37.220  39.776  11.467
98610W        W63595  31.949  30.613   0.939
98611W        W63596  44.831  34.921   3.602
98612W        W63597  32.049   6.947   0.028
98613W        W63598  10.026  31.948  11.858
98614W        W63599   7.477  27.706  11.261
98615W        W63600  38.827  34.609  12.035
98616W        W63601   3.329  44.008  14.283
98617W        W63602  29.193   3.401  11.165
98618W        W63603  14.151  41.376  12.536
98619W        W63604  16.436  15.110   1.423
98620W        W63605  11.354  35.571  13.961
98621W        W63606  30.863  10.852  14.447
98622W        W63607  32.453   9.441   9.724
98623W        W63608  42.390  37.939   9.915
98624W        W63609  24.673  44.711  11.089
98625W        W63610  43.887   3.804  12.862
98626W        W63611  35.015  40.903   2.593
98627W        W63612   1.278  12.054  13.183
98628W        W63613  24.218  34.527  14.843
98629W        W63614  31.168  30.700  14.462
98630W        W63615  19.724  20.257  12.984
98631W        W63616  37.845  22.821   1.823
98632W        W63617  21.561   4.460  11.341
98633W        W63618  34.143  41.302   0.974
98634W        W63619   6.236  43.096   3.021
98635W        W63620   3.453  40.882  13.405
98636W        W63621  37.761  19.126  13.337
98637W        W63622  24.503  42.782  14.912
98638W        W63623  14.469  42.160  14.084
98639W        W63624  15.728   8.319  11.018
98640W        W63625  13.435  13.217   0.709
98641W        W63626  17.103  22.510   4.551
98642W        W63627   0.664   7.744   3.736
98643W        W63628  25.918  38.920   2.079
98644W        W63629  12.581  23.038  13.382
98645W        W63630   2.955   0.310   0.360
98646W        W63631   2.834  13.319  12.448
98647W        W63632  20.347  17.740  10.295
98648W        W63633   7.219   1.255  14.966
98649W        W63634  41.601   0.749  13.701
98650W        W63635   5.136  42.973  13.014
98651W        W63636  38.480  43.496  14.151
98652W        W63637  34.379  19.135   0.407
98653W        W63638  27.977   1.993  12.908
98654W        W63639  11.150  16.605   2.547
98655W        W63640  32.471  28.393  12.357
98656W        W63641   1.662  32.706  14.892
98657W        W63642   2.025  32.049   2.402
98658W        W63643  30.915  42.235   1.852
98659W        W63644  35.387  13.844   3.760
98660W        W63645  15.317   2.654  11.140
98661W        W63646  10.592   7.724   3.512
98662W        W63647  13.703  31.835   1.904
98663W        W63648  23.891  32.195   1.032
98664W        W63649  29.556   9.904  12.542
98665W        W63650   0.356   4.458   2.371
98666W        W63651  31.948  43.891   2.219
98667W        W63652  38.342  24.707  14.055
98668W        W63653  21.246   9.284  11.237
98669W        W63654  40.541  29.670   4.318
98670W        W63655  13.318  19.606  14.969
98671W        W63656  10.409  23.708   2.371
98672W        W63657  39.253   7.527   2.913
98673W        W63658  27.715  13.748  13.713
98674W        W63659   3.392  37.746  11.139
98675W        W63660   0.487  11.127  11.237
98676W        W63661   2.188  21.276   2.290
98677W        W63662  21.022  31.668   0.302
98678W        W63663   1.826  35.965   2.313
98679W        W63664   3.273   4.281  10.862
98680W        W63665   5.832  15.165  12.403
98681W        W63666   2.404  23.059   2.851
98682W        W63667  42.725  32.515  12.030
98683W        W63668  11.654  19.781   2.394
98684W        W63669  40.874  11.184   1.581
98685W        W63670  10.868  35.854  11.233
98686W        W63671  25.435  31.809   0.913
98687W        W63672  40.272  33.492  13.392
98688W        W63673  10.144  31.088   1.394
98689W        W63674  22.126  10.243   2.308
98690W        W63675  14.794  40.065  12.711
98691W        W63676  23.904  31.939  10.630
98692W        W63677  10.694  33.772  13.111
98693W        W63678  41.430  14.923   0.348
98694W        W63679  35.441   6.114   0.494
98695W        W63680   7.881  13.613  14.863
98696W        W63681  30.953   3.670  13.025
98697W        W63682  13.546   1.838  10.300
98698W        W63683  22.830  16.588  12.859
98699W        W63684  35.190  11.433  10.610
98700W        W63685  42.608   8.195  12.139
98701W        W63686   5.328   7.291   1.854
98702W        W63687  18.990  37.482   2.585
98703W        W63688  27.133  43.474   1.241
98704W        W63689  21.663  34.550   0.727
98705W        W63690  17.515   4.580   3.143
98706W        W63691  44.733  13.761  10.727
98707W        W63692  11.298  30.444  11.621
98708W        W63693   1.726  12.780   0.959
98709W        W63694   3.699  33.763   0.789
98710W        W63695  25.764   4.332   3.228
98711W        W63696  17.573  33.649  13.304
98712W        W63697  41.791   2.327   0.268
98713W        W63698  12.709   4.929  12.444
98714W        W63699  43.922   0.280   3.686
98715W        W63700   8.777  18.047  10.783
98716W        W63701  18.666   6.229  12.220
98717W        W63702  23.232  12.577  13.654
98718W        W63703  44.887   6.212   4.134
98719W        W63704  35.806   3.958   4.203
98720W        W63705  28.288   0.418  10.172
98721W        W63706  31.910  44.011   0.775
98722W        W63707  44.062  31.230  13.405
98723W        W63708  42.342  20.696   4.467
98724W        W63709  15.229  13.729   3.599
98725W        W63710   9.722  15.186  12.174
98726W        W63711   7.318  28.038   2.055
98727W        W63712  19.171  12.407  12.617
98728W        W63713  32.141  21.774   4.916
98729W        W63714  33.037  13.106  13.402
98730W        W63715  31.567   1.313  11.877
98731W        W63716  13.145  16.216  12.583
98732W        W63717  28.252  10.813  11.246
98733W        W63718   7.112  42.814  12.880
98734W        W63719  22.667  35.585  10.569
98735W        W63720  36.614  13.239   1.680
98736W        W63721   5.501  24.495   1.132
98737W        W63722  11.590  26.492  13.920
98738W        W63723  19.708  24.182   0.097
98739W        W63724   0.010  24.748   4.152
98740W        W63725  39.072   9.762  12.387
98741W        W63726  22.047  23.137   3.685
98742W        W63727  29.538   6.069  13.320
98743W        W63728  27.181  35.962  12.916
98744W        W63729  37.501  21.272   4.568
98745W        W63730  15.321  15.282   2.223
98746W        W63731  37.593  16.578  12.551
98747W        W63732   7.184  10.549   0.387
98748W        W63733  23.621   1.277  10.443
98749W        W63734  25.713  14.179  14.347
98750W        W63735  25.131  32.912   4.115
98751W        W63736  34.968   7.666  14.965
98752W        W63737  39.790  13.780  13.856
98753W        W63738  29.142  40.142  13.580
98754W        W63739  42.426  28.896  12.439
98755W        W63740   1.501  10.291   2.314
98756W        W63741  32.432  12.697   9.773
98757W        W63742  25.158  40.243  12.539
98758W        W63743   7.913  24.272   2.326
98759W        W63744   5.926  35.368  11.878
98760W        W63745  28.760   8.526   0.962
98761W        W63746   1.272  25.711  13.216
98762W        W63747   6.866  25.387  14.401
98763W        W63748   9.844  29.137  14.293
98764W        W63749  12.386  40.857   3.180
98765W        W63750  30.753   7.518  11.046
98766W        W63751  17.358  12.759   1.443
98767W        W63752  40.807   6.765   0.348
98768W        W63753  33.129  21.434  14.498
98769W        W63754   9.220   5.950  14.393
98770W        W63755  24.727   8.260  10.860
98771W        W63756  22.673  39.294  14.500
98772W        W63757  15.211  12.958   4.684
98773W        W63758  20.958   3.997  10.748
98774W        W63759  40.644   4.762  10.784
98775W        W63760  36.761  27.903  12.812
98776W        W63761  36.431  40.449   1.230
98777W        W63762   2.330  16.273  12.363
98778W        W63763  43.330  31.187   1.941
98779W        W63764  12.843  37.912   3.280
98780W        W63765   4.683  11.951   3.559
98781W        W63766   5.750  42.935  12.122
98782W        W63767  44.390  26.146  12.954
98783W        W63768  44.389  37.667  12.947
98784W        W63769  32.499  20.242   1.784
98785W        W63770  40.697  42.908   5.095
98786W        W63771  35.091  40.748  10.765
98787W        W63772  16.722  17.151  14.367
98788W        W63773  39.347  37.589  14.434
98789W        W63774  10.429  21.624   0.038
98790W        W63775  21.755  26.605   1.829
98791W        W63776  14.223  41.572  12.059
98792W        W63777  12.113   7.454  10.716
98793W        W63778  13.954  34.008   1.440
98794W        W63779   7.814  14.916  14.353
98795W        W63780  10.408   4.359   2.209
98796W        W63781   8.930  40.423   4.659
98797W        W63782   7.519  41.763  11.842
98798W        W63783  14.149   6.926  13.023
98799W        W63784   7.450  28.196  11.184
98800W        W63785  15.090   2.905  10.713
98801W        W63786  21.534  40.061   2.275
98802W        W63787  22.158  42.901  10.656
98803W        W63788  26.732  27.100   0.927
98804W        W63789  23.151  24.115   1.818
98805W        W63790  31.913  41.868  14.049
98806W        W63791   9.167   2.322  14.845
98807W        W63792  44.068  34.875   1.728
98808W        W63793   6.722  40.159   2.156
98809W        W63794   5.348  17.846  13.871
98810W        W63795  39.897   0.732  11.580
98811W        W63796   6.886  16.323   2.207
98812W        W63797  22.713  21.293   3.677
98813W        W63798  14.566  24.088   1.891
98814W        W63799  10.945   5.451   2.743
98815W        W63800  18.924  30.236   3.206
98816W        W63801   2.899  40.003  13.361
98817W        W63802  37.079   9.682  11.435
98818W        W63803   6.834  44.407  14.918
98819W        W63804  28.189  36.094  10.702
98820W        W63805   0.214  34.164  11.714
98821W        W63806  24.258   4.800  12.735
98822W        W63807   4.321  38.048  14.571
98823W        W63808  23.688  14.788  11.203
98824W        W63809  29.819  23.644  11.227
98825W        W63810  34.428  11.026  14.627
98826W        W63811  29.004   0.837  12.652
98827W        W63812   5.935  19.151   2.193
98828W        W63813   1.974  18.648  11.658
98829W        W63814   2.996  30.186   4.156
98830W        W63815  11.983   8.382  11.107
98831W        W63816   5.905  43.796  10.743
98832W        W63817  22.835   1.897  11.232
98833W        W63818  19.248  12.145  10.626
98834W        W63819  37.389  40.321   1.737
98835W        W63820  14.651  14.044   2.016
98836W        W63821  43.678  35.253   0.849
98837W        W63822  28.010  10.355  11.240
98838W        W63823   7.588  32.002  14.393
98839W        W63824  17.366   9.555   0.911
98840W        W63825  34.663   5.710  14.984
98841W        W63826  20.590  40.455   2.379
98842W        W63827  26.971   0.910  13.303
98843W        W63828  11.958   5.340  12.897
98844W        W63829  10.415   4.291  12.610
98845W        W63830  15.765   0.480   0.083
98846W        W63831   9.219  16.086   0.754
98847W        W63832  22.615   2.062  10.423
98848W        W63833  23.724   8.375  11.737
98849W        W63834   2.670  17.977  11.602
98850W        W63835  14.628   7.842  13.820
98851W        W63836  30.955   5.957   1.868
98852W        W63837  30.881  31.864  10.188
98853W        W63838  15.939  34.587   0.915
98854W        W63839  13.997   2.793  13.293
98855W        W63840   5.231  33.149   3.694
98856W        W63841  44.321   1.553  11.891
98857W        W63842  15.689  29.584  14.694
98858W        W63843  37.163  15.206   3.560
98859W        W63844  30.700  18.012  13.410
98860W        W63845  27.483  23.688  13.850
98861W        W63846  19.556  37.913   3.261
98862W        W63847   7.781  31.090   1.405
98863W        W63848  22.581  31.441   2.388
98864W        W63849  13.621  25.162  14.603
98865W        W63850  28.157  29.890   4.112
98866W        W63851  20.166  42.961   1.438
98867W        W63852  39.799  14.696   3.230
98868W        W63853  31.065  28.601  12.137
98869W        W63854   8.891  34.995  13.023
98870W        W63855  12.569  40.778  14.294
98871W        W63856  35.442  11.733   0.004
98872W        W63857  34.663  25.740  12.605
98873W        W63858  24.713  14.707   3.224
98874W        W63859  13.869   5.614   0.302
98875W        W63860  20.006  23.291   1.414
98876W        W63861  13.787  10.908  14.960
98877W        W63862   7.470  14.210  10.676
98878W        W63863   9.885  31.513   1.546
98879W        W63864  17.188  26.688  12.584
98880W        W63865   8.957  24.522   4.184
98881W        W63866  20.710   8.786   0.001
98882W        W63867  21.994   8.816   0.388
98883W        W63868   8.331  44.245   2.460
98884W        W63869  32.052  28.196   3.788
98885W        W63870  20.468  20.539   4.158
98886W        W63871  35.474  31.574  13.459
98887W        W63872  34.030  15.142   1.314
98888W        W63873  19.098  32.243   2.227
98889W        W63874  11.916  13.546   2.232
98890W        W63875  40.049  14.039   4.749
98891W        W63876  19.719  37.385  13.582
98892W        W63877  16.377  26.471  10.673
98893W        W63878   2.876  38.374  14.427
98894W        W63879  22.739  30.818  13.143
98895W        W63880  32.002   3.375   0.677
98896W        W63881  20.750  30.719   2.934
98897W        W63882  33.557  27.272   1.243
98898W        W63883   8.087   2.040  14.022
98899W        W63884  31.566  36.560   2.949
98900W        W63885  44.041   7.897  10.906
98901W        W63886  26.553   6.196   3.783
98902W        W63887  15.468  20.634   1.872
98903W        W63888   0.037  32.470   2.942
98904W        W63889  10.230   9.161  10.697
98905W        W63890  42.568   4.600  12.527
98906W        W63891  23.950   2.552  12.853
98907W        W63892  21.230   4.306  14.916
98908W        W63893   8.397  20.201  13.315
98909W        W63894  20.987   1.361   0.399
98910W        W63895  30.907  44.008   2.635
98911W        W63896   6.823   3.640  14.143
98912W        W63897  26.205   8.123   3.218
98913W        W63898  31.628   9.638  13.022
98914W        W63899  36.124   9.220   0.729
98915W        W63900  30.913  30.544   0.762
98916W        W63901  13.210  40.332  13.111
98917W        W63902  40.808  13.983   1.394
98918W        W63903  28.558  20.836  14.519
98919W        W63904  37.596   8.930  13.451
98920W        W63905  20.065  44.017   3.384
98921W        W63906  42.071  10.530   3.035
98922W        W63907  30.402  31.499   0.903
98923W        W63908  28.558  27.046   2.358
98924W        W63909  37.027  19.248  12.662
98925W        W63910  33.750  37.490  14.186
98926W        W63911  14.109  19.740  10.610
98927W        W63912  41.235  20.698   4.121
98928W        W63913  11.925  29.340   3.761
98929W        W63914  30.223  44.279  10.570
98930W        W63915  27.186  14.482   5.088
98931W        W63916   6.675   9.710   5.053
98932W        W63917   7.986  42.560   3.324
98933W        W63918   7.594  41.190   0.515
98934W        W63919  13.844   2.606   3.800
98935W        W63920  33.022  43.302  11.372
98936W        W63921   6.842  12.291  11.703
98937W        W63922  22.295  37.807   3.134
98938W        W63923   8.739   5.010   0.346
98939W        W63924   2.786  35.037   4.167
98940W        W63925  34.055  35.419   0.399
98941W        W63926  25.114  25.666   3.840
98942W        W63927  32.665  29.172  12.097
98943W        W63928  21.023  12.130  14.732
98944W        W63929  20.283  17.989  11.119
98945W        W63930   9.800  34.777   0.507
98946W        W63931  30.796  27.562  13.742
98947W        W63932   3.799   5.380   4.082
98948W        W63933  40.237  24.175  11.694
98949W        W63934  32.721  40.418   3.265
98950W        W63935   8.933  42.323   3.339
98951W        W63936  22.445   5.319   0.403
98952W        W63937  42.321   0.093  11.056
98953W        W63938  26.102  36.403   0.815
98954W        W63939  27.410  28.941   0.267
98955W        W63940  42.384  41.525   1.981
98956W        W63941  21.231  34.879  11.665
98957W        W63942   5.341  19.309  11.746
98958W        W63943  22.426  43.324  10.798
98959W        W63944   3.585  13.649  14.572
98960W        W63945  33.133   3.185  12.982
98961W        W63946  39.069  28.328   1.163
98962W        W63947  29.170  11.204  13.044
98963W        W63948   0.939  21.532  10.317
98964W        W63949  41.345   7.189  14.828
98965W        W63950  21.174  29.405  10.579
98966W        W63951  41.752  26.870  12.827
98967W        W63952  10.310  39.523  12.638
98968W        W63953  15.590  23.648  12.808
98969W        W63954  13.527  27.368   4.551
98970W        W63955  21.650  43.000   0.796
98971W        W63956  26.230  38.761  11.464
98972W        W63957  43.247  12.615  12.103
98973W        W63958  38.680  30.365  11.740
98974W        W63959   7.880  11.630   5.021
98975W        W63960   8.070  23.933  11.127
98976W        W63961  27.960  39.979  13.736
98977W        W63962  11.900  11.785  10.501
98978W        W63963   9.313  19.780   3.424
98979W        W63964   6.920  30.847  12.045
98980W        W63965  29.419  12.398  14.283
98981W        W63966  15.480  30.577   4.630
98982W        W63967  28.120  16.024  12.259
98983W        W63968  30.637   4.437   4.281
98984W        W63969  30.204  44.789   4.245
98985W        W63970   0.717  25.616   3.770
98986W        W63971  22.083  32.198  12.123
98987W        W63972  44.017  36.294  13.852
98988W        W63973  40.808  33.382  12.518
98989W        W63974  11.671  14.117  14.937
98990W        W63975  11.824  18.676  11.148
98991W        W63976  30.135  24.054  12.967
98992W        W63977  41.810  16.432   4.477
98993W        W63978  32.391   3.416  14.543
98994W        W63979   2.903  17.038   2.876
98995W        W63980  40.888  23.064  11.423
98996W        W63981  33.473   3.716  14.336
98997W        W63982  15.759  38.077  11.063
98998W        W63983  39.268  37.076  11.129
98999W        W63984  35.100  22.265   3.157
99000W        W63985  35.315   5.984  11.674
99001W        W63986  18.854   3.559  11.179
99002W        W63987  12.452  25.031  11.999
99003W        W63988  27.618  26.015   2.289
99004W        W63989  15.697  10.365  11.120
99005W        W63990  36.251  14.428  11.950
99006W        W63991  35.366   1.748   3.312
99007W        W63992  25.638  19.209   0.380
99008W        W63993  27.927  30.143   3.726
99009W        W63994  16.813   4.410   3.633
99010W        W63995  31.834  12.155  10.759
99011W        W63996   7.344  43.308   0.262
99012W        W63997   1.437  34.940   3.461
99013W        W63998  13.545   5.194   4.066
99014W        W63999  31.350   9.112   3.582
99015W        W64000  21.484  33.392   1.329
99016W        W64001  25.969  33.241   9.415
99017W        W64002  31.233   7.663  11.159
99018W        W64003   3.800   0.242  11.609
99019W        W64004  17.232  40.911   2.461
99020W        W64005  26.501   0.073  11.385
99021W        W64006  21.705  37.248  11.214
99022W        W64007   3.380  36.572  12.164
99023W        W64008   6.444  40.261   0.529
99024W        W64009  36.500  25.031  10.616
99025W        W64010  32.082  14.451   1.380
99026W        W64011  23.659  19.300   0.949
99027W        W64012  15.955  32.056  11.341
99028W        W64013  19.567  44.845  12.252
99029W        W64014  14.055  15.001   2.804
99030W        W64015  14.564  35.953   4.132
99031W        W64016  30.080  44.803  10.608
99032W        W64017  41.229  12.860  14.018
99033W        W64018  34.456  19.609  13.707
99034W        W64019  44.212  14.499   4.070
99035W        W64020   9.918  31.368   3.764
99036W        W64021  35.169  22.300  10.361
99037W        W64022   3.837  19.689  14.067
99038W        W64023  20.611  26.604  11.809
99039W        W64024  14.401   6.085   9.892
99040W        W64025  12.197   5.650   3.696
99041W        W64026   7.925  42.177   1.330
99042W        W64027  31.637  30.013   3.728
99043W        W64028   2.656  23.055   2.386
99044W        W64029  40.053  13.604  11.448
99045W        W64030  41.460  38.189  11.998
99046W        W64031  31.371  26.715  13.904
99047W        W64032  16.697  14.251  10.725
99048W        W64033  20.527  16.294   3.096
99049W        W64034   0.472  31.105   3.700
99050W        W64035   7.248   6.349   1.372
99051W        W64036  27.823   1.114   2.744
99052W        W64037   4.825   0.836  10.366
99053W        W64038  18.562   7.412  13.776
99054W        W64039  39.903   3.098  10.548
99055W        W64040  19.675  33.958  11.209
99056W        W64041  41.363  30.423   3.263
99057W        W64042  11.146  35.965  10.807
99058W        W64043   1.221  10.124  10.380
99059W        W64044  18.460  33.323   5.074
99060W        W64045  13.174   4.611   2.674
99061W        W64046  11.223  41.033   0.832
99062W        W64047  35.296   2.110  14.327
99063W        W64048  42.995  23.794   1.316
99064W        W64049  37.481  25.130  14.316
99065W        W64050   6.348  26.531  14.404
99066W        W64051  26.958  29.239  14.682
99067W        W64052  32.255   2.817   4.173
99068W        W64053  16.592  34.637   2.098
99069W        W64054  20.134  38.930   1.270
99070W        W64055   3.976  19.250   4.771
99071W        W64056  43.693   2.102   2.885
99072W        W64057  43.932  24.689   5.567
99073W        W64058  20.816   5.318   2.582
99074W        W64059  35.097  24.047   2.795
99075W        W64060  22.035  18.670  11.149
99076W        W64061  21.502  22.016   3.124
99077W        W64062   7.913  22.030   2.934
99078W        W64063  28.534   6.769  14.281
99079W        W64064   8.176  30.969   0.335
99080W        W64065   5.310  36.702  12.379
99081W        W64066   5.007  29.705  13.749
99082W        W64067   2.341  28.799  14.087
99083W        W64068  28.049   2.515  11.214
99084W        W64069  20.130  11.830   1.178
99085W        W64070  26.808   8.179  11.355
99086W        W64071   3.873   9.719  14.478
99087W        W64072   2.747  18.552  14.819
99088W        W64073  35.463  18.510   1.360
99089W        W64074  40.023   7.788   3.789
99090W        W64075  11.335   4.554   3.876
99091W        W64076  34.652  21.481   2.272
99092W        W64077  28.601  43.734  14.766
99093W        W64078  15.020  17.194   2.391
99094W        W64079  16.571  20.586  14.371
99095W        W64080   2.454  13.327   0.222
99096W        W64081  44.526   7.656   4.220
99097W        W64082  18.033   9.294  12.034
99098W        W64083  10.645  38.475   0.354
99099W        W64084  12.664  31.865  10.562
99100W        W64085  13.263  23.622  14.427
99101W        W64086   3.265  41.618  10.648
99102W        W64087   1.078  26.608   3.662
99103W        W64088   5.294  20.330  11.924
99104W        W64089  41.813   0.330  14.286
99105W        W64090  19.272   8.453  11.108
99106W        W64091  25.418  27.286   1.360
99107W        W64092  20.103  22.450   2.751
99108W        W64093  24.008  35.882   2.830
99109W        W64094  28.126  37.507  12.657
99110W        W64095   5.446  44.451   0.478
99111W        W64096  21.757  15.301   4.493
99112W        W64097  23.473  20.803   0.853
99113W        W64098  41.474  33.901  10.458
99114W        W64099   9.716  15.096  13.585
99115W        W64100  16.192  44.477  10.951
99116W        W64101   7.763  14.630   4.037
99117W        W64102  27.317  40.787   3.173
99118W        W64103   5.869  21.544   4.641
99119W        W64104  44.351  10.781  13.448
99120W        W64105  20.162  19.829  11.431
99121W        W64106  13.588   0.375  11.811
99122W        W64107  40.083   6.882   4.573
99123W        W64108   5.833  13.381  10.835
99124W        W64109  16.083  37.005   2.352
99125W        W64110  28.029  13.830   0.942
99126W        W64111  21.521  25.016   2.553
99127W        W64112  15.212   3.379  13.535
99128W        W64113   7.830  30.513   1.698
99129W        W64114  10.460  36.088   1.423
99130W        W64115  11.893  17.169  13.233
99131W        W64116  37.326   6.397   0.324
99132W        W64117  13.306   6.921   0.426
99133W        W64118  42.307  23.621   3.567
99134W        W64119  38.907  30.143  10.490
99135W        W64120  17.058  13.026  14.396
99136W        W64121  12.446   5.844   2.385
99137W        W64122  24.136  10.666   0.100
99138W        W64123  16.568  37.929  13.472
99139W        W64124  43.718  24.639   4.109
99140W        W64125  12.683  13.202   2.729
99141W        W64126   8.240  12.052   2.712
99142W        W64127  21.002  30.927   3.325
99143W        W64128  13.968  18.823  12.167
99144W        W64129  13.889   4.704   2.351
99145W        W64130  40.428   7.662  12.448
99146W        W64131  25.945  26.319   0.898
99147W        W64132  33.978  36.862   2.182
99148W        W64133   3.897  28.003  10.666
99149W        W64134  16.231  13.778   2.822
99150W        W64135  20.738  17.902   4.888
99151W        W64136  19.246  33.039  10.712
99152W        W64137   5.854  17.723  10.572
99153W        W64138  16.156  44.564   0.310
99154W        W64139  31.133  15.581  12.075
99155W        W64140  13.343  25.211  12.016
99156W        W64141  13.361  17.617  14.951
99157W        W64142  18.227  27.047   1.238
99158W        W64143  19.553  15.177   1.353
99159W        W64144  14.495  24.660   0.965
99160W        W64145   2.481   7.429  12.506
99161W        W64146   4.002  36.880   2.813
99162W        W64147  23.648  25.081  14.311
99163W        W64148  24.738  22.248   1.252
99164W        W64149  17.889  12.625  14.721
99165W        W64150  19.786  31.910  14.941
99166W        W64151  11.522  11.121  12.442
99167W        W64152   6.431  33.483   4.146
99168W        W64153  22.297  30.434  10.624
99169W        W64154  32.361  38.064   2.714
99170W        W64155  44.853  14.534  10.970
99171W        W64156   8.850  44.205  11.146
99172W        W64157  10.060  42.411  14.078
99173W        W64158   8.878  36.359  13.849
99174W        W64159  39.268  23.966  12.068
99175W        W64160   7.647  32.953  12.337
99176W        W64161  27.499   2.454  12.934
99177W        W64162  23.870  41.175   0.599
99178W        W64163  32.235   7.400   2.275
99179W        W64164  42.642   7.991  14.697
99180W        W64165  13.081  27.201   2.926
99181W        W64166  32.583  15.129  10.649
99182W        W64167  20.004  26.260  13.364
99183W        W64168  31.067  31.604  12.148
99184W        W64169  29.849  34.406  13.813
99185W        W64170  19.153  41.915   2.619
99186W        W64171   3.711  36.447   4.059
99187W        W64172   9.609  27.880  11.011
99188W        W64173  30.887  29.019   2.276
99189W        W64174   9.317  32.525  11.654
99190W        W64175   5.537  38.586  12.093
99191W        W64176  10.470  23.382   4.174
99192W        W64177  12.165  16.580   2.213
99193W        W64178  41.000   4.073  12.818
99194W        W64179   9.976   6.988   1.240
99195W        W64180  30.122  14.640  11.995
99196W        W64181  24.623  22.753  11.770
99197W        W64182  31.319  33.443  13.450
99198W        W64183  31.757  26.230   2.455
99199W        W64184  22.499  44.846  11.216
99200W        W64185  28.433  36.490  12.547
99201W        W64186   6.633   0.791   3.664
99202W        W64187  25.312   5.010   3.613
99203W        W64188  13.774  24.737  13.797
99204W        W64189  43.932  25.766   2.864
99205W        W64190   1.938  39.072   1.784
99206W        W64191  34.809  25.022  14.770
99207W        W64192  15.202   4.664  12.805
99208W        W64193   1.501  23.495  14.517
99209W        W64194  37.568  12.783   0.615
99210W        W64195  15.230   3.303   4.346
99211W        W64196  10.747   6.257   4.711
99212W        W64197  37.322  19.594   1.295
99213W        W64198  32.779   9.999  10.181
99214W        W64199  43.427  39.916  12.654
99215W        W64200  22.920   1.943  13.403
99216W        W64201  29.431  33.363   1.812
99217W        W64202  40.885  25.152   1.204
99218W        W64203  11.714  27.026   4.790
99219W        W64204  17.673  15.436  13.571
99220W        W64205  23.631  33.161  14.853
99221W        W64206  25.488  26.962   0.963
99222W        W64207  18.827  14.264   4.639
99223W        W64208  34.887   5.422  12.848
99224W        W64209   1.406   8.233   4.986
99225W        W64210  41.740   6.447  11.110
99226W        W64211  13.671  37.447   1.878
99227W        W64212  26.611   3.178   2.848
99228W        W64213  12.273  17.676   4.615
99229W        W64214  24.088  37.804  11.567
99230W        W64215   4.418  31.971  11.721
99231W        W64216   5.230  42.303   2.012
99232W        W64217  25.265  18.945  11.165
99233W        W64218  35.376  25.259  13.899
99234W        W64219  43.599   0.324  11.977
99235W        W64220   5.651  15.075   4.575
99236W        W64221  43.807  43.520  14.281
99237W        W64222   3.963  32.379   2.740
99238W        W64223   0.014  41.510   0.023
99239W        W64224  43.362   9.223  13.331
99240W        W64225  41.090  33.003  14.005
99241W        W64226  21.263  11.026  12.436
99242W        W64227   7.943  22.599  11.508
99243W        W64228  35.101  31.415   2.397
99244W        W64229  29.022  40.903  12.595
99245W        W64230   5.921  31.552  12.465
99246W        W64231  24.398  25.926  13.457
99247W        W64232  30.495  41.855   3.663
99248W        W64233   3.510   1.391   2.217
99249W        W64234   2.765  22.229   3.220
99250W        W64235  10.609   7.923   0.711
99251W        W64236  42.021  24.625   0.936
99252W        W64237  17.336  16.113  10.593
99253W        W64238  35.166  28.624  14.294
99254W        W64239  22.598  41.836  13.411
99255W        W64240  12.218  25.646  12.759
99256W        W64241  43.344  28.412  11.561
99257W        W64242  19.553  26.757  10.613
99258W        W64243  12.462  16.119   1.971
99259W        W64244  10.629   1.650  12.480
99260W        W64245  32.190  18.124  11.359
99261W        W64246  17.662  27.977  12.456
99262W        W64247  32.963   2.258  10.666
99263W        W64248  37.346   3.823   3.215
99264W        W64249   9.867  38.625  12.943
99265W        W64250  24.409   1.765  11.883
99266W        W64251  30.953  34.139   0.908
99267W        W64252  31.455   7.938   0.286
99268W        W64253  18.515  11.912   3.264
99269W        W64254  25.059  22.099   4.358
99270W        W64255  36.389   4.781   2.678
99271W        W64256  16.226  32.621  13.489
99272W        W64257  20.712   1.808   4.122
99273W        W64258  13.944   6.546  13.309
99274W        W64259  29.687  35.950  10.664
99275W        W64260  43.767  21.647  13.831
99276W        W64261  15.537  16.890   4.098
99277W        W64262  44.182  41.842   0.352
99278W        W64263  16.086  34.408  12.099
99279W        W64264  34.151  22.661  11.177
99280W        W64265  43.454   7.890  13.043
99281W        W64266   6.161  42.568  14.017
99282W        W64267  10.258  26.014   4.075
99283W        W64268   0.196  10.247   4.160
99284W        W64269   4.677  28.494   2.649
99285W        W64270   0.211  39.928   0.338
99286W        W64271  22.656  23.725   3.356
99287W        W64272  36.065   2.975  14.882
99288W        W64273  39.183   3.744  12.077
99289W        W64274  26.987  10.320  11.025
99290W        W64275  14.100  27.754  14.783
99291W        W64276  32.698  10.331   2.193
99292W        W64277   3.889  31.422  13.360
99293W        W64278  20.522  11.770  12.445
99294W        W64279  21.495  10.348   1.351
99295W        W64280  19.068  40.581   0.753
99296W        W64281  11.330  21.014  14.509
99297W        W64282   7.126  33.977   1.733
99298W        W64283  14.335   3.882  11.426
99299W        W64284   9.282  28.497   4.121
99300W        W64285  24.664  21.234  10.631
99301W        W64286  30.452  25.752  10.684
99302W        W64287  22.129   3.950  12.808
99303W        W64288  33.067  27.950  11.297
99304W        W64289  32.234   9.870   0.887
99305W        W64290  21.952   7.908  14.524
99306W        W64291  21.304  28.958   1.910
99307W        W64292  37.834  33.473   2.086
99308W        W64293  42.405  20.612  12.103
99309W        W64294   6.758  14.384   1.618
99310W        W64295  34.400  36.319  12.510
99311W        W64296  39.689  32.377  14.873
99312W        W64297  10.927   4.670  13.235
99313W        W64298  42.727   5.276   3.331
99314W        W64299  42.608  33.062   4.521
99315W        W64300   6.341   7.546  12.784
99316W        W64301  17.838  26.188  14.444
99317W        W64302   6.690  21.191   3.100
99318W        W64303   6.378  16.862   2.591
99319W        W64304  32.240  29.442   4.283
99320W        W64305  29.138  16.653   2.668
99321W        W64306  41.063  34.154   0.278
99322W        W64307   2.205  42.289   1.447
99323W        W64308  10.444  27.523  14.791
99324W        W64309   1.252  16.022   3.308
99325W        W64310   9.840  11.058  12.233
99326W        W64311   8.801  26.495   4.509
99327W        W64312   3.406  39.848  10.356
99328W        W64313  33.876  26.483  11.145
99329W        W64314  31.620  14.934   4.496
99330W        W64315  14.639   7.997  12.373
99331W        W64316  15.178   5.184   3.375
99332W        W64317   8.727  38.058  14.314
99333W        W64318  10.239  38.762   3.206
99334W        W64319   1.601  20.312   0.361
99335W        W64320  31.882   6.271   1.326
99336W        W64321   6.578   5.265  14.875
99337W        W64322   6.305  24.035   0.867
99338W        W64323  23.589  18.577   2.142
99339W        W64324  20.244  40.830  14.867
99340W        W64325  28.975  26.751  12.067
99341W        W64326   1.355   1.902   0.211
99342W        W64327  37.097  28.149  14.371
99343W        W64328  25.997  38.502  13.290
99344W        W64329  29.008  13.665  12.096
99345W        W64330  12.522   0.070  12.857
99346W        W64331  11.519   6.866   3.640
99347W        W64332  13.273  28.073   1.936
99348W        W64333  42.915   2.666   5.157
99349W        W64334  29.999   8.564  14.752
99350W        W64335  22.127  29.159   1.326
99351W        W64336  35.553   1.933  11.421
99352W        W64337  24.649  20.544   0.637
99353W        W64338  37.143  20.545  12.852
99354W        W64339  39.826   9.317  14.754
99355W        W64340   9.324  39.862  13.046
99356W        W64341  18.676  41.985   1.769
99357W        W64342   9.321  34.597   4.141
99358W        W64343  33.958  39.601   2.351
99359W        W64344  14.676  28.213  12.544
99360W        W64345  30.459   9.347  12.636
99361W        W64346  25.390  39.836  14.820
99362W        W64347  18.609  27.777  12.358
99363W        W64348  10.503  18.799   1.871
99364W        W64349  27.557  25.152   3.161
99365W        W64350   8.757   6.819  13.255
99366W        W64351  20.006  15.895  12.842
99367W        W64352  28.676  44.547   3.207
99368W        W64353  26.412  43.753   0.227
99369W        W64354  26.978  37.893   4.412
99370W        W64355  28.970  17.627   3.526
99371W        W64356  13.403  12.570  11.003
99372W        W64357  16.210  14.108   3.833
99373W        W64358  28.027  24.619   0.367
99374W        W64359  21.453  13.783  11.981
99375W        W64360  17.853  14.615   2.630
99376W        W64361  10.227  16.309   1.168
99377W        W64362  24.020  15.373  12.415
99378W        W64363  25.966  43.458   1.256
99379W        W64364  10.446   5.912   2.223
99380W        W64365   0.857  24.758  12.450
99381W        W64366  34.364  27.431   4.523
99382W        W64367  16.129   2.523  14.997
99383W        W64368  11.691   6.413  11.747
99384W        W64369  34.548  42.726  11.679
99385W        W64370   5.340  27.965   4.706
99386W        W64371   8.634  28.435  10.747
99387W        W64372  37.595  24.823  12.158
99388W        W64373  44.365  24.598   0.860
99389W        W64374  29.945  17.500  11.203
99390W        W64375   4.643  33.858   3.457
99391W        W64376   9.421  24.532  14.664
99392W        W64377   9.165  22.635  12.043
99393W        W64378  22.532  40.282  13.794
99394W        W64379  16.156   9.669   0.052
99395W        W64380  29.162  13.023  11.583
99396W        W64381  34.959   1.806  11.551
99397W        W64382  13.140  23.093   4.905
99398W        W64383  14.039  40.770  11.648
99399W        W64384   3.464  39.604  14.921
99400W        W64385  28.070  40.187  12.110
99401W        W64386  12.940  37.391  13.383
99402W        W64387  38.244  15.324   4.560
99403W        W64388  20.613   9.159  13.314
99404W        W64389  36.393   4.976  14.787
99405W        W64390   3.801  11.078  13.534
99406W        W64391  32.702  11.173   3.510
99407W        W64392   3.915  44.898   3.852
99408W        W64393   4.423   6.288  12.894
99409W        W64394  37.227  44.006   1.492
99410W        W64395  21.102  23.353   4.309
99411W        W64396  31.146   9.100  14.459
99412W        W64397   8.902  41.683   0.421
99413W        W64398   8.099  40.359  11.148
99414W        W64399  18.550  15.179  11.563
99415W        W64400   5.186   5.653   5.250
99416W        W64401  37.060  11.636   1.893
99417W        W64402  23.172  37.565   1.808
99418W        W64403   6.420  33.302   0.757
99419W        W64404   3.221  18.755   4.028
99420W        W64405  26.951   8.426   3.548
99421W        W64406  28.577  42.765  13.784
99422W        W64407  30.444  44.106  11.024
99423W        W64408  23.610   2.021   2.182
99424W        W64409   7.291  44.733  14.328
99425W        W64410  33.053  23.668  10.771
99426W        W64411  44.774  19.055   1.381
99427W        W64412  16.882  13.249  11.124
99428W        W64413   7.738  28.789   2.770
99429W        W64414  17.263  22.731  11.007
99430W        W64415  33.007  32.928  12.071
99431W        W64416   3.306  24.516   4.647
99432W        W64417  36.472   5.679  13.531
99433W        W64418  39.409  14.681  11.059
99434W        W64419  32.566   3.767  12.580
99435W        W64420   7.459  39.606  14.904
99436W        W64421   5.010  18.447  10.213
99437W        W64422   3.468  21.123   4.031
99438W        W64423  34.899  42.798   1.282
99439W        W64424  37.578  28.061   0.960
99440W        W64425   8.689   5.800  13.363
99441W        W64426   0.831  21.306   4.587
99442W        W64427  20.720   9.223   4.360
99443W        W64428   6.286  35.023   1.007
99444W        W64429  30.438  39.011   2.819
99445W        W64430   6.241  41.149   3.559
99446W        W64431  42.297  28.981   4.564
99447W        W64432  27.365  36.808   2.494
99448W        W64433  42.484   0.010  13.584
99449W        W64434  25.445  25.054   1.771
99450W        W64435  23.668   0.539   3.770
99451W        W64436  31.804  13.263  14.507
99452W        W64437  11.596  19.834   4.347
99453W        W64438  26.311  27.963   2.669
99454W        W64439  11.689  43.520   0.275
99455W        W64440  21.240  27.918   0.319
99456W        W64441  44.764  25.056  11.580
99457W        W64442   2.974  12.641  12.971
99458W        W64443  34.456   1.698  14.810
99459W        W64444   7.907  24.707   3.775
99460W        W64445  13.530  25.509   3.127
99461W        W64446  20.272  19.322  13.414
99462W        W64447  23.481  30.194  12.030
99463W        W64448  44.831   1.508  11.691
99464W        W64449  14.908   8.408   1.016
99465W        W64450  16.631  31.886  14.897
99466W        W64451  17.733  11.200  11.085
99467W        W64452  38.068  22.140  12.871
99468W        W64453   8.918  24.934  11.655
99469W        W64454  14.695  11.751  12.106
99470W        W64455  13.113  34.957  12.788
99471W        W64456   9.796  31.732  11.244
99472W        W64457  14.862  28.701  12.511
99473W        W64458   6.874  43.366   0.918
99474W        W64459   5.408   5.675   2.587
99475W        W64460   0.288   6.818  10.777
99476W        W64461  16.990  31.509  13.046
99477W        W64462  19.528  30.182   0.895
99478W        W64463  25.506  21.810   4.226
99479W        W64464  34.101  29.289  11.165
99480W        W64465  14.819   9.880   1.799
99481W        W64466  44.720  20.173   1.647
99482W        W64467  32.022  26.652  11.124
99483W        W64468  32.543  38.818  10.662
99484W        W64469  41.578  16.362  14.833
99485W        W64470  19.677  24.454  13.389
99486W        W64471   4.933  22.738   0.364
99487W        W64472   2.841  41.770  12.501
99488W        W64473  33.595  24.255   3.316
99489W        W64474  19.760  43.760  11.522
99490W        W64475  30.013  12.574  14.834
99491W        W64476  33.903  38.156  10.713
99492W        W64477  33.562  44.147  13.269
99493W        W64478  12.421  30.292   3.337
99494W        W64479   0.852   3.473   4.049
99495W        W64480  41.433   1.374   4.787
99496W        W64481  39.068   7.204   2.107
99497W        W64482  30.616  36.039   1.804
99498W        W64483  41.034  14.169   1.844
99499W        W64484  34.385  42.778  13.106
99500W        W64485  20.870  30.666  10.635
99501W        W64486   9.196  42.891   0.664
99502W        W64487  18.595   9.212  11.975
99503W        W64488  31.078  37.248   2.860
99504W        W64489  22.822  30.944  13.969
99505W        W64490  25.007   2.448   1.934
99506W        W64491  15.172  32.744   2.407
99507W        W64492  34.559  13.544  13.523
99508W        W64493  40.548  28.644   0.881
99509W        W64494  22.648  33.378  14.265
99510W        W64495  26.872  27.094   4.234
99511W        W64496   1.423  36.195   3.384
99512W        W64497  25.495  27.233  14.028
99513W        W64498   1.090  34.437  12.153
99514W        W64499   5.483  32.319  13.103
99515W        W64500  29.633  37.474  14.534
99516W        W64501   6.209  15.980   0.939
99517W        W64502  19.642  29.527   4.549
99518W        W64503   2.825  18.254   3.131
99519W        W64504  34.335  39.405  11.748
99520W        W64505  29.611   4.207   2.251
99521W        W64506  32.003  11.042   2.781
99522W        W64507   5.356  23.774   2.279
99523W        W64508   5.698  19.747   2.694
99524W        W64509  37.284   8.468  14.299
99525W        W64510  13.775   8.870   2.307
99526W        W64511  18.635  37.605   0.814
99527W        W64512  29.037  21.199  14.069
99528W        W64513  24.541  42.784   4.573
99529W        W64514   5.653  31.061   2.951
99530W        W64515   3.063  26.593  11.872
99531W        W64516  12.391  26.220   3.399
99532W        W64517  19.313  29.371  14.207
99533W        W64518   7.158  26.673   2.443
99534W        W64519   1.934  22.061  14.989
99535W        W64520  17.795  10.191  14.976
99536W        W64521  35.013  16.388  13.842
99537W        W64522  11.879   7.691   2.903
99538W        W64523  35.877  15.400   1.891
99539W        W64524  31.349  18.630   4.164
99540W        W64525   5.529  43.205  11.690
99541W        W64526  12.039   7.782   4.057
99542W        W64527  34.417  25.471  14.493
99543W        W64528   1.857  29.401   2.363
99544W        W64529  16.087  31.452  14.028
99545W        W64530  12.323  34.197  11.590
99546W        W64531  42.329  42.789  12.111
99547W        W64532   0.057  44.392  11.955
99548W        W64533  40.853  37.436  13.294
99549W        W64534   5.342  23.162   3.897
99550W        W64535  38.667   3.330  10.676
99551W        W64536  11.548  41.562   3.807
99552W        W64537  38.866  40.023   0.151
99553W        W64538  21.964  36.356   1.243
99554W        W64539  31.327  26.474   4.363
99555W        W64540  24.322  31.178  11.654
99556W        W64541  23.662  21.294  10.709
99557W        W64542  23.686   6.417  11.032
99558W        W64543  28.936  17.381  11.869
99559W        W64544  34.837  39.883  14.359
99560W        W64545  29.890  42.529  13.367
99561W        W64546  27.277  34.028   3.854
99562W        W64547   1.720  29.352  11.703
99563W        W64548  25.016  40.328   2.301
99564W        W64549  15.540  24.696   3.201
99565W        W64550  16.497  36.155  12.609
99566W        W64551  14.403  21.246   3.358
99567W        W64552  15.913  26.968   1.986
99568W        W64553  10.220  39.519  13.944
99569W        W64554  31.406  16.234   3.315
99570W        W64555  35.532  13.762   4.532
99571W        W64556  33.843  21.798  14.145
99572W        W64557  15.558  44.971  14.794
99573W        W64558   9.823   7.147   3.159
99574W        W64559  42.318  28.858   3.728
99575W        W64560   4.513  31.942   4.101
99576W        W64561  10.347  16.133   0.291
99577W        W64562  39.429  33.914   1.771
99578W        W64563  30.445  23.410   2.153
99579W        W64564  23.728  24.929  12.849
99580W        W64565   2.461  39.008   1.762
99581W        W64566  18.773  29.553  12.908
99582W        W64567  22.628  37.781  12.621
99583W        W64568  32.384  39.157  11.599
99584W        W64569  34.285  44.206  11.513
99585W        W64570  30.432   8.325  12.545
99586W        W64571  39.834   9.486   0.937
99587W        W64572  12.673  29.149   2.246
99588W        W64573   8.689  14.692  11.609
99589W        W64574  29.609  23.446   1.344
99590W        W64575  34.158  22.556  12.611
99591W        W64576  32.972  35.018   3.715
99592W        W64577  19.495  33.042  12.945
99593W        W64578   7.109  19.320  12.050
99594W        W64579   8.699   1.218   1.172
99595W        W64580  32.004  13.670   3.514
99596W        W64581  13.361  33.008   2.718
99597W        W64582  16.216  21.134   0.086
99598W        W64583   3.653  29.525   2.324
99599W        W64584  41.354  11.318   0.776
99600W        W64585  10.176   9.253   4.524
99601W        W64586  29.524  20.055  11.947
99602W        W64587  35.895  36.890  14.395
99603W        W64588  30.383  20.372  13.917
99604W        W64589  23.089  13.262  12.455
99605W        W64590   6.004  38.494  14.433
99606W        W64591  18.617  25.719   2.244
99607W        W64592  19.311  24.216  12.102
99608W        W64593   8.871  30.907   4.396
99609W        W64594  15.345  16.992  12.666
99610W        W64595   1.549  19.378   3.350
99611W        W64596   0.248   1.234  11.937
99612W        W64597  13.069  20.734  14.305
99613W        W64598  31.882  30.403  10.893
99614W        W64599  39.049  21.248   1.332
99615W        W64600  37.603  10.811  12.886
99616W        W64601  11.098  26.090  14.796
99617W        W64602   3.630  30.580  12.834
99618W        W64603   0.476  39.961  12.546
99619W        W64604  16.022  34.445   3.675
99620W        W64605  21.641   8.250   4.124
99621W        W64606  26.381  21.310  12.922
99622W        W64607  32.460  12.793   2.103
99623W        W64608   9.398   2.108  12.236
99624W        W64609  28.453  41.599  13.093
99625W        W64610  43.811  21.976  12.061
99626W        W64611   6.838  36.080  13.591
99627W        W64612  13.735   2.658  11.571
99628W        W64613  11.800  19.239  14.755
99629W        W64614  13.091  23.797   1.297
99630W        W64615  22.938  41.880   0.536
99631W        W64616   5.817   4.864   9.811
99632W        W64617  27.843   2.764   2.282
99633W        W64618  23.086  21.143   1.284
99634W        W64619  40.461  13.423   0.423
99635W        W64620   0.719  44.920   1.009
99636W        W64621  39.356  26.589  14.940
99637W        W64622  36.390   6.389   1.860
99638W        W64623  13.661  28.815   4.108
99639W        W64624  30.093  38.381   3.283
99640W        W64625  24.022  33.628  14.569
99641W        W64626  16.599  38.703  11.111
99642W        W64627  41.773  16.307   1.641
99643W        W64628  22.542   3.829  11.088
99644W        W64629  16.006  11.320   1.881
99645W        W64630  19.080  22.313  11.062
99646W        W64631  29.472   8.255  13.396
99647W        W64632  19.599   3.707   4.826
99648W        W64633  32.737  25.986  13.937
99649W        W64634   9.591  42.472   3.695
99650W        W64635  12.162  17.352   3.308
99651W        W64636  30.652  13.897   4.253
99652W        W64637  38.411  39.284   0.746
99653W        W64638  24.768  37.022  13.046
99654W        W64639   6.438  27.048  10.719
99655W        W64640  22.303  14.678   1.779
99656W        W64641  23.582  10.428  14.429
99657W        W64642   7.249  43.728   0.001
99658W        W64643  36.435  21.499  11.442
99659W        W64644  31.614  24.597  14.460
99660W        W64645  44.477  36.444  12.093
99661W        W64646  38.278  42.341  14.030
99662W        W64647  18.163  43.281   1.972
99663W        W64648   5.695   7.837  12.010
99664W        W64649  31.754  11.165  10.240
99665W        W64650  31.495  30.166  14.027
99666W        W64651  26.216   1.447  13.340
99667W        W64652   2.181  40.569   2.722
99668W        W64653  30.180   9.878  12.135
99669W        W64654   4.865  14.876   0.806
99670W        W64655  21.210  43.001   4.076
99671W        W64656   8.884  32.619  14.688
99672W        W64657  30.579  33.428  12.371
99673W        W64658  35.085  33.635  13.067
99674W        W64659  37.778   2.744   5.017
99675W        W64660  15.428  22.644   2.659
99676W        W64661  21.704  39.854  11.871
99677W        W64662  23.812  38.839   4.028
99678W        W64663   8.114  18.379  12.081
99679W        W64664  11.236  35.072  12.885
99680W        W64665  14.043  30.137  11.618
99681W        W64666   9.130  12.243   0.816
99682W        W64667   9.114  10.354   0.871
99683W        W64668  39.367  13.064  10.691
99684W        W64669   2.236  21.073   2.764
99685W        W64670   0.801   5.657   2.359
99686W        W64671  28.154   2.079   2.647
99687W        W64672   1.312  13.680  13.535
99688W        W64673  12.679  14.727  12.040
99689W        W64674  12.511  26.083  10.242
99690W        W64675   4.372  44.453  14.906
99691W        W64676  30.310  18.544  14.045
99692W        W64677  28.666  29.616   2.345
99693W        W64678   4.018  21.298   1.511
99694W        W64679  27.142   3.433   2.284
99695W        W64680  25.588  42.971  10.260
99696W        W64681   2.031  27.152  14.968
99697W        W64682   3.416  37.161   3.791
99698W        W64683   6.625  34.514   0.988
99699W        W64684  43.444   2.977  13.052
99700W        W64685   1.823  27.954  11.980
99701W        W64686  27.953  15.144   1.666
99702W        W64687   0.885  19.147  13.984
99703W        W64688   0.277  17.729   3.228
99704W        W64689  32.685  15.842  11.876
99705W        W64690   7.955   5.285   2.850
99706W        W64691  10.166  22.726   1.681
99707W        W64692  31.650  28.165  11.506
99708W        W64693  39.804  25.722  13.521
99709W        W64694  10.676   6.385   9.876
99710W        W64695  32.971   6.917  14.200
99711W        W64696  37.373  21.260  11.882
99712W        W64697  30.116  13.332  11.540
99713W        W64698  28.129  39.066   3.297
99714W        W64699  34.825  19.644   1.772
99715W        W64700  37.529  16.217   1.696
99716W        W64701   6.316  19.761   4.540
99717W        W64702  23.399   9.763   3.242
99718W        W64703  33.614  43.825   2.227
99719W        W64704  19.082  15.246   2.845
99720W        W64705  36.504   9.207   5.455
99721W        W64706   1.745  42.611   3.684
99722W        W64707  30.701   5.598  12.540
99723W        W64708  31.460  41.364   2.215
99724W        W64709  29.433  34.480  12.435
99725W        W64710   5.036  20.073   0.396
99726W        W64711  22.452  28.594   2.301
99727W        W64712  15.269  37.436  10.703
99728W        W64713  41.506  13.945   1.916
99729W        W64714  39.560  22.654   0.154
99730W        W64715  26.097  14.743   3.473
99731W        W64716  15.593  30.040   2.400
99732W        W64717  24.108  26.064  10.568
99733W        W64718  17.606  28.891  13.809
99734W        W64719  11.842  21.859  11.713
99735W        W64720  32.683  28.008  11.620
99736W        W64721  39.967  39.055  10.719
99737W        W64722  19.784   4.251  14.948
99738W        W64723  36.461  15.636  13.916
99739W        W64724  14.213  10.857  14.530
99740W        W64725  31.489  33.554  11.278
99741W        W64726  21.356  18.881   2.382
99742W        W64727  22.998  30.004  12.048
99743W        W64728   8.802  36.530  12.833
99744W        W64729  26.133  36.956  11.559
99745W        W64730  11.223  13.743   2.738
99746W        W64731  43.693  25.417   5.351
99747W        W64732   9.407  18.187   3.190
99748W        W64733  23.732   1.431  14.827
99749W        W64734  37.901   2.485  13.450
99750W        W64735   1.017  25.160  14.800
99751W        W64736   4.898  30.758   2.713
99752W        W64737   2.398  18.925  10.153
99753W        W64738   6.479  11.719   2.782
99754W        W64739  10.866   6.357  12.659
99755W        W64740  29.141  21.217   3.701
99756W        W64741  33.344  35.903  11.287
99757W        W64742   9.691  22.083  14.913
99758W        W64743  21.529  14.075   3.838
99759W        W64744  41.619  19.005   3.649
99760W        W64745  40.899  40.576   2.698
99761W        W64746  35.557  37.546   3.417
99762W        W64747  12.827  39.515  11.953
99763W        W64748  15.371   3.688  14.524
99764W        W64749  29.513  24.287   3.987
99765W        W64750  24.403  19.809  12.358
99766W        W64751   4.859  39.556   2.203
99767W        W64752  16.628   3.697   2.777
99768W        W64753  20.529  23.059   1.661
99769W        W64754  24.398  10.702   3.469
99770W        W64755   2.380  23.333   1.806
99771W        W64756  37.907  41.968  14.016
99772W        W64757  30.442   3.872  14.252
99773W        W64758  14.275  11.296  10.681
99774W        W64759   8.811  30.877   1.123
99775W        W64760  21.393  32.259   1.321
99776W        W64761   8.009  29.163  11.921
99777W        W64762   1.311   9.691  14.524
99778W        W64763  36.394  34.236   5.172
99779W        W64764   5.991  35.957  12.329
99780W        W64765  37.764  17.847   3.272
99781W        W64766  24.281  11.091   3.855
99782W        W64767  26.662   0.105   3.278
99783W        W64768  42.969  21.036   1.718
99784W        W64769  39.079   9.874  10.926
99785W        W64770  31.278  17.984   3.447
99786W        W64771  27.227  33.841   1.244
99787W        W64772  36.805  33.090  14.091
99788W        W64773   1.580  25.394  12.940
99789W        W64774  28.423  15.958   1.218
99790W        W64775  24.399   7.833   2.112
99791W        W64776  30.551  27.388   2.372
99792W        W64777  27.685  28.716  14.006
99793W        W64778  20.653  32.862   4.859
99794W        W64779  32.795  40.836  11.517
99795W        W64780  41.113  26.233  12.068
99796W        W64781  31.597  15.058   0.520
99797W        W64782  13.995  42.360   3.375
99798W        W64783  22.196  32.396   3.782
99799W        W64784  28.023  43.761  10.759
99800W        W64785  26.934  20.702  11.645
99801W        W64786  24.314  15.397   5.012
99802W        W64787  18.739  44.391   0.616
99803W        W64788  35.931   7.991   3.167
99804W        W64789  42.520  12.136   4.510
99805W        W64790  12.179  42.819  10.867
99806W        W64791   7.190  42.070  12.120
99807W        W64792  17.427  15.229   1.596
99808W        W64793  34.349   3.882   4.304
99809W        W64794  14.672  34.006   0.425
99810W        W64795   6.246  26.051  14.626
99811W        W64796   1.181  39.578  11.993
99812W        W64797  30.578  22.965   0.717
99813W        W64798  41.878   7.425   3.681
99814W        W64799  29.187  36.065   4.549
99815W        W64800  19.567  33.595  13.586
99816W        W64801   3.153   5.535  14.854
99817W        W64802  31.806  28.977  13.439
99818W        W64803  14.800  20.249   2.299
99819W        W64804   8.867  23.078   0.522
99820W        W64805  37.459  36.031   4.454
99821W        W64806  39.564  38.351  13.089
99822W        W64807  25.622  16.564  12.044
99823W        W64808  25.528   4.129   1.332
99824W        W64809  28.088   0.082  13.482
99825W        W64810   3.453   5.150   0.792
99826W        W64811  10.607  15.090   4.514
99827W        W64812  28.976  43.155   0.420
99828W        W64813  35.952   8.877   2.853
99829W        W64814  20.580  11.370  14.704
99830W        W64815  33.512   2.255   5.077
99831W        W64816   7.898   1.774   4.539
99832W        W64817  43.332  13.486   0.953
99833W        W64818  41.324  26.183  14.471
99834W        W64819  43.229  30.463   1.196
99835W        W64820  18.171  25.271  12.951
99836W        W64821   3.734  17.140   4.573
99837W        W64822  44.397  17.906  11.536
99838W        W64823  30.082   8.964  13.964
99839W        W64824  42.136  19.251  12.922
99840W        W64825  42.413  31.932   2.817
99841W        W64826  38.954  15.819  11.062
99842W        W64827  21.147   1.228  10.657
99843W        W64828  39.109  34.849   4.976
99844W        W64829   9.235  24.657   2.151
99845W        W64830  42.836  25.675   0.077
99846W        W64831  25.057  21.017   5.080
99847W        W64832   9.330   7.877   3.086
99848W        W64833  28.127  23.238   1.088
99849W        W64834  23.687  11.401  12.913
99850W        W64835  19.466  36.581  14.925
99851W        W64836  34.749  37.430  13.939
99852W        W64837  11.240  32.943  12.526
99853W        W64838  25.065  21.313  13.332
99854W        W64839  20.365   5.441   2.820
99855W        W64840  31.662  31.848  14.984
99856W        W64841  43.937  40.784  12.878
99857W        W64842  36.510  11.150   3.108
99858W        W64843  14.555  17.661   0.794
99859W        W64844  19.274  18.343   5.567
99860W        W64845   2.372   2.985   3.424
99861W        W64846  31.521  23.152   2.833
99862W        W64847  17.599   8.302  12.037
99863W        W64848  38.477  27.664  12.130
99864W        W64849  26.539  42.842   4.276
99865W        W64850  11.958  33.601   2.296
99866W        W64851  41.664  43.699   1.268
99867W        W64852  11.063  31.557   4.492
99868W        W64853  29.930   5.714   2.794
99869W        W64854  40.573  20.140  11.948
99870W        W64855  44.077  33.643   0.348
99871W        W64856   5.866  41.907  11.566
99872W        W64857   6.240  11.633  14.979
99873W        W64858  34.017  24.291   0.882
99874W        W64859  11.126  38.827  14.943
99875W        W64860   2.622  21.715   3.192
99876W        W64861   4.639  41.893   4.223
99877W        W64862  44.460  16.777  10.637
99878W        W64863  26.149   3.238  12.511
99879W        W64864  25.926  40.450  10.784
99880W        W64865  43.175  29.050   3.264
99881W        W64866  20.761  41.148   0.725
99882W        W64867  27.121  20.686  14.876
99883W        W64868  25.606  26.193  14.958
99884W        W64869  16.694  41.594  14.393
99885W        W64870  43.638   7.494   0.015
99886W        W64871  26.398  36.534  10.724
99887W        W64872   7.365  19.853  11.012
99888W        W64873   0.311  22.035  14.064
99889W        W64874   0.541   7.797  13.384
99890W        W64875   3.160  17.671   3.853
99891W        W64876  28.675  40.064  12.360
99892W        W64877  32.647  24.638   1.630
99893W        W64878  44.654  10.155  13.790
99894W        W64879   6.236  21.706   2.620
99895W        W64880  43.730   6.419   0.985
99896W        W64881  37.889  10.919   3.570
99897W        W64882   1.876   6.997   0.224
99898W        W64883  10.165   7.163  11.685
99899W        W64884  15.656  41.095   4.026
99900W        W64885   4.347  21.582   4.140
99901W        W64886  32.619  21.055  13.912
99902W        W64887  14.505  32.130   1.703
99903W        W64888   4.702  39.119   4.327
99904W        W64889  13.231  11.688   1.321
99905W        W64890  13.244  14.472   2.844
99906W        W64891  34.259  18.261  13.463
99907W        W64892  33.863  23.118   0.296
99908W        W64893   3.685  17.734   3.826
99909W        W64894  27.752  19.172  11.647
99910W        W64895  37.027  21.464   1.368
99911W        W64896  12.891  12.647  13.836
99912W        W64897  16.700  15.814  14.915
99913W        W64898   3.198  37.780   0.840
99914W        W64899  12.839  40.736  12.395
99915W        W64900  33.243  29.710   4.141
99916W        W64901  25.778  22.646  10.245
99917W        W64902  20.637  42.155   2.085
99918W        W64903  12.626   6.799  10.852
99919W        W64904  35.815  26.061  12.441
99920W        W64905   6.292   2.045   2.413
99921W        W64906  18.530  29.968  12.002
99922W        W64907  31.590  41.096   4.741
99923W        W64908  41.599  21.437  11.605
99924W        W64909  15.355   6.937   4.750
99925W        W64910  27.905  40.735   1.920
99926W        W64911  15.096  16.160  13.378
99927W        W64912  13.118  13.582   3.683
99928W        W64913  21.307  31.863   1.679
99929W        W64914   2.896  44.515  11.680
99930W        W64915  16.327  40.980   4.508
99931W        W64916  30.075   4.617  10.229
99932W        W64917  33.155  30.472   2.426
99933W        W64918  19.485   3.312  13.381
99934W        W64919   6.618  28.531  13.502
99935W        W64920  18.760  10.069   4.233
99936W        W64921  34.901  22.506   1.541
99937W        W64922  42.829  41.541   4.516
99938W        W64923  11.814  34.611  12.935
99939W        W64924  34.653  44.756  14.763
99940W        W64925  35.018   3.497   4.310
99941W        W64926  23.535  35.369   2.206
99942W        W64927  32.551   6.684   3.734
99943W        W64928   2.832  11.891   1.845
99944W        W64929  25.041  20.075   1.173
99945W        W64930   7.395  42.054   3.408
99946W        W64931   5.622  37.646   1.608
99947W        W64932  39.090   0.747  13.735
99948W        W64933  32.718  20.154   4.961
99949W        W64934   7.188  25.622  12.473
99950W        W64935   7.596  11.661   1.859
99951W        W64936  24.639  11.284   4.365
99952W        W64937  33.117  26.904   1.278
99953W        W64938  11.356  10.808  14.454
99954W        W64939  25.087  37.067  13.463
99955W        W64940  25.143  11.258  10.701
99956W        W64941  19.181  35.875   0.103
99957W        W64942  21.854  42.445   2.932
99958W        W64943   6.826  20.579   3.744
99959W        W64944  33.622  14.883   4.169
99960W        W64945   4.493  29.636  13.735
99961W        W64946  33.496  37.725  11.536
99962W        W64947  27.665   9.410   0.557
99963W        W64948  17.249   3.619   0.678
99964W        W64949  20.063  20.747  13.821
99965W        W64950   6.907  28.039   3.294
99966W        W64951  25.406   3.527   4.451
99967W        W64952  36.462  43.256  12.876
99968W        W64953  11.293  41.069  13.815
99969W        W64954  17.610  16.287  13.862
99970W        W64955  12.050  42.841   1.413
99971W        W64956  26.246  23.649  11.776
99972W        W64957   4.899  26.350   0.354
99973W        W64958   6.282  15.818   3.729
99974W        W64959  27.154   9.377  12.108
99975W        W64960  33.816  42.308  12.583
99976W        W64961  15.211  16.898   3.699
99977W        W64962  30.276  12.839  13.304
99978W        W64963  37.929   5.923  12.874
99979W        W64964  14.144  22.095   4.927
99980W        W64965  43.461  40.979   0.001
99981W        W64966  37.979  27.610  12.056
99982W        W64967  20.641  28.409   0.885
99983W        W64968  28.952   9.383   2.515
99984W        W64969  44.581  29.869   2.102
99985W        W64970   1.923  39.956   3.809
99986W        W64971   7.384   1.425  14.510
99987W        W64972  15.388  26.701   9.754
99988W        W64973   2.643  31.120   1.259
99989W        W64974  34.086   5.743  11.887
99990W        W64975  38.345   8.693   4.532
99991W        W64976  28.096  22.231   1.484
99992W        W64977   3.697   0.400  12.475
99993W        W64978  32.148  34.380  14.473
99994W        W64979   2.827   3.028   2.691
99995W        W64980  32.952  17.966  13.361
99996W        W64981  11.295  31.511  12.451
99997W        W64982  21.566   3.390  13.442
99998W        W64983  11.532   7.723  14.857
99999W        W64984  22.470  18.671   2.949
    0W        W64985  39.886  33.503   1.205
    1W        W64986  15.664   0.854   0.472
    2W        W64987  17.777   2.773  14.894
    3W        W64988   4.025  20.774  14.467
    4W        W64989  26.122  28.363   2.979
    5W        W64990  14.428  36.028   0.361
    6W        W64991  29.451  20.787   3.982
    7W        W64992  33.128   5.208  13.078
    8W        W64993  18.332  39.809   2.173
    9W        W64994  20.583  30.066  14.249
   10W        W64995  22.776  26.016   2.775
   11W        W64996  17.918  14.525  11.903
   12W        W64997  37.100  31.354  12.466
   13W        W64998  19.628  41.056  14.551
   14W        W64999  22.073  14.324   2.576
   15W        W65000   4.857  31.103  13.233
   16W        W65001  25.074  11.261  13.364
   17W        W65002  26.635  30.574  14.517
   18W        W65003  40.162  19.843  14.126
   19W        W65004  20.901  44.701  10.460
   20W        W65005   3.784  42.829   3.743
   21W        W65006   5.548   3.252   0.712
   22W        W65007   2.530  17.128   3.830
   23W        W65008  41.928  33.929   1.383
   24W        W65009  22.909  14.748  12.095
   25W        W65010   9.859   3.908   1.270
   26W        W65011  12.329  39.591  11.144
   27W        W65012   5.168  23.570  13.040
   28W        W65013  23.119  44.402  11.986
   29W        W65014  23.671  13.124   2.174
   30W        W65015  16.768   3.971  14.526
   31W        W65016   2.690  39.111  14.961
   32W        W65017   6.331  32.867   1.814
   33W        W65018  17.254  41.450  13.504
   34W        W65019  34.137   3.953  11.973
   35W        W65020  31.600  32.646   1.314
   36W        W65021  24.136  28.193   0.932
   37W        W65022  31.383  13.846  12.999
   38W        W65023  32.683  40.163   0.100
   39W        W65024  18.365  39.376   0.306
   40W        W65025   0.411   3.297   3.850
   41W        W65026  37.817  12.115   3.761
   42W        W65027  18.040  18.229   0.837
   43W        W65028  17.982  11.036  14.441
   44W        W65029  10.819  30.403  11.919
   45W        W65030  24.144  12.567   3.348
   46W        W65031  34.566  16.127   3.218
   47W        W65032  17.315  43.873   4.529
   48W        W65033  22.548  43.010   1.326
   49W        W65034  12.974  22.344  11.070
   50W        W65035  21.076  14.403   4.951
   51W        W65036  18.237  36.414   1.901
   52W        W65037  40.810   4.172   2.079
   53W        W65038  26.892  41.247  14.460
   54W        W65039  15.583  30.467   0.268
   55W        W65040   8.251  11.796  13.385
   56W        W65041   7.783  31.282   0.183
   57W        W65042   2.242  32.955   3.441
   58W        W65043  37.846   5.349   3.173
   59W        W65044  18.302  23.128   4.572
   60W        W65045  24.561  25.127   3.411
   61W        W65046   7.057  22.338   3.205
   62W        W65047   4.478  19.065   3.628
   63W        W65048  24.955  15.130   1.370
   64W        W65049  11.458   6.378   0.751
   65W        W65050  23.593   4.328   9.799
   66W        W65051  36.208  19.972   2.450
   67W        W65052  41.278  29.421   1.919
   68W        W65053  44.313  29.645  12.450
   69W        W65054   5.368   0.687   3.603
   70W        W65055   6.479  26.864  11.976
   71W        W65056  32.374   1.263   4.206
   72W        W65057  30.634   6.726  13.476
   73W        W65058  38.403  36.566   3.384
   74W        W65059  16.014   2.088  13.423
   75W        W65060  20.715  14.806  13.789
   76W        W65061  42.502  14.875  12.514
   77W        W65062  38.457  21.539  13.325
   78W        W65063  29.124  37.503   4.567
   79W        W65064  11.664  43.554  10.773
   80W        W65065  10.267  36.616  13.009
   81W        W65066  41.876   5.331   1.382
   82W        W65067  37.406   2.839   1.232
   83W        W65068  27.715  44.323  11.630
   84W        W65069   1.118   4.512   4.102
   85W        W65070   3.988   2.742  14.414
   86W        W65071   3.366   4.308  14.469
   87W        W65072  19.603  23.032   2.093
   88W        W65073  44.267   5.985  13.992
   89W        W65074  14.052   6.162   1.576
   90W        W65075   5.572   8.747  13.815
   91W        W65076  13.314  30.180  11.334
   92W        W65077  37.260  25.767  10.181
   93W        W65078   5.364  31.697   2.650
   94W        W65079  40.563   6.213  12.521
   95W        W65080   2.219  13.598  13.456
   96W        W65081  40.876  31.886  13.164
   97W        W65082  27.086  24.191   2.183
   98W        W65083  22.077  43.882   0.690
   99W        W65084  19.137  26.495  14.716
  100W        W65085   2.241  22.998  11.549
  101W        W65086   5.695   7.169  11.206
  102W        W65087   4.430  14.309  14.107
  103W        W65088  33.713  22.779  14.531
  104W        W65089   5.449  32.776  14.027
  105W        W65090   8.091  30.551   4.220
  106W        W65091  42.420  28.582  12.949
  107W        W65092  23.632  22.150  10.419
  108W        W65093   2.042  41.946   2.908
  109W        W65094  23.337  35.961   2.886
  110W        W65095  19.523  39.854  13.539
  111W        W65096  13.151   1.555  14.311
  112W        W65097  14.827  19.459   4.502
  113W        W65098  31.437  23.640  14.936
  114W        W65099  42.969  34.111   3.741
  115W        W65100  18.150  12.900   2.038
  116W        W65101   7.920   7.066  12.667
  117W        W65102  41.518   8.121  11.498
  118W        W65103   6.921   9.386  14.491
  119W        W65104  19.997  27.901  13.014
  120W        W65105   3.660  33.829  13.301
  121W        W65106  38.229  31.303  13.118
  122W        W65107  36.590   0.453  13.431
  123W        W65108   9.315  18.120  10.689
  124W        W65109   3.792  10.653  10.756
  125W        W65110   6.468   1.529  13.504
  126W        W65111  16.589  20.251   4.741
  127W        W65112  25.002  13.786   4.606
  128W        W65113  27.170  11.759  11.168
  129W        W65114  43.320  21.922  13.953
  130W        W65115  40.767  36.419   1.818
  131W        W65116  16.726  27.639  13.428
  132W        W65117  10.205  14.553   2.826
  133W        W65118  28.335  41.524  12.591
  134W        W65119  33.677  35.408   4.078
  135W        W65120  16.087  41.606   3.677
  136W        W65121  27.012   4.201   0.202
  137W        W65122  44.014   9.924  14.944
  138W        W65123  13.612  28.002   3.281
  139W        W65124   4.721  33.076  12.524
  140W        W65125  16.883  36.493   2.562
  141W        W65126  25.516  30.495  13.994
  142W        W65127  28.579  31.611   3.948
  143W        W65128  31.013  22.565  11.937
  144W        W65129  29.651  43.075  11.592
  145W        W65130  23.229  43.039   0.853
  146W        W65131  35.499  34.328   1.956
  147W        W65132  33.087  39.642   0.341
  148W        W65133  28.654  27.392  10.985
  149W        W65134  32.079  39.389  14.847
  150W        W65135  22.032  20.234   1.258
  151W        W65136  22.411  40.084  12.980
  152W        W65137  28.258   6.324  14.285
  153W        W65138   6.349   8.281   0.875
  154W        W65139  14.211  34.568   0.320
  155W        W65140  30.542  16.758   1.876
  156W        W65141  17.148  36.458  13.516
  157W        W65142   9.438  40.916   1.680
  158W        W65143  28.431  38.068   3.352
  159W        W65144  35.969  14.284   0.781
  160W        W65145  29.285  34.642  14.339
  161W        W65146  17.231  23.214  10.276
  162W        W65147   5.700  32.024  12.450
  163W        W65148  42.221  29.925  11.597
  164W        W65149  12.142  14.806  12.133
  165W        W65150  27.995  29.255  10.679
  166W        W65151   5.881  16.296   0.334
  167W        W65152  40.741  41.384  11.584
  168W        W65153  44.307  36.642   5.117
  169W        W65154   6.519  36.629  14.001
  170W        W65155  16.690  34.998   0.806
  171W        W65156  34.880  31.131  13.053
  172W        W65157  25.402  39.336   4.602
  173W        W65158  43.121  29.180  11.092
  174W        W65159  38.424  39.490  13.851
  175W        W65160  24.426   2.247  12.056
  176W        W65161  10.130  36.116   3.464
  177W        W65162   1.675  23.586   0.745
  178W        W65163  16.847   5.901   1.202
  179W        W65164   8.988  35.365  13.883
  180W        W65165  43.713  17.111   3.165
  181W        W65166  11.159  24.354   4.807
  182W        W65167   4.262  22.092  14.511
  183W        W65168  21.322  27.199  14.871
  184W        W65169  15.174   8.343   3.594
  185W        W65170  43.424  35.869  14.436
  186W        W65171  32.918  25.061   3.317
  187W        W65172   3.190  22.945  10.687
  188W        W65173   2.914  16.787   0.415
  189W        W65174  16.534  21.738  12.958
  190W        W65175  10.299  14.611  12.466
  191W        W65176  32.697  12.827  12.013
  192W        W65177  16.076   2.322   0.892
  193W        W65178  29.778  29.055  14.266
  194W        W65179   5.498  43.424   3.216
  195W        W65180  16.203  44.450   4.831
  196W        W65181  13.433   1.900   2.837
  197W        W65182   0.158  36.202   9.759
  198W        W65183  31.108  19.596  11.084
  199W        W65184  23.232  36.934  13.562
  200W        W65185  19.178  29.194   0.879
  201W        W65186   5.654   4.294  14.787
  202W        W65187  38.368  37.156  13.521
  203W        W65188  39.534  20.269   4.666
  204W        W65189  18.758  28.489   2.819
  205W        W65190  12.800  31.891   3.590
  206W        W65191   5.836  11.110  14.355
  207W        W65192  26.759  17.644  11.265
  208W        W65193  30.430  25.639  12.741
  209W        W65194   0.983  35.585  13.612
  210W        W65195  12.845   6.970  12.210
  211W        W65196   0.683  25.430   0.485
  212W        W65197  37.844  19.786   2.547
  213W        W65198   1.713  12.621  13.013
  214W        W65199  33.023  10.222   0.498
  215W        W65200  23.606  21.039   1.282
  216W        W65201  41.603  22.702   2.106
  217W        W65202  38.816  27.061  10.707
  218W        W65203  26.454  12.925   4.325
  219W        W65204  18.282  31.587   3.123
  220W        W65205  23.913  36.422  14.673
  221W        W65206  21.671   7.442   3.641
  222W        W65207  42.997   4.426   2.361
  223W        W65208  19.365  25.626  13.886
  224W        W65209  17.561  22.221   1.368
  225W        W65210  16.782  15.695   2.654
  226W        W65211  24.125  22.321   3.234
  227W        W65212  18.260  36.846   3.389
  228W        W65213  34.412   0.217   0.652
  229W        W65214  20.068  20.056   2.291
  230W        W65215  17.956   7.310   0.071
  231W        W65216  39.457  41.640  11.890
  232W        W65217  24.540   8.502   4.087
  233W        W65218  26.734  34.602  14.394
  234W        W65219  16.951  38.989  10.854
  235W        W65220  24.569   6.976   3.198
  236W        W65221  31.936  37.846  11.597
  237W        W65222   3.193  41.406   1.165
  238W        W65223  39.921  43.922   0.805
  239W        W65224  18.625  38.134   1.654
  240W        W65225  16.597  20.962   0.361
  241W        W65226   8.568  44.309  10.722
  242W        W65227  21.738  40.539  13.266
  243W        W65228  34.103  17.776  13.991
  244W        W65229  20.171  40.081  14.024
  245W        W65230   8.154  42.415   3.782
  246W        W65231  11.269  15.014  12.971
  247W        W65232  16.723  33.555   4.255
  248W        W65233  42.844  23.772  12.534
  249W        W65234  27.536  41.678   3.237
  250W        W65235  33.880  31.400   0.484
  251W        W65236  34.975   7.393  10.640
  252W        W65237  31.621  11.360   4.116
  253W        W65238  37.592  19.468  14.961
  254W        W65239  16.149  34.449   2.385
  255W        W65240  30.022  12.707   0.836
  256W        W65241  19.102  10.832   0.193
  257W        W65242  31.467   7.095   4.105
  258W        W65243  31.145  37.818   3.104
  259W        W65244  30.578  35.091  10.679
  260W        W65245  21.665  39.797  14.915
  261W        W65246  18.887  24.961  13.426
  262W        W65247  13.788   3.197   0.503
  263W        W65248   1.248   4.622   2.360
  264W        W65249   9.129  18.598   5.060
  265W        W65250  17.938   1.282  13.873
  266W        W65251  16.977  12.845   4.667
  267W        W65252   5.390  23.195  13.313
  268W        W65253  23.259   5.239  10.851
  269W        W65254  23.464  39.830   1.730
  270W        W65255  16.099  32.999  10.618
  271W        W65256   0.521  22.897  11.956
  272W        W65257  13.368  10.348   5.078
  273W        W65258  30.958  44.799  12.445
  274W        W65259   1.806  35.592  13.632
  275W        W65260  17.128  42.901   2.305
  276W        W65261   4.189  32.076  13.191
  277W        W65262  24.017  15.366   1.885
  278W        W65263  31.100  21.258   2.903
  279W        W65264  31.940  44.788  10.796
  280W        W65265  19.461  10.637   1.867
  281W        W65266  18.491  30.994   1.450
  282W        W65267   6.679   1.312   2.658
  283W        W65268  43.512  32.010   2.387
  284W        W65269  17.105  18.383  12.958
  285W        W65270  42.760  30.461  14.750
  286W        W65271  38.889  11.927  14.461
  287W        W65272  38.653   0.958   1.821
  288W        W65273   4.484  12.830  12.947
  289W        W65274  19.070  37.155  12.334
  290W        W65275   8.429  28.226  12.738
  291W        W65276   8.282  24.941   2.948
  292W        W65277  17.448   8.653  10.698
  293W        W65278  17.801  30.052   2.836
  294W        W65279  29.075   2.446  10.252
  295W        W65280  16.240  14.000  10.764
  296W        W65281   1.770   3.801   1.174
  297W        W65282  29.449   9.554   2.418
  298W        W65283   5.753  22.237  13.891
  299W        W65284  36.310  28.678   4.682
  300W        W65285   3.644   8.828  12.613
  301W        W65286  28.844  34.630   4.773
  302W        W65287   5.266  37.592   0.937
  303W        W65288  28.116   4.143  14.023
  304W        W65289  36.901   0.845   3.293
  305W        W65290  39.642  29.335  11.178
  306W        W65291  13.338  10.309  11.655
  307W        W65292  25.982  38.390   0.313
  308W        W65293   0.683  30.456  14.430
  309W        W65294  28.234  15.057   3.372
  310W        W65295  32.578  23.576  12.925
  311W        W65296  40.573   9.144   2.639
  312W        W65297  40.563  41.413   1.511
  313W        W65298  41.534  44.854   4.141
  314W        W65299  14.698  44.564   3.939
  315W        W65300  30.201  16.814  13.257
  316W        W65301   5.649  20.789  11.052
  317W        W65302  23.749  28.007  11.601
  318W        W65303  12.144  37.367   3.786
  319W        W65304  11.855  39.502  14.471
  320W        W65305  25.559   5.419  12.449
  321W        W65306  37.361   3.955   1.474
  322W        W65307  22.652  15.371   4.776
  323W        W65308  14.584  39.636   2.391
  324W        W65309  15.825  26.064  14.060
  325W        W65310  34.562   2.652  13.912
  326W        W65311   5.399  43.961   0.293
  327W        W65312  28.578   6.865  13.777
  328W        W65313  13.636  21.615  11.102
  329W        W65314  25.184   0.379  12.911
  330W        W65315  19.627  12.813  11.143
  331W        W65316   3.846  21.445   4.182
  332W        W65317  29.951  27.968  11.525
  333W        W65318  25.392   3.200  12.055
  334W        W65319  34.534  25.457   1.398
  335W        W65320  38.947  40.932  12.366
  336W        W65321  16.755  40.884  12.994
  337W        W65322  12.559  10.191  14.000
  338W        W65323   4.601   6.757   0.257
  339W        W65324  12.385  39.885   2.289
  340W        W65325  11.401  15.583   2.770
  341W        W65326  23.299   6.760  12.915
  342W        W65327  13.176  34.919   3.061
  343W        W65328  19.121  12.310   2.858
  344W        W65329  25.989  38.575   5.055
  345W        W65330   2.752  31.908   0.679
  346W        W65331  18.688  42.499   1.940
  347W        W65332   1.984   0.483   2.780
  348W        W65333  35.636   9.783  13.313
  349W        W65334  39.067  43.085  14.524
  350W        W65335  17.972  34.608   1.864
  351W        W65336  44.450  39.531  13.817
  352W        W65337  37.022  40.759   4.134
  353W        W65338   7.923  36.608  14.434
  354W        W65339  19.292  28.670   9.780
  355W        W65340  34.054  29.011  12.985
  356W        W65341  22.629  19.215   4.128
  357W        W65342  10.991  20.989  10.047
  358W        W65343  26.900   3.695  12.851
  359W        W65344  32.304  42.990   2.899
  360W        W65345  12.036  20.769  12.257
  361W        W65346  41.978   0.883  11.330
  362W        W65347  31.309  29.553  12.890
  363W        W65348   2.743  11.746   2.359
  364W        W65349   0.379  11.087   2.802
  365W        W65350  12.144   5.271  13.378
  366W        W65351  13.327  26.455  11.408
  367W        W65352  19.243  36.322  12.587
  368W        W65353   1.518  19.832  12.035
  369W        W65354  21.059  23.473  14.003
  370W        W65355  19.587  20.728  12.450
  371W        W65356  36.140   6.990   4.050
  372W        W65357  16.114  17.115  13.100
  373W        W65358  14.585  12.774   2.389
  374W        W65359  14.132  29.281  10.622
  375W        W65360  19.660  34.688   0.996
  376W        W65361  14.698  27.033   1.251
  377W        W65362  32.681  13.572  13.415
  378W        W65363  36.035  12.677  11.387
  379W        W65364   7.627  42.489  14.007
  380W        W65365  16.110  20.751   1.223
  381W        W65366   2.920   9.418   1.751
  382W        W65367  43.919  39.106  14.263
  383W        W65368  19.055  21.013  11.613
  384W        W65369  12.568  40.375   2.218
  385W        W65370   1.010  10.149  11.570
  386W        W65371  39.047  36.535   2.760
  387W        W65372  14.066  26.673   5.345
  388W        W65373  20.233  43.484  12.489
  389W        W65374  18.052  23.424   1.115
  390W        W65375  29.212  33.852  12.539
  391W        W65376  16.115  24.214   2.269
  392W        W65377   4.370  26.190   4.407
  393W        W65378   2.342  21.616  14.460
  394W        W65379  37.928  12.539   4.606
  395W        W65380  12.204  39.794  11.595
  396W        W65381  16.740  30.299  11.032
  397W        W65382  30.653  40.508   0.884
  398W        W65383   9.326  44.689  12.879
  399W        W65384   6.996  21.129   2.121
  400W        W65385  35.657  29.058   1.847
  401W        W65386  13.732  35.882  14.870
  402W        W65387   9.372  33.989   2.612
  403W        W65388  32.025  14.106  10.768
  404W        W65389   2.687  23.502  11.205
  405W        W65390  12.631   5.406  14.824
  406W        W65391  25.595  33.410  10.790
  407W        W65392  13.215  41.751  13.445
  408W        W65393  30.647   7.161  11.908
  409W        W65394  34.504  20.985   2.258
  410W        W65395   4.404   8.134   3.923
  411W        W65396  11.297  37.028  14.736
  412W        W65397   9.827   0.781   2.171
  413W        W65398  14.290  37.767  11.527
  414W        W65399  10.476  26.856   3.077
  415W        W65400  17.718  35.128  11.873
  416W        W65401  19.231  13.558  10.709
  417W        W65402  40.758  10.097  14.486
  418W        W65403  36.940  36.345   4.492
  419W        W65404  22.332  41.786   4.106
  420W        W65405  17.973   1.773  11.112
  421W        W65406  35.123  39.081   2.309
  422W        W65407  27.755   3.408  14.430
  423W        W65408   8.544  27.717  11.939
  424W        W65409   0.697  23.340   2.294
  425W        W65410   3.398  38.086  10.739
  426W        W65411  43.978   3.322   1.436
  427W        W65412  22.260  28.514   3.326
  428W        W65413   1.037  27.723   0.786
  429W        W65414  38.655  29.362   3.206
  430W        W65415  44.158  27.029   3.516
  431W        W65416  32.197   5.288   2.234
  432W        W65417  33.484  41.383  14.872
  433W        W65418  33.057   3.337   4.346
  434W        W65419  40.463  18.536   0.267
  435W        W65420   6.879  44.307  12.118
  436W        W65421  26.578  33.129   1.209
  437W        W65422  24.031  35.564   2.116
  438W        W65423  23.916  14.642   0.240
  439W        W65424  38.902   1.663   4.669
  440W        W65425  11.207  35.983   2.611
  441W        W65426  38.361  27.224   1.632
  442W        W65427   5.575  35.823  11.043
  443W        W65428  10.265   3.926   0.033
  444W        W65429   1.438  37.076   1.732
  445W        W65430   7.249  32.473   1.311
  446W        W65431  40.580   0.510  14.730
  447W        W65432  37.933  29.061  13.238
  448W        W65433  29.037   1.828  13.561
  449W        W65434  13.224  13.704   4.170
  450W        W65435  21.569  15.142   2.237
  451W        W65436  15.652  26.602   1.387
  452W        W65437  33.913   8.199  12.138
  453W        W65438  13.924  40.001   1.126
  454W        W65439   1.208  39.484  14.376
  455W        W65440  28.153  34.798   0.871
  456W        W65441  39.992   9.353  13.361
  457W        W65442  34.054  11.569  14.855
  458W        W65443  35.574  27.642  11.602
  459W        W65444  21.457  18.836  12.700
  460W        W65445  43.715  22.604  12.746
  461W        W65446  22.827  40.081   0.963
  462W        W65447  41.865   7.821   5.207
  463W        W65448  19.247  43.486   3.092
  464W        W65449   2.919  40.402  14.984
  465W        W65450  42.417  15.968   3.601
  466W        W65451  42.521  44.954   0.516
  467W        W65452  25.182   0.977   1.516
  468W        W65453  29.295  33.462  14.626
  469W        W65454  35.147  18.742  14.874
  470W        W65455  37.588   3.271  14.374
  471W        W65456  23.590  16.239   2.283
  472W        W65457  37.012  24.669  13.778
  473W        W65458  42.154  26.064  13.005
  474W        W65459  13.796  35.696   1.104
  475W        W65460  14.777  31.991   4.208
  476W        W65461  12.100  37.416   4.797
  477W        W65462  40.804   4.341   1.576
  478W        W65463  17.158  31.119  13.359
  479W        W65464  13.430   6.413  10.609
  480W        W65465   1.712  29.863  13.851
  481W        W65466  31.284  30.384   0.400
  482W        W65467  16.018  41.369  12.971
  483W        W65468   1.280  29.074   2.888
  484W        W65469  43.356  28.921  11.502
  485W        W65470  23.160  31.368  14.988
  486W        W65471  42.260  15.593   3.270
  487W        W65472  37.971  15.082   2.721
  488W        W65473   8.817  11.922   4.983
  489W        W65474  30.930  20.910   3.918
  490W        W65475  22.200   6.394   2.884
  491W        W65476  32.105  35.249   1.512
  492W        W65477   2.102   3.253   3.773
  493W        W65478  30.260   7.909   2.408
  494W        W65479  22.973  31.683  12.399
  495W        W65480  23.594  44.574  12.059
  496W        W65481   5.222  36.583  14.603
  497W        W65482  11.091  44.733  13.381
  498W        W65483   1.406   2.972   1.908
  499W        W65484   8.943  24.795  13.087
  500W        W65485  13.155   6.253  11.013
  501W        W65486   1.465  11.198   2.185
  502W        W65487   5.674  16.264   4.128
  503W        W65488  38.294  27.939   1.337
  504W        W65489   5.028  40.978  14.382
  505W        W65490  12.248   8.228  10.650
  506W        W65491  36.877  12.166   4.165
  507W        W65492  21.346  17.034   0.875
  508W        W65493  44.221  19.283   1.445
  509W        W65494   4.426  42.017  14.991
  510W        W65495  25.071   6.340  13.392
  511W        W65496  26.180  22.815  12.103
  512W        W65497  37.129   1.429  11.934
  513W        W65498  10.226  37.619   2.227
  514W        W65499  31.156   8.305   0.472
  515W        W65500  14.590   8.765   3.246
  516W        W65501  32.704  10.636   3.740
  517W        W65502  23.214  11.729   0.723
  518W        W65503  15.336  42.290  11.134
  519W        W65504  37.699   4.321  10.584
  520W        W65505  10.756  30.466   4.391
  521W        W65506  40.935  24.061   9.940
  522W        W65507  16.388  22.220  12.039
  523W        W65508   5.905  44.218  12.506
  524W        W65509  28.307  27.569  11.607
  525W        W65510  17.781   5.964  12.021
  526W        W65511  38.819  43.532  13.334
  527W        W65512   2.787  19.754   2.379
  528W        W65513  38.907  25.801   0.207
  529W        W65514  13.778  37.245   0.450
  530W        W65515  35.521  11.109  12.391
  531W        W65516   9.703  11.656   1.706
  532W        W65517  29.350  19.133   1.611
  533W        W65518  38.934  21.232  12.917
  534W        W65519  39.837  17.663   0.895
  535W        W65520  43.421   9.363   3.813
  536W        W65521  23.250  30.315   3.400
  537W        W65522  34.783  15.128   3.290
  538W        W65523   0.096  19.694  13.223
  539W        W65524  22.945   4.029   1.201
  540W        W65525  43.172   6.933  12.776
  541W        W65526  11.629  32.706  14.912
  542W        W65527  25.933  27.446  11.838
  543W        W65528  40.315  14.081  13.004
  544W        W65529  33.510  11.801  13.398
  545W        W65530  42.711  13.203  11.082
  546W        W65531  31.474  20.290  11.510
  547W        W65532  21.920  10.774   1.665
  548W        W65533  38.326   1.374   0.209
  549W        W65534  29.835  32.745  11.129
  550W        W65535   6.245  10.260   2.467
  551W        W65536  11.148   4.695   0.165
  552W        W65537  43.761  39.779   0.986
  553W        W65538  33.080   1.687  13.078
  554W        W65539  27.714  25.813  14.787
  555W        W65540  12.749   3.253   5.045
  556W        W65541  36.454  42.370  11.872
  557W        W65542  21.604  11.555   2.230
  558W        W65543  43.037  32.908  11.752
  559W        W65544  23.763  44.977  11.618
  560W        W65545  41.526  19.049  11.317
  561W        W65546   4.891  41.840   1.743
  562W        W65547  38.144  12.112   0.299
  563W        W65548  24.227  16.600   1.182
  564W        W65549  16.936  43.738  11.302
  565W        W65550   6.174  21.667   4.231
  566W        W65551  19.157  24.183   3.930
  567W        W65552  41.970   9.826  12.134
  568W        W65553   7.243   4.794   4.087
  569W        W65554  28.513  30.537   1.444
  570W        W65555  32.382  10.301   3.080
  571W        W65556  12.095   5.892  12.060
  572W        W65557  40.882  11.599   0.320
  573W        W65558   2.280  20.328   1.893
  574W        W65559   7.407  25.153   3.121
  575W        W65560  42.349  21.894  14.849
  576W        W65561  11.616  22.298   2.307
  577W        W65562  17.772  40.847  13.098
  578W        W65563  18.841  34.881   1.969
  579W        W65564  19.371  15.115   1.847
  580W        W65565  20.302  27.548   4.790
  581W        W65566  38.114  42.682   1.220
  582W        W65567  27.082  15.187   2.862
  583W        W65568  15.133  20.632   3.050
  584W        W65569  31.872  19.052   2.813
  585W        W65570   9.558  29.042   1.734
  586W        W65571  11.821  35.929  14.314
  587W        W65572  35.988  37.761   4.418
  588W        W65573  30.624  13.163   4.752
  589W        W65574   2.774  20.543   1.810
  590W        W65575  17.615  17.619  11.516
  591W        W65576   0.844   5.304   2.801
  592W        W65577  22.139  37.354   3.665
  593W        W65578  13.136  37.313   3.596
  594W        W65579   6.608  24.831   0.435
  595W        W65580   8.911  32.297  10.989
  596W        W65581  30.323  22.225  13.529
  597W        W65582  13.318  25.670  10.998
  598W        W65583  33.076  39.597  13.856
  599W        W65584  21.067  42.760  14.026
  600W        W65585  26.086   8.871  12.442
  601W        W65586   3.640  22.540  10.764
  602W        W65587   2.925  37.414  11.603
  603W        W65588  24.541  21.841  12.458
  604W        W65589  10.820  33.179  11.588
  605W        W65590  24.694  28.464   1.821
  606W        W65591  27.974  34.382  14.914
  607W        W65592  25.657  18.083  12.095
  608W        W65593   7.847  31.656   2.740
  609W        W65594   8.405  14.163  11.931
  610W        W65595  19.169  28.900  13.975
  611W        W65596  32.850  25.493  14.025
  612W        W65597   6.345  21.216   3.500
  613W        W65598  37.344  41.703   1.427
  614W        W65599   3.975  30.741  12.457
  615W        W65600  43.333  19.220   3.034
  616W        W65601  26.077  28.267  10.401
  617W        W65602  10.830  13.790  11.512
  618W        W65603  25.177  36.224   0.541
  619W        W65604  17.186  17.651   1.084
  620W        W65605   6.775  18.260   4.079
  621W        W65606  12.846  12.672  11.787
  622W        W65607  27.007  40.874   2.777
  623W        W65608  17.584  29.955  13.041
  624W        W65609  14.699  18.560  11.366
  625W        W65610  13.764  25.302   2.700
  626W        W65611  26.112  26.965  10.689
  627W        W65612  34.887  20.625   4.863
  628W        W65613   0.219   5.439  10.742
  629W        W65614  23.663  33.335  13.906
  630W        W65615  11.095   0.740  11.595
  631W        W65616  33.056  44.702   2.957
  632W        W65617  12.599  39.353   2.797
  633W        W65618  14.242  33.923   3.550
  634W        W65619  22.942  18.238   1.115
  635W        W65620  34.042  30.208   2.638
  636W        W65621  12.686  11.135   2.772
  637W        W65622  24.621  32.050   4.678
  638W        W65623  21.682   0.706  12.364
  639W        W65624  12.485  16.541   0.456
  640W        W65625  37.042  26.795   0.485
  641W        W65626  14.505  23.057   4.210
  642W        W65627  38.003  19.508  13.058
  643W        W65628   8.756   3.922   1.175
  644W        W65629  25.713  22.145  11.498
  645W        W65630  30.168  42.933  13.507
  646W        W65631  40.522  43.106  10.046
  647W        W65632   9.287   3.515  11.934
  648W        W65633  13.585   6.899   1.343
  649W        W65634  21.603   7.309  12.970
  650W        W65635  23.570  26.212  13.486
  651W        W65636  44.267   3.211  14.273
  652W        W65637  41.089   6.408  11.654
  653W        W65638  30.035  38.622   2.840
  654W        W65639  10.805  31.833  13.578
  655W        W65640  44.197   3.693  11.995
  656W        W65641  42.317   6.697  13.528
  657W        W65642  11.646  14.801  14.018
  658W        W65643  44.558  35.076  10.597
  659W        W65644  32.915  38.376  11.616
  660W        W65645  35.430  33.691  10.882
  661W        W65646  44.757  23.489  13.041
  662W        W65647  44.752  43.578   4.973
  663W        W65648  17.119  18.889   3.361
  664W        W65649   2.171  12.317  12.863
  665W        W65650  44.898  13.203  14.879
  666W        W65651   1.654   1.607   1.835
  667W        W65652   0.829  18.856   3.737
  668W        W65653  43.732  37.820   1.603
  669W        W65654  40.451  36.317   2.232
  670W        W65655   9.821  32.576  10.865
  671W        W65656  26.444   2.771  12.611
  672W        W65657  12.413  30.967  10.138
  673W        W65658  10.589  31.139  11.512
  674W        W65659  22.947   5.907  13.874
  675W        W65660  16.397  42.017   1.426
  676W        W65661   6.361   5.504  12.550
  677W        W65662  29.442  25.604  10.719
  678W        W65663  11.308  24.409  12.210
  679W        W65664  37.569  28.185   0.121
  680W        W65665  13.700  29.840  11.159
  681W        W65666  14.171  21.253  10.904
  682W        W65667  25.204  18.520  14.769
  683W        W65668   0.955   6.199   1.016
  684W        W65669  20.807   5.676   2.130
  685W        W65670  33.793  44.899   4.114
  686W        W65671  42.421   2.718  14.126
  687W        W65672   4.268  10.832   4.630
  688W        W65673  20.034   2.347   1.238
  689W        W65674  35.542  17.799   4.640
  690W        W65675  22.102   2.521   4.397
  691W        W65676  14.895  38.931  12.158
  692W        W65677  13.801  25.994  14.954
  693W        W65678  31.743   5.947   2.856
  694W        W65679  22.494  26.650  13.150
  695W        W65680  32.834  34.492  11.616
  696W        W65681  43.287  44.937  11.838
  697W        W65682  36.876  41.289  12.623
  698W        W65683  23.782  32.039  14.013
  699W        W65684   1.454  31.100  12.616
  700W        W65685  11.125  42.529   4.009
  701W        W65686  24.574  38.829  11.117
  702W        W65687   8.185  36.964  12.294
  703W        W65688   4.024  43.193  14.539
  704W        W65689  11.559  23.725  13.050
  705W        W65690  10.319  13.758  11.361
  706W        W65691   8.174  17.478  11.239
  707W        W65692  40.554  29.088   4.960
  708W        W65693  25.290   8.249  13.394
  709W        W65694   0.796  44.640  13.868
  710W        W65695  29.846  26.191   2.900
  711W        W65696  32.145   0.860   3.006
  712W        W65697   8.585   7.356   1.375
  713W        W65698  33.338  13.167   1.718
  714W        W65699  18.119  11.256   4.889
  715W        W65700  27.041  38.608   0.800
  716W        W65701  15.368  32.652  13.098
  717W        W65702  37.511  10.162  10.514
  718W        W65703   6.871   5.726   3.139
  719W        W65704  35.936  29.410   3.300
  720W        W65705  26.480   8.220   4.563
  721W        W65706  24.266   2.835   4.522
  722W        W65707  25.706  23.667   1.047
  723W        W65708  12.979  25.526  14.931
  724W        W65709   1.349   3.706  13.773
  725W        W65710  10.140  38.425   3.581
  726W        W65711  20.604   7.758   3.786
  727W        W65712  28.065  40.598  14.529
  728W        W65713  23.632  16.340   4.507
  729W        W65714  43.889  27.729  13.456
  730W        W65715  33.857  10.337  12.167
  731W        W65716  34.848  37.950  13.777
  732W        W65717  12.413  25.980  11.565
  733W        W65718  42.832  24.057  12.091
  734W        W65719   4.227  25.292   3.822
  735W        W65720  44.790   2.437   1.884
  736W        W65721  15.686  14.405   0.463
  737W        W65722  34.455  29.726   3.293
  738W        W65723  39.771  43.604   1.230
  739W        W65724  40.913  27.821  10.346
  740W        W65725  29.601  19.957   1.335
  741W        W65726  19.480  21.999  10.975
  742W        W65727  36.528  30.634   4.466
  743W        W65728  13.230  17.523   0.485
  744W        W65729   4.233  12.841  13.412
  745W        W65730  24.228  42.799  13.808
  746W        W65731  28.178  12.605  12.698
  747W        W65732  36.185   9.408  11.911
  748W        W65733  42.386  19.575   5.093
  749W        W65734  30.589  35.425   1.592
  750W        W65735  24.189  28.089   1.448
  751W        W65736  26.635   3.939   2.321
  752W        W65737   2.524  30.125   2.790
  753W        W65738  40.014   6.328   0.512
  754W        W65739  35.147  12.335   4.300
  755W        W65740   5.500  34.131   3.699
  756W        W65741  38.307   2.871  13.526
  757W        W65742  23.179  23.991  13.822
  758W        W65743  23.669  39.964  14.303
  759W        W65744   1.383  19.335  12.086
  760W        W65745  27.540  28.151   4.609
  761W        W65746  32.223  39.467   1.729
  762W        W65747  16.334  26.821  14.376
  763W        W65748  37.097  10.406  13.644
  764W        W65749  13.690  10.119  12.045
  765W        W65750  36.855  44.703  11.830
  766W        W65751   2.853  16.042  11.894
  767W        W65752  43.951  37.594   3.768
  768W        W65753  44.004  30.933  10.740
  769W        W65754  36.523  35.734  12.451
  770W        W65755  13.511   6.632   4.168
  771W        W65756   7.129   5.874  14.519
  772W        W65757  20.582  22.013   1.367
  773W        W65758  40.032  40.156   3.818
  774W        W65759  13.737   5.201  12.466
  775W        W65760  19.089  29.391  14.766
  776W        W65761  37.911  25.704   0.810
  777W        W65762  15.928  23.196  13.910
  778W        W65763  43.246  11.296  11.224
  779W        W65764  40.311  30.440  12.585
  780W        W65765  34.015  19.851  12.580
  781W        W65766  11.717  10.086   3.117
  782W        W65767   7.903   8.740   3.700
  783W        W65768  31.692  25.100  10.513
  784W        W65769  42.776   3.703   1.877
  785W        W65770  30.475  28.215  14.451
  786W        W65771  24.224  19.473  11.993
  787W        W65772  13.714  37.073  10.581
  788W        W65773  20.812  31.346  10.670
  789W        W65774  19.828  42.550   4.117
  790W        W65775   4.805  35.585   1.829
  791W        W65776  38.316   4.195  14.194
  792W        W65777  28.007  30.949   3.526
  793W        W65778  43.044  11.240   4.583
  794W        W65779  12.757  24.143  12.950
  795W        W65780  25.143   5.365  11.537
  796W        W65781  40.895   2.150   0.724
  797W        W65782  44.852  44.890  14.955
  798W        W65783  21.218  29.210  13.772
  799W        W65784   7.647  22.650   2.703
  800W        W65785  35.112  25.606   0.888
  801W        W65786   3.330   2.810   2.657
  802W        W65787  18.124  40.901   1.950
  803W        W65788  22.286   8.097   2.914
  804W        W65789   4.986  12.409   2.215
  805W        W65790  24.651  34.285  10.083
  806W        W65791  33.324   7.381   1.854
  807W        W65792  17.375  14.204   4.162
  808W        W65793   7.516   2.254  11.765
  809W        W65794  11.782   3.695   2.771
  810W        W65795  41.482  16.891   3.523
  811W        W65796  28.663  13.739   1.394
  812W        W65797   4.677  33.293  14.405
  813W        W65798  34.068  12.056  13.961
  814W        W65799  19.719  33.887   1.426
  815W        W65800   3.475   4.607   0.778
  816W        W65801  26.174  20.319   3.761
  817W        W65802  30.208  38.442   0.378
  818W        W65803   9.200   2.638  13.983
  819W        W65804  32.396  29.785   2.403
  820W        W65805  16.514   1.431   0.428
  821W        W65806  28.452   8.939   0.615
  822W        W65807  18.265  18.007  13.116
  823W        W65808  36.886  10.879  13.727
  824W        W65809  25.944  43.353   2.899
  825W        W65810  38.579   2.472   1.161
  826W        W65811  33.052  29.671  12.489
  827W        W65812  37.114  35.923   2.474
  828W        W65813  32.426  36.934   0.480
  829W        W65814  18.941  35.445  11.671
  830W        W65815  17.245   5.312   1.452
  831W        W65816  17.744  29.685  14.849
  832W        W65817   7.762  31.537   1.151
  833W        W65818  20.221   7.879  10.666
  834W        W65819  42.378  37.565  11.185
  835W        W65820  22.628  21.040  12.983
  836W        W65821  17.855  11.720   4.711
  837W        W65822  17.704   6.902  14.811
  838W        W65823   3.051  22.486  14.286
  839W        W65824   6.333  23.725   2.739
  840W        W65825  27.068  12.634   4.040
  841W        W65826   4.920  26.070  13.501
  842W        W65827  19.690  34.873  13.318
  843W        W65828   5.928  12.696  10.861
  844W        W65829  36.512   6.041  14.611
  845W        W65830  36.627   0.459   4.216
  846W        W65831  27.138  44.862   5.465
  847W        W65832  11.801  23.711  13.515
  848W        W65833   1.183  36.622   0.160
  849W        W65834  26.966   1.796  12.614
  850W        W65835  18.712  37.103   3.362
  851W        W65836   3.007  42.272  12.523
  852W        W65837   0.345  24.706   3.275
  853W        W65838  33.895  40.030   4.074
  854W        W65839   0.804  26.219   2.344
  855W        W65840  24.011   2.491  10.218
  856W        W65841   8.140   4.384  13.455
  857W        W65842  35.417  13.419   4.967
  858W        W65843  15.195  16.823   2.735
  859W        W65844   9.375  27.550   1.782
  860W        W65845  39.938   0.651   4.334
  861W        W65846  27.924  10.844  12.566
  862W        W65847  37.787   6.737   3.569
  863W        W65848  18.227  23.713  11.671
  864W        W65849   5.601   3.647   4.118
  865W        W65850  35.807  18.339  13.977
  866W        W65851  18.657  26.579  13.438
  867W        W65852  14.914  44.302   1.857
  868W        W65853  41.696  44.562  10.478
  869W        W65854  16.815  12.079  11.634
  870W        W65855  39.086  30.588  10.296
  871W        W65856  11.597  22.531   1.850
  872W        W65857  27.909  44.011   2.151
  873W        W65858  31.835   1.926   0.899
  874W        W65859  33.404  13.631   1.469
  875W        W65860  37.165   4.918  12.475
  876W        W65861  37.421   0.099  12.517
  877W        W65862  19.097  30.525  12.870
  878W        W65863  14.138  35.138  11.150
  879W        W65864  20.218   4.876   2.417
  880W        W65865   7.198   9.300  14.927
  881W        W65866  12.671  40.042   4.023
  882W        W65867  35.909  24.524   0.221
  883W        W65868   0.043  14.482   0.360
  884W        W65869  24.174  27.698  10.508
  885W        W65870  15.758  38.231   5.009
  886W        W65871  37.043  35.584   3.816
  887W        W65872  35.460  11.569   2.640
  888W        W65873  31.200  37.924   1.287
  889W        W65874  40.605  40.477  13.868
  890W        W65875  18.547   8.236   1.728
  891W        W65876  10.860  32.140   3.047
  892W        W65877  39.491  33.560  14.123
  893W        W65878   7.299   1.890  11.471
  894W        W65879  34.415   9.942  12.558
  895W        W65880  15.812   6.755   2.089
  896W        W65881  10.208  40.037   2.371
  897W        W65882  12.476   5.010  10.188
  898W        W65883  12.098  30.535   3.696
  899W        W65884  40.199  18.769  11.085
  900W        W65885  39.802  40.811  14.398
  901W        W65886  13.917   5.196  10.699
  902W        W65887  21.916  24.203   1.672
  903W        W65888  30.716  10.338  13.633
  904W        W65889  33.938  31.468  12.931
  905W        W65890  39.938   2.308   0.828
  906W        W65891  28.157  30.373   4.274
  907W        W65892  30.517  23.565   4.629
  908W        W65893  17.676  31.786  12.755
  909W        W65894  42.687  14.852  10.567
  910W        W65895  39.750   8.233  11.077
  911W        W65896  11.347   6.179   4.713
  912W        W65897  34.133  33.583  13.393
  913W        W65898   6.485   4.190  11.196
  914W        W65899  29.737  26.502  11.595
  915W        W65900   6.287  27.060   3.294
  916W        W65901   5.715  43.167   4.134
  917W        W65902  18.128  24.088   3.044
  918W        W65903   7.828  36.590   1.893
  919W        W65904  32.757  37.425   1.311
  920W        W65905  19.228  27.668   0.754
  921W        W65906  36.433   0.196  13.994
  922W        W65907  29.168  21.309   1.888
  923W        W65908  14.409  40.906   0.733
  924W        W65909  21.575  13.913  14.608
  925W        W65910  23.360  21.120   1.758
  926W        W65911  36.891  13.722  11.709
  927W        W65912   5.250  32.453   1.412
  928W        W65913  24.524  11.353   2.730
  929W        W65914  12.847  11.124   0.332
  930W        W65915  44.813  42.729   1.004
  931W        W65916   1.756   8.507   2.405
  932W        W65917  35.197   4.917   2.101
  933W        W65918  32.406   3.385  11.756
  934W        W65919  24.873  39.862   0.941
  935W        W65920  30.510  24.403  12.011
  936W        W65921   1.438  41.946   1.736
  937W        W65922  16.581  17.050   3.070
  938W        W65923  37.144   9.042  12.172
  939W        W65924   2.317  34.424  14.763
  940W        W65925  22.260  21.757  11.761
  941W        W65926   1.927  28.067   1.629
  942W        W65927  19.995  11.374   4.675
  943W        W65928  27.127   9.578   2.193
  944W        W65929  44.238  42.476  12.460
  945W        W65930  24.600  39.964  11.384
  946W        W65931  27.946  27.584   3.338
  947W        W65932  29.038  41.577   3.705
  948W        W65933  34.580  32.651   4.907
  949W        W65934   6.330  12.417   3.676
  950W        W65935  39.938   8.118  11.532
  951W        W65936  14.244  39.390  13.708
  952W        W65937   1.054  39.858   2.839
  953W        W65938  20.752   3.871   1.628
  954W        W65939  22.023   3.660  10.948
  955W        W65940  40.473  21.615   3.661
  956W        W65941  15.582   7.428  14.275
  957W        W65942  40.711  20.486   2.005
  958W        W65943  25.079  24.181   3.914
  959W        W65944   3.472  24.788   3.956
  960W        W65945   3.899  33.966  12.852
  961W        W65946  43.393   8.348  11.197
  962W        W65947  15.599  43.971  14.250
  963W        W65948  25.706  18.815  10.525
  964W        W65949  40.789   1.250   2.429
  965W        W65950   3.260   1.017  14.430
  966W        W65951  11.205  42.225   4.421
  967W        W65952  24.214  16.594  11.155
  968W        W65953  41.516   7.580   4.056
  969W        W65954  13.707  39.340  12.436
  970W        W65955   3.362  27.614   4.355
  971W        W65956  44.995  21.179   1.851
  972W        W65957  29.196  24.966  13.452
  973W        W65958  39.375  40.753   3.941
  974W        W65959  17.714  11.964   3.788
  975W        W65960  35.093   3.359  12.849
  976W        W65961  30.029  23.460   4.932
  977W        W65962  33.840  36.979  12.903
  978W        W65963  20.357  24.037  12.083
  979W        W65964  11.376  12.425  12.498
  980W        W65965  11.360  13.818  13.403
  981W        W65966  25.606  38.215  14.946
  982W        W65967  30.457  13.109   2.859
  983W        W65968  35.356  37.549  13.277
  984W        W65969  26.596  30.891  10.213
  985W        W65970  13.544  41.451   1.228
  986W        W65971  27.122  36.431  14.880
  987W        W65972  15.739  10.801  14.316
  988W        W65973  32.368  42.585   0.326
  989W        W65974   2.474  15.715  11.703
  990W        W65975   7.804   5.888  14.667
  991W        W65976  43.916  18.654   4.777
  992W        W65977   5.839  16.595  13.871
  993W        W65978  30.795  19.203   4.480
  994W        W65979  21.110  23.640   5.152
  995W        W65980  20.259  44.745   0.441
  996W        W65981  18.598  33.608  13.451
  997W        W65982  32.403  40.218   3.614
  998W        W65983  21.689  31.665  10.945
  999W        W65984  28.000   0.518   5.380
 1000W        W65985   4.847  25.452  14.020
 1001W        W65986  10.107  18.167  11.337
 1002W        W65987  12.492  26.503  14.739
 1003W        W65988  18.628  44.038   4.582
 1004W        W65989  31.837  36.881  12.754
 1005W        W65990  28.611  19.055  12.999
 1006W        W65991  31.185   2.913  13.482
 1007W        W65992  24.698  18.451  11.971
 1008W        W65993  40.911   2.391  13.552
 1009W        W65994   3.271  25.918   0.343
 1010W        W65995  41.325  34.458   1.559
 1011W        W65996  36.933   2.792   4.595
 1012W        W65997  39.189  41.379  13.270
 1013W        W65998   1.746  33.696  13.340
 1014W        W65999  27.942  13.125   1.660
 1015W        W66000  40.209  41.573   3.231
 1016W        W66001   2.181  17.435  10.546
 1017W        W66002  31.160  30.582  11.638
 1018W        W66003   9.578  26.133   0.857
 1019W        W66004  37.666  28.771  11.617
 1020W        W66005  11.357  38.917  10.604
 1021W        W66006   3.127   5.757  11.010
 1022W        W66007   9.242  39.378   0.947
 1023W        W66008   1.713  29.003   1.895
 1024W        W66009  24.055   0.405   0.406
 1025W        W66010   4.333  44.814   0.729
 1026W        W66011  20.623  10.852   4.669
 1027W        W66012  18.738  17.117  12.223
 1028W        W66013  11.664  44.769   1.710
 1029W        W66014  16.945  11.840  13.370
 1030W        W66015  16.847  29.007  13.476
 1031W        W66016  26.410   3.402  12.077
 1032W        W66017  33.537  41.318   4.566
 1033W        W66018   0.555  23.054  12.801
 1034W        W66019   9.634  16.306   2.918
 1035W        W66020  10.289  18.318   3.253
 1036W        W66021   6.937  38.547  14.299
 1037W        W66022  16.835  42.032  11.198
 1038W        W66023   2.969  12.679   2.713
 1039W        W66024  37.476  10.709   3.793
 1040W        W66025   8.863  11.176   4.312
 1041W        W66026  29.496  22.784   2.691
 1042W        W66027  38.847  29.447  13.992
 1043W        W66028  24.297  16.529   2.216
 1044W        W66029  38.442  15.244   2.835
 1045W        W66030  31.393  12.266  11.020
 1046W        W66031  18.773  31.642   1.477
 1047W        W66032  10.730  25.322   0.763
 1048W        W66033   2.209   1.632   0.596
 1049W        W66034  20.246  18.640   3.714
 1050W        W66035  27.613  32.937   2.492
 1051W        W66036  40.805  14.323   4.345
 1052W        W66037   3.501   3.521  10.504
 1053W        W66038  41.867   5.018   5.012
 1054W        W66039  26.886   1.291  11.945
 1055W        W66040  40.848  42.306   0.639
 1056W        W66041  35.492  36.949  14.069
 1057W        W66042  13.749  27.475   2.364
 1058W        W66043  24.936  22.879   2.345
 1059W        W66044  23.671  42.805  10.596
 1060W        W66045  27.995   7.611   1.862
 1061W        W66046  26.546   0.517  12.561
 1062W        W66047  31.855  25.358   4.038
 1063W        W66048  43.102  14.797  14.742
 1064W        W66049   4.959   9.702   2.166
 1065W        W66050   4.071  26.279  11.106
 1066W        W66051  33.098  18.661  13.902
 1067W        W66052   9.761  29.103  11.570
 1068W        W66053  10.691  20.601  11.471
 1069W        W66054  34.104  17.178   4.163
 1070W        W66055  15.542   7.642  11.542
 1071W        W66056   6.125  25.157   3.570
 1072W        W66057  17.646  38.174  11.579
 1073W        W66058  25.096  34.179   1.975
 1074W        W66059  22.721   2.340   1.685
 1075W        W66060   8.365  15.239  13.336
 1076W        W66061  26.505   6.241   1.834
 1077W        W66062  33.551  27.422  11.105
 1078W        W66063  24.956   6.122   0.262
 1079W        W66064  31.392  40.402   0.342
 1080W        W66065  41.836  19.770  12.998
 1081W        W66066   9.891  30.923   0.900
 1082W        W66067   9.883  40.821  11.191
 1083W        W66068  42.299  30.019   5.421
 1084W        W66069  24.058   8.417  13.145
 1085W        W66070  37.347  18.552   2.388
 1086W        W66071  44.880   9.998   3.802
 1087W        W66072  35.141  40.974   1.614
 1088W        W66073  13.293   3.826   1.213
 1089W        W66074  24.252   9.519   4.900
 1090W        W66075   9.049  10.419  13.628
 1091W        W66076  34.518  26.889   3.732
 1092W        W66077   6.913   6.724   1.003
 1093W        W66078  15.820  23.095   0.187
 1094W        W66079  22.476  15.280  13.369
 1095W        W66080   7.766  42.981  10.618
 1096W        W66081   3.147  39.322  13.994
 1097W        W66082  44.782  37.082  11.840
 1098W        W66083   3.734   9.730  12.625
 1099W        W66084   6.867   6.646   4.526
 1100W        W66085  33.728  24.196  12.354
 1101W        W66086  39.991  24.747  14.528
 1102W        W66087  26.903  31.927  14.865
 1103W        W66088  40.985  43.021   0.504
 1104W        W66089  17.271  42.968  11.965
 1105W        W66090  38.639  44.961   5.105
 1106W        W66091  26.683  19.507  11.127
 1107W        W66092  23.046  35.221  10.628
 1108W        W66093   7.073  35.320   0.207
 1109W        W66094   5.871  24.744  12.642
 1110W        W66095  23.510  40.462   4.640
 1111W        W66096  23.225   8.324   0.217
 1112W        W66097  20.298  32.081   5.085
 1113W        W66098  21.024  22.639   0.260
 1114W        W66099  15.064  29.968  11.593
 1115W        W66100  12.226  33.462   4.157
 1116W        W66101  41.161  26.290   5.064
 1117W        W66102  16.709  25.038  10.264
 1118W        W66103  16.379  43.330   2.314
 1119W        W66104  14.102  26.053   2.751
 1120W        W66105  31.017  37.964   2.119
 1121W        W66106   4.880  31.557  13.530
 1122W        W66107   0.717  20.292  12.159
 1123W        W66108  12.332  14.279   3.659
 1124W        W66109  11.266  13.097   3.346
 1125W        W66110   8.405   4.265   2.672
 1126W        W66111  25.027   7.371   0.905
 1127W        W66112  14.500  16.162  14.469
 1128W        W66113  26.009  27.438  10.863
 1129W        W66114   8.343   8.926   9.722
 1130W        W66115  30.192  13.620  11.959
 1131W        W66116  12.817   3.399   0.784
 1132W        W66117  17.291  18.788  11.059
 1133W        W66118  30.088  39.801   3.798
 1134W        W66119  20.499  19.184   1.067
 1135W        W66120  16.228  14.333  12.930
 1136W        W66121  23.152   9.381   4.702
 1137W        W66122  23.100  10.805   4.580
 1138W        W66123  30.719  44.212  10.554
 1139W        W66124  36.598  21.437  14.346
 1140W        W66125  25.114  34.638  11.479
 1141W        W66126  20.363  17.706   0.312
 1142W        W66127  40.463  30.503  10.742
 1143W        W66128  38.810  41.760  10.627
 1144W        W66129  36.301   9.868  14.503
 1145W        W66130  13.569  27.215   1.712
 1146W        W66131  30.244  31.500  13.767
 1147W        W66132   1.316  37.247   0.826
 1148W        W66133  32.859  21.012   2.743
 1149W        W66134   6.374  37.911  13.914
 1150W        W66135  24.972  28.628   3.585
 1151W        W66136   4.380  14.763   3.654
 1152W        W66137  32.910  43.492  11.834
 1153W        W66138  29.614  17.663   1.446
 1154W        W66139  22.536  44.770  12.547
 1155W        W66140  38.766  44.510   0.930
 1156W        W66141  40.036  38.532  11.214
 1157W        W66142   2.355   4.630   4.632
 1158W        W66143  13.228  27.836   5.087
 1159W        W66144  37.420   3.660  12.050
 1160W        W66145  33.628   7.215   4.507
 1161W        W66146  23.065   4.360  13.628
 1162W        W66147  13.279  11.448   0.468
 1163W        W66148   7.172  41.044  12.808
 1164W        W66149  35.024  33.055   1.954
 1165W        W66150   2.985  41.024  13.098
 1166W        W66151  10.457  19.620   1.411
 1167W        W66152  39.968  18.561  12.620
 1168W        W66153  18.774  22.143  14.034
 1169W        W66154  32.806  32.125   4.792
 1170W        W66155   7.489   6.479  10.832
 1171W        W66156   0.909  30.514   0.335
 1172W        W66157  38.849  13.426   0.002
 1173W        W66158  44.392  31.571   4.543
 1174W        W66159  22.344  10.670   0.266
 1175W        W66160  23.183   3.814  12.043
 1176W        W66161   4.974  16.518  13.911
 1177W        W66162  34.388   6.440   9.990
 1178W        W66163  24.700   2.271  12.499
 1179W        W66164  32.670  12.690  14.528
 1180W        W66165  21.795   5.689  14.980
 1181W        W66166   9.607   7.839   3.771
 1182W        W66167   6.245  41.963   2.240
 1183W        W66168  17.952  33.042   2.248
 1184W        W66169  20.755  34.385   2.389
 1185W        W66170  41.793  36.020  12.700
 1186W        W66171  44.743  33.359  14.280
 1187W        W66172  27.857  10.374  12.076
 1188W        W66173   7.731  28.881  11.490
 1189W        W66174   0.915   9.689  14.875
 1190W        W66175  27.690  28.612   4.408
 1191W        W66176  25.073   7.671  11.712
 1192W        W66177  21.390   7.393  10.726
 1193W        W66178  30.598  26.236  10.518
 1194W        W66179  31.404  16.354  11.443
 1195W        W66180  19.894  27.036   3.709
 1196W        W66181  43.893  31.454  13.845
 1197W        W66182  24.136  28.980   3.358
 1198W        W66183  27.562  28.512   2.436
 1199W        W66184  36.263  33.461   2.784
 1200W        W66185  41.317  22.439   4.531
 1201W        W66186  40.808  26.670  11.965
 1202W        W66187   6.685  32.054  13.502
 1203W        W66188  10.606  41.846   0.825
 1204W        W66189  26.588  34.465  12.142
 1205W        W66190  32.006  12.584   2.915
 1206W        W66191  33.079  27.363  12.933
 1207W        W66192  28.386  20.801  11.316
 1208W        W66193  23.951   3.313   0.912
 1209W        W66194  35.371  21.010   3.634
 1210W        W66195  10.723  32.639  12.450
 1211W        W66196  14.770   9.875  14.977
 1212W        W66197  19.784  23.591  10.925
 1213W        W66198  24.926  34.108  14.016
 1214W        W66199   9.262   7.326   2.301
 1215W        W66200  14.086  10.279   4.592
 1216W        W66201  37.537   2.872  14.001
 1217W        W66202  43.878  35.603   4.118
 1218W        W66203  28.025  15.520   2.041
 1219W        W66204  42.996  18.288  12.591
 1220W        W66205  38.280  12.222   4.354
 1221W        W66206   3.851  33.548  10.668
 1222W        W66207  17.764  24.914  14.035
 1223W        W66208  32.317  25.026   2.411
 1224W        W66209   8.352   5.947   3.179
 1225W        W66210   5.966  42.449   3.392
 1226W        W66211  37.945   4.684  11.430
 1227W        W66212  21.179  20.800  12.935
 1228W        W66213  39.269  19.616   3.296
 1229W        W66214  39.134  39.296  13.228
 1230W        W66215  41.842  34.406   3.531
 1231W        W66216  31.034   7.735   2.888
 1232W        W66217  38.308  18.624   2.719
 1233W        W66218  20.855  29.815  12.429
 1234W        W66219  41.883  15.587  10.168
 1235W        W66220   1.017  39.383  14.906
 1236W        W66221  29.485   6.241  12.408
 1237W        W66222   7.207  29.678   3.637
 1238W        W66223  28.971  30.206  13.887
 1239W        W66224   7.442  38.775   4.818
 1240W        W66225  23.582  19.368  13.891
 1241W        W66226  16.713  29.193   5.251
 1242W        W66227   7.199  32.268  12.565
 1243W        W66228  30.565  28.499  12.819
 1244W        W66229  36.533  19.727   3.423
 1245W        W66230  14.646  20.014   3.727
 1246W        W66231   7.859   2.654  14.458
 1247W        W66232  28.470  33.652  12.172
 1248W        W66233  26.954  27.426   5.450
 1249W        W66234  39.027  13.203  12.600
 1250W        W66235  25.218  35.351   3.363
 1251W        W66236  11.171  27.609   2.282
 1252W        W66237  33.875  26.443   0.290
 1253W        W66238   7.321   1.263   2.384
 1254W        W66239  37.787  32.303  14.504
 1255W        W66240  41.103  15.577   4.934
 1256W        W66241  15.132  15.320  13.263
 1257W        W66242  33.578  23.212  13.633
 1258W        W66243  42.001  37.985   0.247
 1259W        W66244  22.556   5.491  12.607
 1260W        W66245  23.004  36.333  11.954
 1261W        W66246  23.298  15.567   0.837
 1262W        W66247  38.648  19.826  11.139
 1263W        W66248   1.679   4.620   4.140
 1264W        W66249  14.877  34.571  13.444
 1265W        W66250  10.028   3.338  13.987
 1266W        W66251   1.957  30.983   4.776
 1267W        W66252  36.859   7.326   2.713
 1268W        W66253   8.099  13.644   3.580
 1269W        W66254  29.126   9.255   0.314
 1270W        W66255  25.576   6.017  10.241
 1271W        W66256  42.283  27.629  14.366
 1272W        W66257  23.017  22.938  12.149
 1273W        W66258  25.175  18.163   4.638
 1274W        W66259  42.675  42.730  13.401
 1275W        W66260  17.639   9.711   2.646
 1276W        W66261  34.122  30.985   4.612
 1277W        W66262  17.364   8.920   3.646
 1278W        W66263  35.023  44.404   0.287
 1279W        W66264  40.771  37.832   0.694
 1280W        W66265  34.109  37.484   3.285
 1281W        W66266  25.327  34.788   1.210
 1282W        W66267  18.428  28.133   1.136
 1283W        W66268  33.613   1.565  14.098
 1284W        W66269  18.404   3.103  10.467
 1285W        W66270  15.818   1.839   4.466
 1286W        W66271   9.480  33.444   0.961
 1287W        W66272  25.499  17.714  12.415
 1288W        W66273   3.152  20.112   2.513
 1289W        W66274   5.600  11.291   2.736
 1290W        W66275  11.927  15.132   2.731
 1291W        W66276  19.113  40.825  14.792
 1292W        W66277   7.138   0.094  11.188
 1293W        W66278  31.641   0.739   1.276
 1294W        W66279  32.634  19.220  10.697
 1295W        W66280   9.005   5.821  12.125
 1296W        W66281  25.745  20.890  11.168
 1297W        W66282  24.283  23.261  12.544
 1298W        W66283   1.847   0.018  12.424
 1299W        W66284  32.619  26.252   3.633
 1300W        W66285  15.511  38.627   2.722
 1301W        W66286  17.305  44.371   2.774
 1302W        W66287  38.908  18.639  10.522
 1303W        W66288  19.606   0.164   1.805
 1304W        W66289  24.727   3.366   2.115
 1305W        W66290  25.908  22.478  13.582
 1306W        W66291  23.567  31.860   1.977
 1307W        W66292  38.856  22.327  11.518
 1308W        W66293  43.951   1.516  14.260
 1309W        W66294  37.410  31.952  14.620
 1310W        W66295  27.192  40.045   0.461
 1311W        W66296  15.388  15.778  11.574
 1312W        W66297  10.728  29.043   4.972
 1313W        W66298   9.557  24.611   3.140
 1314W        W66299  43.483  10.477   0.688
 1315W        W66300  12.290  11.310  13.937
 1316W        W66301  44.924   2.177  10.604
 1317W        W66302  22.082  22.469  14.110
 1318W        W66303  19.555  42.316   1.412
 1319W        W66304  27.223  27.148   3.873
 1320W        W66305  40.546  31.541   3.188
 1321W        W66306   0.709  26.398  13.836
 1322W        W66307  42.552  13.630   0.618
 1323W        W66308  39.212  27.116   2.709
 1324W        W66309  27.983  13.803  11.975
 1325W        W66310   5.235  43.449   3.659
 1326W        W66311  32.609   9.844   3.146
 1327W        W66312  15.089   9.736  12.255
 1328W        W66313  35.576   0.755   0.286
 1329W        W66314  23.073  13.882   1.307
 1330W        W66315  44.407  20.555  11.584
 1331W        W66316  12.029  16.536  13.303
 1332W        W66317   3.685  40.935  14.855
 1333W        W66318   5.320  28.954   1.772
 1334W        W66319  10.290  18.192   3.740
 1335W        W66320  23.177  36.086  14.025
 1336W        W66321  15.175  21.039   4.493
 1337W        W66322  17.736  35.775   0.331
 1338W        W66323  39.127  24.462  13.552
 1339W        W66324  11.698  12.266   4.406
 1340W        W66325  37.437   4.316  13.737
 1341W        W66326  28.470  33.156  12.162
 1342W        W66327  43.955  20.650   3.397
 1343W        W66328  39.097  26.129  14.848
 1344W        W66329   0.298  18.243  13.568
 1345W        W66330  20.538  14.861  11.547
 1346W        W66331  43.688  10.419  13.861
 1347W        W66332  41.311   6.864  11.902
 1348W        W66333   0.469   0.465   2.759
 1349W        W66334  16.800  15.815   1.345
 1350W        W66335  21.275   8.264   2.657
 1351W        W66336  21.560  37.780  11.187
 1352W        W66337  11.170  21.056  11.181
 1353W        W66338  13.256  33.339  12.934
 1354W        W66339  31.933  25.847   4.181
 1355W        W66340  37.370   1.345   1.871
 1356W        W66341   1.008  10.444  11.164
 1357W        W66342   7.754   0.548   4.269
 1358W        W66343  28.783  43.230  10.931
 1359W        W66344  36.704  40.262  10.675
 1360W        W66345  32.665  25.113   4.346
 1361W        W66346  13.716  31.363   5.071
 1362W        W66347  16.763  22.983  10.427
 1363W        W66348  42.562  39.442  10.488
 1364W        W66349  25.410  40.274  13.469
 1365W        W66350  29.451  11.610  11.610
 1366W        W66351   0.261  27.973  14.891
 1367W        W66352  34.455   0.892  12.579
 1368W        W66353  16.121  44.316  12.104
 1369W        W66354   9.851  31.516  14.754
 1370W        W66355  15.206   2.715   5.395
 1371W        W66356   9.888  29.647  13.337
 1372W        W66357   6.255  10.673  13.675
 1373W        W66358   5.850  23.681   0.520
 1374W        W66359  33.978  43.770   3.361
 1375W        W66360  40.945  32.194   0.026
 1376W        W66361  23.435  17.215   0.392
 1377W        W66362  20.258  28.667  11.551
 1378W        W66363  24.998  23.854   1.555
 1379W        W66364  30.355   0.535   0.973
 1380W        W66365  13.105  12.089  14.862
 1381W        W66366  34.164  40.104  10.812
 1382W        W66367  25.738  19.642   0.714
 1383W        W66368  29.786  17.685   0.382
 1384W        W66369  22.480  13.872  12.118
 1385W        W66370  28.845  43.528   3.142
 1386W        W66371  42.000  40.963  12.061
 1387W        W66372  29.849   5.782   2.243
 1388W        W66373  43.780  28.319  10.698
 1389W        W66374  35.064  16.808  13.368
 1390W        W66375  28.307   7.239  14.267
 1391W        W66376   5.791  34.918   0.689
 1392W        W66377  35.821  27.038   3.166
 1393W        W66378  22.617   6.521  14.330
 1394W        W66379   6.412  27.688  13.333
 1395W        W66380  25.718  17.512  10.722
 1396W        W66381  36.048   4.919  12.436
 1397W        W66382   9.376   7.357   3.744
 1398W        W66383  39.101  30.374  12.015
 1399W        W66384  15.674  36.938  12.929
 1400W        W66385  36.129  23.800  12.330
 1401W        W66386  16.345  17.854  10.648
 1402W        W66387  15.736  40.218  11.449
 1403W        W66388  18.051  18.469  13.153
 1404W        W66389  37.345  35.210   4.092
 1405W        W66390  21.228  33.394   1.817
 1406W        W66391   0.854  18.687  14.238
 1407W        W66392   0.255  28.721  12.014
 1408W        W66393  17.628  19.627  11.841
 1409W        W66394  11.171   2.106  10.945
 1410W        W66395  33.517  20.972  12.090
 1411W        W66396  38.779  34.904  11.040
 1412W        W66397  32.137  14.239  13.917
 1413W        W66398  19.489  34.093  12.008
 1414W        W66399  33.460  30.165   1.366
 1415W        W66400  26.721  34.164  11.654
 1416W        W66401  44.831  10.410  13.370
 1417W        W66402  41.502  32.092  13.868
 1418W        W66403  43.000  21.391   2.286
 1419W        W66404  14.587  32.491   4.064
 1420W        W66405  19.123  23.264  11.959
 1421W        W66406   3.870  11.075   3.310
 1422W        W66407   0.815  15.746  11.039
 1423W        W66408  16.368  35.808   1.614
 1424W        W66409  21.523  26.140   4.106
 1425W        W66410  19.471   2.668  11.578
 1426W        W66411  38.264   3.593   4.353
 1427W        W66412   6.253  22.208  14.037
 1428W        W66413  23.429  32.158   0.793
 1429W        W66414  19.122  10.430  12.461
 1430W        W66415  20.016  42.419   2.206
 1431W        W66416  19.191  33.874  11.064
 1432W        W66417  11.072  21.538  12.069
 1433W        W66418   1.503  44.970   3.765
 1434W        W66419  41.345   9.403  13.319
 1435W        W66420  43.908  30.410   4.062
 1436W        W66421  44.324  12.255   4.176
 1437W        W66422  15.867  42.732  11.924
 1438W        W66423  38.416   9.216   3.341
 1439W        W66424  33.902   2.704   3.252
 1440W        W66425  14.542   2.039  10.654
 1441W        W66426   0.334  33.284  11.649
 1442W        W66427  39.483   1.352   1.690
 1443W        W66428  25.049  10.888  12.701
 1444W        W66429  13.408   2.810  14.147
 1445W        W66430  13.631  23.210   4.705
 1446W        W66431   5.307   6.315  11.904
 1447W        W66432  12.556   7.675  13.047
 1448W        W66433  24.149  24.363  14.321
 1449W        W66434  30.707  10.114   1.339
 1450W        W66435  29.543  23.610   0.823
 1451W        W66436  30.177  27.100  13.145
 1452W        W66437  16.231  35.086  14.372
 1453W        W66438  40.834  35.276   2.324
 1454W        W66439  24.691  26.092   3.783
 1455W        W66440  30.928  38.163   1.665
 1456W        W66441  34.088  44.106   1.224
 1457W        W66442  43.294  24.782   1.148
 1458W        W66443  29.195   6.761   2.807
 1459W        W66444  36.554  10.327  12.922
 1460W        W66445  14.780  35.785  11.270
 1461W        W66446  13.695  30.510  10.307
 1462W        W66447  42.037   5.375   9.993
 1463W        W66448  28.756  15.787  13.567
 1464W        W66449   2.309  25.190   4.332
 1465W        W66450   5.947   4.013   2.166
 1466W        W66451  10.163  21.251   3.247
 1467W        W66452  19.026  27.651   2.215
 1468W        W66453  28.093  29.213   2.742
 1469W        W66454  20.537  22.929  13.798
 1470W        W66455  16.442   4.676   5.545
 1471W        W66456  13.582  26.503   2.253
 1472W        W66457   5.422   9.664  13.524
 1473W        W66458   3.676  37.858   2.846
 1474W        W66459  36.077  32.259  12.496
 1475W        W66460  15.238  44.333  14.291
 1476W        W66461   0.528  21.093   1.893
 1477W        W66462  36.528   6.505  11.982
 1478W        W66463  21.995  17.276   0.336
 1479W        W66464  21.835  29.169   4.120
 1480W        W66465  32.463   3.655   0.788
 1481W        W66466  34.610  22.124  14.972
 1482W        W66467   9.979   8.326  12.955
 1483W        W66468   6.948  15.325   3.332
 1484W        W66469   9.971   0.995  14.418
 1485W        W66470  30.536  38.818   0.575
 1486W        W66471   2.408   2.416   4.227
 1487W        W66472  20.323  34.605  11.101
 1488W        W66473  41.975   0.900   1.433
 1489W        W66474   9.789  32.381   1.367
 1490W        W66475  22.527  41.323   1.807
 1491W        W66476  31.048   9.677   4.686
 1492W        W66477  10.390  22.580  12.618
 1493W        W66478  29.048  10.648   1.905
 1494W        W66479   9.589  15.223   3.572
 1495W        W66480  39.957  34.420   0.351
 1496W        W66481  30.057  36.957  10.610
 1497W        W66482  43.734  33.823   4.492
 1498W        W66483  21.542   4.410  11.871
 1499W        W66484  33.101  40.727   1.197
 1500W        W66485   8.049  39.974   4.812
 1501W        W66486  25.879  22.595   3.230
 1502W        W66487   3.881   2.693  10.741
 1503W        W66488   9.889  18.408   4.478
 1504W        W66489  26.603  21.160  14.909
 1505W        W66490  12.513  39.897  14.067
 1506W        W66491   9.723  21.941  13.982
 1507W        W66492   0.908  31.160   4.076
 1508W        W66493  12.127  43.495   2.755
 1509W        W66494   7.815  17.262  12.590
 1510W        W66495  27.375  22.959   3.359
 1511W        W66496  34.643  30.553   2.187
 1512W        W66497  14.339  36.638  12.082
 1513W        W66498   4.451  38.345   1.946
 1514W        W66499  15.658  40.326   2.126
 1515W        W66500  26.834  21.474  12.045
 1516W        W66501   1.404  26.254   0.404
 1517W        W66502  20.251  33.543  12.990
 1518W        W66503   1.857  28.580  13.947
 1519W        W66504   2.834   7.630  14.422
 1520W        W66505  16.608  14.639  11.054
 1521W        W66506  25.747  40.039  11.596
 1522W        W66507  16.866  44.293  11.576
 1523W        W66508  24.576  18.236   4.316
 1524W        W66509  34.998  44.066  11.079
 1525W        W66510   2.791  43.292   4.016
 1526W        W66511  32.609  33.189  13.797
 1527W        W66512  11.149  24.509  13.534
 1528W        W66513  14.549  24.211  11.472
 1529W        W66514  43.312   5.293   2.674
 1530W        W66515  21.064  29.062  11.008
 1531W        W66516  10.992  11.052   4.397
 1532W        W66517  39.823  22.212  13.402
 1533W        W66518  19.728  11.938   2.682
 1534W        W66519   3.194  19.988   1.269
 1535W        W66520   5.143  33.488  14.714
 1536W        W66521  20.709  10.813  13.890
 1537W        W66522  23.617   5.681   0.451
 1538W        W66523  15.728  10.195   2.199
 1539W        W66524  21.897  42.027   2.174
 1540W        W66525  29.721   2.427   3.580
 1541W        W66526  20.325  32.820   3.464
 1542W        W66527   8.097   9.814   9.871
 1543W        W66528   3.239   2.803   3.943
 1544W        W66529  44.996  37.952   0.338
 1545W        W66530  10.259   7.139  10.644
 1546W        W66531  34.587  42.551   3.225
 1547W        W66532  34.627  26.635  12.288
 1548W        W66533  10.115  32.955  11.080
 1549W        W66534  43.234  25.717   5.328
 1550W        W66535  15.632  26.561  13.991
 1551W        W66536  16.127   4.216  14.408
 1552W        W66537   8.522  10.667  10.588
 1553W        W66538  10.627   4.445   2.665
 1554W        W66539  17.306   4.452   3.585
 1555W        W66540  26.474  13.033   0.313
 1556W        W66541  44.371  30.523  12.975
 1557W        W66542   8.917  20.712  14.517
 1558W        W66543  18.124   3.446   0.220
 1559W        W66544  43.430  21.946   4.949
 1560W        W66545  17.664   2.194   2.877
 1561W        W66546  33.684  38.868   2.205
 1562W        W66547   8.224  44.992   4.675
 1563W        W66548   4.171  19.804   0.372
 1564W        W66549  16.864   8.393  14.934
 1565W        W66550   1.878  35.613   2.774
 1566W        W66551  20.544  14.639  13.346
 1567W        W66552  32.284  11.217  13.508
 1568W        W66553   2.125  29.620  11.574
 1569W        W66554  39.804   7.167  14.526
 1570W        W66555  33.615  18.409   4.600
 1571W        W66556  25.485  10.005  10.753
 1572W        W66557  21.208   9.196   4.038
 1573W        W66558   3.234  15.023  12.467
 1574W        W66559   8.731  21.171   1.837
 1575W        W66560   3.325  14.144  11.143
 1576W        W66561  11.938  19.473   0.462
 1577W        W66562   9.190   8.737  13.291
 1578W        W66563  24.019  30.095   5.491
 1579W        W66564  39.951  22.301   4.168
 1580W        W66565  42.289  27.568   4.080
 1581W        W66566  10.275   3.915  12.304
 1582W        W66567   2.474  41.453  12.652
 1583W        W66568   8.358  31.741   4.666
 1584W        W66569  28.051  29.529   1.177
 1585W        W66570  36.298  31.418  12.919
 1586W        W66571  12.871  14.335  14.349
 1587W        W66572   2.746   5.144   2.173
 1588W        W66573  24.222  42.182  13.345
 1589W        W66574  44.323  41.763   1.695
 1590W        W66575  16.390  15.049  12.806
 1591W        W66576   3.294  30.847  13.953
 1592W        W66577  25.544   9.441   2.769
 1593W        W66578  16.709   7.234  13.940
 1594W        W66579  36.037  25.938  11.995
 1595W        W66580  20.648  40.015   4.577
 1596W        W66581  19.016  37.668  12.443
 1597W        W66582   0.914  33.423  12.928
 1598W        W66583  39.262  24.430   3.389
 1599W        W66584  23.330  33.129  11.378
 1600W        W66585  38.778   1.931   3.671
 1601W        W66586   9.913  13.200  13.039
 1602W        W66587  43.300  35.594  11.823
 1603W        W66588   2.410  23.280  13.015
 1604W        W66589  22.531  24.190   4.638
 1605W        W66590  30.932  42.745   2.721
 1606W        W66591  24.186  34.098   3.200
 1607W        W66592  21.531   6.326  14.809
 1608W        W66593  17.858  30.430  12.882
 1609W        W66594   0.890  36.134  10.352
 1610W        W66595  16.314  11.457   4.641
 1611W        W66596  27.099   3.988  13.755
 1612W        W66597  27.451   3.214  14.963
 1613W        W66598  34.177  23.994  11.575
 1614W        W66599  22.473   8.519   1.771
 1615W        W66600  38.730  15.166   4.449
 1616W        W66601  23.313  27.232   4.118
 1617W        W66602  24.969  33.156  13.466
 1618W        W66603  29.424  27.133  14.412
 1619W        W66604   2.994  44.855  12.998
 1620W        W66605  41.951  22.263  13.225
 1621W        W66606  36.022  23.974  13.809
 1622W        W66607  22.620  11.895  11.528
 1623W        W66608  40.263  41.013   4.519
 1624W        W66609  25.007  40.243  14.352
 1625W        W66610  14.799  31.497  11.141
 1626W        W66611  26.041   9.599  13.113
 1627W        W66612  37.169   9.748   4.815
 1628W        W66613   6.656  19.212  14.112
 1629W        W66614  38.605  32.004   1.467
 1630W        W66615  23.149   7.316  14.308
 1631W        W66616   3.628  12.311  11.584
 1632W        W66617  38.362  10.152   3.248
 1633W        W66618  16.582  35.333  12.234
 1634W        W66619  12.339   1.573   1.607
 1635W        W66620   7.250  11.226   1.054
 1636W        W66621  38.675  33.468   3.695
 1637W        W66622  40.559  11.103  10.657
 1638W        W66623  44.996  22.138   3.735
 1639W        W66624  18.846  30.101  13.503
 1640W        W66625  33.872  44.845  11.903
 1641W        W66626  39.056   1.478   2.885
 1642W        W66627  14.542  35.426  13.938
 1643W        W66628   1.927  31.600  12.095
 1644W        W66629   7.778   4.794   2.894
 1645W        W66630  17.778   3.639  13.348
 1646W        W66631  13.849  12.660   2.339
 1647W        W66632  12.294  19.078  13.869
 1648W        W66633   7.434  24.856  12.108
 1649W        W66634  15.166  20.659  13.812
 1650W        W66635   8.195  11.831  11.547
 1651W        W66636  34.521  43.896   2.140
 1652W        W66637  20.435  14.325   1.332
 1653W        W66638   4.168  36.408  14.214
 1654W        W66639   0.986  13.592   0.365
 1655W        W66640  26.150  23.261  10.880
 1656W        W66641  21.206   1.956   4.521
 1657W        W66642  27.860  13.825  10.208
 1658W        W66643   4.851  31.384   0.856
 1659W        W66644   4.277  28.579  12.080
 1660W        W66645  18.897   7.013  12.976
 1661W        W66646  43.491   0.841  14.694
 1662W        W66647   7.346   3.247  12.748
 1663W        W66648  23.557  13.190   3.059
 1664W        W66649   5.723   9.217   3.295
 1665W        W66650  44.165   5.741  14.851
 1666W        W66651   1.649  26.125   1.254
 1667W        W66652  19.585  28.872   0.791
 1668W        W66653   2.354  14.178   1.913
 1669W        W66654  20.874  40.588   2.786
 1670W        W66655  13.267  12.706   3.610
 1671W        W66656  34.441  28.142  14.091
 1672W        W66657  21.497   6.541   1.227
 1673W        W66658  30.390  26.554  13.035
 1674W        W66659  34.015  11.064   0.976
 1675W        W66660  29.146  11.048   4.149
 1676W        W66661  34.081   4.512   3.388
 1677W        W66662   5.199  30.598  11.277
 1678W        W66663  16.281  17.289   4.642
 1679W        W66664  39.731  22.760  11.509
 1680W        W66665  27.479  39.378  11.645
 1681W        W66666  18.158  21.223   4.590
 1682W        W66667  42.382   1.766   4.714
 1683W        W66668  35.135  44.800  11.596
 1684W        W66669  33.159  28.627   4.208
 1685W        W66670  28.702  39.939  13.974
 1686W        W66671  29.006  31.718   0.549
 1687W        W66672  28.886   6.858   3.296
 1688W        W66673  18.079  43.331   0.045
 1689W        W66674  31.692  21.629   1.953
 1690W        W66675  30.643  21.243  11.433
 1691W        W66676  16.669   5.179  13.616
 1692W        W66677  14.387  15.237  11.549
 1693W        W66678  18.307  14.038  12.589
 1694W        W66679  26.972  21.522   0.256
 1695W        W66680  34.187  41.052   1.467
 1696W        W66681  40.507  32.851   0.342
 1697W        W66682  20.081  20.816   3.955
 1698W        W66683  15.294   6.926  13.558
 1699W        W66684  28.281  22.204   2.863
 1700W        W66685  16.178   5.181  11.500
 1701W        W66686   9.638  40.648   1.267
 1702W        W66687  37.846  13.584  11.475
 1703W        W66688  33.227  16.365  10.502
 1704W        W66689  18.728  42.056  14.715
 1705W        W66690   6.826  22.698  14.464
 1706W        W66691   4.795  16.316  10.663
 1707W        W66692   7.827  18.517  11.206
 1708W        W66693  25.635  22.171  14.696
 1709W        W66694   9.612  37.090  12.692
 1710W        W66695  25.877   1.307   2.690
 1711W        W66696  14.113  18.237  14.289
 1712W        W66697  26.969  26.245   1.014
 1713W        W66698   2.344   5.129  14.868
 1714W        W66699  14.866  14.513  13.491
 1715W        W66700  21.718  35.523   3.180
 1716W        W66701  18.267  34.122   4.806
 1717W        W66702  11.367   8.896   2.949
 1718W        W66703  38.442  14.805  11.501
 1719W        W66704  24.704  11.698   2.353
 1720W        W66705  13.321   9.266   0.331
 1721W        W66706  16.429  21.707   3.768
 1722W        W66707   9.432  29.318  13.626
 1723W        W66708  26.129  37.472  11.514
 1724W        W66709  18.237  38.860  14.217
 1725W        W66710  19.750  21.724   3.926
 1726W        W66711  15.047  42.430  11.574
 1727W        W66712  28.932  23.734   1.933
 1728W        W66713  13.913  33.206   1.274
 1729W        W66714  42.487   1.893  14.136
 1730W        W66715   0.275  36.728   3.214
 1731W        W66716  12.061  22.127  13.405
 1732W        W66717  40.175  44.524  14.715
 1733W        W66718  16.250   9.614  14.040
 1734W        W66719   4.466  14.120   2.143
 1735W        W66720  13.848  37.439  10.217
 1736W        W66721   8.625  40.281  14.311
 1737W        W66722   3.894  33.187   0.088
 1738W        W66723   6.571  26.007   0.885
 1739W        W66724   3.890  38.056  14.882
 1740W        W66725   5.537   3.370  13.870
 1741W        W66726  11.972   4.868   4.916
 1742W        W66727   2.173  27.438   2.696
 1743W        W66728  37.922  15.246  12.468
 1744W        W66729  38.106  40.066   1.008
 1745W        W66730  28.230  44.421   0.497
 1746W        W66731   6.217  22.706   2.666
 1747W        W66732  28.524  41.785  13.550
 1748W        W66733  33.598  34.874   4.060
 1749W        W66734  13.329  21.137  14.459
 1750W        W66735  26.706  19.758  11.708
 1751W        W66736  23.762  27.520  13.007
 1752W        W66737  44.897  26.058   3.605
 1753W        W66738  18.061  32.731  13.308
 1754W        W66739  16.754  41.106   1.265
 1755W        W66740  32.900  20.160   2.837
 1756W        W66741  42.753  43.821   2.807
 1757W        W66742  19.798  28.895  11.515
 1758W        W66743  17.852  21.666  11.207
 1759W        W66744  30.295  39.237  11.597
 1760W        W66745  22.117  15.060  13.881
 1761W        W66746  24.215  28.223   0.033
 1762W        W66747  32.967  33.075   3.817
 1763W        W66748  18.174  43.739   3.845
 1764W        W66749  19.595  29.922  11.575
 1765W        W66750  24.943  29.450   0.969
 1766W        W66751  18.155  40.730   1.461
 1767W        W66752  43.505  16.045  13.781
 1768W        W66753   0.685  13.722   2.768
 1769W        W66754   6.467  39.349  10.660
 1770W        W66755  31.485  26.151  11.056
 1771W        W66756  26.034  13.300  14.965
 1772W        W66757  35.647  40.495   0.571
 1773W        W66758  12.767  16.659   0.005
 1774W        W66759  15.696  44.540  14.512
 1775W        W66760  31.485   1.379  14.900
 1776W        W66761  22.167  20.117  14.845
 1777W        W66762  17.862  24.846  13.019
 1778W        W66763  30.232  23.104   4.635
 1779W        W66764  14.335  16.760   2.435
 1780W        W66765  34.843  22.055  10.696
 1781W        W66766  22.293   6.919  14.573
 1782W        W66767  11.441  14.308  12.048
 1783W        W66768  10.764  25.066  13.014
 1784W        W66769  26.014  22.159   2.378
 1785W        W66770   2.488   4.910  12.522
 1786W        W66771  15.362  13.837   3.093
 1787W        W66772   4.488   1.527   4.914
 1788W        W66773   0.939  12.263  12.434
 1789W        W66774  37.545   4.516   4.220
 1790W        W66775  42.964  23.049  14.511
 1791W        W66776  28.744  21.568   1.714
 1792W        W66777  32.193  24.371  13.940
 1793W        W66778  28.159  37.399   1.789
 1794W        W66779  43.216  11.867   0.839
 1795W        W66780  41.566  40.878   4.057
 1796W        W66781  38.271   5.142   2.259
 1797W        W66782  19.154  28.966   4.900
 1798W        W66783  43.172   9.746  12.912
 1799W        W66784  25.461  44.290   3.174
 1800W        W66785   9.081  41.226  13.197
 1801W        W66786  34.720  36.945  11.089
 1802W        W66787  27.506  36.805  12.529
 1803W        W66788  32.730  35.876  14.252
 1804W        W66789  12.319  10.133  10.647
 1805W        W66790   0.843  30.174  11.247
 1806W        W66791   6.758  44.045  13.859
 1807W        W66792  16.589   6.161   0.810
 1808W        W66793  21.499  12.547  14.066
 1809W        W66794  32.661  18.468   4.448
 1810W        W66795  17.063  23.044   1.439
 1811W        W66796   1.790  23.041  14.421
 1812W        W66797   7.790  12.363  11.951
 1813W        W66798   2.554  32.002  11.618
 1814W        W66799  19.593  30.609   2.376
 1815W        W66800  18.961  32.115   3.706
 1816W        W66801  36.639   1.943  10.996
 1817W        W66802  21.180  16.701  10.707
 1818W        W66803   4.124   0.989  12.821
 1819W        W66804  41.007  11.920  10.500
 1820W        W66805  16.760  30.487  12.122
 1821W        W66806  29.914  20.326  12.169
 1822W        W66807  11.620  41.703   0.878
 1823W        W66808   8.322  15.379   4.232
 1824W        W66809  17.605  15.924   1.837
 1825W        W66810  18.787  34.005   3.406
 1826W        W66811   3.721  15.144  14.040
 1827W        W66812  37.847  11.302   2.801
 1828W        W66813  41.395  16.194   4.086
 1829W        W66814  34.176  30.066  14.236
 1830W        W66815  42.860  12.949  14.882
 1831W        W66816  37.334  25.466  14.960
 1832W        W66817  40.557  38.489  11.099
 1833W        W66818  18.145  35.030  12.653
 1834W        W66819   2.937  35.946   0.273
 1835W        W66820  28.131  11.823   0.678
 1836W        W66821  17.213  18.011  12.396
 1837W        W66822  15.295  22.603   3.190
 1838W        W66823  13.863  21.642  13.396
 1839W        W66824  11.407  23.218   1.727
 1840W        W66825  40.189  38.491   3.313
 1841W        W66826  39.337  24.052  14.688
 1842W        W66827  25.163  10.541  12.330
 1843W        W66828  40.082  24.939   3.344
 1844W        W66829   6.321  16.599   0.236
 1845W        W66830  21.496  11.014  12.892
 1846W        W66831  26.488  19.794   1.227
 1847W        W66832  43.698  11.870  14.788
 1848W        W66833  43.837   3.716   0.639
 1849W        W66834  44.925  18.651  10.750
 1850W        W66835  21.526  11.343  14.726
 1851W        W66836  18.049  10.133  12.059
 1852W        W66837  43.077  36.587   0.386
 1853W        W66838  10.916  19.663   0.486
 1854W        W66839  24.208   1.581   2.372
 1855W        W66840  28.758  44.520  12.978
 1856W        W66841  40.004  29.976   0.247
 1857W        W66842   8.148  44.218   1.065
 1858W        W66843   0.144  41.796   1.223
 1859W        W66844  29.066  44.879   3.236
 1860W        W66845  12.667   8.924  11.165
 1861W        W66846  20.095  12.781   3.818
 1862W        W66847  40.996  12.757  10.729
 1863W        W66848  38.409   8.235   4.817
 1864W        W66849  26.235  21.202  14.302
 1865W        W66850  29.309  22.310   2.814
 1866W        W66851  26.419   3.746  14.189
 1867W        W66852   9.723  34.271   0.378
 1868W        W66853  10.579  22.570  13.949
 1869W        W66854   8.428   6.371  11.796
 1870W        W66855  39.299   4.171  14.137
 1871W        W66856  23.108  27.816  14.203
 1872W        W66857  32.103   9.332   0.389
 1873W        W66858  43.535  16.795   1.150
 1874W        W66859  28.632  25.567   1.108
 1875W        W66860  40.547  29.925  14.440
 1876W        W66861  36.454  33.306  12.427
 1877W        W66862  41.253  38.870   2.138
 1878W        W66863  36.325   5.648  11.696
 1879W        W66864  40.577  41.331  11.116
 1880W        W66865  36.560  17.204  14.765
 1881W        W66866  13.008  34.122   3.767
 1882W        W66867  31.167   8.381  11.925
 1883W        W66868  41.883   8.772   4.778
 1884W        W66869  12.206  31.675   1.821
 1885W        W66870  16.529   5.663  13.753
 1886W        W66871  20.673   2.438   2.796
 1887W        W66872  41.774  30.180  11.603
 1888W        W66873  17.100   5.882   0.748
 1889W        W66874  35.489  44.881  12.587
 1890W        W66875   7.015  26.343   0.004
 1891W        W66876  42.229  23.110  13.453
 1892W        W66877  10.253  38.831   0.053
 1893W        W66878  17.497  13.366  14.444
 1894W        W66879   8.454   6.766  14.364
 1895W        W66880  35.415  16.550   3.174
 1896W        W66881  10.749  11.864   3.283
 1897W        W66882  18.864  27.333  10.103
 1898W        W66883   0.866  36.413   2.717
 1899W        W66884  32.974   6.382  10.193
 1900W        W66885  10.228  12.910  10.794
 1901W        W66886  19.332  34.022   1.740
 1902W        W66887  12.083  37.512  12.760
 1903W        W66888  42.459  23.690  12.187
 1904W        W66889  40.088   2.721  14.861
 1905W        W66890   7.771  43.929  11.217
 1906W        W66891  24.538   2.176   2.628
 1907W        W66892  38.752  44.497   3.664
 1908W        W66893   6.925   9.291  12.249
 1909W        W66894  29.466   9.755   1.382
 1910W        W66895   8.418  21.977   2.876
 1911W        W66896  41.889  42.048   0.950
 1912W        W66897  31.380  43.363   0.298
 1913W        W66898   3.048  13.629  14.558
 1914W        W66899   7.890  10.208   1.442
 1915W        W66900   9.233  31.089  11.102
 1916W        W66901   3.183  23.530   3.150
 1917W        W66902  39.950   6.461   4.826
 1918W        W66903  40.463   4.188   4.240
 1919W        W66904  21.697  21.092   4.457
 1920W        W66905   5.175  19.753  13.305
 1921W        W66906  37.533  38.830  12.816
 1922W        W66907  11.570  18.658   2.676
 1923W        W66908  35.403  29.252  10.781
 1924W        W66909  12.174  35.824   2.323
 1925W        W66910  44.523   7.712   0.329
 1926W        W66911  28.441  39.320  14.852
 1927W        W66912  26.143  24.693   1.938
 1928W        W66913  15.112  38.428   1.420
 1929W        W66914  22.972   7.303  13.807
 1930W        W66915  41.816  27.759   3.169
 1931W        W66916  29.170  30.352  14.355
 1932W        W66917  12.207   4.137  12.393
 1933W        W66918  44.032  31.863   4.239
 1934W        W66919   0.819   5.703   0.954
 1935W        W66920  14.804  20.297   3.323
 1936W        W66921  34.497  18.104  13.897
 1937W        W66922  43.534  14.220  13.013
 1938W        W66923  26.189  30.226   0.601
 1939W        W66924  44.851  11.236  12.555
 1940W        W66925  39.557  32.904  12.482
 1941W        W66926   5.989  27.126   3.745
 1942W        W66927  20.046  25.396  13.097
 1943W        W66928  33.161  43.926  10.726
 1944W        W66929   5.275  24.041  14.273
 1945W        W66930  28.925  37.465  12.836
 1946W        W66931  33.707   1.366   2.408
 1947W        W66932  20.060  42.347   3.206
 1948W        W66933   2.245  14.516  11.097
 1949W        W66934  44.961  11.027   3.553
 1950W        W66935  38.471  37.992  14.689
 1951W        W66936  24.806   8.324  14.470
 1952W        W66937  24.075  32.060  12.268
 1953W        W66938  39.838  35.318   3.051
 1954W        W66939   2.594  13.703   0.572
 1955W        W66940  29.003  32.087  13.727
 1956W        W66941  40.411  13.169   3.111
 1957W        W66942   8.815  22.986  10.543
 1958W        W66943  15.649  33.547  12.671
 1959W        W66944  13.352  26.675  14.496
 1960W        W66945  43.864  13.246  11.925
 1961W        W66946   8.898  19.803   2.177
 1962W        W66947   2.035  24.190  14.165
 1963W        W66948  21.523  31.310  13.424
 1964W        W66949  22.255  21.146  11.168
 1965W        W66950   8.380   0.522  13.840
 1966W        W66951  38.729  36.252   4.867
 1967W        W66952  12.567  25.247  13.015
 1968W        W66953  41.918  39.897  10.728
 1969W        W66954  11.358  13.078   0.337
 1970W        W66955  26.488  23.130  12.912
 1971W        W66956  15.245  26.231  12.463
 1972W        W66957  21.964   0.426  10.822
 1973W        W66958  41.231  27.566   1.426
 1974W        W66959  27.579  41.268  14.771
 1975W        W66960   9.333  27.008   2.397
 1976W        W66961  15.151  34.790   3.319
 1977W        W66962  37.086  41.112  11.668
 1978W        W66963   7.665  42.411   2.445
 1979W        W66964  21.179   0.009   3.274
 1980W        W66965  33.938  11.874   4.733
 1981W        W66966   7.420   0.606   2.716
 1982W        W66967  10.146  36.076  13.562
 1983W        W66968  15.209  39.909   1.839
 1984W        W66969  29.405  36.911  11.410
 1985W        W66970  29.501  33.207  14.097
 1986W        W66971  14.243  30.446   2.878
 1987W        W66972  20.016  25.526   0.999
 1988W        W66973  19.788  18.884   3.684
 1989W        W66974  40.375   6.188   4.981
 1990W        W66975  12.422  14.211  10.689
 1991W        W66976  34.404   3.717   0.876
 1992W        W66977  16.080  30.961  11.616
 1993W        W66978  19.622  14.054  12.096
 1994W        W66979  38.765  32.610   3.654
 1995W        W66980  34.336  19.612   0.223
 1996W        W66981   1.401  19.869   2.501
 1997W        W66982  42.499  43.483   2.162
 1998W        W66983   7.744  18.219   0.730
 1999W        W66984  44.311  12.270  13.522
 2000W        W66985  35.054  35.555   1.942
 2001W        W66986   4.179  18.612   2.784
 2002W        W66987  38.239  17.744   3.080
 2003W        W66988   5.015  19.720   4.773
 2004W        W66989   1.435  32.170   0.410
 2005W        W66990  19.604  43.954   4.580
 2006W        W66991   5.196  25.418  13.033
 2007W        W66992  38.935   3.030  11.560
 2008W        W66993  10.789   7.946   3.935
 2009W        W66994   3.714  43.973  14.955
 2010W        W66995   2.984  42.770   3.997
 2011W        W66996  40.256  33.613  11.726
 2012W        W66997  35.394  26.966  13.815
 2013W        W66998  13.645  40.274  12.438
 2014W        W66999   7.886  18.209   1.842
 2015W        W67000   3.943   0.834   3.421
 2016W        W67001  30.743  38.826   2.421
 2017W        W67002  40.789  37.894  13.907
 2018W        W67003  32.583   0.273   1.689
 2019W        W67004   3.682  25.645   2.297
 2020W        W67005  15.501  31.994   1.764
 2021W        W67006  24.634  36.718   0.008
 2022W        W67007  29.506  34.317  11.938
 2023W        W67008  37.896  14.540  14.838
 2024W        W67009  25.558  11.380   4.206
 2025W        W67010   3.884  13.731  12.048
 2026W        W67011  29.125   3.391   1.197
 2027W        W67012  16.500  34.353   1.668
 2028W        W67013  41.415  14.843   1.491
 2029W        W67014  32.856  14.272  12.867
 2030W        W67015  25.076  11.559  11.545
 2031W        W67016  29.967  23.629   0.559
 2032W        W67017  36.655  25.108   3.673
 2033W        W67018  43.846  19.465   4.331
 2034W        W67019  26.421   7.157  14.539
 2035W        W67020  39.980  44.657   0.161
 2036W        W67021  11.821  10.300   3.616
 2037W        W67022  36.148  28.990  12.159
 2038W        W67023   0.736  33.469  10.067
 2039W        W67024   0.698  43.814   1.800
 2040W        W67025  23.625   3.825   5.487
 2041W        W67026  28.639  44.116   0.566
 2042W        W67027  19.961  33.976  10.526
 2043W        W67028   7.117  43.379  13.332
 2044W        W67029  13.695  13.096  13.963
 2045W        W67030  14.369  17.728  12.182
 2046W        W67031  38.651  21.263  11.974
 2047W        W67032  10.901   7.427  13.434
 2048W        W67033  42.292  16.937  13.282
 2049W        W67034   8.156  39.042  10.865
 2050W        W67035  37.925  10.839   3.067
 2051W        W67036  37.409  27.547  11.654
 2052W        W67037  26.514   6.562   2.234
 2053W        W67038  27.518  15.357  12.410
 2054W        W67039  21.486  16.268   3.078
 2055W        W67040  12.367  29.191  11.045
 2056W        W67041  36.065  26.909   4.915
 2057W        W67042  25.481  11.537   1.820
 2058W        W67043  26.968  18.740   4.027
 2059W        W67044  13.806  17.259   4.526
 2060W        W67045  16.713  35.075  14.210
 2061W        W67046   3.020  43.372   3.130
 2062W        W67047   4.251  21.605   4.663
 2063W        W67048  30.076  11.829   1.364
 2064W        W67049  27.970   6.984  12.000
 2065W        W67050   2.438  14.839   4.147
 2066W        W67051  36.369  35.419  10.596
 2067W        W67052  35.595  16.147  14.384
 2068W        W67053  33.999   4.828  12.456
 2069W        W67054  43.743  13.126  12.404
 2070W        W67055  44.309  37.977  12.074
 2071W        W67056  11.962  15.930   4.749
 2072W        W67057  23.199   6.408   0.960
 2073W        W67058  30.401  30.616   2.810
 2074W        W67059  42.806  23.912   1.817
 2075W        W67060   7.892   7.160   0.022
 2076W        W67061  38.822   0.928   4.991
 2077W        W67062  39.529  38.635   0.223
 2078W        W67063  26.004  34.781  13.141
 2079W        W67064  26.059  33.970   0.671
 2080W        W67065   6.000  39.271   4.178
 2081W        W67066  13.086  34.219  11.230
 2082W        W67067  30.575  33.017  12.020
 2083W        W67068  27.468  15.302  11.495
 2084W        W67069  25.507   0.810  10.767
 2085W        W67070  13.105  40.104  12.649
 2086W        W67071  30.437  30.955   5.137
 2087W        W67072  37.382  20.299   3.221
 2088W        W67073   7.621   4.320   3.251
 2089W        W67074   2.876  26.679  12.828
 2090W        W67075  29.857  16.070  13.017
 2091W        W67076  31.474  20.316   2.756
 2092W        W67077  43.594  18.548  11.263
 2093W        W67078  10.379  28.104   0.751
 2094W        W67079   8.045   5.252   0.702
 2095W        W67080   4.932   2.809   2.207
 2096W        W67081  16.856  38.026   0.033
 2097W        W67082   4.757  26.590  14.805
 2098W        W67083  12.181  31.170  12.585
 2099W        W67084   5.741   2.652  13.053
 2100W        W67085  11.539  44.872  12.120
 2101W        W67086  30.171  31.512  11.689
 2102W        W67087   9.606  15.791  11.476
 2103W        W67088  39.377  10.180   3.469
 2104W        W67089  27.652  20.747  14.983
 2105W        W67090  41.126   0.047  11.151
 2106W        W67091   8.354  28.114   3.131
 2107W        W67092  25.671  43.533  11.413
 2108W        W67093  44.004  43.378  12.719
 2109W        W67094  21.115  30.381   4.193
 2110W        W67095  42.831  18.629   1.028
 2111W        W67096  19.033  10.205  10.526
 2112W        W67097  43.882  43.387   1.053
 2113W        W67098  17.287  25.197   4.190
 2114W        W67099  33.424  28.031  10.541
 2115W        W67100  31.137  26.681  14.549
 2116W        W67101   4.505  10.864  14.273
 2117W        W67102  23.246  42.512   0.269
 2118W        W67103   9.703   3.041   1.362
 2119W        W67104  19.858  10.723   2.594
 2120W        W67105   9.647  27.365  12.179
 2121W        W67106  38.282  21.081   2.369
 2122W        W67107   0.533  30.954  10.690
 2123W        W67108  19.744   9.391   4.557
 2124W        W67109  14.289  10.125   0.082
 2125W        W67110  32.048   3.339   0.157
 2126W        W67111  34.968  22.931   0.053
 2127W        W67112  40.235  24.563  11.346
 2128W        W67113  43.320  19.849   0.304
 2129W        W67114  16.548  40.997   3.790
 2130W        W67115   7.765  39.133   4.585
 2131W        W67116   0.740  11.684   3.233
 2132W        W67117  16.861   7.223  14.467
 2133W        W67118  30.443  19.127   0.900
 2134W        W67119  17.120   1.544   4.494
 2135W        W67120   8.287  32.412   2.852
 2136W        W67121  20.600  10.502  14.364
 2137W        W67122  29.525  41.045   2.974
 2138W        W67123  14.935   1.941   3.782
 2139W        W67124  44.904  25.347   3.111
 2140W        W67125  36.719   9.645  10.230
 2141W        W67126  29.117  24.545   2.587
 2142W        W67127   2.503  36.943  11.605
 2143W        W67128   5.333  36.995  14.195
 2144W        W67129   8.915  22.213  14.568
 2145W        W67130  32.506  20.458  12.605
 2146W        W67131  15.428  14.475  11.941
 2147W        W67132  35.322   2.674   0.350
 2148W        W67133   1.884   1.826   2.247
 2149W        W67134  44.800   9.345   4.615
 2150W        W67135  26.219   5.784  12.797
 2151W        W67136   5.175   8.711   1.135
 2152W        W67137  42.296  15.244   4.176
 2153W        W67138  30.692   7.630  13.581
 2154W        W67139  43.936  17.347  14.888
 2155W        W67140  34.983   1.758  14.696
 2156W        W67141   4.354  30.499  11.376
 2157W        W67142  22.265  22.196  14.930
 2158W        W67143  23.745   1.848  11.086
 2159W        W67144  11.011  36.049   3.682
 2160W        W67145  27.048  20.962   1.679
 2161W        W67146   4.709   3.935   1.880
 2162W        W67147   1.941  21.765   2.712
 2163W        W67148  25.590  27.651  10.674
 2164W        W67149  29.380  22.007   3.220
 2165W        W67150  33.022  40.169   0.515
 2166W        W67151  24.497  39.500   1.775
 2167W        W67152  19.120  39.587  14.314
 2168W        W67153  23.589  16.702  11.522
 2169W        W67154  30.025  12.823  11.707
 2170W        W67155  14.750  15.016   1.369
 2171W        W67156  28.562   1.710   0.880
 2172W        W67157  27.437  12.229   4.133
 2173W        W67158  29.567  27.554   4.624
 2174W        W67159  39.339  20.519   2.901
 2175W        W67160  42.972  25.400   0.510
 2176W        W67161   7.791  16.077   2.559
 2177W        W67162  27.221  22.203  12.519
 2178W        W67163  22.414   0.328  11.078
 2179W        W67164  37.109  25.022   1.980
 2180W        W67165   9.368   2.566   2.713
 2181W        W67166   6.460  10.705   0.899
 2182W        W67167  20.610   2.818   4.078
 2183W        W67168  30.943  13.241   4.071
 2184W        W67169  43.340  10.838   1.870
 2185W        W67170  14.147  35.374   1.304
 2186W        W67171  25.519  23.559  10.621
 2187W        W67172  16.547   0.408  12.959
 2188W        W67173   3.794   5.029  11.210
 2189W        W67174  41.327  16.000  13.611
 2190W        W67175  32.561   8.563  14.996
 2191W        W67176  14.357   1.225   4.744
 2192W        W67177  43.928  17.799   9.870
 2193W        W67178  39.864   7.322  12.167
 2194W        W67179  14.380  36.400  12.905
 2195W        W67180  11.737  20.105   2.814
 2196W        W67181  18.080  26.728   4.039
 2197W        W67182  18.721  14.560   4.233
 2198W        W67183   0.042  32.459  11.531
 2199W        W67184  24.826  32.103   1.379
 2200W        W67185  35.188   9.830  12.106
 2201W        W67186   9.759  39.688  14.941
 2202W        W67187   1.884  31.480   2.101
 2203W        W67188  36.288   7.876  12.931
 2204W        W67189  41.420   0.787   2.238
 2205W        W67190  34.451  11.987   3.158
 2206W        W67191  44.893  23.295  11.031
 2207W        W67192  36.351  10.929   4.094
 2208W        W67193  19.554  17.101   4.934
 2209W        W67194   6.671  26.500   0.777
 2210W        W67195  29.953   6.783   3.716
 2211W        W67196   2.419  21.520  12.071
 2212W        W67197  11.808  33.634  13.988
 2213W        W67198  17.631   5.091   0.353
 2214W        W67199  27.437  17.128  11.252
 2215W        W67200  40.217  42.409   1.777
 2216W        W67201  10.642  11.162   1.493
 2217W        W67202  36.763  31.594   0.215
 2218W        W67203   5.803  34.922   1.194
 2219W        W67204  28.896  31.662  10.738
 2220W        W67205  30.904  20.856  14.506
 2221W        W67206  40.800  19.229   2.423
 2222W        W67207  17.755  18.990   1.803
 2223W        W67208   3.881  20.527  12.926
 2224W        W67209  35.019   6.187   2.232
 2225W        W67210  41.550  38.100   0.512
 2226W        W67211  33.411   3.939   3.893
 2227W        W67212   3.647  40.105   0.595
 2228W        W67213  43.811  36.223  14.358
 2229W        W67214  32.381  27.680  13.814
 2230W        W67215  28.985  31.998  11.923
 2231W        W67216   4.514   2.502  14.904
 2232W        W67217  21.113  36.663  13.316
 2233W        W67218  23.953   5.756  13.899
 2234W        W67219  22.900  14.312  13.306
 2235W        W67220  31.860  33.050   4.648
 2236W        W67221   2.394  20.573   4.617
 2237W        W67222  38.629  27.766  12.600
 2238W        W67223  32.573  44.464  11.556
 2239W        W67224  10.936   2.992  11.974
 2240W        W67225  44.425  16.748   2.683
 2241W        W67226  43.885  39.264  12.517
 2242W        W67227  12.591  34.407  11.199
 2243W        W67228  26.741  41.928   1.908
 2244W        W67229  36.936  43.905  11.702
 2245W        W67230  26.100  22.307  11.196
 2246W        W67231  18.676  28.860   0.129
 2247W        W67232  10.560  20.515   1.348
 2248W        W67233  35.138  13.591  14.897
 2249W        W67234  21.297  17.483  13.790
 2250W        W67235  36.612  24.146   2.847
 2251W        W67236  15.780  41.844  10.761
 2252W        W67237  20.537  17.141  14.227
 2253W        W67238   8.876  37.348  13.843
 2254W        W67239   6.797   8.509  11.977
 2255W        W67240  34.027   5.151  13.616
 2256W        W67241  44.258   1.338  12.373
 2257W        W67242  43.693  21.282  10.002
 2258W        W67243  25.778  28.919  11.186
 2259W        W67244  40.791  26.570   3.203
 2260W        W67245  40.347  32.582  13.794
 2261W        W67246   9.651  28.790   2.456
 2262W        W67247  44.805  37.536  14.313
 2263W        W67248  24.564  28.972   3.710
 2264W        W67249  28.667   0.814   3.688
 2265W        W67250  42.480   0.519  14.826
 2266W        W67251  31.491  15.915   0.771
 2267W        W67252  19.257  18.049   1.391
 2268W        W67253  19.293  31.894  12.476
 2269W        W67254  30.361  37.929  12.409
 2270W        W67255   7.321  38.884  10.886
 2271W        W67256   4.426  36.364   4.664
 2272W        W67257   4.185  23.036  10.678
 2273W        W67258  41.046  16.547   0.972
 2274W        W67259  32.384  14.554  12.259
 2275W        W67260  19.804  27.646   0.464
 2276W        W67261  16.803   0.754   4.886
 2277W        W67262   4.841  11.431  12.623
 2278W        W67263   4.922  35.852  10.645
 2279W        W67264  22.064  32.652   4.255
 2280W        W67265  15.849  35.139   4.608
 2281W        W67266  20.712   3.217  14.411
 2282W        W67267  26.934  20.355  10.868
 2283W        W67268   2.305  15.845  10.671
 2284W        W67269   4.952  26.981  12.925
 2285W        W67270  20.560  11.825   2.627
 2286W        W67271  27.608   7.113   4.874
 2287W        W67272  25.386  32.370  13.297
 2288W        W67273   6.195  22.034   1.243
 2289W        W67274  44.886  15.752   4.159
 2290W        W67275   4.673  23.402  14.522
 2291W        W67276  19.477  38.187   0.854
 2292W        W67277  30.827  11.157   2.197
 2293W        W67278  42.555  25.031  12.000
 2294W        W67279  14.724  33.474  10.634
 2295W        W67280  32.744   9.776   0.729
 2296W        W67281  36.794  32.844  14.544
 2297W        W67282  17.521  30.669   0.015
 2298W        W67283  35.637  36.502  13.303
 2299W        W67284  14.781   3.204   4.613
 2300W        W67285   7.978  39.026  13.329
 2301W        W67286  25.040  22.814   4.051
 2302W        W67287  44.597  19.071  14.342
 2303W        W67288  41.083  44.947  13.452
 2304W        W67289  24.162  16.214   4.531
 2305W        W67290  28.885  11.198  13.507
 2306W        W67291   1.862   7.563   0.287
 2307W        W67292  31.154  17.197  14.490
 2308W        W67293  42.108   4.375  12.596
 2309W        W67294  19.632   1.267   0.916
 2310W        W67295  38.949   0.926  12.776
 2311W        W67296  38.977  20.789   0.714
 2312W        W67297  34.006   9.602   4.050
 2313W        W67298   5.208  44.628  10.138
 2314W        W67299  14.317   0.757  13.911
 2315W        W67300  36.724  15.622  10.199
 2316W        W67301   0.790  30.010   0.476
 2317W        W67302  39.224  26.375   1.278
 2318W        W67303  36.661   8.243   5.026
 2319W        W67304  32.440  21.253  10.272
 2320W        W67305  25.817  44.435  11.681
 2321W        W67306  37.499  19.951  13.611
 2322W        W67307  22.668  33.639  14.714
 2323W        W67308   4.229  24.184  11.631
 2324W        W67309  38.003  30.181  10.461
 2325W        W67310  12.613   7.238  10.070
 2326W        W67311  33.447  44.807  10.257
 2327W        W67312   5.856  36.606   2.623
 2328W        W67313  27.756  24.194   4.135
 2329W        W67314  44.785  17.529  11.542
 2330W        W67315  38.040  27.581  14.130
 2331W        W67316   9.769  41.227   0.689
 2332W        W67317  41.304  13.337  14.440
 2333W        W67318  25.099  29.694   2.294
 2334W        W67319  22.576  43.085   0.423
 2335W        W67320   3.481   2.716  14.298
 2336W        W67321  10.885  16.315  11.699
 2337W        W67322  22.388  18.130   1.792
 2338W        W67323   0.682  18.091   5.035
 2339W        W67324  17.234   1.874   3.693
 2340W        W67325  30.504  19.501  14.488
 2341W        W67326  33.911  14.804  13.401
 2342W        W67327   3.515  23.150   4.508
 2343W        W67328  13.225  34.647   3.952
 2344W        W67329  31.866  29.194  12.464
 2345W        W67330  32.322   9.966  10.597
 2346W        W67331  37.081  37.255  12.082
 2347W        W67332   0.595  15.929   5.364
 2348W        W67333  18.103  35.353   2.299
 2349W        W67334  31.162  33.139  13.859
 2350W        W67335   2.806  17.088  11.938
 2351W        W67336   8.741   4.305  11.652
 2352W        W67337  37.484  16.227   2.702
 2353W        W67338   0.810  21.302   2.305
 2354W        W67339  20.335  19.766   2.690
 2355W        W67340  14.291  24.091   3.194
 2356W        W67341  35.174  35.672  13.441
 2357W        W67342  18.494  41.488  12.915
 2358W        W67343   4.151  15.975  13.558
 2359W        W67344  11.357  18.495   2.212
 2360W        W67345  43.411  27.114  13.918
 2361W        W67346  36.607  38.186   1.535
 2362W        W67347  12.354  38.309  11.630
 2363W        W67348  11.742   1.293   0.738
 2364W        W67349  44.985  27.550  14.673
 2365W        W67350  37.811  21.205   4.156
 2366W        W67351   9.071  24.108   3.910
 2367W        W67352  11.246  17.785  13.603
 2368W        W67353  20.635  40.845  14.405
 2369W        W67354   4.002  29.574  13.569
 2370W        W67355   1.794  14.271   4.930
 2371W        W67356  30.163  41.976  14.511
 2372W        W67357  24.112  41.079   0.156
 2373W        W67358  42.337  42.302   0.674
 2374W        W67359  23.088  14.713   3.393
 2375W        W67360  31.169  19.563   1.580
 2376W        W67361  33.150  12.701  11.401
 2377W        W67362  33.018  23.093   1.879
 2378W        W67363  39.511   6.379   1.689
 2379W        W67364  13.563  28.894  11.699
 2380W        W67365  37.897  39.998  10.263
 2381W        W67366  17.123   2.620   0.244
 2382W        W67367  20.602  25.323   3.342
 2383W        W67368  43.948   6.781   4.571
 2384W        W67369  36.776   2.719   0.364
 2385W        W67370  26.640  22.001  14.047
 2386W        W67371  40.501  34.188   3.997
 2387W        W67372  20.244  36.955  14.211
 2388W        W67373  13.053  34.161  14.948
 2389W        W67374  14.352  40.892   1.295
 2390W        W67375  25.516  10.875   4.370
 2391W        W67376  38.497   4.229  13.719
 2392W        W67377  22.145  44.022  12.100
 2393W        W67378  29.498  33.107   2.696
 2394W        W67379   5.797  29.937  11.451
 2395W        W67380  39.463  24.995   0.518
 2396W        W67381   3.780  29.694  14.523
 2397W        W67382  17.173  38.035  10.981
 2398W        W67383  25.074   9.610   2.799
 2399W        W67384  44.741  32.390  14.536
 2400W        W67385   8.853  17.179  10.885
 2401W        W67386   2.443  20.636  10.668
 2402W        W67387  29.513  14.865  13.891
 2403W        W67388  33.818  39.406  11.263
 2404W        W67389  36.257   4.443  12.599
 2405W        W67390   5.307  36.937   0.658
 2406W        W67391  34.640  19.514   3.276
 2407W        W67392  10.647  21.512  14.047
 2408W        W67393  25.297  15.816   1.740
 2409W        W67394  25.543  16.434   1.816
 2410W        W67395   6.691   6.402   1.366
 2411W        W67396   0.214  24.264   0.848
 2412W        W67397  26.928   1.321   0.035
 2413W        W67398   3.026  37.141  13.856
 2414W        W67399  10.413   5.165  11.021
 2415W        W67400  31.027  20.594   1.657
 2416W        W67401   4.366   6.790  10.683
 2417W        W67402   4.761   5.371   1.190
 2418W        W67403  43.292  22.356   2.263
 2419W        W67404  37.598  39.129  12.350
 2420W        W67405   7.653  13.319  10.773
 2421W        W67406   9.908  13.305   0.416
 2422W        W67407   8.527   8.927   5.144
 2423W        W67408  22.037   0.719  13.823
 2424W        W67409   8.237  29.353   0.486
 2425W        W67410  26.587   6.652  14.529
 2426W        W67411  40.404  39.368   2.894
 2427W        W67412  24.596  44.277  13.943
 2428W        W67413  27.194  25.939   4.572
 2429W        W67414  23.522  35.908  14.567
 2430W        W67415   6.805  29.066  14.846
 2431W        W67416  30.454  38.645   1.271
 2432W        W67417   5.835  32.323   3.657
 2433W        W67418  39.611  13.685   4.569
 2434W        W67419  19.836   5.683   9.663
 2435W        W67420  41.824  44.832   4.988
 2436W        W67421   9.419  29.048   5.108
 2437W        W67422  10.604  32.443   0.834
 2438W        W67423  31.870  17.670  14.354
 2439W        W67424  21.124  23.802  12.948
 2440W        W67425  40.981  27.023  14.398
 2441W        W67426  31.578   9.271  11.413
 2442W        W67427  26.194  17.584  14.348
 2443W        W67428  18.007  10.152   0.520
 2444W        W67429  43.957  29.531   4.147
 2445W        W67430  38.155  43.473  14.528
 2446W        W67431  28.506  23.505  12.548
 2447W        W67432  44.740  24.652  13.730
 2448W        W67433  35.655   7.822   1.228
 2449W        W67434  40.857  10.869   4.235
 2450W        W67435  30.846  17.085  11.115
 2451W        W67436   9.267  28.039   1.458
 2452W        W67437  25.426  33.496   2.633
 2453W        W67438  12.674  13.776   1.000
 2454W        W67439  33.236  42.034  11.952
 2455W        W67440  42.773   3.957   2.339
 2456W        W67441  13.824   9.179   0.405
 2457W        W67442  13.386  24.101  12.166
 2458W        W67443  36.917   2.936  11.439
 2459W        W67444  28.089  12.583  13.220
 2460W        W67445  33.361  41.575   1.420
 2461W        W67446  29.586  10.798  12.064
 2462W        W67447  43.768  14.774   0.521
 2463W        W67448  18.854  28.333  10.391
 2464W        W67449   3.791  16.007   1.202
 2465W        W67450  43.835  15.752  11.048
 2466W        W67451   6.348  18.021   3.379
 2467W        W67452  23.207  19.044   0.974
 2468W        W67453  42.244  14.299   9.790
 2469W        W67454   7.280  38.863   1.215
 2470W        W67455   3.381   7.160   1.203
 2471W        W67456  10.457  43.888  11.609
 2472W        W67457   9.125  31.084  13.851
 2473W        W67458  25.344   3.355  11.161
 2474W        W67459   2.255  13.134   3.726
 2475W        W67460  27.047  30.394  14.775
 2476W        W67461  36.452  42.512  12.368
 2477W        W67462  32.932  13.927  10.668
 2478W        W67463   2.596  29.100   4.954
 2479W        W67464  27.999   5.432  13.122
 2480W        W67465  17.559  13.401   2.267
 2481W        W67466   3.935  38.445   1.852
 2482W        W67467  37.378  11.833   0.627
 2483W        W67468  44.382  16.761   2.161
 2484W        W67469  39.746  33.351  11.670
 2485W        W67470  38.975  25.029   0.723
 2486W        W67471   8.655  39.019   9.907
 2487W        W67472  19.400  29.510  12.803
 2488W        W67473  33.920  34.944   0.212
 2489W        W67474  38.103  43.905   3.342
 2490W        W67475  36.772   7.665   0.291
 2491W        W67476  34.451  29.404  12.978
 2492W        W67477  28.724  43.182  13.523
 2493W        W67478  20.370  33.997   0.196
 2494W        W67479  19.480  29.169   9.895
 2495W        W67480  35.439  36.861   2.758
 2496W        W67481  38.664   3.124  11.154
 2497W        W67482  31.601  23.936  12.026
 2498W        W67483  21.207  19.788  13.022
 2499W        W67484  14.756  31.298  13.628
 2500W        W67485  31.674  41.041  14.563
 2501W        W67486  36.241   8.817  12.611
 2502W        W67487  19.396  41.818  11.178
 2503W        W67488   9.475  30.449  11.239
 2504W        W67489   0.015  38.312  13.486
 2505W        W67490  29.048  38.591   2.784
 2506W        W67491  37.127  28.273   4.209
 2507W        W67492  22.460  42.897  11.469
 2508W        W67493  12.790  42.293   1.835
 2509W        W67494  35.772  20.167   3.750
 2510W        W67495  30.108  37.672   1.408
 2511W        W67496  16.349  33.826  13.133
 2512W        W67497  16.076  32.772   4.155
 2513W        W67498  21.542  22.088   2.347
 2514W        W67499  19.741   6.961  10.261
 2515W        W67500  35.942  34.849   3.611
 2516W        W67501  39.035  42.079   2.186
 2517W        W67502  18.626  30.743   2.301
 2518W        W67503  11.718  28.408  12.159
 2519W        W67504  35.079   2.203   1.798
 2520W        W67505  21.490   2.492  11.902
 2521W        W67506  18.556  34.290  14.939
 2522W        W67507  41.485  14.149   0.960
 2523W        W67508  41.357   7.773   4.546
 2524W        W67509  18.153  19.880  13.267
 2525W        W67510  19.135  17.560   5.398
 2526W        W67511  33.999  24.800   0.834
 2527W        W67512  30.651   3.042  11.472
 2528W        W67513  11.137  38.915   4.923
 2529W        W67514  37.616   9.394  14.418
 2530W        W67515  28.583  44.225  12.589
 2531W        W67516  31.141  28.148   0.683
 2532W        W67517  34.707  19.557   4.144
 2533W        W67518  14.615  44.762   2.549
 2534W        W67519  33.367  11.617   1.811
 2535W        W67520  21.918  29.681   3.773
 2536W        W67521  44.960  39.498  13.977
 2537W        W67522  41.096  38.482   3.579
 2538W        W67523  11.128  11.279   3.578
 2539W        W67524  32.053  28.200   2.331
 2540W        W67525  31.446  42.311   4.402
 2541W        W67526  20.467  36.651   1.681
 2542W        W67527  21.832  20.085   0.803
 2543W        W67528  44.797  27.697   3.621
 2544W        W67529  17.797  16.368  10.582
 2545W        W67530  27.582  22.310  13.294
 2546W        W67531  13.956  26.242   4.050
 2547W        W67532  19.427  12.801   2.234
 2548W        W67533   8.715  17.558   3.158
 2549W        W67534  14.640  16.533  12.929
 2550W        W67535   9.633  37.510  10.680
 2551W        W67536   7.328  15.054   1.927
 2552W        W67537  11.229  29.969   3.556
 2553W        W67538   8.353   1.293  14.637
 2554W        W67539  20.924   8.004  11.749
 2555W        W67540  27.569  44.994   1.847
 2556W        W67541   9.419  32.304   2.055
 2557W        W67542  36.715   0.251  10.595
 2558W        W67543  11.752  44.431  11.588
 2559W        W67544  27.587   7.745  11.686
 2560W        W67545  38.343  17.257   2.965
 2561W        W67546  14.402  24.698   1.899
 2562W        W67547   5.197   9.675   1.700
 2563W        W67548   3.733  33.650   0.268
 2564W        W67549  20.598  27.861   4.488
 2565W        W67550   3.331   3.757   3.601
 2566W        W67551  23.051  13.826   0.415
 2567W        W67552  21.414   2.353  14.867
 2568W        W67553   7.235  12.825   1.403
 2569W        W67554  15.629   7.446  10.788
 2570W        W67555  21.779   0.190  14.387
 2571W        W67556  16.174  25.667   2.344
 2572W        W67557  28.762  38.435  14.439
 2573W        W67558  32.400  40.340  10.759
 2574W        W67559   1.169  30.133  13.026
 2575W        W67560   3.787   0.822  13.402
 2576W        W67561  34.794   6.437  11.655
 2577W        W67562  39.699  34.500  10.378
 2578W        W67563  34.963  38.368   0.408
 2579W        W67564  43.050  19.773   3.772
 2580W        W67565   2.726  20.175  10.936
 2581W        W67566  12.144  16.660   3.632
 2582W        W67567  26.333  40.581  11.593
 2583W        W67568   2.158  28.587  11.760
 2584W        W67569  34.548  32.166   4.107
 2585W        W67570  41.047   9.329   1.323
 2586W        W67571  29.712  16.399   4.170
 2587W        W67572  26.961  40.213   5.043
 2588W        W67573  43.957   0.921   1.969
 2589W        W67574   0.483  41.986  11.965
 2590W        W67575  12.299  30.567  14.570
 2591W        W67576  30.605  20.604   4.432
 2592W        W67577  44.435  22.314  14.343
 2593W        W67578  43.258  22.122   0.797
 2594W        W67579  27.933  26.310  10.801
 2595W        W67580  20.199  22.064  11.484
 2596W        W67581   6.926   5.720   2.257
 2597W        W67582  30.531   7.812  13.096
 2598W        W67583  17.144  30.327  10.039
 2599W        W67584   9.699  37.206  13.619
 2600W        W67585  15.160  10.714  14.907
 2601W        W67586   5.034  30.402  13.181
 2602W        W67587  10.392  12.844   2.197
 2603W        W67588  39.863   9.751   1.813
 2604W        W67589   9.740  22.657   3.601
 2605W        W67590  15.021  42.726  12.380
 2606W        W67591  18.533  20.186   3.377
 2607W        W67592  32.231  25.269  12.446
 2608W        W67593  30.056   3.388   1.229
 2609W        W67594  16.263  43.997  10.764
 2610W        W67595  34.542  19.797  12.278
 2611W        W67596  32.693   0.423  13.781
 2612W        W67597  39.003  22.821  11.405
 2613W        W67598  26.009  23.970   3.542
 2614W        W67599  20.671  33.030  12.128
 2615W        W67600  12.287  12.589   3.687
 2616W        W67601   3.446  44.835  14.768
 2617W        W67602  36.017  31.934  12.983
 2618W        W67603  16.305   6.926  13.504
 2619W        W67604  30.325  17.144  11.175
 2620W        W67605   8.621  39.736   4.196
 2621W        W67606  32.565  29.448  10.854
 2622W        W67607  40.583  43.922  13.198
 2623W        W67608  34.893  44.295  12.548
 2624W        W67609   8.642   0.101   2.235
 2625W        W67610  44.341  34.752  12.465
 2626W        W67611  13.418  12.429   4.773
 2627W        W67612  27.049   5.019  13.967
 2628W        W67613   5.178  33.147  13.146
 2629W        W67614  31.479  38.254   3.296
 2630W        W67615   6.615  29.558  11.853
 2631W        W67616  26.524  17.382   5.058
 2632W        W67617  12.161  27.724   0.292
 2633W        W67618  33.352  27.482   3.263
 2634W        W67619  39.779  29.918   1.188
 2635W        W67620  18.378   1.343  11.511
 2636W        W67621  34.926   2.967  11.137
 2637W        W67622  33.158  31.124  13.398
 2638W        W67623   6.766  41.436   2.865
 2639W        W67624  33.383  27.883   4.527
 2640W        W67625  39.243  34.554   4.492
 2641W        W67626  11.374  44.848   3.634
 2642W        W67627   8.732  18.083   0.522
 2643W        W67628  20.163  30.918   2.608
 2644W        W67629   7.882  35.914   1.249
 2645W        W67630  14.551  18.474   2.806
 2646W        W67631  43.043  42.267   4.094
 2647W        W67632  27.384  32.554   1.706
 2648W        W67633   6.389   5.667  13.476
 2649W        W67634  41.997  36.260  10.545
 2650W        W67635   7.750   1.986   0.449
 2651W        W67636   4.391  15.095   4.212
 2652W        W67637  15.005   7.690  12.604
 2653W        W67638   9.780  43.437  10.751
 2654W        W67639  13.092  42.510  12.983
 2655W        W67640   8.220  26.433  10.355
 2656W        W67641  26.533  27.678  12.048
 2657W        W67642  22.598  14.135   0.419
 2658W        W67643  34.916   4.956  10.665
 2659W        W67644  12.135  28.529  13.928
 2660W        W67645  20.710  20.410   1.347
 2661W        W67646  31.726  22.539   0.029
 2662W        W67647  27.659  11.510   0.033
 2663W        W67648  43.396   2.531  14.930
 2664W        W67649  36.917  27.959   4.600
 2665W        W67650   1.864  25.232   4.624
 2666W        W67651  22.035  17.247   2.407
 2667W        W67652  34.868  20.069   3.439
 2668W        W67653   7.604  12.105   0.003
 2669W        W67654   1.366  11.536   0.317
 2670W        W67655   3.385  24.400   3.639
 2671W        W67656  22.720  44.764   2.058
 2672W        W67657  21.515   6.134   3.219
 2673W        W67658  39.766  18.134  12.876
 2674W        W67659  12.035  22.564   2.133
 2675W        W67660  40.356  35.375   0.397
 2676W        W67661  42.918  27.945   2.197
 2677W        W67662   8.353  19.661   1.297
 2678W        W67663   9.451  33.593   2.309
 2679W        W67664  15.050  16.729   0.766
 2680W        W67665  27.256  32.002   2.669
 2681W        W67666  33.943  20.145   3.294
 2682W        W67667   9.287  29.906   2.379
 2683W        W67668   5.246  19.237  13.227
 2684W        W67669  39.924  29.971  14.743
 2685W        W67670   2.369  30.359  14.778
 2686W        W67671   3.292  38.525  11.650
 2687W        W67672  42.976  38.434  13.002
 2688W        W67673  39.073  14.614  13.591
 2689W        W67674  18.174  39.926   1.666
 2690W        W67675  37.762  22.568  12.886
 2691W        W67676  28.703  29.379   4.659
 2692W        W67677  42.300  42.384  13.521
 2693W        W67678   6.764  24.108   1.729
 2694W        W67679   2.535  28.446   1.279
 2695W        W67680   4.886  12.525  14.003
 2696W        W67681  15.235  19.235   3.017
 2697W        W67682  39.000   4.074   1.721
 2698W        W67683  10.398  37.407   1.764
 2699W        W67684   7.452  33.812   2.154
 2700W        W67685  38.505  15.574   4.167
 2701W        W67686  16.240  11.784  13.843
 2702W        W67687   6.972  40.467   0.771
 2703W        W67688  44.960  22.127  12.639
 2704W        W67689   7.722   5.586  12.388
 2705W        W67690  21.692  42.581  14.481
 2706W        W67691  25.239   3.414   0.265
 2707W        W67692  35.759  33.500   2.870
 2708W        W67693  19.742  10.097   0.286
 2709W        W67694  28.661  26.943  13.922
 2710W        W67695  17.313  20.647  12.615
 2711W        W67696  15.048   3.765   0.295
 2712W        W67697  16.774  21.657  13.436
 2713W        W67698  22.959  17.881   0.400
 2714W        W67699  23.063  14.350   0.473
 2715W        W67700  44.979  38.439   3.478
 2716W        W67701   4.274  30.630   0.953
 2717W        W67702  41.682  29.282  11.130
 2718W        W67703  34.508  43.363   0.668
 2719W        W67704  28.530  19.761   4.073
 2720W        W67705  27.083  22.587   3.595
 2721W        W67706  18.761  14.232  12.438
 2722W        W67707  16.804  40.445  13.785
 2723W        W67708  23.085   6.200  13.037
 2724W        W67709  36.996  19.300  10.689
 2725W        W67710  10.215   6.223   2.759
 2726W        W67711  34.383  20.719   5.058
 2727W        W67712  18.530  37.790  11.610
 2728W        W67713  29.558   0.440  11.059
 2729W        W67714   9.177  22.683   0.315
 2730W        W67715  17.046  41.954  13.484
 2731W        W67716  42.284  44.046   2.887
 2732W        W67717  22.080   7.754  14.042
 2733W        W67718  42.637  41.728   0.592
 2734W        W67719  14.821  44.188   4.268
 2735W        W67720   1.670  18.209   3.714
 2736W        W67721  13.618  19.693  13.915
 2737W        W67722  35.031   9.067   3.278
 2738W        W67723  19.122  23.665   1.271
 2739W        W67724   3.037  44.207   1.457
 2740W        W67725  42.417   2.751   1.693
 2741W        W67726  34.388  44.815   1.856
 2742W        W67727  44.442  43.353   4.644
 2743W        W67728  18.320  36.344  12.982
 2744W        W67729  13.282   0.371  12.644
 2745W        W67730  40.564  12.242  13.862
 2746W        W67731  16.142  26.796  13.401
 2747W        W67732  28.798  36.683  14.359
 2748W        W67733  43.908  33.600  11.244
 2749W        W67734  16.385   7.029  11.683
 2750W        W67735  43.326  35.493   1.647
 2751W        W67736  44.969   8.113   2.848
 2752W        W67737  32.994  40.595   0.206
 2753W        W67738  24.000  32.537  11.198
 2754W        W67739  13.961   5.342   9.843
 2755W        W67740  19.642  30.035  10.097
 2756W        W67741  12.908   1.071  14.332
 2757W        W67742   0.851  37.893  13.860
 2758W        W67743  28.887  26.463  13.903
 2759W        W67744   5.968  23.194  11.062
 2760W        W67745  40.715  33.967   3.192
 2761W        W67746  31.747  44.294   2.494
 2762W        W67747  34.414  30.910   1.900
 2763W        W67748  13.321  16.301   3.288
 2764W        W67749  11.099  35.915  14.593
 2765W        W67750  26.791  41.347  10.484
 2766W        W67751  34.580  28.879   2.706
 2767W        W67752  12.005  10.054   4.628
 2768W        W67753  22.361  18.846  12.509
 2769W        W67754   0.862  34.839  13.872
 2770W        W67755  42.993  13.382  10.690
 2771W        W67756  17.157  42.331  11.699
 2772W        W67757  44.866  39.196   4.511
 2773W        W67758  18.322  31.174  12.608
 2774W        W67759  24.195   7.398  12.402
 2775W        W67760  35.558   1.509   2.219
 2776W        W67761  36.569   7.198   2.308
 2777W        W67762  17.243  21.734   4.208
 2778W        W67763   8.156  36.371   1.433
 2779W        W67764  40.324   8.779  12.885
 2780W        W67765  33.371  39.305   3.869
 2781W        W67766  25.529   0.828   2.797
 2782W        W67767  13.543  28.506  12.033
 2783W        W67768  27.114  22.053   0.237
 2784W        W67769  30.491  35.989   4.114
 2785W        W67770  27.396  12.219  11.125
 2786W        W67771  30.379  35.437  13.792
 2787W        W67772  21.439  27.576  11.165
 2788W        W67773  21.032   3.806   3.572
 2789W        W67774   0.441  18.765  11.532
 2790W        W67775   0.379  10.733   3.594
 2791W        W67776  16.248  11.369   3.305
 2792W        W67777   3.956   1.440   3.612
 2793W        W67778  40.943  36.111  13.174
 2794W        W67779  31.606  27.625  12.166
 2795W        W67780  26.979  34.177  13.838
 2796W        W67781  43.822  28.090   0.841
 2797W        W67782  11.651  38.614  11.735
 2798W        W67783  43.735  30.578   1.285
 2799W        W67784  31.621  39.124   3.022
 2800W        W67785  28.625  15.759  11.560
 2801W        W67786  27.908  41.320   1.547
 2802W        W67787  25.455  15.272  14.917
 2803W        W67788  40.266  35.576   1.792
 2804W        W67789   2.306   4.028  13.952
 2805W        W67790  24.119  23.696  13.126
 2806W        W67791  11.787  27.497  13.007
 2807W        W67792  15.691  38.580  11.164
 2808W        W67793  43.381  14.143  13.995
 2809W        W67794   5.837  40.326   4.178
 2810W        W67795  20.942  40.016  11.286
 2811W        W67796  14.297  14.159  13.096
 2812W        W67797  37.945  10.669  14.833
 2813W        W67798  29.123  33.889   4.467
 2814W        W67799  15.228  19.088  12.412
 2815W        W67800  17.171   4.412   0.549
 2816W        W67801  43.384   4.861  14.999
 2817W        W67802  16.606  20.476   3.912
 2818W        W67803   6.622  43.217  10.705
 2819W        W67804   2.694  43.076  12.034
 2820W        W67805  16.854  17.962  11.154
 2821W        W67806  14.696  24.010  14.443
 2822W        W67807  14.342  31.489   2.315
 2823W        W67808   5.933  24.536  11.626
 2824W        W67809   6.118   7.675   1.341
 2825W        W67810  19.710  42.865   2.108
 2826W        W67811  10.810  12.360  13.392
 2827W        W67812  43.809  26.270  10.243
 2828W        W67813  16.088  32.462  12.488
 2829W        W67814  32.583  37.795   2.258
 2830W        W67815   6.854  27.684  13.599
 2831W        W67816  29.393  36.430  13.564
 2832W        W67817  16.479  15.588   0.867
 2833W        W67818   6.494  36.079  14.605
 2834W        W67819  15.089  33.504  13.572
 2835W        W67820  42.451  19.220  12.458
 2836W        W67821   3.792  10.616  11.750
 2837W        W67822  12.572   5.554  13.510
 2838W        W67823  36.736  44.625  14.812
 2839W        W67824  12.143  22.327   0.920
 2840W        W67825  37.950  22.945  11.886
 2841W        W67826  40.997  12.143  12.912
 2842W        W67827  42.361  42.822  10.694
 2843W        W67828  44.954  17.694  10.692
 2844W        W67829  26.925  24.240  11.568
 2845W        W67830   6.270  39.907  11.099
 2846W        W67831  14.662   4.651   3.258
 2847W        W67832  35.521   8.879   3.194
 2848W        W67833   5.349  21.724   4.605
 2849W        W67834  28.385   0.283  11.018
 2850W        W67835  35.744  32.896   4.236
 2851W        W67836   3.016  29.458   1.659
 2852W        W67837   9.573  38.784   2.327
 2853W        W67838  34.893  16.517   0.344
 2854W        W67839  29.209   5.459   3.260
 2855W        W67840  13.714  16.470   1.824
 2856W        W67841  21.135  36.529   3.801
 2857W        W67842   5.811   6.650  14.045
 2858W        W67843  35.118  36.562   4.696
 2859W        W67844  36.139  10.932   1.979
 2860W        W67845  15.684   6.609  13.703
 2861W        W67846  26.889   7.710  10.676
 2862W        W67847  12.139  23.016   0.262
 2863W        W67848  25.026  43.996  12.275
 2864W        W67849  25.736  24.133   0.847
 2865W        W67850   6.853  43.580   0.340
 2866W        W67851  17.202   8.231   4.127
 2867W        W67852   8.102   7.555   0.904
 2868W        W67853   7.964  15.645   2.900
 2869W        W67854   8.445  39.272   0.000
 2870W        W67855  19.071  29.055  11.996
 2871W        W67856   9.323  38.928   1.881
 2872W        W67857   4.362  25.397  12.295
 2873W        W67858  18.244   5.173  12.945
 2874W        W67859   1.279  34.570  13.492
 2875W        W67860   8.788  32.150  14.948
 2876W        W67861  28.983   2.390   0.721
 2877W        W67862   9.452  14.380  11.600
 2878W        W67863  15.938   4.042  12.507
 2879W        W67864  30.703   8.151   3.662
 2880W        W67865   4.697  12.049  11.200
 2881W        W67866   1.814  21.580  14.728
 2882W        W67867  43.367  24.499  13.761
 2883W        W67868  42.046  21.319   1.484
 2884W        W67869  37.893  41.898  14.866
 2885W        W67870   9.813   6.690   4.195
 2886W        W67871  27.046  15.587  12.393
 2887W        W67872  32.387  44.170  13.285
 2888W        W67873  17.880   3.686   2.191
 2889W        W67874  39.404  19.805   4.302
 2890W        W67875  24.776  24.485  12.074
 2891W        W67876  36.300  32.754  12.507
 2892W        W67877  25.611  12.761   5.109
 2893W        W67878  25.151  19.868  12.174
 2894W        W67879  28.226   4.369  11.916
 2895W        W67880  10.697  11.855  13.409
 2896W        W67881  14.198  17.255   1.739
 2897W        W67882  33.804  15.810   3.635
 2898W        W67883   6.258  28.250  12.493
 2899W        W67884  16.591  44.532  11.937
 2900W        W67885  31.214   5.513  12.508
 2901W        W67886  10.305  13.931  10.284
 2902W        W67887   0.952  14.525   2.069
 2903W        W67888   3.447  44.830  13.853
 2904W        W67889  20.026   5.824   2.714
 2905W        W67890   9.218  29.602  12.620
 2906W        W67891  22.423  31.873  14.352
 2907W        W67892  31.550   3.234   4.636
 2908W        W67893   8.146  28.565  11.567
 2909W        W67894  33.142   8.245  13.456
 2910W        W67895  19.477  41.081   0.087
 2911W        W67896   6.245   9.299  13.028
 2912W        W67897  26.836  43.879   2.157
 2913W        W67898  42.024   4.713  12.990
 2914W        W67899   4.246  27.928  11.648
 2915W        W67900  42.051  25.245   3.070
 2916W        W67901   9.657  13.647   0.788
 2917W        W67902   7.192  16.554  10.559
 2918W        W67903  10.240  21.822   3.182
 2919W        W67904  40.337  11.838  13.543
 2920W        W67905   2.463  27.075   2.948
 2921W        W67906  22.156  22.930  12.999
 2922W        W67907  41.508  24.340  11.287
 2923W        W67908  10.741  38.514  13.402
 2924W        W67909  30.592   3.688   3.212
 2925W        W67910  41.897  41.866   2.658
 2926W        W67911  43.213  42.446  10.767
 2927W        W67912   5.697  22.234  11.101
 2928W        W67913  35.627   4.228   2.807
 2929W        W67914  24.944  21.694  13.001
 2930W        W67915  14.303  44.722   3.639
 2931W        W67916  11.859  28.678   2.702
 2932W        W67917  34.988   6.692   2.187
 2933W        W67918  44.018   3.211   3.858
 2934W        W67919  24.887  30.363   0.779
 2935W        W67920  42.968   7.406   0.984
 2936W        W67921  22.113  36.086   0.276
 2937W        W67922   5.294   4.806  12.043
 2938W        W67923   7.037  32.928   1.436
 2939W        W67924   6.391  38.671   5.039
 2940W        W67925   5.494   2.516   2.246
 2941W        W67926  28.267  26.329   3.311
 2942W        W67927  22.779  23.341   4.294
 2943W        W67928  20.295  17.847  13.854
 2944W        W67929  27.468  44.155   2.908
 2945W        W67930  40.346   7.877  13.134
 2946W        W67931   4.891  23.163   3.580
 2947W        W67932   1.357  29.340   1.458
 2948W        W67933   2.380   0.781   1.961
 2949W        W67934   2.007   7.777   0.788
 2950W        W67935  40.070  13.773   3.198
 2951W        W67936  20.121  29.660   4.410
 2952W        W67937  37.574  29.151   4.275
 2953W        W67938  35.099  39.435  13.016
 2954W        W67939   8.571  33.030  14.001
 2955W        W67940  22.921   8.354  13.887
 2956W        W67941  11.727  15.565  10.421
 2957W        W67942  32.501  23.518  13.438
 2958W        W67943  10.613   4.945  13.532
 2959W        W67944  36.574  35.845   0.397
 2960W        W67945  21.901  11.859  12.056
 2961W        W67946  11.300  27.604   3.217
 2962W        W67947   9.354  29.284  10.873
 2963W        W67948  17.875  28.518  12.945
 2964W        W67949  44.569  37.101   1.880
 2965W        W67950  43.530   6.885   0.812
 2966W        W67951  37.360  29.064   0.032
 2967W        W67952  16.242  31.037   0.314
 2968W        W67953   3.867  11.352   2.881
 2969W        W67954  22.941  28.991   3.130
 2970W        W67955  10.912  14.249  11.944
 2971W        W67956  17.876  12.735  10.657
 2972W        W67957  32.460  26.631   4.627
 2973W        W67958  31.370  19.139   2.730
 2974W        W67959  23.781  24.565   3.247
 2975W        W67960  33.189  29.875   0.411
 2976W        W67961   3.174  14.624   3.749
 2977W        W67962  35.032   7.381  14.517
 2978W        W67963  42.618  42.056   1.399
 2979W        W67964  21.941   3.905  14.425
 2980W        W67965  43.729  41.703  10.699
 2981W        W67966   6.419  30.628   3.297
 2982W        W67967   7.318  36.637   3.127
 2983W        W67968  15.120  30.855   3.923
 2984W        W67969  14.358   1.425  12.360
 2985W        W67970  32.128  35.127  13.853
 2986W        W67971  44.146  38.908   0.060
 2987W        W67972  37.112   9.382  13.525
 2988W        W67973  27.409  32.671  13.006
 2989W        W67974  10.321  17.290  12.070
 2990W        W67975  27.102  44.926  14.878
 2991W        W67976  35.989  20.436   1.283
 2992W        W67977  28.073  38.573   1.149
 2993W        W67978   4.691  25.103   2.515
 2994W        W67979  43.603  13.300  11.493
 2995W        W67980   4.659  33.554  10.801
 2996W        W67981   8.382  31.850   3.583
 2997W        W67982  10.314  44.375  10.878
 2998W        W67983   5.115  41.483  11.499
 2999W        W67984  29.740  37.077  12.384
 3000W        W67985  19.198   9.302   4.826
 3001W        W67986  33.321   4.963  10.247
 3002W        W67987  25.999   6.299   2.910
 3003W        W67988   8.138   5.255   2.176
 3004W        W67989  41.608  32.248  11.964
 3005W        W67990   9.359  41.804   3.629
 3006W        W67991   2.603  24.654   3.190
 3007W        W67992  26.581   0.787   4.627
 3008W        W67993  16.940  30.239   2.524
 3009W        W67994  43.859  28.450   2.238
 3010W        W67995   3.632  32.970  13.544
 3011W        W67996  16.608  19.255  10.743
 3012W        W67997  19.808  33.534  14.927
 3013W        W67998   2.867  24.308  10.770
 3014W        W67999  28.130   4.076   4.652
 3015W        W68000  21.167  39.935  14.955
 3016W        W68001   3.425  14.129   1.077
 3017W        W68002  18.286   8.864  11.291
 3018W        W68003   2.693  41.013  13.943
 3019W        W68004  39.914  37.559  14.798
 3020W        W68005  41.620  40.770  11.177
 3021W        W68006  21.423  12.960  11.055
 3022W        W68007  13.524   4.033   0.760
 3023W        W68008   3.241  38.925  12.925
 3024W        W68009  44.059  19.145  13.774
 3025W        W68010  19.913  18.517  10.144
 3026W        W68011  36.812   6.236   4.010
 3027W        W68012  34.015  30.150  14.722
 3028W        W68013  43.251   9.137   4.854
 3029W        W68014  20.198  20.196   1.403
 3030W        W68015   7.831  36.698   4.536
 3031W        W68016  28.271  13.191  11.453
 3032W        W68017  36.534  41.008  11.625
 3033W        W68018  15.542  22.173   2.431
 3034W        W68019  38.056  22.149  10.877
 3035W        W68020  32.516  40.260   2.394
 3036W        W68021  10.921   9.230  11.200
 3037W        W68022  24.834  17.141   0.359
 3038W        W68023  32.759  41.748  12.089
 3039W        W68024  11.439  27.413   1.837
 3040W        W68025  11.823   0.007  14.491
 3041W        W68026  34.930  40.471  10.357
 3042W        W68027  43.767  19.515  14.466
 3043W        W68028   1.227  15.966  11.562
 3044W        W68029  29.407  43.220   4.643
 3045W        W68030  14.215  41.326  11.605
 3046W        W68031  20.699  38.297  13.748
 3047W        W68032  28.990  32.060  14.784
 3048W        W68033  40.328  18.323   2.514
 3049W        W68034   5.107  11.896   2.218
 3050W        W68035  32.833  18.708  11.595
 3051W        W68036  27.470  17.313   0.446
 3052W        W68037  21.917  36.927  12.479
 3053W        W68038  38.912  33.995  12.005
 3054W        W68039  21.603  35.792  11.141
 3055W        W68040   1.450  14.836   2.679
 3056W        W68041  13.279  42.569   4.561
 3057W        W68042   6.043  43.253  11.598
 3058W        W68043  28.183  16.114  13.966
 3059W        W68044  24.282  27.547  12.998
 3060W        W68045  21.190  19.200  14.448
 3061W        W68046   8.411  23.097  11.052
 3062W        W68047  18.129  21.539   1.717
 3063W        W68048  35.631  21.148  11.163
 3064W        W68049  18.519  42.063  12.526
 3065W        W68050  23.789  11.723   4.162
 3066W        W68051  31.995   2.449  13.601
 3067W        W68052   6.002  37.317   1.855
 3068W        W68053  12.933  11.775   3.705
 3069W        W68054  33.123  27.610   2.807
 3070W        W68055   0.004  31.958  10.649
 3071W        W68056  17.622  36.053   0.753
 3072W        W68057  19.787  15.803   4.595
 3073W        W68058  16.209  25.063  10.495
 3074W        W68059  43.979  35.977   0.303
 3075W        W68060  25.733  20.265   1.339
 3076W        W68061   4.843  25.436  12.617
 3077W        W68062   9.711  19.551   3.205
 3078W        W68063  16.430   4.080   3.572
 3079W        W68064  44.338  27.442  11.450
 3080W        W68065  18.743  39.068  14.009
 3081W        W68066  30.410  33.087   3.778
 3082W        W68067  34.362   8.923  11.267
 3083W        W68068  39.746   9.999   0.848
 3084W        W68069  12.664  13.317   1.892
 3085W        W68070  25.775   6.287   0.510
 3086W        W68071  34.152   7.657   9.859
 3087W        W68072  44.840   3.899  11.324
 3088W        W68073  39.838   3.713   3.214
 3089W        W68074  15.102  28.941  14.396
 3090W        W68075  17.612   1.246  13.453
 3091W        W68076   5.178   8.238  11.608
 3092W        W68077  40.867  40.602  13.420
 3093W        W68078  28.126  28.834   1.504
 3094W        W68079   8.927  43.929  10.700
 3095W        W68080   7.081  38.696   1.934
 3096W        W68081  43.011   6.940   0.744
 3097W        W68082   3.200  32.405  14.869
 3098W        W68083  26.660  38.974  14.822
 3099W        W68084  36.395  32.358   2.139
 3100W        W68085  36.118  31.691   0.935
 3101W        W68086  41.570  31.155   1.787
 3102W        W68087   1.522  23.302  14.030
 3103W        W68088   0.424  43.457   0.843
 3104W        W68089  10.844  16.112   1.637
 3105W        W68090  28.968  32.462  10.703
 3106W        W68091  18.658   9.999   2.934
 3107W        W68092  36.638  29.437   1.200
 3108W        W68093  37.984  44.982   4.587
 3109W        W68094  37.072  26.907   0.980
 3110W        W68095  38.464   1.030  13.439
 3111W        W68096  23.437   7.791   4.096
 3112W        W68097  20.549   3.818   4.302
 3113W        W68098  21.140  23.011   0.800
 3114W        W68099   7.668  12.651  14.293
 3115W        W68100   7.889  10.937   4.388
 3116W        W68101  28.021  20.336   3.720
 3117W        W68102   3.366  12.298   2.786
 3118W        W68103   8.662  19.242  12.626
 3119W        W68104  33.161  10.948  12.824
 3120W        W68105  29.682  36.467  12.076
 3121W        W68106  18.726  43.784  12.097
 3122W        W68107  22.169  19.065  13.951
 3123W        W68108  23.008  21.908   3.202
 3124W        W68109  31.522   2.396  14.726
 3125W        W68110  25.751  27.627  13.817
 3126W        W68111  13.251  34.574   3.439
 3127W        W68112  28.546   2.283   2.902
 3128W        W68113   3.260  30.079  13.564
 3129W        W68114  32.911   6.392   1.448
 3130W        W68115  27.275  44.398   3.291
 3131W        W68116  41.834  36.518   0.490
 3132W        W68117  43.557  36.874   1.654
 3133W        W68118   3.585  43.495   2.105
 3134W        W68119  36.285  44.490  10.202
 3135W        W68120  41.684   0.352  10.596
 3136W        W68121  11.202  18.982   5.059
 3137W        W68122   3.678  21.803  13.653
 3138W        W68123  28.951   1.759  13.061
 3139W        W68124   4.383  18.829  12.959
 3140W        W68125  25.577  33.074   3.373
 3141W        W68126  36.954  36.821   2.348
 3142W        W68127  13.509  16.440   0.278
 3143W        W68128  15.078   1.388  13.014
 3144W        W68129  13.805  39.947  11.745
 3145W        W68130  33.423   3.800  10.986
 3146W        W68131  14.792  17.527   3.090
 3147W        W68132  17.377   7.781  14.292
 3148W        W68133  11.899  26.083  13.752
 3149W        W68134  27.288  18.736   2.337
 3150W        W68135   1.995  37.628  11.234
 3151W        W68136  30.127  26.183  10.743
 3152W        W68137  37.073  21.958   3.160
 3153W        W68138  38.104  24.118   3.826
 3154W        W68139  13.330  27.773  12.106
 3155W        W68140  26.456  15.131  14.628
 3156W        W68141   5.477  12.139   0.282
 3157W        W68142  26.433  13.767   3.731
 3158W        W68143   2.384  13.144   2.238
 3159W        W68144   8.183  24.349  14.811
 3160W        W68145  16.315  15.879  14.291
 3161W        W68146  27.011   0.489   4.548
 3162W        W68147   6.464  12.908   0.925
 3163W        W68148  44.581   5.767  13.325
 3164W        W68149  38.134  42.579  11.085
 3165W        W68150   8.327  19.035   0.693
 3166W        W68151  10.651  14.793  12.849
 3167W        W68152  34.986  44.829  12.653
 3168W        W68153  11.823  12.829   0.449
 3169W        W68154   6.627  10.209   2.124
 3170W        W68155  43.534  43.391  10.657
 3171W        W68156  28.744  24.152   0.757
 3172W        W68157  13.376  23.213  13.467
 3173W        W68158  36.784  16.868   0.726
 3174W        W68159  37.408   0.885   3.190
 3175W        W68160  27.419  16.696  12.934
 3176W        W68161  18.222  35.826  14.805
 3177W        W68162  38.070  26.577   4.094
 3178W        W68163  34.070  11.151  11.515
 3179W        W68164   4.796   9.522   3.614
 3180W        W68165   5.679  29.023  12.497
 3181W        W68166  34.850  29.215   1.373
 3182W        W68167   6.772  15.649  12.240
 3183W        W68168  42.609  22.761   3.159
 3184W        W68169  42.350  39.593  14.508
 3185W        W68170   4.171  35.885   4.613
 3186W        W68171  39.917   5.039   2.727
 3187W        W68172  41.756  23.473  13.085
 3188W        W68173  20.234  42.614  12.421
 3189W        W68174  44.821  15.721   0.021
 3190W        W68175  33.124  27.367   0.993
 3191W        W68176  40.832  18.240  14.102
 3192W        W68177  11.157   7.208   2.456
 3193W        W68178  12.264  20.254   2.169
 3194W        W68179  43.539  36.353   2.282
 3195W        W68180  30.619   9.087  11.978
 3196W        W68181  12.638  29.321  10.633
 3197W        W68182  33.066   3.318  10.398
 3198W        W68183  25.114  38.470   0.706
 3199W        W68184   9.801   2.757   0.395
 3200W        W68185  19.031   9.250   3.163
 3201W        W68186   1.850  39.982   0.036
 3202W        W68187  16.541  27.053  13.010
 3203W        W68188  40.558   8.067  14.100
 3204W        W68189  31.647  32.609  12.844
 3205W        W68190  22.088  24.189   2.758
 3206W        W68191  23.137   4.859  10.496
 3207W        W68192  21.780   1.991   0.426
 3208W        W68193  34.298  41.114  12.500
 3209W        W68194  28.909  33.663  14.331
 3210W        W68195  37.058  27.559  13.965
 3211W        W68196  13.423   4.943  11.718
 3212W        W68197  18.829  41.236   4.705
 3213W        W68198  12.229  22.463   4.609
 3214W        W68199  21.650  21.143   1.459
 3215W        W68200  10.340   0.303  10.413
 3216W        W68201   7.165  10.793   3.867
 3217W        W68202  23.923  27.226  11.137
 3218W        W68203  29.642  19.752   0.836
 3219W        W68204   4.459  12.413  13.241
 3220W        W68205  11.043   1.365  11.520
 3221W        W68206  34.645  17.757  11.871
 3222W        W68207  30.011  10.213  10.552
 3223W        W68208  42.860  26.423  14.020
 3224W        W68209   8.951  14.404  13.744
 3225W        W68210  12.228   5.695  12.571
 3226W        W68211   0.418  22.422  11.710
 3227W        W68212  31.182   3.314   2.591
 3228W        W68213   1.678  11.431   0.939
 3229W        W68214  19.223   8.258   2.866
 3230W        W68215  30.126  42.812  12.991
 3231W        W68216  24.010  17.122  13.827
 3232W        W68217  20.674   1.414  10.744
 3233W        W68218   5.373  12.915   1.549
 3234W        W68219  40.880  39.036  13.343
 3235W        W68220  40.381  38.778  12.852
 3236W        W68221  27.178  43.508   2.292
 3237W        W68222  31.877  28.122   1.383
 3238W        W68223  44.978  35.883  10.672
 3239W        W68224  12.894  20.783  13.429
 3240W        W68225  33.449  22.453  14.863
 3241W        W68226  10.336  24.378  12.000
 3242W        W68227  23.602  43.289   1.782
 3243W        W68228   8.152  21.702   0.263
 3244W        W68229  34.946   0.420   2.289
 3245W        W68230   8.716   3.288  13.590
 3246W        W68231  32.466  11.721  13.529
 3247W        W68232  36.839  41.090  13.410
 3248W        W68233  31.423  10.767  12.792
 3249W        W68234  21.249  35.984  10.788
 3250W        W68235  17.322   4.017  11.433
 3251W        W68236   5.145   1.162  12.122
 3252W        W68237   2.402   3.220   1.845
 3253W        W68238  24.461  44.339  11.882
 3254W        W68239  40.579  33.694   4.949
 3255W        W68240  22.500  34.443  14.758
 3256W        W68241  40.951   0.662   4.274
 3257W        W68242  16.537  24.978   3.512
 3258W        W68243  34.056  37.793   4.806
 3259W        W68244  39.850  24.882  11.514
 3260W        W68245  33.539  31.183  13.048
 3261W        W68246   2.318  18.779   3.044
 3262W        W68247  36.948  22.249   1.837
 3263W        W68248  24.434   5.423   0.349
 3264W        W68249  28.781  20.862  12.651
 3265W        W68250   2.457   7.593   0.988
 3266W        W68251  20.035  43.594  11.950
 3267W        W68252  37.975  19.099   2.844
 3268W        W68253  34.913   3.865  12.630
 3269W        W68254  11.462  12.141  11.721
 3270W        W68255  15.504  31.079  12.883
 3271W        W68256  17.958  39.460   1.742
 3272W        W68257  24.213  28.545  14.156
 3273W        W68258  18.231  25.096   4.617
 3274W        W68259  37.698  34.870   1.957
 3275W        W68260   7.547  41.831   1.312
 3276W        W68261  25.649  43.370   1.946
 3277W        W68262  30.475  33.312  13.757
 3278W        W68263   3.130  31.502  11.090
 3279W        W68264  17.237  11.777  11.546
 3280W        W68265   5.329  33.111  11.684
 3281W        W68266  19.757  39.472  11.972
 3282W        W68267   6.237  25.732   2.814
 3283W        W68268  27.429   6.438  13.973
 3284W        W68269  30.172  34.323  14.210
 3285W        W68270  35.596  31.595  11.184
 3286W        W68271   9.480  11.771   2.686
 3287W        W68272   4.726  39.438  10.758
 3288W        W68273  16.003  34.257  11.186
 3289W        W68274  32.416  36.082   2.209
 3290W        W68275  38.106  37.241   4.333
 3291W        W68276   1.798  15.829   1.348
 3292W        W68277   8.800  20.747  14.017
 3293W        W68278  11.768   4.754   3.625
 3294W        W68279   1.358   2.448  11.545
 3295W        W68280   5.766  40.645  13.695
 3296W        W68281  19.519  31.036  13.820
 3297W        W68282  35.428  10.296   3.073
 3298W        W68283  35.083   7.929  13.441
 3299W        W68284  35.807  20.391  11.365
 3300W        W68285  39.071  41.764  11.077
 3301W        W68286  28.138  42.867   4.278
 3302W        W68287   7.728   0.204   2.652
 3303W        W68288  11.308   4.032  14.991
 3304W        W68289  11.325  16.601  11.712
 3305W        W68290  13.309   5.469  12.590
 3306W        W68291   6.322  11.838   4.650
 3307W        W68292  41.274  27.721  14.536
 3308W        W68293  26.977  21.021  13.468
 3309W        W68294  43.866  15.268  14.774
 3310W        W68295  24.705  21.626   4.460
 3311W        W68296  17.225   8.154   3.265
 3312W        W68297   1.224  12.764  14.319
 3313W        W68298  20.235  43.309  10.514
 3314W        W68299   1.929  30.235   3.744
 3315W        W68300  34.684  10.232   1.882
 3316W        W68301  18.004  37.313  12.530
 3317W        W68302  29.971  24.951  11.088
 3318W        W68303  11.795  39.240   0.821
 3319W        W68304  35.086  41.312   0.284
 3320W        W68305  39.015  17.263  13.873
 3321W        W68306  30.017  10.165  14.395
 3322W        W68307  32.031  40.451  11.512
 3323W        W68308   9.330   5.850   3.048
 3324W        W68309  32.219  25.825  13.911
 3325W        W68310  44.807   6.190  12.871
 3326W        W68311   9.088  10.899  13.445
 3327W        W68312  12.713  39.362   0.950
 3328W        W68313  20.260   4.942  11.867
 3329W        W68314   9.132  44.938   3.671
 3330W        W68315  13.347  37.091   1.231
 3331W        W68316  15.745   1.373   0.364
 3332W        W68317  28.385  13.592  12.977
 3333W        W68318   3.677   3.309   2.694
 3334W        W68319  39.464   3.135  11.490
 3335W        W68320  33.125  38.804  13.088
 3336W        W68321  36.483  32.165  13.836
 3337W        W68322  43.270  34.585   2.859
 3338W        W68323   8.259  39.886  11.887
 3339W        W68324  16.324  11.890  11.416
 3340W        W68325  28.932  23.250  12.369
 3341W        W68326  28.649  23.992  10.724
 3342W        W68327   6.330  26.939   4.747
 3343W        W68328  12.593  30.547   1.356
 3344W        W68329   4.902  30.175   4.266
 3345W        W68330  37.571  30.568   2.368
 3346W        W68331  11.843  25.045  13.897
 3347W        W68332  39.607   2.315  13.008
 3348W        W68333  22.099  29.078  14.349
 3349W        W68334  28.042   0.608   3.656
 3350W        W68335  42.296  28.745   9.851
 3351W        W68336  38.486  27.729   2.824
 3352W        W68337  19.581  27.538  11.121
 3353W        W68338  19.218  43.271  12.370
 3354W        W68339  28.200  26.935  13.292
 3355W        W68340  23.146   7.437   0.158
 3356W        W68341  32.350  19.412  14.644
 3357W        W68342  26.241   7.330   1.165
 3358W        W68343  40.477  24.760   3.034
 3359W        W68344  41.766  18.082  13.779
 3360W        W68345  17.748  21.658   3.516
 3361W        W68346   2.207  38.910   2.208
 3362W        W68347  28.926   4.705  13.044
 3363W        W68348  44.122  28.515   5.104
 3364W        W68349   2.261   3.457   3.285
 3365W        W68350  15.755  32.793  14.016
 3366W        W68351  21.052  42.881  12.307
 3367W        W68352   9.792  20.649  12.212
 3368W        W68353  30.254  14.107  14.064
 3369W        W68354  20.083  36.921   2.770
 3370W        W68355  26.488   1.055   1.704
 3371W        W68356  31.773  22.979   0.337
 3372W        W68357   1.944   5.789  14.372
 3373W        W68358  30.634  14.508   1.530
 3374W        W68359  22.208  22.602   1.923
 3375W        W68360  12.692  12.339  11.019
 3376W        W68361  41.587  37.993  10.457
 3377W        W68362  43.070  12.351   3.694
 3378W        W68363  13.099  15.055   0.991
 3379W        W68364  14.584   9.167  12.897
 3380W        W68365   5.964  23.610  13.540
 3381W        W68366   1.761  17.302   4.080
 3382W        W68367   3.433  24.190  12.942
 3383W        W68368   2.309  35.338  10.969
 3384W        W68369  20.574  13.601   1.664
 3385W        W68370   3.333   2.397   2.200
 3386W        W68371  39.848  22.523   4.626
 3387W        W68372   3.484  18.719  13.958
 3388W        W68373  27.478   8.954   2.875
 3389W        W68374  41.475   7.909  10.700
 3390W        W68375  32.515  41.553  12.538
 3391W        W68376  14.478   0.831  12.500
 3392W        W68377  35.081  26.721  13.351
 3393W        W68378  31.603  17.710   4.596
 3394W        W68379  24.773  42.995  13.514
 3395W        W68380   2.862   4.280  14.680
 3396W        W68381  16.101   8.716  11.229
 3397W        W68382  31.433  44.897   3.604
 3398W        W68383  43.775  13.633   1.160
 3399W        W68384  27.688   7.682   2.298
 3400W        W68385   9.628  28.195   4.361
 3401W        W68386  21.285  24.000  10.746
 3402W        W68387   4.710  22.966  10.630
 3403W        W68388  25.834  14.230  13.453
 3404W        W68389  27.605  31.453  14.608
 3405W        W68390  21.699   2.856   3.846
 3406W        W68391  19.351  10.280   3.647
 3407W        W68392   1.726   9.206   1.863
 3408W        W68393  26.826  41.539  13.469
 3409W        W68394  15.210  31.705   4.216
 3410W        W68395  33.341   0.345  12.430
 3411W        W68396  34.595  14.775   0.655
 3412W        W68397  31.100  43.848  13.366
 3413W        W68398  30.215  10.331  13.432
 3414W        W68399   7.693   7.227   2.386
 3415W        W68400  35.370  30.034  10.448
 3416W        W68401  44.554  27.985  12.207
 3417W        W68402  26.860  16.844   4.652
 3418W        W68403  11.389  21.614   1.913
 3419W        W68404  30.151  17.309  14.407
 3420W        W68405  12.432  37.125  14.487
 3421W        W68406  11.130  20.545   4.448
 3422W        W68407  13.697  10.647  14.528
 3423W        W68408  43.817  21.635  12.861
 3424W        W68409  19.780  22.638  12.087
 3425W        W68410  21.048  18.097  12.426
 3426W        W68411  12.624   6.242  14.868
 3427W        W68412  11.701  20.798  12.652
 3428W        W68413  36.031  37.964   3.382
 3429W        W68414  18.030  15.298   2.262
 3430W        W68415  17.071   5.497   2.714
 3431W        W68416  13.682  39.144   0.933
 3432W        W68417  22.241  19.839  13.006
 3433W        W68418  26.498   7.698  13.692
 3434W        W68419  21.184  26.489  10.582
 3435W        W68420   4.837  14.207  13.786
 3436W        W68421   1.377  40.100  13.197
 3437W        W68422  35.526   0.252  14.325
 3438W        W68423  23.245  23.844   2.273
 3439W        W68424  26.406  25.046  11.108
 3440W        W68425  27.503   8.315   2.162
 3441W        W68426  44.374  23.142  13.678
 3442W        W68427  18.457  44.044   0.891
 3443W        W68428  25.292   2.503   5.392
 3444W        W68429  37.576  38.382  10.497
 3445W        W68430  27.730  43.256  13.537
 3446W        W68431  32.238   4.446   1.937
 3447W        W68432  11.319  21.349   4.228
 3448W        W68433  28.377  39.263  13.964
 3449W        W68434  27.573  40.198  11.181
 3450W        W68435  32.992   6.910   1.354
 3451W        W68436   5.909  22.661   4.355
 3452W        W68437   3.811  18.861  11.484
 3453W        W68438  33.528  15.302  11.691
 3454W        W68439  44.606  19.999  14.448
 3455W        W68440  42.065  38.855  12.458
 3456W        W68441  22.723  27.978   4.075
 3457W        W68442  21.202  34.058   2.155
 3458W        W68443  12.604  29.055   1.317
 3459W        W68444  15.066  25.199   1.472
 3460W        W68445  13.856   3.163   3.995
 3461W        W68446  36.538  41.495   2.124
 3462W        W68447  38.572  15.893   0.696
 3463W        W68448  30.710  10.580  11.952
 3464W        W68449  41.423  34.258   0.631
 3465W        W68450  39.556  41.488  12.370
 3466W        W68451  36.207  42.380   1.785
 3467W        W68452  20.557  20.250   2.368
 3468W        W68453  26.695  22.460  13.820
 3469W        W68454  23.116  16.231   2.615
 3470W        W68455  24.134   7.352   0.381
 3471W        W68456  38.819  30.223   4.236
 3472W        W68457  19.561   2.764   4.872
 3473W        W68458  17.270  19.387  13.484
 3474W        W68459  15.709   4.729  14.296
 3475W        W68460  24.585   4.236  11.950
 3476W        W68461  33.648  21.238  10.234
 3477W        W68462  37.384  24.244   4.383
 3478W        W68463  33.863  32.965   1.305
 3479W        W68464  32.122  24.002  14.881
 3480W        W68465  31.211  17.616   1.500
 3481W        W68466  23.417  28.371   1.215
 3482W        W68467  14.170   9.241   2.151
 3483W        W68468   6.898   4.170   3.051
 3484W        W68469  27.767  29.871   0.300
 3485W        W68470  23.021  17.746  14.311
 3486W        W68471   1.553  13.793   4.223
 3487W        W68472  26.653  42.912   0.780
 3488W        W68473  14.177  26.446   0.379
 3489W        W68474  30.329  35.611  14.283
 3490W        W68475   0.705   5.967  11.236
 3491W        W68476  22.031  24.873   1.318
 3492W        W68477  43.090   1.271  13.859
 3493W        W68478  16.447  29.519   2.930
 3494W        W68479  20.521  37.661  13.860
 3495W        W68480  39.509   2.179   2.423
 3496W        W68481  30.411  38.965   4.088
 3497W        W68482  40.800   9.083  12.000
 3498W        W68483  40.330  21.769  12.391
 3499W        W68484  29.226  16.907  14.427
 3500W        W68485  13.241  23.032   4.379
 3501W        W68486   4.866  14.822  11.399
 3502W        W68487   8.002  33.497   0.969
 3503W        W68488   5.308  33.150  12.553
 3504W        W68489  19.377  32.005   4.595
 3505W        W68490   9.800  23.422  13.464
 3506W        W68491  10.625  22.037   2.247
 3507W        W68492  22.770   1.279  14.932
 3508W        W68493  23.119  12.256   1.427
 3509W        W68494  38.419  39.147   3.119
 3510W        W68495   7.439  10.754   2.459
 3511W        W68496  27.870  40.063   3.255
 3512W        W68497  21.300   7.231   1.710
 3513W        W68498  44.795  38.297   4.653
 3514W        W68499  21.340   5.332   1.681
 3515W        W68500   4.474  17.232   3.860
 3516W        W68501  18.762  22.244   3.453
 3517W        W68502  19.290  44.789  13.004
 3518W        W68503  36.333  22.777  14.041
 3519W        W68504  17.907  44.587  10.774
 3520W        W68505  19.261   1.438  12.355
 3521W        W68506  22.454  23.123   3.989
 3522W        W68507  29.975  10.878  13.210
 3523W        W68508  23.530   6.420   2.834
 3524W        W68509  27.397  43.931   2.126
 3525W        W68510  41.409   4.655  14.001
 3526W        W68511  17.717   7.805  10.589
 3527W        W68512  19.655  23.288  11.687
 3528W        W68513   0.013  21.265  13.149
 3529W        W68514  10.335   3.762  14.003
 3530W        W68515  39.516  41.329   0.009
 3531W        W68516   6.205  34.338   1.231
 3532W        W68517   4.486  30.086   3.122
 3533W        W68518  22.398  30.970   2.242
 3534W        W68519   0.272  18.882  12.831
 3535W        W68520  21.130   9.067  12.593
 3536W        W68521  27.178  44.387  13.379
 3537W        W68522  10.364   9.988  11.621
 3538W        W68523   1.784  27.135  13.543
 3539W        W68524  15.596  11.863   0.222
 3540W        W68525   9.992  40.999   1.106
 3541W        W68526  21.778  21.724   2.798
 3542W        W68527  40.475  42.469   4.871
 3543W        W68528  39.989  37.798  12.479
 3544W        W68529  41.024   7.143  14.051
 3545W        W68530  36.909  44.808  10.806
 3546W        W68531  28.673  17.720   3.124
 3547W        W68532   2.470   0.873  10.717
 3548W        W68533  28.571  36.377  13.688
 3549W        W68534  26.545  39.372   0.768
 3550W        W68535  35.923   7.203   2.740
 3551W        W68536  26.066   1.453  14.838
 3552W        W68537  35.216  44.102   3.840
 3553W        W68538  36.905   0.404   4.743
 3554W        W68539   5.668  20.774   0.799
 3555W        W68540  43.324  10.863  12.608
 3556W        W68541  30.847  34.586  10.762
 3557W        W68542   8.664  21.295  11.190
 3558W        W68543  30.123  10.647  11.936
 3559W        W68544  36.092  23.090  10.662
 3560W        W68545   3.187  16.775  11.644
 3561W        W68546  30.614  16.969   5.115
 3562W        W68547   4.224  32.631   4.374
 3563W        W68548  14.657  42.421   1.407
 3564W        W68549  13.693  17.208  14.940
 3565W        W68550  28.262  40.687  12.897
 3566W        W68551  27.211  23.662  12.094
 3567W        W68552  10.948  43.795  11.466
 3568W        W68553  34.624  18.485   3.220
 3569W        W68554  39.598   8.116   1.762
 3570W        W68555  42.574   0.541  12.255
 3571W        W68556  12.715  17.573  10.522
 3572W        W68557  27.140  23.512   0.929
 3573W        W68558  17.072  35.939  12.960
 3574W        W68559  43.300  37.643  14.985
 3575W        W68560  40.463  13.246  13.375
 3576W        W68561   2.845  17.785   0.330
 3577W        W68562  19.222  26.177  10.769
 3578W        W68563   7.921  44.692   0.369
 3579W        W68564  29.607  25.941   0.359
 3580W        W68565  42.408  21.411  11.692
 3581W        W68566   7.910  22.973  11.144
 3582W        W68567   5.978  14.764  14.189
 3583W        W68568   5.067  36.213  13.237
 3584W        W68569  18.087  16.904   3.828
 3585W        W68570  18.044  11.648  12.551
 3586W        W68571  28.223   4.691   4.011
 3587W        W68572  32.972  41.059  11.934
 3588W        W68573  28.493   3.409   2.669
 3589W        W68574  32.579  19.524  12.844
 3590W        W68575  23.607  35.551  13.495
 3591W        W68576  36.497  22.009  12.589
 3592W        W68577  12.663  15.203  13.418
 3593W        W68578  30.812  29.136  10.483
 3594W        W68579  34.002  14.571  11.418
 3595W        W68580   4.273   7.608  13.561
 3596W        W68581  36.397  37.396  10.577
 3597W        W68582  20.783  13.035  11.889
 3598W        W68583  18.162  32.499   4.589
 3599W        W68584  30.321  41.381   3.597
 3600W        W68585  21.250   0.504   2.260
 3601W        W68586  26.016  38.299   2.687
 3602W        W68587  26.210  28.136   4.557
 3603W        W68588   3.397   6.173   1.262
 3604W        W68589  40.570  41.045  14.788
 3605W        W68590   9.462  28.897  11.190
 3606W        W68591  28.650  29.454  12.374
 3607W        W68592  10.530  28.831  12.443
 3608W        W68593  39.892  41.532   4.154
 3609W        W68594  17.528   6.791  12.569
 3610W        W68595   3.945  16.014  11.177
 3611W        W68596  34.435  29.377  14.886
 3612W        W68597   8.225  34.630  13.942
 3613W        W68598  41.975  41.805   2.142
 3614W        W68599  22.945  42.915   3.468
 3615W        W68600   3.466   7.114  14.806
 3616W        W68601  16.193  41.975  10.455
 3617W        W68602   3.849  10.674  12.758
 3618W        W68603  21.841   3.001  13.247
 3619W        W68604  38.068  40.618  13.434
 3620W        W68605  37.996   7.638  14.344
 3621W        W68606  30.476  13.672   3.721
 3622W        W68607  40.358  28.550   1.362
 3623W        W68608  40.375  32.117   1.885
 3624W        W68609  16.302  12.435   3.168
 3625W        W68610  12.608  26.525  10.653
 3626W        W68611  15.869   2.854   1.791
 3627W        W68612  41.976  33.644   2.250
 3628W        W68613  25.510  25.265  12.405
 3629W        W68614  39.155   3.963   0.306
 3630W        W68615   7.787  28.337  10.605
 3631W        W68616  14.834  33.732  10.178
 3632W        W68617  34.050  19.832  13.971
 3633W        W68618   5.914   3.747  12.081
 3634W        W68619  31.886  16.093  14.783
 3635W        W68620  30.519  35.899  13.545
 3636W        W68621   1.260   9.480   2.765
 3637W        W68622  30.557  28.439  12.321
 3638W        W68623  40.459  36.116  11.987
 3639W        W68624  39.255  16.773   2.332
 3640W        W68625  23.998  33.369  12.169
 3641W        W68626  27.226  14.452  14.390
 3642W        W68627  38.891  22.688  11.876
 3643W        W68628  30.574  23.913   4.007
 3644W        W68629  28.433  17.582   2.709
 3645W        W68630  12.694  30.998   3.093
 3646W        W68631  34.607  14.934  13.865
 3647W        W68632  13.715   3.714   3.811
 3648W        W68633  22.905  37.510   0.343
 3649W        W68634  41.027  29.236  12.220
 3650W        W68635  44.228  13.734  13.911
 3651W        W68636  10.313  40.227  10.721
 3652W        W68637  38.986  11.967   4.221
 3653W        W68638  27.921   8.256  13.451
 3654W        W68639  15.755  14.110  13.544
 3655W        W68640  14.644   9.720   0.864
 3656W        W68641  13.159  24.160  12.622
 3657W        W68642  17.789  23.110   4.656
 3658W        W68643  13.371  11.833   2.189
 3659W        W68644   4.057  34.613   2.825
 3660W        W68645  24.395   4.320   9.984
 3661W        W68646  36.186  35.878   3.697
 3662W        W68647  10.337  22.505  13.486
 3663W        W68648  25.151  17.765  12.806
 3664W        W68649  28.571  12.838   1.371
 3665W        W68650  22.136  22.991  11.149
 3666W        W68651  17.828  37.997  14.533
 3667W        W68652  36.114  20.670  12.239
 3668W        W68653   9.443  10.168   0.517
 3669W        W68654  36.718  29.045  10.093
 3670W        W68655  43.959  10.183   0.606
 3671W        W68656  42.789  32.999  12.203
 3672W        W68657   8.794  28.552  12.895
 3673W        W68658   1.910  33.435   4.574
 3674W        W68659   4.299  20.384  14.014
 3675W        W68660   9.417   4.288  11.218
 3676W        W68661  39.105  36.141   1.333
 3677W        W68662  23.133  11.718   4.705
 3678W        W68663   1.652  39.407  12.660
 3679W        W68664  32.919  21.605  12.714
 3680W        W68665  15.404  13.018   4.094
 3681W        W68666  18.551  11.257  11.551
 3682W        W68667  18.634  43.417   0.564
 3683W        W68668   7.129  25.801  14.620
 3684W        W68669   2.911   8.836   0.819
 3685W        W68670  43.194   3.297   3.016
 3686W        W68671   2.901  10.134   0.982
 3687W        W68672  35.604  24.021   2.713
 3688W        W68673  41.450  23.555   1.182
 3689W        W68674  36.165  43.793   2.771
 3690W        W68675  37.089  28.902  12.360
 3691W        W68676  33.397  34.480  14.896
 3692W        W68677   5.425  17.369  14.886
 3693W        W68678   2.493  14.296  11.566
 3694W        W68679  12.117  18.114  11.160
 3695W        W68680  10.604  29.080  10.427
 3696W        W68681   5.447  37.672  12.571
 3697W        W68682  15.026  17.128  12.284
 3698W        W68683  25.063   6.053  10.363
 3699W        W68684  44.723  19.682   4.096
 3700W        W68685  23.993  31.547  14.049
 3701W        W68686  14.759   9.305  14.968
 3702W        W68687  21.620   7.312   5.079
 3703W        W68688  13.113   9.277  14.015
 3704W        W68689  16.647  12.857   0.847
 3705W        W68690  43.504  11.486  10.821
 3706W        W68691   6.757  31.599  12.913
 3707W        W68692  20.328  32.898   2.165
 3708W        W68693  14.022   0.219  14.890
 3709W        W68694  14.911  15.156  11.534
 3710W        W68695  27.614  12.834  10.409
 3711W        W68696  35.537  23.288   1.410
 3712W        W68697  31.923  43.332   3.304
 3713W        W68698  19.150  17.162   4.454
 3714W        W68699   7.305   2.214   2.199
 3715W        W68700  23.533   2.897   3.148
 3716W        W68701  16.338  30.816   4.449
 3717W        W68702  23.303  23.932   0.400
 3718W        W68703   8.082  32.429   2.338
 3719W        W68704  32.633   3.587   1.287
 3720W        W68705  28.508  31.040   3.736
 3721W        W68706  23.140  19.962  13.838
 3722W        W68707  42.755  13.607  11.514
 3723W        W68708  21.904  30.968  13.468
 3724W        W68709  36.288  14.179  13.883
 3725W        W68710  27.420   2.978  12.915
 3726W        W68711  16.687  28.114  10.461
 3727W        W68712   9.847   0.116  13.465
 3728W        W68713  21.664  18.143   4.740
 3729W        W68714  20.620   3.526  10.174
 3730W        W68715  30.628  36.032  10.784
 3731W        W68716  16.167   7.426  10.741
 3732W        W68717   6.413  36.120  13.943
 3733W        W68718  24.650   0.769  12.429
 3734W        W68719  11.767  44.985   2.784
 3735W        W68720  20.499  11.702   0.810
 3736W        W68721  37.948  19.834   1.930
 3737W        W68722  12.116   1.640  12.538
 3738W        W68723  38.646  43.933   3.628
 3739W        W68724  27.925  23.425  12.943
 3740W        W68725  37.716  39.481   3.225
 3741W        W68726  14.347  25.585   0.777
 3742W        W68727  15.228  28.953   1.420
 3743W        W68728  26.040  29.621   3.576
 3744W        W68729  11.820  37.998   4.064
 3745W        W68730   8.267  38.066   4.431
 3746W        W68731  21.774  32.650  13.093
 3747W        W68732  41.597  27.688   1.831
 3748W        W68733  34.087  26.324  12.948
 3749W        W68734  41.064  42.396  11.541
 3750W        W68735   3.816  25.561   1.773
 3751W        W68736   1.355  11.270  13.389
 3752W        W68737  32.509  28.017   0.060
 3753W        W68738  29.678  37.827  12.872
 3754W        W68739   8.547  12.738   1.258
 3755W        W68740  33.422  40.792  12.092
 3756W        W68741  30.909   4.204   3.896
 3757W        W68742  37.750  17.677  14.506
 3758W        W68743  14.899  10.732  12.600
 3759W        W68744  29.360  13.087  13.755
 3760W        W68745  25.000  42.584  11.554
 3761W        W68746   2.383  32.588  13.556
 3762W        W68747   6.787  38.813  12.016
 3763W        W68748   7.926  11.660   0.891
 3764W        W68749  12.216  15.789   1.677
 3765W        W68750  41.684  10.422  11.927
 3766W        W68751  18.533  36.009  13.443
 3767W        W68752  18.333  33.106  11.549
 3768W        W68753  32.634  25.607   3.696
 3769W        W68754   7.181  28.625  11.149
 3770W        W68755  27.694  22.061   0.264
 3771W        W68756  40.973  25.653  11.248
 3772W        W68757  32.879  10.804  12.399
 3773W        W68758  35.072   3.509   1.253
 3774W        W68759  19.780  18.046   4.079
 3775W        W68760  37.478   1.209   2.758
 3776W        W68761  29.736  29.324  11.988
 3777W        W68762  39.507  42.425  11.415
 3778W        W68763  13.765  37.405   5.028
 3779W        W68764  38.886  21.484  14.024
 3780W        W68765   6.591  28.438   3.324
 3781W        W68766  33.532  23.797  10.998
 3782W        W68767  44.945  33.785  11.925
 3783W        W68768   9.391  25.852  14.522
 3784W        W68769  16.034  39.424   1.696
 3785W        W68770  40.995  17.740   0.306
 3786W        W68771  20.249  32.508   4.783
 3787W        W68772  21.988  18.168   2.402
 3788W        W68773  36.438  14.736   2.362
 3789W        W68774  44.949  19.821  14.948
 3790W        W68775  30.785  39.991   0.866
 3791W        W68776  13.465   6.727   0.873
 3792W        W68777   5.350  30.734   2.476
 3793W        W68778  10.105  39.499   2.436
 3794W        W68779  17.532  42.889   1.168
 3795W        W68780  22.435   4.746  10.767
 3796W        W68781  38.236  17.660   1.782
 3797W        W68782  42.015  23.078   4.676
 3798W        W68783  32.556  39.364   2.148
 3799W        W68784  13.646  26.544   1.740
 3800W        W68785  41.965  39.049   2.994
 3801W        W68786  40.855  27.639   2.370
 3802W        W68787  39.317  31.333  10.688
 3803W        W68788  37.423  13.334   3.566
 3804W        W68789  11.551  14.765  10.501
 3805W        W68790   4.843  31.153   0.375
 3806W        W68791  38.577  36.072  12.742
 3807W        W68792  11.745  20.317   2.338
 3808W        W68793   3.933  19.503  10.627
 3809W        W68794  37.495  27.642   1.223
 3810W        W68795  38.028  16.617  12.821
 3811W        W68796  37.545   9.173   0.780
 3812W        W68797  15.720  38.400  12.037
 3813W        W68798  15.110  36.811   0.471
 3814W        W68799  34.690  39.772   2.759
 3815W        W68800  16.427  26.001  11.110
 3816W        W68801  25.808  41.889   2.653
 3817W        W68802  43.283   9.123   2.611
 3818W        W68803  15.077  32.672   3.836
 3819W        W68804  12.990   9.192  13.159
 3820W        W68805   6.852  38.153   4.210
 3821W        W68806  33.600   3.495  14.817
 3822W        W68807   2.330  22.509   3.623
 3823W        W68808  16.248   5.443   2.174
 3824W        W68809   0.876   4.272  10.693
 3825W        W68810  12.163   8.700  14.257
 3826W        W68811  24.477   3.069  10.298
 3827W        W68812  43.906  13.309   2.311
 3828W        W68813   2.778  27.688   1.976
 3829W        W68814  13.963   5.755  11.146
 3830W        W68815   3.845  20.543   2.704
 3831W        W68816  13.596  36.938   1.677
 3832W        W68817  39.943  30.492  10.599
 3833W        W68818  41.444  43.366   2.813
 3834W        W68819   8.383  12.216   4.881
 3835W        W68820  44.534  34.445   4.586
 3836W        W68821  44.006  41.382  10.999
 3837W        W68822  23.963  22.799  12.421
 3838W        W68823  21.369  22.686  11.181
 3839W        W68824  41.790  21.833  13.458
 3840W        W68825  12.121  17.751  14.337
 3841W        W68826  32.301  19.598  12.421
 3842W        W68827  40.383   5.909  13.819
 3843W        W68828  40.657  16.117  12.593
 3844W        W68829  21.575   6.478  12.256
 3845W        W68830  31.715  26.162   4.528
 3846W        W68831  41.432  29.937   3.152
 3847W        W68832  18.228  22.732   2.909
 3848W        W68833  42.859   4.810  12.094
 3849W        W68834  23.518  38.697   2.601
 3850W        W68835   4.966  38.899   0.255
 3851W        W68836  32.066   8.233   2.200
 3852W        W68837  31.651  38.249   4.716
 3853W        W68838  24.137  18.552  10.299
 3854W        W68839   7.712  40.236  10.818
 3855W        W68840  24.616  12.703  13.740
 3856W        W68841  29.902  16.699  11.856
 3857W        W68842  11.241   2.377   2.931
 3858W        W68843  28.578   2.053  13.788
 3859W        W68844  12.689   6.941  14.316
 3860W        W68845  13.936   2.247  11.141
 3861W        W68846  44.576  23.205   4.569
 3862W        W68847  17.548   8.864   5.305
 3863W        W68848  19.016   7.758  10.803
 3864W        W68849   8.463  24.996   1.394
 3865W        W68850  29.616  13.771  11.380
 3866W        W68851  27.646  34.291   4.796
 3867W        W68852  30.071  28.507   0.301
 3868W        W68853   0.307   5.371  12.958
 3869W        W68854   0.146   4.122  13.521
 3870W        W68855   5.343  27.392  14.617
 3871W        W68856  44.443   2.729  12.408
 3872W        W68857  38.612  21.674  14.469
 3873W        W68858  39.842   8.926   4.607
 3874W        W68859  41.385   7.304   3.612
 3875W        W68860  11.058  26.466  14.103
 3876W        W68861  28.412  16.832   4.538
 3877W        W68862  17.222   2.184   2.137
 3878W        W68863  44.496  44.836   2.218
 3879W        W68864  11.915  41.910   1.340
 3880W        W68865  36.503  38.468   0.291
 3881W        W68866   6.086  34.033  10.681
 3882W        W68867  20.268  18.713  14.982
 3883W        W68868  21.783  42.470   4.409
 3884W        W68869  20.229  42.888   0.364
 3885W        W68870  30.076  41.673   0.869
 3886W        W68871  40.122  26.167  14.774
 3887W        W68872   5.770  20.504  10.644
 3888W        W68873  44.405  11.289  13.389
 3889W        W68874  34.640  32.454  11.496
 3890W        W68875   7.727  37.508  14.895
 3891W        W68876  20.552  17.023   1.862
 3892W        W68877  17.048  43.381   4.614
 3893W        W68878  16.647  25.450   2.222
 3894W        W68879   2.639   3.761   0.224
 3895W        W68880  11.649  27.426   3.587
 3896W        W68881  27.080  31.930   3.149
 3897W        W68882  32.045  31.747  12.961
 3898W        W68883   5.767   0.019   2.234
 3899W        W68884  28.110   0.853  11.770
 3900W        W68885  42.302  43.829   4.271
 3901W        W68886  15.987  40.438   1.670
 3902W        W68887  17.135  15.058   4.162
 3903W        W68888  14.713  36.926  13.917
 3904W        W68889  30.460  29.864  12.078
 3905W        W68890  12.354  44.858  13.808
 3906W        W68891   9.721  38.647   0.835
 3907W        W68892  18.632  23.570   1.013
 3908W        W68893   0.316   2.392  12.985
 3909W        W68894  13.666  19.541   3.319
 3910W        W68895  21.124  22.230  13.979
 3911W        W68896  21.540  23.816   0.726
 3912W        W68897  32.402  10.296  11.678
 3913W        W68898  21.265  12.726   0.456
 3914W        W68899  28.324  14.092   4.135
 3915W        W68900  11.695  25.634  12.081
 3916W        W68901  15.348  43.381   4.231
 3917W        W68902  34.919  37.670  14.382
 3918W        W68903  43.332  18.213  13.880
 3919W        W68904  32.302  19.086  11.169
 3920W        W68905  20.304   3.186   3.323
 3921W        W68906  40.181  21.244  12.417
 3922W        W68907  42.043  25.557   0.751
 3923W        W68908  29.210  35.764  10.538
 3924W        W68909  34.125  16.537  11.537
 3925W        W68910  40.474  27.089  14.473
 3926W        W68911  36.068  30.345   2.380
 3927W        W68912  32.153  25.891   4.652
 3928W        W68913  39.303   1.653   2.409
 3929W        W68914  41.728  43.820  14.874
 3930W        W68915  10.379  37.613  11.995
 3931W        W68916  36.405  29.924  10.698
 3932W        W68917  36.654  40.626  11.971
 3933W        W68918  10.060  35.994  11.681
 3934W        W68919  23.975   6.995  14.443
 3935W        W68920  34.406   1.252   4.071
 3936W        W68921  18.986  40.225   4.474
 3937W        W68922   4.006  41.492  10.751
 3938W        W68923  25.504  19.476  12.307
 3939W        W68924  44.271  38.448   0.295
 3940W        W68925  12.342  11.686  11.047
 3941W        W68926  34.868  22.762   4.591
 3942W        W68927   1.646   9.880  14.003
 3943W        W68928  36.865   3.462  13.361
 3944W        W68929  32.078  23.536   3.218
 3945W        W68930  29.539  16.926   0.863
 3946W        W68931  32.611  20.168  14.743
 3947W        W68932  39.610  34.492  11.422
 3948W        W68933  25.263  39.005  12.323
 3949W        W68934  24.114  15.660  12.011
 3950W        W68935  34.598  12.362  12.876
 3951W        W68936  32.140   3.359   4.303
 3952W        W68937   4.554   9.611  12.193
 3953W        W68938  36.532  42.283   1.352
 3954W        W68939  14.908  37.036  13.447
 3955W        W68940  12.625   2.661   3.935
 3956W        W68941  27.487  12.232  12.154
 3957W        W68942  37.611   4.757  14.591
 3958W        W68943  39.320  21.000  12.628
 3959W        W68944  32.534  18.295   1.776
 3960W        W68945  30.485  29.004  10.847
 3961W        W68946   1.449  20.639   1.577
 3962W        W68947   2.842  27.888   3.696
 3963W        W68948  37.440   7.302   9.749
 3964W        W68949  14.736   2.581  14.966
 3965W        W68950   1.936   0.469  13.117
 3966W        W68951  32.976   2.599  11.860
 3967W        W68952  10.629   0.316   4.704
 3968W        W68953  18.706  31.160   0.394
 3969W        W68954  11.807  23.534   0.325
 3970W        W68955   1.981  29.908  13.392
 3971W        W68956  29.239  39.937  13.121
 3972W        W68957  10.191   5.250   4.169
 3973W        W68958  24.204   5.928  13.476
 3974W        W68959  40.913  15.030  10.228
 3975W        W68960  20.291  26.907  12.783
 3976W        W68961  15.489   0.937  14.975
 3977W        W68962   1.792  31.752  11.458
 3978W        W68963  18.738  43.396  13.038
 3979W        W68964  30.096   9.632   0.129
 3980W        W68965  22.235  19.331   1.270
 3981W        W68966  15.862  41.217  14.789
 3982W        W68967  32.919  20.964  13.342
 3983W        W68968  13.602   3.654   0.287
 3984W        W68969   7.811  34.862  13.409
 3985W        W68970  21.321  34.226  12.751
 3986W        W68971  37.426  32.910   0.002
 3987W        W68972  11.193  10.746   1.769
 3988W        W68973  14.622  25.393  14.973
 3989W        W68974   7.625   6.762  11.804
 3990W        W68975  40.517  33.830   3.634
 3991W        W68976  25.633   6.809   4.839
 3992W        W68977  43.045  36.968   3.264
 3993W        W68978   4.775  25.013   0.029
 3994W        W68979  10.506  26.167  11.628
 3995W        W68980  16.643  36.950  10.878
 3996W        W68981  27.928  35.393   3.319
 3997W        W68982   7.950  29.060  14.512
 3998W        W68983  17.948  35.373  11.506
 3999W        W68984  36.639  18.709  13.041
 4000W        W68985   1.487  32.812   3.589
 4001W        W68986  33.009   1.334   2.318
 4002W        W68987   8.903  30.539   0.080
 4003W        W68988  31.344  29.068  11.566
 4004W        W68989  28.424   8.420  12.548
 4005W        W68990  24.705  41.995  14.277
 4006W        W68991   9.010   9.750  13.080
 4007W        W68992   4.893  34.108  14.982
 4008W        W68993   8.846   2.364   3.676
 4009W        W68994  15.575  40.464  14.443
 4010W        W68995   4.695  20.822   0.915
 4011W        W68996  31.698  23.137  11.562
 4012W        W68997  32.568   5.139   0.854
 4013W        W68998   6.922  30.008  10.798
 4014W        W68999   9.760  22.015   0.726
 4015W        W69000  16.831  28.169   2.139
 4016W        W69001  28.039  38.360   1.906
 4017W        W69002   3.801  10.704  11.261
 4018W        W69003  36.611   3.877   3.732
 4019W        W69004  39.490   0.895   1.445
 4020W        W69005  41.240  37.991   3.788
 4021W        W69006  22.833  20.266   0.561
 4022W        W69007  26.512  12.853   2.214
 4023W        W69008  44.227  37.636   1.758
 4024W        W69009  32.670  11.684   0.804
 4025W        W69010  14.251   3.174  13.542
 4026W        W69011  42.823  14.371   2.271
 4027W        W69012  35.661  22.014  12.671
 4028W        W69013  32.559  32.950   1.847
 4029W        W69014   3.517  10.938  14.485
 4030W        W69015  41.867  41.441  11.939
 4031W        W69016   9.795  34.509   3.580
 4032W        W69017  12.831  33.520   5.008
 4033W        W69018  25.586  15.738   4.005
 4034W        W69019  29.553  31.485   5.563
 4035W        W69020  29.195   7.484   3.580
 4036W        W69021   2.921  24.276   2.490
 4037W        W69022  36.960  30.405  11.164
 4038W        W69023  37.784  40.549   3.624
 4039W        W69024  37.404  16.344  14.911
 4040W        W69025   3.165  33.409   4.128
 4041W        W69026  37.329  25.075   0.878
 4042W        W69027  23.700   9.616   4.154
 4043W        W69028   5.646   7.417   0.801
 4044W        W69029  36.851  10.284   3.071
 4045W        W69030  37.901  18.787  12.596
 4046W        W69031  22.986  42.833  12.373
 4047W        W69032   6.762  24.049   4.247
 4048W        W69033   5.953   6.416  13.592
 4049W        W69034  36.135  30.708   1.252
 4050W        W69035  33.285  11.554   2.721
 4051W        W69036  38.746  17.776  12.630
 4052W        W69037  33.415  12.834  13.124
 4053W        W69038   2.296  16.709   3.643
 4054W        W69039  12.873   9.659   2.746
 4055W        W69040  30.997   5.217  14.253
 4056W        W69041   1.589  37.916  11.467
 4057W        W69042  35.832  29.891   3.140
 4058W        W69043   7.310  20.868  13.079
 4059W        W69044  44.266  36.619  12.976
 4060W        W69045  34.111  18.611   3.356
 4061W        W69046   8.223  34.030  12.174
 4062W        W69047  32.196  36.690  14.567
 4063W        W69048  39.492   6.395   0.624
 4064W        W69049  23.436  41.994  11.983
 4065W        W69050  14.588  20.125   1.826
 4066W        W69051  31.940   3.717   4.613
 4067W        W69052  37.135   8.748   1.433
 4068W        W69053  42.131  16.192  11.643
 4069W        W69054  22.198  43.837  10.716
 4070W        W69055  30.989  25.244  14.236
 4071W        W69056   7.953  37.279   0.317
 4072W        W69057   3.660   9.264   3.704
 4073W        W69058  20.760  39.330   1.799
 4074W        W69059   4.479  27.510   3.584
 4075W        W69060  18.829  35.390  13.939
 4076W        W69061  13.291  21.044  13.931
 4077W        W69062  16.968   4.367  11.595
 4078W        W69063  44.226  44.677  14.426
 4079W        W69064  10.806  24.944  11.509
 4080W        W69065  16.624  39.141  13.830
 4081W        W69066  12.527  31.174  12.999
 4082W        W69067   8.315  19.319   4.653
 4083W        W69068  31.832  15.724   1.124
 4084W        W69069  22.255  10.003  13.081
 4085W        W69070  10.604  29.508  12.119
 4086W        W69071  40.560  13.901   3.129
 4087W        W69072   2.926  27.234   3.181
 4088W        W69073   4.111  16.794  11.791
 4089W        W69074   2.875  30.641  12.735
 4090W        W69075  29.883  34.710  12.509
 4091W        W69076  33.402   6.294   2.734
 4092W        W69077  18.395  44.771   0.444
 4093W        W69078  21.170  34.544  14.041
 4094W        W69079  37.323   6.809  11.053
 4095W        W69080  31.507  42.795  13.888
 4096W        W69081  25.561  14.047   1.872
 4097W        W69082  24.046  37.248   1.622
 4098W        W69083  14.637   1.800   3.287
 4099W        W69084  16.038   0.994  13.343
 4100W        W69085  28.738  33.605  10.292
 4101W        W69086   0.483  34.656   2.459
 4102W        W69087  20.287  24.055  13.874
 4103W        W69088  34.324  28.441   3.906
 4104W        W69089  11.500   2.387  12.680
 4105W        W69090  23.897  39.684   4.250
 4106W        W69091   0.637   7.528  10.298
 4107W        W69092  17.578  24.477  14.249
 4108W        W69093  34.918  25.219   0.521
 4109W        W69094  39.466  23.068   2.734
 4110W        W69095  42.856  20.950  10.023
 4111W        W69096  20.694  32.379  12.547
 4112W        W69097  26.150  38.907   0.397
 4113W        W69098  37.083  33.000   0.379
 4114W        W69099  12.459  24.731  12.980
 4115W        W69100   8.924   7.468  14.032
 4116W        W69101  33.959  23.644   3.120
 4117W        W69102  26.681  10.916   1.281
 4118W        W69103  42.134  41.844   0.521
 4119W        W69104   0.269  21.591   1.711
 4120W        W69105  27.826   5.653  11.757
 4121W        W69106  28.963  33.849  12.083
 4122W        W69107  33.539  24.153   1.754
 4123W        W69108  13.209   0.340   4.714
 4124W        W69109  25.748  25.775  11.904
 4125W        W69110  24.843  31.148   1.314
 4126W        W69111   4.328  11.189  12.411
 4127W        W69112  13.597  16.835   2.182
 4128W        W69113  31.221   1.200   2.276
 4129W        W69114   2.895  41.502  12.960
 4130W        W69115  15.344  14.776  14.352
 4131W        W69116  22.505  39.891   0.013
 4132W        W69117  12.524  18.073   0.374
 4133W        W69118  16.244   5.131   0.492
 4134W        W69119  36.080  37.824  14.762
 4135W        W69120  11.442  36.478  14.915
 4136W        W69121  24.120   8.912  12.588
 4137W        W69122   5.659   0.237  13.663
 4138W        W69123   8.354  23.099   3.893
 4139W        W69124  24.141  16.523  14.697
 4140W        W69125  33.508   3.704   9.978
 4141W        W69126  28.712  41.351   4.030
 4142W        W69127  15.283   8.043   1.752
 4143W        W69128  21.758  18.234  13.872
 4144W        W69129   5.536   1.397  13.042
 4145W        W69130  14.806  16.218   2.234
 4146W        W69131  10.375  37.876  13.513
 4147W        W69132   1.848   1.404   4.274
 4148W        W69133  25.056  41.016   4.963
 4149W        W69134  19.779  15.622   2.416
 4150W        W69135   0.217  10.769   1.659
 4151W        W69136  34.553  17.428   4.898
 4152W        W69137  21.281   8.699  13.058
 4153W        W69138  40.949  35.503   1.161
 4154W        W69139  38.778   9.625   4.194
 4155W        W69140  36.156  31.470  14.343
 4156W        W69141  12.470  19.359  12.636
 4157W        W69142  25.232  32.555   4.490
 4158W        W69143  29.078  10.119  12.320
 4159W        W69144  23.887  12.788  10.272
 4160W        W69145  43.838  23.754  11.993
 4161W        W69146   1.361  34.411   1.000
 4162W        W69147  39.750  24.074  14.295
 4163W        W69148  43.997  16.735   3.908
 4164W        W69149   1.896  38.367  10.730
 4165W        W69150  43.534  33.051   4.012
 4166W        W69151  40.200  38.303   4.646
 4167W        W69152  44.949  12.358   2.265
 4168W        W69153  31.134  25.002   2.786
 4169W        W69154   1.745  16.132  12.305
 4170W        W69155  32.855   2.930  11.085
 4171W        W69156  42.934  25.766  10.041
 4172W        W69157   4.777   4.187   2.649
 4173W        W69158  38.816  12.781   1.468
 4174W        W69159  29.626  42.392  14.687
 4175W        W69160  43.484  15.801   2.896
 4176W        W69161  26.502   7.362   3.784
 4177W        W69162   5.180   2.999  13.895
 4178W        W69163   4.385  20.018   0.813
 4179W        W69164  15.656  17.995  11.203
 4180W        W69165  39.057   7.129   2.610
 4181W        W69166  31.065   5.346  12.007
 4182W        W69167   5.332   6.709   1.830
 4183W        W69168  33.583  27.228  12.859
 4184W        W69169  25.065   5.395   4.555
 4185W        W69170  18.616  21.156   4.301
 4186W        W69171  27.672  40.493   4.579
 4187W        W69172  16.665  35.033  13.246
 4188W        W69173  29.482  11.518   4.058
 4189W        W69174  38.753   1.429  14.175
 4190W        W69175  11.197   7.695   2.275
 4191W        W69176  41.337  42.617   4.420
 4192W        W69177  42.478   2.787   2.737
 4193W        W69178  13.165  27.950  12.584
 4194W        W69179  43.519  39.997  11.081
 4195W        W69180  18.729  38.872  12.069
 4196W        W69181  43.702  21.581  12.349
 4197W        W69182  41.025  19.748   0.633
 4198W        W69183  26.399  23.783   2.628
 4199W        W69184   8.661  33.622  11.492
 4200W        W69185  42.061  37.717  11.610
 4201W        W69186  24.111  11.329   4.273
 4202W        W69187  38.491  22.661  14.076
 4203W        W69188  25.471  23.317   4.165
 4204W        W69189   9.815   0.540  14.771
 4205W        W69190   9.894  12.230   4.960
 4206W        W69191  20.719  35.606  12.888
 4207W        W69192  24.553   1.858   1.871
 4208W        W69193  25.884   1.427   1.790
 4209W        W69194  33.771  18.875  12.950
 4210W        W69195  31.597   4.159   1.002
 4211W        W69196   6.762   5.637  13.916
 4212W        W69197  17.554  34.749   1.321
 4213W        W69198   4.275  34.561   1.013
 4214W        W69199   2.865   2.880  14.329
 4215W        W69200  21.105  26.689   2.487
 4216W        W69201  35.028  12.600   3.268
 4217W        W69202  25.735  27.411   2.809
 4218W        W69203  30.117  31.815   3.610
 4219W        W69204   7.375  24.795  14.846
 4220W        W69205   3.651  15.543   1.334
 4221W        W69206   3.905  44.801   1.029
 4222W        W69207  32.774  36.412   2.437
 4223W        W69208  13.425   6.763  11.575
 4224W        W69209  24.602  33.572   0.516
 4225W        W69210   2.897  23.283  12.458
 4226W        W69211  33.329   0.425   3.303
 4227W        W69212  26.086  20.998   0.896
 4228W        W69213  17.817   5.380  13.114
 4229W        W69214   6.159  27.660  10.075
 4230W        W69215  33.281  32.511   0.797
 4231W        W69216  14.573  33.917   2.683
 4232W        W69217  25.003   8.304   0.818
 4233W        W69218  37.897  28.999  13.744
 4234W        W69219  14.823  21.672   1.277
 4235W        W69220  43.903  23.500   4.159
 4236W        W69221  38.954   4.330  13.320
 4237W        W69222   5.845  21.943   3.751
 4238W        W69223  31.057  33.376  11.062
 4239W        W69224  35.465  43.676   0.783
 4240W        W69225  41.055  19.907   0.049
 4241W        W69226  40.786  21.950   1.877
 4242W        W69227  43.308  32.606  13.429
 4243W        W69228  11.819  40.548  13.503
 4244W        W69229  12.185  39.811   4.732
 4245W        W69230  22.749  43.848  12.955
 4246W        W69231  39.499  35.429  14.786
 4247W        W69232  17.802  20.079   2.146
 4248W        W69233   2.846  11.735  13.083
 4249W        W69234  23.484  16.161   0.269
 4250W        W69235  34.387   6.136  14.835
 4251W        W69236  12.206  38.145   1.794
 4252W        W69237  41.514  16.790  13.983
 4253W        W69238  14.218   2.831   1.015
 4254W        W69239  24.684  16.123   4.531
 4255W        W69240  19.713  26.465  12.879
 4256W        W69241  15.378   2.768  12.376
 4257W        W69242  44.909   2.034   3.402
 4258W        W69243  17.217  18.240   4.670
 4259W        W69244  27.420  28.113   4.102
 4260W        W69245  14.122   2.261   4.077
 4261W        W69246  39.903  18.159   1.828
 4262W        W69247   1.421  33.832   1.851
 4263W        W69248   8.943  32.511   1.915
 4264W        W69249  27.416  40.651  11.002
 4265W        W69250  10.857  41.089   3.191
 4266W        W69251  12.327   8.113  11.401
 4267W        W69252  35.023  27.682  13.348
 4268W        W69253   9.597  42.813   1.067
 4269W        W69254  31.142   1.317  11.554
 4270W        W69255   4.937  28.967  12.090
 4271W        W69256  35.840  26.108  11.485
 4272W        W69257  16.579  25.491  10.475
 4273W        W69258  42.725  21.532   0.513
 4274W        W69259  28.859  16.969  10.978
 4275W        W69260  25.535  19.757   4.771
 4276W        W69261  10.401  10.884  13.492
 4277W        W69262  24.472  28.014  12.080
 4278W        W69263  24.423  37.580  13.900
 4279W        W69264  13.280   8.313  12.963
 4280W        W69265  38.013  34.255   4.733
 4281W        W69266   7.700  34.584  12.567
 4282W        W69267  34.106  12.984   1.183
 4283W        W69268   9.774  11.417   4.522
 4284W        W69269   9.133  31.914   1.823
 4285W        W69270   8.242   0.374   4.318
 4286W        W69271  35.322  24.259   2.346
 4287W        W69272  16.776  40.032   4.182
 4288W        W69273  33.104  17.760  11.436
 4289W        W69274  13.324  14.336  11.088
 4290W        W69275  33.290  26.747   2.570
 4291W        W69276  13.858  27.676  14.288
 4292W        W69277  34.881  14.217   4.966
 4293W        W69278  32.697  13.680  12.546
 4294W        W69279  24.045  41.852   3.652
 4295W        W69280  28.131  39.920  14.966
 4296W        W69281  28.417  22.642   4.585
 4297W        W69282  42.473  32.237   4.234
 4298W        W69283  25.301  44.794   3.387
 4299W        W69284   9.367  25.522   0.861
 4300W        W69285   0.010  19.730   4.530
 4301W        W69286  24.558   4.908  13.898
 4302W        W69287   8.949   4.788   3.779
 4303W        W69288   7.606  21.694   3.201
 4304W        W69289  25.474  15.815  14.951
 4305W        W69290  40.343  34.536  13.033
 4306W        W69291  43.586  36.820   2.808
 4307W        W69292  19.647  36.404   2.177
 4308W        W69293  38.804  29.592   1.419
 4309W        W69294  27.702  40.237  10.676
 4310W        W69295  22.037  30.659   2.786
 4311W        W69296  34.626   6.331   5.038
 4312W        W69297  16.673   0.865   3.148
 4313W        W69298  30.597  10.355  12.615
 4314W        W69299  35.922  34.419  11.433
 4315W        W69300  12.262  19.093   3.972
 4316W        W69301  30.685   9.650  13.030
 4317W        W69302  23.293  28.980   1.537
 4318W        W69303  30.758  13.688   1.460
 4319W        W69304  41.727  22.479   1.653
 4320W        W69305  34.376  37.960  10.691
 4321W        W69306  17.165  26.193   2.833
 4322W        W69307  32.342  32.433   0.915
 4323W        W69308  11.227  25.217  11.506
 4324W        W69309  27.698  29.746  14.077
 4325W        W69310  17.588  26.880   4.073
 4326W        W69311  32.839  23.085   1.334
 4327W        W69312  16.363  24.713  11.141
 4328W        W69313   1.610  14.673   4.659
 4329W        W69314  21.128  42.343   3.272
 4330W        W69315  20.993  13.659  10.725
 4331W        W69316  18.839  15.389  14.919
 4332W        W69317  28.016  30.662   2.547
 4333W        W69318  39.693  27.151  13.384
 4334W        W69319  27.007  26.690   0.725
 4335W        W69320  39.913   9.454   4.724
 4336W        W69321  18.730  14.067   0.279
 4337W        W69322  17.261  12.063   1.985
 4338W        W69323  31.221   8.374   4.528
 4339W        W69324  23.448   1.899  13.378
 4340W        W69325  32.219  44.943  14.852
 4341W        W69326   6.135   3.485  11.592
 4342W        W69327  20.737  11.742   4.127
 4343W        W69328  15.616  12.868  14.407
 4344W        W69329  12.063  11.278   1.630
 4345W        W69330   7.805  38.352  10.891
 4346W        W69331  27.556  35.484  10.714
 4347W        W69332  41.553  24.096  13.815
 4348W        W69333  20.079  43.441  13.030
 4349W        W69334   1.555   1.795   1.165
 4350W        W69335  15.148  42.314  14.070
 4351W        W69336  10.975  39.842  12.058
 4352W        W69337  43.730   2.108  12.232
 4353W        W69338   6.497  44.449   3.209
 4354W        W69339  28.847   9.135   3.628
 4355W        W69340  24.459  18.146   1.345
 4356W        W69341  16.749  42.946  10.198
 4357W        W69342   5.493  14.458   0.429
 4358W        W69343  15.309   6.708   0.790
 4359W        W69344  23.283  39.952   2.192
 4360W        W69345  42.879  23.579   2.736
 4361W        W69346  44.693  16.824  12.609
 4362W        W69347  30.518  39.777  10.952
 4363W        W69348   4.402  11.316  11.850
 4364W        W69349  16.212   8.214   0.472
 4365W        W69350   0.505  37.470   1.497
 4366W        W69351   6.957  40.203  12.495
 4367W        W69352  34.146  24.673   0.351
 4368W        W69353  13.327  35.881   3.066
 4369W        W69354   5.991  30.289   5.143
 4370W        W69355  25.983  28.973   0.019
 4371W        W69356  11.005   8.338  10.336
 4372W        W69357  25.179  39.935  10.749
 4373W        W69358  15.140  10.984   0.377
 4374W        W69359   5.797   0.666  13.382
 4375W        W69360  40.539  13.187   2.633
 4376W        W69361  12.694   6.573   4.541
 4377W        W69362  33.478  11.721   4.896
 4378W        W69363   0.003  26.548  11.612
 4379W        W69364   5.245  13.757   2.121
 4380W        W69365   1.774   7.276  10.743
 4381W        W69366  27.739  10.602   1.807
 4382W        W69367  25.585  38.497   4.678
 4383W        W69368  17.582  33.876   4.095
 4384W        W69369   6.959  31.137  12.875
 4385W        W69370  21.127  44.236  11.237
 4386W        W69371  12.230  21.042   3.387
 4387W        W69372  32.494  12.206   2.930
 4388W        W69373   4.853  42.945  11.067
 4389W        W69374  38.728  10.089  12.589
 4390W        W69375  26.630  31.524  11.669
 4391W        W69376  12.553  10.415   3.217
 4392W        W69377  20.831  33.390  14.795
 4393W        W69378  10.435   9.144   1.272
 4394W        W69379  11.612   1.844  10.962
 4395W        W69380  26.815  25.267   0.811
 4396W        W69381   6.126   2.663  12.159
 4397W        W69382  42.906  25.073  13.383
 4398W        W69383   9.807   1.110  13.628
 4399W        W69384  35.397   8.293   1.377
 4400W        W69385  21.703   5.033   2.153
 4401W        W69386   9.421  17.663   0.487
 4402W        W69387  18.301  10.728   4.602
 4403W        W69388  32.399  32.589   0.041
 4404W        W69389  25.466  20.637   3.684
 4405W        W69390  20.535  12.751  11.527
 4406W        W69391  16.617  22.786   3.797
 4407W        W69392   7.426  17.560  14.188
 4408W        W69393  38.502  41.036  11.109
 4409W        W69394  22.471  34.563  14.249
 4410W        W69395   3.305  16.730   3.697
 4411W        W69396  29.397  19.744   3.564
 4412W        W69397   2.128  16.045  11.466
 4413W        W69398   1.869  41.373   3.612
 4414W        W69399  41.067   6.826  12.540
 4415W        W69400  37.831  41.800   3.397
 4416W        W69401  13.394   4.644  12.962
 4417W        W69402  18.772  30.611  12.418
 4418W        W69403  12.112  11.064   4.505
 4419W        W69404  28.964   5.312  10.959
 4420W        W69405  44.960  39.724   4.435
 4421W        W69406  20.674  33.683  11.038
 4422W        W69407  12.524  28.431  10.000
 4423W        W69408  12.190  23.433  12.355
 4424W        W69409  41.846   6.911  11.257
 4425W        W69410  43.634  21.729  14.334
 4426W        W69411   8.772  30.383   2.955
 4427W        W69412  22.965   9.993   0.513
 4428W        W69413  14.593  11.984  14.670
 4429W        W69414  34.187  24.809  14.283
 4430W        W69415  39.342  32.538   0.676
 4431W        W69416   3.450  44.203  10.073
 4432W        W69417  16.062  36.091   1.293
 4433W        W69418  36.131  36.394  13.566
 4434W        W69419  20.705  37.804  14.689
 4435W        W69420  41.420  19.101  12.623
 4436W        W69421  21.120  31.159   4.600
 4437W        W69422  19.122  32.628   3.809
 4438W        W69423   8.631  28.000  13.901
 4439W        W69424   7.954   1.858   1.930
 4440W        W69425  24.221   1.664  10.946
 4441W        W69426  39.913  38.305   0.310
 4442W        W69427  38.885  25.742   2.679
 4443W        W69428   7.434  21.157  13.518
 4444W        W69429  36.524  38.108  13.560
 4445W        W69430  42.964  24.657  12.433
 4446W        W69431  36.978  22.161  11.545
 4447W        W69432  12.869   2.656  12.251
 4448W        W69433  22.047  31.573   4.124
 4449W        W69434   4.468  39.549   0.919
 4450W        W69435  12.904  21.254  11.777
 4451W        W69436  17.802  21.673  13.966
 4452W        W69437  36.393  14.660  14.028
 4453W        W69438  32.942  21.239  10.969
 4454W        W69439   2.856  36.023  13.193
 4455W        W69440  38.314   5.718  11.740
 4456W        W69441  16.003  20.259   1.220
 4457W        W69442  21.145  43.356  11.098
 4458W        W69443  27.093  15.090   4.465
 4459W        W69444   5.405  23.756  11.673
 4460W        W69445  30.063  24.648   4.145
 4461W        W69446  39.665  21.319   2.499
 4462W        W69447  41.915  21.540   1.933
 4463W        W69448  36.117  39.816  12.495
 4464W        W69449  16.801  35.867   1.306
 4465W        W69450  21.084  18.180   4.606
 4466W        W69451  13.532  31.803   3.310
 4467W        W69452  20.845  40.803  13.883
 4468W        W69453  27.473  38.103   3.586
 4469W        W69454   0.475   3.164  13.401
 4470W        W69455  10.348  26.247  12.671
 4471W        W69456   8.428  20.587  10.637
 4472W        W69457  11.898   8.567   1.264
 4473W        W69458  12.092  37.334  13.231
 4474W        W69459   0.351  44.674  12.280
 4475W        W69460  11.651  31.075  12.037
 4476W        W69461   0.353   2.249  11.593
 4477W        W69462   4.764  14.694   2.792
 4478W        W69463  12.385  36.757   1.246
 4479W        W69464   7.879  38.585   4.558
 4480W        W69465  18.516  18.299  13.480
 4481W        W69466  35.594  27.934  14.625
 4482W        W69467   4.910  43.431   0.059
 4483W        W69468  44.884   3.371   0.895
 4484W        W69469  37.522  43.914  11.403
 4485W        W69470   6.601  30.434  10.769
 4486W        W69471  13.341  38.838  12.051
 4487W        W69472  10.790  21.284  12.472
 4488W        W69473   8.802   2.746   4.014
 4489W        W69474  27.255   0.941  11.970
 4490W        W69475  37.845  30.014   4.410
 4491W        W69476  10.278  14.446  13.809
 4492W        W69477  33.295  28.007   1.635
 4493W        W69478  14.813   6.912   0.768
 4494W        W69479   9.127  40.967  11.945
 4495W        W69480  10.864  43.466   1.863
 4496W        W69481  28.197  22.473  13.139
 4497W        W69482  22.994  33.701   3.697
 4498W        W69483  44.495   8.354   2.875
 4499W        W69484   1.384  33.474  14.782
 4500W        W69485  32.516   6.189   2.427
 4501W        W69486  26.759  10.657   0.308
 4502W        W69487  34.537   0.979  13.530
 4503W        W69488  26.115  38.999  13.379
 4504W        W69489  15.264  11.033   2.270
 4505W        W69490  26.721  26.320  10.654
 4506W        W69491  12.065  21.542  14.091
 4507W        W69492  39.350  35.481   0.309
 4508W        W69493  24.509  11.718  12.182
 4509W        W69494  17.799  22.136  10.251
 4510W        W69495  33.397   5.659  13.251
 4511W        W69496   6.730  43.362   2.401
 4512W        W69497  30.071  43.047  11.890
 4513W        W69498  29.546  33.661  11.215
 4514W        W69499  18.956  28.476  11.357
 4515W        W69500  32.036  25.662  14.413
 4516W        W69501  28.112  26.942   3.991
 4517W        W69502   4.007   6.674  11.020
 4518W        W69503   6.760  18.721  11.647
 4519W        W69504  20.796  26.711   3.715
 4520W        W69505  31.484  21.071   3.221
 4521W        W69506  41.097  24.548   4.113
 4522W        W69507   0.122  20.034  10.147
 4523W        W69508  34.879   9.737   1.902
 4524W        W69509  11.905   3.215   0.962
 4525W        W69510  41.553   4.728  11.660
 4526W        W69511  19.546   3.862   3.334
 4527W        W69512   2.050  32.587   1.729
 4528W        W69513  23.110  11.106   4.058
 4529W        W69514  30.102  32.386   1.849
 4530W        W69515   0.000  36.979   3.633
 4531W        W69516  43.044  42.858  14.182
 4532W        W69517  31.586  26.941   3.168
 4533W        W69518   0.728  19.812  12.427
 4534W        W69519   9.806  38.860   3.666
 4535W        W69520  29.428  32.982   3.265
 4536W        W69521  44.435   3.369   1.216
 4537W        W69522  20.589   3.932   0.654
 4538W        W69523  22.230  10.129   3.764
 4539W        W69524  11.408  42.351   3.071
 4540W        W69525  12.093  23.772  13.096
 4541W        W69526  26.643  34.702   3.201
 4542W        W69527  12.470   3.567  13.215
 4543W        W69528  20.552   1.478   3.097
 4544W        W69529  33.101   0.685  14.436
 4545W        W69530  19.219  21.705  14.393
 4546W        W69531  17.192  25.920   1.828
 4547W        W69532  19.241  12.665  13.500
 4548W        W69533   7.207  35.199  11.156
 4549W        W69534  11.275  26.922  14.035
 4550W        W69535  22.700   7.154   2.905
 4551W        W69536   9.466  32.033   2.495
 4552W        W69537   4.197  37.549  12.505
 4553W        W69538  35.267  27.986  13.707
 4554W        W69539   8.309  27.118   3.575
 4555W        W69540  35.956   0.945  11.671
 4556W        W69541  36.349  42.752   4.020
 4557W        W69542  12.027  22.588   1.567
 4558W        W69543   4.724   8.890  11.115
 4559W        W69544  40.547  22.475  12.147
 4560W        W69545  25.199   6.432  12.890
 4561W        W69546  36.315   2.475   4.047
 4562W        W69547  30.926  43.173   4.442
 4563W        W69548  44.353   4.250  13.936
 4564W        W69549  23.213  30.252  12.456
 4565W        W69550  12.101  29.748  13.028
 4566W        W69551  36.351   1.483  12.863
 4567W        W69552  29.719   1.678   5.405
 4568W        W69553   0.447  22.493  11.168
 4569W        W69554  25.839   8.726  12.881
 4570W        W69555  30.850  18.756  13.063
 4571W        W69556  37.034  43.303  10.945
 4572W        W69557  33.461  22.364   2.674
 4573W        W69558  44.852   6.398  12.357
 4574W        W69559   3.341  28.974  13.938
 4575W        W69560   5.676  22.572  10.691
 4576W        W69561  16.250  42.436  10.687
 4577W        W69562  35.408  32.136  11.666
 4578W        W69563   2.708  44.951  11.511
 4579W        W69564  24.862   2.338   3.844
 4580W        W69565  43.854  36.350   3.575
 4581W        W69566  22.949  32.520  11.842
 4582W        W69567  25.462   8.362  12.914
 4583W        W69568   5.282  17.783   4.821
 4584W        W69569  38.952  14.325  11.015
 4585W        W69570  40.581  44.375   4.297
 4586W        W69571   2.214   7.922  12.538
 4587W        W69572   5.435   2.402   0.351
 4588W        W69573  21.195  34.594  10.519
 4589W        W69574  30.342  26.164   2.791
 4590W        W69575   8.199  12.307   3.673
 4591W        W69576   9.150  19.000  13.836
 4592W        W69577  13.052   5.346   2.004
 4593W        W69578  29.126  41.980  14.205
 4594W        W69579  27.964  21.066  12.888
 4595W        W69580  27.499  12.176   4.638
 4596W        W69581  26.688  10.166   0.894
 4597W        W69582  36.924  14.532   4.737
 4598W        W69583   6.420   9.388  12.124
 4599W        W69584  33.384   1.505   3.346
 4600W        W69585  40.719  24.713   4.965
 4601W        W69586  30.618  31.386  12.895
 4602W        W69587  32.848  29.901  12.925
 4603W        W69588  39.972  44.398  11.102
 4604W        W69589  23.504  21.805   3.197
 4605W        W69590  41.371  33.588  13.354
 4606W        W69591  37.133  35.129  14.936
 4607W        W69592  44.012   1.716   2.988
 4608W        W69593  23.992   6.199   2.779
 4609W        W69594   8.411  19.022  11.579
 4610W        W69595   9.795  44.460  12.090
 4611W        W69596  34.108  27.961   1.309
 4612W        W69597   8.315   0.757   2.980
 4613W        W69598  10.305  23.742   1.850
 4614W        W69599  17.653  40.829   2.789
 4615W        W69600  15.923   7.799   4.306
 4616W        W69601  20.032   6.778  14.290
 4617W        W69602  40.443  39.244   1.048
 4618W        W69603  14.744  11.337   4.841
 4619W        W69604  20.673  26.259  12.405
 4620W        W69605   2.084   5.577  14.823
 4621W        W69606  23.131   1.789   4.702
 4622W        W69607  38.274  21.783  11.150
 4623W        W69608  34.535   2.406  12.143
 4624W        W69609   2.667  15.045   2.786
 4625W        W69610  31.151  23.650  12.232
 4626W        W69611   6.202   2.090  11.453
 4627W        W69612  18.138  18.525  13.768
 4628W        W69613   9.784   8.166  14.583
 4629W        W69614  11.599  24.179   5.051
 4630W        W69615  14.816  12.188   3.393
 4631W        W69616  15.574   3.218  12.144
 4632W        W69617   0.571  25.913  13.843
 4633W        W69618   3.675   4.256  14.957
 4634W        W69619  21.059  20.223   2.434
 4635W        W69620  19.276  41.342   4.476
 4636W        W69621   1.952  36.026  13.959
 4637W        W69622  22.616  18.086  14.247
 4638W        W69623  25.194  13.271   1.470
 4639W        W69624  28.649  40.180   4.560
 4640W        W69625   1.437   6.524  10.733
 4641W        W69626  42.881  16.244  14.312
 4642W        W69627   4.013  37.906   2.458
 4643W        W69628  21.215  43.310   0.862
 4644W        W69629  19.913  27.906   2.552
 4645W        W69630  34.326  32.936   0.140
 4646W        W69631  39.001  35.113   0.508
 4647W        W69632  31.898   6.716  13.884
 4648W        W69633  39.357  31.517   4.387
 4649W        W69634   1.295  28.760  13.299
 4650W        W69635  28.575  18.448   0.416
 4651W        W69636  20.283   5.171   0.830
 4652W        W69637  14.723  23.546  14.217
 4653W        W69638  43.704  43.258  12.329
 4654W        W69639  21.642  24.960  11.483
 4655W        W69640   1.490  28.442   3.678
 4656W        W69641  42.590  11.282   2.971
 4657W        W69642   7.348  31.926  11.270
 4658W        W69643   3.753  26.934   3.582
 4659W        W69644  43.776  42.572   0.734
 4660W        W69645  43.811  32.410   3.581
 4661W        W69646  37.963  17.407   4.083
 4662W        W69647  26.456   2.924   3.271
 4663W        W69648  36.148   2.472   0.024
 4664W        W69649  22.221  24.199  11.500
 4665W        W69650  39.645   1.356   2.194
 4666W        W69651  16.343  27.220   4.071
 4667W        W69652  30.132  16.236  12.573
 4668W        W69653  44.257  38.521   4.152
 4669W        W69654   8.605   3.838  11.427
 4670W        W69655  35.950  17.318   0.860
 4671W        W69656  42.255   9.201  11.067
 4672W        W69657  40.707  22.613   0.956
 4673W        W69658  28.426  26.442  11.075
 4674W        W69659  34.848  26.396   0.079
 4675W        W69660   8.156  16.502  14.754
 4676W        W69661   5.844  33.537   1.622
 4677W        W69662   6.506  10.562  14.695
 4678W        W69663  43.085  21.124  13.728
 4679W        W69664  31.609  28.623   1.366
 4680W        W69665  38.540   8.349   2.314
 4681W        W69666  33.915   8.210  13.017
 4682W        W69667  24.577  19.592   4.456
 4683W        W69668   8.176   3.410  12.424
 4684W        W69669  32.413  13.182   0.905
 4685W        W69670   7.974   8.826   1.914
 4686W        W69671  27.148  11.320   4.822
 4687W        W69672  12.829  13.638   0.515
 4688W        W69673  32.315  32.510   2.581
 4689W        W69674  39.442  29.080  14.627
 4690W        W69675  29.019  42.366  11.780
 4691W        W69676  21.048  33.999  13.182
 4692W        W69677  33.464   2.698   2.122
 4693W        W69678   8.225  31.496   1.416
 4694W        W69679  42.930  36.872   0.836
 4695W        W69680   3.947  17.542  11.159
 4696W        W69681  28.498  27.437  13.907
 4697W        W69682  34.767  39.110  11.739
 4698W        W69683  44.788  27.003  11.622
 4699W        W69684  26.204  23.524  13.427
 4700W        W69685  20.985  29.996  10.698
 4701W        W69686   8.866  32.353   3.209
 4702W        W69687  42.856  22.096  14.756
 4703W        W69688   6.563  13.456  12.016
 4704W        W69689  11.508  37.330   2.718
 4705W        W69690   1.663   2.147   1.801
 4706W        W69691  12.222  29.436  12.658
 4707W        W69692  32.899   9.265  14.905
 4708W        W69693  19.267  16.125   1.529
 4709W        W69694  31.150  44.825   3.175
 4710W        W69695  18.565  13.064   0.342
 4711W        W69696  13.660  42.804   0.143
 4712W        W69697  41.950  18.654  10.608
 4713W        W69698   6.851   8.844   4.008
 4714W        W69699  11.058  38.505  10.667
 4715W        W69700  42.880  28.990   3.716
 4716W        W69701  41.627  29.600  10.293
 4717W        W69702  21.541  34.489  11.426
 4718W        W69703   8.106   1.571  13.778
 4719W        W69704   1.447  41.537  10.691
 4720W        W69705  23.133  33.359  14.737
 4721W        W69706  24.332  26.040   1.121
 4722W        W69707   2.928  23.590   0.139
 4723W        W69708  10.771  44.921  11.633
 4724W        W69709   3.056  12.649   1.440
 4725W        W69710  40.029   2.331   2.493
 4726W        W69711   8.411  20.520  14.494
 4727W        W69712  31.577  43.558  13.384
 4728W        W69713  17.161  20.877  12.174
 4729W        W69714  32.009  43.003   1.642
 4730W        W69715  15.144  31.561   4.728
 4731W        W69716  36.026  33.650   4.077
 4732W        W69717  18.758  36.947  13.980
 4733W        W69718  20.737  25.827   3.271
 4734W        W69719   4.286   6.017   1.900
 4735W        W69720  43.727   9.263  10.976
 4736W        W69721  44.836  27.456   1.641
 4737W        W69722  12.502   7.754   4.962
 4738W        W69723   5.749   4.575  12.127
 4739W        W69724  24.796   1.695   1.276
 4740W        W69725  32.644  16.623  11.584
 4741W        W69726  20.467  33.975  10.652
 4742W        W69727  14.521  14.859   0.798
 4743W        W69728   0.399  39.304   2.819
 4744W        W69729   8.748  16.129   1.071
 4745W        W69730   3.761  31.045  13.983
 4746W        W69731  43.203  12.468   0.867
 4747W        W69732   1.909  17.342   0.280
 4748W        W69733  39.946  23.516   2.384
 4749W        W69734  44.067  32.458   0.406
 4750W        W69735  43.528  15.594   0.820
 4751W        W69736  19.830  15.070  13.840
 4752W        W69737  34.872  44.303  10.652
 4753W        W69738  41.318  23.618  13.619
 4754W        W69739   1.798  23.093  11.109
 4755W        W69740  23.594  31.173   0.188
 4756W        W69741   8.376  41.818  11.019
 4757W        W69742  15.578  25.485   0.275
 4758W        W69743  41.308  12.295   2.822
 4759W        W69744   9.455  11.246  11.325
 4760W        W69745  16.645  31.193  13.310
 4761W        W69746  33.009  20.398   0.989
 4762W        W69747  21.866  40.600  12.424
 4763W        W69748  28.790  35.568  11.994
 4764W        W69749  24.157   1.081   2.293
 4765W        W69750   6.229  16.575   3.040
 4766W        W69751  38.012   5.634  14.507
 4767W        W69752  11.110  16.235   2.170
 4768W        W69753   5.632  29.397  11.930
 4769W        W69754  33.546  10.126   2.773
 4770W        W69755  34.422  43.695   4.342
 4771W        W69756  20.940  41.118   2.777
 4772W        W69757  15.686  34.466  13.063
 4773W        W69758   2.788   2.799   3.186
 4774W        W69759  33.904  40.335  11.227
 4775W        W69760   2.197  43.353   4.556
 4776W        W69761  32.731  19.008  12.906
 4777W        W69762  25.231  13.756  13.887
 4778W        W69763   2.101  28.670   3.655
 4779W        W69764  41.840  23.605  14.876
 4780W        W69765  35.554  18.721   4.393
 4781W        W69766  19.594  28.622  12.419
 4782W        W69767  36.825  29.074   2.436
 4783W        W69768  35.981  28.504   2.235
 4784W        W69769  41.300   8.726  10.743
 4785W        W69770  34.080  11.291  14.362
 4786W        W69771  42.522  31.859  10.805
 4787W        W69772  30.614  33.990   1.738
 4788W        W69773  16.761   9.945   0.355
 4789W        W69774   3.382   5.054   4.127
 4790W        W69775   9.674  10.794  10.916
 4791W        W69776  12.071  30.098  14.346
 4792W        W69777  26.413  43.532   2.748
 4793W        W69778   0.230  11.817  12.378
 4794W        W69779  22.465  14.007   3.661
 4795W        W69780   0.208  12.725   4.101
 4796W        W69781  15.932  24.222  13.956
 4797W        W69782  11.333  37.102   1.857
 4798W        W69783  11.203  37.378   2.291
 4799W        W69784   6.880  14.326  12.177
 4800W        W69785   8.792   7.361   0.435
 4801W        W69786   4.905  41.953  11.177
 4802W        W69787  27.613   4.828   3.237
 4803W        W69788  42.872   6.145   3.253
 4804W        W69789  10.515  44.342   1.949
 4805W        W69790   4.685  22.239  13.090
 4806W        W69791  44.288  26.764  13.943
 4807W        W69792  19.085   5.689   2.383
 4808W        W69793   4.858  22.207   3.183
 4809W        W69794  42.261  23.955  12.602
 4810W        W69795   2.699  13.626  13.042
 4811W        W69796  28.575  35.024   0.650
 4812W        W69797  10.540  16.042  13.472
 4813W        W69798   3.379   2.583   4.942
 4814W        W69799  23.478  10.904  14.294
 4815W        W69800  27.631  35.230   2.114
 4816W        W69801  30.028  14.270   1.795
 4817W        W69802  12.254   2.384  13.276
 4818W        W69803  25.214  44.977   1.453
 4819W        W69804  35.030  15.072  11.971
 4820W        W69805   6.200  32.146  14.545
 4821W        W69806  22.410   7.489   1.730
 4822W        W69807  39.331  23.247  14.289
 4823W        W69808  14.751  41.051  10.734
 4824W        W69809  26.564  11.750  14.079
 4825W        W69810  27.520  15.758  10.615
 4826W        W69811  40.003   3.153  11.049
 4827W        W69812   8.359  44.242  13.061
 4828W        W69813  19.312  42.354  12.792
 4829W        W69814   3.857  37.840  14.391
 4830W        W69815  19.147  31.926  14.018
 4831W        W69816  26.695   6.054   0.820
 4832W        W69817  23.789  33.606   3.125
 4833W        W69818  42.969  44.223   0.730
 4834W        W69819  33.688  28.505   0.381
 4835W        W69820  17.474  26.770  10.235
 4836W        W69821   1.759   1.904  13.070
 4837W        W69822  35.663  39.792  13.918
 4838W        W69823  41.776  29.506   2.374
 4839W        W69824   0.723  32.556  13.052
 4840W        W69825  27.171   2.136   3.243
 4841W        W69826   0.815  43.804   0.875
 4842W        W69827  13.383   1.940  13.414
 4843W        W69828   9.425  17.526   1.729
 4844W        W69829  31.432  23.548   4.552
 4845W        W69830  15.746  14.764   1.300
 4846W        W69831  34.191  29.908  11.989
 4847W        W69832  31.682  33.864   0.803
 4848W        W69833  34.037  30.120  12.561
 4849W        W69834   9.337   8.372   0.965
 4850W        W69835  23.631   4.275  13.051
 4851W        W69836  34.154  17.764  10.644
 4852W        W69837  16.583   1.049  14.581
 4853W        W69838  22.651  25.880  13.817
 4854W        W69839   6.677  26.633  11.027
 4855W        W69840  19.797   9.433  12.113
 4856W        W69841   5.364  28.033   2.643
 4857W        W69842  29.868  44.426   4.483
 4858W        W69843  14.237  39.985   2.253
 4859W        W69844  30.293  42.666   1.294
 4860W        W69845  34.149   7.079   0.830
 4861W        W69846  39.283  44.398   0.766
 4862W        W69847  21.865  30.830   3.472
 4863W        W69848  40.263   4.495   3.287
 4864W        W69849  27.201  26.489  14.728
 4865W        W69850  23.934  21.194  11.910
 4866W        W69851  12.650  34.971  14.825
 4867W        W69852   3.019  42.843  11.648
 4868W        W69853   0.413   0.024  10.809
 4869W        W69854  16.175  39.041   4.856
 4870W        W69855  35.578  26.048   3.917
 4871W        W69856   0.450  30.062  10.891
 4872W        W69857  38.168  37.192   5.520
 4873W        W69858  12.182  29.607  10.500
 4874W        W69859  30.209   0.085   1.236
 4875W        W69860  20.677  39.885  10.446
 4876W        W69861   6.178  29.929   2.118
 4877W        W69862   4.289  42.802  13.434
 4878W        W69863  39.638  36.485  12.182
 4879W        W69864  19.671  37.421   3.326
 4880W        W69865   4.970  19.322   0.843
 4881W        W69866  42.772  44.866  11.858
 4882W        W69867  29.139  36.840   4.191
 4883W        W69868   2.876   6.646  10.674
 4884W        W69869  18.998  42.840   0.853
 4885W        W69870  42.458  27.148  12.032
 4886W        W69871  42.775  29.458  13.876
 4887W        W69872   0.359  33.123   4.615
 4888W        W69873   9.215  21.007   3.690
 4889W        W69874  15.291  23.126   0.262
 4890W        W69875   5.408  38.091   3.822
 4891W        W69876  17.315  31.380  14.480
 4892W        W69877  25.498  44.842  12.612
 4893W        W69878  29.128  24.224  13.043
 4894W        W69879  23.077  33.607   4.548
 4895W        W69880   9.618   7.921  12.074
 4896W        W69881  15.085  44.159  13.820
 4897W        W69882  15.070  11.692   2.391
 4898W        W69883  20.136   9.099  13.062
 4899W        W69884  31.559  10.863  10.847
 4900W        W69885  44.545  32.886   2.821
 4901W        W69886  17.276  12.415  13.323
 4902W        W69887  34.398   6.389   3.744
 4903W        W69888   8.840   2.433   0.405
 4904W        W69889   6.320  33.883   0.939
 4905W        W69890  27.130  11.607  10.685
 4906W        W69891  16.269  16.387  14.290
 4907W        W69892   1.270  24.488  11.624
 4908W        W69893   2.456  44.947   2.316
 4909W        W69894  22.018  20.707  14.532
 4910W        W69895  19.336   4.867  10.711
 4911W        W69896   0.375  17.001  13.851
 4912W        W69897  12.055  31.916   4.720
 4913W        W69898   6.276  24.155  11.468
 4914W        W69899  42.802  16.514   0.374
 4915W        W69900  11.712  23.918   3.147
 4916W        W69901  27.676  17.343  14.537
 4917W        W69902   0.442   9.877  10.705
 4918W        W69903   2.972   5.340  11.317
 4919W        W69904   7.369  31.150  10.756
 4920W        W69905  17.669  34.633  11.004
 4921W        W69906   8.888  40.409   3.408
 4922W        W69907   8.115  23.253   2.238
 4923W        W69908  20.777  32.001  13.636
 4924W        W69909  18.151  40.848  14.974
 4925W        W69910  20.089  13.629  10.544
 4926W        W69911  15.739  35.096  13.289
 4927W        W69912   2.538  33.060  14.377
 4928W        W69913   3.425  23.850  14.306
 4929W        W69914  21.759  11.921   0.303
 4930W        W69915   5.346  43.667   1.817
 4931W        W69916  20.456  13.387  14.670
 4932W        W69917  18.379   7.892  14.509
 4933W        W69918  29.992   1.318   2.908
 4934W        W69919   4.207  41.541   1.220
 4935W        W69920  29.073  22.039   2.413
 4936W        W69921  37.245  24.015  10.903
 4937W        W69922  11.297  22.163  11.031
 4938W        W69923  33.421   0.338   2.334
 4939W        W69924  15.792  17.116   0.457
 4940W        W69925  10.610   9.817  10.986
 4941W        W69926  21.644  37.356   3.768
 4942W        W69927  31.613  23.050  13.888
 4943W        W69928  26.568   0.139  10.190
 4944W        W69929  18.731   8.923  11.564
 4945W        W69930   8.093  38.404   3.606
 4946W        W69931   7.076   9.274  10.504
 4947W        W69932   3.346  22.061   3.085
 4948W        W69933  37.569  33.510   5.106
 4949W        W69934   8.659   1.747   1.025
 4950W        W69935  26.704   0.014  14.326
 4951W        W69936  23.725  22.018   0.488
 4952W        W69937   6.718  30.152   1.444
 4953W        W69938  43.439  43.573   1.792
 4954W        W69939  42.351  24.332  14.949
 4955W        W69940  41.868  29.703  13.576
 4956W        W69941  37.061  23.776   0.382
 4957W        W69942  24.477  35.049  14.964
 4958W        W69943  38.476  30.129   2.102
 4959W        W69944   2.965  20.072  11.953
 4960W        W69945   5.525   3.634   1.270
 4961W        W69946  16.692   6.969   0.399
 4962W        W69947   6.264  33.370  12.445
 4963W        W69948  43.318  13.437  12.502
 4964W        W69949  22.078  31.107   1.327
 4965W        W69950  11.429  13.742   4.555
 4966W        W69951   4.968  24.806   0.464
 4967W        W69952  44.443  44.575   1.752
 4968W        W69953  27.176   9.161  13.039
 4969W        W69954  31.053  36.545   2.220
 4970W        W69955  19.040  27.501  12.310
 4971W        W69956   1.703  17.512   0.912
 4972W        W69957  25.245  32.882  12.467
 4973W        W69958  32.954  11.734  13.335
 4974W        W69959  17.813  37.554   1.229
 4975W        W69960  14.367  31.952   0.353
 4976W        W69961  38.914  14.806  13.142
 4977W        W69962  29.651   8.972   3.699
 4978W        W69963  29.098   8.241   3.390
 4979W        W69964   4.030  20.457   4.111
 4980W        W69965  40.815  12.192   2.960
 4981W        W69966   4.173   4.936  12.916
 4982W        W69967   4.744  42.821   1.478
 4983W        W69968  11.592   9.195   0.697
 4984W        W69969  25.487  12.867  12.052
 4985W        W69970  20.278  37.808   4.547
 4986W        W69971  19.198   1.682  13.029
 4987W        W69972  43.572  36.837   0.385
 4988W        W69973   8.642  32.758  10.906
 4989W        W69974  11.337  13.298  11.214
 4990W        W69975  17.076  36.119  13.908
 4991W        W69976   6.219  10.223  13.415
 4992W        W69977  29.605  27.079  13.915
 4993W        W69978  29.927  21.493   0.505
 4994W        W69979   6.787  19.778   3.272
 4995W        W69980  13.990  33.328  10.689
 4996W        W69981  21.649  36.928  12.047
 4997W        W69982   9.616  18.585   4.075
 4998W        W69983  16.781   6.933  12.004
 4999W        W69984   4.545  19.024   0.817
 5000W        W69985  16.912   6.265  14.994
 5001W        W69986  14.201  43.662   3.674
 5002W        W69987   5.202  39.977   0.768
 5003W        W69988  35.453  11.911  11.245
 5004W        W69989   4.504  41.394   4.133
 5005W        W69990  24.657  36.951  11.528
 5006W        W69991  24.508  15.832  12.285
 5007W        W69992   4.098  17.622  12.876
 5008W        W69993  20.812  20.362  13.874
 5009W        W69994  22.601  43.061   4.136
 5010W        W69995  36.044  15.829   4.152
 5011W        W69996  31.063  42.814  13.526
 5012W        W69997  15.307  20.369  11.901
 5013W        W69998  14.109  32.078   2.219
 5014W        W69999  14.510  21.269   0.350
 5015W        W70000  38.456   4.283   1.219
 5016W        W70001  43.629  25.777   4.988
 5017W        W70002  23.961  38.771  14.636
 5018W        W70003   2.303  38.904   3.716
 5019W        W70004   5.804  43.868   1.290
 5020W        W70005  16.691  25.116   3.036
 5021W        W70006  33.820  19.186  12.086
 5022W        W70007  36.954   1.660   1.988
 5023W        W70008  26.573  24.561   1.167
 5024W        W70009  12.911  18.748   4.597
 5025W        W70010  42.697   7.728  13.834
 5026W        W70011  16.712  31.176   4.571
 5027W        W70012   0.689  38.587   2.220
 5028W        W70013  31.077  28.935   4.570
 5029W        W70014  24.793   9.578  12.527
 5030W        W70015  39.015  16.964   5.494
 5031W        W70016  27.911  17.565   4.691
 5032W        W70017  35.019  23.744  11.159
 5033W        W70018  21.274  12.542  11.331
 5034W        W70019  38.493  40.037  13.576
 5035W        W70020  17.615   8.717   0.803
 5036W        W70021  40.192  32.070  11.722
 5037W        W70022  15.588  40.922   2.763
 5038W        W70023  31.635  22.765  10.739
 5039W        W70024  14.128  15.963  13.564
 5040W        W70025  42.850  37.504   4.321
 5041W        W70026  44.724  41.845   0.295
 5042W        W70027   5.270  41.919  12.360
 5043W        W70028  14.203  27.415   1.873
 5044W        W70029  34.095  40.105   1.422
 5045W        W70030  28.516  22.719  11.838
 5046W        W70031  16.578  40.085   3.304
 5047W        W70032  10.248  31.844  12.330
 5048W        W70033  31.882  35.999  11.616
 5049W        W70034  36.362  15.181   2.105
 5050W        W70035  15.821  10.666  13.350
 5051W        W70036   2.555   4.464  11.233
 5052W        W70037  25.543   0.773   0.228
 5053W        W70038   1.354  32.108   2.133
 5054W        W70039  44.503  16.290  10.838
 5055W        W70040  25.598  40.063   1.757
 5056W        W70041  17.331  35.698  12.586
 5057W        W70042   9.173  17.366   2.187
 5058W        W70043   4.236   5.452   2.742
 5059W        W70044  32.074  39.411  10.634
 5060W        W70045  32.195  39.688  12.542
 5061W        W70046  23.562  15.235  11.486
 5062W        W70047   9.348   4.353  12.661
 5063W        W70048  38.562  21.499  11.527
 5064W        W70049  26.583  42.195   0.899
 5065W        W70050  21.426   3.213  12.961
 5066W        W70051  33.385   0.999   3.307
 5067W        W70052  43.532  25.605  10.625
 5068W        W70053  28.151  26.879   2.046
 5069W        W70054  36.378  34.528  14.865
 5070W        W70055  38.951  26.728   3.149
 5071W        W70056  40.079   0.220  14.239
 5072W        W70057  31.545  31.719   2.571
 5073W        W70058  28.219   4.808   2.224
 5074W        W70059  18.788  41.635  12.536
 5075W        W70060  36.396  35.796   0.886
 5076W        W70061  26.749  14.648  14.643
 5077W        W70062  22.956  35.105   0.847
 5078W        W70063   2.647  19.183   1.322
 5079W        W70064  29.474  43.655   0.938
 5080W        W70065  43.263  44.395  13.581
 5081W        W70066  40.139   9.050   2.897
 5082W        W70067  14.111  34.063  12.561
 5083W        W70068   3.089  39.045   3.367
 5084W        W70069   9.741  14.144   3.215
 5085W        W70070   5.722  13.709   3.928
 5086W        W70071  29.512  37.938  10.616
 5087W        W70072  41.011  40.045   1.352
 5088W        W70073  29.194  19.521   3.131
 5089W        W70074  42.745  32.504   1.731
 5090W        W70075  41.265  30.557   1.881
 5091W        W70076  13.438  34.667  12.446
 5092W        W70077   9.189  18.267   0.694
 5093W        W70078  26.438  39.607   2.707
 5094W        W70079  42.532  42.116  12.352
 5095W        W70080   4.758  25.584   4.419
 5096W        W70081  42.109  19.049  11.529
 5097W        W70082  17.332  21.800  11.954
 5098W        W70083  37.959  34.555   2.658
 5099W        W70084  19.619  11.964   3.576
 5100W        W70085   4.479   5.271   4.568
 5101W        W70086  24.741  24.251  14.500
 5102W        W70087  42.803   6.645   4.117
 5103W        W70088  13.148  40.474  14.034
 5104W        W70089   5.189  24.903   1.094
 5105W        W70090  25.562  19.739   0.233
 5106W        W70091   7.166  19.149   2.824
 5107W        W70092   2.473   7.542  13.439
 5108W        W70093  12.355  27.204   1.869
 5109W        W70094   7.176  11.319   3.788
 5110W        W70095  29.419   3.338  14.320
 5111W        W70096   8.645  37.810  11.487
 5112W        W70097  20.419  35.115  11.290
 5113W        W70098  26.538  33.220   3.155
 5114W        W70099  13.844   1.453   1.791
 5115W        W70100  19.211  26.938   2.032
 5116W        W70101  29.405   2.357  13.467
 5117W        W70102  13.125  29.547   1.836
 5118W        W70103  13.248   7.011  12.669
 5119W        W70104  31.929   7.412  14.780
 5120W        W70105  13.102  42.760   3.652
 5121W        W70106  27.998  17.545   4.140
 5122W        W70107   3.678   7.358   4.231
 5123W        W70108  27.745  34.953  14.947
 5124W        W70109  21.086  41.309  13.915
 5125W        W70110   8.220  35.093  13.711
 5126W        W70111  38.858  14.914  14.914
 5127W        W70112  42.999  39.095   1.774
 5128W        W70113  10.649  31.422   1.777
 5129W        W70114  22.646  38.646  14.442
 5130W        W70115  39.484  21.632   0.965
 5131W        W70116   0.775  35.848   0.439
 5132W        W70117  44.011  28.710   3.190
 5133W        W70118  12.334  23.273   4.219
 5134W        W70119  15.335  21.470  14.626
 5135W        W70120  19.758  21.503  12.007
 5136W        W70121  16.744  11.742   3.992
 5137W        W70122   2.763  32.936  13.368
 5138W        W70123  32.088   7.344  14.297
 5139W        W70124  28.457  35.805   4.122
 5140W        W70125  43.048  26.417   3.320
 5141W        W70126  10.113  26.470   2.250
 5142W        W70127  20.092  11.356   0.931
 5143W        W70128  14.132  14.786  10.609
 5144W        W70129  39.324  32.584   4.173
 5145W        W70130  36.628  44.483  12.509
 5146W        W70131  16.941  19.621  10.903
 5147W        W70132   6.778  23.971   0.190
 5148W        W70133  35.574  32.541   2.453
 5149W        W70134  38.446  39.611  12.545
 5150W        W70135  32.389  42.298   1.771
 5151W        W70136  41.820  42.497   4.925
 5152W        W70137  24.814  42.845   1.639
 5153W        W70138  21.553  36.519  12.543
 5154W        W70139  38.770   6.825   1.795
 5155W        W70140  13.368  35.373   2.890
 5156W        W70141  22.515  25.493  14.919
 5157W        W70142  17.236  38.869   0.769
 5158W        W70143  44.894   3.549  12.783
 5159W        W70144  13.098  27.086   4.593
 5160W        W70145  19.882  18.830  10.618
 5161W        W70146  25.447  35.351   0.776
 5162W        W70147  44.344  17.672   2.222
 5163W        W70148   7.233  36.981  13.622
 5164W        W70149  30.440   0.243  14.831
 5165W        W70150   6.790  24.238  10.772
 5166W        W70151  34.551  16.368  13.145
 5167W        W70152   7.396   5.310   2.848
 5168W        W70153   7.305   5.345   0.257
 5169W        W70154   7.361   6.559   0.750
 5170W        W70155  28.592   6.349  13.874
 5171W        W70156  36.840   3.932   4.198
 5172W        W70157   9.909  16.851   2.964
 5173W        W70158   7.920   1.062   2.182
 5174W        W70159   8.611  34.984  14.047
 5175W        W70160  36.448  11.008  13.483
 5176W        W70161   4.880  32.158   1.186
 5177W        W70162   7.097  19.012   0.578
 5178W        W70163  40.328  18.134  14.361
 5179W        W70164  35.025  12.837   2.398
 5180W        W70165  30.501   7.918   3.179
 5181W        W70166  28.581  40.575  13.321
 5182W        W70167  24.037   1.894   1.862
 5183W        W70168  33.570  24.160   4.215
 5184W        W70169  33.240  30.884   2.774
 5185W        W70170   3.649  30.125   0.324
 5186W        W70171  31.520  22.542  14.044
 5187W        W70172  44.680  21.504  14.439
 5188W        W70173  11.738  18.216   2.877
 5189W        W70174  42.313  30.683   1.358
 5190W        W70175  36.399  38.441   2.858
 5191W        W70176   0.237  17.157   2.645
 5192W        W70177  26.086  34.340   0.232
 5193W        W70178  13.189  40.387  12.199
 5194W        W70179  12.854  15.484  11.504
 5195W        W70180  23.754  11.673  13.922
 5196W        W70181  39.270   0.420   1.189
 5197W        W70182  12.623  15.387  14.009
 5198W        W70183  15.887  20.717  12.467
 5199W        W70184  25.998   9.442  11.161
 5200W        W70185  14.610  15.655   4.553
 5201W        W70186  32.745   9.970   4.941
 5202W        W70187  44.548   8.904   4.626
 5203W        W70188  28.113  40.083  11.187
 5204W        W70189   0.348  15.808   4.371
 5205W        W70190  27.571   8.626  10.741
 5206W        W70191  24.690   1.299  14.393
 5207W        W70192   2.690   0.929  11.574
 5208W        W70193  18.554  30.056   1.853
 5209W        W70194  39.055  41.254  13.804
 5210W        W70195   4.307   3.477  14.650
 5211W        W70196  24.196  43.923   3.749
 5212W        W70197  19.640  37.105  11.032
 5213W        W70198  14.778  38.481  10.907
 5214W        W70199  28.548   6.686   3.669
 5215W        W70200  15.636  40.969  10.268
 5216W        W70201   4.628  23.429  11.296
 5217W        W70202  11.685   3.772  12.922
 5218W        W70203  36.360   5.573   3.695
 5219W        W70204  31.082  34.383   3.246
 5220W        W70205   7.605  14.643  13.495
 5221W        W70206  44.541  28.221   1.221
 5222W        W70207   1.882  34.188  11.146
 5223W        W70208  34.258  20.618  12.108
 5224W        W70209   8.655  23.928  12.391
 5225W        W70210  27.030  21.481  14.402
 5226W        W70211  39.022  22.122   3.787
 5227W        W70212  37.738  42.927   3.434
 5228W        W70213  23.693  22.210  10.929
 5229W        W70214  22.994   3.819  14.400
 5230W        W70215  34.157  21.008   4.662
 5231W        W70216  41.260  11.645   2.293
 5232W        W70217  43.913  25.114   3.894
 5233W        W70218  24.230  29.016   1.885
 5234W        W70219   4.855   7.748   0.820
 5235W        W70220  30.787  33.405  13.288
 5236W        W70221  41.599  31.538  13.090
 5237W        W70222  43.549  42.807   1.459
 5238W        W70223  37.856  38.163   2.231
 5239W        W70224  19.043  29.457   2.282
 5240W        W70225   2.560  38.063  13.944
 5241W        W70226  13.616   9.701  13.462
 5242W        W70227  34.072  44.386   4.859
 5243W        W70228   8.203  24.017  14.412
 5244W        W70229  43.223   0.227   3.149
 5245W        W70230  36.557   8.333   3.369
 5246W        W70231   4.957   9.278  10.088
 5247W        W70232   6.973   2.841  11.427
 5248W        W70233  16.022  31.590  13.154
 5249W        W70234   7.298   7.273   3.376
 5250W        W70235  34.657  12.244  13.363
 5251W        W70236  42.089   6.374  12.640
 5252W        W70237  19.533  11.167   1.315
 5253W        W70238   6.376  31.250  14.595
 5254W        W70239  26.382  41.575  11.261
 5255W        W70240   4.468  38.225  14.115
 5256W        W70241   4.016  17.078   4.083
 5257W        W70242  35.192   3.699  11.553
 5258W        W70243   3.956   3.636  11.852
 5259W        W70244   4.339  20.673   2.723
 5260W        W70245   8.375  32.354   3.376
 5261W        W70246  39.023   5.443  11.635
 5262W        W70247  37.390  35.893  11.933
 5263W        W70248  36.112   4.898   0.304
 5264W        W70249  16.649  18.401   1.339
 5265W        W70250  44.169  42.987  14.843
 5266W        W70251  19.182  11.970  12.324
 5267W        W70252   4.851   6.886   4.471
 5268W        W70253   3.908  18.328   1.766
 5269W        W70254   9.760   4.754   2.775
 5270W        W70255  40.311  30.052   3.124
 5271W        W70256   4.249  28.193   1.172
 5272W        W70257  43.333   7.462   1.995
 5273W        W70258  12.306  14.088  14.736
 5274W        W70259  37.983   5.225  13.495
 5275W        W70260  30.097  32.945   4.584
 5276W        W70261   0.778  31.475  11.413
 5277W        W70262  38.056  11.715   4.601
 5278W        W70263  20.533   5.198  12.989
 5279W        W70264  35.898  23.503   1.748
 5280W        W70265  34.661  24.917  11.993
 5281W        W70266  38.273  28.778  10.240
 5282W        W70267   1.167  23.480  12.969
 5283W        W70268  10.870  23.059   3.598
 5284W        W70269  27.950   8.893  10.494
 5285W        W70270  20.003  44.323   0.272
 5286W        W70271  29.374  10.682  14.480
 5287W        W70272   1.109  42.948  12.563
 5288W        W70273   7.352  16.775   2.709
 5289W        W70274  13.580  42.269  11.556
 5290W        W70275   7.218  13.069   2.845
 5291W        W70276  41.097  23.857   3.343
 5292W        W70277  41.402  40.801   3.559
 5293W        W70278  20.835  19.503   1.318
 5294W        W70279  42.426  37.037   0.890
 5295W        W70280  35.811  43.798   2.369
 5296W        W70281  39.611   3.974  11.101
 5297W        W70282  23.985  20.835   0.981
 5298W        W70283  38.861   6.364  14.181
 5299W        W70284  19.719  36.500   3.171
 5300W        W70285  28.086  19.526   0.884
 5301W        W70286   5.190  32.176  14.832
 5302W        W70287   8.253  21.823   2.373
 5303W        W70288  21.581   8.427  11.522
 5304W        W70289  37.944  15.569  10.828
 5305W        W70290   0.788  11.945  13.399
 5306W        W70291  36.919  28.860  13.798
 5307W        W70292  44.971  15.543  12.028
 5308W        W70293  33.427  26.372  14.957
 5309W        W70294  26.302  39.833  14.345
 5310W        W70295   5.334  44.484  13.682
 5311W        W70296  39.260  12.286  14.679
 5312W        W70297  38.833   1.834  14.499
 5313W        W70298   7.039  28.191  13.609
 5314W        W70299  38.471  41.920   3.720
 5315W        W70300   8.352  34.369   0.826
 5316W        W70301  26.388  31.420  14.281
 5317W        W70302  38.136   4.654  12.344
 5318W        W70303  39.287  17.687   1.726
 5319W        W70304   1.603  36.995   2.751
 5320W        W70305  39.348  23.962   1.646
 5321W        W70306  40.905  23.549   2.458
 5322W        W70307  37.885  35.377  10.215
 5323W        W70308  37.701  38.830  10.256
 5324W        W70309   3.588  20.244   3.963
 5325W        W70310  18.298  19.416  12.541
 5326W        W70311  25.196  39.984   1.369
 5327W        W70312  41.952   2.458   1.776
 5328W        W70313  43.198   9.604   2.949
 5329W        W70314   0.937  13.164   1.932
 5330W        W70315  32.949   2.304  11.460
 5331W        W70316  32.500  42.276  10.742
 5332W        W70317   0.725   9.736  11.580
 5333W        W70318  28.525   9.155   4.033
 5334W        W70319  29.609   9.805  14.923
 5335W        W70320  13.769  22.560   1.186
 5336W        W70321   7.389  18.212   1.345
 5337W        W70322  33.669  22.194  12.349
 5338W        W70323   6.887  16.283   1.666
 5339W        W70324  41.998  39.342  14.209
 5340W        W70325  20.459   7.098   3.171
 5341W        W70326  12.529   6.359   4.084
 5342W        W70327  20.257   9.195   2.850
 5343W        W70328   7.767  37.108  12.566
 5344W        W70329  20.706  21.570   4.324
 5345W        W70330  10.460  13.560  13.348
 5346W        W70331   0.527  38.135   0.251
 5347W        W70332   8.780  34.927   1.480
 5348W        W70333   0.677  35.930   2.706
 5349W        W70334   9.154  40.600   0.483
 5350W        W70335  32.588   5.129   4.669
 5351W        W70336   9.751  15.279  11.664
 5352W        W70337  11.035  33.484  13.467
 5353W        W70338   4.727  23.992   3.187
 5354W        W70339  18.241  28.503   4.127
 5355W        W70340   6.749  11.754   1.374
 5356W        W70341  26.562  20.303   1.236
 5357W        W70342  41.441  32.844   0.482
 5358W        W70343  17.348  12.099  14.786
 5359W        W70344  17.824  23.807  13.005
 5360W        W70345  28.031  37.575   2.257
 5361W        W70346  39.947  33.062  13.380
 5362W        W70347  37.483  15.277   3.978
 5363W        W70348  14.966  26.248   5.077
 5364W        W70349  34.319  18.185   3.700
 5365W        W70350  33.309  20.083  11.617
 5366W        W70351  36.639  22.509  13.492
 5367W        W70352  25.093  13.844   3.215
 5368W        W70353  10.797  44.823   4.495
 5369W        W70354  17.281  24.064  14.356
 5370W        W70355  28.463  34.638  13.945
 5371W        W70356  41.300  10.874   2.708
 5372W        W70357  19.107   9.021  10.296
 5373W        W70358  16.572   7.329   2.208
 5374W        W70359   2.163  35.786  14.466
 5375W        W70360   5.729  30.159   2.896
 5376W        W70361   7.194  13.160  11.029
 5377W        W70362   9.586  15.611  13.528
 5378W        W70363   4.694  44.266   3.646
 5379W        W70364  41.534  44.958  12.043
 5380W        W70365  24.529  22.691   0.212
 5381W        W70366  26.662  23.049   4.798
 5382W        W70367  14.343  15.903   4.183
 5383W        W70368  39.181  35.140  11.232
 5384W        W70369  13.445  19.338  11.217
 5385W        W70370   4.334  31.057  11.430
 5386W        W70371  40.937   0.610   4.890
 5387W        W70372  42.839   4.799   3.120
 5388W        W70373  41.217  13.416   4.211
 5389W        W70374   0.787  38.864   3.218
 5390W        W70375   9.754  19.000   3.275
 5391W        W70376  18.853  11.651   4.698
 5392W        W70377  38.608  38.510  10.431
 5393W        W70378   1.369   9.186  13.649
 5394W        W70379  21.016  20.000   1.209
 5395W        W70380  28.934  43.960   2.200
 5396W        W70381   0.638  36.072   0.888
 5397W        W70382  15.679  35.021  12.791
 5398W        W70383   9.739  10.946   2.749
 5399W        W70384  33.624  41.577  10.317
 5400W        W70385  40.885  40.820   3.153
 5401W        W70386  31.609  34.880   3.715
 5402W        W70387  39.411  26.788   1.017
 5403W        W70388  43.201  12.283   0.383
 5404W        W70389  37.593  19.769  11.022
 5405W        W70390  44.414  10.074   3.165
 5406W        W70391   7.571   4.077   1.768
 5407W        W70392  17.739  41.086  11.498
 5408W        W70393  42.727  30.897   4.095
 5409W        W70394   6.229  36.032   2.084
 5410W        W70395  15.827  44.059   2.082
 5411W        W70396  33.460  23.336  10.808
 5412W        W70397   5.964  29.006   0.460
 5413W        W70398  38.360  20.634   2.184
 5414W        W70399   7.288  12.083   1.797
 5415W        W70400  39.396   7.151  12.336
 5416W        W70401   6.067  40.106   3.767
 5417W        W70402  20.272  25.460   2.456
 5418W        W70403  30.583   8.067  13.844
 5419W        W70404  29.357   7.975  11.195
 5420W        W70405  21.577  12.333   4.197
 5421W        W70406  32.030   4.419   0.836
 5422W        W70407  21.756  34.925  11.622
 5423W        W70408  18.142   0.457   2.852
 5424W        W70409   5.712   9.017  12.585
 5425W        W70410  16.094   2.340  14.213
 5426W        W70411  28.418  18.723  14.946
 5427W        W70412  33.394  27.500   1.741
 5428W        W70413  26.732  24.753   2.803
 5429W        W70414  16.075  23.254  11.530
 5430W        W70415  23.146  16.506   3.144
 5431W        W70416  18.578  32.133  14.255
 5432W        W70417   8.651   8.839   1.355
 5433W        W70418   6.165  26.740  13.425
 5434W        W70419  26.405  19.169  12.989
 5435W        W70420  24.620  26.018  14.861
 5436W        W70421   6.099  17.607   2.788
 5437W        W70422  15.774   1.377   3.654
 5438W        W70423  20.117  25.756  11.202
 5439W        W70424  27.398  18.690   4.854
 5440W        W70425  41.316  33.958   5.393
 5441W        W70426  22.550   2.887  14.309
 5442W        W70427  12.465  14.390  12.982
 5443W        W70428   2.466  28.051  11.966
 5444W        W70429  33.376   6.882   1.011
 5445W        W70430  27.260  42.768  14.194
 5446W        W70431  42.047  26.567  14.081
 5447W        W70432  39.163   9.691   1.427
 5448W        W70433  38.037  12.280  12.108
 5449W        W70434  25.993  19.489  12.873
 5450W        W70435  22.692  24.025  11.620
 5451W        W70436  36.897  20.120  13.002
 5452W        W70437  41.152  34.823   3.200
 5453W        W70438  26.814  27.926  12.417
 5454W        W70439  44.981  29.543   4.218
 5455W        W70440  31.045  36.801  10.969
 5456W        W70441  31.609  32.393   3.800
 5457W        W70442   4.580  22.057  11.782
 5458W        W70443  24.592  18.038  13.992
 5459W        W70444   8.938  20.948   0.714
 5460W        W70445  12.245  24.471  11.368
 5461W        W70446  14.433  15.205  10.667
 5462W        W70447  16.970   0.171   3.324
 5463W        W70448   6.070  13.383  12.105
 5464W        W70449  31.530  12.945  12.426
 5465W        W70450  30.607  11.719   1.392
 5466W        W70451  21.621  31.196   0.560
 5467W        W70452  15.950  34.881   2.778
 5468W        W70453  32.423  41.174   3.789
 5469W        W70454   4.668  43.741   0.439
 5470W        W70455  10.323  10.651   0.222
 5471W        W70456  28.890   0.351  11.018
 5472W        W70457   5.210  36.971   3.694
 5473W        W70458  16.532  10.077   1.904
 5474W        W70459  20.697   8.240  11.097
 5475W        W70460  26.037  17.314  12.882
 5476W        W70461  32.659  18.037   3.209
 5477W        W70462  29.121  41.307  11.019
 5478W        W70463   7.301  13.111   1.853
 5479W        W70464  19.573  33.938   4.600
 5480W        W70465  35.569  41.334  13.991
 5481W        W70466  10.798  32.947  14.226
 5482W        W70467  15.557  36.826   2.385
 5483W        W70468   4.891  29.999  10.451
 5484W        W70469  28.085  23.721   0.811
 5485W        W70470  22.107  33.178   4.284
 5486W        W70471  24.034  13.178  11.405
 5487W        W70472  29.167  25.010   4.110
 5488W        W70473   2.247   7.373   0.568
 5489W        W70474   9.398  16.360  12.490
 5490W        W70475  21.739   6.716  11.166
 5491W        W70476  35.980   5.816  12.038
 5492W        W70477  41.736  19.271  14.367
 5493W        W70478  12.862  21.113   3.142
 5494W        W70479  37.127   1.891  13.861
 5495W        W70480  44.915  13.339   3.630
 5496W        W70481   5.378  12.432  10.768
 5497W        W70482   8.686  35.051   5.101
 5498W        W70483  13.697  40.837   2.478
 5499W        W70484  44.507   5.661  12.033
 5500W        W70485   8.358   3.595  12.880
 5501W        W70486  10.643   9.108  13.941
 5502W        W70487  33.128  22.412  14.447
 5503W        W70488  27.839  39.415   2.359
 5504W        W70489  42.964  37.418   1.260
 5505W        W70490  38.593   6.747   1.299
 5506W        W70491  43.336  21.684  10.766
 5507W        W70492  34.579   4.533  10.660
 5508W        W70493  39.917  16.255   3.504
 5509W        W70494  21.268  26.009   0.708
 5510W        W70495  18.632  14.361  13.962
 5511W        W70496  13.726  27.731   2.835
 5512W        W70497  27.448  34.521  14.946
 5513W        W70498  13.075  39.269   3.702
 5514W        W70499  17.933   9.309   3.415
 5515W        W70500  34.000  32.040  11.177
 5516W        W70501  33.338  40.334   2.142
 5517W        W70502  16.624  35.612  11.227
 5518W        W70503  25.971  14.339   3.171
 5519W        W70504   8.679  11.304   2.351
 5520W        W70505  11.277  30.585   4.157
 5521W        W70506   4.783  19.135   0.337
 5522W        W70507  13.712  13.277   1.652
 5523W        W70508   5.851  33.428  13.386
 5524W        W70509  11.657   3.885   3.229
 5525W        W70510  15.248  41.058  10.612
 5526W        W70511  30.162   2.417   3.855
 5527W        W70512  12.816  22.767  11.757
 5528W        W70513   0.480   5.516   0.328
 5529W        W70514  25.592  29.387   5.362
 5530W        W70515   7.644   2.206  14.953
 5531W        W70516   3.225  32.653   1.703
 5532W        W70517  44.414  30.669   2.387
 5533W        W70518  30.096  16.820   0.869
 5534W        W70519  14.249   4.193  13.079
 5535W        W70520  44.940  30.209  11.130
 5536W        W70521  11.336  44.452  14.796
 5537W        W70522  33.487  23.478  14.964
 5538W        W70523  28.706   8.612   3.506
 5539W        W70524   3.207  16.179  14.540
 5540W        W70525  20.283  15.661   9.998
 5541W        W70526  19.372  17.118   3.985
 5542W        W70527  32.591  35.479  14.541
 5543W        W70528  36.915  18.520   4.678
 5544W        W70529  24.983  38.372  11.183
 5545W        W70530  15.134  36.111  14.781
 5546W        W70531  12.010  29.418  14.850
 5547W        W70532  24.695  33.117   3.274
 5548W        W70533   7.151  43.589  12.581
 5549W        W70534   6.222  24.079  13.359
 5550W        W70535  24.543   3.957  13.307
 5551W        W70536   7.434  30.248   0.234
 5552W        W70537  32.666  20.589   2.508
 5553W        W70538  41.038  41.578   2.936
 5554W        W70539  22.083  42.799  14.761
 5555W        W70540   5.454  35.451  10.679
 5556W        W70541  20.526  12.715  13.636
 5557W        W70542  13.267  43.430   4.332
 5558W        W70543  22.063   8.356  11.065
 5559W        W70544  19.282  37.016  14.005
 5560W        W70545   8.604  10.439   2.206
 5561W        W70546   3.600  27.994  11.103
 5562W        W70547  42.041   4.653   4.716
 5563W        W70548  39.772  13.759   0.233
 5564W        W70549  43.122  22.498  11.020
 5565W        W70550   2.194   1.291   1.812
 5566W        W70551  30.621  13.221  11.501
 5567W        W70552  27.424  36.413  11.635
 5568W        W70553  36.778   6.717   3.768
 5569W        W70554  26.160  34.537   4.150
 5570W        W70555  36.554  41.530  14.022
 5571W        W70556  25.017  42.109   3.006
 5572W        W70557   9.263   8.905   3.156
 5573W        W70558  23.422   5.057   4.513
 5574W        W70559   5.705  24.301   3.335
 5575W        W70560  30.807  16.750   1.142
 5576W        W70561  18.624  13.417   2.638
 5577W        W70562  21.605  27.203  11.956
 5578W        W70563  41.895  15.715  11.611
 5579W        W70564  19.812   2.629  12.635
 5580W        W70565   3.811   9.355  13.437
 5581W        W70566   5.141   3.824  14.520
 5582W        W70567  13.813  43.993   3.710
 5583W        W70568  17.169  39.542   2.743
 5584W        W70569  40.605  16.533  14.395
 5585W        W70570   1.246  27.018  10.585
 5586W        W70571  18.088  14.620   1.757
 5587W        W70572  11.793   4.996  13.639
 5588W        W70573  24.266   8.652  14.859
 5589W        W70574  12.434   5.644  14.013
 5590W        W70575  35.078  27.586   3.779
 5591W        W70576  13.358  11.773  12.573
 5592W        W70577  34.137  34.519  13.421
 5593W        W70578  17.645  39.846   1.595
 5594W        W70579   4.733  13.708   1.853
 5595W        W70580   6.793  18.419  13.479
 5596W        W70581  34.672  19.160   4.475
 5597W        W70582  38.299  31.079  14.575
 5598W        W70583  17.481   7.539   4.512
 5599W        W70584  22.710  22.157   0.236
 5600W        W70585  27.753  42.660  14.349
 5601W        W70586  25.324  24.357  13.948
 5602W        W70587  23.112   2.464   3.096
 5603W        W70588  10.074   5.750  14.745
 5604W        W70589  31.481  32.741   2.832
 5605W        W70590  20.719  36.148  14.461
 5606W        W70591  13.036  35.105   4.072
 5607W        W70592   4.628  15.273  11.543
 5608W        W70593  22.757  11.082  12.358
 5609W        W70594  35.147  44.501  14.791
 5610W        W70595  40.548   5.929   4.560
 5611W        W70596  36.291  13.399   0.770
 5612W        W70597  30.663  11.793   0.269
 5613W        W70598  41.041  43.149  13.197
 5614W        W70599   5.356  34.366  11.519
 5615W        W70600   1.251  16.434  10.626
 5616W        W70601  19.294  20.231   1.648
 5617W        W70602  44.015  23.636   1.140
 5618W        W70603   1.141  37.816  11.222
 5619W        W70604  37.081  26.051   3.905
 5620W        W70605  25.488  27.249   0.023
 5621W        W70606  24.224   9.523   4.222
 5622W        W70607   5.837  14.651  12.881
 5623W        W70608   7.697  13.955   2.749
 5624W        W70609  22.355  36.944   4.863
 5625W        W70610  25.539  40.507  12.173
 5626W        W70611  18.906  24.514   1.035
 5627W        W70612  40.346   8.792   5.060
 5628W        W70613   9.608  32.985  11.065
 5629W        W70614  43.510   4.524   2.365
 5630W        W70615  24.566  11.671   5.137
 5631W        W70616   2.334  42.461  14.679
 5632W        W70617  13.335  29.165  14.058
 5633W        W70618  23.651   5.606  11.380
 5634W        W70619  25.155  43.191   0.857
 5635W        W70620  22.466  25.824  11.903
 5636W        W70621  28.789   3.836  11.947
 5637W        W70622  30.385  42.466   1.807
 5638W        W70623  25.798   8.851   0.635
 5639W        W70624   1.899   4.875   4.536
 5640W        W70625   8.815  20.709   1.530
 5641W        W70626  11.578  12.116  12.866
 5642W        W70627  18.738  10.388  12.890
 5643W        W70628  35.433  41.096  13.533
 5644W        W70629  36.357   4.129  14.364
 5645W        W70630  25.143  28.925  14.775
 5646W        W70631  13.664  20.689  11.957
 5647W        W70632  17.162  39.460  12.532
 5648W        W70633  17.284  15.200   1.084
 5649W        W70634  20.790  16.590   4.264
 5650W        W70635  38.946   5.185   2.804
 5651W        W70636   8.876  13.600   1.234
 5652W        W70637   7.272  33.963   4.128
 5653W        W70638  16.220  30.621   1.932
 5654W        W70639  32.841  42.248   0.985
 5655W        W70640  35.534  24.323   4.935
 5656W        W70641  11.115  31.743   3.239
 5657W        W70642  20.038  40.742  10.773
 5658W        W70643  42.632  28.765   1.349
 5659W        W70644   2.472   3.904  12.498
 5660W        W70645   5.944  29.046   3.791
 5661W        W70646  11.981  26.674  11.989
 5662W        W70647  35.388  27.578  12.971
 5663W        W70648  18.326  24.562  12.202
 5664W        W70649   0.570  33.187  12.543
 5665W        W70650  36.461  34.346   3.760
 5666W        W70651   3.319  41.659   4.668
 5667W        W70652  10.916  31.956   2.033
 5668W        W70653   8.909  24.689  11.014
 5669W        W70654  25.459  16.034   0.457
 5670W        W70655  21.078  22.519   0.758
 5671W        W70656  23.089  17.021   3.904
 5672W        W70657  44.855  42.091   2.866
 5673W        W70658  27.426  39.022  13.254
 5674W        W70659  19.198   8.329   3.800
 5675W        W70660  43.448  28.388   1.811
 5676W        W70661  32.623  34.069   2.473
 5677W        W70662  44.801   4.359   4.513
 5678W        W70663   8.493  17.726   0.818
 5679W        W70664  35.011  10.854  13.497
 5680W        W70665  12.609  37.467  11.918
 5681W        W70666   0.995   6.778  10.916
 5682W        W70667  31.363   1.324   0.435
 5683W        W70668  32.246  41.821  14.419
 5684W        W70669   9.734  27.697   4.442
 5685W        W70670  20.701   5.656   0.921
 5686W        W70671   6.140  43.806  14.921
 5687W        W70672  34.695   7.738   2.521
 5688W        W70673  27.260  19.048  11.593
 5689W        W70674  32.089  32.459  14.064
 5690W        W70675  40.087  39.351  14.330
 5691W        W70676  25.365  34.529   4.550
 5692W        W70677   5.348   9.336   4.116
 5693W        W70678  11.058  29.239  11.217
 5694W        W70679  34.188  22.211  11.448
 5695W        W70680  19.299  15.788   2.214
 5696W        W70681  41.373  24.479  12.443
 5697W        W70682   9.779  11.403   1.262
 5698W        W70683  29.630  39.784  14.815
 5699W        W70684   3.873  22.258  13.810
 5700W        W70685   4.357  39.044   0.854
 5701W        W70686  27.177  25.192   0.377
 5702W        W70687  27.380  11.099  14.854
 5703W        W70688  13.306  27.318   0.813
 5704W        W70689  17.735  42.072  13.037
 5705W        W70690  27.665  37.564  14.496
 5706W        W70691  18.519  27.623   2.762
 5707W        W70692  37.521  29.964   1.301
 5708W        W70693  27.030  28.777  11.564
 5709W        W70694   0.192  39.615  13.463
 5710W        W70695  10.965  21.259   2.653
 5711W        W70696   0.813  30.181  13.514
 5712W        W70697  39.531   4.187  11.602
 5713W        W70698   4.800  29.012  14.053
 5714W        W70699  42.428   0.944  14.553
 5715W        W70700  11.138  15.561  13.852
 5716W        W70701  35.338  36.493   1.240
 5717W        W70702  21.557  42.163   0.351
 5718W        W70703  12.149  20.639  11.122
 5719W        W70704  13.892  21.705  14.368
 5720W        W70705  18.273  14.532  10.779
 5721W        W70706  27.848  33.214   1.752
 5722W        W70707   4.831  12.388  11.564
 5723W        W70708  33.416  22.495  13.155
 5724W        W70709  11.137  14.313  14.790
 5725W        W70710  20.679  30.298   3.901
 5726W        W70711  34.104  32.758   2.148
 5727W        W70712  34.859  23.173  12.265
 5728W        W70713   8.837  16.668   0.932
 5729W        W70714  20.510  16.546   0.946
 5730W        W70715  41.366   5.586  11.252
 5731W        W70716  31.989  35.922   0.819
 5732W        W70717  17.155  30.383  14.808
 5733W        W70718  41.693  13.298   4.067
 5734W        W70719  18.837  44.510  12.536
 5735W        W70720  30.534   3.974   3.632
 5736W        W70721  44.549  16.249   1.459
 5737W        W70722  20.487  23.283  12.549
 5738W        W70723  33.543  41.556   0.919
 5739W        W70724  36.506  19.106   0.277
 5740W        W70725  17.674  43.793  12.240
 5741W        W70726   8.517  16.229   0.068
 5742W        W70727  13.547  23.169  12.941
 5743W        W70728  33.551   2.399  13.100
 5744W        W70729  40.277  22.709   4.266
 5745W        W70730  17.640  42.470  11.476
 5746W        W70731  22.542  36.795  11.214
 5747W        W70732  13.585   1.767   3.333
 5748W        W70733  16.241  43.494   1.248
 5749W        W70734  31.728  27.109   2.273
 5750W        W70735  44.630   6.946   2.798
 5751W        W70736  30.509  24.162  13.346
 5752W        W70737  22.081  21.403   2.139
 5753W        W70738  25.150  14.006   4.148
 5754W        W70739   2.793  35.187  14.944
 5755W        W70740  37.988   9.930   2.959
 5756W        W70741  10.373   7.169   0.302
 5757W        W70742   6.729   0.816   0.893
 5758W        W70743  10.415  13.579  14.253
 5759W        W70744  44.812  25.646   2.695
 5760W        W70745  38.166  41.513   1.652
 5761W        W70746  22.234  39.071  14.404
 5762W        W70747   0.466  36.927  14.421
 5763W        W70748  27.942  39.687   0.396
 5764W        W70749   2.334  42.858   3.337
 5765W        W70750  27.522  44.999  14.509
 5766W        W70751  28.137  21.786  10.929
 5767W        W70752  28.754   6.271  14.400
 5768W        W70753   1.917  37.035  13.361
 5769W        W70754  30.012   5.971   0.807
 5770W        W70755  36.561   6.396  12.979
 5771W        W70756  30.726  25.037  12.486
 5772W        W70757  12.692  42.072   3.345
 5773W        W70758  15.803  18.029  13.063
 5774W        W70759   2.344   5.036   1.240
 5775W        W70760   8.643  11.612  11.704
 5776W        W70761  39.351   0.615  10.526
 5777W        W70762  27.664   6.350   0.677
 5778W        W70763  33.693  41.634  14.438
 5779W        W70764  14.172   5.254  13.752
 5780W        W70765  20.842   8.727   3.209
 5781W        W70766  28.178  17.227  10.186
 5782W        W70767  38.394  18.734  14.330
 5783W        W70768  22.172  14.634   2.973
 5784W        W70769  20.348  29.975   4.062
 5785W        W70770   4.639  40.045   3.790
 5786W        W70771  37.008  32.195  13.972
 5787W        W70772   9.329   9.736  11.792
 5788W        W70773   4.911  23.817   0.483
 5789W        W70774  34.054  11.185  13.821
 5790W        W70775  26.630   0.442  11.694
 5791W        W70776  18.047  22.616  13.394
 5792W        W70777  39.847  42.356   0.933
 5793W        W70778   4.958  24.951  14.158
 5794W        W70779   0.506   5.176  11.551
 5795W        W70780  31.170  20.155   0.984
 5796W        W70781  28.504  38.913  14.348
 5797W        W70782  24.977   5.407  13.291
 5798W        W70783  32.882   6.336   2.862
 5799W        W70784  23.525  32.265   2.303
 5800W        W70785  29.648   1.961   3.219
 5801W        W70786   3.519  32.063   0.254
 5802W        W70787   6.147  31.953   2.616
 5803W        W70788   4.022  10.785  14.532
 5804W        W70789  33.034   2.650   3.734
 5805W        W70790  15.038   5.654   2.619
 5806W        W70791  32.314  26.112   1.827
 5807W        W70792  13.857  23.021  13.333
 5808W        W70793  23.678  35.390   0.496
 5809W        W70794  26.336  17.206  12.251
 5810W        W70795   7.285   1.936  14.437
 5811W        W70796  16.833  20.279   1.355
 5812W        W70797  29.250  31.798   3.838
 5813W        W70798  16.048  42.534  14.524
 5814W        W70799  34.362  27.067  13.494
 5815W        W70800  23.477  12.080  11.530
 5816W        W70801   0.531  33.907   1.959
 5817W        W70802  40.306   3.430  10.686
 5818W        W70803  12.711  39.273  12.404
 5819W        W70804  35.976  15.903   0.197
 5820W        W70805  22.566  33.386   4.580
 5821W        W70806  23.386  27.235   3.155
 5822W        W70807  23.278  16.515  11.143
 5823W        W70808  32.582  32.630  11.906
 5824W        W70809  14.099  42.286  10.727
 5825W        W70810  40.827  29.951  14.901
 5826W        W70811  32.046  35.510   0.448
 5827W        W70812  40.750  13.171  12.931
 5828W        W70813  40.449  10.361   0.410
 5829W        W70814  10.968   4.872   4.633
 5830W        W70815  14.040  40.109  13.900
 5831W        W70816  38.096  32.559   1.753
 5832W        W70817  42.972  30.451  13.801
 5833W        W70818  11.156  36.039  13.143
 5834W        W70819  28.236  36.004  13.823
 5835W        W70820  41.018  19.983  13.212
 5836W        W70821  42.426  18.738  13.333
 5837W        W70822  21.660  26.089   1.431
 5838W        W70823  26.987  33.689  11.286
 5839W        W70824  13.755  20.520   3.535
 5840W        W70825  26.057  16.555   0.831
 5841W        W70826   7.173  27.685   0.266
 5842W        W70827  16.816   4.446   1.511
 5843W        W70828  33.347  44.522  11.421
 5844W        W70829  35.470  21.603  11.431
 5845W        W70830   8.736   6.312  13.471
 5846W        W70831   2.321  36.189  10.454
 5847W        W70832  32.127  35.014   0.198
 5848W        W70833  10.338  22.085  11.945
 5849W        W70834  14.912  23.997  13.923
 5850W        W70835   0.487   3.327  13.921
 5851W        W70836   2.401  18.882   2.430
 5852W        W70837  12.710  32.886  12.459
 5853W        W70838  12.795  34.556   0.808
 5854W        W70839   9.127  38.415  13.417
 5855W        W70840   0.736  44.167  13.374
 5856W        W70841   5.558  38.122   4.500
 5857W        W70842   7.815  23.056   0.943
 5858W        W70843   6.373  12.679   3.223
 5859W        W70844  27.133  44.975   0.902
 5860W        W70845  35.786  30.570   3.743
 5861W        W70846  23.055  41.808  12.488
 5862W        W70847  38.727  30.735   4.221
 5863W        W70848  38.550  12.660  13.011
 5864W        W70849  26.598   6.855  11.139
 5865W        W70850  19.540   4.338  12.065
 5866W        W70851  12.378  26.798   9.791
 5867W        W70852  38.889  29.083  13.348
 5868W        W70853  33.794  34.627   1.795
 5869W        W70854  24.577  26.457   1.832
 5870W        W70855  36.771  21.592  13.504
 5871W        W70856   9.717  14.053  14.951
 5872W        W70857  14.188  37.854   2.321
 5873W        W70858  43.753  44.270  13.747
 5874W        W70859   2.935  24.920  14.786
 5875W        W70860   9.267  43.315  10.722
 5876W        W70861   3.825  32.453   1.218
 5877W        W70862  19.497  30.642  14.441
 5878W        W70863  28.432  35.947  13.345
 5879W        W70864  43.943  22.984   5.441
 5880W        W70865  22.567  33.879  11.067
 5881W        W70866  39.906  33.166   4.171
 5882W        W70867  39.713  15.426  13.290
 5883W        W70868  13.265  38.686  12.817
 5884W        W70869  13.178  27.296  14.789
 5885W        W70870  31.723   3.800   0.200
 5886W        W70871  27.466  23.639  12.561
 5887W        W70872  12.357   4.408  13.051
 5888W        W70873  33.310   2.221   3.788
 5889W        W70874  20.209  35.442  14.144
 5890W        W70875  18.525  25.494  13.641
 5891W        W70876  33.185  37.275   1.012
 5892W        W70877  35.340  24.202   1.390
 5893W        W70878  20.490  13.813  11.587
 5894W        W70879  29.691  39.575   4.931
 5895W        W70880  12.695   3.718   4.764
 5896W        W70881  27.227  38.369   3.201
 5897W        W70882  27.459  10.602  13.052
 5898W        W70883  22.629  32.137   3.182
 5899W        W70884  35.186  31.643  11.629
 5900W        W70885  27.682   9.422  11.063
 5901W        W70886  14.978   4.712   4.101
 5902W        W70887  25.845  12.373  11.234
 5903W        W70888  24.550   8.754  10.968
 5904W        W70889   9.329  29.355  14.363
 5905W        W70890  26.900  29.520   3.100
 5906W        W70891  16.340  16.144   1.239
 5907W        W70892  34.604  22.620  14.826
 5908W        W70893  43.352  20.867   5.622
 5909W        W70894  13.166  31.577   0.723
 5910W        W70895  22.460   6.842   1.220
 5911W        W70896  22.199   6.761  14.102
 5912W        W70897   9.537  30.973  12.923
 5913W        W70898   1.756   9.280  10.544
 5914W        W70899  43.918  23.483  12.433
 5915W        W70900  19.346  23.134   2.830
 5916W        W70901   3.925  17.671   0.918
 5917W        W70902  36.747  44.348   3.319
 5918W        W70903  43.967  17.674  12.139
 5919W        W70904  43.420  41.369   0.362
 5920W        W70905  16.092  24.583   4.525
 5921W        W70906  19.132  44.567  10.247
 5922W        W70907   5.012  28.030  12.064
 5923W        W70908   5.390  12.706   2.441
 5924W        W70909  17.713  32.552  14.989
 5925W        W70910  10.300   6.598   1.362
 5926W        W70911   9.871  26.131  12.522
 5927W        W70912   8.461  14.590  13.141
 5928W        W70913  44.077  22.275   1.944
 5929W        W70914  17.068  22.502   3.641
 5930W        W70915   0.798  20.236  11.647
 5931W        W70916  31.086  10.298   3.574
 5932W        W70917  40.548   3.388  12.078
 5933W        W70918  35.012  15.571   2.381
 5934W        W70919  26.525  21.365  11.146
 5935W        W70920  27.711   8.889  12.412
 5936W        W70921   5.113   2.402   3.202
 5937W        W70922  33.633  20.446  10.780
 5938W        W70923  11.292  44.072   0.811
 5939W        W70924   8.329   2.479   1.424
 5940W        W70925  14.657  12.155   2.522
 5941W        W70926   1.936  28.999  13.317
 5942W        W70927  14.871  32.889  10.960
 5943W        W70928  39.787  40.012  14.719
 5944W        W70929   1.711   5.283   3.373
 5945W        W70930  29.976  21.665  12.392
 5946W        W70931  16.269  10.230   2.365
 5947W        W70932  31.055  11.415   4.855
 5948W        W70933   5.802  27.415   4.183
 5949W        W70934  21.169   4.901   2.773
 5950W        W70935  27.983  29.495   1.677
 5951W        W70936  35.917  30.533   0.812
 5952W        W70937  21.012  40.884  12.504
 5953W        W70938  11.739  16.638   1.405
 5954W        W70939   7.668   3.065   2.656
 5955W        W70940   8.833  35.477   1.131
 5956W        W70941  13.408   0.418   1.302
 5957W        W70942  44.828  28.482   1.683
 5958W        W70943   4.894  36.646   1.790
 5959W        W70944   0.759  16.308   2.438
 5960W        W70945  12.041   1.726   3.725
 5961W        W70946  14.210  23.769   2.752
 5962W        W70947  19.802  20.135   3.653
 5963W        W70948   9.972   2.998  11.843
 5964W        W70949  37.062  29.520  12.894
 5965W        W70950  18.715  31.065   1.892
 5966W        W70951  22.972  26.561   0.903
 5967W        W70952  40.602  23.604  10.710
 5968W        W70953   8.922  26.045  13.663
 5969W        W70954   1.725  43.995   3.361
 5970W        W70955   8.356  14.687  11.185
 5971W        W70956  15.352  15.689  14.417
 5972W        W70957   1.977  14.112  14.727
 5973W        W70958  44.245  23.906  11.107
 5974W        W70959  20.545   5.370  10.314
 5975W        W70960  27.912   6.263   1.585
 5976W        W70961  23.151  26.142   0.654
 5977W        W70962  41.425  22.052   4.170
 5978W        W70963  24.804  34.080  12.185
 5979W        W70964   0.246  11.797  14.832
 5980W        W70965  17.125   0.670   3.403
 5981W        W70966  23.130  37.869  13.386
 5982W        W70967  22.608  41.614  14.986
 5983W        W70968  10.027  39.386  12.201
 5984W        W70969   8.858   7.283   3.661
 5985W        W70970  33.556  27.366  13.365
 5986W        W70971  41.816  38.047   1.656
 5987W        W70972   4.642  19.222   2.311
 5988W        W70973  38.138  44.625   3.228
 5989W        W70974  31.864  20.461   4.925
 5990W        W70975  18.971  18.475   1.416
 5991W        W70976  26.691  24.296  12.596
 5992W        W70977  38.982  19.845   0.780
 5993W        W70978   3.052  17.786  13.682
 5994W        W70979  36.720   2.344  12.833
 5995W        W70980  16.064  10.227   0.445
 5996W        W70981  14.748  35.476   4.275
 5997W        W70982  29.306  43.193  10.906
 5998W        W70983  26.633  28.170   3.741
 5999W        W70984  10.819  38.335  11.988
 6000W        W70985   8.578  44.954  11.098
 6001W        W70986  37.905   6.638  10.189
 6002W        W70987  19.242  16.254  13.606
 6003W        W70988   2.549  34.964   0.398
 6004W        W70989  19.207   3.636  13.094
 6005W        W70990   6.456  32.723  10.407
 6006W        W70991  15.606  14.299   2.233
 6007W        W70992  14.600  30.946  13.084
 6008W        W70993  20.567  13.852   0.413
 6009W        W70994   1.686  37.830  13.066
 6010W        W70995   2.866   1.883   4.616
 6011W        W70996  31.938   2.518  14.999
 6012W        W70997  25.070   1.336   4.241
 6013W        W70998  41.289  35.366   4.041
 6014W        W70999  43.444   5.482  12.899
 6015W        W71000  12.288  31.469   4.039
 6016W        W71001   0.238  10.885  14.833
 6017W        W71002   7.844  34.834   4.231
 6018W        W71003  15.722  38.295   3.712
 6019W        W71004   5.359   4.471   4.011
 6020W        W71005   7.034  12.701  11.943
 6021W        W71006  11.866  26.186   2.782
 6022W        W71007  18.916   8.754   2.735
 6023W        W71008  43.954  29.408   0.550
 6024W        W71009   8.768   7.131   3.172
 6025W        W71010  13.760  10.697   4.321
 6026W        W71011  37.349  41.408   4.635
 6027W        W71012  10.236  18.132  12.996
 6028W        W71013  19.865  10.686   3.097
 6029W        W71014  32.948   5.976  13.527
 6030W        W71015  31.441  36.376   1.431
 6031W        W71016  32.072  40.109   9.875
 6032W        W71017   1.949  30.090   4.237
 6033W        W71018  29.932  31.239   0.208
 6034W        W71019   1.617   3.935  12.036
 6035W        W71020  16.198  39.914   1.613
 6036W        W71021   6.263  44.293   4.624
 6037W        W71022  32.445  34.005  12.826
 6038W        W71023  26.750   9.631  14.295
 6039W        W71024  17.973   9.310  14.731
 6040W        W71025  26.710  14.320   4.943
 6041W        W71026   8.016  13.350  14.442
 6042W        W71027  37.237   0.052  13.010
 6043W        W71028  33.827  32.025   4.568
 6044W        W71029   9.971  33.108   4.385
 6045W        W71030  17.062  33.955  12.624
 6046W        W71031  39.535  41.304   2.624
 6047W        W71032  11.723  31.863  10.234
 6048W        W71033   3.949  39.320  13.385
 6049W        W71034  35.531  11.817  10.730
 6050W        W71035   8.080  42.973  14.476
 6051W        W71036  23.116  30.062   0.691
 6052W        W71037  28.211  29.168   3.727
 6053W        W71038  28.136  17.211  12.459
 6054W        W71039  42.907  38.530  13.510
 6055W        W71040  41.979  37.408  12.118
 6056W        W71041  14.261  25.186   2.708
 6057W        W71042  35.306  17.281  11.562
 6058W        W71043  22.649  40.013   3.386
 6059W        W71044  22.923  32.397   1.909
 6060W        W71045  19.577  26.183   2.174
 6061W        W71046  11.743  13.109   3.613
 6062W        W71047  23.410  30.462  10.151
 6063W        W71048  26.607   2.470   2.174
 6064W        W71049  10.983   4.251   1.320
 6065W        W71050  16.759  12.846  12.004
 6066W        W71051  38.598  33.908  13.301
 6067W        W71052  13.830  19.000  11.145
 6068W        W71053   7.089  32.636  14.945
 6069W        W71054  32.709  25.359  12.580
 6070W        W71055  37.736  39.753   1.171
 6071W        W71056  13.661  18.497  14.261
 6072W        W71057  13.634  15.791  10.644
 6073W        W71058   5.187   2.735  12.003
 6074W        W71059  28.369  22.731  13.588
 6075W        W71060  43.163  26.018   2.555
 6076W        W71061  36.225  27.053  13.089
 6077W        W71062   4.604  11.810  12.932
 6078W        W71063  27.663  30.774   2.131
 6079W        W71064  40.409  11.333   2.744
 6080W        W71065  36.288  23.520   2.985
 6081W        W71066  13.238  44.442  10.219
 6082W        W71067  29.107  24.785   3.072
 6083W        W71068  15.078   3.675  12.377
 6084W        W71069  22.803  11.628  10.402
 6085W        W71070  20.157   3.070   2.560
 6086W        W71071  39.078  16.594   0.281
 6087W        W71072   2.689  31.198  11.104
 6088W        W71073  34.534  44.177   0.282
 6089W        W71074  28.138  14.288  11.977
 6090W        W71075  26.754   3.487   3.242
 6091W        W71076  21.152  42.225   3.809
 6092W        W71077  26.156   1.914  13.067
 6093W        W71078  42.766  24.810   4.424
 6094W        W71079  23.663  22.054  12.822
 6095W        W71080  27.031  27.875  11.930
 6096W        W71081  31.492  17.245   4.357
 6097W        W71082  30.253  32.629  10.314
 6098W        W71083  32.793  25.279  14.822
 6099W        W71084  14.303  33.551  13.880
 6100W        W71085   8.353  34.372   2.264
 6101W        W71086  21.530  33.146  10.897
 6102W        W71087  26.004  17.648   3.357
 6103W        W71088  25.657  40.500   4.337
 6104W        W71089  32.054  28.093   0.880
 6105W        W71090  14.516  42.048   2.725
 6106W        W71091  32.001  28.032  13.794
 6107W        W71092  28.588  38.757  12.068
 6108W        W71093  33.704  42.161  14.390
 6109W        W71094  30.034   9.173  14.902
 6110W        W71095  41.274  26.622  13.733
 6111W        W71096  28.453  41.455  14.897
 6112W        W71097  12.136   5.565  14.439
 6113W        W71098  28.517  13.828   3.729
 6114W        W71099  19.165  10.073  13.745
 6115W        W71100  34.074  40.909  11.283
 6116W        W71101  37.852  14.673   4.532
 6117W        W71102   8.323  14.096   0.065
 6118W        W71103  36.048  20.019  11.629
 6119W        W71104  24.006  25.635   1.737
 6120W        W71105  31.529   4.918   2.331
 6121W        W71106  11.151  26.720  10.821
 6122W        W71107   2.716   5.315   3.179
 6123W        W71108  18.169  43.344  13.104
 6124W        W71109  19.580  28.166   4.371
 6125W        W71110  43.850  24.992   2.385
 6126W        W71111  16.780  28.337   9.996
 6127W        W71112  12.680  31.694  13.662
 6128W        W71113  14.342   3.432   2.597
 6129W        W71114  22.397   3.689  13.780
 6130W        W71115  30.174   3.707   3.911
 6131W        W71116  29.503   5.019  13.036
 6132W        W71117  43.866  21.640  10.485
 6133W        W71118  40.082   8.477  11.854
 6134W        W71119  35.008   0.972   2.356
 6135W        W71120   8.116  37.570  14.568
 6136W        W71121  40.516  11.768  11.173
 6137W        W71122  16.762  37.631   0.794
 6138W        W71123  20.631  13.681   3.097
 6139W        W71124  11.356   1.427   1.308
 6140W        W71125  18.109  16.596   2.764
 6141W        W71126  20.059  19.321   3.594
 6142W        W71127  13.335   6.088  14.444
 6143W        W71128  37.435  13.899  13.927
 6144W        W71129  18.174  24.696  13.825
 6145W        W71130  21.637  27.244   4.024
 6146W        W71131   2.769   7.634  12.106
 6147W        W71132  13.914  43.869  13.175
 6148W        W71133  26.275  34.766  12.453
 6149W        W71134  36.298   8.289   0.020
 6150W        W71135  34.863  38.156  14.235
 6151W        W71136   5.179  11.716   0.381
 6152W        W71137  25.580  43.600  14.521
 6153W        W71138  21.057  31.873  12.956
 6154W        W71139  43.765   5.602   0.823
 6155W        W71140  38.867  12.203  12.447
 6156W        W71141  14.157   3.816  10.448
 6157W        W71142  17.918   8.318   3.030
 6158W        W71143   7.837  29.421  12.720
 6159W        W71144  12.836   5.869  11.250
 6160W        W71145  44.556   8.647   1.244
 6161W        W71146  29.903  34.575   1.748
 6162W        W71147   2.460  15.846  13.095
 6163W        W71148  21.858  14.463   3.716
 6164W        W71149  41.361  34.771  10.456
 6165W        W71150   0.376  34.968   1.326
 6166W        W71151  10.995   6.981   5.477
 6167W        W71152   8.923  13.726   2.912
 6168W        W71153  33.051  13.629  14.252
 6169W        W71154  38.511  22.483   3.219
 6170W        W71155  44.060   9.887  12.131
 6171W        W71156  29.551  23.196   2.355
 6172W        W71157  39.837  33.158   2.369
 6173W        W71158   0.467   2.031   4.156
 6174W        W71159  36.681  22.802   2.313
 6175W        W71160  34.116  44.404  11.985
 6176W        W71161  19.518  40.911   1.197
 6177W        W71162   5.232  38.893  11.030
 6178W        W71163   6.536  19.789   9.760
 6179W        W71164   2.090  29.372  12.156
 6180W        W71165  37.582  26.727   3.372
 6181W        W71166  29.889   3.870   0.032
 6182W        W71167  15.725  34.399   0.467
 6183W        W71168   6.519  30.077  14.788
 6184W        W71169   5.351  35.183  13.978
 6185W        W71170   8.250  32.404  14.957
 6186W        W71171  25.050  32.516   2.690
 6187W        W71172  41.495  25.396   3.132
 6188W        W71173   2.393   1.991  12.051
 6189W        W71174  20.733  30.543  13.514
 6190W        W71175  38.200  33.581   0.859
 6191W        W71176  36.805  14.459   2.615
 6192W        W71177   6.698  28.022   0.028
 6193W        W71178  32.982  14.154  14.270
 6194W        W71179  41.876   2.783   3.727
 6195W        W71180  18.108  26.876   4.529
 6196W        W71181   6.724  24.921   4.223
 6197W        W71182  31.537  21.718   3.761
 6198W        W71183  41.649  34.350  10.275
 6199W        W71184  37.465  42.766  12.487
 6200W        W71185  16.979   6.262   1.540
 6201W        W71186  30.410  37.518  11.213
 6202W        W71187  17.771  44.801   0.775
 6203W        W71188  18.062  31.487  14.750
 6204W        W71189  44.693  20.114   0.306
 6205W        W71190  26.156  43.618  12.063
 6206W        W71191  42.431  28.536   2.801
 6207W        W71192   2.296   8.327  14.520
 6208W        W71193   4.554  23.450   4.470
 6209W        W71194   5.492  18.596   4.235
 6210W        W71195  17.329  20.190   1.273
 6211W        W71196  13.712  16.870  11.856
 6212W        W71197   4.383   7.238  10.964
 6213W        W71198  13.619  23.969   1.820
 6214W        W71199   5.665   2.353   4.054
 6215W        W71200  43.969  12.171   4.544
 6216W        W71201  17.938  35.388  13.145
 6217W        W71202   5.243   2.723   4.661
 6218W        W71203  33.373  24.599  12.382
 6219W        W71204  31.904  39.674  14.440
 6220W        W71205   8.934  12.810  12.482
 6221W        W71206  35.295  32.549  11.350
 6222W        W71207  11.346  39.750   0.363
 6223W        W71208  21.603  25.730  11.919
 6224W        W71209  18.321  11.379  12.902
 6225W        W71210  21.080  18.051   0.743
 6226W        W71211  29.964  44.271  12.131
 6227W        W71212  31.000  16.399   1.931
 6228W        W71213  26.844   8.943  13.899
 6229W        W71214   4.301  24.677   2.944
 6230W        W71215  14.136  26.970  10.155
 6231W        W71216   3.819  42.647  11.403
 6232W        W71217  10.435  40.491   2.539
 6233W        W71218  44.520  41.781  11.993
 6234W        W71219  23.954   9.624  14.182
 6235W        W71220  10.843  41.229  12.585
 6236W        W71221  31.000  38.511   3.537
 6237W        W71222  44.043  14.175   3.685
 6238W        W71223  28.143  41.930  13.870
 6239W        W71224  41.258  21.721   1.854
 6240W        W71225   5.700  11.206   3.257
 6241W        W71226  20.710  12.304  10.642
 6242W        W71227   1.185  10.851  13.780
 6243W        W71228   5.469  34.898  13.564
 6244W        W71229  21.249  31.746  10.099
 6245W        W71230  17.459  16.321   4.201
 6246W        W71231  37.879   0.918   2.973
 6247W        W71232  41.702  19.279   4.540
 6248W        W71233  42.630   7.860  11.567
 6249W        W71234  24.525  11.293   0.812
 6250W        W71235  26.233  27.062  13.495
 6251W        W71236  15.645  31.857  10.949
 6252W        W71237  31.359  36.080   0.216
 6253W        W71238  44.543  23.336  10.336
 6254W        W71239  33.743  22.833   2.623
 6255W        W71240  18.448  11.649   5.131
 6256W        W71241  28.576  17.072  10.515
 6257W        W71242  24.468  12.651  12.153
 6258W        W71243  14.074  17.743  14.433
 6259W        W71244  40.772  28.932   3.804
 6260W        W71245  40.621  15.506  13.096
 6261W        W71246  30.481  11.365   3.286
 6262W        W71247  35.703  16.694   0.002
 6263W        W71248   3.131  41.742   3.170
 6264W        W71249  34.421  32.104  13.350
 6265W        W71250  26.045   7.945  14.490
 6266W        W71251  33.695   7.696  12.472
 6267W        W71252  27.142   6.877  13.854
 6268W        W71253  30.481  33.459   4.269
 6269W        W71254  35.961  23.748  11.174
 6270W        W71255  37.592   3.766   0.495
 6271W        W71256  21.750  11.269   2.794
 6272W        W71257  14.474  33.906  11.663
 6273W        W71258  29.898  19.682  13.062
 6274W        W71259   1.634  40.509  13.439
 6275W        W71260  32.111  20.050   3.636
 6276W        W71261  31.685  38.787  12.357
 6277W        W71262  39.308  42.488   0.790
 6278W        W71263   2.136  43.894   0.452
 6279W        W71264  11.281  13.300  14.860
 6280W        W71265  19.663   0.435  10.793
 6281W        W71266  19.537  26.636   2.430
 6282W        W71267  16.314  18.149  14.926
 6283W        W71268  39.612  13.520   3.278
 6284W        W71269  42.542  25.394  11.613
 6285W        W71270  42.900  11.556   0.210
 6286W        W71271  27.719  29.361   0.254
 6287W        W71272  12.132  18.236   3.199
 6288W        W71273  21.006  14.616  12.436
 6289W        W71274  10.159   4.911   3.737
 6290W        W71275  18.374   4.834   1.730
 6291W        W71276  31.889  38.727   4.547
 6292W        W71277  14.546  38.435  14.768
 6293W        W71278   4.688  27.658  11.843
 6294W        W71279  39.889  39.277  12.048
 6295W        W71280  26.427  11.362  13.333
 6296W        W71281  18.547   6.620  10.834
 6297W        W71282  36.344  31.021  14.559
 6298W        W71283  37.738   7.918   9.859
 6299W        W71284  33.307  22.200  11.065
 6300W        W71285  26.426  15.759  11.052
 6301W        W71286   6.684  34.597   4.676
 6302W        W71287  12.417  36.008  11.074
 6303W        W71288  21.577  20.200   3.245
 6304W        W71289  35.162   7.979   0.415
 6305W        W71290   7.170  34.582  12.981
 6306W        W71291   4.074  16.904  12.933
 6307W        W71292  33.414  35.063   0.275
 6308W        W71293  14.367  39.544   1.392
 6309W        W71294  35.365  20.414   2.218
 6310W        W71295   0.472  37.918   4.539
 6311W        W71296  26.658  29.345  12.418
 6312W        W71297  15.235  22.685  14.955
 6313W        W71298  42.679  14.269   4.549
 6314W        W71299   8.055  40.613   3.798
 6315W        W71300   7.186  27.087  14.934
 6316W        W71301  12.805   9.065   4.138
 6317W        W71302  31.593  20.267   0.306
 6318W        W71303   0.525  40.880   4.558
 6319W        W71304   6.833   8.568  14.986
 6320W        W71305  29.538  26.389  12.833
 6321W        W71306  29.378  37.963   4.589
 6322W        W71307  33.413   8.673   3.054
 6323W        W71308   5.705  42.832  14.041
 6324W        W71309  17.016   0.818   0.198
 6325W        W71310  20.530  23.251  14.208
 6326W        W71311  13.105  39.833   3.622
 6327W        W71312  27.726  42.893  11.573
 6328W        W71313  16.718   3.085   3.672
 6329W        W71314  44.330  17.981   3.682
 6330W        W71315  34.343  31.918   2.155
 6331W        W71316  36.919   6.735   1.947
 6332W        W71317   9.930  18.591   3.651
 6333W        W71318  31.977   7.663  11.605
 6334W        W71319  11.093  26.070  13.334
 6335W        W71320  12.675  10.637   2.759
 6336W        W71321  27.332  23.531   4.545
 6337W        W71322   5.320  26.568   4.136
 6338W        W71323   1.933  21.580  13.291
 6339W        W71324   5.857  27.262   1.256
 6340W        W71325  18.152   9.176  14.252
 6341W        W71326  35.383  34.098  11.262
 6342W        W71327  36.477  38.820  11.589
 6343W        W71328  25.615  33.009  11.190
 6344W        W71329  40.885   2.260   2.079
 6345W        W71330  12.337   8.326   3.420
 6346W        W71331  38.042  41.004   4.315
 6347W        W71332  41.132  38.395   2.317
 6348W        W71333  44.730  22.307   4.517
 6349W        W71334  38.054  28.118  12.112
 6350W        W71335   3.302  11.781   2.404
 6351W        W71336   8.991  36.491   2.618
 6352W        W71337  14.682   0.718  14.673
 6353W        W71338  14.150   8.563   0.746
 6354W        W71339  42.747  13.829  10.624
 6355W        W71340   0.428  44.441   3.245
 6356W        W71341  30.597  12.671  11.889
 6357W        W71342  42.958  30.796  12.237
 6358W        W71343  24.568  19.011  13.834
 6359W        W71344   2.415  34.454   3.775
 6360W        W71345  32.913  17.201   3.434
 6361W        W71346  35.506   9.415  10.682
 6362W        W71347  15.652  20.127  12.992
 6363W        W71348  25.594  16.154   3.333
 6364W        W71349   0.792  39.577  11.071
 6365W        W71350  20.772  20.626   5.133
 6366W        W71351  43.055  35.173   2.805
 6367W        W71352  10.194  18.493  12.574
 6368W        W71353   7.863  27.414   2.698
 6369W        W71354  20.954  12.226   4.625
 6370W        W71355  26.475   1.978   0.245
 6371W        W71356  34.690   5.096  10.238
 6372W        W71357  34.171   7.726   2.843
 6373W        W71358   9.594  41.710  14.915
 6374W        W71359   1.201   6.275  13.080
 6375W        W71360  12.866  33.441  12.095
 6376W        W71361  31.102  13.111  12.664
 6377W        W71362   7.158  12.194   4.161
 6378W        W71363  27.489  34.780   0.389
 6379W        W71364   9.382  32.235   4.570
 6380W        W71365  19.702  40.551   3.327
 6381W        W71366  43.017  20.400   2.979
 6382W        W71367   3.286  14.379   0.642
 6383W        W71368  23.184  31.603  14.525
 6384W        W71369   6.273  28.515  13.894
 6385W        W71370  11.714  43.369  11.259
 6386W        W71371  21.324   8.163  13.108
 6387W        W71372   4.906  27.013   1.111
 6388W        W71373  19.622   3.263   0.236
 6389W        W71374  39.760   6.723   0.319
 6390W        W71375   6.027  25.486  11.514
 6391W        W71376   7.787  40.256   1.288
 6392W        W71377  41.142  25.978  14.898
 6393W        W71378  17.739   0.068  10.687
 6394W        W71379  21.185  19.122   1.259
 6395W        W71380  11.102  26.036   4.225
 6396W        W71381   9.934  38.991   4.683
 6397W        W71382  39.335  14.381  12.611
 6398W        W71383  19.607  32.530  12.947
 6399W        W71384  31.439  25.974   3.191
 6400W        W71385  27.322  17.570  12.592
 6401W        W71386  13.705  13.029   3.328
 6402W        W71387  34.339  12.006   4.137
 6403W        W71388  13.053   0.418   0.902
 6404W        W71389  44.597  20.029   4.707
 6405W        W71390  16.108  40.975  10.987
 6406W        W71391  43.845   4.179   0.392
 6407W        W71392  18.107   3.613   1.237
 6408W        W71393  38.519  27.591  13.062
 6409W        W71394  33.902  14.208  14.510
 6410W        W71395  28.864  19.711   3.606
 6411W        W71396   9.351  38.708   0.108
 6412W        W71397   9.253  15.902   2.222
 6413W        W71398   5.259  29.975   1.887
 6414W        W71399   0.469  14.319   3.363
 6415W        W71400  44.954  32.182   2.065
 6416W        W71401  11.341  20.730  10.827
 6417W        W71402  32.099  19.794   4.292
 6418W        W71403  11.675  28.737  11.613
 6419W        W71404  18.995   8.226   0.914
 6420W        W71405  40.295  31.082  12.976
 6421W        W71406  23.285   2.483   2.195
 6422W        W71407  37.499   4.806  11.155
 6423W        W71408  10.584  21.609   0.810
 6424W        W71409  25.623  34.332  14.976
 6425W        W71410  32.210  15.773  12.813
 6426W        W71411  41.030  27.161   2.262
 6427W        W71412  15.653  23.154   2.767
 6428W        W71413  35.017  34.183   3.210
 6429W        W71414  35.740   7.953   0.234
 6430W        W71415  19.827   3.990   2.909
 6431W        W71416  38.282  13.156   3.329
 6432W        W71417  21.273  15.528  13.973
 6433W        W71418  24.897   4.761   2.143
 6434W        W71419   7.163  25.717   2.109
 6435W        W71420   4.466  25.634   0.755
 6436W        W71421   0.379   6.357  11.053
 6437W        W71422   3.140   3.263   0.455
 6438W        W71423  21.187   9.736  14.220
 6439W        W71424   3.657  20.158   3.350
 6440W        W71425  16.531  28.304  11.285
 6441W        W71426  35.986  11.681   0.782
 6442W        W71427  15.289  35.516   2.833
 6443W        W71428   8.655  10.652  13.325
 6444W        W71429  11.923   7.570  14.486
 6445W        W71430  29.476   4.962  14.184
 6446W        W71431  22.710  41.019   1.355
 6447W        W71432  29.629  31.346  11.086
 6448W        W71433  12.400  12.616  10.698
 6449W        W71434  38.928  12.236  14.000
 6450W        W71435  30.345   5.862   2.529
 6451W        W71436  32.510  42.279  14.528
 6452W        W71437   8.744  39.713  11.721
 6453W        W71438  27.800   3.427   3.255
 6454W        W71439  10.481  13.374   2.301
 6455W        W71440   9.879  10.502  10.164
 6456W        W71441  23.650  13.667   3.769
 6457W        W71442  35.548  34.767  12.034
 6458W        W71443  39.553   9.769  14.907
 6459W        W71444  39.339   8.588  12.506
 6460W        W71445  23.794  26.137   3.751
 6461W        W71446  15.319  37.964  14.767
 6462W        W71447   0.364   5.494   1.172
 6463W        W71448   6.325  18.238  13.358
 6464W        W71449  30.689  42.955  14.860
 6465W        W71450  39.569  14.141  14.354
 6466W        W71451  28.171  41.425  13.981
 6467W        W71452  38.993  39.319   2.811
 6468W        W71453  15.594  10.353   0.245
 6469W        W71454   4.696  37.789   3.277
 6470W        W71455  37.962  42.955  13.934
 6471W        W71456  25.660  33.085   2.880
 6472W        W71457  29.495  31.260  14.902
 6473W        W71458   5.682  30.211  12.423
 6474W        W71459  39.799  24.640  12.367
 6475W        W71460   1.228  16.070  14.070
 6476W        W71461  39.934  44.289  12.617
 6477W        W71462  40.597   4.214   0.578
 6478W        W71463  26.929  44.987   4.569
 6479W        W71464  26.382  27.481  11.575
 6480W        W71465  38.015  42.118   3.820
 6481W        W71466  11.875   0.487   0.382
 6482W        W71467  14.136  24.919   4.018
 6483W        W71468  44.750  28.917  12.058
 6484W        W71469   6.094  21.085  12.519
 6485W        W71470  15.320  18.329  12.917
 6486W        W71471  36.879  39.905  12.859
 6487W        W71472  41.413  34.433   9.802
 6488W        W71473  18.169   7.353  11.054
 6489W        W71474   5.922   8.180   3.085
 6490W        W71475  41.875  15.604   0.529
 6491W        W71476   9.702   1.751  12.476
 6492W        W71477   3.360  27.196  14.520
 6493W        W71478  28.125  18.135  10.287
 6494W        W71479  23.333  38.848   4.231
 6495W        W71480  31.349  43.718  12.922
 6496W        W71481  10.564  42.444  12.859
 6497W        W71482  31.219  35.616  13.759
 6498W        W71483   4.206  26.464  13.526
 6499W        W71484  26.228  12.806   0.721
 6500W        W71485  37.065  30.259   1.275
 6501W        W71486   2.652  38.606  14.016
 6502W        W71487  18.315   1.327  14.249
 6503W        W71488  13.695  39.603   4.274
 6504W        W71489   5.681  29.189  14.537
 6505W        W71490  33.955  11.080  10.355
 6506W        W71491   7.988  11.385   4.133
 6507W        W71492  16.299   8.214  12.940
 6508W        W71493  43.298  32.926   1.383
 6509W        W71494   6.377  20.032   4.071
 6510W        W71495  10.999  19.211  12.602
 6511W        W71496   7.537  15.291  14.587
 6512W        W71497  26.041  14.132   1.244
 6513W        W71498  20.472  27.705   3.937
 6514W        W71499  33.085  27.216   4.066
 6515W        W71500  31.870  34.710  14.803
 6516W        W71501  11.049  10.229   4.169
 6517W        W71502  23.521  30.570  12.915
 6518W        W71503  41.529  26.754  13.316
 6519W        W71504   6.263   2.202   4.826
 6520W        W71505   9.376  33.465   3.215
 6521W        W71506  41.774  27.202  13.274
 6522W        W71507   2.317  42.068   0.516
 6523W        W71508  31.784  36.257  11.195
 6524W        W71509  41.841  16.774  13.119
 6525W        W71510  29.437  42.374   2.332
 6526W        W71511  11.222   2.315   2.410
 6527W        W71512  13.101   2.441  14.351
 6528W        W71513  16.940  38.142   3.904
 6529W        W71514  23.684  23.660   1.330
 6530W        W71515   8.225  43.367   0.358
 6531W        W71516  30.658  39.930   1.373
 6532W        W71517  42.033  19.655   2.769
 6533W        W71518  42.756  23.695  10.563
 6534W        W71519  37.961  30.228   1.278
 6535W        W71520  24.368  20.610  14.804
 6536W        W71521  22.159   2.605   2.160
 6537W        W71522  29.732   4.586  13.919
 6538W        W71523  15.831   0.024  12.568
 6539W        W71524  24.106   5.814  11.290
 6540W        W71525  30.925  34.344   1.973
 6541W        W71526  36.467   7.750   4.995
 6542W        W71527  17.302  31.662   0.345
 6543W        W71528  35.162  19.065   4.396
 6544W        W71529  30.446  42.066  10.738
 6545W        W71530  41.095  34.062   1.280
 6546W        W71531  35.815  38.203  10.737
 6547W        W71532  27.140  21.228  14.846
 6548W        W71533   6.419  17.302  11.644
 6549W        W71534  25.017  32.223   4.936
 6550W        W71535  14.025  28.509  10.986
 6551W        W71536  42.946  10.365  11.497
 6552W        W71537  25.170  40.734   0.799
 6553W        W71538  40.463  12.940   4.283
 6554W        W71539  17.190  15.573   4.121
 6555W        W71540  25.727   3.196   4.702
 6556W        W71541  33.487  17.497  11.183
 6557W        W71542  23.770  36.624   3.328
 6558W        W71543  36.281  20.250  13.817
 6559W        W71544  36.599   5.376   0.589
 6560W        W71545  42.728  17.301  12.452
 6561W        W71546   0.401  43.293   4.602
 6562W        W71547   9.898  12.158   4.144
 6563W        W71548  37.598  41.179  14.791
 6564W        W71549  24.905  17.010  12.380
 6565W        W71550  43.599  20.868   4.518
 6566W        W71551  12.722  41.850  10.683
 6567W        W71552  33.993  15.510  13.233
 6568W        W71553   4.160  38.008  12.751
 6569W        W71554  30.540   9.205   0.798
 6570W        W71555  17.339  44.120  11.468
 6571W        W71556  19.247  35.237   3.234
 6572W        W71557  12.636  20.608  12.402
 6573W        W71558  40.320   7.443  11.969
 6574W        W71559  22.480  22.617  13.270
 6575W        W71560  26.330   0.495  12.093
 6576W        W71561  43.992   7.697   4.211
 6577W        W71562   7.947  37.618  12.549
 6578W        W71563  17.350   6.654   5.558
 6579W        W71564  22.460  17.537   3.648
 6580W        W71565  38.891  40.309   1.426
 6581W        W71566  23.272   3.405  14.183
 6582W        W71567   0.873  44.752   0.017
 6583W        W71568   2.507   6.316   2.774
 6584W        W71569  15.784  18.073  11.742
 6585W        W71570  37.271   7.117   0.944
 6586W        W71571  44.260  40.318   1.896
 6587W        W71572  19.276  15.787  10.422
 6588W        W71573  35.816  33.569   3.594
 6589W        W71574  21.741   7.598   1.299
 6590W        W71575  26.194  27.886   0.047
 6591W        W71576  24.835  17.148  13.327
 6592W        W71577  39.068  10.270  11.627
 6593W        W71578   6.167  21.806  10.425
 6594W        W71579   5.892  19.668   3.184
 6595W        W71580  13.899   2.224  13.022
 6596W        W71581  38.890  39.286  13.685
 6597W        W71582  18.635   4.162   1.297
 6598W        W71583  43.800  32.269   2.764
 6599W        W71584   5.063   5.211   3.732
 6600W        W71585   4.133  23.409   3.101
 6601W        W71586  30.403  43.775  13.003
 6602W        W71587  43.625   5.362  13.944
 6603W        W71588  25.281  14.089  12.635
 6604W        W71589   2.729   1.311   0.006
 6605W        W71590  34.310  42.669  14.017
 6606W        W71591  25.897  29.475   0.231
 6607W        W71592  28.943  11.178   4.603
 6608W        W71593  39.373   1.981   3.332
 6609W        W71594   4.932  17.781  12.301
 6610W        W71595  10.355  40.957   1.942
 6611W        W71596  34.932  41.892   1.638
 6612W        W71597  30.298  22.674   1.729
 6613W        W71598   7.785  27.246  10.384
 6614W        W71599   9.655  37.476  14.428
 6615W        W71600  21.715   9.108  11.112
 6616W        W71601  26.902  18.122  10.440
 6617W        W71602  29.184   7.414  11.999
 6618W        W71603   0.322  31.562  13.188
 6619W        W71604  29.159  41.704   4.188
 6620W        W71605  43.328   9.004  11.605
 6621W        W71606   0.521  28.244   0.257
 6622W        W71607  27.085  13.714   3.358
 6623W        W71608   8.840  39.116   2.009
 6624W        W71609  21.107   9.196  13.084
 6625W        W71610  44.309  38.367  10.564
 6626W        W71611  41.415   0.277   1.406
 6627W        W71612  22.655  28.722  12.087
 6628W        W71613  37.617  29.639  13.800
 6629W        W71614  18.334  16.598  10.603
 6630W        W71615  27.584   0.379   3.505
 6631W        W71616  34.449  10.108  14.750
 6632W        W71617  25.716  43.303  12.282
 6633W        W71618  39.180  23.980  13.811
 6634W        W71619  25.575  27.366   3.681
 6635W        W71620  38.334  30.212   0.935
 6636W        W71621  39.947   1.143  11.904
 6637W        W71622  21.017  24.484   0.723
 6638W        W71623  42.273   3.498   3.261
 6639W        W71624  41.016  38.046  13.452
 6640W        W71625  31.747   5.948   2.338
 6641W        W71626  17.485   8.658  13.289
 6642W        W71627  41.735   1.095   1.904
 6643W        W71628  15.109  14.984   4.303
 6644W        W71629  17.680   9.774   3.926
 6645W        W71630   9.448  32.474  14.447
 6646W        W71631  36.999  22.274  11.044
 6647W        W71632  39.694  29.575  12.022
 6648W        W71633  20.196  43.891  13.286
 6649W        W71634  20.557  15.817   3.266
 6650W        W71635  11.253   9.228  11.717
 6651W        W71636  19.274  18.783   1.800
 6652W        W71637  30.682   7.303   3.727
 6653W        W71638  39.766   1.873  13.521
 6654W        W71639   4.126  30.528  14.726
 6655W        W71640  10.233  29.368  14.555
 6656W        W71641  27.973   9.196   4.676
 6657W        W71642   2.015  36.491  13.629
 6658W        W71643  44.611  35.530  13.695
 6659W        W71644  17.992   3.955  12.481
 6660W        W71645  34.952  17.855   4.185
 6661W        W71646  10.821  42.026  13.076
 6662W        W71647  12.268  41.376  13.515
 6663W        W71648  17.264  27.680  12.928
 6664W        W71649  36.560  28.468  14.001
 6665W        W71650  41.276  13.298   3.704
 6666W        W71651  27.171   4.153  12.897
 6667W        W71652  41.771  25.544  12.866
 6668W        W71653   7.442   9.728  12.368
 6669W        W71654   2.746   0.377   4.101
 6670W        W71655  33.044  30.136  14.911
 6671W        W71656  22.954   1.440   4.311
 6672W        W71657  27.019  28.430   1.601
 6673W        W71658   7.875  14.160  14.843
 6674W        W71659  20.723  18.965   3.015
 6675W        W71660  21.296  42.898  14.496
 6676W        W71661  32.980   5.069   9.843
 6677W        W71662  31.215   1.949   1.705
 6678W        W71663   0.907   8.976   1.594
 6679W        W71664  11.665   3.738   3.721
 6680W        W71665   5.378  41.523   1.354
 6681W        W71666  19.874  11.172   2.327
 6682W        W71667  24.775  37.590   0.283
 6683W        W71668  41.855  12.071  11.481
 6684W        W71669  41.554   9.211   1.250
 6685W        W71670  20.792  34.495   1.456
 6686W        W71671  13.879  36.926   1.217
 6687W        W71672  28.984  34.301  12.295
 6688W        W71673  31.663   8.733  14.873
 6689W        W71674   7.829  19.751   3.258
 6690W        W71675  15.761   9.182  12.074
 6691W        W71676  21.628  12.029  13.921
 6692W        W71677  16.871   3.835   1.874
 6693W        W71678  13.387   8.015  10.069
 6694W        W71679  36.356   8.931  12.114
 6695W        W71680   5.805  16.654  12.638
 6696W        W71681  42.759  42.687  11.005
 6697W        W71682  16.089  39.521   2.631
 6698W        W71683  12.808  27.002   2.129
 6699W        W71684  28.969   8.906   0.697
 6700W        W71685  34.628  44.355   1.903
 6701W        W71686  38.208  35.549  11.183
 6702W        W71687  26.136  33.401  12.618
 6703W        W71688  33.438  23.755  14.479
 6704W        W71689   7.936  31.916   2.258
 6705W        W71690  20.211   3.025  11.031
 6706W        W71691  19.683  11.662   3.161
 6707W        W71692   2.279  34.996  12.524
 6708W        W71693   3.377  17.732   2.485
 6709W        W71694   3.276  23.644   1.511
 6710W        W71695  40.317  40.817  14.398
 6711W        W71696  25.253  27.396   2.676
 6712W        W71697  37.532  26.993   3.819
 6713W        W71698  19.308   2.777  12.551
 6714W        W71699   8.382  25.952  14.401
 6715W        W71700  25.177   4.113   1.755
 6716W        W71701  25.254   2.779  11.750
 6717W        W71702  42.999  20.648  12.348
 6718W        W71703  19.495  19.782  13.016
 6719W        W71704  32.718  10.729   2.848
 6720W        W71705   4.205  23.736   1.769
 6721W        W71706  18.730  30.692   4.822
 6722W        W71707   6.787  15.816   4.855
 6723W        W71708  12.448   6.440   3.369
 6724W        W71709  12.329   7.150   0.341
 6725W        W71710  27.103   7.221   0.053
 6726W        W71711  11.772   1.678   3.282
 6727W        W71712   6.706  44.783  12.526
 6728W        W71713  27.136  35.479   0.273
 6729W        W71714  36.938   7.271  12.425
 6730W        W71715   4.711  36.038   3.735
 6731W        W71716  37.882  30.479  13.930
 6732W        W71717  33.478  33.125  11.881
 6733W        W71718  11.413  28.436   2.345
 6734W        W71719  29.224  39.934   0.853
 6735W        W71720  36.887  16.216  14.003
 6736W        W71721  13.321  36.175  13.683
 6737W        W71722  39.622  35.900  13.090
 6738W        W71723  27.515   3.732   0.694
 6739W        W71724   9.408  13.553  10.754
 6740W        W71725  13.175   9.911   3.834
 6741W        W71726  25.437  33.680   3.630
 6742W        W71727  41.477  16.537   3.126
 6743W        W71728  36.507  16.710  14.535
 6744W        W71729   9.977   3.048   0.821
 6745W        W71730  25.901   7.483   2.355
 6746W        W71731  24.159  29.552  14.325
 6747W        W71732   1.958  39.525  14.814
 6748W        W71733  18.749  36.624   3.223
 6749W        W71734  26.484   5.411   4.177
 6750W        W71735  31.888   1.307   2.850
 6751W        W71736  21.503   7.205  13.919
 6752W        W71737  27.546  28.032   0.715
 6753W        W71738   4.735  17.573   1.383
 6754W        W71739  40.141  44.750  11.901
 6755W        W71740  18.735  35.205   1.054
 6756W        W71741  28.377  43.260   3.265
 6757W        W71742  27.230  44.858  10.729
 6758W        W71743  24.580  11.681  12.694
 6759W        W71744  30.280  29.823  13.980
 6760W        W71745  23.250   8.208  12.120
 6761W        W71746  12.792  41.807   1.996
 6762W        W71747  30.494  40.270  11.106
 6763W        W71748  16.033  30.023  12.475
 6764W        W71749  11.372  22.673  11.107
 6765W        W71750   6.863  20.216  14.431
 6766W        W71751   2.288  18.253   3.010
 6767W        W71752   1.474  13.222   1.016
 6768W        W71753  12.553  10.826   3.667
 6769W        W71754  34.130   3.004   1.395
 6770W        W71755  25.390   6.836   4.299
 6771W        W71756  26.691   1.379  13.866
 6772W        W71757  36.588  35.626   1.353
 6773W        W71758  34.792  26.005  13.852
 6774W        W71759  36.508  38.936   2.651
 6775W        W71760  35.519  26.099   4.815
 6776W        W71761  10.398  36.263   4.305
 6777W        W71762   8.750  32.637   0.186
 6778W        W71763  11.726  30.956   2.009
 6779W        W71764   5.630  21.558  11.866
 6780W        W71765  36.669   5.803  10.102
 6781W        W71766  22.998  35.683  14.289
 6782W        W71767  33.869  20.547  14.973
 6783W        W71768  29.348  44.888  10.346
 6784W        W71769  39.850  30.211   4.266
 6785W        W71770  34.126  22.495   2.440
 6786W        W71771  33.836   9.222   3.740
 6787W        W71772  28.425  40.768  13.804
 6788W        W71773  20.597   1.321   0.097
 6789W        W71774  43.622  44.976   1.828
 6790W        W71775  25.567  15.081  14.401
 6791W        W71776  13.287  35.883   4.629
 6792W        W71777  32.359  25.475  11.958
 6793W        W71778  27.005  16.608   1.185
 6794W        W71779  26.408  27.056   1.371
 6795W        W71780   1.351  34.945   4.432
 6796W        W71781   2.878  18.709  10.551
 6797W        W71782  24.476  17.677   4.565
 6798W        W71783  23.870  20.051   3.962
 6799W        W71784  15.133  24.575  10.270
 6800W        W71785  17.344  38.075  14.286
 6801W        W71786   0.670  22.575   5.302
 6802W        W71787  18.711   9.434   2.788
 6803W        W71788  23.197  12.427  10.915
 6804W        W71789  14.973   4.364   1.867
 6805W        W71790  15.265  23.720   2.340
 6806W        W71791   4.379  20.270   0.355
 6807W        W71792   2.799   7.132  14.369
 6808W        W71793   4.366  27.049   2.316
 6809W        W71794   5.669  31.184   2.410
 6810W        W71795  21.268  37.020   3.871
 6811W        W71796  14.116  37.913  13.276
 6812W        W71797  43.398  42.787   3.352
 6813W        W71798   6.956  12.415   4.599
 6814W        W71799  25.144   2.028   2.185
 6815W        W71800   7.512   1.482   2.808
 6816W        W71801  32.088   5.097  11.449
 6817W        W71802  43.854  29.607   1.021
 6818W        W71803   1.733  13.701  14.987
 6819W        W71804  28.081  41.446  11.244
 6820W        W71805  43.565  42.996   4.725
 6821W        W71806   1.010  30.677   3.195
 6822W        W71807  32.352  32.087  14.357
 6823W        W71808  32.093  23.251  14.451
 6824W        W71809  13.058  27.512   5.449
 6825W        W71810   7.344  16.304  13.772
 6826W        W71811  33.371  34.312   0.939
 6827W        W71812   1.328  30.047  11.993
 6828W        W71813   9.243   7.344   3.182
 6829W        W71814  41.306  28.496  11.034
 6830W        W71815  15.424   1.564  10.703
 6831W        W71816  31.035  10.675   3.238
 6832W        W71817  31.702  39.851   1.404
 6833W        W71818   5.336  19.354  12.249
 6834W        W71819  34.891  30.941  12.263
 6835W        W71820  21.467  11.840  14.854
 6836W        W71821  28.914  18.617   0.075
 6837W        W71822   3.499  11.345   0.578
 6838W        W71823  17.493   1.737  13.368
 6839W        W71824  38.573  37.480  14.795
 6840W        W71825   3.974   0.596   2.021
 6841W        W71826  44.528  24.130  11.464
 6842W        W71827  14.521  30.466  13.289
 6843W        W71828  34.380  26.054  11.536
 6844W        W71829   0.676  27.826  13.893
 6845W        W71830  40.571  31.828   3.632
 6846W        W71831  29.019  34.336   2.237
 6847W        W71832   2.490  23.466   3.628
 6848W        W71833  23.925   6.374  12.417
 6849W        W71834  19.782  30.430  14.833
 6850W        W71835   8.576  33.854   4.165
 6851W        W71836  14.744  21.484  13.430
 6852W        W71837  23.381  36.385   1.330
 6853W        W71838  12.806  38.041  10.706
 6854W        W71839  44.327  37.030  12.086
 6855W        W71840  22.797  44.091   4.288
 6856W        W71841  14.082  25.598   2.421
 6857W        W71842  10.136  29.086   1.214
 6858W        W71843  12.604  14.879  13.010
 6859W        W71844  14.087  14.697  13.034
 6860W        W71845  39.863  23.250  11.564
 6861W        W71846  24.027  34.128  12.618
 6862W        W71847  14.560  21.735   1.746
 6863W        W71848  14.002  21.243   4.790
 6864W        W71849  24.477  27.431  13.483
 6865W        W71850  37.304  25.478   3.503
 6866W        W71851  17.586  32.719  13.548
 6867W        W71852  18.811  37.182   1.276
 6868W        W71853  39.840   5.745   3.398
 6869W        W71854   5.736   3.785  13.049
 6870W        W71855  24.449  12.141  12.460
 6871W        W71856   8.203   2.852  12.929
 6872W        W71857   0.490  13.887  14.510
 6873W        W71858  31.417   7.596   1.686
 6874W        W71859  24.571  29.663   2.255
 6875W        W71860  37.262  36.301  12.644
 6876W        W71861  30.896  23.339  14.306
 6877W        W71862  21.106  40.402   3.543
 6878W        W71863  12.927  21.684  12.553
 6879W        W71864   4.695  24.062  13.389
 6880W        W71865  36.505  25.347  14.597
 6881W        W71866   7.839  44.497  13.379
 6882W        W71867  12.301  30.555  10.421
 6883W        W71868  27.181  31.275  12.969
 6884W        W71869  13.143  35.475   4.965
 6885W        W71870  28.152  24.260  10.288
 6886W        W71871  32.069  18.799   1.348
 6887W        W71872  29.991  14.772  14.265
 6888W        W71873  36.761   5.957  11.677
 6889W        W71874  35.460  44.000  12.029
 6890W        W71875  36.836  14.274   1.120
 6891W        W71876   9.260   7.948  14.475
 6892W        W71877  39.480   5.442  12.931
 6893W        W71878  16.083   0.803  13.832
 6894W        W71879  13.746  32.665  14.842
 6895W        W71880   3.793  44.810   2.434
 6896W        W71881  33.563  44.013   3.137
 6897W        W71882  13.041  39.272   0.011
 6898W        W71883  32.685   1.966   2.697
 6899W        W71884   0.848  35.538  10.646
 6900W        W71885  40.812   0.810   0.927
 6901W        W71886  12.065  11.377  11.720
 6902W        W71887  42.945   0.312  14.852
 6903W        W71888  31.118  15.215   3.215
 6904W        W71889   0.249   0.702   1.473
 6905W        W71890  36.389  32.248  11.983
 6906W        W71891  35.473  44.723  14.378
 6907W        W71892  15.596   5.756  13.117
 6908W        W71893   5.295  14.823  11.112
 6909W        W71894  29.109  10.745  10.717
 6910W        W71895  39.141   8.160   4.151
 6911W        W71896   6.118  15.009  11.579
 6912W        W71897  44.345  42.339  11.610
 6913W        W71898   9.109  32.986  10.965
 6914W        W71899   6.148  23.702  13.042
 6915W        W71900  27.229  29.776   2.766
 6916W        W71901  43.566  26.355   9.770
 6917W        W71902  28.822   5.295   2.130
 6918W        W71903  42.417  10.444   1.293
 6919W        W71904  34.067  20.093   0.903
 6920W        W71905   7.243   9.136  11.576
 6921W        W71906  20.982  17.738   2.012
 6922W        W71907  33.161   3.762  12.148
 6923W        W71908  21.947   3.971   0.352
 6924W        W71909  27.478  42.342   0.927
 6925W        W71910  12.878  19.790   4.433
 6926W        W71911   2.952   3.664  13.338
 6927W        W71912  33.553  11.124  11.586
 6928W        W71913  10.285  29.073  13.075
 6929W        W71914   3.714  12.829  13.391
 6930W        W71915  17.023   9.900   2.092
 6931W        W71916  26.349  28.851   4.541
 6932W        W71917   2.434  17.618  12.088
 6933W        W71918  18.223  29.543   1.413
 6934W        W71919  35.224  31.640  10.825
 6935W        W71920  33.619  41.494  13.637
 6936W        W71921  11.620  21.555   2.843
 6937W        W71922  11.011  12.958  11.029
 6938W        W71923   2.522  19.657   0.242
 6939W        W71924  32.994  21.484   1.780
 6940W        W71925  24.274  32.103  11.220
 6941W        W71926  41.969  12.591  14.370
 6942W        W71927  26.997  36.322  11.956
 6943W        W71928  39.270  41.951  11.540
 6944W        W71929  23.613  29.068  12.997
 6945W        W71930  44.253  37.643  14.772
 6946W        W71931   2.912  44.489   0.052
 6947W        W71932  37.413  18.671   0.346
 6948W        W71933  23.999  16.691   3.688
 6949W        W71934   1.427  27.408  11.566
 6950W        W71935  36.941  43.474  12.502
 6951W        W71936   1.269   8.402  12.479
 6952W        W71937  25.192  28.790  14.060
 6953W        W71938  41.988  13.053  11.497
 6954W        W71939   6.769   3.963   2.414
 6955W        W71940  28.570  44.328  12.074
 6956W        W71941  29.486  27.087  12.314
 6957W        W71942  42.923   8.212   2.819
 6958W        W71943  11.088   7.369  13.946
 6959W        W71944  40.420  36.412   1.220
 6960W        W71945  15.572  21.413  13.671
 6961W        W71946  32.563  30.362  14.907
 6962W        W71947   1.263   3.888   0.478
 6963W        W71948  23.909  24.836   1.745
 6964W        W71949  13.479  23.745   3.180
 6965W        W71950  34.662   4.174   0.623
 6966W        W71951  27.569  40.454  14.354
 6967W        W71952  29.039  13.740   4.606
 6968W        W71953  30.111  35.885   4.821
 6969W        W71954  44.258  36.625  14.873
 6970W        W71955  29.566  20.524  14.389
 6971W        W71956  23.600  23.289   4.936
 6972W        W71957  26.929  12.815   4.490
 6973W        W71958  19.207   3.703   4.214
 6974W        W71959  35.627  19.852  13.370
 6975W        W71960  29.548   7.443   4.578
 6976W        W71961  22.440  22.931   1.546
 6977W        W71962  13.094  38.395   0.957
 6978W        W71963  26.068  26.693   1.207
 6979W        W71964  28.082   9.217   0.291
 6980W        W71965  24.202  44.130   3.229
 6981W        W71966  23.799   1.271  12.529
 6982W        W71967  43.061  38.352   3.146
 6983W        W71968  35.852  27.037   2.313
 6984W        W71969  43.914  12.609  13.546
 6985W        W71970  35.493  12.045  12.342
 6986W        W71971  33.310  42.879   2.778
 6987W        W71972   0.815  20.082   4.221
 6988W        W71973  26.698  10.636   1.708
 6989W        W71974  26.871  29.593   3.998
 6990W        W71975  37.243  38.792   3.352
 6991W        W71976  15.198  23.559  11.489
 6992W        W71977  22.050  12.163   1.664
 6993W        W71978  40.559  43.051  13.057
 6994W        W71979   5.214  31.626   3.651
 6995W        W71980  31.523   7.437  11.527
 6996W        W71981  37.467  32.337   2.589
 6997W        W71982  21.608  26.144  11.510
 6998W        W71983  18.980   8.840  14.376
 6999W        W71984  30.557  41.099  11.616
 7000W        W71985  27.953  19.324   3.262
 7001W        W71986   3.138  23.057   1.403
 7002W        W71987   0.826  24.927   3.280
 7003W        W71988  43.965  26.478   3.378
 7004W        W71989  25.782  18.708   0.381
 7005W        W71990  26.088  15.844  10.633
 7006W        W71991  13.512  37.370  11.497
 7007W        W71992  38.594   4.457  12.453
 7008W        W71993  26.031   9.866   1.676
 7009W        W71994  28.056  34.013   4.506
 7010W        W71995   2.037  29.610   4.094
 7011W        W71996  14.784  29.567   1.502
 7012W        W71997  25.693   6.688   1.309
 7013W        W71998   9.766  26.656  10.625
 7014W        W71999  10.642  26.239   4.350
 7015W        W72000   6.724  39.573  13.292
 7016W        W72001  44.731  24.817   3.106
 7017W        W72002  32.203  25.916   3.750
 7018W        W72003  18.213   2.849   2.407
 7019W        W72004  44.762  33.675  10.995
 7020W        W72005  13.328  43.027   0.498
 7021W        W72006   6.532   9.113   4.300
 7022W        W72007  18.141  19.933  12.378
 7023W        W72008  13.629  35.480   4.747
 7024W        W72009  30.552  44.682  10.419
 7025W        W72010  31.914  16.166  13.079
 7026W        W72011  22.411  28.933   3.078
 7027W        W72012   4.398  23.573  14.926
 7028W        W72013  22.169   4.654   2.282
 7029W        W72014  10.236  25.640  13.794
 7030W        W72015  14.400  16.126   4.657
 7031W        W72016  30.069   9.876   3.789
 7032W        W72017  12.243  39.428   3.652
 7033W        W72018  18.596  35.716   4.866
 7034W        W72019   5.736  36.591  10.599
 7035W        W72020   6.823  31.477   1.928
 7036W        W72021  33.609  36.631  13.269
 7037W        W72022  12.738  44.022  14.269
 7038W        W72023  26.042  13.835   1.755
 7039W        W72024  33.435  27.579   0.216
 7040W        W72025  11.747  20.531   0.466
 7041W        W72026  21.323  30.824  11.163
 7042W        W72027  10.711  11.474   1.060
 7043W        W72028  10.438   5.206   1.432
 7044W        W72029  27.617  10.825  12.027
 7045W        W72030  22.840   0.764   0.799
 7046W        W72031  29.648   8.842  14.985
 7047W        W72032  37.986  23.979  14.562
 7048W        W72033   5.974  10.633  11.675
 7049W        W72034   4.196  23.972  12.505
 7050W        W72035  21.684  10.110  11.031
 7051W        W72036  21.208  32.877  12.602
 7052W        W72037   6.540  36.988   3.776
 7053W        W72038   6.770  25.536   3.050
 7054W        W72039  27.756   6.346  14.358
 7055W        W72040  27.702  34.546   0.798
 7056W        W72041  19.658  11.304   2.782
 7057W        W72042  16.956  43.275  13.669
 7058W        W72043  10.942  33.286  12.903
 7059W        W72044  10.347  43.849  12.948
 7060W        W72045  35.009  22.341  11.088
 7061W        W72046  31.055  31.401  12.634
 7062W        W72047  40.317   4.178   1.882
 7063W        W72048   2.899  20.570   4.475
 7064W        W72049  24.137  25.688  10.921
 7065W        W72050  29.513  25.876  12.716
 7066W        W72051  33.101  42.259  11.402
 7067W        W72052  24.591   3.033   4.140
 7068W        W72053  27.709  27.978  12.093
 7069W        W72054  33.629  25.081   4.111
 7070W        W72055  34.406  37.792  11.528
 7071W        W72056   8.124  40.919  10.443
 7072W        W72057  20.460   0.442   4.214
 7073W        W72058  39.423  22.230   2.069
 7074W        W72059   5.069  39.090  14.031
 7075W        W72060   7.404   3.827   0.643
 7076W        W72061  36.913  20.703  12.429
 7077W        W72062  38.855   5.410  13.955
 7078W        W72063  20.064  22.686  10.671
 7079W        W72064  15.081  31.813  13.380
 7080W        W72065  28.997  35.316  12.442
 7081W        W72066  35.509  36.394   4.376
 7082W        W72067  14.817  11.189  12.074
 7083W        W72068  13.218  15.529   3.756
 7084W        W72069  31.998   0.058   0.850
 7085W        W72070  42.078   7.857   1.708
 7086W        W72071  44.952  41.435   3.381
 7087W        W72072  19.317  15.015  14.043
 7088W        W72073  14.434   2.015   3.705
 7089W        W72074  36.974  38.612   4.676
 7090W        W72075  27.014  11.658   4.105
 7091W        W72076  12.954  14.120   0.713
 7092W        W72077  23.416  35.239   3.146
 7093W        W72078  30.531  30.062   2.782
 7094W        W72079  16.884  33.947  11.191
 7095W        W72080  15.320  27.150  13.621
 7096W        W72081   2.270  14.531   0.730
 7097W        W72082  41.682  16.115  10.713
 7098W        W72083  26.518  10.232  14.876
 7099W        W72084  21.471  25.484   3.766
 7100W        W72085  42.361   1.747   2.903
 7101W        W72086   2.858   7.313   1.194
 7102W        W72087  29.465  42.646  10.705
 7103W        W72088  31.101   6.635   0.323
 7104W        W72089   3.832   0.022   0.061
 7105W        W72090   0.666  24.238   0.542
 7106W        W72091  29.784  13.044  12.517
 7107W        W72092   0.181  27.681   3.948
 7108W        W72093   1.291  35.377   4.726
 7109W        W72094   8.327  17.949   1.246
 7110W        W72095  11.885  11.938  10.997
 7111W        W72096  18.542  10.121  10.675
 7112W        W72097  27.017  15.822   0.204
 7113W        W72098   6.852   8.411   0.870
 7114W        W72099   9.967  32.360  14.494
 7115W        W72100  34.701  36.391   0.336
 7116W        W72101  29.809   8.028  11.455
 7117W        W72102  42.921   2.861  13.076
 7118W        W72103   1.933  30.481  13.061
 7119W        W72104  36.407   5.603   4.549
 7120W        W72105   8.104  36.628  14.949
 7121W        W72106  18.339  15.125   3.239
 7122W        W72107   1.304  40.787   1.296
 7123W        W72108   2.535  26.554  13.777
 7124W        W72109  20.203  13.792   3.385
 7125W        W72110  19.779  12.521   1.966
 7126W        W72111   7.645  10.229   4.146
 7127W        W72112  22.750  41.511   2.277
 7128W        W72113   1.779  29.184   4.294
 7129W        W72114  21.724  28.642   4.166
 7130W        W72115  13.416  41.787  11.446
 7131W        W72116  26.046  29.083   3.580
 7132W        W72117  14.512  41.289   2.124
 7133W        W72118  27.139  43.899  12.501
 7134W        W72119  26.654  20.116   3.634
 7135W        W72120  31.606  42.130   2.797
 7136W        W72121  40.446  15.766  14.919
 7137W        W72122  41.440  24.207  10.802
 7138W        W72123  24.126  15.488  14.797
 7139W        W72124  42.025   2.250  12.513
 7140W        W72125  31.316   4.818   0.003
 7141W        W72126  42.274   9.847  11.719
 7142W        W72127   1.461  40.032  13.699
 7143W        W72128   0.163  12.607   1.691
 7144W        W72129  12.206  43.370  11.157
 7145W        W72130  12.236  13.675   0.041
 7146W        W72131  43.142  38.132  14.829
 7147W        W72132  12.157   1.263   2.395
 7148W        W72133  21.326  43.382  10.622
 7149W        W72134   5.001  35.059  14.586
 7150W        W72135  25.651   3.621   1.188
 7151W        W72136  20.207  41.732   1.199
 7152W        W72137  28.609  27.196  11.447
 7153W        W72138  39.292  23.541  14.710
 7154W        W72139  24.198  21.535  12.209
 7155W        W72140  16.326   9.957   4.595
 7156W        W72141  43.991   8.306   0.476
 7157W        W72142  24.708  43.506   2.396
 7158W        W72143  34.922  43.802   1.456
 7159W        W72144   1.062  14.114  13.384
 7160W        W72145  29.996  14.618  14.808
 7161W        W72146  44.768  13.348   2.187
 7162W        W72147  23.013  35.873   0.514
 7163W        W72148  20.528  11.248   1.479
 7164W        W72149  35.472  31.255  11.852
 7165W        W72150  11.313  23.494  13.469
 7166W        W72151   8.871   1.429  14.532
 7167W        W72152  29.051  28.160   0.622
 7168W        W72153  23.677   0.488  11.507
 7169W        W72154  22.842  35.964   2.692
 7170W        W72155  29.164  37.683  14.605
 7171W        W72156   3.484  26.017   2.665
 7172W        W72157  39.237  27.673   1.238
 7173W        W72158  27.955  14.527   2.891
 7174W        W72159   0.878  24.696   1.423
 7175W        W72160  32.543  43.692   2.160
 7176W        W72161   4.370  13.684  11.701
 7177W        W72162  34.041  40.773   3.189
 7178W        W72163  21.587  13.725   3.291
 7179W        W72164   4.593  13.824  14.481
 7180W        W72165  21.660  42.073  14.510
 7181W        W72166   1.775  25.878  12.991
 7182W        W72167  23.009  38.539   4.490
 7183W        W72168   7.673   0.984  13.093
 7184W        W72169  39.875  32.265  12.922
 7185W        W72170  16.687   4.560  11.205
 7186W        W72171   2.791  20.452   3.866
 7187W        W72172   6.647  19.355  13.540
 7188W        W72173  36.944   1.796  10.604
 7189W        W72174  38.970  31.893  10.938
 7190W        W72175  29.976   9.630   2.414
 7191W        W72176  30.692  41.713  12.930
 7192W        W72177  33.573  13.714  12.276
 7193W        W72178  27.496   7.989   2.686
 7194W        W72179  34.058  12.157   1.785
 7195W        W72180  27.862  23.533   4.523
 7196W        W72181  18.777  29.251  13.838
 7197W        W72182   2.123  29.903   0.554
 7198W        W72183  21.431  36.364   0.697
 7199W        W72184  22.480  41.457   0.912
 7200W        W72185   2.670  11.890  13.562
 7201W        W72186  26.967  35.780  11.184
 7202W        W72187  28.719  27.646  11.925
 7203W        W72188  39.739  28.879   0.923
 7204W        W72189   0.419  33.080  10.686
 7205W        W72190  37.907  29.586  14.917
 7206W        W72191  29.089   8.702  13.848
 7207W        W72192  27.226  27.613   0.692
 7208W        W72193  25.698  36.553  13.785
 7209W        W72194  30.793   4.888  12.023
 7210W        W72195  39.918  41.570  14.163
 7211W        W72196  23.215  36.914  13.042
 7212W        W72197  26.999   2.430  12.021
 7213W        W72198  22.542  11.392  10.802
 7214W        W72199  10.382   6.703  11.593
 7215W        W72200   9.294  19.401   2.134
 7216W        W72201  18.493  20.002   0.496
 7217W        W72202   3.324   0.910   0.752
 7218W        W72203  34.431   7.139  14.844
 7219W        W72204  42.418  13.854   1.965
 7220W        W72205  34.269  11.233   4.644
 7221W        W72206  36.549  21.744  12.158
 7222W        W72207   4.696   4.195  13.080
 7223W        W72208   4.409  39.758   1.394
 7224W        W72209   7.695  20.081   1.775
 7225W        W72210  20.358  22.271  10.611
 7226W        W72211  43.054   9.633   1.346
 7227W        W72212   2.807  30.016  14.913
 7228W        W72213  35.453  11.675   1.744
 7229W        W72214   6.195  23.901   1.373
 7230W        W72215  27.271  32.025   0.210
 7231W        W72216  40.797  43.138  11.915
 7232W        W72217  16.174  28.090  12.499
 7233W        W72218   7.609  22.670  10.446
 7234W        W72219   1.245   5.952  13.954
 7235W        W72220  11.736   0.273   1.656
 7236W        W72221  14.136  18.171  12.444
 7237W        W72222  31.679  42.967   3.041
 7238W        W72223  44.886  24.341  12.044
 7239W        W72224  25.534  17.086  12.931
 7240W        W72225  37.945   8.307   4.548
 7241W        W72226  17.705  32.083  14.758
 7242W        W72227  22.600  22.519   1.003
 7243W        W72228  12.014  10.085  12.169
 7244W        W72229  34.704  28.440  10.261
 7245W        W72230  25.445   1.822  14.441
 7246W        W72231  20.692  15.953   2.744
 7247W        W72232  32.876  41.770   4.534
 7248W        W72233  16.581  30.644   0.278
 7249W        W72234   9.766  18.797   2.762
 7250W        W72235  42.424  12.650   4.076
 7251W        W72236   4.192   6.479  11.456
 7252W        W72237  20.983  12.047  13.285
 7253W        W72238  14.128  26.683  13.994
 7254W        W72239  23.662  34.388   1.705
 7255W        W72240  10.627  35.985  13.291
 7256W        W72241  43.937  26.064   3.715
 7257W        W72242  44.801  30.593   4.597
 7258W        W72243   2.459  24.180  12.046
 7259W        W72244  32.649  23.547   4.596
 7260W        W72245  21.831  41.262  11.957
 7261W        W72246  38.431  14.118  13.065
 7262W        W72247  40.378  26.623  14.716
 7263W        W72248  16.858  44.954   0.293
 7264W        W72249  21.020  10.108   5.297
 7265W        W72250   4.751  33.161   1.569
 7266W        W72251  17.798  10.598   5.385
 7267W        W72252   7.138  15.719   1.203
 7268W        W72253  33.855  24.039   3.798
 7269W        W72254  24.457  23.340   0.682
 7270W        W72255  20.280  24.442  10.711
 7271W        W72256  20.148  36.008   1.131
 7272W        W72257  39.639  31.356   0.844
 7273W        W72258  24.930  36.803   3.678
 7274W        W72259  42.511  34.561   2.336
 7275W        W72260  34.401  20.491   2.222
 7276W        W72261   8.117  11.281  13.548
 7277W        W72262  16.817  19.001  13.999
 7278W        W72263  39.828  32.865   2.806
 7279W        W72264  18.177   4.919   4.057
 7280W        W72265  35.164  28.154  14.817
 7281W        W72266  23.864  43.468   0.475
 7282W        W72267   7.266  15.843   1.686
 7283W        W72268   5.820  24.009  10.972
 7284W        W72269  32.113   9.099   1.305
 7285W        W72270  11.393  15.341   1.830
 7286W        W72271  33.491   9.081  12.270
 7287W        W72272  41.557  33.062  10.691
 7288W        W72273   9.587  12.619   1.800
 7289W        W72274  23.305  44.285   1.452
 7290W        W72275   1.904  34.131  12.081
 7291W        W72276  25.766  41.694   1.360
 7292W        W72277  35.139  17.235  10.763
 7293W        W72278  33.442  22.906  12.268
 7294W        W72279  38.548   5.525  14.783
 7295W        W72280  38.609  35.936  10.339
 7296W        W72281   7.775  31.139   2.833
 7297W        W72282   1.338  28.574   1.152
 7298W        W72283  44.018  18.529  10.977
 7299W        W72284  17.836   5.083   3.706
 7300W        W72285  41.277  12.099   1.449
 7301W        W72286  30.384  44.960  13.827
 7302W        W72287  22.362  34.851   0.028
 7303W        W72288  29.848   5.285   2.497
 7304W        W72289  39.029  25.833  12.944
 7305W        W72290  44.913  44.518   0.320
 7306W        W72291  22.942   2.535   2.620
 7307W        W72292  23.489   4.721   3.191
 7308W        W72293  30.900  30.967  10.637
 7309W        W72294   9.790  21.970  11.713
 7310W        W72295   0.517  28.579   2.944
 7311W        W72296  15.407  36.597  12.045
 7312W        W72297  22.962  43.337  11.555
 7313W        W72298   9.681  39.140   0.785
 7314W        W72299   2.668  33.514   4.098
 7315W        W72300  11.641  42.793   3.152
 7316W        W72301  23.891  44.804   0.784
 7317W        W72302  15.575  11.636   1.736
 7318W        W72303  11.668   4.604  14.440
 7319W        W72304  36.875  22.563  13.003
 7320W        W72305  17.088  21.287  12.496
 7321W        W72306   2.965  21.468  13.407
 7322W        W72307  11.717  20.827   2.235
 7323W        W72308   9.139  29.620   5.131
 7324W        W72309  10.849  23.531  11.267
 7325W        W72310  14.478  16.152   0.279
 7326W        W72311  13.226  44.506  11.537
 7327W        W72312  11.656  34.118  13.032
 7328W        W72313  30.751  26.273  11.565
 7329W        W72314  25.136  22.910  13.124
 7330W        W72315  41.270  18.633  12.525
 7331W        W72316  15.951  18.675  10.669
 7332W        W72317  21.143  33.503   4.429
 7333W        W72318  10.110  37.396  11.607
 7334W        W72319  23.934  43.666  11.212
 7335W        W72320  41.092   9.873  13.405
 7336W        W72321  30.601  41.133   4.379
 7337W        W72322  15.560  23.985   2.671
 7338W        W72323   8.615  11.294   3.846
 7339W        W72324  10.691  35.912  14.926
 7340W        W72325  11.794  11.762   4.299
 7341W        W72326  10.670  31.072  14.830
 7342W        W72327  13.651  24.652   2.235
 7343W        W72328  41.195  24.065   3.867
 7344W        W72329  23.092  22.574   3.794
 7345W        W72330  23.700  24.555  14.541
 7346W        W72331   8.853   9.724  12.033
 7347W        W72332   4.346  14.372   0.453
 7348W        W72333  38.854  23.295  11.587
 7349W        W72334   5.747  32.817   3.322
 7350W        W72335  31.744  18.689   0.536
 7351W        W72336  22.808  13.242  11.553
 7352W        W72337   3.956  32.107  14.379
 7353W        W72338   7.275   4.345  14.059
 7354W        W72339   1.453  36.573   1.845
 7355W        W72340  18.027  28.486  14.988
 7356W        W72341  12.377  19.779  10.416
 7357W        W72342  22.643   4.131   2.929
 7358W        W72343  31.887  15.834   4.740
 7359W        W72344   3.727  34.072  14.953
 7360W        W72345  22.601  31.094  10.729
 7361W        W72346   1.014  43.413   3.206
 7362W        W72347  31.395  20.707   1.289
 7363W        W72348  39.740  39.031  11.173
 7364W        W72349  35.971  33.164  12.562
 7365W        W72350  25.685  14.181  12.344
 7366W        W72351   2.211   1.733  12.899
 7367W        W72352   0.438  19.274  11.719
 7368W        W72353  23.288  13.743   2.908
 7369W        W72354  11.406   8.868   1.431
 7370W        W72355  37.770  11.753   0.308
 7371W        W72356  36.805  40.402  12.504
 7372W        W72357  28.990  28.726   2.754
 7373W        W72358   2.034  36.953  13.850
 7374W        W72359  26.608  15.693   0.525
 7375W        W72360  27.878  22.270   1.009
 7376W        W72361  19.849  39.410   0.419
 7377W        W72362  14.188   8.213  11.069
 7378W        W72363  18.434   5.453   4.079
 7379W        W72364  41.302   5.701  13.111
 7380W        W72365  28.228  12.334   3.791
 7381W        W72366  22.007  34.124   2.716
 7382W        W72367   5.021  13.902  14.816
 7383W        W72368   6.571  15.586   2.883
 7384W        W72369  17.682  39.397   2.216
 7385W        W72370  25.576  24.788  11.135
 7386W        W72371  22.008  13.201  11.602
 7387W        W72372   3.988   1.952  14.042
 7388W        W72373   9.086  21.701  14.599
 7389W        W72374  10.632  12.202   0.931
 7390W        W72375  30.805  28.674  13.520
 7391W        W72376  35.828   9.311  11.480
 7392W        W72377  38.746   9.267   2.937
 7393W        W72378  37.522  34.320  10.963
 7394W        W72379  14.067  41.914   2.220
 7395W        W72380   8.987  25.680  11.984
 7396W        W72381  34.952  29.235  13.040
 7397W        W72382  32.830  10.298   1.589
 7398W        W72383  28.530   5.416  13.817
 7399W        W72384  19.068  34.577   0.444
 7400W        W72385  31.510  10.616  11.300
 7401W        W72386   0.686  29.883   1.468
 7402W        W72387  25.483  16.821   2.660
 7403W        W72388  14.251   0.365   4.487
 7404W        W72389  13.423  32.944   2.218
 7405W        W72390  11.845  15.596  14.909
 7406W        W72391  25.254   6.402   1.355
 7407W        W72392   2.591  28.604  14.812
 7408W        W72393   0.372  16.195   9.880
 7409W        W72394   6.509  14.349   3.199
 7410W        W72395   0.985  41.309  10.564
 7411W        W72396  14.164  43.652  12.330
 7412W        W72397   4.481   4.893   1.917
 7413W        W72398  17.895   3.190  11.233
 7414W        W72399   8.261  24.085  10.655
 7415W        W72400  36.386  35.884  12.906
 7416W        W72401  20.318  19.475  14.289
 7417W        W72402   0.006  26.128  10.044
 7418W        W72403   0.683   2.220   2.372
 7419W        W72404  44.103  16.157   5.010
 7420W        W72405  15.568   1.677  12.043
 7421W        W72406   8.290  31.470  11.630
 7422W        W72407  32.727   0.838  12.627
 7423W        W72408  24.831  22.257  11.691
 7424W        W72409  36.110  35.714   2.722
 7425W        W72410  44.720   2.092  12.879
 7426W        W72411  31.573  16.209   3.855
 7427W        W72412  39.495  10.343  12.960
 7428W        W72413  28.537  19.309  13.496
 7429W        W72414   7.744  30.208   1.072
 7430W        W72415  29.601  16.132   1.394
 7431W        W72416  44.769  14.348  13.454
 7432W        W72417  17.839  19.663   1.049
 7433W        W72418   1.217  36.009   2.655
 7434W        W72419  40.882  11.637   0.832
 7435W        W72420   4.089  11.704   1.113
 7436W        W72421  40.996  44.814   4.069
 7437W        W72422  29.654  42.333  11.160
 7438W        W72423  27.543  32.600   1.222
 7439W        W72424   7.345  30.544   2.598
 7440W        W72425  40.326  40.261   0.947
 7441W        W72426  40.483  42.468   4.330
 7442W        W72427  43.295  33.330   1.735
 7443W        W72428  29.575  25.357  12.054
 7444W        W72429  13.565  44.719   3.297
 7445W        W72430  16.655   0.225  10.796
 7446W        W72431  40.228  10.244   2.298
 7447W        W72432  26.658  27.856  13.879
 7448W        W72433  13.262   7.898  10.532
 7449W        W72434  15.357  12.792  13.366
 7450W        W72435  10.655  44.518  13.592
 7451W        W72436  34.054  15.071   0.382
 7452W        W72437   1.571  39.751   2.760
 7453W        W72438  23.664  29.319  14.551
 7454W        W72439  31.423  38.441  12.634
 7455W        W72440  43.411  10.517  11.632
 7456W        W72441  25.481  35.460  13.053
 7457W        W72442  17.510  31.629  11.708
 7458W        W72443  23.750  28.697   4.455
 7459W        W72444  27.448  41.011   4.080
 7460W        W72445  20.919  18.188   1.754
 7461W        W72446  19.533  43.306  11.489
 7462W        W72447  16.132   9.053   1.867
 7463W        W72448  34.371  18.659  11.467
 7464W        W72449  17.629  21.213  11.500
 7465W        W72450  27.235   5.792  14.902
 7466W        W72451  29.206  27.819  10.245
 7467W        W72452   1.184  37.448  14.814
 7468W        W72453  29.052  39.973   2.782
 7469W        W72454  26.034  41.463  12.791
 7470W        W72455  13.694  42.662   2.838
 7471W        W72456  14.138  18.698  14.541
 7472W        W72457  15.238  22.437  10.786
 7473W        W72458  29.933  19.051   3.123
 7474W        W72459  40.326  22.725  12.547
 7475W        W72460  38.970  34.732   4.050
 7476W        W72461  37.819   7.723   2.228
 7477W        W72462   8.441  34.651  10.491
 7478W        W72463  30.101  18.726  13.587
 7479W        W72464  27.956  32.857   3.356
 7480W        W72465  17.428   7.131   1.936
 7481W        W72466  23.236   5.814   1.739
 7482W        W72467  34.178  34.878   2.609
 7483W        W72468  44.301  14.935  11.192
 7484W        W72469  39.774  38.114  11.403
 7485W        W72470  34.403  22.857  10.752
 7486W        W72471  20.226  15.073   3.631
 7487W        W72472  30.564  27.247   1.836
 7488W        W72473  18.273  22.981   0.957
 7489W        W72474  35.969  18.367  10.940
 7490W        W72475  44.542  11.676  10.772
 7491W        W72476  26.903   7.020  14.321
 7492W        W72477  22.904   3.503  13.818
 7493W        W72478  35.881  25.157  14.000
 7494W        W72479  10.381  34.012   1.464
 7495W        W72480  42.495  24.838   0.009
 7496W        W72481  40.563  33.077   0.815
 7497W        W72482  36.482  36.916   0.169
 7498W        W72483  26.884  13.683  13.970
 7499W        W72484  24.999  33.829   2.803
 7500W        W72485  36.474  17.094   1.692
 7501W        W72486   5.355   1.674  11.152
 7502W        W72487  14.636  31.521  13.188
 7503W        W72488  39.294  11.064   3.623
 7504W        W72489  35.341  28.702   0.895
 7505W        W72490  39.252   5.679   4.170
 7506W        W72491   6.887   0.541  11.358
 7507W        W72492  17.743  18.664  10.198
 7508W        W72493   2.970  26.046  13.352
 7509W        W72494   9.646  32.154  11.479
 7510W        W72495   1.285  10.797   3.105
 7511W        W72496  28.483  28.024  13.258
 7512W        W72497   1.052   8.791   3.475
 7513W        W72498  20.102  39.703  11.022
 7514W        W72499   6.235   7.358  11.466
 7515W        W72500  23.940  34.632  12.587
 7516W        W72501   3.918  18.043  10.267
 7517W        W72502   7.122  16.699   1.147
 7518W        W72503  33.170  35.982   3.653
 7519W        W72504   6.275  42.082  12.402
 7520W        W72505   6.674  35.759   2.910
 7521W        W72506  20.759  28.503  11.225
 7522W        W72507   5.318  28.116   3.169
 7523W        W72508  29.589  21.136  12.144
 7524W        W72509  29.127  30.014   3.227
 7525W        W72510  24.455  21.152  11.083
 7526W        W72511  26.024  18.564   4.266
 7527W        W72512  33.355   4.838  13.961
 7528W        W72513  44.825   5.114  10.656
 7529W        W72514  32.058  31.400  10.688
 7530W        W72515  38.753  43.941  13.026
 7531W        W72516  14.843  11.185   1.358
 7532W        W72517   1.011  32.972   3.738
 7533W        W72518   6.227  15.894  12.365
 7534W        W72519  25.172  14.654   1.245
 7535W        W72520  25.016  20.397  11.118
 7536W        W72521   6.131  16.882  14.846
 7537W        W72522  37.307  10.098  12.280
 7538W        W72523  15.656  41.782   3.244
 7539W        W72524  15.897  30.520   4.260
 7540W        W72525  26.203  41.521   2.781
 7541W        W72526  13.269  33.042   3.733
 7542W        W72527  39.131  32.617   1.961
 7543W        W72528  10.601  19.188   3.265
 7544W        W72529  16.822   7.433  12.436
 7545W        W72530  36.384  37.991   4.732
 7546W        W72531   3.412  32.683   3.716
 7547W        W72532  14.199   2.315   5.307
 7548W        W72533  37.304  27.016   4.279
 7549W        W72534  31.983  37.791   0.416
 7550W        W72535   6.354  35.084  11.958
 7551W        W72536   5.891  32.397   2.631
 7552W        W72537  44.777  26.058  11.543
 7553W        W72538  29.178  20.732  13.898
 7554W        W72539  37.961  20.004  14.389
 7555W        W72540  16.366  19.973  13.980
 7556W        W72541  27.668  18.487  12.891
 7557W        W72542  42.899  39.356   2.244
 7558W        W72543   3.947  41.089   2.421
 7559W        W72544  11.970  31.009   0.464
 7560W        W72545  21.329  38.392  11.559
 7561W        W72546  30.197  32.495  14.984
 7562W        W72547  17.133  11.265  11.660
 7563W        W72548  21.632   7.852   0.850
 7564W        W72549  26.038  15.586   4.395
 7565W        W72550   3.177  21.574   3.230
 7566W        W72551  13.026   0.028   1.992
 7567W        W72552  33.329  28.408  12.163
 7568W        W72553  30.794  24.207  13.879
 7569W        W72554   7.942   9.810   1.788
 7570W        W72555  13.821  23.424  12.536
 7571W        W72556  14.388  43.913   3.236
 7572W        W72557   4.863  44.447   0.005
 7573W        W72558  21.242  15.299   3.608
 7574W        W72559  22.874  18.098  12.817
 7575W        W72560  32.061  39.508  13.014
 7576W        W72561  16.219   7.074   4.930
 7577W        W72562   0.951   9.888  11.136
 7578W        W72563  43.737  11.111  11.173
 7579W        W72564  34.034   4.724   4.722
 7580W        W72565   5.841  25.993  11.453
 7581W        W72566  32.400  14.108   4.677
 7582W        W72567   2.740  14.927   3.743
 7583W        W72568  29.969  37.636  13.298
 7584W        W72569  26.171  32.885  11.841
 7585W        W72570  43.337  30.065   2.387
 7586W        W72571  32.963  24.882   3.930
 7587W        W72572  27.263  13.975  14.589
 7588W        W72573  40.883  33.261   4.180
 7589W        W72574   4.620  39.647  11.641
 7590W        W72575  12.943  36.352  14.904
 7591W        W72576  19.992   9.010   1.266
 7592W        W72577  22.597  37.455   0.790
 7593W        W72578   4.179  12.218   0.892
 7594W        W72579  27.576  11.855  13.060
 7595W        W72580   4.898   6.216  13.158
 7596W        W72581  10.862  24.610  13.955
 7597W        W72582  34.782  44.333  11.487
 7598W        W72583   0.565  24.795   2.248
 7599W        W72584   8.710  12.388  14.786
 7600W        W72585   9.214  15.537   4.523
 7601W        W72586  14.677   5.227  10.539
 7602W        W72587  20.946   5.311  14.413
 7603W        W72588   5.779  35.371   3.277
 7604W        W72589  43.173  37.460   3.343
 7605W        W72590  27.962   7.393   3.695
 7606W        W72591  27.671  12.665  12.404
 7607W        W72592  11.244   3.216  11.615
 7608W        W72593  11.059  39.879   2.230
 7609W        W72594  30.056  24.830   3.628
 7610W        W72595   7.452   0.277  12.882
 7611W        W72596   2.871  38.348  10.657
 7612W        W72597   3.546  22.252  10.337
 7613W        W72598  19.091  28.942   1.378
 7614W        W72599  12.629  37.434   2.641
 7615W        W72600  30.964  10.913   4.794
 7616W        W72601  35.482   7.163  12.117
 7617W        W72602   5.490  42.584   3.442
 7618W        W72603  38.427  21.501   2.602
 7619W        W72604   1.982   2.256  13.400
 7620W        W72605   5.649   1.413   2.624
 7621W        W72606   4.790  40.425  14.484
 7622W        W72607  25.967   4.511  13.253
 7623W        W72608  34.235  39.337   1.922
 7624W        W72609  25.174  42.072   0.332
 7625W        W72610  21.569  41.228  11.191
 7626W        W72611   6.769  28.441   0.354
 7627W        W72612  40.323  44.565  11.460
 7628W        W72613  10.414  29.708   1.241
 7629W        W72614  16.587  26.120  12.000
 7630W        W72615  30.174  42.283  11.235
 7631W        W72616  11.145   4.472   2.699
 7632W        W72617  23.530  20.179  14.468
 7633W        W72618  31.193  18.374  13.824
 7634W        W72619   7.425  43.826  11.596
 7635W        W72620  38.102  30.217  11.468
 7636W        W72621   2.228  34.251   1.365
 7637W        W72622   6.894  28.102   2.380
 7638W        W72623  16.126  34.082   0.373
 7639W        W72624  43.891  15.210   0.784
 7640W        W72625  12.202  41.850  14.886
 7641W        W72626  25.821   3.483  14.220
 7642W        W72627  13.092  23.079   0.839
 7643W        W72628  35.069  19.238   2.823
 7644W        W72629   9.865  27.957   3.438
 7645W        W72630  13.727   4.260   3.510
 7646W        W72631   8.872   2.490  11.673
 7647W        W72632  32.006  42.785  12.936
 7648W        W72633  25.805  33.846  14.314
 7649W        W72634  43.836   4.821  14.774
 7650W        W72635  26.136   7.671   2.778
 7651W        W72636   7.826  27.218  12.082
 7652W        W72637  43.863  38.319   1.855
 7653W        W72638  42.123  39.618   1.733
 7654W        W72639  32.004  42.272   4.890
 7655W        W72640  22.783  28.545  11.106
 7656W        W72641  22.977  35.203  13.641
 7657W        W72642  20.728  11.172   3.406
 7658W        W72643   6.632  43.497  14.887
 7659W        W72644  26.740   7.279   3.340
 7660W        W72645   6.216   6.831  12.709
 7661W        W72646   3.956   4.639  10.245
 7662W        W72647  42.671  24.260  12.550
 7663W        W72648  37.054  32.032   0.506
 7664W        W72649   6.323  19.961   3.184
 7665W        W72650  19.967  40.510  13.816
 7666W        W72651  29.463   9.280  14.203
 7667W        W72652  20.614  23.769   9.850
 7668W        W72653  34.417  32.640  13.335
 7669W        W72654  23.955  16.318   1.887
 7670W        W72655  22.314  35.621   0.390
 7671W        W72656   6.694   8.338  14.536
 7672W        W72657   0.944  35.786   1.772
 7673W        W72658   2.775  29.388   4.577
 7674W        W72659   1.915   5.162  10.694
 7675W        W72660  42.925  39.173  14.440
 7676W        W72661  24.453  43.435  10.718
 7677W        W72662   0.452   6.152  13.443
 7678W        W72663  43.993  37.283  13.854
 7679W        W72664  10.675   2.489   0.841
 7680W        W72665  35.994   4.847   4.322
 7681W        W72666  12.343  33.061   3.193
 7682W        W72667   6.349  26.637   5.180
 7683W        W72668  14.277   6.918  11.582
 7684W        W72669   3.854  44.878  14.380
 7685W        W72670   3.766  19.537   0.541
 7686W        W72671  19.770   6.444   3.725
 7687W        W72672  12.600   7.289   5.293
 7688W        W72673  17.696  38.080   0.963
 7689W        W72674  16.412  16.587   1.533
 7690W        W72675  19.852  15.446  12.001
 7691W        W72676  10.571  30.756   2.741
 7692W        W72677  35.044  36.551   0.736
 7693W        W72678  41.789  19.966   1.826
 7694W        W72679  38.370   9.428   1.256
 7695W        W72680  17.318  37.893   2.253
 7696W        W72681  18.826  29.547   0.742
 7697W        W72682  36.871  42.850   3.374
 7698W        W72683   0.285  41.849   0.294
 7699W        W72684  39.154   5.970  14.386
 7700W        W72685  34.167  13.816  13.319
 7701W        W72686  25.978  16.155   1.168
 7702W        W72687  18.251  27.554   1.047
 7703W        W72688  23.694  25.428  13.773
 7704W        W72689  17.344  10.355  14.785
 7705W        W72690  17.768  38.407  14.190
 7706W        W72691  12.155  27.373  11.473
 7707W        W72692   9.254  21.124  14.893
 7708W        W72693  15.209  40.355  13.546
 7709W        W72694  25.491  14.071   2.410
 7710W        W72695  29.347  19.368   4.353
 7711W        W72696   8.790  25.734   2.764
 7712W        W72697  42.476  39.289  10.984
 7713W        W72698  31.785   0.285  10.921
 7714W        W72699  37.939  12.895   1.888
 7715W        W72700  28.983   4.210  13.904
 7716W        W72701  25.367  38.509  11.563
 7717W        W72702   9.652   5.787   1.218
 7718W        W72703  24.985  16.229  14.299
 7719W        W72704  10.711   2.399   2.301
 7720W        W72705  24.235  23.121   3.052
 7721W        W72706  44.397  27.241   0.753
 7722W        W72707  34.011  29.453  12.121
 7723W        W72708   7.611  21.762   5.012
 7724W        W72709  16.191  28.105  10.315
 7725W        W72710  43.709  28.962   0.445
 7726W        W72711  38.312  19.178   4.651
 7727W        W72712  30.395   1.742  13.914
 7728W        W72713  27.913   6.736   4.640
 7729W        W72714   4.503   2.991   2.428
 7730W        W72715  44.792  38.470   2.004
 7731W        W72716  30.969  31.880   1.379
 7732W        W72717  39.468  30.455   4.527
 7733W        W72718  31.891  35.581   1.846
 7734W        W72719  26.708   2.997  11.180
 7735W        W72720  44.040   1.878  11.250
 7736W        W72721   2.497  28.879  12.043
 7737W        W72722  38.923  12.087  13.490
 7738W        W72723  12.947   3.007   4.159
 7739W        W72724  15.884  34.330  12.579
 7740W        W72725   5.935   5.660  13.791
 7741W        W72726  11.682  11.191   1.275
 7742W        W72727   6.713  16.798  10.507
 7743W        W72728   4.274   4.973   9.975
 7744W        W72729   0.128  28.133   3.664
 7745W        W72730  34.444  13.106  14.394
 7746W        W72731  37.362  40.839   0.800
 7747W        W72732  21.317   2.622   4.124
 7748W        W72733   6.624  10.838   3.139
 7749W        W72734   6.348  14.079  13.884
 7750W        W72735  30.427  20.550  13.380
 7751W        W72736  25.053  44.546   1.698
 7752W        W72737  34.937  43.572   0.920
 7753W        W72738  13.838  16.284  10.730
 7754W        W72739  37.984  17.671  11.510
 7755W        W72740   7.508  41.294  11.193
 7756W        W72741   6.887   4.861  14.897
 7757W        W72742  35.627  34.891   0.478
 7758W        W72743   9.976  15.767  11.065
 7759W        W72744  21.854   5.185   1.686
 7760W        W72745  12.064  41.532  11.972
 7761W        W72746  25.959  35.410   0.909
 7762W        W72747   3.480  11.462  13.502
 7763W        W72748  32.225  15.857  14.455
 7764W        W72749  40.901  44.077   2.823
 7765W        W72750  40.828  33.471  13.919
 7766W        W72751  41.746  44.805   2.852
 7767W        W72752  34.626  36.516   2.865
 7768W        W72753  11.346  14.313   2.855
 7769W        W72754  40.920  25.736  13.028
 7770W        W72755  29.908  33.258   1.127
 7771W        W72756   2.490   9.119   4.124
 7772W        W72757  41.276  18.149  14.835
 7773W        W72758   9.980  36.873   1.213
 7774W        W72759  33.755  16.491   3.590
 7775W        W72760  14.174  15.533  14.740
 7776W        W72761  19.345  30.339  11.813
 7777W        W72762  13.839  25.590   1.742
 7778W        W72763  41.970  34.112   2.755
 7779W        W72764  36.090  39.052   1.899
 7780W        W72765  40.117  27.526   2.943
 7781W        W72766  15.579  24.155  13.078
 7782W        W72767  44.890  35.898   0.235
 7783W        W72768  41.306   8.282  11.054
 7784W        W72769  24.999  23.648   2.827
 7785W        W72770  30.354  14.734  12.450
 7786W        W72771   2.704  13.390   3.655
 7787W        W72772  29.073  26.078  13.606
 7788W        W72773  20.804  18.780   1.250
 7789W        W72774  31.169  26.738  13.043
 7790W        W72775  10.210   4.210   1.748
 7791W        W72776   1.657  31.711   0.360
 7792W        W72777  27.894  21.117   1.391
 7793W        W72778  20.692  13.602  13.468
 7794W        W72779  38.572  30.117  11.278
 7795W        W72780  23.409  31.135   4.204
 7796W        W72781  12.014  12.281  13.870
 7797W        W72782  29.121  40.086   3.603
 7798W        W72783  20.047   6.971   5.413
 7799W        W72784  34.908  11.393   3.971
 7800W        W72785  12.960   4.786  13.811
 7801W        W72786  35.835  25.225   4.259
 7802W        W72787  27.838  23.071  11.162
 7803W        W72788  31.487   9.142   0.752
 7804W        W72789  42.467  12.134   4.015
 7805W        W72790   4.722  24.531  14.025
 7806W        W72791  29.810   5.442  13.436
 7807W        W72792  44.827  24.254   2.908
 7808W        W72793   4.294  37.380   3.336
 7809W        W72794  43.629   7.091  14.129
 7810W        W72795  24.098  33.487   1.321
 7811W        W72796  30.932  16.892  12.557
 7812W        W72797   4.871  13.190   1.653
 7813W        W72798   3.699   2.880   4.668
 7814W        W72799   3.822   1.594  11.653
 7815W        W72800  41.061  23.191  12.784
 7816W        W72801  21.235  20.061  10.458
 7817W        W72802  42.568  19.489   3.659
 7818W        W72803   8.672  35.418  14.321
 7819W        W72804  44.004  28.455   0.313
 7820W        W72805  21.815  42.223  13.599
 7821W        W72806  18.515  22.014  14.995
 7822W        W72807  21.185   3.399  14.618
 7823W        W72808  15.451  13.373   2.290
 7824W        W72809  23.454  27.611  13.443
 7825W        W72810  18.321  31.462   0.213
 7826W        W72811   3.699  34.578   3.809
 7827W        W72812  44.933  31.598   2.878
 7828W        W72813  19.605  40.567  12.376
 7829W        W72814  41.488   3.332  12.978
 7830W        W72815  26.174  22.928  14.639
 7831W        W72816   8.350   9.007  12.069
 7832W        W72817  21.537  19.383   2.371
 7833W        W72818  27.691   6.253   4.582
 7834W        W72819   4.412  35.103   3.534
 7835W        W72820  35.613   3.311  12.917
 7836W        W72821  41.745  39.114  13.362
 7837W        W72822  44.406  42.334   0.302
 7838W        W72823   5.210   3.987   4.038
 7839W        W72824  12.749  16.842  12.993
 7840W        W72825  27.402  39.994  14.611
 7841W        W72826  27.157  26.728  10.764
 7842W        W72827  40.125   6.080  11.595
 7843W        W72828  38.772  24.451  10.499
 7844W        W72829  15.640  19.482   2.226
 7845W        W72830   2.749  39.169  11.101
 7846W        W72831  21.213  41.828  11.273
 7847W        W72832  13.146   3.294   0.318
 7848W        W72833  32.619   6.206   3.919
 7849W        W72834  39.355   6.978  12.850
 7850W        W72835  15.343   2.940   1.782
 7851W        W72836  25.098   5.150   1.837
 7852W        W72837  13.532  33.117  14.967
 7853W        W72838   4.857  18.012  14.008
 7854W        W72839   8.904  30.896  12.416
 7855W        W72840  18.675   3.854  12.940
 7856W        W72841  33.041  37.717  13.931
 7857W        W72842  28.498  13.415   2.786
 7858W        W72843  15.010  20.702   2.124
 7859W        W72844  20.107  13.786  14.539
 7860W        W72845  16.584  28.198  14.373
 7861W        W72846  24.471  30.570   1.014
 7862W        W72847  13.288  36.000  11.458
 7863W        W72848  36.808   9.620   0.358
 7864W        W72849  36.492  24.946  11.122
 7865W        W72850  21.669  34.983  14.436
 7866W        W72851  19.787  37.080  14.005
 7867W        W72852   3.758  41.968   2.355
 7868W        W72853  39.837  29.017  12.913
 7869W        W72854  34.425  24.602  12.865
 7870W        W72855  39.989  37.555   1.156
 7871W        W72856   2.188  43.775   3.257
 7872W        W72857  29.544  38.852  10.384
 7873W        W72858  16.712  40.902   0.265
 7874W        W72859  17.377  42.887  14.397
 7875W        W72860  25.634  34.530   4.111
 7876W        W72861  31.496   9.461   4.527
 7877W        W72862  35.431  10.180  12.456
 7878W        W72863   9.698   4.597   4.408
 7879W        W72864  44.044  32.172  12.351
 7880W        W72865  15.691   2.482  11.489
 7881W        W72866  41.085   1.792   0.354
 7882W        W72867  12.517  42.343  10.740
 7883W        W72868  27.655  24.937   0.647
 7884W        W72869  11.210   2.911  13.389
 7885W        W72870  27.918  37.146   1.281
 7886W        W72871  24.540  34.080  12.644
 7887W        W72872  34.350  23.371  10.745
 7888W        W72873  29.218  35.921  14.067
 7889W        W72874  20.134  35.564  11.212
 7890W        W72875  37.862  37.840  13.296
 7891W        W72876  20.078  23.602  11.598
 7892W        W72877  14.256  30.140  12.962
 7893W        W72878  39.895   4.480   1.692
 7894W        W72879  38.174  16.148   4.580
 7895W        W72880  16.746  21.623   1.461
 7896W        W72881  33.372  26.104  11.736
 7897W        W72882  27.299  39.478   2.385
 7898W        W72883  25.252  43.034  13.330
 7899W        W72884   8.319  43.004  11.501
 7900W        W72885  40.721   8.294   0.904
 7901W        W72886   9.096  26.724  11.555
 7902W        W72887  33.138  30.069  11.044
 7903W        W72888   7.335   0.891   4.211
 7904W        W72889  26.687  26.609   4.899
 7905W        W72890  39.093   8.487  11.505
 7906W        W72891   6.807  19.272  11.097
 7907W        W72892  30.424  12.457   1.851
 7908W        W72893  18.523  23.047  10.997
 7909W        W72894  37.881  27.600  14.624
 7910W        W72895  38.897  20.339  12.166
 7911W        W72896  25.164   7.753  12.217
 7912W        W72897   2.369  15.313  13.084
 7913W        W72898   5.873   2.291   3.592
 7914W        W72899  11.828  19.648  11.143
 7915W        W72900   8.242  35.874   3.722
 7916W        W72901   4.424  25.925  13.473
 7917W        W72902  34.608  19.175   1.867
 7918W        W72903  43.974  24.080   2.844
 7919W        W72904  20.447  41.010   0.312
 7920W        W72905   0.564  15.905   2.973
 7921W        W72906  23.598  28.716  11.940
 7922W        W72907  39.398  44.100  11.961
 7923W        W72908   8.229  17.505   1.489
 7924W        W72909  21.279   7.040  10.375
 7925W        W72910  27.058  43.035   1.559
 7926W        W72911  44.908   1.528   3.504
 7927W        W72912  40.317  20.573  12.119
 7928W        W72913  37.608  22.701  14.086
 7929W        W72914  38.236  11.808   3.557
 7930W        W72915  37.518  44.976   2.181
 7931W        W72916  39.217  10.310   5.022
 7932W        W72917   9.138  35.946   3.752
 7933W        W72918  32.468  28.161  13.605
 7934W        W72919  37.599   1.689  14.942
 7935W        W72920   6.848  32.883   0.344
 7936W        W72921  37.334  15.252  13.534
 7937W        W72922  18.190  36.091   0.283
 7938W        W72923  17.740  44.170  14.549
 7939W        W72924  43.104  33.598  13.355
 7940W        W72925  42.271  13.417   0.216
 7941W        W72926  33.402  29.600  13.760
 7942W        W72927  19.372  20.985   4.142
 7943W        W72928  18.592  15.238   2.383
 7944W        W72929  30.546  41.253  14.036
 7945W        W72930  44.440   0.550  12.061
 7946W        W72931   0.765   2.638   1.695
 7947W        W72932  42.439  20.994   1.390
 7948W        W72933   9.100  39.099  10.999
 7949W        W72934  32.426  14.640  13.626
 7950W        W72935   2.736  14.426   1.616
 7951W        W72936  28.974   9.272   1.245
 7952W        W72937   8.871  29.479   4.522
 7953W        W72938  17.190   8.910   2.793
 7954W        W72939  39.497  44.594  11.947
 7955W        W72940  15.726  34.112   1.339
 7956W        W72941  35.399  24.301  11.781
 7957W        W72942  22.501   9.821   4.125
 7958W        W72943  28.126  18.742   4.683
 7959W        W72944  37.566   3.670   2.768
 7960W        W72945   2.209  16.807  14.901
 7961W        W72946   2.645  14.469   3.563
 7962W        W72947  14.924  41.336  14.968
 7963W        W72948  21.291  40.551   4.978
 7964W        W72949   3.395  42.285  14.963
 7965W        W72950  28.597  44.272  14.710
 7966W        W72951  31.086  31.056   3.277
 7967W        W72952  32.070  37.039   2.310
 7968W        W72953   4.416  23.499   2.361
 7969W        W72954   5.481  43.412   1.372
 7970W        W72955  20.585   1.704  11.160
 7971W        W72956  14.060  44.094  11.122
 7972W        W72957   6.652  18.758   0.004
 7973W        W72958  41.111  30.588  13.035
 7974W        W72959  36.842  39.415   1.165
 7975W        W72960  38.958  31.619   5.123
 7976W        W72961   5.163   7.275   0.817
 7977W        W72962  24.601   3.031  12.685
 7978W        W72963  41.752  31.648  13.993
 7979W        W72964  31.568  29.309  14.935
 7980W        W72965   8.040  18.668  11.663
 7981W        W72966  23.311  22.098   3.591
 7982W        W72967  25.675  28.547   5.188
 7983W        W72968  24.699  21.383  11.486
 7984W        W72969   9.248  15.420   2.432
 7985W        W72970  27.696  19.697   2.282
 7986W        W72971  17.706  16.259  11.453
 7987W        W72972   4.754   8.738   2.943
 7988W        W72973   7.880   0.978  12.605
 7989W        W72974   8.896  43.856  11.514
 7990W        W72975  30.046  29.096   0.092
 7991W        W72976  23.052   8.322   1.204
 7992W        W72977   1.722   7.271   4.326
 7993W        W72978  34.103  16.705   2.821
 7994W        W72979  39.856  34.447   3.105
 7995W        W72980  27.980  28.150  14.407
 7996W        W72981  13.415  18.940   4.555
 7997W        W72982  36.722   1.717  10.090
 7998W        W72983  42.979  23.605  14.363
 7999W        W72984   9.871  17.546   0.230
 8000W        W72985  38.382  41.506   2.404
 8001W        W72986  33.379  15.014   0.739
 8002W        W72987   3.041  10.878   3.188
 8003W        W72988  14.089  23.701   4.545
 8004W        W72989  32.063  11.812  12.347
 8005W        W72990  38.487  33.909   2.610
 8006W        W72991  10.648  30.990   0.372
 8007W        W72992   0.997  13.756  11.113
 8008W        W72993  33.121  33.668   3.210
 8009W        W72994  36.074  32.681   1.851
 8010W        W72995  41.862  31.044  13.032
 8011W        W72996  43.889   8.461   3.861
 8012W        W72997  32.825  30.758  13.551
 8013W        W72998  14.339  21.461   2.120
 8014W        W72999  16.089  12.108   2.274
 8015W        W73000  22.550  44.308  12.845
 8016W        W73001  27.804  42.094   2.823
 8017W        W73002   4.672  21.683   2.599
 8018W        W73003   7.726  39.959   0.861
 8019W        W73004  39.590  28.944   5.185
 8020W        W73005   9.429   4.864  11.967
 8021W        W73006  37.605  13.252   2.122
 8022W        W73007  18.835  28.800  13.582
 8023W        W73008   8.744   7.886  12.369
 8024W        W73009  19.589  23.922   1.966
 8025W        W73010  11.346  35.166   4.722
 8026W        W73011  41.312   1.104  13.958
 8027W        W73012  28.436  30.108   3.601
 8028W        W73013   5.769  30.337   0.177
 8029W        W73014  14.125   2.381   0.751
 8030W        W73015   6.386  12.297   0.332
 8031W        W73016  43.770  29.460   4.621
 8032W        W73017  34.347   9.076   2.694
 8033W        W73018   3.175   2.038  11.672
 8034W        W73019  20.764  35.007   3.904
 8035W        W73020  17.947  24.414   4.182
 8036W        W73021  21.219  13.182  12.568
 8037W        W73022  17.734   2.403  13.923
 8038W        W73023  29.342  24.073  12.540
 8039W        W73024  41.823   2.680  11.009
 8040W        W73025   5.372  39.768  14.103
 8041W        W73026  12.649   7.925   0.630
 8042W        W73027  21.531  39.112   3.187
 8043W        W73028  16.394  24.376   2.681
 8044W        W73029  18.661  39.822   4.454
 8045W        W73030   1.169  11.323   0.771
 8046W        W73031  26.566  28.485  11.503
 8047W        W73032  34.384  22.965   3.403
 8048W        W73033  20.061  37.357  10.775
 8049W        W73034  20.382  17.538  13.405
 8050W        W73035  21.547  32.012   2.215
 8051W        W73036   5.828  30.637   2.654
 8052W        W73037   1.036  18.160  12.575
 8053W        W73038   2.675  17.012   3.347
 8054W        W73039   3.466  28.611  13.008
 8055W        W73040  20.510  42.410   0.258
 8056W        W73041   2.927  22.309   4.349
 8057W        W73042   5.852  32.425  13.500
 8058W        W73043  31.386   6.202   0.378
 8059W        W73044  28.625  28.955  12.426
 8060W        W73045   5.417  26.492  14.417
 8061W        W73046   3.429  43.562   0.231
 8062W        W73047  13.581  27.229   2.795
 8063W        W73048  25.972  26.479  14.713
 8064W        W73049  21.530  38.319  11.100
 8065W        W73050   5.463   3.887   2.279
 8066W        W73051  20.587  29.246   0.450
 8067W        W73052   8.044  43.322   2.728
 8068W        W73053  41.747  14.999   1.870
 8069W        W73054  12.023  32.384  14.456
 8070W        W73055   2.775   0.521   4.786
 8071W        W73056  43.777  12.261   1.560
 8072W        W73057  21.253  41.331   0.277
 8073W        W73058  42.385  13.840  14.372
 8074W        W73059   8.446  22.129  14.360
 8075W        W73060  21.286   9.654  14.711
 8076W        W73061  35.580  42.727  11.497
 8077W        W73062   1.274  13.158  13.368
 8078W        W73063  20.724  44.499   3.719
 8079W        W73064   2.799  27.362   3.675
 8080W        W73065  28.463  30.912  14.651
 8081W        W73066  14.401  33.652   4.938
 8082W        W73067  28.394  34.871   2.710
 8083W        W73068  32.389  35.222  12.503
 8084W        W73069  34.197  24.619   4.872
 8085W        W73070  16.817  15.616   0.405
 8086W        W73071   8.906  38.490   4.067
 8087W        W73072   8.267   5.897  11.580
 8088W        W73073  16.374  38.124   0.707
 8089W        W73074   9.172  42.159   4.514
 8090W        W73075  21.025  26.440  12.051
 8091W        W73076   1.500  17.001   0.367
 8092W        W73077  22.574   2.766   4.400
 8093W        W73078  34.802   8.473   0.140
 8094W        W73079  35.687   1.168   1.256
 8095W        W73080  22.510  20.705   1.770
 8096W        W73081  14.261  11.912   3.793
 8097W        W73082  23.760  20.371  14.019
 8098W        W73083  26.178  39.038  13.990
 8099W        W73084  38.070  13.804   0.985
 8100W        W73085  13.509   0.822  11.589
 8101W        W73086   0.499  11.361  13.931
 8102W        W73087  13.752  35.120  13.568
 8103W        W73088  34.620  40.919   5.023
 8104W        W73089  26.176  36.634  13.951
 8105W        W73090  30.199   9.359  12.152
 8106W        W73091  26.299  18.654  10.983
 8107W        W73092  19.637  16.168   2.309
 8108W        W73093  40.769  42.397  11.980
 8109W        W73094  37.597   2.517  13.026
 8110W        W73095  19.292  41.491   5.031
 8111W        W73096  40.018  25.470   3.301
 8112W        W73097  20.713  42.825  13.169
 8113W        W73098  26.637  15.288  12.473
 8114W        W73099  39.371  32.650  12.050
 8115W        W73100  13.947  39.837  13.029
 8116W        W73101  15.391   9.684  11.511
 8117W        W73102  27.190  10.143  11.504
 8118W        W73103  16.324  10.132  13.088
 8119W        W73104  38.575  14.267   2.727
 8120W        W73105  35.280  44.539   0.934
 8121W        W73106  10.529   1.428  11.547
 8122W        W73107  24.589   0.447   3.146
 8123W        W73108  36.534  43.749  11.438
 8124W        W73109  23.988  17.048   4.047
 8125W        W73110  37.348  11.299   2.728
 8126W        W73111  17.548  37.743   3.292
 8127W        W73112  15.535  21.890   3.853
 8128W        W73113  42.987  42.780   4.084
 8129W        W73114  44.183  36.941  10.384
 8130W        W73115  40.236  28.287   4.581
 8131W        W73116  39.509  23.035   4.545
 8132W        W73117  15.986  14.598   0.860
 8133W        W73118  22.080  32.747   3.265
 8134W        W73119  18.415  25.276   4.174
 8135W        W73120  10.526  37.675   2.666
 8136W        W73121  12.353  27.726  11.120
 8137W        W73122   8.329  30.116  10.663
 8138W        W73123  28.092   5.205  13.589
 8139W        W73124  19.007  41.532  14.029
 8140W        W73125   5.361   1.236   0.708
 8141W        W73126  26.348  12.389   2.318
 8142W        W73127  38.044  32.536  11.638
 8143W        W73128  24.157  23.989   2.755
 8144W        W73129  11.235  22.074  14.139
 8145W        W73130  18.432  15.752   3.788
 8146W        W73131  36.542  33.130   4.509
 8147W        W73132  41.448  30.251   4.921
 8148W        W73133  27.223  44.392   4.102
 8149W        W73134  37.772  13.264  14.811
 8150W        W73135  11.073   5.320   4.104
 8151W        W73136  33.672  19.764   0.909
 8152W        W73137  16.599   6.910   3.197
 8153W        W73138  41.412  20.017  13.561
 8154W        W73139   4.183  39.775  11.090
 8155W        W73140  13.751  28.857  11.241
 8156W        W73141  39.152  27.981  11.110
 8157W        W73142  16.088  28.640   0.448
 8158W        W73143   8.307  35.109   4.239
 8159W        W73144  35.833   5.298   4.107
 8160W        W73145  13.311  23.007   3.253
 8161W        W73146   7.872  29.408  10.640
 8162W        W73147  10.289  16.779  12.114
 8163W        W73148  11.247  34.426   0.867
 8164W        W73149  22.740  19.157  11.892
 8165W        W73150  43.886  42.481  13.602
 8166W        W73151  43.478  44.788   3.264
 8167W        W73152  39.949  37.971   3.454
 8168W        W73153  10.808  36.053   1.046
 8169W        W73154  11.676  18.159  13.161
 8170W        W73155  23.949  10.942  13.025
 8171W        W73156  12.630  16.602   1.928
 8172W        W73157  16.075  44.273  14.284
 8173W        W73158  17.070   0.926  14.701
 8174W        W73159  13.710  36.456   4.634
 8175W        W73160  37.335  21.545   3.375
 8176W        W73161   7.666   1.492  11.453
 8177W        W73162   5.390   2.960   2.474
 8178W        W73163  43.908   0.754   3.000
 8179W        W73164  34.139   9.899   3.640
 8180W        W73165  39.872   4.195   2.141
 8181W        W73166  37.358  19.675  12.110
 8182W        W73167  13.126  44.756  14.900
 8183W        W73168  30.096  38.019   2.148
 8184W        W73169  30.056  24.561  10.721
 8185W        W73170  42.922   7.851   0.661
 8186W        W73171   7.313  42.008  13.491
 8187W        W73172  35.651  21.288   1.323
 8188W        W73173  22.721   8.363  14.384
 8189W        W73174  43.659  15.747   2.419
 8190W        W73175   0.261  22.892  13.303
 8191W        W73176  29.663  33.866  13.350
 8192W        W73177   8.429  35.332   2.417
 8193W        W73178  19.840  25.153   4.051
 8194W        W73179  16.830  19.326   3.269
 8195W        W73180  12.808  42.998   0.464
 8196W        W73181   1.476   0.596   2.778
 8197W        W73182  31.800  42.129   0.367
 8198W        W73183   5.388  35.305   4.787
 8199W        W73184  15.709  19.253   4.649
 8200W        W73185   8.923  21.125   4.988
 8201W        W73186  31.813  18.435  12.911
 8202W        W73187  13.222   4.119  11.946
 8203W        W73188  35.156  29.480  12.630
 8204W        W73189   1.487  28.526  14.333
 8205W        W73190  28.666  23.226  14.407
 8206W        W73191  44.649   9.324   1.864
 8207W        W73192  26.899  38.001  14.294
 8208W        W73193  13.921  41.765  11.478
 8209W        W73194  15.607   4.688  12.000
 8210W        W73195  24.642  25.491   3.044
 8211W        W73196  16.570   3.438   1.695
 8212W        W73197  40.595  30.409  14.180
 8213W        W73198  31.018  12.875   4.951
 8214W        W73199  16.740   0.323  12.473
 8215W        W73200   8.404   2.380  14.305
 8216W        W73201   0.017  34.955   3.133
 8217W        W73202   2.353  15.311  12.560
 8218W        W73203  24.565  34.759   2.672
 8219W        W73204  15.628  33.912   4.831
 8220W        W73205   1.426   4.318   4.853
 8221W        W73206  15.760  33.701   3.183
 8222W        W73207  12.172  28.245   0.279
 8223W        W73208  30.990  44.358  14.972
 8224W        W73209   8.425  34.273  11.621
 8225W        W73210   1.448  12.670   0.532
 8226W        W73211  26.211   9.600   4.133
 8227W        W73212  31.895  40.409  13.775
 8228W        W73213  32.935   1.184   1.747
 8229W        W73214   6.441  11.599   0.977
 8230W        W73215  32.220  40.982  12.957
 8231W        W73216  44.924  19.993   3.215
 8232W        W73217  44.043   7.117  14.874
 8233W        W73218  42.560  38.054  13.418
 8234W        W73219  36.369  44.032  12.389
 8235W        W73220  28.670  44.839  12.033
 8236W        W73221  14.922   8.913  11.891
 8237W        W73222  21.162  19.972  13.955
 8238W        W73223  14.661  23.569   4.273
 8239W        W73224  33.403   0.431  11.492
 8240W        W73225  24.446  28.070   4.136
 8241W        W73226  10.606   2.332   0.265
 8242W        W73227  36.635   9.403   0.813
 8243W        W73228  44.982  14.075  13.077
 8244W        W73229  31.112  37.036   3.636
 8245W        W73230  33.601  18.920   3.808
 8246W        W73231  27.210  13.897  13.587
 8247W        W73232  17.549  12.331   1.672
 8248W        W73233  20.240  31.619   0.127
 8249W        W73234   6.650  31.456   3.786
 8250W        W73235  41.918  38.271  12.915
 8251W        W73236  40.408   0.904   2.403
 8252W        W73237  37.588  36.529  13.575
 8253W        W73238   5.115  36.868  13.699
 8254W        W73239   7.420   9.830   1.777
 8255W        W73240  22.156  31.549  11.189
 8256W        W73241  22.807  13.915  10.379
 8257W        W73242  39.007   3.886   0.802
 8258W        W73243   5.328  39.012   0.632
 8259W        W73244  17.469  38.050   3.733
 8260W        W73245  13.510  41.441  10.640
 8261W        W73246  16.307  42.410  11.207
 8262W        W73247  38.495   3.768   3.536
 8263W        W73248   4.340  43.376   4.115
 8264W        W73249  15.251  11.150   3.621
 8265W        W73250   1.845  41.552   2.640
 8266W        W73251  35.501  13.263   0.222
 8267W        W73252  19.799  22.556  14.894
 8268W        W73253   7.738  21.277  12.699
 8269W        W73254  43.798  27.925  11.029
 8270W        W73255  20.137  35.917  11.611
 8271W        W73256  40.449  29.845  11.601
 8272W        W73257   5.663  27.336  10.467
 8273W        W73258   7.244  29.911  12.938
 8274W        W73259   8.444  16.654   3.651
 8275W        W73260  13.634  41.969  13.690
 8276W        W73261  38.053   4.042   0.957
 8277W        W73262  17.539   1.223   0.755
 8278W        W73263  13.054   1.858   0.233
 8279W        W73264   3.802  34.458  14.251
 8280W        W73265   3.422  28.490  11.184
 8281W        W73266  11.031  10.903  12.442
 8282W        W73267  18.681  21.213  12.585
 8283W        W73268   1.520  44.840   3.245
 8284W        W73269  30.988  37.820  14.413
 8285W        W73270  33.943   5.463   1.448
 8286W        W73271  19.226  14.908   3.235
 8287W        W73272  43.272  24.173  14.791
 8288W        W73273  17.817  26.747  14.443
 8289W        W73274  15.544   6.056  14.372
 8290W        W73275  20.439  36.581  14.550
 8291W        W73276   7.406  15.614   3.716
 8292W        W73277  25.632  14.872   1.424
 8293W        W73278   0.808   8.707  11.677
 8294W        W73279  32.603  24.650  11.720
 8295W        W73280   7.546  43.977   0.343
 8296W        W73281  43.921  18.789   0.883
 8297W        W73282   9.840   9.345  12.754
 8298W        W73283   5.716  25.001  13.659
 8299W        W73284  26.918  10.468  13.780
 8300W        W73285   9.760   8.770  13.950
 8301W        W73286   3.461  36.983   0.452
 8302W        W73287  38.125   6.487   9.726
 8303W        W73288  16.555  43.163  13.993
 8304W        W73289  27.593  29.399   2.254
 8305W        W73290  21.675  32.944   3.533
 8306W        W73291  14.026  44.725  13.037
 8307W        W73292  11.828  41.254  14.279
 8308W        W73293   5.905  31.479  13.410
 8309W        W73294  29.911  20.090   4.241
 8310W        W73295   1.024   8.548  14.378
 8311W        W73296  38.621  24.129  11.362
 8312W        W73297  17.829  15.827  10.525
 8313W        W73298  42.802  34.825  13.221
 8314W        W73299  10.276  35.968  10.040
 8315W        W73300  26.948  10.536  14.836
 8316W        W73301   0.564  35.856  12.899
 8317W        W73302  40.949  27.136   1.359
 8318W        W73303  32.592  40.946   1.265
 8319W        W73304  21.591  34.448  13.714
 8320W        W73305   7.910  42.488  12.387
 8321W        W73306  36.424  26.134  13.447
 8322W        W73307  36.443  23.567   1.718
 8323W        W73308  34.562   9.605   3.634
 8324W        W73309  33.635  14.597  13.801
 8325W        W73310  21.759   3.839   1.945
 8326W        W73311  33.836   3.291  11.648
 8327W        W73312  16.648  38.155   1.789
 8328W        W73313   9.290  34.815  11.453
 8329W        W73314  25.019  14.733   4.585
 8330W        W73315  44.911  27.075   0.608
 8331W        W73316  22.586  42.486   1.275
 8332W        W73317  17.457  12.380  12.358
 8333W        W73318  22.736   8.621  14.865
 8334W        W73319  26.460  30.599   1.768
 8335W        W73320  41.491  25.015   2.647
 8336W        W73321  38.488  32.488   1.381
 8337W        W73322  18.305  30.326   4.159
 8338W        W73323   3.860  37.081   0.071
 8339W        W73324  29.131  31.108   2.234
 8340W        W73325  19.645   7.480  14.168
 8341W        W73326  14.444  38.337  13.930
 8342W        W73327  42.538   3.611  13.955
 8343W        W73328  31.823  21.519  12.473
 8344W        W73329  30.353   6.438   2.306
 8345W        W73330   1.458  11.679   1.335
 8346W        W73331  21.326   9.645   2.803
 8347W        W73332  33.716  36.325   2.847
 8348W        W73333  20.516  40.688   1.577
 8349W        W73334  37.480  15.794  13.463
 8350W        W73335   0.485  25.478  11.638
 8351W        W73336   6.033  19.489  10.666
 8352W        W73337  24.794  34.870   0.343
 8353W        W73338  27.481  13.604  11.944
 8354W        W73339  11.781  26.591   4.005
 8355W        W73340  28.446  41.570  12.058
 8356W        W73341  28.198  43.391   3.801
 8357W        W73342  28.519   9.451  10.501
 8358W        W73343  11.428  22.537  12.364
 8359W        W73344  36.425  43.512   4.480
 8360W        W73345  37.918  26.191  11.604
 8361W        W73346  31.376  10.428  10.572
 8362W        W73347  38.340  16.954  10.081
 8363W        W73348  23.553  35.876   1.393
 8364W        W73349  17.086  18.628   0.035
 8365W        W73350  31.072  37.795   2.595
 8366W        W73351  10.814  13.278  14.349
 8367W        W73352  27.197  27.150  13.974
 8368W        W73353  22.477  28.029  10.432
 8369W        W73354   6.196  42.776  10.438
 8370W        W73355  42.894  13.139  12.431
 8371W        W73356   7.844  26.456  11.598
 8372W        W73357  28.438  36.536  10.702
 8373W        W73358   0.517  32.055   3.771
 8374W        W73359  20.578  33.879  14.705
 8375W        W73360  28.553   4.389   3.398
 8376W        W73361  24.506  26.574   3.717
 8377W        W73362  27.427  33.385   2.671
 8378W        W73363  37.386  39.019  13.302
 8379W        W73364  30.725  26.054  13.927
 8380W        W73365  19.676  17.082  14.097
 8381W        W73366   7.318   3.363   1.315
 8382W        W73367   1.356  28.292   3.117
 8383W        W73368  36.139   0.812   2.339
 8384W        W73369  20.933  31.147  13.382
 8385W        W73370   8.742  10.199   4.591
 8386W        W73371   3.951  40.143   2.310
 8387W        W73372   1.737  17.156  10.674
 8388W        W73373  19.628  12.722  12.138
 8389W        W73374   9.839  20.557  11.243
 8390W        W73375  30.825  41.293  13.588
 8391W        W73376  23.325  37.778   2.288
 8392W        W73377   9.476  13.488  11.261
 8393W        W73378  30.645  23.519  12.175
 8394W        W73379   7.978  26.685   4.191
 8395W        W73380  28.195  43.420  14.834
 8396W        W73381  42.400   8.004   4.337
 8397W        W73382  12.232  41.907   3.130
 8398W        W73383  14.654   3.427   1.735
 8399W        W73384   3.020  23.466   3.666
 8400W        W73385  26.944  36.875  11.984
 8401W        W73386  15.067   5.626  13.892
 8402W        W73387  31.924  11.668  13.859
 8403W        W73388  38.287  16.707  13.710
 8404W        W73389  40.743   0.290  10.882
 8405W        W73390  28.547  21.507  10.643
 8406W        W73391  26.082  41.073  11.588
 8407W        W73392  27.677  39.632   3.661
 8408W        W73393  13.536   2.744   3.443
 8409W        W73394  41.015  24.201   0.329
 8410W        W73395   1.846  17.219  14.381
 8411W        W73396  34.139   8.627  11.732
 8412W        W73397   4.434  17.672   4.185
 8413W        W73398  16.141  36.600   3.653
 8414W        W73399   0.828   6.902  14.014
 8415W        W73400  12.560   8.373  14.301
 8416W        W73401  33.872  38.300  14.907
 8417W        W73402  41.367   6.784  11.410
 8418W        W73403  19.719   9.244   1.628
 8419W        W73404  34.986  32.404  14.529
 8420W        W73405  22.625  23.119  10.560
 8421W        W73406  20.947  32.010  14.503
 8422W        W73407  15.054   2.709   2.299
 8423W        W73408  15.155  12.338  13.332
 8424W        W73409  36.812  28.009  13.945
 8425W        W73410  14.772  44.945   0.274
 8426W        W73411  35.899  19.832  10.633
 8427W        W73412   4.315   4.182  10.417
 8428W        W73413  24.426   5.300   3.778
 8429W        W73414  40.221   6.450  11.218
 8430W        W73415  11.377  43.467   1.834
 8431W        W73416  40.753   2.442   0.299
 8432W        W73417  43.165   6.049  11.198
 8433W        W73418  10.308  31.706  14.983
 8434W        W73419  35.817  25.584   1.721
 8435W        W73420  35.816  35.114  12.318
 8436W        W73421   9.329  21.652   2.221
 8437W        W73422  17.486  11.611   2.127
 8438W        W73423  10.720  39.554   4.493
 8439W        W73424  37.416  28.908  13.473
 8440W        W73425  23.738  18.605   5.655
 8441W        W73426   2.200  10.800   1.466
 8442W        W73427  13.333  25.604  14.576
 8443W        W73428  17.117  44.421  10.320
 8444W        W73429  17.530  21.180  14.472
 8445W        W73430  26.482  40.925  14.821
 8446W        W73431  30.390   1.758  14.808
 8447W        W73432  31.609  33.099  10.990
 8448W        W73433  28.722  44.546  14.279
 8449W        W73434   5.299  36.874  11.480
 8450W        W73435   3.460  12.269   2.228
 8451W        W73436  31.175  21.456  13.022
 8452W        W73437   4.158   0.456  13.723
 8453W        W73438  23.251  39.984  13.414
 8454W        W73439  13.874  23.615   2.340
 8455W        W73440  34.243   2.462   3.991
 8456W        W73441  22.046  13.881   4.962
 8457W        W73442  13.833  40.878   1.466
 8458W        W73443  36.609  10.488  13.439
 8459W        W73444   7.980  22.055  13.482
 8460W        W73445  14.308  44.499  11.999
 8461W        W73446  39.251   4.420   0.046
 8462W        W73447  16.833   5.808  11.319
 8463W        W73448  33.120  33.405  11.075
 8464W        W73449   1.885  42.915   4.528
 8465W        W73450  36.056  35.532  12.530
 8466W        W73451  21.317  14.770   2.676
 8467W        W73452  12.328  17.833  10.748
 8468W        W73453   0.795  17.597  10.824
 8469W        W73454  14.235  23.810  13.395
 8470W        W73455  44.450  22.777   2.794
 8471W        W73456  16.573  41.722   1.008
 8472W        W73457  37.403  27.069  10.767
 8473W        W73458  26.803  33.671  11.779
 8474W        W73459   8.694  24.940   3.263
 8475W        W73460  12.943  36.483  12.595
 8476W        W73461  15.407   9.728  13.948
 8477W        W73462  14.637  36.833   3.625
 8478W        W73463   6.324   6.986   4.564
 8479W        W73464  33.616  31.981  13.567
 8480W        W73465  24.033  31.341  14.925
 8481W        W73466  39.299  10.047   2.238
 8482W        W73467  23.279  31.022   0.625
 8483W        W73468  19.736   1.095  13.653
 8484W        W73469   5.531  13.809  14.837
 8485W        W73470  17.202  12.594  11.949
 8486W        W73471  27.844  42.841  14.844
 8487W        W73472  44.736  18.035   1.307
 8488W        W73473   9.881  27.540   1.851
 8489W        W73474   6.702  41.642   0.166
 8490W        W73475  42.860  13.751   1.047
 8491W        W73476  44.140  17.001  12.685
 8492W        W73477  38.251  39.708  11.693
 8493W        W73478  44.727  43.444   3.935
 8494W        W73479  19.715  15.483   1.914
 8495W        W73480   3.821   3.783   1.685
 8496W        W73481   9.829  10.897   3.673
 8497W        W73482  41.533   0.009   0.224
 8498W        W73483   8.291  34.021   4.564
 8499W        W73484  21.753  44.717   1.550
 8500W        W73485   3.603  33.833   1.353
 8501W        W73486  18.261  24.609   1.807
 8502W        W73487  14.268  39.983  14.375
 8503W        W73488  31.181   3.415  10.136
 8504W        W73489  16.797   4.330  13.001
 8505W        W73490  27.540  37.933   1.264
 8506W        W73491  16.543  39.507   1.694
 8507W        W73492  22.738  43.425   2.294
 8508W        W73493  40.474   5.388  13.863
 8509W        W73494  41.020  22.978   3.726
 8510W        W73495  27.396  44.763   2.291
 8511W        W73496  20.041  30.939   3.129
 8512W        W73497  41.483  41.504   0.508
 8513W        W73498   7.023  17.124   1.974
 8514W        W73499  40.503  10.890  12.854
 8515W        W73500  11.898  42.388  14.834
 8516W        W73501  42.998  20.263  11.067
 8517W        W73502  41.126  36.039   1.800
 8518W        W73503   4.833  33.058   4.669
 8519W        W73504  17.773  39.947  12.991
 8520W        W73505  44.480   3.500  14.667
 8521W        W73506  11.882  38.374   4.450
 8522W        W73507   7.575  32.847   1.483
 8523W        W73508  24.265   2.555   5.355
 8524W        W73509   3.345  12.609   0.208
 8525W        W73510  25.428  29.689  11.981
 8526W        W73511  15.161  23.561   1.501
 8527W        W73512   3.640  23.561   1.154
 8528W        W73513  22.852   9.200  11.070
 8529W        W73514  31.113   4.977  13.414
 8530W        W73515  43.369  38.417   1.275
 8531W        W73516  27.940  22.884  13.860
 8532W        W73517   9.702  16.984   4.766
 8533W        W73518  28.030   0.306   1.848
 8534W        W73519  21.681   0.707   1.249
 8535W        W73520  29.186  36.319  12.167
 8536W        W73521  18.284  28.521  12.000
 8537W        W73522   3.399  28.844  12.555
 8538W        W73523   0.774  44.281  10.735
 8539W        W73524   2.978  33.718  11.131
 8540W        W73525  24.056  41.982  14.910
 8541W        W73526   9.283  32.925  13.388
 8542W        W73527   3.469  14.532   3.327
 8543W        W73528  27.105  43.055  10.661
 8544W        W73529  41.386   5.402   4.541
 8545W        W73530  25.503  43.894  14.980
 8546W        W73531  31.108  21.807  14.291
 8547W        W73532  25.885  17.204   3.138
 8548W        W73533   8.819  25.374   1.364
 8549W        W73534  38.435   8.170  12.289
 8550W        W73535  13.787   2.479  12.058
 8551W        W73536  44.748  33.983   2.436
 8552W        W73537  13.473  42.495   3.299
 8553W        W73538  14.882  37.256   4.143
 8554W        W73539  19.738  36.459  12.560
 8555W        W73540  35.783  22.972   4.585
 8556W        W73541  12.168  12.238   4.099
 8557W        W73542  29.920  27.166  11.189
 8558W        W73543  28.708  26.088  14.232
 8559W        W73544  34.015   8.578   2.346
 8560W        W73545  26.424  35.484  13.902
 8561W        W73546  17.149  19.339   5.633
 8562W        W73547  27.658  32.539  13.955
 8563W        W73548  14.606  25.685   1.211
 8564W        W73549  18.012   1.699  13.583
 8565W        W73550  12.343  28.540   2.574
 8566W        W73551  43.889  26.196  12.388
 8567W        W73552  33.030  12.253   2.155
 8568W        W73553  37.920  14.043  13.512
 8569W        W73554  35.541  44.529   3.991
 8570W        W73555  20.802   8.321   3.783
 8571W        W73556  23.485  32.014   3.183
 8572W        W73557  23.447  24.982  13.826
 8573W        W73558   2.306  36.838   2.228
 8574W        W73559  28.500   5.931  12.559
 8575W        W73560  21.599   6.188  10.336
 8576W        W73561  24.790   8.769   0.772
 8577W        W73562  34.500  24.938   0.709
 8578W        W73563   9.852  33.666  11.512
 8579W        W73564  17.526  30.842   3.074
 8580W        W73565   1.751  35.190  11.615
 8581W        W73566  36.858  10.989  10.423
 8582W        W73567  41.853  43.498   0.295
 8583W        W73568  27.007   0.281  10.506
 8584W        W73569  25.990  18.856   2.396
 8585W        W73570  16.411  39.906   2.473
 8586W        W73571  20.309  16.659   2.431
 8587W        W73572  23.601  31.560   4.438
 8588W        W73573   0.712  37.344  13.183
 8589W        W73574  32.854  32.156  14.314
 8590W        W73575  26.958  42.536   3.079
 8591W        W73576  13.868   3.594   4.285
 8592W        W73577  39.717  34.884   3.342
 8593W        W73578  20.536  24.978  11.071
 8594W        W73579   0.982  18.770  10.442
 8595W        W73580  42.992   8.691   0.458
 8596W        W73581   7.265  23.694   0.773
 8597W        W73582  24.521  17.154  13.848
 8598W        W73583  32.913  39.071  12.680
 8599W        W73584  38.642  44.883  13.837
 8600W        W73585   2.757   9.193  13.019
 8601W        W73586  21.256  11.913   1.270
 8602W        W73587  24.951  18.762   0.816
 8603W        W73588  27.484  18.306   1.419
 8604W        W73589   6.894  27.353   2.686
 8605W        W73590  22.131  28.378   1.914
 8606W        W73591  31.496  11.641  13.530
 8607W        W73592  23.214  12.610   3.769
 8608W        W73593   9.009  22.342   3.709
 8609W        W73594   9.657  15.157  12.690
 8610W        W73595  19.840  42.002   1.735
 8611W        W73596  31.695  32.091  13.569
 8612W        W73597  30.647  44.570  13.165
 8613W        W73598  31.978   8.601   3.210
 8614W        W73599  33.907  32.135  13.082
 8615W        W73600   3.748  25.198   3.626
 8616W        W73601   2.782  28.450  11.867
 8617W        W73602  23.732  31.728   0.835
 8618W        W73603  10.336  43.038  11.084
 8619W        W73604  30.518  25.102  14.449
 8620W        W73605  15.782  10.801   4.571
 8621W        W73606  17.300  41.354  11.582
 8622W        W73607  18.767  39.081   1.978
 8623W        W73608  24.023  31.523  13.533
 8624W        W73609  35.931  37.410  14.330
 8625W        W73610  17.833   0.789  14.151
 8626W        W73611  22.853  11.751  11.031
 8627W        W73612   3.482  30.130  13.092
 8628W        W73613  18.107  44.897  14.252
 8629W        W73614   1.567  30.491   4.054
 8630W        W73615  23.620  38.367  14.528
 8631W        W73616  31.970  16.814   0.416
 8632W        W73617   9.756  39.172  14.906
 8633W        W73618   3.735  43.982   3.323
 8634W        W73619  44.734  16.523   1.877
 8635W        W73620  32.853  26.096  11.730
 8636W        W73621   0.906  27.092  14.274
 8637W        W73622  27.005   2.054  14.323
 8638W        W73623  42.187  15.604   5.092
 8639W        W73624  29.598   3.769   3.332
 8640W        W73625  35.599  19.006   2.136
 8641W        W73626  42.266   2.187  13.370
 8642W        W73627  33.885  38.528  13.946
 8643W        W73628   6.420   9.749  12.496
 8644W        W73629  28.565  18.332  11.139
 8645W        W73630  13.502  44.726  13.065
 8646W        W73631  16.788   7.946   4.937
 8647W        W73632  32.056  20.023   0.412
 8648W        W73633  19.326  41.419   1.226
 8649W        W73634   3.927  11.613  10.345
 8650W        W73635  20.181  25.867   3.292
 8651W        W73636  14.578  14.805  14.777
 8652W        W73637  18.972  16.668  13.817
 8653W        W73638  23.248  14.680  13.456
 8654W        W73639   0.998  16.178   2.891
 8655W        W73640  24.569  32.705   0.451
 8656W        W73641  21.582  26.058  14.547
 8657W        W73642   8.828  16.260  13.667
 8658W        W73643  30.497  14.716   2.450
 8659W        W73644  38.888  18.512   0.332
 8660W        W73645   3.923  22.046   0.785
 8661W        W73646   6.792   1.990  12.812
 8662W        W73647  26.166  44.321  10.293
 8663W        W73648  39.931  32.321   0.527
 8664W        W73649  35.541  38.784   0.812
 8665W        W73650  40.408   2.951  10.801
 8666W        W73651  12.797  27.478   1.950
 8667W        W73652  23.239  20.468  12.833
 8668W        W73653  14.304  34.330  14.293
 8669W        W73654  32.127   5.415   4.381
 8670W        W73655  44.101  20.068  10.956
 8671W        W73656   4.027  26.795   1.374
 8672W        W73657   6.856   7.883  11.172
 8673W        W73658  18.809  13.736   2.243
 8674W        W73659  34.978  13.605   0.839
 8675W        W73660   4.517   9.864   4.352
 8676W        W73661  11.570  12.843  11.124
 8677W        W73662   8.815  10.562   0.494
 8678W        W73663  29.126  18.853  12.099
 8679W        W73664  20.242  26.055  11.611
 8680W        W73665   0.759  35.124  12.403
 8681W        W73666  21.122  19.774   1.656
 8682W        W73667  19.368  15.294  12.028
 8683W        W73668  42.314  32.884  12.063
 8684W        W73669  21.064  15.486   0.825
 8685W        W73670  22.872  28.311  13.418
 8686W        W73671  37.261  40.532   3.712
 8687W        W73672  18.654  21.395  11.541
 8688W        W73673  40.587  40.057  12.575
 8689W        W73674  19.081  25.193  12.029
 8690W        W73675   2.802  23.003   3.690
 8691W        W73676  44.494  28.467  11.995
 8692W        W73677  29.419  38.479  12.396
 8693W        W73678  36.580   1.932   1.758
 8694W        W73679  27.070  28.499  14.383
 8695W        W73680   8.239  15.901  14.804
 8696W        W73681  38.895  31.104  11.494
 8697W        W73682  26.125  18.814   3.293
 8698W        W73683  29.383  17.229  14.844
 8699W        W73684  15.669   2.980   5.444
 8700W        W73685   3.203  20.294   1.675
 8701W        W73686  36.866  41.490   2.903
 8702W        W73687  30.034  21.257   1.902
 8703W        W73688  19.517  18.822   3.237
 8704W        W73689  38.313  24.660   3.570
 8705W        W73690  32.881  39.421  14.912
 8706W        W73691  35.711  15.298  13.738
 8707W        W73692   2.969  28.068  14.431
 8708W        W73693   6.068   6.568  10.794
 8709W        W73694  27.032  29.414   4.451
 8710W        W73695  24.585  20.668  12.904
 8711W        W73696  18.297  37.236  13.472
 8712W        W73697   7.763  40.353   2.264
 8713W        W73698  31.511  41.259   3.697
 8714W        W73699   0.795  23.930  12.026
 8715W        W73700  11.864  31.374   4.277
 8716W        W73701  41.317  28.569  10.497
 8717W        W73702  31.408  22.607   0.438
 8718W        W73703  38.100  33.454  11.619
 8719W        W73704  21.564  16.314   2.167
 8720W        W73705  32.534  19.539   1.099
 8721W        W73706   6.645  37.896   0.476
 8722W        W73707  18.340  31.412   1.239
 8723W        W73708  37.462  28.222   3.840
 8724W        W73709  10.886   3.223  12.436
 8725W        W73710  27.788   8.269   0.638
 8726W        W73711  31.627  21.772   4.799
 8727W        W73712  22.111  34.577   2.476
 8728W        W73713   1.814  29.667  11.184
 8729W        W73714  18.750  36.003  12.420
 8730W        W73715   4.805   8.839   1.474
 8731W        W73716  33.662  13.312   3.262
 8732W        W73717  12.956  33.569  14.143
 8733W        W73718  19.406  13.656  11.201
 8734W        W73719   1.679  12.897   2.299
 8735W        W73720   3.919  37.388   2.395
 8736W        W73721  16.467   9.843  11.195
 8737W        W73722  34.368   0.750  10.748
 8738W        W73723  13.195  32.943  12.598
 8739W        W73724  44.434   3.289   3.576
 8740W        W73725  33.163  22.561   0.293
 8741W        W73726  29.764   1.782  10.636
 8742W        W73727   2.873  20.756  13.775
 8743W        W73728  12.325  26.837   1.484
 8744W        W73729  42.020   8.177  14.366
 8745W        W73730   6.525   9.614  14.215
 8746W        W73731  13.552   3.538  11.142
 8747W        W73732  40.009   7.111  11.717
 8748W        W73733  19.240  13.672  13.102
 8749W        W73734  29.017   7.375  11.475
 8750W        W73735  32.227   3.201   3.827
 8751W        W73736   6.011   0.823  11.211
 8752W        W73737  14.571  38.892  11.219
 8753W        W73738  22.246   5.297  13.528
 8754W        W73739   8.866  44.677   0.407
 8755W        W73740  33.650   5.864  10.163
 8756W        W73741  32.519  33.491  13.387
 8757W        W73742  38.198  24.280  11.097
 8758W        W73743  35.140  43.589   3.763
 8759W        W73744  19.545   6.580  12.630
 8760W        W73745  24.302  40.346   0.873
 8761W        W73746   6.752  40.065  11.119
 8762W        W73747  13.555  13.142  13.426
 8763W        W73748  41.303  15.377  14.780
 8764W        W73749  35.537  43.748   0.290
 8765W        W73750  15.302  27.754  12.131
 8766W        W73751  39.267  37.578   3.165
 8767W        W73752  32.468  37.309  10.408
 8768W        W73753  30.391  34.225   3.734
 8769W        W73754  37.767  44.360  14.939
 8770W        W73755   9.274  13.698  14.209
 8771W        W73756  39.627   2.795   4.418
 8772W        W73757  30.076   2.646   2.688
 8773W        W73758   8.195  33.588   1.454
 8774W        W73759  24.562  26.519   5.169
 8775W        W73760  28.463  21.017   4.360
 8776W        W73761  20.496  31.177   2.906
 8777W        W73762  19.225  25.749  11.071
 8778W        W73763   2.905   9.661   2.218
 8779W        W73764  38.849  10.973   1.390
 8780W        W73765  10.911   8.776  14.396
 8781W        W73766  16.567  18.549  13.999
 8782W        W73767   7.878   9.208  11.966
 8783W        W73768  30.662  24.608  10.694
 8784W        W73769  31.531  34.998  14.485
 8785W        W73770  22.734  35.653   0.886
 8786W        W73771   2.521  33.235   1.501
 8787W        W73772  41.163   5.949  13.531
 8788W        W73773  19.886  41.153   0.433
 8789W        W73774   0.655  35.037   2.782
 8790W        W73775  11.030  16.205  13.474
 8791W        W73776  30.392   3.158  14.070
 8792W        W73777  22.398   2.718  11.988
 8793W        W73778   9.602  34.376  12.149
 8794W        W73779   7.970  26.969  13.722
 8795W        W73780  26.730   5.238   3.733
 8796W        W73781  13.912  12.497  11.109
 8797W        W73782  11.201  29.039   3.073
 8798W        W73783  19.524  34.542   1.852
 8799W        W73784  38.235  12.783  10.931
 8800W        W73785  31.685  37.594  10.773
 8801W        W73786  26.213  26.110  14.366
 8802W        W73787  10.757  16.876   4.142
 8803W        W73788  42.937  39.406  14.933
 8804W        W73789  29.921  18.527   1.264
 8805W        W73790  16.423  28.971   3.654
 8806W        W73791  16.974  11.125   2.793
 8807W        W73792  13.402  35.794   2.571
 8808W        W73793  34.528   7.403   4.529
 8809W        W73794  19.910  21.759   9.826
 8810W        W73795  41.145  31.714  14.957
 8811W        W73796  37.095  42.746   0.507
 8812W        W73797  16.273  38.886   4.335
 8813W        W73798  36.779  44.452   2.154
 8814W        W73799   5.742  19.289  13.902
 8815W        W73800  19.507  10.302   3.157
 8816W        W73801  21.600  25.542   0.175
 8817W        W73802   5.403  44.809   3.688
 8818W        W73803  38.839  34.028  10.503
 8819W        W73804  17.187   2.196  12.341
 8820W        W73805  15.877   9.953  13.872
 8821W        W73806  42.336   0.869  13.052
 8822W        W73807  35.375   6.943   3.725
 8823W        W73808   8.773  38.716  13.662
 8824W        W73809  40.513  27.441  11.140
 8825W        W73810  37.057   3.687  12.931
 8826W        W73811  18.466  19.606  12.980
 8827W        W73812   8.728  26.329   0.162
 8828W        W73813   0.507  11.336  14.882
 8829W        W73814  26.378  23.705  11.018
 8830W        W73815  26.336  38.267  11.558
 8831W        W73816  23.114  35.553  13.280
 8832W        W73817   1.256  42.440   2.407
 8833W        W73818   4.870  26.534  10.621
 8834W        W73819  42.829   2.967   1.442
 8835W        W73820   0.018  38.434   2.925
 8836W        W73821   9.889  11.179  13.975
 8837W        W73822  22.111  14.815   2.239
 8838W        W73823   4.921  21.066   1.335
 8839W        W73824  32.034  16.217  12.577
 8840W        W73825  29.098  21.588  11.269
 8841W        W73826  38.646  11.598  10.873
 8842W        W73827  43.725  29.455  14.752
 8843W        W73828   3.245  10.158  11.869
 8844W        W73829   8.018   6.401  10.746
 8845W        W73830  36.325  37.630  13.512
 8846W        W73831  27.595  35.370  13.900
 8847W        W73832  31.998  12.009   4.588
 8848W        W73833  23.458  34.468  12.676
 8849W        W73834  43.839   7.455  11.092
 8850W        W73835   7.876  17.826  14.245
 8851W        W73836  35.841   9.618   0.899
 8852W        W73837  38.691  12.913  11.147
 8853W        W73838   8.991  36.886  11.929
 8854W        W73839  25.807  41.012  12.020
 8855W        W73840  13.378  18.858   1.236
 8856W        W73841  26.644  36.921   2.534
 8857W        W73842  14.509  16.622  11.532
 8858W        W73843  10.091  26.785   4.779
 8859W        W73844  15.737  25.482   2.102
 8860W        W73845  29.092  22.332  11.011
 8861W        W73846  34.086   9.974  10.364
 8862W        W73847   6.272  28.242   0.208
 8863W        W73848   8.781  25.894  11.549
 8864W        W73849  43.460  33.193  12.979
 8865W        W73850  27.389  20.412  14.245
 8866W        W73851  29.152   7.534  10.607
 8867W        W73852  14.281  11.681   1.748
 8868W        W73853  40.765  30.888   1.388
 8869W        W73854   0.959  39.893   3.345
 8870W        W73855  17.148  44.856   2.583
 8871W        W73856  15.415  24.175  13.967
 8872W        W73857  40.791   7.953   3.339
 8873W        W73858  15.705  44.054   3.755
 8874W        W73859   3.829  16.569  13.784
 8875W        W73860  15.606  10.870  11.235
 8876W        W73861  30.121   3.159   9.947
 8877W        W73862  41.228   4.450  10.752
 8878W        W73863   2.869  13.275   4.887
 8879W        W73864  37.858   1.971   1.456
 8880W        W73865  38.938   1.262  12.384
 8881W        W73866  17.964  18.461   4.807
 8882W        W73867  29.850  36.183  14.838
 8883W        W73868  14.817   0.178  11.530
 8884W        W73869  16.105  26.034  10.702
 8885W        W73870  30.969  11.683   3.049
 8886W        W73871  39.416  11.262   4.334
 8887W        W73872  15.772  27.934  12.226
 8888W        W73873   3.936  43.409  14.066
 8889W        W73874  36.079  31.156   0.961
 8890W        W73875  14.569   4.111  14.383
 8891W        W73876   0.481   1.025  14.807
 8892W        W73877  23.654   2.952  12.948
 8893W        W73878   5.250  13.619  14.432
 8894W        W73879  38.124  21.545   0.394
 8895W        W73880  42.951   4.925  12.596
 8896W        W73881  14.310   6.795   3.226
 8897W        W73882  13.010   1.379  11.141
 8898W        W73883  20.806  11.163   2.474
 8899W        W73884   3.332  39.669   3.882
 8900W        W73885   6.197  12.938   3.664
 8901W        W73886  27.367  36.980  14.281
 8902W        W73887  28.595  26.671  13.017
 8903W        W73888  19.527  44.854   3.316
 8904W        W73889  26.456  19.041   2.379
 8905W        W73890  12.232  44.306  12.072
 8906W        W73891   2.919  19.186   0.875
 8907W        W73892  14.010  14.856   0.801
 8908W        W73893  10.130  30.159  14.960
 8909W        W73894  38.769  11.609  11.623
 8910W        W73895  29.689  17.754  11.557
 8911W        W73896  25.813  43.789   3.920
 8912W        W73897  23.464  35.297  14.063
 8913W        W73898  43.247  17.727  14.706
 8914W        W73899  40.485  19.817  14.940
 8915W        W73900   6.641  19.081   2.894
 8916W        W73901   4.797  19.776  10.568
 8917W        W73902  38.552  12.888  13.473
 8918W        W73903   0.549   1.291  13.474
 8919W        W73904  39.585  14.202   4.618
 8920W        W73905  33.586   9.694   3.045
 8921W        W73906  25.692  42.953  14.065
 8922W        W73907  11.653   9.930  10.660
 8923W        W73908   1.353   4.582  11.565
 8924W        W73909  15.401  10.638   0.697
 8925W        W73910  14.707  44.154  10.751
 8926W        W73911  22.615   6.348  11.681
 8927W        W73912  17.601  35.520  13.517
 8928W        W73913  29.255  35.128   3.229
 8929W        W73914  17.583   8.476   3.438
 8930W        W73915  13.897  30.909   2.829
 8931W        W73916  33.168  17.761  10.631
 8932W        W73917  14.713  41.277   3.144
 8933W        W73918  42.867  11.590  14.297
 8934W        W73919  13.622  32.271   2.182
 8935W        W73920  17.508  28.496   0.032
 8936W        W73921  21.631  26.049   0.058
 8937W        W73922  11.832   5.780   1.671
 8938W        W73923  44.410  13.355  11.025
 8939W        W73924   0.389  44.372  14.223
 8940W        W73925   1.423   1.851  14.305
 8941W        W73926  38.833  24.186  14.790
 8942W        W73927  39.852   0.899   1.060
 8943W        W73928  32.957   8.005   2.332
 8944W        W73929  19.042  33.010  14.973
 8945W        W73930  25.688   7.657  12.128
 8946W        W73931  30.406  38.313   1.666
 8947W        W73932  44.057  10.391   1.606
 8948W        W73933  36.544  40.848   0.870
 8949W        W73934   8.440  38.502  11.099
 8950W        W73935   8.898  22.206  12.120
 8951W        W73936  43.001  23.708   2.253
 8952W        W73937  14.581  21.123   2.454
 8953W        W73938   6.933   0.058   0.420
 8954W        W73939  42.898   2.392  12.796
 8955W        W73940  23.780   5.811   1.657
 8956W        W73941  15.344   3.401   2.911
 8957W        W73942  41.774  19.045  13.883
 8958W        W73943   9.197  32.955   3.266
 8959W        W73944   5.397  24.238  10.756
 8960W        W73945  38.613  21.240  11.090
 8961W        W73946  21.077  14.357   2.149
 8962W        W73947  12.861  37.331   4.037
 8963W        W73948  29.123  35.425  14.971
 8964W        W73949  10.735  17.063  13.344
 8965W        W73950   0.219  20.304   2.917
 8966W        W73951  15.187   2.838   3.657
 8967W        W73952  25.787   6.455  14.130
 8968W        W73953  38.088  26.767   1.833
 8969W        W73954   7.919   5.252   3.678
 8970W        W73955   0.857  23.029   1.906
 8971W        W73956  14.264  44.420   2.640
 8972W        W73957  10.221  34.869   4.278
 8973W        W73958  23.795  31.658   2.904
 8974W        W73959  43.979  13.676  12.193
 8975W        W73960  32.016  12.157  10.273
 8976W        W73961  23.700  42.559   2.744
 8977W        W73962  34.909  29.018   0.820
 8978W        W73963  29.439   9.640  13.322
 8979W        W73964   7.953  26.238  12.074
 8980W        W73965  29.704  19.610  13.590
 8981W        W73966  22.292  31.205   3.292
 8982W        W73967  34.854  17.218   3.736
 8983W        W73968  39.742  19.049  14.392
 8984W        W73969  10.683  44.119  11.173
 8985W        W73970  12.957   2.993  13.943
 8986W        W73971  33.640  21.031   4.648
 8987W        W73972   4.965   4.951  14.881
 8988W        W73973  30.587  34.089  14.404
 8989W        W73974  23.180  14.895   2.411
 8990W        W73975  34.310  42.342   0.318
 8991W        W73976  34.462  33.451   0.666
 8992W        W73977  43.721  27.527   2.710
 8993W        W73978  14.843   0.008   1.143
 8994W        W73979   0.479  17.325   1.302
 8995W        W73980  19.668  36.506   3.694
 8996W        W73981  12.549  28.430  10.600
 8997W        W73982   4.618  35.097   4.025
 8998W        W73983   6.435  24.774   3.399
 8999W        W73984  10.794  28.183  10.362
 9000W        W73985  25.117  35.906   3.899
 9001W        W73986  18.582  25.685   3.910
 9002W        W73987  44.970  20.995  10.504
 9003W        W73988  14.623  35.903   3.611
 9004W        W73989  36.505  32.523  13.387
 9005W        W73990  38.861  38.912   3.193
 9006W        W73991   1.485  39.006   0.907
 9007W        W73992  27.085  42.560   1.313
 9008W        W73993   0.255  26.902  12.601
 9009W        W73994  40.560  28.429  14.383
 9010W        W73995  12.204   1.742  14.316
 9011W        W73996   9.883  43.947   3.867
 9012W        W73997  14.371  22.533   4.090
 9013W        W73998  16.356  28.977  14.876
 9014W        W73999  43.491  27.121  11.085
 9015W        W74000  44.488  12.291  14.853
 9016W        W74001  33.811  27.107   2.052
 9017W        W74002  35.274  41.791  13.949
 9018W        W74003  31.209  30.136  14.938
 9019W        W74004  22.606   2.665  13.848
 9020W        W74005  26.208  22.382  14.015
 9021W        W74006  31.879  20.213   4.061
 9022W        W74007  19.298  30.737   4.099
 9023W        W74008   3.835   3.441   4.065
 9024W        W74009   0.901  18.264  13.923
 9025W        W74010  17.326   7.220   3.991
 9026W        W74011  42.272  43.991  13.970
 9027W        W74012  30.102  25.987  13.944
 9028W        W74013  15.555  39.826   2.211
 9029W        W74014  42.040   6.221  11.536
 9030W        W74015  30.865   3.406   1.124
 9031W        W74016   1.669  11.540   4.634
 9032W        W74017  26.408  12.284  13.456
 9033W        W74018  19.589  29.433  14.920
 9034W        W74019  24.009  13.504   2.049
 9035W        W74020  10.585   2.489   4.266
 9036W        W74021  16.679  26.939  11.599
 9037W        W74022  39.398  12.260  13.387
 9038W        W74023  10.397  37.012  13.369
 9039W        W74024  15.880   7.887   0.766
 9040W        W74025  42.578   4.111   1.639
 9041W        W74026  37.169  14.740  12.077
 9042W        W74027  17.636   9.105  14.317
 9043W        W74028  43.296  37.028  12.016
 9044W        W74029  22.147  27.988   0.298
 9045W        W74030  29.610   3.842   0.478
 9046W        W74031  16.677  38.128   2.698
 9047W        W74032   0.875  23.197  11.224
 9048W        W74033   2.680  23.611  12.097
 9049W        W74034  24.971  32.625  13.486
 9050W        W74035  42.926   8.238   4.214
 9051W        W74036  30.873   4.274  11.609
 9052W        W74037  39.589  39.037   0.602
 9053W        W74038   3.407  11.318   1.093
 9054W        W74039  39.931  25.795  14.431
 9055W        W74040   3.992  36.406   2.606
 9056W        W74041  23.882  12.459  14.402
 9057W        W74042   3.538   6.495  11.093
 9058W        W74043  19.766   8.795  12.669
 9059W        W74044   2.805  43.753  13.453
 9060W        W74045   4.986  24.414  12.566
 9061W        W74046  34.897  16.555   3.242
 9062W        W74047  30.071  13.098  14.752
 9063W        W74048   5.806  38.301   0.731
 9064W        W74049  26.512  31.844   2.347
 9065W        W74050  18.613  16.402   2.723
 9066W        W74051  33.648  32.466  10.539
 9067W        W74052  38.034  42.671   3.785
 9068W        W74053   6.255  33.576  10.853
 9069W        W74054  22.696  23.991   1.048
 9070W        W74055  20.263  24.847  13.125
 9071W        W74056  13.683   1.447   2.712
 9072W        W74057   8.788   2.921  12.024
 9073W        W74058  28.753  24.746  13.266
 9074W        W74059  10.317   6.720   1.847
 9075W        W74060  33.594  35.638  10.632
 9076W        W74061  19.267  37.472  14.516
 9077W        W74062   2.378  41.259   3.769
 9078W        W74063  31.219  16.624  13.062
 9079W        W74064  20.303  26.532  11.409
 9080W        W74065  25.209  42.970   3.204
 9081W        W74066  19.078  16.121   2.763
 9082W        W74067   1.703   9.914   4.294
 9083W        W74068  18.963   9.437   1.320
 9084W        W74069  19.729  16.047   2.794
 9085W        W74070  19.685  11.858  10.664
 9086W        W74071  28.789  34.148   4.948
 9087W        W74072  37.172  26.624  10.647
 9088W        W74073  42.882  35.614  12.145
 9089W        W74074  22.786  31.227   4.523
 9090W        W74075  15.734  30.124  13.097
 9091W        W74076  43.952  41.751   0.840
 9092W        W74077  13.932   8.516   1.761
 9093W        W74078  27.449  43.981  14.612
 9094W        W74079  32.195  18.697   3.716
 9095W        W74080  44.970   3.125   2.646
 9096W        W74081  37.541  32.869   4.330
 9097W        W74082   2.333  35.275   1.301
 9098W        W74083   2.750  12.787  14.565
 9099W        W74084  40.751  16.149   1.396
 9100W        W74085  37.102  19.119   1.331
 9101W        W74086  22.142  42.328  14.526
 9102W        W74087  32.388  27.785  14.340
 9103W        W74088  44.037  39.569   3.689
 9104W        W74089  28.300   9.635  14.401
 9105W        W74090  40.536  12.648   2.984
 9106W        W74091  18.544  37.879   4.302
 9107W        W74092   2.062   1.240  14.137
 9108W        W74093  17.849  18.489   1.912
 9109W        W74094  26.715  22.703   2.225
 9110W        W74095  13.189  25.118   3.391
 9111W        W74096   3.978  42.202  11.656
 9112W        W74097  15.189  38.563  10.603
 9113W        W74098  13.801   5.406   1.520
 9114W        W74099   7.947  15.719  13.933
 9115W        W74100  19.002  17.794  12.985
 9116W        W74101  27.651  12.299   2.777
 9117W        W74102  33.975  36.027  12.576
 9118W        W74103  25.975  11.081   0.029
 9119W        W74104  33.620  12.631   0.339
 9120W        W74105  34.960  12.427  11.945
 9121W        W74106  17.915  28.548  11.658
 9122W        W74107   2.785   8.812  13.954
 9123W        W74108  30.684  19.084   0.454
 9124W        W74109   4.039   1.353   2.215
 9125W        W74110  29.934   1.964  14.590
 9126W        W74111  22.583  38.468   3.431
 9127W        W74112  13.046   4.814  10.864
 9128W        W74113  25.443  40.698   3.573
 9129W        W74114  21.393  13.389   5.029
 9130W        W74115  18.695   4.567  11.144
 9131W        W74116   5.631  43.070   3.611
 9132W        W74117  19.481  41.543  14.811
 9133W        W74118   1.308  43.464   2.244
 9134W        W74119  10.895  34.888  11.000
 9135W        W74120  20.389  35.358  12.102
 9136W        W74121  34.289  16.116  14.449
 9137W        W74122  34.291  13.223   3.798
 9138W        W74123  24.971   2.706  12.502
 9139W        W74124   1.019  44.969  14.234
 9140W        W74125  28.170  25.027  12.209
 9141W        W74126  15.620  32.407  12.687
 9142W        W74127  42.923  28.036  13.266
 9143W        W74128  40.372   1.508   0.915
 9144W        W74129  26.081  40.400   1.808
 9145W        W74130  19.090  11.034   0.667
 9146W        W74131  25.453  16.657   3.549
 9147W        W74132  13.974  17.188   2.190
 9148W        W74133  42.019  11.394   1.336
 9149W        W74134  19.345  16.135   3.681
 9150W        W74135  21.105  13.571   1.755
 9151W        W74136  33.633   8.205  12.569
 9152W        W74137  14.614   4.029   3.615
 9153W        W74138  44.395   4.233   4.821
 9154W        W74139  29.568  22.282   0.524
 9155W        W74140  26.954  40.508  10.754
 9156W        W74141   0.208   2.983  12.083
 9157W        W74142  22.223  18.180   2.904
 9158W        W74143   3.691  38.883   2.773
 9159W        W74144   7.091  29.904   4.431
 9160W        W74145   4.042   0.725  14.705
 9161W        W74146  19.115   2.304   1.634
 9162W        W74147  36.521   0.398  12.370
 9163W        W74148   9.325  34.466   2.366
 9164W        W74149  36.304  37.996  10.725
 9165W        W74150   3.072  23.172  11.147
 9166W        W74151  36.582  41.854  12.010
 9167W        W74152  13.552  44.240   4.090
 9168W        W74153  11.185  34.605   2.375
 9169W        W74154  35.838   1.280   3.599
 9170W        W74155   3.586  14.737   0.907
 9171W        W74156   0.899   3.353  13.083
 9172W        W74157  17.088  35.633  11.499
 9173W        W74158  40.914  40.610  14.771
 9174W        W74159  12.121  37.103   3.323
 9175W        W74160   4.923   4.970  13.814
 9176W        W74161  35.148  30.562   2.181
 9177W        W74162  13.312   3.740   2.673
 9178W        W74163  34.092  20.128  12.140
 9179W        W74164  21.802  24.048   2.290
 9180W        W74165  37.554   4.135  14.696
 9181W        W74166  44.405  40.860  10.509
 9182W        W74167  17.403  15.625  10.727
 9183W        W74168  36.225  33.035   4.094
 9184W        W74169  14.103   7.749   2.414
 9185W        W74170  28.467  16.586  13.949
 9186W        W74171  11.602  38.054  13.862
 9187W        W74172  41.646  35.118   0.235
 9188W        W74173  44.434   7.861  10.055
 9189W        W74174  18.494  17.562  12.957
 9190W        W74175  19.013   6.285  11.807
 9191W        W74176  12.344  44.043  14.923
 9192W        W74177  17.866  13.289   1.873
 9193W        W74178  35.411  40.109  12.040
 9194W        W74179   6.322  23.220  11.431
 9195W        W74180  24.928   6.299  11.582
 9196W        W74181  40.384  36.062  13.855
 9197W        W74182  42.537  24.673  14.535
 9198W        W74183  43.508  32.082   0.805
 9199W        W74184  22.934  37.824   4.489
 9200W        W74185   2.636  17.112  14.787
 9201W        W74186  33.102  30.079   1.774
 9202W        W74187  23.515  29.076  11.258
 9203W        W74188   9.779   9.477   3.801
 9204W        W74189  40.828  23.827   0.657
 9205W        W74190   0.661  20.806   1.321
 9206W        W74191  26.547  16.304  12.247
 9207W        W74192  30.188  13.705   3.237
 9208W        W74193  29.943  14.310   4.911
 9209W        W74194   4.356  42.723  10.339
 9210W        W74195  29.501  43.947   1.408
 9211W        W74196  27.600  13.987  12.741
 9212W        W74197  42.989   2.032  13.408
 9213W        W74198  29.491  29.935   3.594
 9214W        W74199  44.856  29.915   0.723
 9215W        W74200  33.060  35.537  13.506
 9216W        W74201  21.152  13.341  12.066
 9217W        W74202   9.130  17.870   2.223
 9218W        W74203  21.023  17.289   1.695
 9219W        W74204  31.560  38.551  13.982
 9220W        W74205  16.476   6.024  12.574
 9221W        W74206  34.463  21.600  13.669
 9222W        W74207  41.216  29.964   4.543
 9223W        W74208   7.291  39.399  10.677
 9224W        W74209  36.034  21.451  12.885
 9225W        W74210  20.305  28.254  11.217
 9226W        W74211  18.532  40.707   2.752
 9227W        W74212  34.388  40.752   2.767
 9228W        W74213  35.107   3.037  12.043
 9229W        W74214  20.097  28.598  12.538
 9230W        W74215  36.936  24.362  13.383
 9231W        W74216   5.525   7.688   4.562
 9232W        W74217  37.348  20.068   3.708
 9233W        W74218   4.973  12.790   3.481
 9234W        W74219  39.985  13.620  12.526
 9235W        W74220  31.542  16.675   3.597
 9236W        W74221  37.566  24.613  14.519
 9237W        W74222   9.709  26.287   2.708
 9238W        W74223  37.078  14.733  12.597
 9239W        W74224   4.519   0.753  10.815
 9240W        W74225  43.283  40.525   2.539
 9241W        W74226  36.036   2.960   4.100
 9242W        W74227  39.343   0.022   4.176
 9243W        W74228   0.612   8.402   4.784
 9244W        W74229  36.103  21.179   4.021
 9245W        W74230  44.297  20.346   2.881
 9246W        W74231  35.112  31.848   5.076
 9247W        W74232  25.362  26.540   4.673
 9248W        W74233   1.323  34.105   1.428
 9249W        W74234  13.436  17.039   5.077
 9250W        W74235  17.560  40.901   3.715
 9251W        W74236  17.176   2.470  13.860
 9252W        W74237  25.489  38.577   0.333
 9253W        W74238  21.441  28.744   2.392
 9254W        W74239  29.097  37.812   1.305
 9255W        W74240   0.737   3.838   1.251
 9256W        W74241  37.931  34.745  12.028
 9257W        W74242  14.325  44.747  13.992
 9258W        W74243  11.392  11.658  12.157
 9259W        W74244  15.521   4.706  13.790
 9260W        W74245  14.624   7.782  13.312
 9261W        W74246  40.040   9.424   1.449
 9262W        W74247  29.206  32.144   0.786
 9263W        W74248  29.493  29.990  10.619
 9264W        W74249   3.441  25.032  13.068
 9265W        W74250  26.624  36.781   1.354
 9266W        W74251  36.056  13.078  12.570
 9267W        W74252  12.174  19.026   0.308
 9268W        W74253  21.486  28.709   3.713
 9269W        W74254  28.216   6.871  14.822
 9270W        W74255   0.872  35.502   2.916
 9271W        W74256   4.774  15.753   3.590
 9272W        W74257  35.046   5.709   4.618
 9273W        W74258  15.091  40.981  14.282
 9274W        W74259  25.649  44.676  12.090
 9275W        W74260  13.714  19.986  10.807
 9276W        W74261  39.241  28.176  12.125
 9277W        W74262   5.874  23.838  12.625
 9278W        W74263   4.932  12.778  12.678
 9279W        W74264   7.375  12.058   2.696
 9280W        W74265  36.414   3.923   2.346
 9281W        W74266  34.869  44.074   2.943
 9282W        W74267  43.173   0.709   2.335
 9283W        W74268  40.941  25.620   0.974
 9284W        W74269  17.110   2.030   5.015
 9285W        W74270  39.006  18.248   0.785
 9286W        W74271  15.561   2.001  11.606
 9287W        W74272   0.207   8.202   0.675
 9288W        W74273   9.909  19.507   1.389
 9289W        W74274  13.405  42.902   0.997
 9290W        W74275  28.474  41.048  11.513
 9291W        W74276   9.393  26.819  11.132
 9292W        W74277  39.045   8.938  14.556
 9293W        W74278  24.227  36.377   0.179
 9294W        W74279  15.199  20.013   4.301
 9295W        W74280  30.714  12.250  12.693
 9296W        W74281  21.531  43.512  10.164
 9297W        W74282   1.480   0.771  14.770
 9298W        W74283  17.853  12.144  14.892
 9299W        W74284   0.800  19.791   1.273
 9300W        W74285  44.940  31.518   4.263
 9301W        W74286  17.528  42.407   3.473
 9302W        W74287  12.282   0.632  11.279
 9303W        W74288  28.030   3.878  11.131
 9304W        W74289  10.622   2.426  11.656
 9305W        W74290  43.821  24.689   3.598
 9306W        W74291  11.372  17.123  14.353
 9307W        W74292  41.575  44.046  10.462
 9308W        W74293   2.737  41.268  13.489
 9309W        W74294  24.085  10.437  13.795
 9310W        W74295  26.002   4.863  14.998
 9311W        W74296  43.938  20.250  11.414
 9312W        W74297  25.385  16.688  13.850
 9313W        W74298  42.080  31.354   0.326
 9314W        W74299   5.350  34.260  14.222
 9315W        W74300   5.330  15.264  13.569
 9316W        W74301   2.548   5.295   0.323
 9317W        W74302   4.630  12.838  10.278
 9318W        W74303  30.810  19.153  11.196
 9319W        W74304  35.498  10.282  14.528
 9320W        W74305  34.313   5.356   4.173
 9321W        W74306  26.090  14.182  10.654
 9322W        W74307  21.320  35.874   2.386
 9323W        W74308  22.278  17.604  12.205
 9324W        W74309  33.939  34.465  11.612
 9325W        W74310   5.129  10.782  12.082
 9326W        W74311  26.292  21.590  11.999
 9327W        W74312   3.683   9.995  14.863
 9328W        W74313  17.240   9.284  12.834
 9329W        W74314  39.017  24.090   0.265
 9330W        W74315  43.819  30.307   1.749
 9331W        W74316   8.199  29.695  12.400
 9332W        W74317  36.474  13.880  14.398
 9333W        W74318  33.546   3.951   1.928
 9334W        W74319  33.836  10.581   0.939
 9335W        W74320  15.127  18.655   4.300
 9336W        W74321  40.174  23.072  13.835
 9337W        W74322  36.696  11.846  10.558
 9338W        W74323   4.850  28.554  10.354
 9339W        W74324  27.608  20.621   3.242
 9340W        W74325  40.891  27.555   9.889
 9341W        W74326   7.088  43.858  11.974
 9342W        W74327  27.111  38.901  11.182
 9343W        W74328   3.204  37.561  14.068
 9344W        W74329  34.998  19.731  13.992
 9345W        W74330  43.938  34.271  12.382
 9346W        W74331  33.602   4.696   3.236
 9347W        W74332   4.832  14.816   3.898
 9348W        W74333   5.388  31.580  12.321
 9349W        W74334  40.266   4.773   5.281
 9350W        W74335  17.593   8.654  13.812
 9351W        W74336  23.626  18.438  10.112
 9352W        W74337  26.718  44.617  14.694
 9353W        W74338  13.778   5.210   2.385
 9354W        W74339  25.924  23.821  12.141
 9355W        W74340  22.566  20.757  13.482
 9356W        W74341   6.415  37.531  11.913
 9357W        W74342   6.314  12.443   0.806
 9358W        W74343   9.641  42.948   3.309
 9359W        W74344  38.913   6.225   2.376
 9360W        W74345   0.519  19.821  11.942
 9361W        W74346  24.124  18.536   1.195
 9362W        W74347  15.109  35.126   1.873
 9363W        W74348  19.000  30.432  14.330
 9364W        W74349  40.352  10.041   3.141
 9365W        W74350  40.698   5.770  13.413
 9366W        W74351  32.814  18.478   2.973
 9367W        W74352  17.669  26.677   2.242
 9368W        W74353  31.030  13.839  11.845
 9369W        W74354  44.274  24.882  12.375
 9370W        W74355  35.086  36.344   2.707
 9371W        W74356  24.637  21.258   1.386
 9372W        W74357  25.594   1.023   2.325
 9373W        W74358  33.529  31.967   3.257
 9374W        W74359  17.999  12.498   2.338
 9375W        W74360  39.419   4.877  11.524
 9376W        W74361  10.953  24.091  13.841
 9377W        W74362   8.930  42.120  13.352
 9378W        W74363  35.841  29.488  11.048
 9379W        W74364  31.653  34.991   2.630
 9380W        W74365  13.058  16.795  13.432
 9381W        W74366   6.162  38.123  14.903
 9382W        W74367  43.318   1.218   2.300
 9383W        W74368  41.469   0.734   1.111
 9384W        W74369  40.850  34.103   2.377
 9385W        W74370  35.976  19.065   1.444
 9386W        W74371   6.761   3.010  14.853
 9387W        W74372  34.626   1.254  10.717
 9388W        W74373  25.395  39.499   0.202
 9389W        W74374  25.586  44.774   0.388
 9390W        W74375  29.006  11.967   2.383
 9391W        W74376  29.057  10.219   3.745
 9392W        W74377  25.648  32.731  13.029
 9393W        W74378  21.027  21.687   1.677
 9394W        W74379  14.368  14.079  14.020
 9395W        W74380  20.859  14.579   2.599
 9396W        W74381   2.347   0.173  12.420
 9397W        W74382   7.611  36.732  13.878
 9398W        W74383  43.217   1.004   0.830
 9399W        W74384  31.145   0.868  12.507
 9400W        W74385   4.993   1.107  14.786
 9401W        W74386  41.032   4.761   1.373
 9402W        W74387  44.811  23.535  12.099
 9403W        W74388  16.032   5.911   2.323
 9404W        W74389  21.349   7.211   4.303
 9405W        W74390  28.669   7.327   4.881
 9406W        W74391  23.566   0.388  14.565
 9407W        W74392  36.064   7.735   4.575
 9408W        W74393  28.691  23.095   4.628
 9409W        W74394  38.938  40.958   3.766
 9410W        W74395  14.007  30.577  11.365
 9411W        W74396  16.928  38.110   0.538
 9412W        W74397  31.960  26.207   1.448
 9413W        W74398  23.081  20.475   0.953
 9414W        W74399  37.234   0.062   2.949
 9415W        W74400  25.127  19.618  13.116
 9416W        W74401  40.618  23.055   2.875
 9417W        W74402  28.296   4.884   0.841
 9418W        W74403  24.682  38.412  11.615
 9419W        W74404  30.916  34.238  12.003
 9420W        W74405  20.144  11.379  12.461
 9421W        W74406   0.310  41.983  10.697
 9422W        W74407  12.740   0.024   0.735
 9423W        W74408  26.787  38.994  12.531
 9424W        W74409   7.359  28.608  10.638
 9425W        W74410  16.828  22.424  10.329
 9426W        W74411  39.360  24.401  14.043
 9427W        W74412  14.702  34.420   1.809
 9428W        W74413  14.800  40.861   2.292
 9429W        W74414   3.462   3.020  10.647
 9430W        W74415   4.631   9.054   3.693
 9431W        W74416  16.603  16.188   4.470
 9432W        W74417  22.565  17.515  11.151
 9433W        W74418  42.906  41.026  11.528
 9434W        W74419  26.944  12.098   0.295
 9435W        W74420  22.004  39.911   2.133
 9436W        W74421  44.714  31.863  14.456
 9437W        W74422  37.699  21.207  11.048
 9438W        W74423  26.576  20.557  14.836
 9439W        W74424   8.156  19.942  11.141
 9440W        W74425  44.014  21.795  11.433
 9441W        W74426  12.440  14.592   1.433
 9442W        W74427  28.626  44.361   2.298
 9443W        W74428  27.467  27.632  12.376
 9444W        W74429  25.611  29.639  14.836
 9445W        W74430  24.023  34.443  11.187
 9446W        W74431  40.397  33.233  10.061
 9447W        W74432  40.813  26.847   4.473
 9448W        W74433  20.199  36.475   3.424
 9449W        W74434   8.489  34.546   1.779
 9450W        W74435  38.969   6.724   2.285
 9451W        W74436  44.538   7.635   1.718
 9452W        W74437  35.127  41.393  14.256
 9453W        W74438  21.057  15.238  12.390
 9454W        W74439  15.066  35.497   4.714
 9455W        W74440  41.959   2.823   0.955
 9456W        W74441   1.184  34.886  14.284
 9457W        W74442  10.389  15.788   3.703
 9458W        W74443  30.977  37.837  12.426
 9459W        W74444  29.657  27.123   1.418
 9460W        W74445  26.193   3.471   4.518
 9461W        W74446  43.308  40.305  14.459
 9462W        W74447   2.731  27.725  11.182
 9463W        W74448   2.840  14.198  13.335
 9464W        W74449  15.363  12.851  13.941
 9465W        W74450   6.549  40.298   3.811
 9466W        W74451  32.470  22.563  13.875
 9467W        W74452   1.447  24.261  14.933
 9468W        W74453  14.473  32.664   0.621
 9469W        W74454   8.710  38.920   1.083
 9470W        W74455  25.302  44.885   0.948
 9471W        W74456  34.909  23.791   4.500
 9472W        W74457  28.096   2.288  13.867
 9473W        W74458  32.620  12.062   5.204
 9474W        W74459  22.921  35.031   4.850
 9475W        W74460  39.335  21.582  10.504
 9476W        W74461  36.767  44.033  12.723
 9477W        W74462  39.902  38.909  13.014
 9478W        W74463   4.504  19.859   3.096
 9479W        W74464   9.228  21.557   3.083
 9480W        W74465  35.320  12.421   0.253
 9481W        W74466  23.027  18.258   2.389
 9482W        W74467  14.148  16.272  12.238
 9483W        W74468  37.296   8.806  12.600
 9484W        W74469  13.614   5.602  11.547
 9485W        W74470   4.450  30.313   2.259
 9486W        W74471   4.528  14.949  12.465
 9487W        W74472  21.336  21.694  12.063
 9488W        W74473  40.474  14.701  10.730
 9489W        W74474  13.152  14.991   2.885
 9490W        W74475   1.502   2.537   4.782
 9491W        W74476   1.264   3.171   4.032
 9492W        W74477  13.337   3.268   1.805
 9493W        W74478  10.729  23.763  10.823
 9494W        W74479  27.080   8.474   4.070
 9495W        W74480  39.600  40.262  10.730
 9496W        W74481  43.777  24.049   1.379
 9497W        W74482   0.494  32.296   3.293
 9498W        W74483  22.076   3.874   3.175
 9499W        W74484  29.733  21.164  11.489
 9500W        W74485  25.071  33.669  14.847
 9501W        W74486  34.780  40.009   2.207
 9502W        W74487   0.728  25.075  12.826
 9503W        W74488  20.457  14.334   0.258
 9504W        W74489   7.230  37.960  14.235
 9505W        W74490  19.757  29.469  13.917
 9506W        W74491  13.879  15.079  11.406
 9507W        W74492  17.104  43.434   2.650
 9508W        W74493  12.151  27.384  13.412
 9509W        W74494  34.833   4.639  14.035
 9510W        W74495  35.504  36.648   3.442
 9511W        W74496  15.163   4.371   2.353
 9512W        W74497  31.793  23.810  13.141
 9513W        W74498   2.018  42.073  14.498
 9514W        W74499  25.458  12.249   4.265
 9515W        W74500   5.160   9.537  13.976
 9516W        W74501  27.627  19.287  14.411
 9517W        W74502  12.668  12.684  13.326
 9518W        W74503  22.577   6.710   2.666
 9519W        W74504   1.569  31.434   4.078
 9520W        W74505  40.320  16.788   0.874
 9521W        W74506   2.219  22.098  12.028
 9522W        W74507  43.563  35.925  12.626
 9523W        W74508  26.364  11.540   1.846
 9524W        W74509  24.763  25.762   1.286
 9525W        W74510  15.705   5.893  14.890
 9526W        W74511   6.672   6.950   1.420
 9527W        W74512  26.903   9.615  13.090
 9528W        W74513  36.810  14.297  12.797
 9529W        W74514   6.830  14.665  14.506
 9530W        W74515  35.492  34.456   4.288
 9531W        W74516   6.232  21.229  13.930
 9532W        W74517   1.859   5.416   4.521
 9533W        W74518  10.578  10.305   2.135
 9534W        W74519  30.833  12.946   0.998
 9535W        W74520  16.592  15.306   0.015
 9536W        W74521  43.698  40.790   3.161
 9537W        W74522  36.861  10.446   1.360
 9538W        W74523  21.487  20.103   5.474
 9539W        W74524  17.932  18.773   9.725
 9540W        W74525  20.315  44.454  11.016
 9541W        W74526  26.902  16.136  10.704
 9542W        W74527  41.388  25.033  13.347
 9543W        W74528   4.687  41.399  11.758
 9544W        W74529  24.568  20.355  10.579
 9545W        W74530  24.156  38.554  13.787
 9546W        W74531  37.543  39.817  12.530
 9547W        W74532   4.393  24.286  14.373
 9548W        W74533   1.231   5.265   3.610
 9549W        W74534   7.171  29.065   4.902
 9550W        W74535  43.445  29.616  10.567
 9551W        W74536  16.206   7.454   0.688
 9552W        W74537  33.441  21.171  13.207
 9553W        W74538  43.622  32.580  11.535
 9554W        W74539  12.866  39.885   2.121
 9555W        W74540  24.934   6.702  11.211
 9556W        W74541  43.464  23.668   0.274
 9557W        W74542   6.906  29.593  14.178
 9558W        W74543  43.894  12.388   3.241
 9559W        W74544  32.647  15.318   1.350
 9560W        W74545  15.322   1.435   0.073
 9561W        W74546  19.739  32.832   2.146
 9562W        W74547  43.799  10.314   3.936
 9563W        W74548  22.677   4.858   2.932
 9564W        W74549  17.144  23.193  10.803
 9565W        W74550  12.850  39.302   1.453
 9566W        W74551  16.294  24.132   4.308
 9567W        W74552  27.076   0.997   0.896
 9568W        W74553  24.835  41.009   0.425
 9569W        W74554  28.682  36.036  10.582
 9570W        W74555  40.922  18.362   3.194
 9571W        W74556  11.561  22.800   1.413
 9572W        W74557   6.034  15.089   0.792
 9573W        W74558  14.072  44.924  12.161
 9574W        W74559  30.426   0.515   4.143
 9575W        W74560   5.354  22.364  10.289
 9576W        W74561  13.599   2.526  14.979
 9577W        W74562   7.971  11.630   2.843
 9578W        W74563  21.627  40.389   3.615
 9579W        W74564   3.954  38.395   4.519
 9580W        W74565  13.193  21.351   2.235
 9581W        W74566  22.515  43.706  11.998
 9582W        W74567  27.147   1.730  13.917
 9583W        W74568  39.783   7.849  14.189
 9584W        W74569  13.236  28.246  14.491
 9585W        W74570  16.194  28.773  11.971
 9586W        W74571  13.933  20.948  11.601
 9587W        W74572  19.329   0.258   3.615
 9588W        W74573  36.916  30.540  14.143
 9589W        W74574  19.078   4.747   4.214
 9590W        W74575  14.658  33.686   0.849
 9591W        W74576  39.988  24.255  14.723
 9592W        W74577  18.040  15.601   1.830
 9593W        W74578   1.328  16.988  11.608
 9594W        W74579  40.804   3.739   3.301
 9595W        W74580  36.198  29.692   1.395
 9596W        W74581  37.979  24.054   2.512
 9597W        W74582   3.246  34.687   1.177
 9598W        W74583  13.712  13.820   1.486
 9599W        W74584  25.486  10.349  11.974
 9600W        W74585   1.365  31.951   4.118
 9601W        W74586  44.896  40.445  13.976
 9602W        W74587  36.306   3.344  10.912
 9603W        W74588  30.457  16.267  14.608
 9604W        W74589   9.676  18.029   1.392
 9605W        W74590  43.392  25.110   2.664
 9606W        W74591  43.425  29.855   4.709
 9607W        W74592  39.028  31.476  13.460
 9608W        W74593  36.493  10.621   0.372
 9609W        W74594  37.836  43.292  10.715
 9610W        W74595  14.147  38.830  13.235
 9611W        W74596  16.580  42.656  14.108
 9612W        W74597  31.448   9.374   1.223
 9613W        W74598  14.597  23.337   1.203
 9614W        W74599   4.156  15.637   4.885
 9615W        W74600  34.365  30.688  10.760
 9616W        W74601   9.348  21.017  13.324
 9617W        W74602  23.185  30.462  10.660
 9618W        W74603  12.142   6.647  11.034
 9619W        W74604  26.525  16.822  11.033
 9620W        W74605  29.712  31.665  12.874
 9621W        W74606  40.847  36.558   3.133
 9622W        W74607  38.890  10.333  12.129
 9623W        W74608  34.143  14.291  11.844
 9624W        W74609  43.464  30.987  14.946
 9625W        W74610  36.463   8.760  14.426
 9626W        W74611  27.340  13.907  14.083
 9627W        W74612  15.642  42.381  13.970
 9628W        W74613  28.960  12.483   0.128
 9629W        W74614  44.732  18.403  13.962
 9630W        W74615  12.874   7.275  12.924
 9631W        W74616  29.445  29.358   2.680
 9632W        W74617  28.248  33.608  13.489
 9633W        W74618  44.617   0.067   1.740
 9634W        W74619  16.293   9.317   2.350
 9635W        W74620  17.063  19.953  13.745
 9636W        W74621  22.016  34.962   4.712
 9637W        W74622   0.933  22.679   1.519
 9638W        W74623  34.559  22.722   0.807
 9639W        W74624  33.179  10.662  14.668
 9640W        W74625  31.143  41.617  14.946
 9641W        W74626  37.944  11.429   3.744
 9642W        W74627  21.776  39.003  10.730
 9643W        W74628  24.178  42.440   4.874
 9644W        W74629  39.583  41.984  13.673
 9645W        W74630  21.749  21.152   3.943
 9646W        W74631  13.630  12.609  12.046
 9647W        W74632  42.486  30.907   4.578
 9648W        W74633  24.618  12.773   4.670
 9649W        W74634  12.184  42.475  11.669
 9650W        W74635  32.164  20.523   0.324
 9651W        W74636  21.356  18.560  11.725
 9652W        W74637   1.872  39.826  13.984
 9653W        W74638  13.808  44.877  14.009
 9654W        W74639  28.847   0.782  13.956
 9655W        W74640  40.087  16.204  11.176
 9656W        W74641  22.420  42.990   2.271
 9657W        W74642   7.654   2.349  14.088
 9658W        W74643  37.717  41.058  11.117
 9659W        W74644  31.021  36.027   1.368
 9660W        W74645  35.928  30.159  14.692
 9661W        W74646  33.589  20.102   4.543
 9662W        W74647  35.077   2.983   1.259
 9663W        W74648  34.189  12.693  11.513
 9664W        W74649  32.627  38.744   3.884
 9665W        W74650  25.046  32.147   2.308
 9666W        W74651  30.206   9.649   0.995
 9667W        W74652  12.324  23.500   0.235
 9668W        W74653   1.963   6.722   4.435
 9669W        W74654   0.443  42.535  12.967
 9670W        W74655   8.696  11.299  14.857
 9671W        W74656  19.069  12.892   0.424
 9672W        W74657  22.033  25.517   2.877
 9673W        W74658  38.408  41.578  11.141
 9674W        W74659  44.315  34.162  13.047
 9675W        W74660  27.152  23.219  12.367
 9676W        W74661  17.049  40.875   3.747
 9677W        W74662  16.384  35.096  11.586
 9678W        W74663  43.382   3.011  11.803
 9679W        W74664  21.216   5.547  12.467
 9680W        W74665  42.390   0.356  13.204
 9681W        W74666  16.628  38.544   4.624
 9682W        W74667  20.452  25.248  11.632
 9683W        W74668  15.303  21.241  10.977
 9684W        W74669  42.318  11.935   2.214
 9685W        W74670   7.211  19.450   2.163
 9686W        W74671  16.592   7.814  10.710
 9687W        W74672  12.120  36.461   1.824
 9688W        W74673  29.672  10.684  13.580
 9689W        W74674  39.346   8.630  13.358
 9690W        W74675  39.489  23.034   9.392
 9691W        W74676  37.382  28.165   4.674
 9692W        W74677   3.040  15.373  10.411
 9693W        W74678   0.873  24.649   0.338
 9694W        W74679   6.345   6.501  14.095
 9695W        W74680   0.413  38.757  13.826
 9696W        W74681  17.417   4.530  11.394
 9697W        W74682  11.362   6.933  13.991
 9698W        W74683   7.910  18.777   2.444
 9699W        W74684  23.720  40.429  14.590
 9700W        W74685  19.121  39.459   2.164
 9701W        W74686   6.896  15.398   1.813
 9702W        W74687   5.660  24.118   4.961
 9703W        W74688   3.971  38.226   0.398
 9704W        W74689  41.892  44.734  14.930
 9705W        W74690   2.418  12.205   2.207
 9706W        W74691  34.039  33.106   1.767
 9707W        W74692  27.506  15.874   4.709
 9708W        W74693  23.342  20.618   1.363
 9709W        W74694  20.751  30.308   4.818
 9710W        W74695  19.127   7.251   4.747
 9711W        W74696  31.550   1.780   1.357
 9712W        W74697  44.988   2.044   3.902
 9713W        W74698  24.047  17.138   1.466
 9714W        W74699  37.171   0.927  11.096
 9715W        W74700   8.259   9.635   3.787
 9716W        W74701  32.999  21.158   2.224
 9717W        W74702  11.733  38.123  12.832
 9718W        W74703  40.753  20.789  11.540
 9719W        W74704  42.921  33.121   0.528
 9720W        W74705  28.440  14.067   0.568
 9721W        W74706  33.556  44.745   0.220
 9722W        W74707  42.825   0.385   4.387
 9723W        W74708  44.149  11.229   0.247
 9724W        W74709  10.329  12.267  13.547
 9725W        W74710  22.954   3.497   2.780
 9726W        W74711  25.089  26.888  12.096
 9727W        W74712  30.476  26.891  11.739
 9728W        W74713  41.576  35.597  10.223
 9729W        W74714  18.787  38.321  14.459
 9730W        W74715  14.601  31.036   2.198
 9731W        W74716  23.641  27.093   0.969
 9732W        W74717  21.482   6.456   2.323
 9733W        W74718  33.446   2.215   2.271
 9734W        W74719   2.528  14.773  14.399
 9735W        W74720  38.892   2.004   0.704
 9736W        W74721  32.726   2.726  10.619
 9737W        W74722   7.836  16.563   0.786
 9738W        W74723  34.273   9.454  12.474
 9739W        W74724  35.334  37.890   1.737
 9740W        W74725  38.945  16.147   2.973
 9741W        W74726  26.512  18.824  11.476
 9742W        W74727  23.571   7.296  11.632
 9743W        W74728   5.254  17.546  13.429
 9744W        W74729  36.894  19.678  11.865
 9745W        W74730  16.243   4.710  14.328
 9746W        W74731  19.143  40.572   0.255
 9747W        W74732  11.056  28.675   4.743
 9748W        W74733  14.281  41.883  14.505
 9749W        W74734   4.717  13.274  11.903
 9750W        W74735  32.149   8.242   2.702
 9751W        W74736  39.830   4.900  10.180
 9752W        W74737   5.261   5.488  13.047
 9753W        W74738  35.573  31.603   2.632
 9754W        W74739  41.918  19.070  12.404
 9755W        W74740  44.100  44.815   4.665
 9756W        W74741  18.847  14.371   2.794
 9757W        W74742  24.211  14.621  12.028
 9758W        W74743  42.962  29.418  14.385
 9759W        W74744  17.074  38.831   4.684
 9760W        W74745  28.847  30.133   5.513
 9761W        W74746  30.609  21.747  11.109
 9762W        W74747  18.670  25.052  12.966
 9763W        W74748   1.736  22.058   4.622
 9764W        W74749  41.697   8.064   4.796
 9765W        W74750  18.966  40.652   5.075
 9766W        W74751  26.437  11.860  12.141
 9767W        W74752  15.447  40.782  12.452
 9768W        W74753  37.275  12.651  14.371
 9769W        W74754  25.205  32.884  11.529
 9770W        W74755  24.366  44.663   0.650
 9771W        W74756  12.201  40.375   3.319
 9772W        W74757   6.690  28.089  13.217
 9773W        W74758  25.585  11.522  10.778
 9774W        W74759  27.752  10.289  13.358
 9775W        W74760  20.900  39.937  14.501
 9776W        W74761  24.636   0.427  13.092
 9777W        W74762  22.181  32.014   4.713
 9778W        W74763   5.225  26.083   1.795
 9779W        W74764  10.449  39.650   3.322
 9780W        W74765  32.427  16.854  12.000
 9781W        W74766  42.290  22.242   9.692
 9782W        W74767   6.126  41.988   3.533
 9783W        W74768  27.373   3.898   1.158
 9784W        W74769  24.416  12.269  13.416
 9785W        W74770  30.815  35.493  14.064
 9786W        W74771   9.172  44.388  11.544
 9787W        W74772  34.313  43.285  13.633
 9788W        W74773  20.358  28.188  14.039
 9789W        W74774  22.164  44.135   2.704
 9790W        W74775   4.916  12.402  12.310
 9791W        W74776  23.072  35.924   1.183
 9792W        W74777  33.432  44.324   0.481
 9793W        W74778   9.428  15.838   2.723
 9794W        W74779  44.286  19.758   1.182
 9795W        W74780  32.099  12.840   3.995
 9796W        W74781  43.225   8.114   3.253
 9797W        W74782  30.943  26.024   0.304
 9798W        W74783  17.009  19.255  14.404
 9799W        W74784  34.851  43.646  13.084
 9800W        W74785   4.057   3.173   2.235
 9801W        W74786  35.572  21.253   4.071
 9802W        W74787  29.085  27.028   1.710
 9803W        W74788  30.699  15.830   3.091
 9804W        W74789  28.995   7.880  14.459
 9805W        W74790  32.014   8.405   0.813
 9806W        W74791  25.024  27.647  11.157
 9807W        W74792  10.267  11.578   1.289
 9808W        W74793  43.580  29.191   4.056
 9809W        W74794  12.831   4.612   3.071
 9810W        W74795  25.989  43.224  11.135
 9811W        W74796   9.960  17.175  10.724
 9812W        W74797  40.114  13.605   4.467
 9813W        W74798  20.220  29.471   3.398
 9814W        W74799  31.414  19.751   1.181
 9815W        W74800   2.533  44.954   3.274
 9816W        W74801  38.671  26.429   4.087
 9817W        W74802  39.492  37.038  13.793
 9818W        W74803   1.327   5.353  12.849
 9819W        W74804  30.876   5.309   2.757
 9820W        W74805   8.910   9.694  10.568
 9821W        W74806  23.081   0.025   1.783
 9822W        W74807  22.432   7.994   1.751
 9823W        W74808  31.596   1.041   0.825
 9824W        W74809  32.274   1.389  14.352
 9825W        W74810  38.993  28.029   0.747
 9826W        W74811  37.425  22.285   0.446
 9827W        W74812  19.940  32.137  14.497
 9828W        W74813   0.162   0.426   2.279
 9829W        W74814  31.835  18.050   1.728
 9830W        W74815  32.035  31.895   0.394
 9831W        W74816  36.447  37.832   3.664
 9832W        W74817   7.690   2.791   1.618
 9833W        W74818  25.454   0.343   1.180
 9834W        W74819  38.518  12.646   3.057
 9835W        W74820  39.943  16.352  10.356
 9836W        W74821   1.377  22.621  12.805
 9837W        W74822   1.784  16.250  11.787
 9838W        W74823  23.265  17.985  14.966
 9839W        W74824  38.015  11.206  13.972
 9840W        W74825  12.726  29.328   0.836
 9841W        W74826  40.401  26.665  10.393
 9842W        W74827  25.222  36.510  12.520
 9843W        W74828  40.780  26.955   2.646
 9844W        W74829   3.812  14.291   0.752
 9845W        W74830  31.414  25.461  13.310
 9846W        W74831   6.376  32.360   1.842
 9847W        W74832   9.673  42.479  10.883
 9848W        W74833   5.144  39.513  11.633
 9849W        W74834  19.071   8.586  12.864
 9850W        W74835  14.055   9.748   2.306
 9851W        W74836  33.848   6.355   1.351
 9852W        W74837   1.419  21.617  11.912
 9853W        W74838  29.431  32.112  12.839
 9854W        W74839  39.483  36.754   4.125
 9855W        W74840  24.240   5.597   4.162
 9856W        W74841   1.750  21.155  10.466
 9857W        W74842  16.872   3.284  11.651
 9858W        W74843  24.478  11.871   1.878
 9859W        W74844  20.841   6.841  12.053
 9860W        W74845  16.230  28.094   3.999
 9861W        W74846  36.961  37.547  14.281
 9862W        W74847  44.423  16.024   4.088
 9863W        W74848  35.362  39.475   0.580
 9864W        W74849  35.506  22.967  14.276
 9865W        W74850  34.005  13.784  14.774
 9866W        W74851  39.386  34.875   1.347
 9867W        W74852  39.353   2.748  14.415
 9868W        W74853  16.608  41.239  10.779
 9869W        W74854  28.403  20.007   3.638
 9870W        W74855  43.381  21.201   2.598
 9871W        W74856  22.017  43.239   0.463
 9872W        W74857  17.577  25.981   1.054
 9873W        W74858  42.287  24.563   5.096
 9874W        W74859  41.872   3.763   3.821
 9875W        W74860  12.748  44.391   3.146
 9876W        W74861   7.854  35.560  14.449
 9877W        W74862  30.177  37.343  11.631
 9878W        W74863  11.295  18.053  14.453
 9879W        W74864  37.343  24.633  13.125
 9880W        W74865   6.333   9.768   2.671
 9881W        W74866  36.847  14.766  14.935
 9882W        W74867  24.239  15.688   1.284
 9883W        W74868  26.405  22.524  13.424
 9884W        W74869   9.234  24.168   2.356
 9885W        W74870  20.146  13.840   2.849
 9886W        W74871  20.759   0.500   1.323
 9887W        W74872  24.648  29.363  11.415
 9888W        W74873   6.685  14.322  11.178
 9889W        W74874  18.050  19.226   2.717
 9890W        W74875  36.795  27.618   0.577
 9891W        W74876  42.811   3.976   1.198
 9892W        W74877  42.522  38.990   1.570
 9893W        W74878   4.867   4.481  11.072
 9894W        W74879   9.552  20.553   2.046
 9895W        W74880  32.384  19.979  13.905
 9896W        W74881  19.601   6.737  14.952
 9897W        W74882  19.504  17.341  10.645
 9898W        W74883  20.058   9.451   2.381
 9899W        W74884  30.937  38.803   0.244
 9900W        W74885  35.689  21.819   1.328
 9901W        W74886  36.412  27.879   5.025
 9902W        W74887  37.168  40.771  12.649
 9903W        W74888  39.347   8.890  12.916
 9904W        W74889  27.173  38.094   2.386
 9905W        W74890  39.359  27.102   3.244
 9906W        W74891   0.882  41.392   0.014
 9907W        W74892  40.467  24.125  11.195
 9908W        W74893   6.452  19.230  14.901
 9909W        W74894  18.260  10.145  11.581
 9910W        W74895  27.073   5.017   2.853
 9911W        W74896  42.868  22.655   2.336
 9912W        W74897  34.075  30.095   4.638
 9913W        W74898  37.482  21.815   4.674
 9914W        W74899  13.044  29.610  13.995
 9915W        W74900  20.109  24.132  12.584
 9916W        W74901  43.793  44.099   9.767
 9917W        W74902  23.129  21.931  12.028
 9918W        W74903  10.843  28.531   0.669
 9919W        W74904  35.917   6.165   0.718
 9920W        W74905  21.979   6.738  12.018
 9921W        W74906  25.980  29.503   1.731
 9922W        W74907  38.379  19.097   4.151
 9923W        W74908   0.205  29.177   1.801
 9924W        W74909  42.122  36.065   0.486
 9925W        W74910  29.126   9.576  14.902
 9926W        W74911  29.184  21.068  11.275
 9927W        W74912  32.118  10.717  11.648
 9928W        W74913  22.194  11.157   0.420
 9929W        W74914  28.411   9.739  11.002
 9930W        W74915  17.731   1.470   0.330
 9931W        W74916  24.146  13.754  13.275
 9932W        W74917   2.968  28.929   2.490
 9933W        W74918  34.719  33.710   1.618
 9934W        W74919   9.347  37.884   4.650
 9935W        W74920  40.831   1.867  13.467
 9936W        W74921  20.157  43.947   3.876
 9937W        W74922   2.565  33.367   2.207
 9938W        W74923  38.048   6.515  14.113
 9939W        W74924  11.003  18.301  12.420
 9940W        W74925  10.343  29.913   1.719
 9941W        W74926  14.578   7.811  11.689
 9942W        W74927  42.924  31.392  11.547
 9943W        W74928  35.951   8.887  14.280
 9944W        W74929  22.770  25.513  11.091
 9945W        W74930  11.837  11.514   0.841
 9946W        W74931  31.843  18.786   4.173
 9947W        W74932  43.934  21.130  10.442
 9948W        W74933  22.553  10.440  14.801
 9949W        W74934  32.782  34.455   1.757
 9950W        W74935  19.864  36.336  11.527
 9951W        W74936  36.170  19.103  13.972
 9952W        W74937   6.374  36.605   4.581
 9953W        W74938   6.366   7.389  14.813
 9954W        W74939  29.481  41.856   0.611
 9955W        W74940   7.685   0.859   1.773
 9956W        W74941  17.642  30.005   1.837
 9957W        W74942  23.179  27.036   0.709
 9958W        W74943  16.936  15.009  14.050
 9959W        W74944  29.098  16.034  11.527
 9960W        W74945  29.529  11.339  14.843
 9961W        W74946  23.000  37.062  11.186
 9962W        W74947  10.212  39.887  11.462
 9963W        W74948  20.042  21.987  12.452
 9964W        W74949  10.012  14.307  14.578
 9965W        W74950  40.468  19.264  14.924
 9966W        W74951  44.477  17.585  12.481
 9967W        W74952  13.084  11.145  11.496
 9968W        W74953  38.336  27.933  11.726
 9969W        W74954  10.185  16.375   4.655
 9970W        W74955  15.812  35.158  14.855
 9971W        W74956  23.588  44.925   4.514
 9972W        W74957  27.119  37.433  13.077
 9973W        W74958  29.653  26.512   4.134
 9974W        W74959  11.670   7.630  10.919
 9975W        W74960  33.382  38.119  12.467
 9976W        W74961  37.579  20.253   4.123
 9977W        W74962  43.023   9.418   3.459
 9978W        W74963  29.109  18.217   4.805
 9979W        W74964   6.245  35.525   3.071
 9980W        W74965  23.059  16.637   4.242
 9981W        W74966  19.093  12.289   4.283
 9982W        W74967   8.359  14.318   3.423
 9983W        W74968   9.697  29.534   1.791
 9984W        W74969  20.784  36.174  10.603
 9985W        W74970   4.212  13.284   3.805
 9986W        W74971  13.296   0.675  14.072
 9987W        W74972  42.875  21.600  13.872
 9988W        W74973  21.612  24.640   3.875
 9989W        W74974  21.136  10.424   0.901
 9990W        W74975  40.372  42.935   4.095
 9991W        W74976   3.351  33.847   4.325
 9992W        W74977  13.299  38.227  13.037
 9993W        W74978   7.777   2.536  10.877
 9994W        W74979   1.698  42.567   2.779
 9995W        W74980  29.194  22.319  12.463
 9996W        W74981  26.673  43.731   4.357
 9997W        W74982  24.997   0.941   2.001
 9998W        W74983  39.333  41.841  10.612
 9999W        W74984  31.567   7.555  10.792
10000W        W74985   5.262  22.267  10.767
10001W        W74986  31.718  30.519   3.596
10002W        W74987   8.406  28.182  14.862
10003W        W74988  39.452  40.968  12.497
10004W        W74989  37.819  44.433  13.798
10005W        W74990  40.742  24.414  13.884
10006W        W74991   9.529   2.804   1.811
10007W        W74992  21.316  12.011   1.993
10008W        W74993   0.681  12.797   0.905
10009W        W74994  17.268  37.330   4.996
10010W        W74995  23.609  19.019   4.917
10011W        W74996   8.471  13.437  11.198
10012W        W74997  38.404  26.458  13.733
10013W        W74998  35.375  37.388   4.490
10014W        W74999  35.048  42.505  13.005
10015W        W75000  13.277  15.278   2.449
10016W        W75001  10.778   6.697  14.550
10017W        W75002  15.732  23.697  13.964
10018W        W75003   3.013  17.410   0.031
10019W        W75004  21.081   9.690  12.966
10020W        W75005   6.741   3.120   3.681
10021W        W75006   6.352  28.114  14.202
10022W        W75007  19.747  17.687   9.827
10023W        W75008  31.670   2.179  10.607
10024W        W75009   9.293  30.092   3.790
10025W        W75010   5.986  43.362   3.357
10026W        W75011  37.031  34.625   0.653
10027W        W75012  41.781   7.995  11.914
10028W        W75013  36.576   4.275   3.328
10029W        W75014  18.966  31.470   3.712
10030W        W75015  15.281  16.419  11.157
10031W        W75016  30.250   5.462   2.195
10032W        W75017  20.553   8.836  11.910
10033W        W75018  20.773   6.504  11.619
10034W        W75019  38.372  12.354  12.487
10035W        W75020  34.537   3.190  14.843
10036W        W75021  12.995   1.903  13.091
10037W        W75022  43.957   8.083  12.981
10038W        W75023  23.200  36.419  11.482
10039W        W75024  21.548  32.902  11.868
10040W        W75025  16.278  15.776   2.746
10041W        W75026  12.233  15.169   4.108
10042W        W75027   3.730  13.377   0.038
10043W        W75028  13.326  39.635  14.335
10044W        W75029   8.229  40.895   2.803
10045W        W75030  27.091  15.628   1.705
10046W        W75031   3.258   5.032  14.805
10047W        W75032  15.364  35.113  11.559
10048W        W75033  40.856  34.314  13.012
10049W        W75034   2.344  15.678  11.177
10050W        W75035  15.966  18.159  10.835
10051W        W75036  34.881   5.106   5.063
10052W        W75037  17.540  38.681  11.428
10053W        W75038  10.575  29.739   4.946
10054W        W75039  18.362  14.177   1.824
10055W        W75040  38.464  31.173   3.881
10056W        W75041   7.985  23.574  14.541
10057W        W75042  43.382  30.199   4.212
10058W        W75043  40.380   9.713  14.188
10059W        W75044  23.270  22.877   4.719
10060W        W75045  11.606  22.638   4.070
10061W        W75046  25.388  44.504  10.724
10062W        W75047   7.775  13.664   2.005
10063W        W75048  38.625  25.073   3.746
10064W        W75049  21.958  16.553  11.187
10065W        W75050  16.579  34.089  14.441
10066W        W75051  42.999  18.279   3.244
10067W        W75052   7.808   9.906  14.431
10068W        W75053   1.899  27.644  11.562
10069W        W75054  26.565  26.128  12.986
10070W        W75055  16.460  28.750   2.805
10071W        W75056  15.141  10.107  10.294
10072W        W75057   4.497   5.701  13.997
10073W        W75058   1.448  13.303  14.352
10074W        W75059  29.604  27.558  14.635
10075W        W75060   2.392  25.389   1.938
10076W        W75061  40.983  42.055  11.002
10077W        W75062  27.250  34.555   5.485
10078W        W75063  13.855  26.812   2.684
10079W        W75064  23.116  20.111  14.785
10080W        W75065  25.061  16.144  10.699
10081W        W75066  11.781  35.465   2.302
10082W        W75067  42.584  42.949   4.391
10083W        W75068  41.619  15.275   2.862
10084W        W75069  21.287  41.012   1.879
10085W        W75070   8.828   0.813  13.839
10086W        W75071  16.024   4.229   1.809
10087W        W75072  38.376  39.922  12.137
10088W        W75073  44.552  41.459  13.800
10089W        W75074  31.141  37.150   4.137
10090W        W75075   3.855  19.030  10.802
10091W        W75076  12.902  10.218   0.516
10092W        W75077  26.700  39.105  13.957
10093W        W75078  28.587   7.382  13.800
10094W        W75079  24.142  42.506   0.867
10095W        W75080  38.480  11.809   4.906
10096W        W75081  19.806  20.251   0.771
10097W        W75082  19.198  28.063   2.526
10098W        W75083   9.848  38.947  12.452
10099W        W75084  42.498   8.116   0.810
10100W        W75085  44.821  39.275  13.546
10101W        W75086  32.719  28.597  14.903
10102W        W75087   4.711   4.364  12.602
10103W        W75088  35.632  43.438  12.112
10104W        W75089  35.381  27.263  13.398
10105W        W75090  37.373  37.571  13.497
10106W        W75091  23.055  39.522   3.934
10107W        W75092  41.087  39.399  13.028
10108W        W75093  40.275  40.606   1.792
10109W        W75094   6.373   6.429   2.010
10110W        W75095  32.599  19.369   1.601
10111W        W75096  10.549  12.840   4.459
10112W        W75097  38.314  16.260  14.997
10113W        W75098  32.616  32.023   1.737
10114W        W75099  31.949   9.426   0.902
10115W        W75100  39.606  36.447   3.730
10116W        W75101  44.507  38.435  13.484
10117W        W75102  31.869   7.397   3.994
10118W        W75103   3.217  11.610  13.918
10119W        W75104  21.880   3.770  13.621
10120W        W75105  41.032   0.985  12.995
10121W        W75106  14.007   4.008   0.365
10122W        W75107  20.057  14.649  10.619
10123W        W75108   6.862  39.891   3.112
10124W        W75109   0.672  30.415  11.715
10125W        W75110  40.508   1.301  13.586
10126W        W75111  22.728  25.265   2.417
10127W        W75112  40.168  17.076   3.089
10128W        W75113  28.216   1.797  14.700
10129W        W75114  21.965  42.538  13.209
10130W        W75115   0.895  42.369   0.071
10131W        W75116  28.141   7.993   0.888
10132W        W75117  41.564  19.430   2.785
10133W        W75118  40.361  32.581   4.093
10134W        W75119  23.943  29.985   4.986
10135W        W75120  14.074  16.259   2.886
10136W        W75121  43.444  14.052   4.987
10137W        W75122  16.582  11.285   3.772
10138W        W75123  11.160  17.036   1.027
10139W        W75124  30.718  20.921   2.710
10140W        W75125  23.572  43.035   0.447
10141W        W75126  13.136  35.544  11.238
10142W        W75127  17.652  36.830   0.240
10143W        W75128  44.901  35.743   4.231
10144W        W75129  23.128  39.035   0.623
10145W        W75130  29.951  27.175  10.677
10146W        W75131  30.159  28.889  11.224
10147W        W75132  33.412  23.607   5.171
10148W        W75133   8.766  32.213  13.234
10149W        W75134  19.207  12.788   4.359
10150W        W75135   3.960  44.564  11.261
10151W        W75136  24.793  39.053   3.718
10152W        W75137  23.703  33.369  13.023
10153W        W75138   7.768  18.012   4.992
10154W        W75139  13.223   4.453  14.113
10155W        W75140  21.718  31.553  11.441
10156W        W75141  33.747  41.071   0.737
10157W        W75142  19.794  27.043   1.286
10158W        W75143  11.729  25.560  13.865
10159W        W75144  42.769  19.440  10.207
10160W        W75145  33.575  36.804  13.771
10161W        W75146  24.656  11.238  13.891
10162W        W75147  44.492  33.151   4.698
10163W        W75148  37.077  44.705   1.176
10164W        W75149  12.920  40.892   1.311
10165W        W75150   7.911  28.990   1.284
10166W        W75151  28.310   3.490   3.138
10167W        W75152  22.728  40.991   2.182
10168W        W75153  14.782  44.352  12.073
10169W        W75154   9.207  44.160   1.985
10170W        W75155  28.616  35.538  14.227
10171W        W75156  14.228   6.699   1.406
10172W        W75157  13.277   8.947   3.832
10173W        W75158  35.618  21.481   1.855
10174W        W75159  11.310   1.790   0.307
10175W        W75160   8.779  44.711  12.444
10176W        W75161   0.107  24.781  11.916
10177W        W75162   2.796   7.167  10.953
10178W        W75163   8.732   0.757  10.670
10179W        W75164  40.428   0.386   1.759
10180W        W75165   7.554  40.552   3.596
10181W        W75166   8.787  32.184   0.486
10182W        W75167  38.576   4.938   9.994
10183W        W75168  41.968  13.224  11.966
10184W        W75169  28.938  38.324   3.978
10185W        W75170  16.360  33.884  11.141
10186W        W75171  35.089  34.088   1.705
10187W        W75172  28.133  23.895  10.655
10188W        W75173   8.235  29.058  11.480
10189W        W75174  13.849   4.632   3.146
10190W        W75175  29.655  42.333  12.923
10191W        W75176  24.377   8.783   3.086
10192W        W75177   1.582  34.514  12.095
10193W        W75178  26.606   4.212  10.298
10194W        W75179   3.962  21.481  13.335
10195W        W75180  31.170   8.930   5.466
10196W        W75181  26.664   6.402  11.892
10197W        W75182  25.503  39.898  11.169
10198W        W75183  11.808  13.267   1.348
10199W        W75184  33.430  13.926   3.885
10200W        W75185  31.585  29.889   2.798
10201W        W75186  13.115  13.184   4.165
10202W        W75187   7.760   3.340   3.498
10203W        W75188  39.209  36.056  11.465
10204W        W75189  10.772  20.103   3.672
10205W        W75190  20.354  25.311  12.228
10206W        W75191   9.864  16.897  14.866
10207W        W75192  28.247  30.559   3.789
10208W        W75193  14.586   0.078   4.051
10209W        W75194  14.153  33.565  12.943
10210W        W75195  19.500  39.522   1.780
10211W        W75196  35.045  43.339   4.701
10212W        W75197  32.880  25.860  12.607
10213W        W75198  27.669  42.442   4.935
10214W        W75199  10.574  30.897   1.840
10215W        W75200  12.211  16.848  14.880
10216W        W75201  21.683  40.766   1.682
10217W        W75202   8.852  34.375   0.169
10218W        W75203  13.136   3.820   4.519
10219W        W75204  35.756  33.950  13.974
10220W        W75205  12.586   9.296   0.795
10221W        W75206  26.896  35.750   3.736
10222W        W75207  35.800  33.599   2.339
10223W        W75208  12.846  20.725   0.000
10224W        W75209  27.030  38.756   0.283
10225W        W75210  35.335   9.207  11.658
10226W        W75211   0.083  31.743   1.818
10227W        W75212  13.519  34.196   0.358
10228W        W75213  15.722  18.812  12.620
10229W        W75214  37.902  29.495  14.404
10230W        W75215  24.473   2.488   1.053
10231W        W75216  29.960  38.762  14.754
10232W        W75217  22.718  34.551   1.735
10233W        W75218  34.677  23.044   2.240
10234W        W75219  16.592  19.084  13.047
10235W        W75220  19.347  42.392   4.043
10236W        W75221  28.425  15.313   2.923
10237W        W75222  30.042   2.476   5.540
10238W        W75223  40.443  27.719  10.697
10239W        W75224   3.424  20.028  14.053
10240W        W75225  19.226  38.945   2.189
10241W        W75226  24.180  26.497   1.519
10242W        W75227   0.044   2.882   0.918
10243W        W75228   1.963  11.108   4.748
10244W        W75229  12.562   4.765  10.645
10245W        W75230  27.007  21.290   2.180
10246W        W75231  19.206   2.705  12.025
10247W        W75232  24.911  30.184   2.234
10248W        W75233  22.134  44.242  12.568
10249W        W75234   4.448  22.605   1.380
10250W        W75235  32.997  32.221   3.166
10251W        W75236  14.267  35.316  12.101
10252W        W75237  16.003  37.447   5.037
10253W        W75238  18.765  31.649  11.671
10254W        W75239   8.847  15.307  14.223
10255W        W75240  25.666  19.563  13.280
10256W        W75241  43.814  20.554   1.262
10257W        W75242  17.583  18.990   3.122
10258W        W75243  14.677   3.093   2.364
10259W        W75244  23.703  10.632  11.562
10260W        W75245  37.834   7.052   1.640
10261W        W75246  41.633  18.466   2.401
10262W        W75247  41.886  23.490   1.735
10263W        W75248  42.021   7.667  10.737
10264W        W75249  42.785   0.572  14.370
10265W        W75250  39.246  21.527   3.293
10266W        W75251   7.902  21.362   2.326
10267W        W75252  40.469   9.752   0.743
10268W        W75253   0.860  42.297  12.094
10269W        W75254   0.579  22.901  13.825
10270W        W75255  26.422  43.731  14.719
10271W        W75256  22.097  44.279   0.320
10272W        W75257   9.676  43.786  11.126
10273W        W75258  32.443  37.980   1.799
10274W        W75259  23.096  26.038  14.007
10275W        W75260   9.992  33.646   2.339
10276W        W75261  15.722  31.619   1.447
10277W        W75262  29.949  33.923  10.536
10278W        W75263  25.093  20.070   4.705
10279W        W75264   2.432  23.925  14.376
10280W        W75265  29.388  28.580   3.719
10281W        W75266  31.846  26.001   2.906
10282W        W75267  31.663  28.963   2.860
10283W        W75268  35.801  17.722  12.105
10284W        W75269  43.371  44.007  14.921
10285W        W75270  16.658  18.150  13.066
10286W        W75271  15.620  21.636  12.839
10287W        W75272  30.573  15.454  13.007
10288W        W75273   4.855  42.272  13.893
10289W        W75274  44.192  30.674   1.653
10290W        W75275   1.445   9.433   4.100
10291W        W75276  41.344  24.132  14.348
10292W        W75277  37.582   2.402   0.334
10293W        W75278  16.089  26.676  10.287
10294W        W75279  17.837   0.929  13.071
10295W        W75280   5.386  23.722   4.740
10296W        W75281  31.841  40.889  13.453
10297W        W75282  24.467  44.774  14.846
10298W        W75283   2.243  29.474  14.339
10299W        W75284   6.280  27.987   4.641
10300W        W75285  11.383   2.345  14.416
10301W        W75286  39.176  11.672  12.944
10302W        W75287  37.855  30.825  14.369
10303W        W75288  29.086   7.259   3.077
10304W        W75289  17.346  33.164  11.797
10305W        W75290  41.264   7.724  14.768
10306W        W75291  27.600  34.138  14.623
10307W        W75292  24.812  35.608  11.689
10308W        W75293  36.713  16.154  12.240
10309W        W75294   0.519  19.680   2.444
10310W        W75295  11.840  28.779   1.818
10311W        W75296  35.466  23.069  11.391
10312W        W75297  27.734   5.412  14.347
10313W        W75298  17.231  39.657  11.188
10314W        W75299  25.735  20.174   2.395
10315W        W75300  36.836  42.777  12.063
10316W        W75301  28.694  30.906   0.645
10317W        W75302   9.304  23.232  11.220
10318W        W75303  30.331   8.183  10.423
10319W        W75304   3.711  40.983   0.817
10320W        W75305   9.978  33.971  13.480
10321W        W75306  41.946  43.901  11.713
10322W        W75307  11.228  43.821   4.502
10323W        W75308  34.992  31.387  13.475
10324W        W75309  35.888  10.776   1.523
10325W        W75310  29.402  13.072   3.198
10326W        W75311   5.650  36.433   4.247
10327W        W75312  10.587   7.066   4.083
10328W        W75313  17.621  39.313   4.167
10329W        W75314  23.262   0.211  11.554
10330W        W75315  34.389   3.303   1.730
10331W        W75316   0.633  26.189   1.458
10332W        W75317  20.329  27.637   2.746
10333W        W75318   5.425  22.723  14.433
10334W        W75319  20.992  16.171   4.021
10335W        W75320  43.400  26.565  10.203
10336W        W75321   4.360  12.668   4.078
10337W        W75322  16.239  33.436   1.427
10338W        W75323  13.096  38.866  13.292
10339W        W75324  24.659  14.683   1.383
10340W        W75325  32.617  41.008  13.967
10341W        W75326  32.006  41.438   3.570
10342W        W75327   7.138   8.917  13.855
10343W        W75328  42.000  31.755  10.703
10344W        W75329  35.949  44.831  10.428
10345W        W75330  37.511  16.621   0.361
10346W        W75331   1.168   8.786  14.796
10347W        W75332  26.683  14.082  12.501
10348W        W75333  40.579  26.608  11.504
10349W        W75334  32.437   9.633   3.613
10350W        W75335  24.369  26.538   1.015
10351W        W75336  17.638  34.476   3.674
10352W        W75337  40.906  43.969   0.963
10353W        W75338  15.349   7.279   2.713
10354W        W75339   9.297   0.488  10.612
10355W        W75340  34.715  22.164  11.457
10356W        W75341   9.723  15.772  10.596
10357W        W75342  37.392  33.123  14.064
10358W        W75343   7.449  39.028   0.760
10359W        W75344   8.215  34.518  12.027
10360W        W75345  41.994  17.183  12.843
10361W        W75346  17.612  18.324   1.475
10362W        W75347   8.919   3.804  12.144
10363W        W75348  32.077  20.557   1.867
10364W        W75349  12.904   6.959  11.685
10365W        W75350  42.203   2.077   3.257
10366W        W75351  13.420  37.844   3.442
10367W        W75352   8.362  40.947   4.126
10368W        W75353  28.119  18.605  14.281
10369W        W75354  33.320  33.863   1.284
10370W        W75355  29.653  20.001   0.368
10371W        W75356  40.449   6.811   2.827
10372W        W75357   7.873  31.252  11.016
10373W        W75358  43.790  18.743  13.969
10374W        W75359  15.584  42.623   1.334
10375W        W75360  18.726  41.357  13.365
10376W        W75361  12.100  30.085   0.354
10377W        W75362  12.649  18.644  13.590
10378W        W75363   1.251   2.607   0.793
10379W        W75364   2.636   8.333  10.719
10380W        W75365  37.481   6.406  11.316
10381W        W75366  25.688  30.462   0.459
10382W        W75367  44.918  27.978   3.207
10383W        W75368  10.470   0.459   1.397
10384W        W75369  20.163   5.821  12.428
10385W        W75370  27.660  41.445   3.820
10386W        W75371  18.022  25.316  10.819
10387W        W75372  26.109  17.351   2.251
10388W        W75373  26.627  18.178  12.093
10389W        W75374  20.183  27.944  10.778
10390W        W75375  16.562  43.807   0.945
10391W        W75376   7.309   2.961   0.374
10392W        W75377  38.067  23.555   2.309
10393W        W75378  36.963  26.897   3.659
10394W        W75379   0.328  43.852  11.460
10395W        W75380   6.647  42.981   4.180
10396W        W75381  42.406  43.745  11.097
10397W        W75382  30.552  14.208  14.772
10398W        W75383  13.368   5.863   4.806
10399W        W75384  30.036   0.446   3.307
10400W        W75385  20.034  22.627   4.182
10401W        W75386  41.762   6.136   4.233
10402W        W75387   5.786  13.048   2.288
10403W        W75388  35.082  34.360  10.943
10404W        W75389  36.810   5.141  12.777
10405W        W75390  28.093  33.333  11.217
10406W        W75391  20.646  26.608   1.154
10407W        W75392  20.009  24.645   4.267
10408W        W75393  30.008  40.636  13.483
10409W        W75394  18.889  42.975  11.174
10410W        W75395  42.116   8.329   4.687
10411W        W75396  30.657  30.141  12.464
10412W        W75397  35.997  12.571  14.762
10413W        W75398  25.724  40.659  14.378
10414W        W75399  41.374  21.605  14.996
10415W        W75400  38.675  20.636  10.169
10416W        W75401  40.568  28.731   4.581
10417W        W75402  16.807   1.657  10.532
10418W        W75403  32.560  37.262   2.267
10419W        W75404  42.882  14.883   2.185
10420W        W75405   3.360  12.232   1.214
10421W        W75406  14.396  18.760   3.216
10422W        W75407  16.790  17.266  11.616
10423W        W75408   1.621   1.352  14.399
10424W        W75409  10.444  14.059   4.034
10425W        W75410  36.535   9.294   2.541
10426W        W75411  33.628  16.133  13.615
10427W        W75412   1.694  35.546   1.403
10428W        W75413  31.601  15.304   1.411
10429W        W75414  15.666  25.771  12.018
10430W        W75415  23.307  32.630   0.983
10431W        W75416   1.305  22.159   0.794
10432W        W75417   3.770  13.956  14.943
10433W        W75418  18.269   4.562   4.450
10434W        W75419  23.472   3.345  10.657
10435W        W75420  16.483   3.935   2.345
10436W        W75421  34.224  18.145   3.168
10437W        W75422  12.629  23.619  10.705
10438W        W75423  17.754  39.153  11.535
10439W        W75424   4.440  34.097   0.786
10440W        W75425   4.170  29.534   2.301
10441W        W75426  29.368  23.068  12.211
10442W        W75427  40.998  15.541   0.806
10443W        W75428  27.841  29.981   5.415
10444W        W75429  33.649  10.184  13.708
10445W        W75430  32.435  15.124   1.817
10446W        W75431  32.213   0.340  13.866
10447W        W75432   3.413  25.817   4.209
10448W        W75433  12.331  41.381   3.188
10449W        W75434  38.492  44.846   1.214
10450W        W75435  16.846  25.052  14.465
10451W        W75436   3.710  15.241  13.196
10452W        W75437   9.893   9.981  10.310
10453W        W75438  33.066   1.770   3.639
10454W        W75439  14.275   8.361  14.839
10455W        W75440   7.348  39.503   2.664
10456W        W75441  26.550   9.243   2.941
10457W        W75442  40.864   6.290   3.243
10458W        W75443  35.935  13.654   1.608
10459W        W75444  35.451  12.305   3.256
10460W        W75445  24.615   9.311   3.161
10461W        W75446  21.969   7.018  11.574
10462W        W75447  26.210  25.075   1.287
10463W        W75448   4.776  29.690  13.293
10464W        W75449  32.991  15.283  14.031
10465W        W75450  22.231  33.006  12.308
10466W        W75451  34.092  33.598  14.201
10467W        W75452  18.463  22.681   5.037
10468W        W75453  24.455  32.499   2.667
10469W        W75454  37.230   1.619   0.841
10470W        W75455  26.992  40.775   3.925
10471W        W75456  37.783  25.439  11.072
10472W        W75457  31.635  38.726   2.131
10473W        W75458  39.953  36.365   2.378
10474W        W75459  12.875  38.604   4.732
10475W        W75460   1.225  42.025  14.799
10476W        W75461  39.438   1.016  13.453
10477W        W75462  11.404   7.278   0.660
10478W        W75463  26.197   7.258   9.984
10479W        W75464   1.442  29.707   3.246
10480W        W75465  33.985   3.685  14.521
10481W        W75466  12.155   0.797   2.227
10482W        W75467  13.962  16.920   4.882
10483W        W75468  33.957  32.665  13.086
10484W        W75469  24.495  14.589  14.358
10485W        W75470  26.085  15.005   4.288
10486W        W75471  11.233  38.565  13.094
10487W        W75472   7.783  20.099  12.941
10488W        W75473  43.491  20.549  11.667
10489W        W75474  18.280  12.752  12.807
10490W        W75475  38.201   1.011  11.151
10491W        W75476  23.164   0.436  14.044
10492W        W75477  33.850  39.616  11.734
10493W        W75478  36.807  18.355  11.473
10494W        W75479   6.965  43.935   1.172
10495W        W75480  39.842  43.246  11.607
10496W        W75481  10.893   4.625  11.781
10497W        W75482  25.892  31.671  12.178
10498W        W75483  13.297  26.048   1.444
10499W        W75484  30.729  32.850  13.922
10500W        W75485  33.524  31.710  13.137
10501W        W75486  25.599   8.301   4.734
10502W        W75487  10.436  19.780  12.048
10503W        W75488   0.291  28.587   2.453
10504W        W75489   8.391  16.882   4.651
10505W        W75490  33.182  25.111   4.357
10506W        W75491  22.779  22.777   4.195
10507W        W75492  40.089  28.768   4.434
10508W        W75493  20.160  18.199  10.512
10509W        W75494  13.243  27.956  11.090
10510W        W75495  16.332   7.071   4.135
10511W        W75496  44.865  27.958   1.762
10512W        W75497   7.719  10.054   0.831
10513W        W75498   0.199  25.689   2.326
10514W        W75499  11.235  11.057  13.463
10515W        W75500  19.742  27.654  13.390
10516W        W75501   5.859  26.366   2.299
10517W        W75502  17.128  39.406   0.811
10518W        W75503  41.304  35.711  11.779
10519W        W75504  44.036  25.623  14.369
10520W        W75505  21.676  42.410   3.917
10521W        W75506  26.647   6.399  11.379
10522W        W75507   1.022  19.019   5.085
10523W        W75508  31.718   6.750  11.167
10524W        W75509  31.180  23.597  13.936
10525W        W75510  12.220  23.373  11.010
10526W        W75511   2.543  30.302  11.952
10527W        W75512   8.363  15.402  14.976
10528W        W75513  36.437   3.889  12.911
10529W        W75514  39.772  28.108   2.204
10530W        W75515  22.042   8.887   2.653
10531W        W75516  13.052  10.969   3.664
10532W        W75517  33.460   4.997   4.108
10533W        W75518  15.046   3.267   1.449
10534W        W75519  33.219  36.500  12.884
10535W        W75520  42.088  17.500  11.829
10536W        W75521  16.819  13.485  12.814
10537W        W75522   7.833  31.677  11.296
10538W        W75523  36.727  33.180   4.029
10539W        W75524  38.863   8.768   3.599
10540W        W75525  10.430  16.107   3.296
10541W        W75526  12.054  29.152  13.077
10542W        W75527  35.053  20.484   0.380
10543W        W75528   4.277  43.250   2.393
10544W        W75529   3.557  20.129   0.954
10545W        W75530  16.536  15.206   0.531
10546W        W75531   5.535  17.083  12.067
10547W        W75532  25.957  27.489  14.256
10548W        W75533   9.499  28.391  11.119
10549W        W75534  15.587  29.421   3.486
10550W        W75535  10.843  12.921  12.066
10551W        W75536  33.101  23.275   4.220
10552W        W75537  33.091  43.743   4.430
10553W        W75538   7.761  11.708  13.877
10554W        W75539  16.513  22.880   1.098
10555W        W75540  32.486  20.787  14.340
10556W        W75541  35.082  43.313  12.773
10557W        W75542  21.946  12.114   4.516
10558W        W75543  35.992  43.935   0.081
10559W        W75544  43.019   9.775   2.105
10560W        W75545  28.023  42.878  13.964
10561W        W75546  42.462  22.781   3.689
10562W        W75547  30.122  26.197   1.499
10563W        W75548  11.065  12.091   1.735
10564W        W75549  16.170  23.078   3.792
10565W        W75550  40.630  12.517  14.479
10566W        W75551  11.575  19.380  12.883
10567W        W75552  13.566   4.200  12.351
10568W        W75553  13.533  26.933   3.208
10569W        W75554  14.799  21.468  10.274
10570W        W75555  21.146  10.273   3.375
10571W        W75556   9.853   6.692  11.608
10572W        W75557  19.240  31.134   0.019
10573W        W75558  11.580  12.843  13.330
10574W        W75559   2.755   4.131  14.202
10575W        W75560   3.329  34.381  13.975
10576W        W75561  42.361  31.618  14.058
10577W        W75562  19.027  41.309  14.941
10578W        W75563  14.744  34.567  14.432
10579W        W75564  41.510   7.855   0.837
10580W        W75565  10.189  44.227  11.891
10581W        W75566  36.053  14.265   4.192
10582W        W75567  43.348  42.177  11.562
10583W        W75568  19.333  18.015   9.893
10584W        W75569   3.711  19.755   3.706
10585W        W75570  10.623  43.841   2.120
10586W        W75571  12.957  12.143  11.737
10587W        W75572  42.087  26.316  11.714
10588W        W75573  12.708  12.244  13.052
10589W        W75574  43.981   8.643  10.772
10590W        W75575  39.665  41.585  13.336
10591W        W75576  13.550  39.791   3.299
10592W        W75577  37.279  13.199  14.685
10593W        W75578  22.566  43.795   1.917
10594W        W75579  21.278   0.377   1.297
10595W        W75580  29.706  21.547  13.016
10596W        W75581  34.925  43.296   1.361
10597W        W75582  15.179  20.754  13.301
10598W        W75583  30.892  42.830  14.397
10599W        W75584  21.469  44.550   4.141
10600W        W75585  15.767  17.779   1.171
10601W        W75586   0.920  35.012   1.403
10602W        W75587  31.725   1.870   2.750
10603W        W75588  18.679  43.994   1.387
10604W        W75589  33.423  31.159   0.398
10605W        W75590   7.907  37.103   1.863
10606W        W75591  24.125  26.951   0.250
10607W        W75592  14.248  13.070   5.059
10608W        W75593  31.406  18.444   3.287
10609W        W75594   5.019   9.183   1.813
10610W        W75595  22.395  38.982   4.960
10611W        W75596  40.326  19.392   3.358
10612W        W75597   5.765  30.685   1.624
10613W        W75598  39.425  32.022   0.815
10614W        W75599   5.242  24.513  14.035
10615W        W75600  33.197   7.117  10.300
10616W        W75601  14.186   0.945   0.517
10617W        W75602  21.755  30.687  13.084
10618W        W75603  31.208  29.750  11.208
10619W        W75604   1.350  41.298   3.638
10620W        W75605  33.628   1.537   2.900
10621W        W75606   5.839  27.868  10.464
10622W        W75607   2.748  23.056  11.505
10623W        W75608  28.178   1.397  14.324
10624W        W75609   6.637  39.899   4.618
10625W        W75610  10.401  37.044   0.274
10626W        W75611  44.838   0.682   0.498
10627W        W75612  20.154  19.132  12.020
10628W        W75613  11.421  43.542   4.110
10629W        W75614  16.126  13.611   0.968
10630W        W75615  21.489  39.774  11.026
10631W        W75616   9.801  28.002  10.532
10632W        W75617   3.767   9.473  14.921
10633W        W75618   9.963  31.951   2.650
10634W        W75619   4.853   2.676   5.078
10635W        W75620   1.794   9.538   4.640
10636W        W75621  25.953  14.170   2.694
10637W        W75622  27.847  23.608   3.651
10638W        W75623  28.321   7.012  12.890
10639W        W75624   5.709  17.373   3.822
10640W        W75625  43.084   9.217   0.542
10641W        W75626   2.364  16.604   4.845
10642W        W75627  33.658  12.126   0.254
10643W        W75628   7.285  37.171  14.763
10644W        W75629  36.021  18.190   4.879
10645W        W75630  24.577   7.513   2.502
10646W        W75631  21.488  44.830   2.907
10647W        W75632  29.536  39.538   0.754
10648W        W75633  41.482  15.710  11.957
10649W        W75634  14.786  40.715  11.137
10650W        W75635  17.752  23.020   3.768
10651W        W75636  11.972   1.127  12.400
10652W        W75637  36.732  40.374  13.087
10653W        W75638  10.366  36.402  11.708
10654W        W75639  34.857   8.599  12.125
10655W        W75640  12.137  17.006  11.167
10656W        W75641  32.345  18.546  14.416
10657W        W75642   4.153   0.464   4.672
10658W        W75643  36.100  38.536   1.924
10659W        W75644  41.265  34.305   5.010
10660W        W75645   4.789  35.967  11.712
10661W        W75646  40.964  28.497  13.451
10662W        W75647  28.198  15.049  10.513
10663W        W75648  34.391  29.773  11.004
10664W        W75649  29.132  17.806  12.119
10665W        W75650  20.569  44.821   1.927
10666W        W75651  23.982  15.232  12.900
10667W        W75652   3.809  38.932   1.727
10668W        W75653  12.609   4.984  11.088
10669W        W75654  20.546  22.741   2.896
10670W        W75655  44.746  25.549   4.926
10671W        W75656  29.916  33.114  12.312
10672W        W75657   9.692   0.181  12.541
10673W        W75658   9.367   7.678   4.191
10674W        W75659  11.755   6.656  10.625
10675W        W75660  14.094   0.862   4.500
10676W        W75661   3.132   8.730  12.696
10677W        W75662  37.223  14.766   2.725
10678W        W75663  41.538  23.225   4.898
10679W        W75664  39.784  14.968  11.517
10680W        W75665  24.767  38.450   3.419
10681W        W75666  20.674  21.859  11.510
10682W        W75667  30.105   5.011  13.291
10683W        W75668  28.427   6.760  12.046
10684W        W75669  35.994   4.659   1.764
10685W        W75670  11.098  38.234   3.345
10686W        W75671  12.105  20.171  13.862
10687W        W75672  18.570   8.722   0.762
10688W        W75673  23.451  36.127   0.895
10689W        W75674  34.375  15.133   2.910
10690W        W75675  21.481  28.965   0.813
10691W        W75676   8.037  18.900  13.823
10692W        W75677  15.034   4.255   3.879
10693W        W75678   2.823   8.033  11.737
10694W        W75679  14.816  35.864   2.826
10695W        W75680  25.590   0.364  14.842
10696W        W75681  32.586  30.146   1.636
10697W        W75682  33.031  40.312  12.482
10698W        W75683  12.074  42.060  11.956
10699W        W75684  25.705  14.693  13.317
10700W        W75685  27.399  13.403  13.926
10701W        W75686   1.511  38.595   1.678
10702W        W75687  30.073  14.590  12.878
10703W        W75688   9.031   7.046  11.207
10704W        W75689   8.199  37.027  13.311
10705W        W75690  34.334  14.351  14.802
10706W        W75691  43.438  31.645  11.527
10707W        W75692  15.242   6.645  13.997
10708W        W75693  27.602   7.979  12.158
10709W        W75694  39.952  13.096  12.508
10710W        W75695  20.240  26.417   1.457
10711W        W75696  29.650  12.050   4.677
10712W        W75697  31.633  40.554   0.756
10713W        W75698  31.946  28.730  12.645
10714W        W75699  42.802  21.317   4.792
10715W        W75700  19.338   4.709  11.750
10716W        W75701  11.687  14.356   0.421
10717W        W75702  37.254  27.532  13.495
10718W        W75703  26.443   3.335  12.934
10719W        W75704  38.435  24.657  12.464
10720W        W75705  16.677  13.654   4.669
10721W        W75706  21.549  19.589   0.760
10722W        W75707  28.525  12.050   0.967
10723W        W75708  30.286  37.894  13.835
10724W        W75709   8.463  10.853  12.327
10725W        W75710  32.425  35.458   4.478
10726W        W75711  19.249  21.890   4.031
10727W        W75712  29.989  36.634  12.471
10728W        W75713  29.429  17.781  13.098
10729W        W75714  40.433   3.662  11.551
10730W        W75715  43.535  27.864   3.709
10731W        W75716   5.208  38.600  13.891
10732W        W75717  19.695  20.224   4.580
10733W        W75718  15.047  25.498   0.302
10734W        W75719  37.804  28.015   1.424
10735W        W75720   8.892  26.216  14.158
10736W        W75721  22.611  40.807   4.458
10737W        W75722  36.761  19.499   0.483
10738W        W75723  37.369  22.993   3.563
10739W        W75724  22.311  38.011   3.627
10740W        W75725  37.884  31.047   0.755
10741W        W75726  14.577  24.210  10.971
10742W        W75727  27.913  23.884  11.679
10743W        W75728  28.240   8.253   2.850
10744W        W75729   1.188  38.318   0.765
10745W        W75730  34.879  21.120   1.593
10746W        W75731   6.603  10.543  10.754
10747W        W75732  17.462  33.420   0.323
10748W        W75733  33.141  20.895   4.589
10749W        W75734  17.403  44.430   3.274
10750W        W75735   9.764  40.020  12.867
10751W        W75736  42.375  33.206   1.354
10752W        W75737   3.764  20.240   4.486
10753W        W75738  19.215  43.197  12.894
10754W        W75739  24.022  43.874   1.896
10755W        W75740  31.462  39.084   0.887
10756W        W75741  36.661   5.112   1.494
10757W        W75742  20.689   0.707  11.366
10758W        W75743  15.250  13.258  14.267
10759W        W75744   8.504  39.414  14.515
10760W        W75745  24.729   3.463  13.514
10761W        W75746  31.371  36.004  11.534
10762W        W75747  16.607  17.920   3.696
10763W        W75748  26.420  23.984  14.812
10764W        W75749  41.224   0.667   0.671
10765W        W75750   3.948  24.954   4.080
10766W        W75751  30.827  30.464   4.620
10767W        W75752  11.340  16.385  13.884
10768W        W75753  28.081  37.604  10.705
10769W        W75754  39.499   7.199  11.834
10770W        W75755  20.488   7.441  13.934
10771W        W75756  24.810  40.861  12.085
10772W        W75757  30.966  34.623   0.079
10773W        W75758  15.776  26.000   3.277
10774W        W75759  12.421  34.581  14.451
10775W        W75760  42.816  30.375   0.269
10776W        W75761  10.664  39.036  13.481
10777W        W75762  23.061   2.084   3.781
10778W        W75763  42.231  11.193   1.801
10779W        W75764   8.733  38.181   2.205
10780W        W75765  20.222  36.959   1.248
10781W        W75766   7.059  32.628   0.855
10782W        W75767  19.619  37.138   4.174
10783W        W75768  28.856   7.898   3.715
10784W        W75769   9.843   9.861   2.423
10785W        W75770  34.476  21.258  14.233
10786W        W75771  19.864  34.148  11.646
10787W        W75772  11.155   6.257   2.111
10788W        W75773   1.444  42.885  14.405
10789W        W75774  27.509  36.491  13.040
10790W        W75775  17.555  13.837  11.538
10791W        W75776   0.798  44.004  11.665
10792W        W75777  29.100  26.671  12.937
10793W        W75778  20.250  12.706   0.020
10794W        W75779  27.787  37.515   5.274
10795W        W75780   3.188   9.757  11.248
10796W        W75781  32.396   2.149  13.457
10797W        W75782  22.104  13.148  14.048
10798W        W75783  37.112  37.341   2.251
10799W        W75784  43.727  15.805   4.124
10800W        W75785  29.137  20.532   2.591
10801W        W75786  14.930  38.541  11.388
10802W        W75787  25.064  32.082   4.379
10803W        W75788  24.496  20.002   1.957
10804W        W75789  32.207  26.556  12.140
10805W        W75790  37.519  33.478   3.206
10806W        W75791  37.357  21.075   3.167
10807W        W75792  29.708  40.318  14.839
10808W        W75793  17.701   7.406  14.093
10809W        W75794   1.018  26.477   4.543
10810W        W75795   0.640   8.744  14.674
10811W        W75796   0.419  38.493   5.002
10812W        W75797  36.912  30.622   2.197
10813W        W75798  30.277  44.453  14.609
10814W        W75799   8.755  19.256   2.359
10815W        W75800  38.503   0.503  10.364
10816W        W75801  20.123  10.644  13.013
10817W        W75802   9.586  17.142  12.517
10818W        W75803  18.606  43.489   0.016
10819W        W75804   5.981   1.510  10.758
10820W        W75805  15.611   0.450   3.602
10821W        W75806  28.141  25.138   1.435
10822W        W75807  10.773  23.250  14.415
10823W        W75808   0.915   2.050  14.424
10824W        W75809   5.146  31.026   3.080
10825W        W75810   3.737  30.858   4.702
10826W        W75811  39.413  22.083  10.664
10827W        W75812  19.759  42.204  13.030
10828W        W75813  35.336   5.657   1.687
10829W        W75814   8.938   2.844   2.482
10830W        W75815   5.233  43.052  14.887
10831W        W75816   3.762  42.909   1.244
10832W        W75817  27.119   1.471   4.030
10833W        W75818  35.956  37.010   0.967
10834W        W75819   1.546  30.034   4.553
10835W        W75820  38.269  36.821  13.942
10836W        W75821  18.502  35.506   2.653
10837W        W75822  39.018  19.028   0.240
10838W        W75823  10.109  34.637  14.747
10839W        W75824   7.814   7.660   0.267
10840W        W75825  28.210   6.716   1.479
10841W        W75826  11.489  39.300   5.050
10842W        W75827  36.113  40.712   0.655
10843W        W75828  29.428  37.952  13.304
10844W        W75829  30.779   2.775   4.330
10845W        W75830  28.435  43.257  13.962
10846W        W75831  19.638  30.160  14.396
10847W        W75832  16.688   7.604  10.243
10848W        W75833  33.126  21.339  11.892
10849W        W75834  15.847  27.224  11.593
10850W        W75835  22.188  43.362  12.496
10851W        W75836  16.732  40.907  13.994
10852W        W75837  43.929   9.109  10.545
10853W        W75838  11.773  23.563   1.837
10854W        W75839  19.840  15.939  13.961
10855W        W75840  25.559   3.751   1.679
10856W        W75841  24.194  35.567   0.691
10857W        W75842  39.106  33.906  14.365
10858W        W75843  29.545  14.682  12.903
10859W        W75844  30.720  39.508  11.768
10860W        W75845   3.680  23.068  10.731
10861W        W75846  16.136  25.636  13.912
10862W        W75847   9.859  19.985   0.354
10863W        W75848  19.275  38.187   0.377
10864W        W75849  23.787  30.994  13.041
10865W        W75850  27.500  11.560  11.558
10866W        W75851  25.668  32.533   1.212
10867W        W75852   2.293   2.148  14.337
10868W        W75853  18.255  18.605  10.128
10869W        W75854  17.697   4.026   4.437
10870W        W75855  15.215  26.975   1.231
10871W        W75856  26.536   0.278   4.688
10872W        W75857  19.735   6.140  13.572
10873W        W75858   8.443   4.826  14.753
10874W        W75859  42.976  44.778   2.686
10875W        W75860  19.006  43.412  11.407
10876W        W75861  39.424  37.899   1.859
10877W        W75862  15.351  41.452  13.483
10878W        W75863  35.832  31.450  13.813
10879W        W75864  17.634  15.422   0.268
10880W        W75865  14.735  11.731   3.586
10881W        W75866  13.720  11.226  12.924
10882W        W75867  40.784  10.695  14.049
10883W        W75868  30.361  11.849   4.225
10884W        W75869  27.520  13.802   1.121
10885W        W75870  28.987  39.663  13.583
10886W        W75871  36.917  19.582   4.673
10887W        W75872  41.366  33.032  13.078
10888W        W75873  44.780  24.475   2.179
10889W        W75874  15.082  29.679   2.735
10890W        W75875  11.438  31.581   4.119
10891W        W75876   0.261  12.754  14.817
10892W        W75877  44.209  31.014  12.865
10893W        W75878  12.725  25.925  11.987
10894W        W75879   1.506  24.187   3.544
10895W        W75880  35.556  17.105  14.713
10896W        W75881   6.604   8.342  11.095
10897W        W75882   7.344  33.647   0.372
10898W        W75883  26.458  44.404   1.375
10899W        W75884  25.870  39.842  12.052
10900W        W75885   2.866  10.234   3.673
10901W        W75886  37.058  16.004  11.080
10902W        W75887  33.211  15.403  10.670
10903W        W75888  11.398  41.027  12.543
10904W        W75889   7.448  32.486  12.183
10905W        W75890  27.557   4.938  10.599
10906W        W75891  32.424  26.589   2.031
10907W        W75892  15.080  33.831  14.378
10908W        W75893   4.287  14.403   2.778
10909W        W75894  28.098  34.861   4.263
10910W        W75895  37.378   5.005   1.366
10911W        W75896  24.197  34.542  10.061
10912W        W75897  13.811   6.458   1.221
10913W        W75898   4.209  24.069   3.748
10914W        W75899  28.193  23.948  12.096
10915W        W75900  29.987   8.676   3.046
10916W        W75901  20.699  10.642   3.353
10917W        W75902  16.084  24.785  14.408
10918W        W75903   7.696   9.728   1.326
10919W        W75904  41.429  41.653  12.115
10920W        W75905   8.825   5.733   0.859
10921W        W75906  41.444  32.560  10.809
10922W        W75907  29.875  36.172  13.394
10923W        W75908  44.940   3.940  10.810
10924W        W75909  42.311  12.342   1.402
10925W        W75910  26.273   6.224  11.056
10926W        W75911   3.602  33.309   2.247
10927W        W75912  24.643  12.925  12.830
10928W        W75913  41.783  35.356  13.891
10929W        W75914  22.639  37.252  10.318
10930W        W75915  41.826   9.756   1.480
10931W        W75916  38.036  22.013   1.439
10932W        W75917  37.068  40.309  12.009
10933W        W75918  27.297  41.737  12.839
10934W        W75919   5.378  24.211   1.551
10935W        W75920  23.650  42.875  11.580
10936W        W75921  15.768   2.442  10.470
10937W        W75922   3.720  12.336   4.609
10938W        W75923  28.919  13.321   1.257
10939W        W75924  20.485  41.308  14.831
10940W        W75925  28.868  39.817   3.235
10941W        W75926  41.530  25.997  13.659
10942W        W75927  12.358  10.216  11.170
10943W        W75928  44.896  14.043  14.101
10944W        W75929  21.108  35.093  13.395
10945W        W75930  44.486   3.257  11.236
10946W        W75931  30.551   8.489  11.263
10947W        W75932  43.189  24.138  12.483
10948W        W75933   7.199  12.135  11.160
10949W        W75934  32.757   8.440   1.264
10950W        W75935  33.773  15.651   2.673
10951W        W75936  26.476  23.232   4.331
10952W        W75937  12.934  19.444  11.172
10953W        W75938   6.606   5.256   3.055
10954W        W75939  22.592   6.283  11.185
10955W        W75940  19.605   8.983   4.268
10956W        W75941  43.147  20.706  10.370
10957W        W75942  43.969  24.942  13.950
10958W        W75943  42.357   8.104  12.563
10959W        W75944   7.971  33.365   5.029
10960W        W75945   3.902  17.828  11.593
10961W        W75946  16.149  38.520   2.256
10962W        W75947  24.400   0.856  14.327
10963W        W75948   1.929  34.811   4.518
10964W        W75949  14.070   5.817   0.746
10965W        W75950  37.566  44.847   0.180
10966W        W75951  10.852   6.803  14.033
10967W        W75952  21.542  32.266   4.175
10968W        W75953  30.867  27.050   2.691
10969W        W75954   1.561  24.969   4.954
10970W        W75955  27.624  35.078   0.794
10971W        W75956  18.052  11.335   4.368
10972W        W75957  29.626  37.930  14.787
10973W        W75958   0.976  38.456  13.413
10974W        W75959  31.068   4.792  10.116
10975W        W75960   0.834  38.977  12.551
10976W        W75961   3.748  12.669   3.250
10977W        W75962   6.107  16.547   4.100
10978W        W75963  23.503  18.603  14.358
10979W        W75964  35.609   1.352  10.515
10980W        W75965  18.579  36.905  11.508
10981W        W75966  27.910  17.181   0.665
10982W        W75967  37.877  37.978   1.739
10983W        W75968  19.308   0.174   2.485
10984W        W75969  43.563  14.288  10.681
10985W        W75970  22.647   0.844  14.550
10986W        W75971  44.801  24.063  14.244
10987W        W75972  41.463  44.548  12.936
10988W        W75973  19.315  29.786   2.745
10989W        W75974  23.432  32.525  11.996
10990W        W75975  19.871   7.752  11.016
10991W        W75976  36.986  43.431   3.729
10992W        W75977  41.640  38.954   1.188
10993W        W75978   0.149  10.088  13.656
10994W        W75979  39.024  29.050  10.158
10995W        W75980   1.846  29.614   4.579
10996W        W75981   7.286  39.824  13.989
10997W        W75982  30.623  34.366   2.418
10998W        W75983   0.274  36.852   9.631
10999W        W75984   1.935   4.198  14.790
11000W        W75985  21.058  21.511  14.722
11001W        W75986  14.171  20.243  10.784
11002W        W75987   5.465  11.796   2.593
11003W        W75988  28.837  38.022   1.702
11004W        W75989  36.448  39.385  13.303
11005W        W75990  30.640  44.461   1.995
11006W        W75991  29.407  12.108  13.401
11007W        W75992   7.921  14.056   2.298
11008W        W75993  37.874  43.872   0.137
11009W        W75994   2.048  22.561  14.246
11010W        W75995  25.691  25.144   1.312
11011W        W75996  30.639  19.953   0.396
11012W        W75997  28.270  33.574   3.682
11013W        W75998   6.708  22.054   1.245
11014W        W75999   9.409   8.145  14.955
11015W        W76000  43.181   0.209   2.475
11016W        W76001  18.684  31.070  13.306
11017W        W76002  39.074  40.469   0.331
11018W        W76003  16.857  24.909  11.220
11019W        W76004   3.002   6.159   2.818
11020W        W76005   1.536   5.472  14.920
11021W        W76006  42.748  44.394   2.368
11022W        W76007   2.545  25.193  10.812
11023W        W76008   8.529   6.160   1.796
11024W        W76009  26.813  24.332  14.852
11025W        W76010  43.433   9.502  11.613
11026W        W76011  38.726  36.546  13.846
11027W        W76012  35.297   4.677  12.198
11028W        W76013  19.453   3.644   0.531
11029W        W76014  14.764  41.566   3.603
11030W        W76015   8.537  17.193   3.865
11031W        W76016  25.222  27.990   4.199
11032W        W76017  42.327   4.901  14.270
11033W        W76018  12.426  38.196  13.127
11034W        W76019   6.843  24.588   0.970
11035W        W76020   2.780  32.246   2.913
11036W        W76021  31.409  15.361  13.748
11037W        W76022  16.789  42.913  12.177
11038W        W76023   0.355  22.600  14.235
11039W        W76024  28.355  13.324   1.318
11040W        W76025   1.422  12.616   3.722
11041W        W76026  33.653  35.876  12.209
11042W        W76027  16.429  26.316   2.015
11043W        W76028  36.796  13.156   2.919
11044W        W76029  14.370   5.039   9.856
11045W        W76030   1.702   5.896   2.393
11046W        W76031  11.536   6.294   4.178
11047W        W76032  34.892  30.516   4.177
11048W        W76033  29.895  41.889  11.030
11049W        W76034  14.172  26.357  10.898
11050W        W76035  19.145  35.907   1.134
11051W        W76036   6.402  32.689  10.920
11052W        W76037  24.588  13.813   2.838
11053W        W76038  18.397   8.294   2.235
11054W        W76039  23.940  17.767  14.235
11055W        W76040   7.868  32.974   3.932
11056W        W76041  21.789  24.753   0.854
11057W        W76042   0.519  28.686   3.986
11058W        W76043  18.672  30.166   4.494
11059W        W76044  26.578  23.079  12.378
11060W        W76045  41.922  43.855  12.219
11061W        W76046  33.481   6.997  14.178
11062W        W76047  20.114  26.247  11.048
11063W        W76048   9.301   3.757  12.481
11064W        W76049  20.117  29.019   3.664
11065W        W76050   7.217   7.075   0.729
11066W        W76051  37.951  26.727  13.983
11067W        W76052   6.572  38.643   1.911
11068W        W76053   7.711  18.793  12.530
11069W        W76054  26.484  41.584   4.558
11070W        W76055   2.913   5.789   0.794
11071W        W76056  37.974  12.787  14.903
11072W        W76057   8.867  14.262   4.146
11073W        W76058  43.033   8.197   0.298
11074W        W76059  15.688  34.785  10.563
11075W        W76060  23.188   9.691   4.177
11076W        W76061  20.003  22.496  12.536
11077W        W76062  33.409  16.063   0.813
11078W        W76063  31.015   8.410   0.961
11079W        W76064   4.325  23.258  11.670
11080W        W76065  35.051  22.769   0.541
11081W        W76066  40.501  23.703   1.651
11082W        W76067  40.899  30.251   9.746
11083W        W76068  26.222  31.200  10.947
11084W        W76069  21.333   6.841   4.675
11085W        W76070   3.475  22.759   1.709
11086W        W76071   1.788  44.532  12.631
11087W        W76072  19.578   6.452   3.197
11088W        W76073  33.905  42.986   2.168
11089W        W76074  41.640  14.675  12.655
11090W        W76075  33.418  18.275   0.985
11091W        W76076  43.824  13.846  10.738
11092W        W76077  36.593   1.054   2.173
11093W        W76078  36.029  13.512  12.871
11094W        W76079  44.791  22.104   2.341
11095W        W76080  19.585  27.254   5.511
11096W        W76081  39.020  35.898   0.435
11097W        W76082   6.297  12.431  12.085
11098W        W76083   0.292   3.504   1.253
11099W        W76084  32.806  25.737  12.098
11100W        W76085  38.974  17.428  10.484
11101W        W76086  17.012  29.467  13.303
11102W        W76087  14.605  34.212   0.901
11103W        W76088   4.817  36.836   0.469
11104W        W76089   6.925  32.987  11.590
11105W        W76090  15.823  21.660   2.304
11106W        W76091  36.036  30.105   3.738
11107W        W76092  40.716  13.518  12.104
11108W        W76093  13.888   3.378  10.294
11109W        W76094  22.543  22.663   3.718
11110W        W76095  29.701  13.944   3.235
11111W        W76096   5.243  15.773  14.954
11112W        W76097  35.939   5.617  14.368
11113W        W76098   7.329   5.942  11.226
11114W        W76099  34.870  11.601   4.779
11115W        W76100  42.861  19.432  10.728
11116W        W76101   6.948  13.635  11.117
11117W        W76102   5.691   4.312  11.678
11118W        W76103  26.446  38.390  12.041
11119W        W76104  10.155   6.230  13.379
11120W        W76105  37.750  36.044  13.839
11121W        W76106  22.197  42.779   2.707
11122W        W76107  25.405  23.113   2.297
11123W        W76108  10.221  26.643  13.031
11124W        W76109  24.758   5.495  12.842
11125W        W76110  36.060   3.198   1.278
11126W        W76111  37.371  20.477   1.947
11127W        W76112  41.686  15.276  12.512
11128W        W76113  44.647  34.607  10.785
11129W        W76114  13.036   7.169  10.404
11130W        W76115  36.937  22.761   1.843
11131W        W76116  14.555   7.150   4.683
11132W        W76117  24.207  11.818  14.965
11133W        W76118  25.317  34.507   2.292
11134W        W76119  31.503  30.314   0.868
11135W        W76120  23.175   8.794  11.104
11136W        W76121   0.042  14.565   1.675
11137W        W76122  23.062  35.094  12.651
11138W        W76123  43.103  17.511  13.850
11139W        W76124   9.375   5.155  13.021
11140W        W76125  39.548  10.801  12.688
11141W        W76126  11.948   5.903  13.998
11142W        W76127  24.152  26.223  14.744
11143W        W76128   8.287  39.900   2.909
11144W        W76129   0.340  20.565  13.452
11145W        W76130  23.938  20.794   4.143
11146W        W76131  30.810  33.095   3.156
11147W        W76132   4.723  41.029  12.984
11148W        W76133  36.460   9.159   3.513
11149W        W76134  13.583   5.910  11.971
11150W        W76135  33.790  37.133   1.783
11151W        W76136  11.258  17.718   4.497
11152W        W76137   3.107  24.720   2.276
11153W        W76138  19.831  42.566  12.077
11154W        W76139  35.453   9.322  13.576
11155W        W76140   4.094   2.299   4.315
11156W        W76141  15.713  32.498   4.481
11157W        W76142  36.537  11.182   3.628
11158W        W76143  40.341   3.671   3.667
11159W        W76144  28.365  31.874   4.908
11160W        W76145   2.813  17.304   0.560
11161W        W76146  25.564  37.368  13.402
11162W        W76147  39.113  24.567   0.950
11163W        W76148  10.262  14.549   4.175
11164W        W76149  13.693   4.533  13.379
11165W        W76150  40.425   6.867  11.446
11166W        W76151  41.352  10.909  11.196
11167W        W76152   9.285  23.050  10.747
11168W        W76153  39.542  37.662   0.708
11169W        W76154  16.665   8.225   4.535
11170W        W76155  34.422   0.740   0.721
11171W        W76156  21.526  16.750  10.331
11172W        W76157  36.602  25.545  14.093
11173W        W76158  10.099   5.715   2.681
11174W        W76159  33.399   8.567  12.215
11175W        W76160  16.770  10.890  13.560
11176W        W76161  34.653  31.817   1.738
11177W        W76162  29.224  30.897  13.111
11178W        W76163  14.369  16.494  14.882
11179W        W76164  38.257  13.408   4.303
11180W        W76165   2.515  42.390  12.453
11181W        W76166  39.006   5.519   4.694
11182W        W76167   4.896  37.815   0.291
11183W        W76168   3.555  33.496   4.665
11184W        W76169  34.793   1.177   4.869
11185W        W76170  30.585  23.697  10.696
11186W        W76171  32.927  35.848   1.300
11187W        W76172  32.570  14.819   3.486
11188W        W76173   3.024  14.678   0.276
11189W        W76174   5.790  37.639   2.701
11190W        W76175  23.625  36.644   4.664
11191W        W76176  43.702  34.176   3.208
11192W        W76177  40.900   1.518   1.421
11193W        W76178  31.322  15.629  12.589
11194W        W76179  29.381  13.253  12.043
11195W        W76180  11.345  37.027  12.469
11196W        W76181  36.361  17.048  13.680
11197W        W76182  39.117  30.510   1.363
11198W        W76183   8.647  11.187  13.425
11199W        W76184  21.208  38.139   4.564
11200W        W76185  21.930   5.394   0.406
11201W        W76186  19.315   0.894   3.126
11202W        W76187  34.892  36.438  11.005
11203W        W76188   6.530  29.034  10.688
11204W        W76189  27.696  13.582  12.399
11205W        W76190   8.360  13.665   1.219
11206W        W76191  31.453  12.148   0.922
11207W        W76192  12.633   4.391  14.821
11208W        W76193   8.925  44.465  14.936
11209W        W76194  30.177  41.095   4.679
11210W        W76195   8.416  35.657  10.552
11211W        W76196   0.285  37.054   4.080
11212W        W76197   4.905   8.126   0.420
11213W        W76198   2.292  43.870  13.858
11214W        W76199  19.600  10.389   2.298
11215W        W76200  40.481  36.089  12.988
11216W        W76201  24.964   0.023   1.901
11217W        W76202  36.454  14.220  10.652
11218W        W76203  36.843  26.595   1.806
11219W        W76204  17.402  14.549  11.137
11220W        W76205  39.419  33.629  10.851
11221W        W76206  35.447   6.778   1.267
11222W        W76207  34.838  17.027  12.074
11223W        W76208  40.823   9.765   3.070
11224W        W76209   8.864  14.681  11.136
11225W        W76210  44.913  23.993  12.854
11226W        W76211   3.494  20.136  12.979
11227W        W76212  22.321   5.572   0.829
11228W        W76213  12.649   5.286  11.488
11229W        W76214   1.734  27.040  10.776
11230W        W76215   7.418  32.896  11.429
11231W        W76216  44.219   1.375  12.894
11232W        W76217  21.809  20.610  14.050
11233W        W76218  37.903  16.300   2.305
11234W        W76219   8.276  39.481  12.618
11235W        W76220  31.470  24.469   4.189
11236W        W76221   7.370  36.000  13.382
11237W        W76222  28.659  11.213  12.975
11238W        W76223  22.104  38.113   1.453
11239W        W76224  34.556  19.260  10.640
11240W        W76225  31.211  31.153   4.110
11241W        W76226  37.590  26.866   1.684
11242W        W76227  14.829  23.806  11.185
11243W        W76228  18.713  44.226   3.254
11244W        W76229   6.183  36.452  14.385
11245W        W76230  34.364  22.022   1.446
11246W        W76231  17.247  24.054  13.319
11247W        W76232   4.020  11.933   2.150
11248W        W76233   7.743  23.748   4.039
11249W        W76234  10.462  34.210   1.922
11250W        W76235  14.602  44.960   1.636
11251W        W76236  14.343  40.275  11.628
11252W        W76237  22.705  22.647  11.852
11253W        W76238  26.160  35.108   1.289
11254W        W76239  16.005   5.146  14.486
11255W        W76240  32.096  39.620   2.224
11256W        W76241  23.416  32.375  13.879
11257W        W76242  32.459   5.097   1.371
11258W        W76243  29.324  17.185   1.312
11259W        W76244  13.706  30.554   0.693
11260W        W76245   5.811  40.457  14.501
11261W        W76246  14.811  10.730   2.241
11262W        W76247  10.815   7.945  13.359
11263W        W76248  20.824  32.987  13.489
11264W        W76249  25.208  23.807  14.821
11265W        W76250  41.075   8.256  10.599
11266W        W76251  16.641  12.888   0.311
11267W        W76252  27.914  16.677  12.373
11268W        W76253  24.596  38.942   4.178
11269W        W76254  38.477  26.927   3.328
11270W        W76255  22.695  17.151  10.794
11271W        W76256  12.672  18.652   1.748
11272W        W76257  27.180  34.103   4.592
11273W        W76258  20.565  40.285   1.898
11274W        W76259  35.832  42.648  14.458
11275W        W76260  32.071  27.308  13.020
11276W        W76261  12.173  20.184  12.951
11277W        W76262   0.821   5.371  12.892
11278W        W76263  41.380  35.270   3.214
11279W        W76264  35.886  44.342   1.407
11280W        W76265   6.820  20.268   4.175
11281W        W76266  17.623  32.934   0.350
11282W        W76267  25.125  14.173  10.982
11283W        W76268   1.853  13.075  14.112
11284W        W76269  21.226  41.989  11.742
11285W        W76270   6.953  36.973   2.947
11286W        W76271   7.337  19.699   2.628
11287W        W76272  41.506  33.548   3.236
11288W        W76273  34.809  39.626   1.381
11289W        W76274  42.887  20.666  13.857
11290W        W76275  26.879   9.776   0.182
11291W        W76276  27.450   4.806  12.029
11292W        W76277  22.088  38.988   1.670
11293W        W76278   4.482  13.856   0.478
11294W        W76279  12.384  11.812   0.311
11295W        W76280  17.723  41.385  14.466
11296W        W76281  11.826  44.981   3.806
11297W        W76282  11.776  18.417   1.878
11298W        W76283  42.667   1.737   3.763
11299W        W76284  11.108  40.049  12.980
11300W        W76285  33.928   1.286   4.283
11301W        W76286  13.368  40.510   4.958
11302W        W76287  24.745   0.747   0.894
11303W        W76288  27.801  27.417   9.894
11304W        W76289  10.730   7.870   2.092
11305W        W76290  31.716  32.403  11.588
11306W        W76291   7.264   4.069   9.937
11307W        W76292  17.516  14.034  11.059
11308W        W76293  18.015   9.229  10.531
11309W        W76294   0.047  23.495  11.484
11310W        W76295   4.823   0.776   2.922
11311W        W76296  31.498  17.896   0.190
11312W        W76297  30.716   8.740   1.279
11313W        W76298  29.696   7.727   0.015
11314W        W76299  10.246   8.726   3.643
11315W        W76300  24.467   1.739  14.240
11316W        W76301  11.617  28.661  13.480
11317W        W76302  40.478  16.282   3.577
11318W        W76303  10.369  11.589   2.605
11319W        W76304  18.252  39.698   3.101
11320W        W76305  19.123  37.333  10.422
11321W        W76306  10.924  38.330  11.132
11322W        W76307   8.893  29.165   2.216
11323W        W76308  24.044   2.454   1.960
11324W        W76309  34.408  25.012  11.557
11325W        W76310   5.780  29.470   0.359
11326W        W76311  32.040  41.850   0.732
11327W        W76312  18.070  23.169  14.941
11328W        W76313   3.643  23.774  12.028
11329W        W76314  12.401  29.904   2.945
11330W        W76315  14.861  32.148  12.145
11331W        W76316   3.687  33.513  14.228
11332W        W76317   8.838   5.512   0.341
11333W        W76318   0.241  14.790  11.586
11334W        W76319   4.042   3.933  13.801
11335W        W76320  37.008  17.774   1.201
11336W        W76321  39.787  11.904   1.904
11337W        W76322  37.039  36.593  14.321
11338W        W76323  29.129   0.920  14.378
11339W        W76324  38.342   8.205  13.411
11340W        W76325  37.532  32.956   3.300
11341W        W76326  23.407   3.354  14.676
11342W        W76327  22.082  13.116   1.915
11343W        W76328  33.102  37.602   3.134
11344W        W76329  20.502   4.802   3.261
11345W        W76330  14.746  13.794   4.836
11346W        W76331   2.043  28.970  12.820
11347W        W76332  27.105  39.225   0.086
11348W        W76333  17.819  40.704   3.285
11349W        W76334  21.166  22.501   1.690
11350W        W76335   0.177  30.538  14.508
11351W        W76336  37.527   6.793   1.300
11352W        W76337  31.128  14.309  11.998
11353W        W76338  11.195   9.628  10.532
11354W        W76339  22.913  23.051   3.744
11355W        W76340  32.367  28.009   5.000
11356W        W76341  31.891  36.285   4.876
11357W        W76342  10.449  30.095   4.146
11358W        W76343  41.058  33.429  12.952
11359W        W76344  41.090  40.878  13.841
11360W        W76345   7.084  14.765  13.662
11361W        W76346  23.974  38.043  12.010
11362W        W76347  16.584  22.222   4.616
11363W        W76348  43.384  43.569  13.966
11364W        W76349  23.797  30.060  14.900
11365W        W76350   3.943  22.279   4.002
11366W        W76351  10.387  33.202   0.748
11367W        W76352   7.950  37.505  13.478
11368W        W76353  19.713   8.830  14.910
11369W        W76354  25.245  21.809  14.715
11370W        W76355   6.612  37.294   2.667
11371W        W76356  34.766  32.310   3.639
11372W        W76357  19.703   4.938  10.104
11373W        W76358  20.421  22.189  14.977
11374W        W76359   1.232   2.346   2.567
11375W        W76360  25.641   4.942  12.599
11376W        W76361   9.583  32.750   2.286
11377W        W76362  17.374   7.051   3.513
11378W        W76363  17.077   6.704   3.253
11379W        W76364  39.417  18.512   2.875
11380W        W76365   9.139   2.421   2.245
11381W        W76366   1.776  42.291  14.955
11382W        W76367  32.432  24.194   0.276
11383W        W76368  34.669  23.604   1.426
11384W        W76369  18.377   3.379  11.230
11385W        W76370  16.749  19.150  12.078
11386W        W76371  34.416  40.508  13.902
11387W        W76372  22.451   8.303  13.444
11388W        W76373  31.003  14.876   2.671
11389W        W76374   0.263  32.890  14.977
11390W        W76375  25.642   0.240   4.666
11391W        W76376   5.615  13.199   0.961
11392W        W76377  35.800  39.062  10.576
11393W        W76378  28.004  32.486  12.172
11394W        W76379  23.775  15.211   4.524
11395W        W76380  26.327  42.451  14.453
11396W        W76381  31.688  38.921   4.088
11397W        W76382  13.717   1.667  11.797
11398W        W76383  11.729  28.708   3.199
11399W        W76384  40.839   1.314  12.032
11400W        W76385  23.177  33.929   4.140
11401W        W76386  34.762  43.064   0.323
11402W        W76387   0.807   1.234  10.768
11403W        W76388  10.159   7.233  14.099
11404W        W76389  26.465  33.099  10.193
11405W        W76390  13.239  34.209   4.249
11406W        W76391  16.863  25.590   0.688
11407W        W76392  32.826  11.045  14.866
11408W        W76393  30.122  32.592   9.804
11409W        W76394   3.988  20.612   0.328
11410W        W76395  15.760  33.052  11.977
11411W        W76396  22.071  38.498   3.703
11412W        W76397  16.896  15.642  10.605
11413W        W76398  13.262  15.539   9.808
11414W        W76399   4.256   4.336  12.370
11415W        W76400  32.361  31.583   4.521
11416W        W76401  30.713  40.927  12.640
11417W        W76402  11.263  18.738  14.021
11418W        W76403  13.203   6.492  12.709
11419W        W76404   9.154  10.793   1.165
11420W        W76405   5.852   4.915  12.538
11421W        W76406  15.155  13.579   2.691
11422W        W76407  22.848  21.136   1.797
11423W        W76408   7.630  31.325  12.013
11424W        W76409   8.727  34.947   0.078
11425W        W76410  31.052   0.626  14.276
11426W        W76411  28.914  10.559   4.131
11427W        W76412  10.901  12.100   4.135
11428W        W76413  28.460  44.534   1.405
11429W        W76414  16.411  28.793   5.353
11430W        W76415  24.797  30.881   0.082
11431W        W76416  26.040  41.024   3.657
11432W        W76417  35.034  31.329   3.280
11433W        W76418  40.688   6.380   2.643
11434W        W76419  19.478  14.764  13.602
11435W        W76420  19.528  37.478  14.990
11436W        W76421  20.235  41.159   0.835
11437W        W76422  34.463  31.136   4.263
11438W        W76423  40.950  26.689  13.311
11439W        W76424   5.735  43.871  14.040
11440W        W76425  19.040  39.883  14.807
11441W        W76426   2.222   3.435  11.854
11442W        W76427   4.839  43.120  13.452
11443W        W76428   7.340  27.473  13.023
11444W        W76429  43.937  13.234  14.833
11445W        W76430  37.621  14.659   1.911
11446W        W76431  41.536   2.359   4.545
11447W        W76432  28.583  21.982   0.383
11448W        W76433  33.036  31.144   4.223
11449W        W76434  42.779  24.449   3.186
11450W        W76435  38.634   9.879  14.982
11451W        W76436   4.267   4.908   5.453
11452W        W76437  15.796   3.212   3.609
11453W        W76438   3.943  25.466  14.554
11454W        W76439  37.463  42.772  13.862
11455W        W76440   4.412  32.002   0.243
11456W        W76441  29.753  10.841   1.249
11457W        W76442  16.033  44.444   0.836
11458W        W76443   1.672  40.313   3.535
11459W        W76444  29.666  20.495  13.005
11460W        W76445   8.819  44.907  14.273
11461W        W76446  17.757  21.456   2.282
11462W        W76447  22.212  19.687   2.624
11463W        W76448  39.108  16.800  12.512
11464W        W76449  12.379  14.549  14.397
11465W        W76450  18.968  14.621  13.498
11466W        W76451  39.074  27.533   3.113
11467W        W76452  26.884  24.966  11.011
11468W        W76453   8.818  31.501  10.478
11469W        W76454  17.138   1.063  10.088
11470W        W76455  12.754  11.427  11.227
11471W        W76456  31.172  19.598   2.088
11472W        W76457  36.875   4.169   2.293
11473W        W76458  12.335  35.934   4.769
11474W        W76459  32.628  39.475   4.795
11475W        W76460  38.776   7.803   2.013
11476W        W76461  17.564  41.852  13.486
11477W        W76462  10.046   6.693  10.266
11478W        W76463   2.520  22.006  12.567
11479W        W76464  43.561  42.856  13.445
11480W        W76465  17.291   9.775  12.994
11481W        W76466  15.022  39.339   0.727
11482W        W76467  23.034  32.610  12.356
11483W        W76468  14.734  19.321   2.279
11484W        W76469  41.454  30.949   4.143
11485W        W76470   0.382  33.918  13.188
11486W        W76471  10.087  10.747   0.930
11487W        W76472  30.140  30.236   4.109
11488W        W76473  12.151   3.929   4.936
11489W        W76474  23.579  15.733   3.335
11490W        W76475  24.021  41.521  12.948
11491W        W76476  31.366   8.178  13.587
11492W        W76477   2.429   0.561  11.830
11493W        W76478  40.380   0.300  11.228
11494W        W76479  38.419   2.366  11.906
11495W        W76480   4.209  33.622   0.889
11496W        W76481  31.843   0.197   3.432
11497W        W76482  36.522  39.764  10.407
11498W        W76483   8.695  12.339  12.405
11499W        W76484   6.397  28.089   2.227
11500W        W76485   2.237  30.965  11.026
11501W        W76486   6.814   7.743   2.602
11502W        W76487  29.138  22.546   2.336
11503W        W76488  43.287  26.644  11.082
11504W        W76489   0.377  15.508  11.116
11505W        W76490  30.977  36.396  10.655
11506W        W76491  44.048  14.830  13.956
11507W        W76492  40.889  25.942   4.231
11508W        W76493  43.721  40.851  11.814
11509W        W76494   6.157  17.639   3.693
11510W        W76495  22.772  15.568  12.395
11511W        W76496  31.601  27.484   0.433
11512W        W76497   9.838   4.407  10.913
11513W        W76498  40.113  41.357   0.820
11514W        W76499  20.714   0.209  13.855
11515W        W76500  32.674  30.153   2.151
11516W        W76501  35.529  14.696   0.428
11517W        W76502  31.245  16.357   0.207
11518W        W76503  11.191  34.309   1.955
11519W        W76504   4.321  33.270   1.261
11520W        W76505  39.255  17.318  11.977
11521W        W76506  11.534  28.352   1.844
11522W        W76507  27.721  33.063   2.962
11523W        W76508   9.546  14.836   1.802
11524W        W76509  41.039   9.223   1.890
11525W        W76510  22.993  18.731  13.523
11526W        W76511  26.208  43.470   9.887
11527W        W76512   6.697  25.990  14.840
11528W        W76513  24.152  42.931   3.194
11529W        W76514  42.259  15.755   1.360
11530W        W76515  14.535  17.177  11.114
11531W        W76516  41.862  43.002   5.104
11532W        W76517  36.413   6.329   0.398
11533W        W76518  35.138  40.407   2.251
11534W        W76519  13.050   8.554  12.505
11535W        W76520  25.417  37.061   2.225
11536W        W76521  38.465  23.244   3.795
11537W        W76522  24.128  44.303   0.962
11538W        W76523  44.420  44.881   2.719
11539W        W76524  13.825  27.770  13.354
11540W        W76525  37.793  14.301  13.942
11541W        W76526  42.894  38.270   2.217
11542W        W76527   9.167  42.290   2.219
11543W        W76528  18.593  35.857   3.961
11544W        W76529  23.467   2.425   0.678
11545W        W76530   2.403  18.709   1.170
11546W        W76531   7.944  42.004   4.653
11547W        W76532  11.304  18.665  12.207
11548W        W76533  11.801  30.355  13.889
11549W        W76534  11.387   8.588  10.611
11550W        W76535  41.759  28.615   1.853
11551W        W76536  24.084  25.195  13.148
11552W        W76537  33.426   1.915  10.661
11553W        W76538   6.185  39.506   1.831
11554W        W76539  34.215  16.176   0.923
11555W        W76540  36.909   4.841   2.703
11556W        W76541  11.608  31.617  12.060
11557W        W76542   0.929  40.520   4.527
11558W        W76543  28.783  21.024  11.616
11559W        W76544  11.334  28.660   4.248
11560W        W76545   6.310  31.848  10.420
11561W        W76546  24.147   4.554  14.039
11562W        W76547  38.544  25.580  12.859
11563W        W76548  42.929  13.413  11.971
11564W        W76549  44.283  33.223   2.515
11565W        W76550  30.508  20.592   3.771
11566W        W76551  12.834  27.444  10.252
11567W        W76552   9.949  12.379  14.506
11568W        W76553  25.436  29.653  12.899
11569W        W76554  36.798  21.870   4.047
11570W        W76555   7.927   3.734   1.935
11571W        W76556  12.595   6.166   1.136
11572W        W76557  32.545  12.607   5.084
11573W        W76558  24.572  21.085   3.731
11574W        W76559  21.015   0.906   2.479
11575W        W76560  15.637  22.502   0.809
11576W        W76561   6.040  39.123  10.473
11577W        W76562  33.494  40.065   1.697
11578W        W76563  12.609  35.994   1.010
11579W        W76564   4.861   0.377  10.648
11580W        W76565  30.184  20.847  13.837
11581W        W76566  30.381   9.666   1.524
11582W        W76567   2.000  30.485  14.444
11583W        W76568  24.396  41.661   1.360
11584W        W76569  40.332  39.459   4.132
11585W        W76570  34.272  26.719  12.640
11586W        W76571   5.117  16.154   0.817
11587W        W76572  26.559   5.140  12.431
11588W        W76573  44.959  40.886   4.569
11589W        W76574  25.035  36.306  11.268
11590W        W76575  30.359  22.618   2.732
11591W        W76576  18.282   7.403   4.003
11592W        W76577  40.080  11.586  12.453
11593W        W76578  35.879  21.214   2.589
11594W        W76579  37.404  44.495   4.885
11595W        W76580   2.944  40.743  12.133
11596W        W76581  33.181  17.706  14.067
11597W        W76582  33.614  15.084  14.083
11598W        W76583  20.243  44.309  13.963
11599W        W76584  41.329  39.061  11.491
11600W        W76585   9.022  35.004   2.358
11601W        W76586  25.735  37.147   4.066
11602W        W76587  25.156  37.276  14.356
11603W        W76588  11.387  25.196   4.198
11604W        W76589  10.103   8.184   0.525
11605W        W76590  44.379  33.169   0.828
11606W        W76591  14.776  17.502   0.325
11607W        W76592  32.657  40.569   4.377
11608W        W76593  43.012   1.788  11.576
11609W        W76594  23.544  39.710   2.832
11610W        W76595  14.789   6.187  13.052
11611W        W76596  33.188  11.140   4.240
11612W        W76597   3.071  44.821   3.279
11613W        W76598  11.187  31.235  10.650
11614W        W76599  43.560  13.338   2.710
11615W        W76600  44.561  37.002   4.849
11616W        W76601  15.221  19.690   4.764
11617W        W76602   1.590  14.624  11.212
11618W        W76603   8.919  15.854   2.656
11619W        W76604   4.008  23.629   4.005
11620W        W76605  19.745  15.696  11.171
11621W        W76606  28.317  11.356  12.113
11622W        W76607  31.216  21.201  14.768
11623W        W76608  31.310  19.378  14.318
11624W        W76609  28.553  29.455   2.834
11625W        W76610  34.010  22.104   2.066
11626W        W76611  43.525  15.201  12.182
11627W        W76612  30.579  25.702   1.899
11628W        W76613   2.765  11.247  11.059
11629W        W76614  32.483  27.704   1.426
11630W        W76615  41.821   4.643   0.245
11631W        W76616   1.319  21.172   2.333
11632W        W76617  21.813  37.401   2.793
11633W        W76618  34.500  41.385  14.965
11634W        W76619  10.115   1.868  14.840
11635W        W76620   7.495   5.975  10.742
11636W        W76621  21.934  32.234   5.119
11637W        W76622  21.691  31.495   1.403
11638W        W76623  10.166  13.745   0.839
11639W        W76624   8.347  39.913  11.391
11640W        W76625  17.235  24.878   4.618
11641W        W76626   8.661  19.536  10.834
11642W        W76627   9.834  17.904   1.861
11643W        W76628   4.816  10.536   2.732
11644W        W76629   5.178   4.557  11.575
11645W        W76630  21.765  14.817   4.723
11646W        W76631  31.330  12.217  12.910
11647W        W76632  28.266   3.443  14.394
11648W        W76633   3.387  37.879   4.392
11649W        W76634  24.401   2.952   1.274
11650W        W76635   1.935   8.565   4.337
11651W        W76636  20.254   7.690   2.303
11652W        W76637  44.009  21.658   0.521
11653W        W76638   8.648   4.277  13.999
11654W        W76639  17.221  37.348  10.740
11655W        W76640  37.301  10.540  10.952
11656W        W76641  11.180  34.918  11.809
11657W        W76642   9.760  30.673  13.281
11658W        W76643  29.393   3.925  14.982
11659W        W76644  29.526  41.283   2.486
11660W        W76645   6.874  10.102   3.695
11661W        W76646  33.917  29.263   1.409
11662W        W76647  23.551  38.986   0.942
11663W        W76648  33.632  23.644   3.580
11664W        W76649  13.031  40.705   0.538
11665W        W76650  16.666  19.235   4.646
11666W        W76651  39.584  32.567   3.205
11667W        W76652   9.611  13.695  13.802
11668W        W76653   2.585  19.740   4.668
11669W        W76654  13.608  10.145   3.670
11670W        W76655  19.942  41.256  14.904
11671W        W76656  33.306  11.096   0.029
11672W        W76657  33.475  36.434   0.774
11673W        W76658  25.375   2.867  10.248
11674W        W76659  14.505  25.388  13.007
11675W        W76660  16.729   0.281   4.135
11676W        W76661   8.243   9.262  14.825
11677W        W76662   7.084   2.722   0.770
11678W        W76663  34.536  25.686  13.527
11679W        W76664  21.046  19.684  11.644
11680W        W76665  38.783  21.612   3.029
11681W        W76666  27.614  44.269   0.025
11682W        W76667  10.297   9.488  11.604
11683W        W76668  13.646  32.537   2.636
11684W        W76669  12.535  33.278   2.748
11685W        W76670  24.608  15.705  11.804
11686W        W76671   8.588  24.177   0.891
11687W        W76672   8.467  29.003  14.506
11688W        W76673  19.000  10.134  12.006
11689W        W76674  29.352   5.971   2.130
11690W        W76675  22.663  19.853  13.581
11691W        W76676   8.827   0.758   3.268
11692W        W76677   5.790  34.045   1.691
11693W        W76678   2.257  20.117   0.304
11694W        W76679   1.037  29.453  10.545
11695W        W76680   0.854   1.209  12.912
11696W        W76681  42.840   1.335  11.202
11697W        W76682   8.089  37.894  13.767
11698W        W76683  41.164  30.382  13.539
11699W        W76684  19.823  25.076   1.238
11700W        W76685  27.538  22.760  13.568
11701W        W76686  43.800  41.534  13.033
11702W        W76687  37.861  14.922   4.082
11703W        W76688   7.365  10.638  13.743
11704W        W76689   8.211  41.421  14.796
11705W        W76690   6.856   8.044   0.060
11706W        W76691   0.445  41.466  11.939
11707W        W76692  14.955  42.907  10.388
11708W        W76693  11.460  22.077   0.461
11709W        W76694   3.546  29.508   4.203
11710W        W76695  41.186  27.094  13.514
11711W        W76696  29.266  40.545   2.098
11712W        W76697  43.743  30.249  12.610
11713W        W76698   8.339  21.509   1.360
11714W        W76699  23.103  42.420   4.474
11715W        W76700  25.575  31.447  13.730
11716W        W76701  33.587  21.968  14.764
11717W        W76702  17.691   6.721   2.613
11718W        W76703  24.293  17.368  11.606
11719W        W76704  35.945  18.600  12.347
11720W        W76705  27.683  36.271   4.250
11721W        W76706   6.107  42.913   0.860
11722W        W76707   4.353  42.361   4.236
11723W        W76708  13.080  29.084  14.492
11724W        W76709  15.698  42.662  11.129
11725W        W76710   0.407  18.692  14.507
11726W        W76711   0.457  35.535  12.504
11727W        W76712  10.747  20.036   2.341
11728W        W76713  38.809  16.645   9.904
11729W        W76714  27.373  16.211  12.737
11730W        W76715  29.610   5.850  14.419
11731W        W76716  18.729  27.688   0.927
11732W        W76717   0.816  14.053  12.194
11733W        W76718   2.531  28.517  10.606
11734W        W76719  30.071   8.017  13.998
11735W        W76720  19.320   6.954  13.597
11736W        W76721   0.173  35.833   2.802
11737W        W76722  20.809  30.541  14.952
11738W        W76723  38.378  27.275   3.696
11739W        W76724   3.402  13.627   2.934
11740W        W76725   4.669  20.079  14.987
11741W        W76726  35.860  15.437  14.976
11742W        W76727   9.679  34.325   1.342
11743W        W76728   8.339  39.226  13.656
11744W        W76729   2.933   7.696  10.746
11745W        W76730  33.769  22.365   3.479
11746W        W76731  35.619  14.876   0.911
11747W        W76732  38.861  23.435   4.114
11748W        W76733  23.383   8.818  10.266
11749W        W76734  23.964  16.340   4.074
11750W        W76735  20.027  29.926  14.058
11751W        W76736  29.630   9.398   0.241
11752W        W76737  41.872  32.590   0.293
11753W        W76738  35.535  36.142   0.035
11754W        W76739  25.454  27.636  13.391
11755W        W76740  26.701   5.494  13.299
11756W        W76741  16.497  17.725   0.270
11757W        W76742  40.973  30.531  14.519
11758W        W76743  24.304  10.889  12.630
11759W        W76744  36.432  38.318   3.416
11760W        W76745  10.680  44.348  11.687
11761W        W76746  23.998   6.870  12.251
11762W        W76747  19.085  23.678   4.496
11763W        W76748   5.481  25.292   4.227
11764W        W76749   3.574  31.825   0.757
11765W        W76750  31.383  27.416  12.560
11766W        W76751  27.201   6.175   2.156
11767W        W76752   1.896  16.357   4.103
11768W        W76753  30.403  29.845  13.097
11769W        W76754  21.843  20.658  12.116
11770W        W76755  42.750  13.293   4.076
11771W        W76756   7.880  15.102   4.234
11772W        W76757  30.963  32.661   0.791
11773W        W76758  42.830  19.300  12.120
11774W        W76759   0.365  39.371   4.397
11775W        W76760   7.676  43.801  12.576
11776W        W76761  31.644  21.234   3.674
11777W        W76762  21.202  18.488   2.068
11778W        W76763  15.272  28.749  14.852
11779W        W76764  24.108  17.644  10.885
11780W        W76765  15.340  35.687  14.995
11781W        W76766  29.203   8.749   3.553
11782W        W76767   5.375  27.457   4.861
11783W        W76768  44.766   5.514  14.322
11784W        W76769   6.741  29.861   3.817
11785W        W76770  36.048  29.181  14.379
11786W        W76771   2.610  29.110   1.519
11787W        W76772  32.124  21.452   0.366
11788W        W76773  43.388  41.004   4.936
11789W        W76774  20.631  35.419   4.153
11790W        W76775  13.336  21.014   1.852
11791W        W76776   3.480  20.391  10.240
11792W        W76777  27.564   3.487   1.388
11793W        W76778  27.166  31.406   3.154
11794W        W76779  42.359  15.272  11.500
11795W        W76780  35.402  44.151   2.294
11796W        W76781  41.618  38.323  14.133
11797W        W76782  21.267   9.617   0.236
11798W        W76783  35.853  40.875   3.780
11799W        W76784  14.706  13.637  14.187
11800W        W76785  12.211   6.442   1.383
11801W        W76786  15.064  21.581  12.149
11802W        W76787  44.428   1.730  14.454
11803W        W76788  12.421  31.920   1.388
11804W        W76789   9.151  31.340  13.058
11805W        W76790  16.156  22.278   0.789
11806W        W76791  11.129  11.149   1.246
11807W        W76792  34.405   7.185  14.335
11808W        W76793  34.446  44.430  14.319
11809W        W76794   0.711   3.036  12.125
11810W        W76795   8.908  19.340  14.532
11811W        W76796  10.400  32.530   3.176
11812W        W76797   9.455  41.976   4.121
11813W        W76798   5.352  14.382   1.360
11814W        W76799  40.973  16.297  13.016
11815W        W76800  32.866  10.818   1.680
11816W        W76801  16.821   6.642   2.790
11817W        W76802   4.049  42.582   0.328
11818W        W76803  31.455   9.765  12.554
11819W        W76804  44.854  31.486   3.370
11820W        W76805  16.270  12.118   1.332
11821W        W76806  23.256  44.528  13.568
11822W        W76807  25.728  21.275  14.149
11823W        W76808  23.659  38.140  11.619
11824W        W76809  33.170  29.380  12.035
11825W        W76810  17.782  44.510  12.992
11826W        W76811   7.225   6.674  13.034
11827W        W76812  22.809  27.734  10.112
11828W        W76813  29.916  32.100   5.578
11829W        W76814   1.248   2.983  12.895
11830W        W76815  42.495  40.094  11.631
11831W        W76816  11.707  38.800   4.022
11832W        W76817  38.943  30.350   0.269
11833W        W76818  44.301  20.317  12.197
11834W        W76819  20.948   8.321  14.823
11835W        W76820  16.798  10.844  14.110
11836W        W76821  44.689  40.272  13.039
11837W        W76822  38.591  20.792  12.939
11838W        W76823   7.777   3.160   4.963
11839W        W76824  18.372  32.157   3.799
11840W        W76825  11.260  34.608   3.382
11841W        W76826   5.743  11.274   0.673
11842W        W76827  36.664   0.448  14.387
11843W        W76828  44.741  17.925   4.038
11844W        W76829  32.414  35.980   3.154
11845W        W76830  41.374  21.732   0.501
11846W        W76831  17.225  26.168  13.875
11847W        W76832  24.109  11.660   2.772
11848W        W76833  11.615   4.463  14.960
11849W        W76834  29.584  40.312  12.054
11850W        W76835  37.460  33.638   4.204
11851W        W76836  38.620  13.909  10.988
11852W        W76837  39.752  12.789   1.788
11853W        W76838   5.293  27.361  11.116
11854W        W76839  30.527   9.468  10.508
11855W        W76840  32.122  33.113  11.157
11856W        W76841  16.907  22.484   1.926
11857W        W76842   9.292  29.019   1.203
11858W        W76843  29.689  38.444   0.317
11859W        W76844  14.763  34.431   4.216
11860W        W76845  23.787  14.039  12.945
11861W        W76846  14.246  13.028  13.843
11862W        W76847  13.577  14.810   2.655
11863W        W76848  39.287  37.996  11.487
11864W        W76849  41.766  20.367  13.367
11865W        W76850  38.414  38.035   3.390
11866W        W76851  33.075  18.115  12.392
11867W        W76852   8.653  38.857  12.753
11868W        W76853   2.401   5.717   0.571
11869W        W76854  16.491  18.294  13.552
11870W        W76855  34.548   4.890   4.229
11871W        W76856  11.341  29.387  12.566
11872W        W76857  23.309  32.501   4.570
11873W        W76858  23.470  10.699   1.866
11874W        W76859  13.831  35.012  12.190
11875W        W76860  30.026  30.563  10.802
11876W        W76861   7.685  10.693  12.053
11877W        W76862   3.610   1.120   4.928
11878W        W76863  35.895  17.246  13.398
11879W        W76864  11.641  39.533   1.773
11880W        W76865  16.799  22.218   3.293
11881W        W76866  23.205  37.905  10.726
11882W        W76867  41.079   4.861  13.377
11883W        W76868   2.757  41.660   2.350
11884W        W76869  10.318  23.693  13.521
11885W        W76870  12.718  17.780   2.764
11886W        W76871  35.393   4.214   3.326
11887W        W76872  43.702   8.392   4.877
11888W        W76873  25.550  16.790   4.505
11889W        W76874  37.063   4.003  12.529
11890W        W76875   4.861  30.546  12.124
11891W        W76876  42.418   1.951   0.082
11892W        W76877  15.083  28.570   0.307
11893W        W76878   0.498  36.860  12.063
11894W        W76879  40.605   9.020  13.658
11895W        W76880  27.082  16.146   4.734
11896W        W76881   2.449  43.754   0.082
11897W        W76882  12.762  44.932   0.222
11898W        W76883  24.792  34.426  13.328
11899W        W76884   9.047  10.212  12.065
11900W        W76885  37.020  19.081  14.592
11901W        W76886   1.523  27.144   1.881
11902W        W76887  29.446   8.478  10.416
11903W        W76888  34.813  40.731   0.230
11904W        W76889   7.580  10.118  14.885
11905W        W76890  16.577  17.790  13.695
11906W        W76891  15.467  14.574   0.913
11907W        W76892  44.852   5.370   4.650
11908W        W76893  32.748  35.571   3.124
11909W        W76894  27.726  10.732  14.990
11910W        W76895  30.166  43.479   1.699
11911W        W76896  17.649  20.611   1.267
11912W        W76897  27.198   2.439  13.365
11913W        W76898  12.621   4.190   3.780
11914W        W76899  30.678  41.864   5.103
11915W        W76900   7.243  10.130  11.590
11916W        W76901  28.807  28.868  14.184
11917W        W76902  24.665  39.869   3.241
11918W        W76903  38.309  19.047  13.477
11919W        W76904  30.980  20.539   3.534
11920W        W76905  18.100  29.898  13.073
11921W        W76906   0.036  40.685  12.932
11922W        W76907  30.917   6.399   1.359
11923W        W76908   3.849  42.921  13.833
11924W        W76909  17.563  18.653   3.504
11925W        W76910  23.310  26.087  14.736
11926W        W76911  37.490   0.343   1.729
11927W        W76912  44.317  32.049   3.279
11928W        W76913   4.976  40.545  13.043
11929W        W76914   6.044  32.605  14.762
11930W        W76915  43.120  41.763   4.108
11931W        W76916  20.639   3.252   0.243
11932W        W76917  33.563  17.165   2.733
11933W        W76918  19.907  17.818  12.139
11934W        W76919  42.738   5.354  12.023
11935W        W76920  20.034  34.651  12.500
11936W        W76921  36.085   1.317   0.965
11937W        W76922  30.684  37.444   2.610
11938W        W76923   6.373  12.797   2.335
11939W        W76924  16.510  25.076  11.972
11940W        W76925   2.389  25.050   2.399
11941W        W76926  33.607  36.645   1.864
11942W        W76927  25.164  32.145  10.822
11943W        W76928   6.855  28.215   0.993
11944W        W76929  16.393   4.929  14.769
11945W        W76930  25.756  28.112   3.981
11946W        W76931  21.871  26.443  14.334
11947W        W76932  39.070  39.161   4.065
11948W        W76933  11.953  21.113   2.621
11949W        W76934  32.943  31.163  10.598
11950W        W76935  21.317  10.407  11.206
11951W        W76936  29.556  18.443  14.004
11952W        W76937   5.073  30.312  10.849
11953W        W76938  39.286  17.550  13.506
11954W        W76939  22.756  41.532  12.113
11955W        W76940  32.672  24.997   0.991
11956W        W76941  30.049  26.357  11.210
11957W        W76942  22.283  25.597  11.486
11958W        W76943  26.104  25.070  10.686
11959W        W76944  24.844   9.514  14.410
11960W        W76945  15.133  35.378  11.193
11961W        W76946   7.651  23.909   4.520
11962W        W76947  40.828  20.613  12.018
11963W        W76948   1.465   4.397   3.737
11964W        W76949  27.014   1.780  10.830
11965W        W76950  11.673  22.493   0.702
11966W        W76951  43.787  22.670   1.721
11967W        W76952  15.821  17.618   4.578
11968W        W76953  24.546   2.316   2.115
11969W        W76954  33.168  44.034   2.315
11970W        W76955  11.717  44.445  13.106
11971W        W76956  28.493  12.600  14.395
11972W        W76957  31.888  31.100  13.501
11973W        W76958   1.886   3.180   5.229
11974W        W76959   0.730   1.442   2.952
11975W        W76960  31.065  33.455  11.562
11976W        W76961  28.677  32.520  12.698
11977W        W76962  37.552  23.159  13.342
11978W        W76963  26.462  16.035   3.216
11979W        W76964  10.836  39.331   3.537
11980W        W76965  40.420  30.083  11.064
11981W        W76966   8.433  24.156  12.785
11982W        W76967  12.761   4.374  11.567
11983W        W76968   2.588  41.881   3.089
11984W        W76969   8.263  28.245   4.910
11985W        W76970   4.040  17.493  14.096
11986W        W76971  11.396  41.914   1.310
11987W        W76972   1.602  28.428  14.846
11988W        W76973   5.095  33.567   2.660
11989W        W76974  13.266  34.685   0.994
11990W        W76975  31.313  16.700   1.208
11991W        W76976  27.912  35.736  12.503
11992W        W76977  15.702  28.123  14.376
11993W        W76978   5.833  19.643  14.525
11994W        W76979  42.338  11.424   2.271
11995W        W76980   7.310  37.651  10.346
11996W        W76981  39.870  19.705  10.628
11997W        W76982  39.383  13.621  12.036
11998W        W76983  17.152  21.090  14.843
11999W        W76984  28.431  23.961   1.124
12000W        W76985  17.791  35.423  12.660
12001W        W76986  13.055  29.361   2.848
12002W        W76987   0.035  14.148   0.754
12003W        W76988   4.155  34.895   3.913
12004W        W76989   2.836  42.002  12.971
12005W        W76990  22.841  36.870  13.884
12006W        W76991   8.754   1.842   3.749
12007W        W76992  30.256  36.599   2.749
12008W        W76993  19.802  25.467  12.115
12009W        W76994  43.256  41.855  13.721
12010W        W76995  42.996  33.847  12.844
12011W        W76996  31.623  18.620   4.640
12012W        W76997  42.046  42.420  13.041
12013W        W76998  36.449  16.566   3.906
12014W        W76999   3.697  40.017  13.953
12015W        W77000   8.277  31.938   2.631
12016W        W77001  22.425   7.677  11.992
12017W        W77002  39.624  38.859   3.912
12018W        W77003  13.070  19.137   3.257
12019W        W77004  40.342  38.116  14.058
12020W        W77005   0.201  38.453   4.014
12021W        W77006  15.657  18.813   0.318
12022W        W77007  28.065  38.299   2.802
12023W        W77008  19.235   7.344   0.853
12024W        W77009  19.955  12.368  14.249
12025W        W77010   0.494  14.825  14.576
12026W        W77011  25.060  21.080   0.248
12027W        W77012  34.092  41.464  11.233
12028W        W77013   2.828   0.356   2.575
12029W        W77014  13.200  43.562   0.418
12030W        W77015  20.480  30.962  13.719
12031W        W77016   7.753  25.630   3.634
12032W        W77017   4.683   3.933   0.526
12033W        W77018  33.740  19.264   4.193
12034W        W77019  41.349  18.284   4.604
12035W        W77020  33.898  34.471  10.780
12036W        W77021  20.590  14.698   4.114
12037W        W77022  21.303  40.873  12.949
12038W        W77023  25.660  35.942  10.769
12039W        W77024   8.391  29.167   2.191
12040W        W77025   9.052  16.567   1.961
12041W        W77026  20.036  17.170  13.352
12042W        W77027  30.564   8.972  10.706
12043W        W77028   1.869  17.510   2.376
12044W        W77029  38.066  31.271   0.243
12045W        W77030  39.588  14.748  14.441
12046W        W77031  16.848  14.800   1.407
12047W        W77032  38.982  27.159  11.730
12048W        W77033  16.912  21.910   3.700
12049W        W77034  11.820   8.261  13.140
12050W        W77035  38.359  24.102   2.879
12051W        W77036  24.229  15.860   1.795
12052W        W77037  13.131  26.932  12.426
12053W        W77038  28.665  26.021   1.414
12054W        W77039  25.753  25.475   0.822
12055W        W77040  28.835  39.491   2.726
12056W        W77041  14.586   9.601   0.369
12057W        W77042  33.271  30.177  13.051
12058W        W77043  32.120  41.014  13.877
12059W        W77044  15.081  34.275  13.062
12060W        W77045  38.522  26.982   2.040
12061W        W77046  43.272   7.258   3.410
12062W        W77047   6.773   2.577  10.462
12063W        W77048  42.254  28.062   0.832
12064W        W77049  10.229  17.161   2.661
12065W        W77050   4.213   3.316  11.071
12066W        W77051   9.377  12.773  11.656
12067W        W77052  13.599   6.062   0.268
12068W        W77053  27.134  17.327   3.774
12069W        W77054  16.818   7.391   1.363
12070W        W77055  10.801  16.757  11.959
12071W        W77056  17.066   4.779  12.983
12072W        W77057  25.193  15.007   4.085
12073W        W77058  40.546  21.743  11.538
12074W        W77059  34.980  35.848   4.657
12075W        W77060  43.739  26.047   3.240
12076W        W77061  26.669  32.701   0.702
12077W        W77062  36.776  22.753   3.282
12078W        W77063   8.253  29.625   4.814
12079W        W77064   1.053  28.514   4.640
12080W        W77065  35.764  41.002   0.353
12081W        W77066  12.039  17.847   4.110
12082W        W77067  29.390  31.061  11.438
12083W        W77068  38.823  22.271   1.714
12084W        W77069   1.732  11.777  13.800
12085W        W77070  17.735  44.310   1.030
12086W        W77071  16.286   3.770   3.165
12087W        W77072  21.761  25.493   2.444
12088W        W77073  40.446  28.579   4.077
12089W        W77074  29.616  11.706  13.632
12090W        W77075   1.898   3.409   0.818
12091W        W77076  15.762   0.223   4.528
12092W        W77077  19.747  14.960   0.723
12093W        W77078   9.199  11.195  14.713
12094W        W77079  44.914  34.634  14.747
12095W        W77080  39.071  11.175  11.605
12096W        W77081  25.770  43.865  10.461
12097W        W77082   5.531  29.010   4.281
12098W        W77083  44.063  33.973   1.270
12099W        W77084   6.027  26.970  10.435
12100W        W77085  16.485  44.067   2.739
12101W        W77086  15.637   7.364   4.591
12102W        W77087   8.299   7.377   0.266
12103W        W77088  18.182   6.679   1.458
12104W        W77089  33.408  43.397   4.151
12105W        W77090  31.454   1.740  13.967
12106W        W77091  26.442   8.498   1.873
12107W        W77092  23.958  38.579  12.066
12108W        W77093   8.566  24.729  14.917
12109W        W77094  37.415  36.520   4.549
12110W        W77095  31.983  34.923  13.024
12111W        W77096  29.451  26.494  10.346
12112W        W77097   1.009  19.542  14.291
12113W        W77098  37.906   8.285  10.802
12114W        W77099  28.900  33.459  13.065
12115W        W77100  14.061  37.108   1.842
12116W        W77101  19.383  22.240   2.833
12117W        W77102   6.361  20.602  11.038
12118W        W77103  15.575  34.506  12.078
12119W        W77104  17.044  19.668   4.118
12120W        W77105  21.723  32.566  14.465
12121W        W77106   2.559  29.034  14.490
12122W        W77107   1.863  14.689   4.189
12123W        W77108   2.519  40.927   1.678
12124W        W77109  22.583  24.270  14.018
12125W        W77110  22.949  14.845  10.691
12126W        W77111  14.141  25.154   1.810
12127W        W77112  31.950  13.829   0.248
12128W        W77113  33.486  14.141  14.055
12129W        W77114  19.280  28.108   4.784
12130W        W77115  23.581  30.163   0.366
12131W        W77116  33.230  32.595   2.258
12132W        W77117  15.500  19.969  14.860
12133W        W77118  42.353  20.643  14.600
12134W        W77119   9.669  44.954   0.988
12135W        W77120  33.001   3.688  12.888
12136W        W77121  25.666   7.838   1.835
12137W        W77122  20.532  44.927  13.440
12138W        W77123  37.869  27.999  13.871
12139W        W77124  14.102  19.086   0.306
12140W        W77125  29.517  21.591  14.425
12141W        W77126  38.561  17.138  14.492
12142W        W77127  27.152  19.196   3.850
12143W        W77128  10.892  13.166   1.481
12144W        W77129  42.285  37.170   4.687
12145W        W77130  14.621   1.901   1.275
12146W        W77131  34.175  22.655  13.583
12147W        W77132  43.848   0.484  11.180
12148W        W77133  24.031  31.979  11.650
12149W        W77134  28.096  36.594  13.577
12150W        W77135   3.927  24.565  14.455
12151W        W77136  15.669  31.857   0.453
12152W        W77137  19.232  20.758  11.146
12153W        W77138  41.180  43.373   1.445
12154W        W77139  18.637  10.529   3.038
12155W        W77140  13.340  30.398  12.281
12156W        W77141   9.889  23.331   4.871
12157W        W77142   0.872  39.042   0.312
12158W        W77143  34.032   3.210   3.330
12159W        W77144  37.579  35.507   1.304
12160W        W77145   2.743  10.939  13.502
12161W        W77146   2.526  41.899   4.961
12162W        W77147   4.454  29.872   4.168
12163W        W77148   2.043   9.618   1.882
12164W        W77149  28.044  19.761  11.566
12165W        W77150  38.771  15.610   0.330
12166W        W77151  41.447  34.938  13.889
12167W        W77152  39.314  39.980  13.805
12168W        W77153   5.696  15.191   1.396
12169W        W77154  35.139  23.022  11.847
12170W        W77155  21.095  11.334  12.083
12171W        W77156  28.674   1.280   2.289
12172W        W77157  21.745  38.097  11.631
12173W        W77158  26.614  17.338  13.551
12174W        W77159  11.979   9.727  14.922
12175W        W77160  28.083  41.985   4.313
12176W        W77161  29.737  25.161  10.675
12177W        W77162  36.872  44.777   2.545
12178W        W77163  37.400   1.720   2.879
12179W        W77164  21.536  22.633   0.287
12180W        W77165  19.207  12.665   4.866
12181W        W77166  13.753  39.121   4.044
12182W        W77167  31.534  10.650   0.792
12183W        W77168   0.283  15.681   1.756
12184W        W77169  12.739  42.079  11.144
12185W        W77170  25.541  11.043  13.110
12186W        W77171  37.086   5.649   3.226
12187W        W77172  41.431  22.976   3.083
12188W        W77173  17.553  42.724  10.434
12189W        W77174  15.361  42.012   4.072
12190W        W77175  39.817  16.967  13.292
12191W        W77176  39.034  40.036   4.248
12192W        W77177  24.761  28.120  11.669
12193W        W77178  27.386  37.546  14.977
12194W        W77179  11.940  15.679  13.051
12195W        W77180   3.885  39.970   3.357
12196W        W77181  40.442   1.412   1.674
12197W        W77182  16.389   5.294  13.143
12198W        W77183  33.032  38.926  14.904
12199W        W77184  36.522  25.753   4.640
12200W        W77185  10.993  26.530   5.040
12201W        W77186  17.945   7.909   3.790
12202W        W77187  20.195  11.620  13.800
12203W        W77188   3.313  24.309   4.143
12204W        W77189  29.548   0.475  13.339
12205W        W77190  21.574  33.414   2.693
12206W        W77191  13.760  38.850   0.023
12207W        W77192  17.359  42.739   3.863
12208W        W77193  42.760   4.368   2.818
12209W        W77194  35.102  40.044   2.619
12210W        W77195  18.465  26.603   0.329
12211W        W77196  37.329  43.501   1.354
12212W        W77197  24.030   3.750  14.561
12213W        W77198  19.399  36.400  11.692
12214W        W77199  21.329  39.388   4.019
12215W        W77200  30.012  32.882   2.602
12216W        W77201  23.526  27.030  13.879
12217W        W77202  34.967  33.140  10.449
12218W        W77203   5.883  35.142  13.976
12219W        W77204  33.528  31.891  14.923
12220W        W77205   1.191   7.575   2.645
12221W        W77206  11.157  29.490   1.847
12222W        W77207  23.954  12.614   2.318
12223W        W77208   7.811  32.002   4.926
12224W        W77209  39.796   2.409  12.531
12225W        W77210  30.784  17.712   0.122
12226W        W77211  21.493  36.362  13.591
12227W        W77212   8.812   5.607  14.456
12228W        W77213  27.001  15.806  13.815
12229W        W77214  19.315  10.163   0.646
12230W        W77215  41.955  10.889   4.505
12231W        W77216  24.295  43.318  14.846
12232W        W77217  23.966  11.152   2.924
12233W        W77218  25.634  35.326  13.514
12234W        W77219   5.175  23.287  10.677
12235W        W77220  43.436   2.977   2.683
12236W        W77221   2.792  40.107   4.384
12237W        W77222  19.553   5.787  13.254
12238W        W77223  13.454  30.910  14.355
12239W        W77224  38.521  29.224   1.052
12240W        W77225  11.722   2.562   2.212
12241W        W77226  43.986  35.880  14.755
12242W        W77227  17.780  43.917  11.238
12243W        W77228  39.051  13.600  13.339
12244W        W77229  44.398  35.157   0.428
12245W        W77230  37.614  27.941   4.262
12246W        W77231  42.532   6.898  13.976
12247W        W77232   6.646   8.250   1.842
12248W        W77233  23.313  18.400  11.881
12249W        W77234   0.777   1.411  11.670
12250W        W77235  25.568  19.375  11.679
12251W        W77236   5.765  29.586  13.262
12252W        W77237  13.618  41.994   3.476
12253W        W77238  21.135  33.985  14.733
12254W        W77239  17.084  14.389  12.854
12255W        W77240  34.099   9.129  11.673
12256W        W77241  32.672   7.043  13.787
12257W        W77242  11.307  12.924  12.409
12258W        W77243   5.442  29.475  12.837
12259W        W77244  13.654   5.333  11.122
12260W        W77245  33.457  25.597   2.756
12261W        W77246  19.553  12.780  11.646
12262W        W77247  14.321  32.474   1.384
12263W        W77248  33.394  31.059  11.942
12264W        W77249  13.588   0.095  14.413
12265W        W77250  13.224   2.869   2.642
12266W        W77251  15.768  30.937   0.123
12267W        W77252   8.130  37.922   0.505
12268W        W77253  14.525  17.035  10.196
12269W        W77254  39.974  25.275  14.418
12270W        W77255  14.381  42.951  11.863
12271W        W77256  20.286  30.158  12.540
12272W        W77257  14.733  34.623  12.911
12273W        W77258  13.125  27.441   1.560
12274W        W77259  19.149  12.798  12.942
12275W        W77260   4.289  14.065   0.049
12276W        W77261  20.449   8.332  14.894
12277W        W77262   9.969  22.851   3.125
12278W        W77263  14.304  20.711   2.659
12279W        W77264  31.020   2.099   2.371
12280W        W77265  16.271  15.520  12.609
12281W        W77266  10.630   3.389  11.979
12282W        W77267  36.976  21.421  13.064
12283W        W77268   4.297  32.947  14.372
12284W        W77269  19.635  29.943  14.878
12285W        W77270  17.549  14.903   0.355
12286W        W77271   5.958   6.954   4.204
12287W        W77272  22.021   6.335  12.919
12288W        W77273  11.913  11.386  12.236
12289W        W77274  18.502  41.449  11.193
12290W        W77275  37.181   5.193  10.925
12291W        W77276  29.428   5.432  11.137
12292W        W77277  43.143  21.254  12.964
12293W        W77278  24.091  38.931   4.864
12294W        W77279  10.834  36.333   2.392
12295W        W77280  15.443  23.733   3.625
12296W        W77281  23.716  36.217   0.123
12297W        W77282  34.802  17.254  11.153
12298W        W77283  42.352  38.566   3.289
12299W        W77284  44.410  43.398  11.190
12300W        W77285  11.956  11.010   0.776
12301W        W77286   3.768  12.034   2.584
12302W        W77287   5.221   3.959  12.961
12303W        W77288  32.069  17.227   2.095
12304W        W77289  27.489   2.999   3.174
12305W        W77290  21.165  21.352  13.808
12306W        W77291  42.084  29.990   1.709
12307W        W77292  16.594   5.960  10.882
12308W        W77293  30.130  31.409   9.795
12309W        W77294  17.578  26.247   0.608
12310W        W77295  37.694  36.962   5.585
12311W        W77296  20.718   3.535  14.831
12312W        W77297  10.676  30.998   4.061
12313W        W77298  16.739  17.803   2.597
12314W        W77299  19.046   5.550   0.333
12315W        W77300  17.791  42.835   3.599
12316W        W77301  11.093   8.214   2.182
12317W        W77302   2.886  28.599  14.352
12318W        W77303  10.888  27.592  11.605
12319W        W77304  22.415  31.093  12.197
12320W        W77305  18.781  21.792   3.744
12321W        W77306  24.470   6.425  13.857
12322W        W77307  15.662  32.963  10.916
12323W        W77308  20.952   0.410   4.040
12324W        W77309  27.910  28.181   4.231
12325W        W77310   9.838  44.998  14.819
12326W        W77311  16.727   9.622  12.261
12327W        W77312  11.596  10.455  13.171
12328W        W77313   6.540  16.528  11.342
12329W        W77314  16.073   4.603   9.747
12330W        W77315  32.797  44.967   4.300
12331W        W77316   1.700  41.707   2.149
12332W        W77317   7.400  43.455   3.574
12333W        W77318  17.613  22.632   4.540
12334W        W77319   9.720  28.978  10.658
12335W        W77320  43.512  15.255   0.433
12336W        W77321  38.351  35.476   4.096
12337W        W77322  12.629  38.355  12.558
12338W        W77323   2.606  14.288  13.864
12339W        W77324  31.237  32.925  12.809
12340W        W77325   2.896  18.779   3.268
12341W        W77326   2.812  21.543  14.239
12342W        W77327  30.047  15.045   1.333
12343W        W77328   7.979  19.504  12.099
12344W        W77329   1.769   7.018   1.486
12345W        W77330  44.434  29.651   0.198
12346W        W77331  17.510  24.437   2.695
12347W        W77332  42.057   4.800  11.659
12348W        W77333  13.139  42.186   0.161
12349W        W77334  30.677  41.132   0.454
12350W        W77335  22.450   2.226  12.097
12351W        W77336  18.129  37.069   1.323
12352W        W77337  29.320  37.590   0.898
12353W        W77338  18.729  39.556   3.819
12354W        W77339  38.851   8.771  12.635
12355W        W77340  21.667   2.986   2.806
12356W        W77341  30.356  29.019   4.119
12357W        W77342  13.799  33.434  13.944
12358W        W77343  28.505  11.134  14.816
12359W        W77344  38.882   3.301   4.175
12360W        W77345  23.418   2.713   2.665
12361W        W77346  41.327   6.771   1.290
12362W        W77347  12.824  23.982  13.426
12363W        W77348  38.848  22.661  12.386
12364W        W77349   9.049   1.532  11.610
12365W        W77350  42.964   5.164  14.953
12366W        W77351  43.303  21.568  13.583
12367W        W77352  14.669  34.573   3.312
12368W        W77353   5.136  12.588  11.197
12369W        W77354  11.845  10.757  14.650
12370W        W77355  26.154  40.909  10.731
12371W        W77356   0.416  34.749  10.372
12372W        W77357  34.885  33.498   2.876
12373W        W77358  34.064   7.704   3.655
12374W        W77359  42.489  15.293  14.264
12375W        W77360  31.990  16.827   3.867
12376W        W77361  23.743   4.688  14.407
12377W        W77362  36.076  35.739   0.463
12378W        W77363  43.278  22.619   1.823
12379W        W77364   4.816  10.254  13.430
12380W        W77365  40.914   9.966  12.067
12381W        W77366  13.025  36.817   0.884
12382W        W77367  29.040  33.832  11.099
12383W        W77368   6.854  20.092  12.977
12384W        W77369  37.537  22.111  12.888
12385W        W77370   3.537  31.924   5.111
12386W        W77371  39.459   3.152   3.614
12387W        W77372   2.260   0.377  13.774
12388W        W77373  27.535  33.541   3.141
12389W        W77374  13.794  12.754  10.682
12390W        W77375  17.065  44.801  13.464
12391W        W77376  29.728  21.041   0.315
12392W        W77377  25.102  22.526   0.435
12393W        W77378  31.091  18.329  13.260
12394W        W77379  16.200  37.270   1.911
12395W        W77380  22.235  18.858   4.153
12396W        W77381  39.482  25.446  14.341
12397W        W77382  36.618   4.977   0.267
12398W        W77383  34.067  32.484   0.071
12399W        W77384   0.474  23.962   1.815
12400W        W77385   1.087  12.282  14.936
12401W        W77386  10.716  24.456   2.429
12402W        W77387  21.578  41.979   3.652
12403W        W77388   1.580  29.476  10.442
12404W        W77389  38.795  39.443  14.235
12405W        W77390   9.127  31.741  12.239
12406W        W77391   8.662  37.546   2.869
12407W        W77392  21.220  32.855   1.774
12408W        W77393  20.501  26.152  13.433
12409W        W77394  37.796  23.695   0.845
12410W        W77395  11.164   3.793  13.432
12411W        W77396   4.980  37.547   4.158
12412W        W77397  32.051   7.787   3.702
12413W        W77398  29.729   1.515   1.380
12414W        W77399  24.687  13.923   1.816
12415W        W77400  11.867  16.121  11.546
12416W        W77401  32.098  44.694  14.099
12417W        W77402  33.051  36.991  12.542
12418W        W77403   7.935  43.902  11.697
12419W        W77404  26.739  12.795   0.722
12420W        W77405  19.262  24.225   0.359
12421W        W77406   6.020  23.142   0.692
12422W        W77407  43.567  44.907   3.802
12423W        W77408  31.240  42.115  14.788
12424W        W77409  34.544  41.006   3.236
12425W        W77410   8.124  29.446   2.940
12426W        W77411  37.412  14.038   0.345
12427W        W77412  23.619   6.575  13.251
12428W        W77413  15.691  13.657  13.858
12429W        W77414  10.668  10.385   0.547
12430W        W77415  12.418  21.508  14.484
12431W        W77416   6.250  24.117  12.410
12432W        W77417  33.437  44.816   1.259
12433W        W77418  28.787  31.086  13.340
12434W        W77419  14.282  27.166  12.967
12435W        W77420   9.613  22.980  14.887
12436W        W77421  21.716  12.348   2.033
12437W        W77422   3.395   9.699  10.772
12438W        W77423  36.817  39.094   3.434
12439W        W77424   0.232  25.214   4.207
12440W        W77425  23.778  29.020   1.341
12441W        W77426  18.654   6.906   0.174
12442W        W77427  33.408  19.563   0.503
12443W        W77428  37.297  18.277  11.537
12444W        W77429  38.047  10.278  14.255
12445W        W77430  25.289  42.993   1.835
12446W        W77431   9.389   1.432  13.586
12447W        W77432  11.393  12.627  11.570
12448W        W77433  22.541  33.834  11.981
12449W        W77434  35.760  41.973   0.296
12450W        W77435  25.519  41.191  13.349
12451W        W77436   7.740   7.612   4.651
12452W        W77437   0.013   5.678   3.212
12453W        W77438  25.305  29.263  10.265
12454W        W77439   8.445  34.338   3.795
12455W        W77440   6.957  25.077  13.044
12456W        W77441  44.067  34.903  10.677
12457W        W77442  12.127   0.847   0.909
12458W        W77443  44.478  31.988  10.717
12459W        W77444  21.716  27.705   3.697
12460W        W77445  10.883  35.954   4.633
12461W        W77446  14.078  24.275   1.876
12462W        W77447  25.708  34.777   2.488
12463W        W77448  41.398  41.930  14.182
12464W        W77449  11.925  19.645  10.646
12465W        W77450   0.294  30.725   1.015
12466W        W77451  11.068  37.548  13.129
12467W        W77452  16.005  27.609   3.959
12468W        W77453  21.208  38.856   4.006
12469W        W77454  12.914  10.867  12.405
12470W        W77455  43.573  14.367   2.774
12471W        W77456  31.092  30.918  14.002
12472W        W77457  34.302   2.413  12.584
12473W        W77458  41.810  22.023  11.093
12474W        W77459   8.770   2.569  11.189
12475W        W77460  25.504  25.620   1.273
12476W        W77461   0.288  23.734   4.351
12477W        W77462  39.616  10.650  14.519
12478W        W77463  35.987  34.519   1.885
12479W        W77464  36.823  27.165   3.209
12480W        W77465   1.362  11.060  11.485
12481W        W77466  11.267  18.189  13.940
12482W        W77467  33.072  40.726  12.864
12483W        W77468  12.108  24.729   4.314
12484W        W77469   8.911   5.884   2.178
12485W        W77470  26.460  22.787  11.659
12486W        W77471  12.823  42.894  11.983
12487W        W77472  36.953  44.737  11.302
12488W        W77473  26.776  10.802   3.590
12489W        W77474   6.217  29.988  11.190
12490W        W77475  13.078  35.567  14.470
12491W        W77476  41.894  41.951   4.792
12492W        W77477  18.522  41.578   3.212
12493W        W77478  11.197   7.144  10.515
12494W        W77479  19.732  28.766   4.077
12495W        W77480  17.689  11.668  10.695
12496W        W77481   6.455  27.206   0.603
12497W        W77482  14.234  38.976   4.138
12498W        W77483  34.077  39.786   3.613
12499W        W77484   0.425  30.303   1.280
12500W        W77485  35.955   7.175   0.710
12501W        W77486  21.440  40.928   1.253
12502W        W77487  25.677  28.181   1.330
12503W        W77488  40.193   2.823   2.600
12504W        W77489  35.866  11.901   4.159
12505W        W77490  41.378  11.483   0.262
12506W        W77491   0.219   7.782   1.028
12507W        W77492  30.675   2.835  13.317
12508W        W77493  16.570   7.359  13.459
12509W        W77494  18.644  13.857   0.819
12510W        W77495  21.749   9.827  10.605
12511W        W77496  23.129  24.919  10.675
12512W        W77497   6.844   6.399  13.260
12513W        W77498   1.585   5.810  11.171
12514W        W77499  25.106   1.089   0.116
12515W        W77500  27.325  20.920   2.416
12516W        W77501  20.291   5.424   5.654
12517W        W77502  19.187  15.124   3.703
12518W        W77503  36.965  44.437   3.778
12519W        W77504  12.053  33.575   0.451
12520W        W77505  33.586  29.507  11.520
12521W        W77506  26.584  31.127   1.717
12522W        W77507  26.748  12.208   2.891
12523W        W77508  10.404  37.249  12.350
12524W        W77509   8.234   9.292   5.391
12525W        W77510  35.908  13.833   2.631
12526W        W77511  14.979  39.987   3.855
12527W        W77512  24.502  23.707  12.429
12528W        W77513   5.411   9.300  11.758
12529W        W77514   9.362  10.448  11.145
12530W        W77515  32.694   1.175  12.990
12531W        W77516   4.183   7.934   0.352
12532W        W77517  12.774  22.196   4.093
12533W        W77518  42.430  34.247   1.450
12534W        W77519  29.251  28.425   4.660
12535W        W77520  30.030  12.782   1.921
12536W        W77521  39.900  36.328   0.309
12537W        W77522   4.474  39.896  10.676
12538W        W77523  29.977  10.118   0.919
12539W        W77524  13.121   8.337   4.529
12540W        W77525   7.823   4.900  11.773
12541W        W77526  30.372  24.506  12.977
12542W        W77527  15.357  40.257  14.876
12543W        W77528  20.546  12.808  12.565
12544W        W77529  19.987  39.433  11.510
12545W        W77530  36.902  21.495  11.166
12546W        W77531   9.648  41.966  13.938
12547W        W77532  31.688  44.036  11.563
12548W        W77533  32.315  35.520   0.953
12549W        W77534  27.415  33.034   1.497
12550W        W77535  16.098  39.912   0.278
12551W        W77536   3.311  26.239  11.562
12552W        W77537  43.531  43.002   0.917
12553W        W77538  37.467  19.195  12.387
12554W        W77539  23.611  30.729  13.510
12555W        W77540  43.380  41.951  14.995
12556W        W77541  39.058   7.448  12.951
12557W        W77542   4.193  23.971   0.928
12558W        W77543   8.940  17.680   2.683
12559W        W77544  35.010  15.018   4.538
12560W        W77545  18.463  42.686  11.325
12561W        W77546  30.670  29.755  14.411
12562W        W77547  10.284  12.146   3.241
12563W        W77548  22.550   5.411   2.222
12564W        W77549  10.288  35.231   2.861
12565W        W77550  33.822   7.368   5.081
12566W        W77551  37.857  29.516  12.519
12567W        W77552  11.452  40.513  11.507
12568W        W77553  12.435   8.730  10.636
12569W        W77554  11.076  19.089   3.426
12570W        W77555  22.869  31.917   3.965
12571W        W77556  29.729  13.392  13.515
12572W        W77557  34.789   0.401   3.748
12573W        W77558  44.523  42.750  13.381
12574W        W77559  34.265   7.383  11.082
12575W        W77560  12.826  36.339   0.661
12576W        W77561  38.313  18.524  12.342
12577W        W77562  29.236  14.282   2.199
12578W        W77563  32.137  34.498   0.344
12579W        W77564  30.136  35.778  12.193
12580W        W77565  36.017  42.959   3.119
12581W        W77566   8.738  15.080   2.228
12582W        W77567  11.723  29.969  12.128
12583W        W77568  41.765  24.498   1.385
12584W        W77569  31.566   7.597   0.644
12585W        W77570  36.149   5.781   1.081
12586W        W77571  32.121  39.000  13.042
12587W        W77572  34.551   1.258   2.020
12588W        W77573  14.046  13.083   1.237
12589W        W77574   9.011  39.920   9.824
12590W        W77575  37.024  38.000   1.796
12591W        W77576  18.531  39.837   1.293
12592W        W77577   8.217   0.691   0.913
12593W        W77578  18.341  26.205   1.697
12594W        W77579  30.672   9.721   5.030
12595W        W77580  43.527  30.470  11.161
12596W        W77581  23.203  13.548  13.352
12597W        W77582  37.803   7.284  13.498
12598W        W77583   9.375  29.065   3.459
12599W        W77584  22.927  30.537  14.985
12600W        W77585  28.056  20.499   4.340
12601W        W77586  15.709  10.636  10.554
12602W        W77587  33.924  35.015   0.730
12603W        W77588  34.210  35.259   2.273
12604W        W77589  21.175  39.087   3.558
12605W        W77590  36.623  38.124  11.123
12606W        W77591  26.935  37.310  13.946
12607W        W77592   7.999   9.855  13.079
12608W        W77593  26.530  21.480  12.455
12609W        W77594  24.050  16.841  10.741
12610W        W77595  15.676   2.837   4.541
12611W        W77596  25.064  32.130  13.605
12612W        W77597  20.617  29.196   1.306
12613W        W77598   9.320  34.840   2.751
12614W        W77599  20.936  15.847   2.295
12615W        W77600  40.129  33.970   0.526
12616W        W77601  27.848  33.713   1.802
12617W        W77602  29.546  15.653   1.645
12618W        W77603  10.117  30.406  10.766
12619W        W77604  30.572  39.439   3.859
12620W        W77605  27.373  27.990  13.609
12621W        W77606   4.749  20.282  10.673
12622W        W77607  43.875  24.536   2.631
12623W        W77608  17.363  10.320   2.810
12624W        W77609  31.546   2.892   2.481
12625W        W77610   4.894   6.924  14.870
12626W        W77611  24.076   3.522  12.076
12627W        W77612   6.423  37.810   3.274
12628W        W77613   4.292  18.524  14.953
12629W        W77614  13.225  28.225   1.395
12630W        W77615  21.560  30.455   1.693
12631W        W77616  34.430  11.906  11.558
12632W        W77617  16.664  32.924  13.591
12633W        W77618  42.207   2.342   1.331
12634W        W77619  34.693  26.682   0.939
12635W        W77620  41.754  36.144   1.478
12636W        W77621   6.863  10.505  12.968
12637W        W77622  11.712  43.052  10.867
12638W        W77623  22.447   3.382  13.363
12639W        W77624  12.620  32.383   0.226
12640W        W77625  17.976  33.825  13.029
12641W        W77626  12.860   5.212   3.662
12642W        W77627   0.298  16.246   2.651
12643W        W77628  39.783  16.470  14.760
12644W        W77629  30.472   6.247   4.729
12645W        W77630   8.766  44.288  13.404
12646W        W77631  33.119  21.035  14.971
12647W        W77632   7.929   0.435   4.739
12648W        W77633   6.768  22.963  11.203
12649W        W77634   4.723  31.135   1.288
12650W        W77635  18.828  23.528  12.988
12651W        W77636   3.493  32.985  12.045
12652W        W77637   2.765  14.384   4.039
12653W        W77638  17.818  11.249   3.206
12654W        W77639   4.242  24.551  12.022
12655W        W77640  38.808   8.412   4.460
12656W        W77641  30.985   3.537   4.624
12657W        W77642  24.228  23.651   3.287
12658W        W77643  25.246  35.955   2.265
12659W        W77644  20.165  35.954   4.266
12660W        W77645  33.474   4.032   4.382
12661W        W77646  31.510  40.067   1.869
12662W        W77647   6.380   4.194   1.335
12663W        W77648  27.694  21.648   2.366
12664W        W77649  30.733   5.647   2.229
12665W        W77650   5.421  27.036   4.557
12666W        W77651  16.320  19.009  13.840
12667W        W77652  41.851   4.328   1.087
12668W        W77653  17.336   8.711   1.826
12669W        W77654  20.096  17.008   2.111
12670W        W77655   7.082  36.142  12.006
12671W        W77656  13.174  11.310   2.384
12672W        W77657  23.674  16.762   3.192
12673W        W77658  21.103  20.867   2.836
12674W        W77659  36.465  21.994  13.497
12675W        W77660  35.024  13.413   2.817
12676W        W77661  43.408   7.785   2.391
12677W        W77662  32.960  41.346  12.368
12678W        W77663  21.143  39.825  10.237
12679W        W77664   9.365  25.729  13.444
12680W        W77665  29.101  33.349  11.208
12681W        W77666  14.651   8.649  12.890
12682W        W77667  38.044  37.223   2.861
12683W        W77668  14.717  36.456   0.436
12684W        W77669  15.238  19.043   1.498
12685W        W77670  18.637  16.213   3.685
12686W        W77671  38.572  43.174   4.380
12687W        W77672  13.659  28.221   2.285
12688W        W77673  43.503  21.652   0.714
12689W        W77674  37.927   0.409   4.279
12690W        W77675  16.203  18.369  13.019
12691W        W77676  35.451  11.936   0.497
12692W        W77677   4.208   5.418   5.409
12693W        W77678   2.718  21.247  13.817
12694W        W77679  41.433   8.415   3.721
12695W        W77680  34.065  44.000   2.388
12696W        W77681   8.503  41.255   0.660
12697W        W77682  14.014   2.633   3.252
12698W        W77683  30.490  44.707  10.932
12699W        W77684  18.552   0.881  14.876
12700W        W77685   1.008  28.359   0.457
12701W        W77686  22.565  12.950  13.882
12702W        W77687  39.960  23.290  14.816
12703W        W77688  44.304   1.359   2.483
12704W        W77689  29.174  37.169  14.571
12705W        W77690  17.304  31.669   0.867
12706W        W77691   0.797   5.943   0.482
12707W        W77692  35.892  30.556  13.287
12708W        W77693  15.703  25.344  13.459
12709W        W77694  32.928   4.746   1.838
12710W        W77695  23.169  22.200   1.919
12711W        W77696  25.032  40.227   4.996
12712W        W77697  11.147  40.039  13.941
12713W        W77698  39.832  17.220   3.482
12714W        W77699   5.591  20.819  14.455
12715W        W77700  25.707  20.765   1.251
12716W        W77701  37.112  35.384   3.337
12717W        W77702  27.508   2.442  12.057
12718W        W77703  34.805  38.604  11.583
12719W        W77704  20.811   1.981  11.561
12720W        W77705  25.468  21.322  11.041
12721W        W77706  13.381  40.392   0.331
12722W        W77707   7.671  33.347   1.364
12723W        W77708  19.487  33.426   1.430
12724W        W77709  29.847  20.076   1.840
12725W        W77710  32.938   5.944   1.073
12726W        W77711   3.758   7.638   0.254
12727W        W77712  42.535  37.487  13.853
12728W        W77713  40.417   9.050  10.732
12729W        W77714  35.369  18.429  13.685
12730W        W77715   8.235  27.007  12.734
12731W        W77716  38.305   8.284   3.798
12732W        W77717   2.233   4.876   0.327
12733W        W77718  22.440  14.162   2.953
12734W        W77719   1.950  42.393  11.468
12735W        W77720  25.269  24.105  12.690
12736W        W77721  21.990  34.257  12.901
12737W        W77722  33.650  21.034   0.080
12738W        W77723  27.115  34.131  14.809
12739W        W77724  42.552   9.025  12.081
12740W        W77725  16.374   3.870   0.747
12741W        W77726  22.485   8.019  13.869
12742W        W77727  26.220   6.657   2.633
12743W        W77728  17.210  37.095   0.416
12744W        W77729  11.681  15.120  10.045
12745W        W77730  20.052  11.132   3.761
12746W        W77731  26.389  19.573   1.700
12747W        W77732  20.524   9.347   2.239
12748W        W77733   5.657  33.039   1.044
12749W        W77734  37.047  30.588  10.685
12750W        W77735  31.017  23.732   0.267
12751W        W77736   5.791  11.310  10.697
12752W        W77737  32.460  26.785   3.610
12753W        W77738  12.294  39.570   0.333
12754W        W77739  42.055  20.512  12.496
12755W        W77740   3.350  31.567   4.388
12756W        W77741  31.548  39.374  10.641
12757W        W77742  37.828  30.526   0.844
12758W        W77743  29.743  18.730  13.199
12759W        W77744  12.576  11.300  13.487
12760W        W77745  20.084  12.610  10.464
12761W        W77746   4.725   5.244  14.193
12762W        W77747  40.373  39.977   0.476
12763W        W77748  23.963   0.715  10.565
12764W        W77749  24.120  40.137  11.257
12765W        W77750   1.401  30.972   3.867
12766W        W77751  34.619  12.977  12.331
12767W        W77752   6.447  35.313   3.940
12768W        W77753  23.729  40.899   3.048
12769W        W77754  43.894   3.412  12.502
12770W        W77755  35.953  32.932  10.740
12771W        W77756   6.208   2.847   0.457
12772W        W77757  18.204  29.148  11.192
12773W        W77758  32.511  37.818   0.378
12774W        W77759  15.155   9.687   0.811
12775W        W77760   3.507  39.572   2.602
12776W        W77761   7.263   1.895   3.069
12777W        W77762  13.383  14.390   4.535
12778W        W77763  32.674  38.342   3.554
12779W        W77764   0.761  12.054  12.013
12780W        W77765   8.848  14.217   2.659
12781W        W77766  10.479  28.663   2.660
12782W        W77767   6.205  37.673   3.809
12783W        W77768  24.949   8.693  12.198
12784W        W77769  18.564   0.342  11.079
12785W        W77770  25.193  27.322   4.979
12786W        W77771   9.266   3.660   0.457
12787W        W77772  12.836  38.414   0.512
12788W        W77773   4.484  16.017   4.830
12789W        W77774  38.779  17.605  13.499
12790W        W77775  17.695  42.855   2.601
12791W        W77776  17.127  33.267   5.149
12792W        W77777   5.379   9.701   3.751
12793W        W77778  26.569  32.479   0.239
12794W        W77779  39.490  36.371   2.586
12795W        W77780   3.259  43.807   1.700
12796W        W77781  40.929  26.903   1.810
12797W        W77782  11.135  16.704  13.480
12798W        W77783  20.808   1.088  14.249
12799W        W77784  25.110  25.453  14.021
12800W        W77785  35.460  19.524  11.107
12801W        W77786  23.278  11.190   1.839
12802W        W77787  18.978  40.530  12.893
12803W        W77788  29.032  34.026   3.964
12804W        W77789  25.255  13.659   2.187
12805W        W77790  23.490  20.547  13.296
12806W        W77791  19.612  41.727   3.747
12807W        W77792   0.621   5.838   4.129
12808W        W77793   8.547   3.347  10.719
12809W        W77794  37.067  35.508   1.245
12810W        W77795  14.843  27.013  13.851
12811W        W77796  15.816   4.980  14.969
12812W        W77797  13.739   4.481   1.116
12813W        W77798  22.622  13.640  11.227
12814W        W77799  20.121  41.918   3.695
12815W        W77800  19.176   1.904  12.556
12816W        W77801   0.942  27.683  14.312
12817W        W77802  38.762  43.954  10.568
12818W        W77803  12.333  23.490  13.514
12819W        W77804  20.542  36.284   1.346
12820W        W77805  42.868  26.398   2.372
12821W        W77806  29.266  30.941   4.882
12822W        W77807  43.027   6.971   1.276
12823W        W77808   9.250  38.087  14.394
12824W        W77809  39.052  27.627  12.844
12825W        W77810   0.614  41.070  12.980
12826W        W77811  30.558  22.012   3.695
12827W        W77812  35.024   2.378  13.969
12828W        W77813  40.773  44.860   3.108
12829W        W77814   8.552   8.315  13.102
12830W        W77815  13.557  20.483   3.026
12831W        W77816  40.589  11.632  10.688
12832W        W77817  32.168  23.664  14.121
12833W        W77818  17.226  36.442  10.444
12834W        W77819  37.487  12.339  10.498
12835W        W77820  39.530  28.080   4.047
12836W        W77821  40.643  38.367  13.717
12837W        W77822  26.728  14.733   3.682
12838W        W77823  16.142  43.333   2.924
12839W        W77824  38.299  12.326  14.408
12840W        W77825   8.990  32.061  12.820
12841W        W77826   5.945  15.245   2.334
12842W        W77827  37.068  11.952   2.301
12843W        W77828  32.014   3.480  13.488
12844W        W77829  43.513  11.340   4.836
12845W        W77830  10.446  44.873   4.109
12846W        W77831  18.382  14.953  12.050
12847W        W77832   3.556  10.852   0.826
12848W        W77833  20.208   6.299  14.248
12849W        W77834  21.233  44.373   2.897
12850W        W77835  18.135  38.847   0.707
12851W        W77836  44.437   6.328   4.438
12852W        W77837  15.288  22.055   4.351
12853W        W77838  27.585   8.109   4.038
12854W        W77839   7.453  15.828  13.946
12855W        W77840  34.439  32.079   1.309
12856W        W77841  21.095  26.077   0.226
12857W        W77842  22.635  27.264  11.388
12858W        W77843   1.472  39.361  11.599
12859W        W77844  15.098  30.735  10.556
12860W        W77845  23.118  14.244  13.766
12861W        W77846  33.091   5.055  12.536
12862W        W77847  20.163  37.936  14.396
12863W        W77848   9.105   0.555   0.510
12864W        W77849  29.579  20.148   2.290
12865W        W77850  33.830   0.355  12.886
12866W        W77851  16.140  19.195   2.899
12867W        W77852  34.536  42.741  14.499
12868W        W77853   8.472  22.645   4.125
12869W        W77854  44.529   6.158   0.725
12870W        W77855  36.438  33.799   0.200
12871W        W77856   7.418  20.170  12.161
12872W        W77857  23.161   0.039   4.851
12873W        W77858  11.504  30.187  13.450
12874W        W77859  13.633  40.384  11.938
12875W        W77860  30.721   7.384   4.611
12876W        W77861  23.202  34.015   1.426
12877W        W77862  19.061  20.271   2.295
12878W        W77863  21.249  41.741  12.943
12879W        W77864  17.786  28.417   0.464
12880W        W77865  33.180  32.980   4.288
12881W        W77866  18.344   2.933   5.151
12882W        W77867   7.661  24.014   0.696
12883W        W77868  37.959   7.530   1.415
12884W        W77869  38.854   4.777  13.051
12885W        W77870  23.846   3.844  12.684
12886W        W77871  32.564  37.276  14.523
12887W        W77872  37.301   4.913   4.451
12888W        W77873  17.416  36.014  10.660
12889W        W77874  22.116   6.399  11.029
12890W        W77875  41.758   8.392   4.305
12891W        W77876   0.228  39.130  14.258
12892W        W77877  30.611  29.754   2.362
12893W        W77878  41.074  41.520  12.459
12894W        W77879  37.847  42.270  10.745
12895W        W77880  43.048  42.891   4.611
12896W        W77881   3.848  34.422   0.734
12897W        W77882   9.586  26.997  12.590
12898W        W77883  27.158   9.539  14.832
12899W        W77884  43.206  32.489   0.223
12900W        W77885   1.362  25.260   1.941
12901W        W77886  16.243  13.230   2.738
12902W        W77887  38.275  39.410  12.989
12903W        W77888   4.744   5.720  13.540
12904W        W77889  37.713  26.362   3.014
12905W        W77890  37.797   9.817  12.008
12906W        W77891   6.866   1.557  11.675
12907W        W77892  12.550   2.343  11.967
12908W        W77893   9.371   8.629  12.802
12909W        W77894  29.037  40.416  13.120
12910W        W77895   3.366  31.199   0.316
12911W        W77896  30.878  16.565   4.705
12912W        W77897  19.752  30.508   3.859
12913W        W77898  43.880  28.068   4.961
12914W        W77899  29.026  18.788   3.693
12915W        W77900  39.471  17.210   1.490
12916W        W77901  39.793  39.791  13.006
12917W        W77902  24.038  21.010  10.481
12918W        W77903  21.532   2.549  10.605
12919W        W77904  32.370  38.542  12.996
12920W        W77905  40.667   7.535  14.090
12921W        W77906  21.065  23.139   3.684
12922W        W77907  29.007   3.661  13.914
12923W        W77908   5.729   5.683  12.975
12924W        W77909  22.219  39.937   3.097
12925W        W77910   2.805  36.415  12.820
12926W        W77911   7.023   1.003  11.038
12927W        W77912   6.190  12.665   4.121
12928W        W77913  38.853   9.381  12.116
12929W        W77914  10.584   3.500  14.840
12930W        W77915  22.313  15.691  12.568
12931W        W77916  32.103  44.874   1.329
12932W        W77917   3.447   9.397   4.199
12933W        W77918  25.704   9.571  13.510
12934W        W77919  20.044  33.966  14.758
12935W        W77920  10.407  32.326   4.890
12936W        W77921  43.862   0.765   3.521
12937W        W77922  36.943   8.108   3.117
12938W        W77923   5.247  32.471   1.922
12939W        W77924  10.571   3.813   2.725
12940W        W77925  20.742   7.538   0.958
12941W        W77926   1.955  20.241   4.164
12942W        W77927   4.458   3.539   3.107
12943W        W77928  26.425  23.587  12.427
12944W        W77929  23.981  10.665   1.609
12945W        W77930  30.382  34.424   1.952
12946W        W77931  43.976  30.886   3.197
12947W        W77932   1.668  26.626  13.506
12948W        W77933  17.742  33.931  11.285
12949W        W77934  25.595  29.570  14.315
12950W        W77935  14.791  43.319   2.499
12951W        W77936   0.401  25.955   1.049
12952W        W77937   0.407  25.549  12.145
12953W        W77938   9.619   6.873   4.638
12954W        W77939  20.537  18.207  12.468
12955W        W77940  11.748  39.717  12.469
12956W        W77941   3.891  30.472  12.042
12957W        W77942  44.825  19.189   2.440
12958W        W77943  25.563  15.269  11.277
12959W        W77944   8.376  26.968  12.240
12960W        W77945   4.457  37.326  11.914
12961W        W77946   5.940  39.472   4.662
12962W        W77947   1.053  16.507  13.859
12963W        W77948  41.172  29.045   4.544
12964W        W77949  37.220  40.023   3.689
12965W        W77950   9.720  13.273  12.545
12966W        W77951  38.119  24.349  12.752
12967W        W77952  24.204  38.457  14.305
12968W        W77953  20.704   1.121   3.436
12969W        W77954  32.996  20.112   1.977
12970W        W77955  26.019  34.481   0.724
12971W        W77956  38.000  24.031   0.527
12972W        W77957  16.861  16.600   3.035
12973W        W77958  40.462   5.777  10.795
12974W        W77959  30.105  12.110  13.830
12975W        W77960  38.002  13.500  12.652
12976W        W77961   9.387   8.365  11.937
12977W        W77962   8.344  29.403  12.804
12978W        W77963   6.934  37.716  11.086
12979W        W77964  22.225  38.298  13.799
12980W        W77965  19.152  24.278  14.479
12981W        W77966  12.666  24.514  14.304
12982W        W77967  20.931   8.054  12.779
12983W        W77968  44.243   8.130   4.025
12984W        W77969  19.798  41.911   3.293
12985W        W77970  38.583  31.622  12.528
12986W        W77971   9.741  35.367   1.297
12987W        W77972  32.019  10.165  13.398
12988W        W77973  16.842   1.175  10.762
12989W        W77974  25.489  27.080   1.857
12990W        W77975  32.736  30.739   4.987
12991W        W77976  36.434  43.509  12.408
12992W        W77977  29.568  27.616   4.118
12993W        W77978  31.054   3.004   4.739
12994W        W77979  19.555   7.934   0.192
12995W        W77980  42.998  16.800   1.395
12996W        W77981  25.083  35.312  14.426
12997W        W77982  30.216  43.479  12.119
12998W        W77983  40.850  12.087  14.285
12999W        W77984  43.325  11.827  14.420
13000W        W77985   9.550   9.041   5.023
13001W        W77986   6.468  34.475   4.225
13002W        W77987   4.243  35.453   0.959
13003W        W77988  18.693  30.222   2.332
13004W        W77989  16.641  29.885   3.225
13005W        W77990  17.069   3.482   3.748
13006W        W77991   3.970  14.780   4.377
13007W        W77992  37.024   4.797   1.742
13008W        W77993  40.996  26.426   1.638
13009W        W77994  42.096  32.247  10.792
13010W        W77995  12.167   9.708   2.010
13011W        W77996  20.878  20.100  11.315
13012W        W77997  34.580  39.428  13.072
13013W        W77998  15.345  25.377  12.284
13014W        W77999  31.138  26.719   2.985
13015W        W78000  38.493   3.234   3.423
13016W        W78001  14.747   6.821  12.123
13017W        W78002  41.275  38.982   0.236
13018W        W78003   7.175  26.540  13.651
13019W        W78004  35.126  14.406   0.278
13020W        W78005  39.648   3.167   2.337
13021W        W78006  24.200   6.241  11.018
13022W        W78007   4.452  17.555   0.912
13023W        W78008  18.786   8.020   1.330
13024W        W78009  26.512  10.949  10.655
13025W        W78010   8.979  15.605  13.804
13026W        W78011   0.402  44.279   0.240
13027W        W78012   7.235  31.072   3.346
13028W        W78013  33.279  15.810   2.779
13029W        W78014  15.625  13.450   3.346
13030W        W78015  27.432  22.484   1.146
13031W        W78016  38.826   2.963   2.604
13032W        W78017  29.033  22.229  13.069
13033W        W78018  24.704  35.266   1.749
13034W        W78019  11.628  25.628   3.975
13035W        W78020  17.699  12.736   4.123
13036W        W78021  11.510  10.304  13.955
13037W        W78022  15.603  10.437   1.139
13038W        W78023  13.118  28.690  12.989
13039W        W78024  13.888  37.897   0.789
13040W        W78025  19.504  31.093   4.485
13041W        W78026  37.406   0.683   2.711
13042W        W78027  18.974  10.230   3.306
13043W        W78028  43.641  26.166   2.718
13044W        W78029  10.435  13.959  13.709
13045W        W78030  41.789   6.771  10.486
13046W        W78031  36.520  20.386  12.474
13047W        W78032  21.618  21.034  12.816
13048W        W78033  15.088   9.235  11.502
13049W        W78034  28.140   1.997   0.497
13050W        W78035   8.875  11.835   1.281
13051W        W78036  10.450  20.636  10.604
13052W        W78037  38.123  25.215   2.001
13053W        W78038   5.805  38.602   3.218
13054W        W78039  35.233  15.202  12.439
13055W        W78040  27.936  29.704  11.398
13056W        W78041  31.476   9.687   5.010
13057W        W78042  38.897   0.297  13.543
13058W        W78043   1.068   8.244   4.525
13059W        W78044  13.923  42.161   3.853
13060W        W78045  37.083  22.185  10.535
13061W        W78046  13.591  30.527   3.679
13062W        W78047   1.220   6.161  11.129
13063W        W78048  31.367  14.834  14.775
13064W        W78049  43.495  19.520  11.587
13065W        W78050  42.968  24.628   1.830
13066W        W78051  22.227  38.616  11.906
13067W        W78052  38.262   0.005  14.346
13068W        W78053  32.692  21.065   3.834
13069W        W78054  19.219  26.336  14.229
13070W        W78055  41.822   5.748   1.810
13071W        W78056  39.388  25.497   2.803
13072W        W78057  34.960  33.301   4.543
13073W        W78058  11.823   7.256  12.761
13074W        W78059  30.947  25.222  12.041
13075W        W78060   9.978  17.680   3.698
13076W        W78061   3.003   9.807  12.154
13077W        W78062  12.411  37.162   4.183
13078W        W78063  34.035  25.556   1.452
13079W        W78064   3.948   5.613  11.133
13080W        W78065   0.301  28.815  13.041
13081W        W78066   5.264  11.413   0.806
13082W        W78067  41.264   9.197  11.062
13083W        W78068   3.379  16.421  14.067
13084W        W78069  44.753  25.720   0.930
13085W        W78070  38.031   2.968   3.341
13086W        W78071  25.560  42.044   3.124
13087W        W78072  40.766  13.601   3.835
13088W        W78073  42.321  33.852   4.042
13089W        W78074   6.101  40.052  14.322
13090W        W78075  38.473  12.822  14.414
13091W        W78076  10.885   5.880  12.459
13092W        W78077  36.242   3.112  14.210
13093W        W78078  37.873  29.029  12.724
13094W        W78079  13.715  33.974   0.799
13095W        W78080  21.982  44.336  13.033
13096W        W78081   8.430   4.394  10.321
13097W        W78082  17.814  31.141  14.354
13098W        W78083  35.427   8.921   2.709
13099W        W78084   7.977  28.748   3.219
13100W        W78085  31.033   2.394   1.926
13101W        W78086  42.478  32.183   3.292
13102W        W78087  16.605   1.736  14.916
13103W        W78088  24.335  11.859  11.272
13104W        W78089  28.219  19.164  10.671
13105W        W78090   3.742   0.288  10.650
13106W        W78091  30.671  27.597  12.715
13107W        W78092  12.456  30.315   0.002
13108W        W78093   9.983  23.490   2.168
13109W        W78094  30.043  16.152   0.894
13110W        W78095  33.073  13.741   0.678
13111W        W78096  30.246  18.257  13.414
13112W        W78097   0.679  36.375   3.292
13113W        W78098  21.285  28.904  13.363
13114W        W78099  15.192  33.535   1.694
13115W        W78100  43.398   0.178  13.307
13116W        W78101  14.407  33.613   3.092
13117W        W78102  42.342  22.572  11.523
13118W        W78103  25.481   4.876   0.910
13119W        W78104   0.362  43.342  11.649
13120W        W78105   1.086  41.760   3.752
13121W        W78106   7.783  44.098  12.972
13122W        W78107  24.446  22.656  13.444
13123W        W78108  32.972   4.058  12.511
13124W        W78109  32.952  13.764   3.704
13125W        W78110  33.416  13.676   2.433
13126W        W78111  12.363  36.999  11.659
13127W        W78112  24.793   4.141   0.391
13128W        W78113  44.441  15.239  12.543
13129W        W78114  36.946  31.818   1.177
13130W        W78115   6.696  10.501   2.613
13131W        W78116  36.686  44.474   4.199
13132W        W78117  14.638   0.979   2.306
13133W        W78118  36.058  14.879  12.106
13134W        W78119  18.922  25.362   4.178
13135W        W78120  14.127   9.192  13.828
13136W        W78121   5.979  41.399  14.339
13137W        W78122  17.350  11.487   1.297
13138W        W78123  35.046   1.881  13.819
13139W        W78124  28.637  42.440  14.866
13140W        W78125   4.959  13.745  10.554
13141W        W78126  15.065  26.010   4.064
13142W        W78127   4.953  36.094   2.359
13143W        W78128   0.349   0.644   3.824
13144W        W78129  12.422  29.681   0.334
13145W        W78130   0.314   2.022  12.110
13146W        W78131  37.083  19.596  13.875
13147W        W78132  22.431  11.191   4.658
13148W        W78133  32.555  44.253  12.056
13149W        W78134  43.758   7.906   4.627
13150W        W78135  20.921  38.345   1.753
13151W        W78136  10.943  44.766   3.382
13152W        W78137  12.259  12.736   0.185
13153W        W78138  27.348   2.359   0.463
13154W        W78139   2.850   9.702  13.034
13155W        W78140  29.692   7.659  12.561
13156W        W78141  44.239  29.528  13.869
13157W        W78142  38.792   0.453  12.658
13158W        W78143  42.951  15.839  12.624
13159W        W78144   8.121  42.568   2.744
13160W        W78145  39.034   2.211  11.253
13161W        W78146  41.008  20.958  13.191
13162W        W78147  40.521  24.379   9.903
13163W        W78148   2.838  28.882  13.902
13164W        W78149   7.728   3.621   5.245
13165W        W78150   8.513  21.335   0.415
13166W        W78151  39.092  40.273  10.687
13167W        W78152  27.331  23.550   3.696
13168W        W78153  39.552  27.294  11.979
13169W        W78154   5.007  41.506   0.995
13170W        W78155  21.320   2.414  14.327
13171W        W78156   9.061  14.630  11.952
13172W        W78157  19.739  44.636   1.855
13173W        W78158  14.431  19.231   4.199
13174W        W78159  32.601  44.293  14.919
13175W        W78160  26.062  39.329  11.650
13176W        W78161  25.155  20.953   2.739
13177W        W78162  26.390  40.282   4.299
13178W        W78163  16.569  14.824  12.249
13179W        W78164  42.867  35.999  10.172
13180W        W78165  26.147  36.140   4.773
13181W        W78166  18.112  31.894  13.025
13182W        W78167  40.566  22.111  14.807
13183W        W78168  39.018  27.040  14.884
13184W        W78169  12.098  41.346  10.995
13185W        W78170  36.311  14.370  11.450
13186W        W78171  20.993  40.843  11.157
13187W        W78172  39.084  42.040  14.410
13188W        W78173  10.855  39.507   3.056
13189W        W78174  29.818  44.797  12.942
13190W        W78175  30.980   6.683  11.551
13191W        W78176  16.588  32.989  10.894
13192W        W78177   7.479  17.661  13.442
13193W        W78178  24.070   0.522  13.783
13194W        W78179  42.545  11.136  12.914
13195W        W78180  34.666  16.079   3.741
13196W        W78181   5.648   3.785   0.419
13197W        W78182  26.926  16.839  12.987
13198W        W78183  15.539   8.743  11.250
13199W        W78184  31.512  27.064  10.542
13200W        W78185  18.180  16.059   3.477
13201W        W78186  22.249  38.041  12.901
13202W        W78187  17.456  26.895  11.737
13203W        W78188  23.048  17.152   4.392
13204W        W78189   8.196  15.752  10.617
13205W        W78190   5.429  14.942  12.662
13206W        W78191   3.840  13.113   1.605
13207W        W78192  14.629   3.239  14.486
13208W        W78193  20.223  31.013   4.201
13209W        W78194  12.809   9.714  12.970
13210W        W78195   4.907  18.697  10.656
13211W        W78196   5.228   6.647  10.623
13212W        W78197  10.055   8.324   4.549
13213W        W78198  24.762  11.702  14.078
13214W        W78199  35.666  38.872  12.896
13215W        W78200   7.212  31.662  10.743
13216W        W78201   2.512  40.482  12.148
13217W        W78202  39.726  36.307   4.231
13218W        W78203  43.468  36.739  11.131
13219W        W78204  42.395  20.919  12.578
13220W        W78205  32.692  42.424  11.637
13221W        W78206  38.950  39.607  12.154
13222W        W78207  43.452   3.874   0.962
13223W        W78208  43.638  21.462  14.769
13224W        W78209  41.273  32.972   5.145
13225W        W78210   6.269  27.057   1.520
13226W        W78211  18.277  15.794  13.501
13227W        W78212  14.587   1.860   2.347
13228W        W78213  22.690  39.788   1.373
13229W        W78214  21.646  22.801  12.937
13230W        W78215   3.918  30.636   3.090
13231W        W78216  34.526   5.254  14.786
13232W        W78217  12.893  20.661  10.633
13233W        W78218  33.839  34.982  12.559
13234W        W78219  30.672  43.793  12.036
13235W        W78220   5.358  10.270  12.068
13236W        W78221   0.016  30.911  10.666
13237W        W78222  26.536  31.063  14.691
13238W        W78223  17.968  29.554   4.013
13239W        W78224  33.643  19.535  11.225
13240W        W78225  39.579   9.290  13.926
13241W        W78226  19.634  16.318  12.024
13242W        W78227  33.399  27.248  11.584
13243W        W78228  41.285  22.781  12.605
13244W        W78229   4.372   1.956   1.065
13245W        W78230  39.852   0.015   0.983
13246W        W78231  41.987  30.055  13.212
13247W        W78232  19.650  38.870  13.622
13248W        W78233  24.535  35.759   2.732
13249W        W78234  37.396  16.344  13.974
13250W        W78235  37.010  32.635  13.433
13251W        W78236   9.646  33.062  12.367
13252W        W78237   7.292  32.978   1.882
13253W        W78238  11.610  19.137   1.219
13254W        W78239  44.202   8.011  13.915
13255W        W78240   8.757  21.302  14.779
13256W        W78241   6.032   3.337  13.747
13257W        W78242  27.051  31.553   0.338
13258W        W78243  27.147  30.048  13.522
13259W        W78244  43.297   9.492  13.758
13260W        W78245  11.143   9.481   2.165
13261W        W78246  23.018  10.749   3.605
13262W        W78247  29.687  17.145   3.767
13263W        W78248   1.926  34.581   3.987
13264W        W78249  13.020  38.991   5.088
13265W        W78250   3.689  38.496  13.932
13266W        W78251   2.403  21.247   0.885
13267W        W78252   1.296  27.506   2.187
13268W        W78253  42.754  28.095   0.700
13269W        W78254  20.211  28.949  10.618
13270W        W78255   1.493  29.396  14.933
13271W        W78256   2.589  12.752  12.570
13272W        W78257  37.527  28.620  12.528
13273W        W78258  42.417  41.045  12.647
13274W        W78259  28.647   0.393   0.248
13275W        W78260   5.932   1.312   3.846
13276W        W78261   4.644  21.295  13.975
13277W        W78262   9.865  20.192  13.379
13278W        W78263  27.272  32.961  14.108
13279W        W78264  42.318  12.373   1.907
13280W        W78265  10.865  29.416   1.197
13281W        W78266  25.435   5.532   3.747
13282W        W78267  43.357  26.377  13.865
13283W        W78268  11.322  21.683  11.246
13284W        W78269  43.399  31.743  14.104
13285W        W78270   6.687  31.022  12.468
13286W        W78271   2.073  17.795   0.042
13287W        W78272   1.899  39.523   4.134
13288W        W78273  41.345   4.409   3.160
13289W        W78274  38.102  44.892  13.854
13290W        W78275  16.646  25.166   0.486
13291W        W78276   3.924  40.963   1.387
13292W        W78277  41.217   4.069   1.726
13293W        W78278   1.466  38.128   1.879
13294W        W78279  27.562  24.000   4.562
13295W        W78280  42.781   8.448  14.908
13296W        W78281  11.564   3.400  10.341
13297W        W78282  17.651   7.967  11.106
13298W        W78283  37.606  39.910  14.104
13299W        W78284  10.056  36.892   3.520
13300W        W78285  35.410  15.684  15.000
13301W        W78286  19.126  38.872   5.270
13302W        W78287   9.311  36.355   0.861
13303W        W78288  32.028  38.013  14.496
13304W        W78289   0.274  38.515   0.513
13305W        W78290  16.341  30.562   3.999
13306W        W78291  44.872  17.250  12.377
13307W        W78292   9.689  40.706  13.481
13308W        W78293  25.212  14.249  12.159
13309W        W78294  34.391  38.112   2.167
13310W        W78295  27.507  25.425   2.708
13311W        W78296  33.665  18.417   3.586
13312W        W78297  12.263   5.826   1.360
13313W        W78298  15.851  39.354  14.361
13314W        W78299  42.028   8.769  10.806
13315W        W78300  43.041  36.075   0.362
13316W        W78301  41.146  36.862  14.936
13317W        W78302  29.096  41.806   0.995
13318W        W78303  18.511  16.758  11.936
13319W        W78304  14.250  42.720   4.634
13320W        W78305  44.727   2.270  12.392
13321W        W78306   4.358  36.984   0.244
13322W        W78307  30.409  26.174   1.048
13323W        W78308  12.875  12.504   1.350
13324W        W78309  29.549  24.936   3.324
13325W        W78310   4.966  19.672  11.482
13326W        W78311  42.470  42.403   2.634
13327W        W78312  31.919  16.804  11.755
13328W        W78313  15.618  11.901   3.701
13329W        W78314  25.416   9.821  11.770
13330W        W78315  40.400   8.816   1.750
13331W        W78316   7.924   8.353   5.023
13332W        W78317  37.734  39.786  11.585
13333W        W78318  32.113  17.630   4.786
13334W        W78319  24.748   7.847   0.785
13335W        W78320  10.698  24.024   3.383
13336W        W78321  41.055  38.091  14.808
13337W        W78322  44.877  27.021   9.910
13338W        W78323  44.715  33.490   3.588
13339W        W78324   3.438  31.113   2.637
13340W        W78325  16.454  25.706  14.396
13341W        W78326  43.479   5.528   2.147
13342W        W78327  44.448   0.219   4.622
13343W        W78328  17.115  17.377  13.101
13344W        W78329  10.839  26.607   1.707
13345W        W78330  23.927  25.290  11.747
13346W        W78331  36.016  43.577   0.473
13347W        W78332  30.296  21.126  12.666
13348W        W78333   6.896  29.987  12.009
13349W        W78334  31.843  36.476  13.823
13350W        W78335  28.074  13.667   3.467
13351W        W78336  33.998  38.740  13.459
13352W        W78337  29.841  42.237   4.077
13353W        W78338  13.692  34.745   3.708
13354W        W78339  34.342   7.570   4.999
13355W        W78340  36.819  33.639   0.879
13356W        W78341  34.038  31.738  13.353
13357W        W78342  12.810  42.084  13.406
13358W        W78343  17.195  44.472  13.892
13359W        W78344  21.788  12.358  12.017
13360W        W78345  42.933   3.237  13.919
13361W        W78346  41.565  21.157  12.915
13362W        W78347   0.170  40.340   0.020
13363W        W78348  20.459  30.066   0.901
13364W        W78349   9.776  20.396  14.007
13365W        W78350  14.801   2.949   1.878
13366W        W78351  35.905   9.928   0.470
13367W        W78352  25.916  26.834   0.706
13368W        W78353  12.810   6.917   0.270
13369W        W78354  28.003  16.606  10.582
13370W        W78355   3.212  11.826  11.688
13371W        W78356  36.512   0.083  11.041
13372W        W78357  13.431  16.535  10.919
13373W        W78358  12.989  25.317  10.854
13374W        W78359  12.406  22.170   3.711
13375W        W78360  36.727   8.167  12.908
13376W        W78361  26.801  16.631  10.154
13377W        W78362  42.138  28.865   1.182
13378W        W78363  38.893  22.785   1.686
13379W        W78364  42.521  27.635  13.903
13380W        W78365  34.817   5.717   2.594
13381W        W78366   7.730   1.475   0.987
13382W        W78367   2.530   3.967   3.641
13383W        W78368   6.897   1.048  11.536
13384W        W78369  40.191   0.539  12.474
13385W        W78370  34.375  33.136  12.440
13386W        W78371  21.601  41.962  12.081
13387W        W78372   9.140  36.810  14.972
13388W        W78373  44.721  28.985   1.795
13389W        W78374   8.801  37.590  11.065
13390W        W78375  26.397  43.759  12.974
13391W        W78376  11.653  11.805   4.790
13392W        W78377  38.770  34.315  12.488
13393W        W78378  39.359  13.274   1.038
13394W        W78379   4.731  21.303  10.862
13395W        W78380  18.017   1.006   0.033
13396W        W78381  32.050  40.986  12.076
13397W        W78382  24.889   6.621  14.354
13398W        W78383  36.786   0.942  14.224
13399W        W78384  15.283  21.132   3.011
13400W        W78385  33.976  37.745  10.402
13401W        W78386   5.878  34.900  11.056
13402W        W78387  43.315  20.600  13.587
13403W        W78388  20.324  26.431  14.213
13404W        W78389   0.309  14.072   2.937
13405W        W78390  44.244  19.204   3.265
13406W        W78391   8.695  25.433   3.699
13407W        W78392  33.477  21.264  11.097
13408W        W78393   4.711  23.063   1.419
13409W        W78394   9.946  19.708   4.999
13410W        W78395  27.466  32.134  12.933
13411W        W78396   0.344  11.605   2.744
13412W        W78397  16.873  10.938   1.679
13413W        W78398  22.130  37.586  11.998
13414W        W78399  10.166  34.881  12.552
13415W        W78400  18.122  34.840   3.251
13416W        W78401  44.517  11.417  13.876
13417W        W78402  36.041  36.343   4.457
13418W        W78403   8.305  16.792   4.135
13419W        W78404  24.657   5.879  12.499
13420W        W78405  29.046   6.729  13.565
13421W        W78406  39.660  11.144   3.263
13422W        W78407  14.461  14.182   0.412
13423W        W78408   3.955   3.330   3.575
13424W        W78409   8.506  40.326  12.015
13425W        W78410  13.020  10.768  10.761
13426W        W78411  37.421   0.988   1.387
13427W        W78412  21.232   5.785  12.949
13428W        W78413  39.998  30.485  12.154
13429W        W78414   6.213  30.103   4.639
13430W        W78415  10.388   1.442   1.297
13431W        W78416  29.886   1.352   1.863
13432W        W78417  44.291  44.461  14.947
13433W        W78418   9.804  41.818   3.269
13434W        W78419  28.892   1.223  11.016
13435W        W78420  29.955  31.857  13.998
13436W        W78421  43.581  34.719   0.928
13437W        W78422  28.909   4.216   4.209
13438W        W78423  26.778  25.364   4.986
13439W        W78424  11.806  13.247  13.550
13440W        W78425  15.810  19.018  14.020
13441W        W78426  21.261   7.613  12.617
13442W        W78427  20.487  40.421  13.798
13443W        W78428  37.412  30.090   4.746
13444W        W78429   8.637  44.277  11.631
13445W        W78430  34.901  13.705   1.366
13446W        W78431  24.529   7.285   0.047
13447W        W78432  30.856  23.963   2.839
13448W        W78433  19.193  35.771  14.011
13449W        W78434  34.452  31.214  10.426
13450W        W78435  41.417  19.480  11.066
13451W        W78436  18.769  23.509  10.925
13452W        W78437  29.172   5.964  11.875
13453W        W78438  16.208  16.291   4.808
13454W        W78439  18.809  15.598   2.050
13455W        W78440  36.374  15.179   0.701
13456W        W78441  30.936  35.648  12.431
13457W        W78442  26.038  33.666  10.701
13458W        W78443  17.671  19.684  12.362
13459W        W78444  12.783   5.473  12.456
13460W        W78445  41.523  36.446  10.171
13461W        W78446  10.307  34.118  14.854
13462W        W78447  36.512  36.391  12.979
13463W        W78448  14.581  30.222   0.883
13464W        W78449   5.670  43.035  13.091
13465W        W78450  12.289  21.246  12.269
13466W        W78451   4.011   5.943  12.583
13467W        W78452  28.206  26.220   1.281
13468W        W78453  11.746  16.532   3.249
13469W        W78454  33.505  20.250   0.785
13470W        W78455  34.873  22.129   2.691
13471W        W78456   8.650   2.091  10.233
13472W        W78457  14.865  22.526  13.456
13473W        W78458   7.900  42.903   2.402
13474W        W78459  44.470   2.689  14.354
13475W        W78460  22.209  35.687   0.915
13476W        W78461   0.434   8.402  11.525
13477W        W78462   4.969  11.785  10.807
13478W        W78463  29.878  32.964  12.794
13479W        W78464  10.732   2.302   2.840
13480W        W78465   7.814   8.719  10.994
13481W        W78466  17.059   2.780   1.219
13482W        W78467   7.420  30.161  13.348
13483W        W78468  21.045  17.380   1.160
13484W        W78469   0.456  24.743  10.236
13485W        W78470  20.217  16.354   4.554
13486W        W78471  33.033   0.738   3.024
13487W        W78472  18.051  26.216   0.804
13488W        W78473  42.397  35.902  14.407
13489W        W78474  32.657   2.262   4.496
13490W        W78475  27.532  14.254  14.966
13491W        W78476   1.735  44.509   3.566
13492W        W78477  18.974  37.043  14.433
13493W        W78478  35.549  13.833  13.507
13494W        W78479  37.486  35.499  14.870
13495W        W78480  26.126  30.752  11.228
13496W        W78481  31.015  12.100   3.656
13497W        W78482  39.085  17.780  13.935
13498W        W78483   7.911   9.216  12.496
13499W        W78484   2.333   2.246   3.714
13500W        W78485  37.845  27.405   3.674
13501W        W78486  15.131  37.301   0.301
13502W        W78487  34.894  11.502   3.466
13503W        W78488  15.846   8.774  14.326
13504W        W78489  36.141  18.634  11.839
13505W        W78490  17.512   4.654   0.891
13506W        W78491  34.516  44.314   5.109
13507W        W78492   3.761  31.711  12.371
13508W        W78493   3.726   4.221   1.926
13509W        W78494   1.505  31.892  14.687
13510W        W78495  18.221   6.822  14.857
13511W        W78496  19.644  22.003   1.295
13512W        W78497  18.640  39.409   2.366
13513W        W78498  25.779   4.105  13.502
13514W        W78499  43.285  23.707   3.857
13515W        W78500  16.256  43.735  12.960
13516W        W78501   3.799  29.106  13.764
13517W        W78502  13.923  17.331   1.306
13518W        W78503   4.774   2.817   0.302
13519W        W78504  18.670  35.885   0.255
13520W        W78505   1.417  13.923   5.083
13521W        W78506  43.817  20.787   2.914
13522W        W78507  37.846  19.010   1.796
13523W        W78508   3.818  22.747   2.582
13524W        W78509  39.081  10.720   0.220
13525W        W78510  23.183  23.786  14.298
13526W        W78511  43.812  32.036   3.237
13527W        W78512   1.210  44.928   0.827
13528W        W78513   5.332  39.475   0.899
13529W        W78514  22.987  17.563  11.445
13530W        W78515  22.702  19.105  10.875
13531W        W78516  43.531  27.075   0.351
13532W        W78517  20.495  17.731   4.468
13533W        W78518  29.258  19.680  13.932
13534W        W78519  28.605  41.210   2.241
13535W        W78520  30.726  36.753   2.866
13536W        W78521  16.804  25.945   4.033
13537W        W78522  25.921  39.297   2.742
13538W        W78523  12.083  40.347   1.478
13539W        W78524   9.711  16.800   0.672
13540W        W78525  11.932  34.029  12.447
13541W        W78526  23.073  42.907  14.801
13542W        W78527  25.663  33.474   9.990
13543W        W78528  42.138  36.283   2.801
13544W        W78529  33.682  21.837   3.568
13545W        W78530  41.849  24.744  12.553
13546W        W78531  19.507  31.090   3.088
13547W        W78532   4.879  21.990  12.688
13548W        W78533  43.852  42.405   4.063
13549W        W78534  44.416  11.312   1.259
13550W        W78535  43.484  17.523   9.904
13551W        W78536  22.512  14.187   4.140
13552W        W78537  34.426   7.725  10.588
13553W        W78538  44.520  39.966  11.545
13554W        W78539  27.457   6.294  12.413
13555W        W78540  21.496   4.320  12.422
13556W        W78541  17.770   9.373  13.888
13557W        W78542  19.687  36.100   4.037
13558W        W78543   2.490   6.918  13.860
13559W        W78544   1.155  36.431   2.274
13560W        W78545   8.592  43.180  12.320
13561W        W78546  36.941  15.222   2.160
13562W        W78547  12.957  29.522   3.666
13563W        W78548  41.950   4.933  10.807
13564W        W78549  28.914   1.264  14.838
13565W        W78550  21.579  40.811   4.060
13566W        W78551  14.902   7.897  11.009
13567W        W78552  26.045  33.327  12.080
13568W        W78553  32.094  23.605   3.748
13569W        W78554  23.116  21.655   1.819
13570W        W78555  34.875   8.137  13.889
13571W        W78556   6.250  35.842  10.108
13572W        W78557  24.124   2.079   2.328
13573W        W78558  25.156  22.220   1.811
13574W        W78559  12.846  33.358  12.612
13575W        W78560  37.442  25.247   5.330
13576W        W78561   3.823  34.513   1.267
13577W        W78562  36.588   2.253   0.234
13578W        W78563  20.911   4.369   2.276
13579W        W78564  31.986  25.416   4.522
13580W        W78565   3.735  20.189  11.231
13581W        W78566  20.020  32.253  11.142
13582W        W78567  32.593  25.135  13.060
13583W        W78568  40.061  22.726   0.014
13584W        W78569   6.354  43.625  13.053
13585W        W78570   8.182  39.043  12.872
13586W        W78571  24.750  11.778  14.963
13587W        W78572  27.699  31.876  12.467
13588W        W78573   2.679  32.550   4.413
13589W        W78574  15.583  25.142   1.502
13590W        W78575  34.040  34.602   4.100
13591W        W78576  37.162  39.870   0.372
13592W        W78577  11.635  26.088  14.798
13593W        W78578  17.819  40.364   3.663
13594W        W78579   7.748  14.207   1.810
13595W        W78580  35.938  15.516  11.380
13596W        W78581  30.975  10.638  12.389
13597W        W78582   1.137  24.863  13.472
13598W        W78583  12.126  20.701  13.705
13599W        W78584  44.329  31.097   0.554
13600W        W78585  28.863  36.244  11.635
13601W        W78586   6.330  23.465   2.179
13602W        W78587  27.727  33.110  11.549
13603W        W78588   1.207  23.569  11.132
13604W        W78589  18.075  19.872  11.751
13605W        W78590  38.103  11.802   0.703
13606W        W78591  31.329  36.522  13.621
13607W        W78592  24.793  22.436   3.240
13608W        W78593  13.717   8.638  11.682
13609W        W78594  25.764  41.654  14.790
13610W        W78595  21.940  36.798   4.576
13611W        W78596  44.447  44.830   4.278
13612W        W78597  42.852  37.055  14.173
13613W        W78598  10.451  16.109  12.589
13614W        W78599  41.511  17.586   3.187
13615W        W78600   6.750  18.573   1.808
13616W        W78601  23.395  44.233   2.278
13617W        W78602  35.309  12.619  14.049
13618W        W78603  25.036  28.533  11.584
13619W        W78604   0.559  36.549  14.080
13620W        W78605   1.773  16.665   3.695
13621W        W78606   0.017  25.774  10.921
13622W        W78607  17.736  16.640  12.364
13623W        W78608  23.284  30.231   1.659
13624W        W78609  33.366  28.024   0.488
13625W        W78610   0.576  37.175   1.927
13626W        W78611  17.320  26.955  13.444
13627W        W78612  14.140  11.375   2.705
13628W        W78613   1.833   5.047  14.910
13629W        W78614  30.548   0.731  14.955
13630W        W78615  19.707  44.908   2.302
13631W        W78616  12.810  33.481  13.658
13632W        W78617  25.006  28.656   2.189
13633W        W78618  43.220   9.854   3.669
13634W        W78619  14.810  16.148   3.229
13635W        W78620   6.165  18.104   2.910
13636W        W78621  18.394   8.342   0.039
13637W        W78622  27.129  29.798  11.601
13638W        W78623  27.707  32.975  14.375
13639W        W78624  23.005   3.407  12.389
13640W        W78625  14.123   5.741  12.091
13641W        W78626  10.278   0.599  13.054
13642W        W78627  12.632  14.586  13.913
13643W        W78628  42.081   1.443   1.262
13644W        W78629   2.086  35.017  10.641
13645W        W78630   6.446   3.259  14.073
13646W        W78631  40.727  14.552  10.294
13647W        W78632  43.549  27.725   3.214
13648W        W78633  34.300  34.126  14.092
13649W        W78634  22.307   0.475  13.405
13650W        W78635   0.000  33.228   3.205
13651W        W78636  26.550  26.507   3.470
13652W        W78637  43.795   3.929  11.089
13653W        W78638   3.613  27.750   2.114
13654W        W78639   6.379  44.500   0.218
13655W        W78640  10.937   9.272  13.124
13656W        W78641  31.563  29.824  13.523
13657W        W78642  32.510  10.205  12.663
13658W        W78643   1.034  41.978   4.520
13659W        W78644  25.221  26.445  11.543
13660W        W78645  35.198  10.479   4.928
13661W        W78646  21.083  43.389   3.133
13662W        W78647  19.767   3.761  13.369
13663W        W78648  29.725  32.908   0.796
13664W        W78649  33.072  25.174  13.351
13665W        W78650   5.613  36.258  14.745
13666W        W78651  16.760  20.897  12.583
13667W        W78652  33.451   9.409   0.260
13668W        W78653  34.932  18.353  13.961
13669W        W78654  13.658   3.498   1.430
13670W        W78655   4.750   8.540  11.576
13671W        W78656  39.351  43.609  12.081
13672W        W78657  17.542  17.761   4.076
13673W        W78658  30.513  29.958   3.840
13674W        W78659  16.089  33.093   0.115
13675W        W78660   6.263  24.662  14.918
13676W        W78661  31.634  19.972   0.757
13677W        W78662  35.459  41.924  12.525
13678W        W78663   5.982  15.453   1.766
13679W        W78664   1.958  10.359   2.585
13680W        W78665  40.039  33.010  10.477
13681W        W78666  34.491  37.148   1.312
13682W        W78667  35.092  30.256  12.786
13683W        W78668  19.771  19.666   3.868
13684W        W78669   8.583   0.399   1.793
13685W        W78670  20.431   5.658  13.577
13686W        W78671  40.750  19.699  12.889
13687W        W78672  36.313  30.579   3.660
13688W        W78673  37.424  16.297   0.744
13689W        W78674  23.042  43.865   0.257
13690W        W78675  38.349   3.316   4.797
13691W        W78676  12.583  29.027  13.496
13692W        W78677  36.031  35.984   0.012
13693W        W78678  17.537  33.539  11.540
13694W        W78679  18.081  37.430  12.027
13695W        W78680  38.670  26.391   1.192
13696W        W78681  40.490  22.743  11.236
13697W        W78682  32.638  20.177  10.816
13698W        W78683  30.148  36.105   2.888
13699W        W78684  17.238  29.498   4.667
13700W        W78685  20.978  15.502   3.205
13701W        W78686  36.763  35.499   4.803
13702W        W78687  39.111  44.915  14.031
13703W        W78688  12.624  23.709  14.787
13704W        W78689   0.688  12.653   1.815
13705W        W78690  15.245   4.696   3.602
13706W        W78691  26.947  22.037  12.926
13707W        W78692   6.798  41.481  11.420
13708W        W78693  13.749  30.078  12.968
13709W        W78694   0.416  14.562   0.016
13710W        W78695  44.780  32.993   4.269
13711W        W78696  38.128   1.796   0.000
13712W        W78697   3.569   4.015   3.197
13713W        W78698  14.797  34.003  10.644
13714W        W78699   0.411  34.498   1.096
13715W        W78700  13.024   1.504  11.931
13716W        W78701  11.661  40.991  12.990
13717W        W78702   6.142   4.369   3.289
13718W        W78703  43.817  42.932  10.713
13719W        W78704  13.702  18.763   0.363
13720W        W78705  14.272  43.246   2.436
13721W        W78706  43.312  20.531   4.232
13722W        W78707  16.851   6.878   1.277
13723W        W78708  11.808  33.028  13.110
13724W        W78709   0.695  37.950   3.326
13725W        W78710  38.857  30.835  11.923
13726W        W78711  40.855  32.719   4.944
13727W        W78712   7.290   6.962   2.600
13728W        W78713  15.884   0.025  14.370
13729W        W78714  20.089  16.757   1.660
13730W        W78715  13.128  38.942   1.207
13731W        W78716   9.811  15.969  13.862
13732W        W78717  29.672   6.693  11.622
13733W        W78718  39.356  23.088  11.684
13734W        W78719  25.225  32.458  12.805
13735W        W78720  22.262  20.098  13.902
13736W        W78721  25.244  38.817   3.565
13737W        W78722  10.897  22.654  12.524
13738W        W78723  29.531  10.474  10.585
13739W        W78724  24.573   9.563   2.697
13740W        W78725  10.173  35.707   2.169
13741W        W78726  44.756  20.657   1.443
13742W        W78727  32.568  29.881  12.502
13743W        W78728  31.133  19.115   2.282
13744W        W78729  34.454  11.456   3.179
13745W        W78730  25.632  40.903  10.935
13746W        W78731  44.906  27.545  10.556
13747W        W78732   5.305  42.832  14.408
13748W        W78733  19.024  26.895   4.220
13749W        W78734   5.467  14.628   2.663
13750W        W78735   1.513   1.273  11.153
13751W        W78736  15.383  41.887  13.773
13752W        W78737   3.637  19.028   3.895
13753W        W78738  40.779  34.997  12.304
13754W        W78739   5.417  35.384   4.247
13755W        W78740  40.477  40.551  12.850
13756W        W78741  20.936  26.925  10.762
13757W        W78742  15.093  12.800  14.415
13758W        W78743  27.391  13.926   4.109
13759W        W78744  27.423   0.823  13.861
13760W        W78745  26.037  21.137   3.234
13761W        W78746  39.472  35.699   3.083
13762W        W78747  36.179  15.801   1.691
13763W        W78748  24.367  40.183   2.928
13764W        W78749   1.363  41.420  14.845
13765W        W78750  20.446  23.067  10.295
13766W        W78751  27.932   9.324  12.593
13767W        W78752  40.125  20.070   0.271
13768W        W78753  39.763  21.704  10.859
13769W        W78754  20.688  42.423   0.741
13770W        W78755  20.286  16.535  13.421
13771W        W78756  22.521  27.171  10.469
13772W        W78757  24.592  39.458   4.085
13773W        W78758  13.736  39.488  11.943
13774W        W78759   6.188  17.463  12.960
13775W        W78760  10.337  28.624   0.813
13776W        W78761  16.788  24.264  13.440
13777W        W78762  24.617  13.843   4.981
13778W        W78763   9.048  36.273  11.352
13779W        W78764  32.162  40.433   4.511
13780W        W78765  24.551  24.145  13.481
13781W        W78766  17.779  38.498   0.203
13782W        W78767  26.091  37.822   3.685
13783W        W78768  30.950   8.317  12.436
13784W        W78769   4.498  26.561   3.055
13785W        W78770   5.863  44.588   4.929
13786W        W78771  40.935  24.039  14.832
13787W        W78772   6.662  13.957  11.904
13788W        W78773  34.204  36.926   4.485
13789W        W78774  40.037   0.821   1.551
13790W        W78775   4.214  15.806   3.463
13791W        W78776   1.423  32.006  10.770
13792W        W78777  42.275  21.137  12.122
13793W        W78778  16.915  39.957   2.399
13794W        W78779  41.447  13.116   4.567
13795W        W78780  17.011   7.678  12.905
13796W        W78781  33.048  34.296   4.822
13797W        W78782  32.533   2.477  12.767
13798W        W78783  16.745  20.558   0.642
13799W        W78784  44.487   8.628   2.154
13800W        W78785   7.610  26.186   0.974
13801W        W78786  23.233  10.922  10.695
13802W        W78787  30.210  38.815  12.933
13803W        W78788   1.341  42.754   0.369
13804W        W78789  18.025  12.205  11.133
13805W        W78790   7.947  26.411   3.274
13806W        W78791   8.912  38.483   0.293
13807W        W78792   0.201   3.985   0.406
13808W        W78793  18.278   4.281  11.036
13809W        W78794  25.248  15.713   3.585
13810W        W78795  32.420  29.506  11.332
13811W        W78796   3.752  36.591  12.987
13812W        W78797  23.116  30.588   9.730
13813W        W78798  25.298   2.777   1.673
13814W        W78799   3.448  10.698   4.033
13815W        W78800  41.339  11.912  11.618
13816W        W78801  13.753  29.384  13.403
13817W        W78802  31.669  19.220  12.982
13818W        W78803  32.631  41.967  12.974
13819W        W78804  22.014  37.124   0.254
13820W        W78805  22.167  26.121  13.907
13821W        W78806  25.609  31.071  14.518
13822W        W78807   6.610  27.563   0.272
13823W        W78808   0.821  30.572   2.732
13824W        W78809  32.273  20.493  13.077
13825W        W78810   1.983   1.368  12.595
13826W        W78811  31.509  40.153  12.095
13827W        W78812  13.154   6.514   4.872
13828W        W78813  34.431  19.604   4.595
13829W        W78814  43.213  21.703   5.357
13830W        W78815  42.446  41.954   2.360
13831W        W78816   3.111  26.088  13.863
13832W        W78817  33.786  42.029   0.750
13833W        W78818  29.634  26.243  12.363
13834W        W78819  16.854  26.059  14.255
13835W        W78820  42.157  14.596  12.858
13836W        W78821   8.373  41.915   4.382
13837W        W78822  13.252  18.111  14.875
13838W        W78823  22.734  14.383   1.806
13839W        W78824  28.602  21.210  14.876
13840W        W78825   7.427  19.114   4.334
13841W        W78826  10.875  27.964   3.757
13842W        W78827  16.154   3.198   1.456
13843W        W78828  29.101  25.365   2.182
13844W        W78829  43.042  21.200   3.329
13845W        W78830  13.162   8.102   4.075
13846W        W78831  29.167  27.357   2.192
13847W        W78832   2.559  25.563   0.095
13848W        W78833  15.304  22.736  13.335
13849W        W78834   6.002  41.875  14.555
13850W        W78835  28.619   6.268   4.150
13851W        W78836  10.629  11.361   3.456
13852W        W78837  43.558   0.347  10.760
13853W        W78838  33.710  36.435   2.342
13854W        W78839   4.917   4.302   0.268
13855W        W78840  35.070  38.290  11.194
13856W        W78841  32.263   2.942  14.353
13857W        W78842  16.722  37.953   4.559
13858W        W78843  12.386  11.568  10.557
13859W        W78844  36.034   8.388  11.946
13860W        W78845  36.906  28.287  11.589
13861W        W78846  37.036   8.636   4.148
13862W        W78847  25.572  28.656  13.301
13863W        W78848  10.748   5.809   5.009
13864W        W78849  15.204  23.569  13.967
13865W        W78850  42.117  26.131  12.225
13866W        W78851  29.606  39.018  14.083
13867W        W78852  32.506  25.073   1.915
13868W        W78853  25.937  27.689   2.433
13869W        W78854  19.126  42.789  14.770
13870W        W78855  38.780  27.896   2.300
13871W        W78856  24.200  25.065  12.636
13872W        W78857  24.189  28.727   0.906
13873W        W78858  20.214   4.425  10.593
13874W        W78859   2.277   0.271   1.884
13875W        W78860  19.124  35.399   4.255
13876W        W78861  24.521   9.079   4.946
13877W        W78862   9.181  43.146   1.133
13878W        W78863  21.948  34.966   0.833
13879W        W78864  19.757   1.428  10.972
13880W        W78865   3.896  21.228   4.682
13881W        W78866  34.911  39.929  12.964
13882W        W78867  15.763  20.603   4.286
13883W        W78868  31.829  24.171   2.445
13884W        W78869  27.516  13.817  10.627
13885W        W78870  30.677  42.843   3.154
13886W        W78871  16.253  29.653   0.498
13887W        W78872  43.354  23.759   2.639
13888W        W78873  10.590  35.925  14.358
13889W        W78874  10.722  42.282   3.679
13890W        W78875  27.134  28.160   2.180
13891W        W78876  30.415  13.580  11.198
13892W        W78877  24.013  39.474  13.506
13893W        W78878  40.552   0.953  12.464
13894W        W78879  36.604  30.544   0.453
13895W        W78880  10.215   8.751   0.682
13896W        W78881  22.156  30.516  14.435
13897W        W78882  13.779  32.559  14.297
13898W        W78883  43.819  20.501  10.867
13899W        W78884  37.623  44.770  14.672
13900W        W78885  27.788   4.337   3.217
13901W        W78886   6.452  31.373   4.269
13902W        W78887   6.457   0.421   4.285
13903W        W78888  29.755  25.101  11.536
13904W        W78889  12.635   3.155  13.478
13905W        W78890  41.475  37.165   0.895
13906W        W78891  11.106   6.306   1.109
13907W        W78892  28.609  27.944   2.653
13908W        W78893  21.206   4.591   0.372
13909W        W78894   5.816  26.081   2.744
13910W        W78895  33.089   1.342   4.822
13911W        W78896  43.829  18.185  13.568
13912W        W78897  21.024  30.429  13.082
13913W        W78898  43.696  26.055  11.464
13914W        W78899  42.993  22.514   1.371
13915W        W78900   5.894  41.471   1.314
13916W        W78901   7.884  32.409   3.194
13917W        W78902  21.777   0.751  12.860
13918W        W78903  42.705  39.944   1.876
13919W        W78904  12.460  27.151   3.546
13920W        W78905  21.773  21.597   4.198
13921W        W78906  36.331   7.953  12.044
13922W        W78907   6.077  42.855   1.776
13923W        W78908   8.219  43.267  10.596
13924W        W78909  13.324  21.209   2.729
13925W        W78910   0.443  13.640  13.675
13926W        W78911  31.897  13.588  10.856
13927W        W78912  11.244  20.019   2.177
13928W        W78913   8.046   5.255   1.609
13929W        W78914   1.940   6.645   1.810
13930W        W78915  44.895  19.683  14.046
13931W        W78916  26.615  34.913   1.474
13932W        W78917  11.607  37.304   5.001
13933W        W78918  30.827  35.326  13.566
13934W        W78919  26.034  27.898  14.553
13935W        W78920  25.628  31.221   0.022
13936W        W78921  22.700  10.416  13.047
13937W        W78922   2.921   9.208   2.878
13938W        W78923  41.065  36.368  14.871
13939W        W78924  36.192   0.234  13.178
13940W        W78925  37.100  43.828  14.498
13941W        W78926  22.819   7.272  10.354
13942W        W78927   0.492   6.885   1.072
13943W        W78928  32.723  20.316   3.285
13944W        W78929  10.518   6.955   5.274
13945W        W78930  27.420  20.586  11.548
13946W        W78931  22.769   5.981  12.679
13947W        W78932  15.353  29.637   4.125
13948W        W78933   9.075  22.282  11.216
13949W        W78934  37.921   5.517   2.302
13950W        W78935  26.158  27.434  12.287
13951W        W78936   4.919  23.175   1.888
13952W        W78937  34.672  17.584   0.797
13953W        W78938   2.750   7.251   0.686
13954W        W78939  36.725  22.620  11.661
13955W        W78940  30.469  31.894  10.500
13956W        W78941  20.771  33.959  11.476
13957W        W78942  18.154  27.011  12.531
13958W        W78943  32.701  23.157   2.297
13959W        W78944  12.033  42.525   4.298
13960W        W78945   3.996  41.335  12.588
13961W        W78946  28.886  39.400  11.508
13962W        W78947   8.482  27.056  13.534
13963W        W78948   3.231  20.887  13.421
13964W        W78949  22.630  10.780  13.468
13965W        W78950  17.049  15.281   3.706
13966W        W78951   9.368  19.128  14.739
13967W        W78952  16.203  34.322  13.000
13968W        W78953  30.784  36.989   2.375
13969W        W78954  37.325   1.427  14.016
13970W        W78955  26.504  12.387  10.790
13971W        W78956  11.802  17.425   1.725
13972W        W78957  10.927  21.318   1.814
13973W        W78958  43.795   7.409   1.766
13974W        W78959  29.854  42.164   0.832
13975W        W78960  41.526  43.711  11.450
13976W        W78961  19.863  39.706   2.426
13977W        W78962   0.802  44.245   3.593
13978W        W78963  43.345  38.056  13.899
13979W        W78964   3.756  11.618   3.334
13980W        W78965  34.292  31.345   0.832
13981W        W78966   9.942  10.772  14.877
13982W        W78967  26.803  42.241  14.357
13983W        W78968  29.577  32.676   3.648
13984W        W78969  32.004  10.234  13.933
13985W        W78970  39.066  22.579   0.283
13986W        W78971  39.480  32.163   0.301
13987W        W78972  10.692  39.443  12.246
13988W        W78973  33.973  10.054  14.971
13989W        W78974  21.365   6.240   3.708
13990W        W78975   9.203  18.123   2.685
13991W        W78976  30.949  31.571   4.239
13992W        W78977  13.314  40.790   3.880
13993W        W78978  12.264  41.593   4.133
13994W        W78979  27.474  27.198  10.641
13995W        W78980  38.877  29.586  11.632
13996W        W78981  12.061  24.638   4.832
13997W        W78982  42.502   1.494   4.199
13998W        W78983  25.561  44.336   4.151
13999W        W78984   4.876  42.146   0.228
14000W        W78985   7.728  42.305   2.956
14001W        W78986  18.639  12.637  14.470
14002W        W78987  21.138  14.451   3.036
14003W        W78988  14.284  28.425   2.822
14004W        W78989  22.290  27.199   0.771
14005W        W78990  33.174  14.293  11.995
14006W        W78991  29.111   3.401  13.460
14007W        W78992  16.287  22.199  14.886
14008W        W78993  39.082  21.972  13.941
14009W        W78994  40.527  31.841   0.058
14010W        W78995  11.515  25.647  12.576
14011W        W78996  25.497  40.612  14.848
14012W        W78997  25.760   7.184   0.409
14013W        W78998  36.609  10.679   3.704
14014W        W78999  35.152  17.027   1.366
14015W        W79000  35.456  41.852   0.839
14016W        W79001   6.888  37.030  14.475
14017W        W79002   5.454  20.245   3.593
14018W        W79003   2.964  30.581   0.539
14019W        W79004   5.904  15.721  10.582
14020W        W79005   9.809  14.768  10.897
14021W        W79006  34.477  29.581   2.236
14022W        W79007  31.938  24.165  14.365
14023W        W79008  37.095  24.638   2.401
14024W        W79009   1.728  22.320  12.990
14025W        W79010  32.419  21.345  11.446
14026W        W79011  41.838  15.025   4.021
14027W        W79012  32.473  26.331   0.251
14028W        W79013  14.332  13.658  13.329
14029W        W79014  39.135   2.087   0.253
14030W        W79015  39.894   2.697   1.713
14031W        W79016  17.063  13.002   4.147
14032W        W79017   5.301  29.179   0.387
14033W        W79018   2.251   8.681   3.147
14034W        W79019   4.676  14.323   3.751
14035W        W79020   3.138  15.266   4.395
14036W        W79021  37.409   5.954  10.434
14037W        W79022  29.969   8.326   2.264
14038W        W79023  31.232   5.925   0.767
14039W        W79024  30.578  41.553  10.694
14040W        W79025  40.059   1.276   3.630
14041W        W79026  12.791  30.543  14.488
14042W        W79027   0.689  38.904   1.311
14043W        W79028  23.656   2.872   0.862
14044W        W79029  25.451  25.594  12.867
14045W        W79030  29.582  38.063   2.116
14046W        W79031   7.797   8.643   3.199
14047W        W79032  32.630  39.823   0.471
14048W        W79033  16.803   5.396  14.087
14049W        W79034  11.609  26.109   4.214
14050W        W79035  41.978  29.718   4.195
14051W        W79036  41.445   3.667   4.116
14052W        W79037  30.049  21.815  13.299
14053W        W79038  18.278   9.177   0.573
14054W        W79039  20.132  35.480   4.043
14055W        W79040  36.941  17.278   1.003
14056W        W79041  15.770  35.675  10.986
14057W        W79042   0.893  33.620  14.869
14058W        W79043  10.221  19.766   4.540
14059W        W79044  30.462  13.164   3.854
14060W        W79045  16.999  18.189  10.474
14061W        W79046  31.192  39.928  11.678
14062W        W79047  40.011  44.311   3.268
14063W        W79048   1.569  37.036  11.565
14064W        W79049  21.612  21.773   0.339
14065W        W79050   7.956  30.651   1.222
14066W        W79051  44.863   5.977   2.781
14067W        W79052  19.427  18.592   0.202
14068W        W79053   6.732  13.846   1.742
14069W        W79054  21.270   3.472   0.867
14070W        W79055  42.834   6.848  14.377
14071W        W79056  20.239   0.396  14.786
14072W        W79057  24.641  27.485   3.774
14073W        W79058  21.155  10.726  13.647
14074W        W79059  13.116  23.652  12.090
14075W        W79060  20.720  20.766  14.702
14076W        W79061  35.595   8.179  12.097
14077W        W79062  42.737  10.134  13.964
14078W        W79063  36.885  34.620   3.617
14079W        W79064  32.635  39.965   0.964
14080W        W79065   3.320   6.378  14.322
14081W        W79066  22.089  21.328   1.251
14082W        W79067  24.583  12.242   3.336
14083W        W79068   3.494  12.577  12.976
14084W        W79069  25.802  44.763   1.786
14085W        W79070   2.084   4.924  11.132
14086W        W79071  34.054  27.123   3.622
14087W        W79072  14.631  14.734   4.391
14088W        W79073  44.983   9.825  12.520
14089W        W79074  26.634  18.824   3.134
14090W        W79075   6.696  22.569  13.034
14091W        W79076  21.601   8.127  11.072
14092W        W79077  33.803   0.905   1.823
14093W        W79078  21.277  36.766   2.412
14094W        W79079  34.901  38.339   3.672
14095W        W79080  20.465   1.755  14.890
14096W        W79081  27.404  25.653   3.184
14097W        W79082  30.972  11.626  13.309
14098W        W79083  32.681  19.441  11.154
14099W        W79084  29.466  29.610   3.142
14100W        W79085  24.500  12.335   3.852
14101W        W79086   0.373   7.393  11.548
14102W        W79087  21.691  16.327  13.342
14103W        W79088   6.359  14.051   0.237
14104W        W79089  11.185  10.650  12.883
14105W        W79090  28.581  11.821   0.392
14106W        W79091  30.903  35.118  11.667
14107W        W79092  39.826  40.261   4.565
14108W        W79093  29.141  41.365   2.818
14109W        W79094  31.370  24.613  14.909
14110W        W79095  14.119   7.643   3.136
14111W        W79096  34.432   9.402  11.959
14112W        W79097  29.569  26.452   4.684
14113W        W79098  17.784  23.573  14.793
14114W        W79099  16.046   3.039   0.061
14115W        W79100   0.710  41.495  13.304
14116W        W79101   5.125  40.340  12.338
14117W        W79102  36.137  43.373  12.003
14118W        W79103  13.271  24.206   3.205
14119W        W79104  36.562   0.549   1.278
14120W        W79105  33.086  28.167   2.850
14121W        W79106  13.373  14.313  11.588
14122W        W79107  23.284  30.843  11.441
14123W        W79108  31.296  38.710  11.932
14124W        W79109  40.202   5.604  13.437
14125W        W79110   9.276  13.117   3.540
14126W        W79111  21.329  42.376  13.369
14127W        W79112  22.515  26.264  12.159
14128W        W79113  14.514  17.105   3.323
14129W        W79114  35.312  28.912   3.649
14130W        W79115  40.918  27.607  12.900
14131W        W79116   1.257  23.586   1.065
14132W        W79117  11.759  18.618   0.517
14133W        W79118   2.734  33.094   2.720
14134W        W79119  44.942  42.806  10.625
14135W        W79120   2.361  22.357  10.416
14136W        W79121   8.886  11.664  14.066
14137W        W79122   1.511  32.931   1.773
14138W        W79123  29.538  12.659   1.830
14139W        W79124  38.689  26.326   0.410
14140W        W79125  40.818   8.865   1.308
14141W        W79126  13.940  13.441   0.725
14142W        W79127  32.872  20.205   4.093
14143W        W79128  19.563   2.396   3.465
14144W        W79129   5.711  36.076  11.507
14145W        W79130   0.819  11.783  13.903
14146W        W79131  16.691   8.014   0.404
14147W        W79132   4.442  22.030   2.906
14148W        W79133  13.595  41.941  12.661
14149W        W79134  17.271  29.744   0.238
14150W        W79135   7.152  10.228  13.953
14151W        W79136  17.132  37.978  11.490
14152W        W79137   9.810  34.108  10.500
14153W        W79138   6.292  36.576   1.387
14154W        W79139  21.014  11.801   3.702
14155W        W79140  29.524   9.835   3.741
14156W        W79141   2.310  36.392  12.980
14157W        W79142   1.842  37.035   2.293
14158W        W79143  29.873  40.305  13.871
14159W        W79144  17.623   0.390   2.881
14160W        W79145   2.960  18.087   4.066
14161W        W79146  27.027  15.637   3.714
14162W        W79147   2.969  36.322  12.360
14163W        W79148  13.718  34.301  11.228
14164W        W79149  36.962   0.050  14.591
14165W        W79150  43.999  26.124   0.553
14166W        W79151  38.828  26.563  14.893
14167W        W79152  15.976  21.132   4.985
14168W        W79153   2.171   5.822   4.651
14169W        W79154   8.843  33.457   0.296
14170W        W79155  34.124  20.634  10.740
14171W        W79156  27.671  29.046  12.516
14172W        W79157  16.086  25.844   2.847
14173W        W79158  23.508  15.357   1.842
14174W        W79159  34.197  16.829  13.807
14175W        W79160  13.664  22.991   0.914
14176W        W79161  36.251  12.347  10.020
14177W        W79162  31.939   2.224   3.775
14178W        W79163  29.484  40.327  12.870
14179W        W79164  37.911  37.912  14.338
14180W        W79165  22.509  20.553  14.756
14181W        W79166  21.909  23.881  12.075
14182W        W79167  24.630  28.898  13.516
14183W        W79168  33.144  12.618   0.986
14184W        W79169  39.054  36.564  11.614
14185W        W79170  13.657  38.139  13.500
14186W        W79171  20.992   3.431   2.744
14187W        W79172  12.849  37.578  13.861
14188W        W79173   9.166  33.017  12.016
14189W        W79174   1.245  44.890  14.678
14190W        W79175  10.905   8.731   2.340
14191W        W79176  20.110   1.909  14.072
14192W        W79177  33.436  12.712   5.283
14193W        W79178  27.210   5.475   3.720
14194W        W79179  27.199  27.761   2.584
14195W        W79180  22.320  44.257   4.251
14196W        W79181   8.795  33.990  12.535
14197W        W79182   8.972  23.603  14.920
14198W        W79183  34.778  35.875   0.462
14199W        W79184  18.106  36.075  13.899
14200W        W79185  43.453  20.034   3.422
14201W        W79186   9.736   5.019   4.106
14202W        W79187   0.020  16.546   4.694
14203W        W79188  30.420  35.067  11.594
14204W        W79189  41.219  15.323  13.936
14205W        W79190   8.153  23.302  14.948
14206W        W79191  17.907  28.749  14.562
14207W        W79192  42.950  31.643  12.817
14208W        W79193   7.741  26.955  12.515
14209W        W79194   5.058  27.966   5.138
14210W        W79195  14.252  36.364  11.646
14211W        W79196  15.118  33.949  11.368
14212W        W79197  36.319   9.245   3.009
14213W        W79198  38.603  16.653   3.741
14214W        W79199  12.669  19.765   1.643
14215W        W79200  20.769  16.737   2.228
14216W        W79201  11.172  16.920  13.929
14217W        W79202  28.097  23.697   3.222
14218W        W79203  16.825  44.831  11.550
14219W        W79204   6.441  44.834  12.067
14220W        W79205  33.951  25.103  13.478
14221W        W79206  19.096  44.970   2.969
14222W        W79207  24.200  19.731  12.886
14223W        W79208  33.864  17.627  13.411
14224W        W79209  18.695  33.099  11.909
14225W        W79210   9.940  30.390   0.853
14226W        W79211   0.487  10.546   3.110
14227W        W79212   0.272   6.264  14.825
14228W        W79213  23.542  25.302   2.846
14229W        W79214  36.441  22.582   0.007
14230W        W79215  19.070  21.719   2.193
14231W        W79216  23.417  36.463  12.902
14232W        W79217   7.287  31.614   4.384
14233W        W79218   0.202  15.826   3.359
14234W        W79219  29.249  19.690   2.172
14235W        W79220   1.490  30.982  10.782
14236W        W79221  26.283  17.614  11.492
14237W        W79222   2.346   2.680  14.238
14238W        W79223  41.393   0.425   4.792
14239W        W79224  39.807   8.620  13.625
14240W        W79225  28.686  43.264  14.987
14241W        W79226  41.568   6.408   4.623
14242W        W79227  11.172   7.876  12.035
14243W        W79228   2.335  32.892  11.012
14244W        W79229  41.588  39.143  13.881
14245W        W79230  14.820  42.253  14.862
14246W        W79231  17.588  30.702   3.616
14247W        W79232   2.278  15.369   2.982
14248W        W79233  38.559   7.720  13.386
14249W        W79234  27.176  12.509   2.724
14250W        W79235   3.421  34.758  12.873
14251W        W79236  17.545  43.900   1.351
14252W        W79237   2.284  15.818   4.663
14253W        W79238   6.285  24.766   2.825
14254W        W79239  35.437  25.435   3.135
14255W        W79240  31.458  11.301  14.884
14256W        W79241   0.750   0.037   2.825
14257W        W79242   2.980   3.195  13.527
14258W        W79243  44.908  11.390   1.087
14259W        W79244  16.760  44.556  13.129
14260W        W79245   2.461  34.409  11.471
14261W        W79246   6.777   0.227   4.638
14262W        W79247  30.354  37.502   0.907
14263W        W79248  37.941   2.029   0.428
14264W        W79249  20.972  14.282   1.270
14265W        W79250  13.634  44.984  11.044
14266W        W79251  37.115  39.362  11.761
14267W        W79252   2.493  17.706   4.495
14268W        W79253  39.353   4.235   3.630
14269W        W79254  10.549  25.984  14.927
14270W        W79255  37.923  10.323   4.807
14271W        W79256  41.909  14.146   5.018
14272W        W79257  37.367   8.169   2.818
14273W        W79258   2.759  16.293   1.870
14274W        W79259  37.477  27.009  13.816
14275W        W79260  12.571  40.902   0.288
14276W        W79261  25.933  28.925   5.424
14277W        W79262  22.569  30.606  11.017
14278W        W79263   2.473   8.627  14.910
14279W        W79264  16.010  37.173   4.570
14280W        W79265  30.443  35.464  12.454
14281W        W79266  37.390  25.602   0.889
14282W        W79267  19.635   7.459   3.421
14283W        W79268  23.338  11.313  14.595
14284W        W79269   7.889  17.982  11.220
14285W        W79270   0.757  34.041   4.555
14286W        W79271  12.406  20.431   4.292
14287W        W79272   5.457  28.096   4.228
14288W        W79273  32.147   7.804  12.502
14289W        W79274   7.099  18.757   4.144
14290W        W79275   9.059  22.492   3.215
14291W        W79276  34.102   5.123   2.425
14292W        W79277  23.572  42.816  14.958
14293W        W79278  11.308  41.857   4.772
14294W        W79279  34.890  26.217  13.362
14295W        W79280  42.436   2.759   1.165
14296W        W79281  16.100  28.226  12.980
14297W        W79282  14.349  22.159  10.350
14298W        W79283   1.486  18.350  13.821
14299W        W79284  26.680  25.560   1.770
14300W        W79285  43.862  41.955   3.358
14301W        W79286  23.132  38.337   3.313
14302W        W79287  43.742  33.193   0.012
14303W        W79288  33.644   7.219   2.263
14304W        W79289  21.576   0.719  11.137
14305W        W79290  16.081  20.368  14.194
14306W        W79291  28.913  29.175  11.416
14307W        W79292  25.567   4.994   4.977
14308W        W79293  44.772  20.007  11.540
14309W        W79294  13.243  23.140   2.725
14310W        W79295  32.466  14.677  14.615
14311W        W79296   0.469  14.122   3.854
14312W        W79297  42.953  33.535  14.261
14313W        W79298  31.939  27.539   2.111
14314W        W79299  31.553  44.416   0.828
14315W        W79300  22.174   1.480  12.531
14316W        W79301  43.803  23.554  14.021
14317W        W79302  11.294  20.262   0.121
14318W        W79303  22.258  39.022  13.561
14319W        W79304  32.042  20.692   0.894
14320W        W79305  29.872  12.524   2.363
14321W        W79306  35.847   0.365   2.908
14322W        W79307  21.808  17.642  13.530
14323W        W79308  17.160  23.540   3.590
14324W        W79309  26.948   0.307   1.266
14325W        W79310  16.566  42.543  14.613
14326W        W79311  29.131  32.296   2.751
14327W        W79312  16.868   9.928   3.243
14328W        W79313   0.844  42.777  14.015
14329W        W79314   3.920  16.317  12.468
14330W        W79315   3.383  40.890  11.862
14331W        W79316   7.159   1.915   4.098
14332W        W79317   2.061  27.975   2.128
14333W        W79318  31.582  29.534   0.410
14334W        W79319   2.030  38.132  11.168
14335W        W79320   6.846   4.697   3.105
14336W        W79321   6.896   8.768  11.032
14337W        W79322  15.394  21.233  11.941
14338W        W79323  34.534  11.581   0.482
14339W        W79324  14.689   8.850   2.379
14340W        W79325  41.685  14.694  13.157
14341W        W79326  40.349   4.358   2.361
14342W        W79327  22.266  33.987  12.434
14343W        W79328   3.354  17.790   0.232
14344W        W79329  31.119  35.893  14.226
14345W        W79330  28.964  29.316   4.217
14346W        W79331  10.280   1.705  13.787
14347W        W79332  31.956  26.748  10.625
14348W        W79333  34.568  38.571  11.124
14349W        W79334  34.314  20.897  13.162
14350W        W79335  20.256  22.143  13.532
14351W        W79336   9.249   2.777   4.862
14352W        W79337  38.140  37.420   1.211
14353W        W79338  44.425  17.616   2.803
14354W        W79339  14.530   4.001  13.501
14355W        W79340  42.447  32.258  11.634
14356W        W79341  21.121  33.920  11.054
14357W        W79342  41.889   0.445   1.170
14358W        W79343  43.703   0.289   2.299
14359W        W79344  10.417   4.473  13.461
14360W        W79345  38.835  20.017  14.023
14361W        W79346   8.851  36.888   5.272
14362W        W79347  34.091   2.443   2.772
14363W        W79348  21.610   0.730   0.434
14364W        W79349  33.455   2.424  10.598
14365W        W79350   8.793  42.258  14.896
14366W        W79351  39.412  38.942   1.464
14367W        W79352   7.349  16.074  13.310
14368W        W79353  18.639  27.087   0.266
14369W        W79354  20.129  12.783  13.988
14370W        W79355   0.723  11.113  14.419
14371W        W79356  14.236  33.103   4.228
14372W        W79357  25.931   2.211  12.020
14373W        W79358   9.700  15.651   2.232
14374W        W79359  31.646  10.914   0.285
14375W        W79360  18.568  34.269   2.686
14376W        W79361  10.083  35.066  13.424
14377W        W79362  25.754  15.729   1.403
14378W        W79363  32.875  32.888   1.433
14379W        W79364  10.591  40.021   1.210
14380W        W79365  12.220  39.983  12.400
14381W        W79366  13.120  27.267   0.319
14382W        W79367  40.352  39.544  12.509
14383W        W79368   0.141  14.686  10.028
14384W        W79369  42.284   0.774   0.984
14385W        W79370   2.153  28.551  13.121
14386W        W79371  43.423  25.973  12.399
14387W        W79372  14.193  15.779   9.959
14388W        W79373  25.141  24.329  14.892
14389W        W79374  39.539  29.463  12.874
14390W        W79375  36.068   0.416  11.734
14391W        W79376   0.330   8.356  10.683
14392W        W79377   1.633  14.854  13.469
14393W        W79378   2.633  33.827   3.615
14394W        W79379  24.442  21.619  12.935
14395W        W79380   3.225  44.023   0.775
14396W        W79381  17.836  22.484  12.027
14397W        W79382  38.818  24.253   2.693
14398W        W79383  37.921  17.078   3.608
14399W        W79384  10.027  32.197  10.064
14400W        W79385  28.873  20.208   3.793
14401W        W79386   2.743   5.003   4.561
14402W        W79387  33.644  11.870   1.052
14403W        W79388  16.760  43.292   4.167
14404W        W79389   6.139  33.897  11.682
14405W        W79390  19.133  36.229  14.723
14406W        W79391  19.539   9.206  10.784
14407W        W79392  12.744  35.035   2.717
14408W        W79393  30.202  40.153  14.777
14409W        W79394  30.927  26.613   4.635
14410W        W79395  40.778  38.057   1.222
14411W        W79396  32.123  28.598   1.288
14412W        W79397  17.226   3.930   2.704
14413W        W79398  28.181  37.505  14.510
14414W        W79399  19.167  22.524   3.271
14415W        W79400   1.764  13.799   3.724
14416W        W79401  20.982  27.567   1.309
14417W        W79402  41.915  12.697   3.294
14418W        W79403   4.481  13.844   1.323
14419W        W79404  29.088  26.538  14.365
14420W        W79405  16.782  20.752  13.489
14421W        W79406  40.889  41.381  13.824
14422W        W79407  17.840  42.949   1.591
14423W        W79408  19.270  30.409  12.332
14424W        W79409   7.205   4.325   4.663
14425W        W79410   0.476  13.066   4.918
14426W        W79411   1.469   0.597  14.035
14427W        W79412  14.372   1.513  10.615
14428W        W79413  28.145  27.861   2.369
14429W        W79414  35.010   7.758  12.587
14430W        W79415  35.573   6.891  11.693
14431W        W79416  13.592  27.642  12.562
14432W        W79417  10.070  21.430  14.329
14433W        W79418  10.294   1.390   4.146
14434W        W79419  21.960  37.532   2.299
14435W        W79420  24.603  35.081   0.815
14436W        W79421   8.297  27.962  12.326
14437W        W79422   9.079  22.519  13.872
14438W        W79423  40.378  23.202   1.839
14439W        W79424  37.818  27.968   0.512
14440W        W79425  23.493   3.271   1.165
14441W        W79426  18.201  20.656   0.683
14442W        W79427  16.865  30.856  14.870
14443W        W79428  43.550  19.822   1.698
14444W        W79429  26.745  38.101  12.376
14445W        W79430   5.203  16.845   1.238
14446W        W79431   9.682  19.999  14.331
14447W        W79432  43.698  29.519   3.643
14448W        W79433   2.992  34.173  13.636
14449W        W79434  42.295   6.733   0.184
14450W        W79435  20.172  43.236   5.173
14451W        W79436  11.209   7.221  12.123
14452W        W79437  34.560  38.396   1.036
14453W        W79438  36.447  15.198  14.255
14454W        W79439  34.063  31.929  13.824
14455W        W79440   8.094  39.963   2.439
14456W        W79441  30.880  43.361   0.501
14457W        W79442  39.849  23.562  14.361
14458W        W79443  35.658  31.073   4.514
14459W        W79444  34.082  25.488  14.946
14460W        W79445  35.979  27.606  13.807
14461W        W79446  10.622  35.151  12.556
14462W        W79447  39.834  38.544  12.629
14463W        W79448  22.682  15.250  12.831
14464W        W79449   8.506  29.487   3.283
14465W        W79450  37.592  24.622   0.892
14466W        W79451  28.652  17.894  10.842
14467W        W79452   9.466   9.605  13.297
14468W        W79453   9.261  25.533   2.883
14469W        W79454   3.858  11.197  11.061
14470W        W79455  30.425  22.175   1.974
14471W        W79456  43.970  12.603   0.524
14472W        W79457  30.686  12.411   3.328
14473W        W79458   7.964  19.224   1.668
14474W        W79459   1.436  35.853  13.136
14475W        W79460  39.654  18.771   3.832
14476W        W79461  20.731   5.250  13.469
14477W        W79462   3.401  37.041  12.372
14478W        W79463  11.662   6.856   0.797
14479W        W79464  22.478  28.392   0.208
14480W        W79465  36.357  36.347   0.221
14481W        W79466  39.105  40.751  13.882
14482W        W79467  14.038  19.225  11.538
14483W        W79468   1.372  23.721   2.527
14484W        W79469  13.535  43.368  10.652
14485W        W79470  14.046  43.323  10.685
14486W        W79471  39.098  44.878   0.042
14487W        W79472   6.409  24.943   2.227
14488W        W79473  35.951  21.835   0.862
14489W        W79474  19.330   7.491   1.783
14490W        W79475  42.125  33.743  12.036
14491W        W79476  39.943  20.972   3.256
14492W        W79477   3.775  29.911   3.670
14493W        W79478  30.070  44.318  13.674
14494W        W79479  38.575  41.918   0.233
14495W        W79480  18.333   5.528   0.492
14496W        W79481  17.714  33.698  14.358
14497W        W79482  27.129  41.981   4.171
14498W        W79483  24.162  15.281  10.685
14499W        W79484   0.684   1.047  11.285
14500W        W79485   9.119  18.603  10.710
14501W        W79486  14.684  44.056   1.426
14502W        W79487  13.889  36.009  11.628
14503W        W79488  37.490  31.593   3.357
14504W        W79489  20.545  39.566   4.205
14505W        W79490   8.718  21.303   4.530
14506W        W79491  14.857  37.960  12.036
14507W        W79492  19.306  27.582   3.192
14508W        W79493  39.443  16.691   5.655
14509W        W79494  14.754  40.243   4.581
14510W        W79495  24.719  34.741   3.538
14511W        W79496  20.766  40.857  12.972
14512W        W79497   8.737  23.709   0.716
14513W        W79498  18.119   4.395  14.375
14514W        W79499  34.536   4.929   4.734
14515W        W79500  25.949  17.292   5.103
14516W        W79501  21.812  16.801   2.228
14517W        W79502  40.745  27.041   0.902
14518W        W79503  22.032  33.121  10.719
14519W        W79504  34.433   9.897   4.072
14520W        W79505   8.773   8.708   2.971
14521W        W79506  41.280  39.456   3.270
14522W        W79507   0.828  40.714   5.000
14523W        W79508   8.934  32.702  11.345
14524W        W79509  22.524   0.894   2.140
14525W        W79510  17.841  44.888   4.729
14526W        W79511  18.777  34.128   0.441
14527W        W79512  33.676   2.122   4.601
14528W        W79513   1.355  10.201   0.414
14529W        W79514  31.645  30.071   1.883
14530W        W79515  14.549   2.596   2.253
14531W        W79516  41.067  32.438   4.580
14532W        W79517  43.244  35.221  12.893
14533W        W79518  41.002  30.850   3.729
14534W        W79519   8.666  13.233  12.575
14535W        W79520  34.534   6.264  12.834
14536W        W79521  29.748  22.774  11.159
14537W        W79522  36.147  34.202   0.194
14538W        W79523  28.569  37.109  11.560
14539W        W79524  26.043  19.549   0.257
14540W        W79525   6.700  32.602   1.230
14541W        W79526  29.876  31.720   5.225
14542W        W79527  43.226  36.312   3.629
14543W        W79528   2.928  13.173   2.293
14544W        W79529  20.624  25.723  11.480
14545W        W79530  13.842  27.982  12.881
14546W        W79531  44.640  34.639   9.881
14547W        W79532   9.910  42.221  13.535
14548W        W79533  12.537   9.328   2.197
14549W        W79534  30.457  27.610  10.769
14550W        W79535  25.781  14.369   3.725
14551W        W79536  29.237   8.642  14.739
14552W        W79537  32.333   0.019   4.532
14553W        W79538  26.011  13.812   3.151
14554W        W79539  20.449   4.288   4.110
14555W        W79540  30.216  36.290  12.146
14556W        W79541  27.680  22.688   0.730
14557W        W79542  14.523   1.272  11.903
14558W        W79543  25.739  39.175  12.084
14559W        W79544  15.662  22.626  10.558
14560W        W79545  34.501  28.554   2.284
14561W        W79546  24.023  27.444   0.298
14562W        W79547  15.470  17.543  10.988
14563W        W79548   0.696   3.231   0.385
14564W        W79549  44.844  20.184  13.961
14565W        W79550  32.386  23.686   4.182
14566W        W79551  15.076  37.097   3.678
14567W        W79552  20.254  14.178  13.349
14568W        W79553  36.372  19.881  12.498
14569W        W79554  38.027  14.317   2.679
14570W        W79555  21.644  37.680  14.390
14571W        W79556  42.135  24.402  10.384
14572W        W79557  18.935  14.274  11.505
14573W        W79558  17.361  36.884  12.133
14574W        W79559  34.710   6.687   4.072
14575W        W79560   8.938  14.832   2.663
14576W        W79561  40.246  44.334   3.873
14577W        W79562   5.164   8.471  10.264
14578W        W79563  19.051  13.651   4.596
14579W        W79564  24.970  22.142   0.812
14580W        W79565  38.358  30.944  10.652
14581W        W79566  11.885  13.710  13.993
14582W        W79567  20.148  34.380   3.558
14583W        W79568  27.463  35.896  13.362
14584W        W79569  18.665  13.090   1.261
14585W        W79570   0.683   0.336   4.038
14586W        W79571  24.500  10.307   0.915
14587W        W79572  30.598  15.824   3.616
14588W        W79573  15.768  15.088   4.237
14589W        W79574   5.419  36.564  11.893
14590W        W79575  15.803  25.531  12.470
14591W        W79576  21.663  16.548   3.573
14592W        W79577   2.175   6.177   0.499
14593W        W79578  13.626  33.145   1.774
14594W        W79579  18.671  29.590   4.483
14595W        W79580  14.352  17.843  14.021
14596W        W79581  17.764  16.773   0.788
14597W        W79582  30.638   4.305  14.854
14598W        W79583  21.672  10.493  12.945
14599W        W79584  31.021   4.441  12.062
14600W        W79585  13.597  24.228  12.896
14601W        W79586  39.817   2.373   4.191
14602W        W79587  17.798  28.645   5.082
14603W        W79588  17.870  29.126  13.387
14604W        W79589  32.504   4.162   0.915
14605W        W79590   4.261  35.518  14.946
14606W        W79591  29.749   6.209   5.168
14607W        W79592  31.280  38.933   3.773
14608W        W79593   7.211  13.242  10.511
14609W        W79594   0.978  38.373   3.170
14610W        W79595  43.529  32.067   1.362
14611W        W79596  40.910   7.011  13.558
14612W        W79597  12.048  37.292  11.959
14613W        W79598  15.860  23.093  11.986
14614W        W79599  27.053  17.177   0.687
14615W        W79600  39.601  26.962   2.404
14616W        W79601  36.019  15.491  14.146
14617W        W79602  10.918   2.032  13.217
14618W        W79603  35.864  12.849   2.577
14619W        W79604  22.074  18.650   2.624
14620W        W79605   3.113  25.004  13.487
14621W        W79606   4.253  10.376  12.005
14622W        W79607   8.021  33.341   0.434
14623W        W79608  31.481  18.933   3.187
14624W        W79609  10.709  13.376  12.828
14625W        W79610  36.038  39.214  11.000
14626W        W79611  20.047  21.047  14.247
14627W        W79612  11.596   5.612  14.287
14628W        W79613  37.462  16.330  11.112
14629W        W79614  25.939  23.536   2.620
14630W        W79615  25.078   4.697  13.781
14631W        W79616  25.864  17.803   4.268
14632W        W79617   5.487  38.889   0.119
14633W        W79618  44.039  23.605  13.407
14634W        W79619   6.747  11.196   0.876
14635W        W79620  33.271   8.583   0.505
14636W        W79621   8.263  30.260   0.165
14637W        W79622  11.784  24.908  11.536
14638W        W79623  19.034  40.728  13.536
14639W        W79624  29.578  15.204  14.563
14640W        W79625  34.822   8.914  13.905
14641W        W79626  34.587   6.664   0.003
14642W        W79627   7.363  12.414   0.940
14643W        W79628   4.414  19.553   4.728
14644W        W79629  40.428  34.667  14.968
14645W        W79630  14.665  40.485   1.254
14646W        W79631  36.344   9.683   3.687
14647W        W79632  11.318  38.131   1.844
14648W        W79633  42.582  17.639   1.161
14649W        W79634  28.883  41.087   0.950
14650W        W79635   6.849  37.018   1.001
14651W        W79636  10.979  27.379  14.069
14652W        W79637   6.762  28.917   4.608
14653W        W79638  38.986  30.665   2.276
14654W        W79639  33.122  23.485   0.336
14655W        W79640  25.230  29.208  14.336
14656W        W79641  40.496  29.583  11.173
14657W        W79642  34.087   8.763  14.387
14658W        W79643  15.801  42.691  13.590
14659W        W79644   7.149   8.424   4.057
14660W        W79645   7.323  36.129   3.169
14661W        W79646  18.385   4.979  11.152
14662W        W79647   5.792  10.288  13.734
14663W        W79648  34.416  11.494   4.093
14664W        W79649  10.377  39.060  12.372
14665W        W79650  13.775  38.265   0.263
14666W        W79651  29.672   8.716   1.307
14667W        W79652  36.323  26.153  12.549
14668W        W79653  37.726   3.448  11.106
14669W        W79654  40.969  30.401   1.490
14670W        W79655   6.821  35.748  12.186
14671W        W79656  20.539  22.548   4.324
14672W        W79657   9.998  27.121   0.947
14673W        W79658   1.522  19.836   0.577
14674W        W79659   3.315  32.493  11.978
14675W        W79660   4.139  27.678  14.070
14676W        W79661   3.013   0.895  14.865
14677W        W79662  19.976   6.901   3.642
14678W        W79663  20.070  17.154  14.435
14679W        W79664  18.831   4.323   0.720
14680W        W79665  27.926  15.274  12.816
14681W        W79666  15.949  25.961   0.467
14682W        W79667   5.937  44.285  13.500
14683W        W79668   9.400  18.760  12.965
14684W        W79669  40.861  28.933  13.059
14685W        W79670   6.014  24.555   3.671
14686W        W79671  23.108  11.364   2.295
14687W        W79672   4.105  35.471  11.105
14688W        W79673   4.918  11.069  13.098
14689W        W79674  18.520   2.884   3.349
14690W        W79675   4.204  21.121   3.914
14691W        W79676  23.963  13.143  12.960
14692W        W79677   7.441  25.184   1.428
14693W        W79678  22.483  37.850  13.991
14694W        W79679  27.074  31.894   1.687
14695W        W79680  34.826  10.597   3.271
14696W        W79681  40.424  42.558  11.597
14697W        W79682  36.289   2.337   1.647
14698W        W79683  41.801  21.146  10.883
14699W        W79684  14.703  31.024   4.142
14700W        W79685  36.974  15.937   4.995
14701W        W79686  40.406   3.422   0.971
14702W        W79687   6.785  12.136   3.614
14703W        W79688  41.595   4.464  14.728
14704W        W79689  12.726   9.417  11.529
14705W        W79690  14.806   9.412  11.961
14706W        W79691  36.368  31.487   2.323
14707W        W79692  43.044   7.627  12.857
14708W        W79693  17.854   4.352  14.930
14709W        W79694  35.872   8.051  13.871
14710W        W79695  14.960  14.649  12.047
14711W        W79696  12.285  24.000  13.544
14712W        W79697   4.905  13.229  14.443
14713W        W79698   0.771  42.148  14.084
14714W        W79699   1.907  36.827   1.831
14715W        W79700  30.981  19.489  14.733
14716W        W79701  18.197  38.988  11.309
14717W        W79702  42.239  33.456   0.901
14718W        W79703  43.283  11.229  13.419
14719W        W79704  41.355  44.308   2.980
14720W        W79705  43.760   5.486  12.103
14721W        W79706  14.951  31.178   5.022
14722W        W79707  31.046   5.569  13.477
14723W        W79708   0.514  13.172  13.979
14724W        W79709  39.994  10.738   4.089
14725W        W79710  28.766  16.011   2.398
14726W        W79711  14.860  18.083  10.740
14727W        W79712  29.592   9.408  12.410
14728W        W79713  41.428  15.348   1.648
14729W        W79714   0.761  26.102  10.678
14730W        W79715   2.947  10.687   2.317
14731W        W79716   3.978  34.668  10.666
14732W        W79717  22.740  22.608   1.875
14733W        W79718  30.246  24.457   4.603
14734W        W79719  43.382  15.975   4.493
14735W        W79720  38.077  35.391   1.272
14736W        W79721  15.333  18.747   2.858
14737W        W79722  29.679  12.625  10.742
14738W        W79723  35.089  23.189   3.889
14739W        W79724  13.152  20.546  13.838
14740W        W79725  30.672  37.874  12.014
14741W        W79726  11.132  19.767  13.765
14742W        W79727  18.595  19.723  13.505
14743W        W79728  42.625  26.216  11.432
14744W        W79729   6.659   8.219   3.299
14745W        W79730  37.298   3.576  10.835
14746W        W79731   7.524  40.791  13.841
14747W        W79732   7.464  28.455  14.842
14748W        W79733  32.843  16.035  14.393
14749W        W79734  42.533  13.351  12.717
14750W        W79735   4.665  44.625   1.668
14751W        W79736  43.046  41.266  11.117
14752W        W79737  41.978   2.146   4.715
14753W        W79738  17.395  43.337   2.188
14754W        W79739  34.936  32.789   4.561
14755W        W79740  14.966   9.792  11.241
14756W        W79741  28.951  36.733  13.603
14757W        W79742  19.931  30.999  10.753
14758W        W79743  15.639   7.180   1.781
14759W        W79744  32.666  10.376  10.730
14760W        W79745  40.991   0.752   1.405
14761W        W79746  27.108   2.497   4.197
14762W        W79747   2.372  10.183  10.405
14763W        W79748  32.240   0.798   4.049
14764W        W79749  21.532   8.779   2.678
14765W        W79750  34.527  13.931  11.576
14766W        W79751  40.966   3.659   1.908
14767W        W79752  18.559  38.632   1.762
14768W        W79753  19.242  35.739   3.280
14769W        W79754  32.314  23.040   3.767
14770W        W79755  30.012  24.236  11.968
14771W        W79756  37.148  40.818  12.118
14772W        W79757  29.975   7.215   0.082
14773W        W79758  29.990  30.691   4.294
14774W        W79759  12.618  13.017  14.095
14775W        W79760   6.271  36.564   0.824
14776W        W79761  15.767  10.087   3.715
14777W        W79762   3.079  12.872  12.511
14778W        W79763  38.093  36.433  11.530
14779W        W79764   4.786  11.154  12.189
14780W        W79765  13.256   8.639   2.400
14781W        W79766  41.529  27.203   0.528
14782W        W79767  18.215  14.452  11.484
14783W        W79768  14.678  14.965   3.570
14784W        W79769  11.858   6.154   4.627
14785W        W79770  38.057  30.097   3.941
14786W        W79771  23.531  39.493  14.995
14787W        W79772  15.286   0.894   2.822
14788W        W79773  37.584  10.283  13.480
14789W        W79774  28.063  44.276  12.458
14790W        W79775  33.786  13.282   1.500
14791W        W79776  31.014  14.697   1.226
14792W        W79777  14.782  29.664   2.327
14793W        W79778  31.519   3.705  11.533
14794W        W79779  23.172  39.318  12.615
14795W        W79780   1.776   8.480   3.282
14796W        W79781  36.873  26.241   3.008
14797W        W79782  39.521  13.616  14.272
14798W        W79783  44.441   5.716   1.667
14799W        W79784  23.628  16.926  11.073
14800W        W79785   4.835  21.760   0.715
14801W        W79786  15.630  42.974  11.526
14802W        W79787  36.450  17.555   4.333
14803W        W79788  36.621  29.367   4.171
14804W        W79789  19.528  37.339   1.775
14805W        W79790   6.121  38.115   3.569
14806W        W79791  44.698  10.213  10.850
14807W        W79792  34.504  18.605  13.742
14808W        W79793  32.380  21.658   1.270
14809W        W79794  17.588  38.637  12.991
14810W        W79795  31.671  44.828  12.143
14811W        W79796  43.850  16.846  14.870
14812W        W79797   3.373  33.473  11.388
14813W        W79798   8.593  29.007   3.578
14814W        W79799   8.146   0.780   4.006
14815W        W79800   0.728   8.817   0.173
14816W        W79801  28.577  40.825   0.151
14817W        W79802  23.274  30.895  14.848
14818W        W79803  27.206  16.788  14.271
14819W        W79804  32.779  39.893   3.311
14820W        W79805  42.419   4.881   0.994
14821W        W79806   6.972  42.461  11.912
14822W        W79807  14.416  34.864   5.063
14823W        W79808   9.232  40.846  12.855
14824W        W79809  42.424   7.725  12.028
14825W        W79810  22.768  13.826  13.529
14826W        W79811  20.166  16.448  12.024
14827W        W79812   7.457   8.075  11.665
14828W        W79813   5.313   6.659   2.366
14829W        W79814  33.359  30.428  10.703
14830W        W79815  30.411  20.249  14.885
14831W        W79816  32.778  24.505  11.150
14832W        W79817  16.394   4.775   1.805
14833W        W79818  24.741  39.402   2.296
14834W        W79819  26.442  31.026  12.692
14835W        W79820  25.641  40.086  12.451
14836W        W79821  43.006  35.071   0.226
14837W        W79822  15.678  22.288  11.691
14838W        W79823  13.602  38.519   3.710
14839W        W79824  14.136  10.898   2.892
14840W        W79825   9.856  18.137   3.992
14841W        W79826  30.015   7.141  10.580
14842W        W79827  36.099   0.439   3.362
14843W        W79828  44.660  26.462   4.995
14844W        W79829  21.045  16.335   2.095
14845W        W79830  21.179  25.393  12.094
14846W        W79831  20.083  12.855  12.323
14847W        W79832  14.034  42.348   0.493
14848W        W79833   7.476   9.260   4.289
14849W        W79834  25.628  25.551   1.773
14850W        W79835  44.938  25.096  14.010
14851W        W79836  20.404  37.205   1.693
14852W        W79837  16.054  28.490  10.653
14853W        W79838  42.456  40.835   3.779
14854W        W79839   6.392   4.831   3.299
14855W        W79840  18.813  14.747   2.390
14856W        W79841  26.988  39.048  10.715
14857W        W79842  24.156  42.038   4.509
14858W        W79843  42.538   8.632   0.695
14859W        W79844  38.086  11.257  12.019
14860W        W79845  20.330  20.461   5.402
14861W        W79846  42.766  16.131   3.097
14862W        W79847  10.791  36.534   3.788
14863W        W79848  38.955  40.819   1.343
14864W        W79849  12.863  17.956  11.855
14865W        W79850  29.614  41.793   1.107
14866W        W79851  40.837  29.086   0.833
14867W        W79852   9.355  10.813   2.166
14868W        W79853  20.939  36.452   1.020
14869W        W79854   0.425  40.020   0.837
14870W        W79855  22.384  41.966   2.019
14871W        W79856   9.337  11.597  12.022
14872W        W79857  19.124  24.494   2.762
14873W        W79858  10.338  10.152   2.667
14874W        W79859  35.938  40.800  10.897
14875W        W79860  33.012   9.094   2.394
14876W        W79861  17.223  19.751   0.411
14877W        W79862  31.038  39.146  12.064
14878W        W79863  24.105  28.762  12.092
14879W        W79864  22.509   3.172  13.842
14880W        W79865   7.840  17.147  11.481
14881W        W79866  39.257  42.179   3.941
14882W        W79867   1.766  32.184   4.304
14883W        W79868   1.362  27.810   0.399
14884W        W79869  11.531   1.673  10.103
14885W        W79870   1.451  41.690  14.371
14886W        W79871   6.307  13.084  10.782
14887W        W79872  22.992  35.358   2.186
14888W        W79873  20.135  21.697   1.363
14889W        W79874  39.930   4.217  13.523
14890W        W79875  41.556   4.628   3.762
14891W        W79876  29.966  21.192   0.969
14892W        W79877  42.474  38.467  14.698
14893W        W79878  23.104  31.094  14.398
14894W        W79879  35.820  41.253  12.634
14895W        W79880   9.080  20.568   3.469
14896W        W79881   0.145  28.337   2.045
14897W        W79882  42.453  35.578  14.850
14898W        W79883  27.334  43.284   9.338
14899W        W79884  23.796  21.552  11.524
14900W        W79885  12.808  34.370   3.200
14901W        W79886   8.185  41.063   1.166
14902W        W79887  13.736   5.777  14.282
14903W        W79888  17.641   4.574   0.373
14904W        W79889  21.546  13.466  12.887
14905W        W79890  29.706  34.433  10.630
14906W        W79891   8.177  26.977   1.789
14907W        W79892  44.385  37.576   0.824
14908W        W79893  29.041  12.451   1.785
14909W        W79894   7.290   7.241  14.809
14910W        W79895  38.394  23.061  11.632
14911W        W79896  32.470   2.957   2.682
14912W        W79897  11.347  16.243   1.681
14913W        W79898  28.672   7.741  13.420
14914W        W79899  38.821  38.390  10.894
14915W        W79900   0.774   4.667   4.615
14916W        W79901   7.344  24.004  10.585
14917W        W79902  18.975   6.097   5.144
14918W        W79903  28.699   3.323  11.057
14919W        W79904  23.451  27.373  14.331
14920W        W79905  43.619  41.564   2.620
14921W        W79906   5.468  19.642  12.884
14922W        W79907  36.369  37.205   9.978
14923W        W79908  26.310  32.509   2.225
14924W        W79909   3.426   5.245  10.494
14925W        W79910  15.296  26.383  10.552
14926W        W79911   0.172  38.011   2.667
14927W        W79912  12.816  20.053   1.221
14928W        W79913  42.491  39.749  12.980
14929W        W79914  43.724   1.000   0.962
14930W        W79915  26.991  12.310   0.804
14931W        W79916  18.271  15.250   3.749
14932W        W79917  18.140  37.354  14.721
14933W        W79918  25.703  11.183   3.247
14934W        W79919  28.785  30.710  10.832
14935W        W79920  29.205  31.071   1.303
14936W        W79921  14.576  42.707   4.131
14937W        W79922   4.807  37.370   3.684
14938W        W79923   7.436   9.613   0.858
14939W        W79924  23.718  13.094   4.456
14940W        W79925   5.503  20.264  12.504
14941W        W79926   7.763  35.625  11.550
14942W        W79927  39.237  44.747  12.898
14943W        W79928  32.902   2.114  12.798
14944W        W79929  43.041  29.327   4.171
14945W        W79930  12.113  33.565   2.807
14946W        W79931  16.649   8.170   1.720
14947W        W79932  42.857  24.481  14.892
14948W        W79933   2.412   0.668  12.334
14949W        W79934  29.451   0.904  12.107
14950W        W79935  24.807  21.580  14.536
14951W        W79936   8.664  28.928   2.648
14952W        W79937  20.382   4.403   2.309
14953W        W79938  13.755  36.050  12.608
14954W        W79939   8.837   7.643   3.098
14955W        W79940  42.584  33.076  12.680
14956W        W79941  33.788   4.380  12.626
14957W        W79942  18.687   2.011  12.404
14958W        W79943  36.072   6.729  11.842
14959W        W79944  13.967  19.561   0.436
14960W        W79945  15.565  23.173  11.567
14961W        W79946  44.514  10.554   4.609
14962W        W79947  21.944  18.551  12.597
14963W        W79948   7.864  12.183   4.439
14964W        W79949  27.639  25.640  13.790
14965W        W79950  26.467  16.599  12.920
14966W        W79951  44.089  43.810   0.285
14967W        W79952  13.632  31.139   4.607
14968W        W79953  41.932  24.511   1.895
14969W        W79954  20.134  16.895  14.880
14970W        W79955  19.070  25.858  14.866
14971W        W79956  26.189  25.132   3.137
14972W        W79957  27.906  33.503   0.876
14973W        W79958  24.032  22.988   3.751
14974W        W79959  31.797  21.006  12.415
14975W        W79960  11.643  16.755   3.703
14976W        W79961  38.092   2.264   2.905
14977W        W79962  37.911  33.587  14.414
14978W        W79963  42.777  40.672   4.976
14979W        W79964  13.043  27.424  11.580
14980W        W79965  25.672   2.209  14.711
14981W        W79966   0.255  41.743  13.800
14982W        W79967  23.207  38.853  10.627
14983W        W79968  19.729  26.555   1.408
14984W        W79969  26.261  44.886   0.782
14985W        W79970  36.517  11.536  13.509
14986W        W79971  15.665  27.434   3.037
14987W        W79972  36.597  31.560   2.822
14988W        W79973   2.169   0.056  13.331
14989W        W79974  24.894  22.760  12.456
14990W        W79975   8.684  17.333   4.674
14991W        W79976  38.836   5.201  13.477
14992W        W79977  14.088  14.973  11.864
14993W        W79978   3.733  24.716   3.400
14994W        W79979  12.319   1.915  13.823
14995W        W79980  26.923  27.533   0.270
14996W        W79981  31.747  17.884  11.628
14997W        W79982  36.407  36.176   2.132
14998W        W79983  26.103  22.756   2.777
14999W        W79984   0.556  13.072  12.967
15000W        W79985  25.874  43.464   4.308
15001W        W79986  36.803  41.560   3.908
15002W        W79987  18.368  23.729  12.921
15003W        W79988  24.536   9.265  11.077
15004W        W79989   8.703  36.855   2.845
15005W        W79990  38.312  39.201  14.270
15006W        W79991   5.777   9.887   0.677
15007W        W79992  14.536   9.360  12.415
15008W        W79993  24.431  29.557   0.217
15009W        W79994   4.916   1.494   0.539
15010W        W79995   8.143  30.199   1.425
15011W        W79996  12.299  23.648   4.578
15012W        W79997  38.303  30.751   0.879
15013W        W79998  31.955  20.150  13.483
15014W        W79999  23.007   6.782  12.114
15015W        W80000  27.379  41.968  10.783
15016W        W80001  20.539  43.862  11.580
15017W        W80002  18.279  22.817   2.415
15018W        W80003   4.503  44.174   3.185
15019W        W80004  44.430  34.464  13.867
15020W        W80005   3.790  44.458  12.165
15021W        W80006  11.322  35.022  14.806
15022W        W80007   0.803  38.973  13.512
15023W        W80008  20.272  15.804   2.336
15024W        W80009   1.752  31.461  14.471
15025W        W80010   0.794  18.308   4.578
15026W        W80011  37.298  20.366  13.841
15027W        W80012  43.941  31.404   3.313
15028W        W80013  32.113  13.324  14.095
15029W        W80014   6.677  11.630  13.309
15030W        W80015  40.822  17.096  12.627
15031W        W80016  12.344  24.711   1.915
15032W        W80017  32.389  14.630  10.134
15033W        W80018  12.078  14.761  13.042
15034W        W80019  30.193  39.858  13.876
15035W        W80020  33.914  39.619  13.833
15036W        W80021   3.783   9.772  13.122
15037W        W80022  18.102  18.973  12.270
15038W        W80023   8.440  39.284   4.020
15039W        W80024  43.037   5.255   4.231
15040W        W80025  17.483  15.793  12.694
15041W        W80026   9.988  27.778  12.064
15042W        W80027  33.447   3.448   3.686
15043W        W80028  28.994  22.552  11.600
15044W        W80029   6.155  41.509   2.597
15045W        W80030  39.751  44.319   3.726
15046W        W80031  10.130  32.744   4.041
15047W        W80032  25.484  13.811  10.744
15048W        W80033  15.806  28.940  14.017
15049W        W80034  41.747  17.050  12.342
15050W        W80035  24.473   2.024  13.820
15051W        W80036  20.609  21.757   2.314
15052W        W80037   7.299  20.965   1.224
15053W        W80038  12.458   7.429   0.761
15054W        W80039  12.582  35.046   3.791
15055W        W80040   7.333  15.662  12.163
15056W        W80041  43.517  18.644   2.184
15057W        W80042  13.055  24.023   1.888
15058W        W80043  17.066  32.507   2.767
15059W        W80044   0.383  12.679  13.296
15060W        W80045  19.842  29.673  12.579
15061W        W80046  18.660  10.398  13.829
15062W        W80047  34.131  31.582  11.933
15063W        W80048  21.832  35.988   4.464
15064W        W80049  26.270  39.057  12.461
15065W        W80050  39.101   3.861  13.156
15066W        W80051  38.563  43.309  14.921
15067W        W80052  16.232   3.905  11.492
15068W        W80053  23.217  15.313  10.687
15069W        W80054  18.774  17.728   0.530
15070W        W80055  16.905   9.889   4.505
15071W        W80056  37.879   3.053   1.128
15072W        W80057  19.038  18.687  14.873
15073W        W80058  16.592   3.027   1.159
15074W        W80059   9.356  14.096   0.827
15075W        W80060  27.464   0.374  14.871
15076W        W80061   2.768  25.272   4.602
15077W        W80062  38.100  12.661  13.264
15078W        W80063   4.766  37.431   1.191
15079W        W80064  19.664   3.136  12.482
15080W        W80065   2.514   5.983  13.092
15081W        W80066  13.861  10.923   0.816
15082W        W80067  38.462   6.862   2.219
15083W        W80068  29.062   5.841  10.817
15084W        W80069  26.468  36.820   0.830
15085W        W80070  17.171   5.727   3.153
15086W        W80071   7.155   0.424  12.036
15087W        W80072  34.059  44.481   2.161
15088W        W80073   9.338  40.412  10.692
15089W        W80074  17.479  12.316   0.234
15090W        W80075  40.476   9.727  14.723
15091W        W80076  39.443  11.798   0.712
15092W        W80077  29.828  38.390   2.436
15093W        W80078  34.058  39.366  14.275
15094W        W80079  29.602  15.933   0.656
15095W        W80080   2.771   2.275   0.360
15096W        W80081  17.905  26.711  13.141
15097W        W80082  10.302  29.384  10.738
15098W        W80083  31.574   6.119  11.943
15099W        W80084  37.521  10.285   1.831
15100W        W80085  21.510  21.183  14.524
15101W        W80086  25.035  26.937   2.612
15102W        W80087  14.932  24.885   3.288
15103W        W80088   2.872  16.736  13.981
15104W        W80089  10.173   1.532   2.240
15105W        W80090   1.334  44.024   4.149
15106W        W80091   4.199   1.912  11.662
15107W        W80092  21.904   5.296  10.957
15108W        W80093  31.357   9.158  14.936
15109W        W80094  12.655  37.799   4.142
15110W        W80095   7.355  27.645  13.499
15111W        W80096  26.116  35.456   0.401
15112W        W80097   0.253  22.259   4.613
15113W        W80098  17.094   4.902  11.656
15114W        W80099  23.525  29.679   4.823
15115W        W80100  22.022  26.022  13.409
15116W        W80101  22.420  34.610  13.725
15117W        W80102  39.816  22.253   3.683
15118W        W80103   2.316   3.710   4.517
15119W        W80104  20.236   8.609  14.000
15120W        W80105  34.542   7.903   3.775
15121W        W80106  23.646  21.205   3.373
15122W        W80107  40.844  15.871   4.110
15123W        W80108  11.877  30.985   3.475
15124W        W80109  28.884  23.077  14.849
15125W        W80110   8.774  28.917  10.765
15126W        W80111  43.442  31.711  13.028
15127W        W80112   9.330  21.908  11.475
15128W        W80113  27.661  24.708  13.420
15129W        W80114  37.540  27.123   0.185
15130W        W80115  23.921  17.929  12.366
15131W        W80116  21.776  21.977   1.892
15132W        W80117  19.999  12.941   0.448
15133W        W80118  10.411  19.825  11.156
15134W        W80119  42.447  19.363  11.163
15135W        W80120  27.562  35.816   0.272
15136W        W80121  36.274  17.203   4.912
15137W        W80122   3.947  35.401   2.345
15138W        W80123  30.036   0.219  13.511
15139W        W80124  12.166  33.890   4.644
15140W        W80125  14.388  12.769   0.957
15141W        W80126  42.280   5.357   2.929
15142W        W80127  38.455  17.171   0.007
15143W        W80128  21.275  32.697  13.245
15144W        W80129  12.637  21.147  10.588
15145W        W80130  25.489  24.018  10.867
15146W        W80131  40.047  41.287  13.165
15147W        W80132  33.636   4.397  13.920
15148W        W80133   5.370  11.659   4.592
15149W        W80134  22.182   0.476   2.036
15150W        W80135  36.880  20.451   3.101
15151W        W80136  10.241  44.846   2.073
15152W        W80137   6.403  23.033  14.374
15153W        W80138  13.331  43.761  14.844
15154W        W80139  44.899   4.623   3.474
15155W        W80140  32.527  29.859  10.545
15156W        W80141  20.829  31.991   1.879
15157W        W80142  31.026  11.937   1.130
15158W        W80143  41.977  23.080  12.318
15159W        W80144  26.947  38.434  13.999
15160W        W80145   8.615  18.603   4.156
15161W        W80146  34.150   4.412  13.875
15162W        W80147   3.392  33.774   3.792
15163W        W80148  42.955  35.600   1.313
15164W        W80149  23.584   8.825   3.262
15165W        W80150   8.158   2.807   5.128
15166W        W80151  37.367   5.183  12.020
15167W        W80152  30.508  18.109   2.969
15168W        W80153  41.539  20.322  11.456
15169W        W80154   5.804  16.279  13.439
15170W        W80155  18.189  32.596   1.285
15171W        W80156  27.389   9.717   0.864
15172W        W80157  18.731   3.410  12.599
15173W        W80158  20.152   5.326   9.905
15174W        W80159   1.546  13.559   3.123
15175W        W80160  35.639  32.005  12.549
15176W        W80161  19.539  22.192   5.367
15177W        W80162  11.098   5.428   0.868
15178W        W80163  36.553  26.768  13.909
15179W        W80164  39.064  40.491  12.117
15180W        W80165  35.474   2.831   4.883
15181W        W80166  25.282  24.530  12.074
15182W        W80167  15.795   3.481  14.854
15183W        W80168  31.598  12.444   3.295
15184W        W80169  18.617  35.490   4.382
15185W        W80170   9.170  34.007   2.124
15186W        W80171  27.733   4.753   4.217
15187W        W80172  11.573  23.469   3.343
15188W        W80173  25.288  37.269   4.646
15189W        W80174  23.272  42.950  12.888
15190W        W80175  34.583  16.033  10.734
15191W        W80176  27.033  11.839  14.305
15192W        W80177  15.997  16.696   4.144
15193W        W80178  39.054  26.184   3.134
15194W        W80179   4.160  35.816  12.994
15195W        W80180   3.126   8.928  13.556
15196W        W80181  37.603  22.048   3.852
15197W        W80182  21.245  32.091  11.956
15198W        W80183  33.913   3.261  13.587
15199W        W80184  13.162   7.281   2.900
15200W        W80185  41.332  35.764   3.178
15201W        W80186  12.284  44.766  10.748
15202W        W80187  35.287  33.779  12.094
15203W        W80188  33.996   8.538   4.225
15204W        W80189  30.996  11.847   4.521
15205W        W80190  10.637  33.314   0.284
15206W        W80191  17.864  42.690  14.360
15207W        W80192  19.143  12.345   0.402
15208W        W80193  11.336  26.134   2.749
15209W        W80194  30.607   6.653  12.025
15210W        W80195  30.048   4.597   4.187
15211W        W80196  42.513  36.793   4.973
15212W        W80197   2.663  15.016   4.578
15213W        W80198  34.889  25.767   4.129
15214W        W80199  42.251   8.498   4.220
15215W        W80200  13.380   7.711  12.033
15216W        W80201   7.196   4.937   1.716
15217W        W80202  28.090  35.925   3.318
15218W        W80203  34.086   1.380  12.872
15219W        W80204  15.459  11.559  11.624
15220W        W80205  10.589  31.344  13.588
15221W        W80206  25.543  40.595  12.683
15222W        W80207  41.925   8.811   5.272
15223W        W80208  24.532  18.818  14.358
15224W        W80209  20.584  23.206   2.693
15225W        W80210  13.374   3.445  10.358
15226W        W80211  37.858   3.651  14.647
15227W        W80212   9.923   4.919   1.404
15228W        W80213   3.668  44.260  13.205
15229W        W80214  19.782  20.699   4.799
15230W        W80215  43.422   8.500  13.844
15231W        W80216  27.478  22.635   3.941
15232W        W80217  44.450  22.724   4.613
15233W        W80218  28.468  13.789  11.572
15234W        W80219  29.905  30.861   1.882
15235W        W80220   2.334  14.852  12.804
15236W        W80221  24.991  36.567  10.751
15237W        W80222  12.994  17.969  10.752
15238W        W80223   7.549  44.059  13.440
15239W        W80224   2.548   4.097   2.267
15240W        W80225  29.581   6.870  10.305
15241W        W80226  21.172   3.743  12.344
15242W        W80227  42.865  28.909  10.706
15243W        W80228  33.809  20.223  11.637
15244W        W80229  17.662  15.765   4.111
15245W        W80230  22.673  35.934  13.978
15246W        W80231  38.783  22.798  14.898
15247W        W80232  41.007  39.783   2.221
15248W        W80233  16.333  31.024   4.909
15249W        W80234   0.945  43.010  14.543
15250W        W80235  22.791  30.757  11.448
15251W        W80236  33.893  19.488  10.431
15252W        W80237  25.101  44.049   0.402
15253W        W80238   3.980  31.348  11.066
15254W        W80239  19.432  42.301  11.716
15255W        W80240  21.223  27.548   5.123
15256W        W80241  36.935   0.163  11.589
15257W        W80242  27.181  24.538  13.515
15258W        W80243  27.681  21.485   4.223
15259W        W80244  40.388   3.750   0.555
15260W        W80245   1.299  34.266   0.456
15261W        W80246   6.939  41.790   0.776
15262W        W80247  33.380  36.032   0.397
15263W        W80248   9.701  10.597  14.396
15264W        W80249  23.871   0.163  10.618
15265W        W80250  14.296  40.109   2.803
15266W        W80251  25.911  38.250  10.893
15267W        W80252   3.888  36.923   4.650
15268W        W80253  20.119  10.124  13.028
15269W        W80254   3.876  36.854  14.105
15270W        W80255  44.251   0.965   1.126
15271W        W80256  23.627  41.368  12.557
15272W        W80257   9.444  31.290   4.946
15273W        W80258  17.689  41.495  11.877
15274W        W80259  13.070  39.775   0.750
15275W        W80260  40.410  33.088   4.055
15276W        W80261   5.318  43.350  14.449
15277W        W80262   3.954  34.160   1.632
15278W        W80263   3.207   3.995  14.921
15279W        W80264  23.626  34.633  12.181
15280W        W80265  35.200  43.017  11.142
15281W        W80266  33.150  34.565  14.410
15282W        W80267   8.344  42.380   0.174
15283W        W80268  18.541  41.867  13.402
15284W        W80269  14.350  14.497  13.466
15285W        W80270  23.273  43.551   0.887
15286W        W80271  38.584  28.082   1.851
15287W        W80272  10.265  14.718  14.816
15288W        W80273  14.851  22.554   1.953
15289W        W80274  28.243  29.803  14.790
15290W        W80275  29.597  42.823   3.341
15291W        W80276  30.940   3.087   5.533
15292W        W80277  35.577   4.851   4.014
15293W        W80278  41.781  25.539   2.721
15294W        W80279  42.940  36.513  10.305
15295W        W80280   9.428   1.818   4.645
15296W        W80281   5.861  23.019  11.551
15297W        W80282  10.808  20.254  14.901
15298W        W80283   5.119  15.836   1.296
15299W        W80284  12.202  35.384   3.676
15300W        W80285  24.744  29.343  14.328
15301W        W80286  38.101  14.125   3.541
15302W        W80287   7.385  29.492  13.960
15303W        W80288   2.101   4.973   3.696
15304W        W80289  22.415  36.920   4.328
15305W        W80290   3.813  38.834  14.322
15306W        W80291  32.634  32.948  13.304
15307W        W80292   4.857  26.486   4.381
15308W        W80293  33.602  15.075  10.650
15309W        W80294   1.960  44.865   4.517
15310W        W80295  19.569   3.342   1.879
15311W        W80296  32.107  34.297   3.232
15312W        W80297  27.003   5.266  11.678
15313W        W80298  30.449  22.048  13.062
15314W        W80299  25.599  15.122   1.877
15315W        W80300  22.519  24.615   0.162
15316W        W80301  27.857   6.217  13.149
15317W        W80302  27.386  42.550   0.456
15318W        W80303  27.556  21.007   2.866
15319W        W80304  21.900  34.338   1.476
15320W        W80305   1.478  32.126  14.222
15321W        W80306  17.485  19.100  11.650
15322W        W80307   2.441  18.635   0.269
15323W        W80308  12.787  43.372   4.115
15324W        W80309  14.453  30.948   1.701
15325W        W80310  39.909   1.334   0.780
15326W        W80311  26.543  20.977  13.947
15327W        W80312  44.889  25.482   1.380
15328W        W80313   3.891  30.434  13.267
15329W        W80314  39.948  29.584  11.562
15330W        W80315  23.570  30.664   2.784
15331W        W80316   6.654  39.692   1.924
15332W        W80317  30.436   1.305   1.854
15333W        W80318   5.787  34.860   3.221
15334W        W80319  24.435  22.924  12.199
15335W        W80320  18.871   8.904  12.488
15336W        W80321  23.086  12.816  14.998
15337W        W80322   3.139  42.838  12.144
15338W        W80323  26.458  24.518   0.246
15339W        W80324  22.725   9.292  14.399
15340W        W80325  31.706   5.735  14.705
15341W        W80326  24.021  20.050   2.703
15342W        W80327  27.537  36.328   1.222
15343W        W80328  32.599  27.724  13.347
15344W        W80329  23.669  18.401   5.179
15345W        W80330   0.816   6.414   3.208
15346W        W80331  10.353  15.262  10.252
15347W        W80332  16.910  33.435  12.503
15348W        W80333  38.561   2.557   3.737
15349W        W80334  36.436  37.123  13.563
15350W        W80335  20.637  31.034   1.216
15351W        W80336  39.082  20.071  13.557
15352W        W80337  18.108  34.930  14.557
15353W        W80338  30.194  39.525   1.777
15354W        W80339  16.849  18.601  11.866
15355W        W80340  31.437  14.625  11.260
15356W        W80341  27.424  40.703   3.661
15357W        W80342  28.574  23.011  12.645
15358W        W80343  20.028  30.424   2.583
15359W        W80344  18.041   9.716  10.302
15360W        W80345  10.119  10.608   2.716
15361W        W80346  22.698  44.475   2.661
15362W        W80347  43.045  17.724   0.906
15363W        W80348  29.717  23.139   0.371
15364W        W80349  43.397  28.618  14.399
15365W        W80350  12.570   4.289   2.754
15366W        W80351   0.164  16.064  14.042
15367W        W80352  25.049  41.430  13.153
15368W        W80353  32.634  23.645  11.076
15369W        W80354   0.094  18.552  12.248
15370W        W80355  42.856  21.638  12.319
15371W        W80356   9.593  22.798  13.274
15372W        W80357  18.647  18.098  14.316
15373W        W80358  39.437  10.421   3.026
15374W        W80359   1.224   2.953  11.998
15375W        W80360   2.109   9.891   4.873
15376W        W80361  13.471  15.200   1.955
15377W        W80362  16.684  21.974   4.160
15378W        W80363  36.502  39.033   1.126
15379W        W80364   8.716  34.068  12.012
15380W        W80365  36.956   0.464  14.963
15381W        W80366   3.122  28.558  14.827
15382W        W80367  29.567  18.515   3.412
15383W        W80368  22.014   7.229  14.866
15384W        W80369  11.200  42.762   1.437
15385W        W80370  39.936  39.392   0.777
15386W        W80371  12.332  23.204  14.799
15387W        W80372  38.870  19.175  13.752
15388W        W80373  11.170  15.030  13.875
15389W        W80374  39.330   8.931  11.714
15390W        W80375  38.222  33.945   3.148
15391W        W80376  36.489  41.528   0.070
15392W        W80377   2.308  35.344  13.342
15393W        W80378  39.831  39.819   4.854
15394W        W80379  31.449  41.747  13.888
15395W        W80380  42.562  38.083   0.030
15396W        W80381  14.426  12.463  11.240
15397W        W80382  17.539   4.263   3.984
15398W        W80383  21.584  18.494   2.652
15399W        W80384  29.818   1.617   3.736
15400W        W80385   4.821  17.812  13.467
15401W        W80386  28.523  28.409  14.177
15402W        W80387  26.794  18.380   4.778
15403W        W80388  28.962  29.784   1.875
15404W        W80389  22.806   6.758  12.965
15405W        W80390  32.511  26.591  14.789
15406W        W80391  35.198  16.699  14.904
15407W        W80392   7.996  35.587  13.907
15408W        W80393  28.578   2.671   1.620
15409W        W80394   0.056  21.023   2.779
15410W        W80395  41.773  24.413  14.339
15411W        W80396  36.842  19.201   0.903
15412W        W80397  35.032  19.191   3.364
15413W        W80398  40.818  28.076  13.123
15414W        W80399  37.570   8.300  13.907
15415W        W80400  31.115  24.902   1.652
15416W        W80401  36.507   4.514   0.442
15417W        W80402  44.814  42.320   4.329
15418W        W80403  27.708  30.533   2.934
15419W        W80404  14.920  23.348   2.482
15420W        W80405  30.516  30.620   4.155
15421W        W80406  33.909  24.525  12.920
15422W        W80407  22.891  24.733   1.647
15423W        W80408  13.759  44.885  12.596
15424W        W80409  41.333  25.847   3.439
15425W        W80410  35.828  10.665  14.341
15426W        W80411  19.741  21.563   3.402
15427W        W80412  15.075   5.690   0.894
15428W        W80413  19.213  39.482   0.764
15429W        W80414  19.999  40.060  13.535
15430W        W80415  25.977  39.772   2.962
15431W        W80416   9.704   0.829  11.489
15432W        W80417   0.676  21.752  12.326
15433W        W80418   6.212  17.181  10.650
15434W        W80419  17.700  28.511   3.294
15435W        W80420  40.547  39.785  14.508
15436W        W80421   5.797  41.482   0.290
15437W        W80422  10.831   8.872   2.855
15438W        W80423   2.961  43.245  13.440
15439W        W80424  41.378  17.854   1.860
15440W        W80425  16.568  30.520   2.825
15441W        W80426   7.024  19.803  12.221
15442W        W80427   7.678  12.987  11.159
15443W        W80428   8.220  24.673  11.202
15444W        W80429  28.052  41.652   2.317
15445W        W80430  20.043  31.919   9.941
15446W        W80431  17.794  33.701  12.560
15447W        W80432  20.014  20.556  11.578
15448W        W80433   0.443  14.058   0.001
15449W        W80434   3.712  36.550   3.116
15450W        W80435  10.400  26.096   2.561
15451W        W80436  11.468  34.360  14.399
15452W        W80437   3.356  32.917  10.321
15453W        W80438   8.381   8.117   3.863
15454W        W80439  12.250  21.660  14.965
15455W        W80440   8.422  27.656  14.993
15456W        W80441  38.308   6.274  10.815
15457W        W80442  23.203  13.328   0.344
15458W        W80443  12.922  30.966  14.203
15459W        W80444  14.154  23.026  11.970
15460W        W80445   7.879  41.233   4.266
15461W        W80446  25.582  13.522   1.742
15462W        W80447  15.072  23.033   3.364
15463W        W80448   7.333  24.247   0.328
15464W        W80449  19.686  10.789   3.564
15465W        W80450  36.199  40.903  12.071
15466W        W80451  41.444   2.340  12.972
15467W        W80452   7.903  35.012   1.258
15468W        W80453  39.344  43.072  10.755
15469W        W80454  15.103   2.334  14.014
15470W        W80455   5.997   3.397   0.408
15471W        W80456  35.008  31.660  14.801
15472W        W80457  36.108  38.027   1.887
15473W        W80458  13.542  12.155  13.944
15474W        W80459  21.125  10.756   4.749
15475W        W80460  13.802  20.068  14.304
15476W        W80461  37.887  38.809   3.648
15477W        W80462  35.165   1.806   0.163
15478W        W80463  35.578  23.301   2.381
15479W        W80464   3.341  11.398  14.370
15480W        W80465  34.905   5.376   3.334
15481W        W80466  19.308   9.689   2.256
15482W        W80467  10.638  25.987  11.096
15483W        W80468   4.470   4.304  11.924
15484W        W80469  15.009  20.862  11.171
15485W        W80470  32.958  22.235   1.010
15486W        W80471  13.348   9.748  12.941
15487W        W80472  31.048  29.385   3.744
15488W        W80473  38.091  34.049  14.230
15489W        W80474  42.266  30.184  13.901
15490W        W80475  42.091   5.534  14.880
15491W        W80476  27.529  36.888  10.683
15492W        W80477   7.107  30.020   3.132
15493W        W80478  31.452   7.914   4.606
15494W        W80479   6.830  11.871   3.156
15495W        W80480  42.376   0.538  11.326
15496W        W80481  19.213  10.703   3.344
15497W        W80482  39.902   3.374   2.753
15498W        W80483  34.700  29.962  14.293
15499W        W80484  10.319  21.134  13.310
15500W        W80485  36.566  34.617   4.835
15501W        W80486  35.755  31.086   3.766
15502W        W80487  33.442   2.371   0.405
15503W        W80488  34.310  10.621   0.747
15504W        W80489  17.323  23.872   1.708
15505W        W80490  13.159  23.283  10.783
15506W        W80491  14.316  11.403   3.795
15507W        W80492  19.982   9.412   0.928
15508W        W80493  31.947   4.730  14.406
15509W        W80494  10.899  19.594   3.757
15510W        W80495  14.686  17.183   0.935
15511W        W80496   0.407   2.235   0.689
15512W        W80497  38.964  16.844   4.523
15513W        W80498  22.320  32.504   4.864
15514W        W80499  25.015  37.109  10.827
15515W        W80500  19.821   1.843  11.627
15516W        W80501   7.845   1.697   1.451
15517W        W80502  11.107  10.624  11.401
15518W        W80503  38.040  14.648  12.393
15519W        W80504   7.794  26.955   1.389
15520W        W80505  44.325  33.494   1.661
15521W        W80506   3.070  14.055  11.947
15522W        W80507  23.787  39.011   2.301
15523W        W80508  24.132  25.320   4.150
15524W        W80509   1.465  22.526   4.561
15525W        W80510  38.099  14.558  11.031
15526W        W80511  31.905  16.122  11.210
15527W        W80512  35.325  38.025   0.474
15528W        W80513   1.227  16.704   1.879
15529W        W80514   5.875  15.266  13.423
15530W        W80515   9.807   6.848  14.788
15531W        W80516  35.597  28.510  12.904
15532W        W80517  17.637   1.555   3.757
15533W        W80518  30.907  21.754   2.878
15534W        W80519  14.258  42.356  13.661
15535W        W80520  27.878   0.267  11.148
15536W        W80521  18.728  42.526  14.954
15537W        W80522   4.652  41.683   0.335
15538W        W80523  19.052  41.691  14.534
15539W        W80524   5.427   5.888  14.991
15540W        W80525  18.085  38.534  12.966
15541W        W80526  16.806  22.601  10.799
15542W        W80527  15.649   0.243  13.539
15543W        W80528  40.044  42.307  13.010
15544W        W80529  38.124  38.867   2.744
15545W        W80530  15.619  38.483   4.562
15546W        W80531  11.824   8.352  14.930
15547W        W80532  41.944   2.605  12.113
15548W        W80533  19.611  41.015   4.243
15549W        W80534  35.021  32.150  14.968
15550W        W80535   4.923  40.448   4.631
15551W        W80536  13.144   4.269   1.917
15552W        W80537  31.085  15.569  13.046
15553W        W80538  23.894   3.973   2.720
15554W        W80539  21.005  28.512   3.803
15555W        W80540   1.308   7.851  13.858
15556W        W80541  28.450  31.500  13.331
15557W        W80542   8.344  14.550  12.616
15558W        W80543  17.545  31.696   3.599
15559W        W80544   2.589  15.702   3.258
15560W        W80545  39.615   8.481   2.535
15561W        W80546  22.963  18.524   2.876
15562W        W80547  35.968  41.138  11.674
15563W        W80548  44.465   6.989   2.260
15564W        W80549  37.373  35.581   5.067
15565W        W80550  25.106   2.979   2.110
15566W        W80551  43.512   8.715   2.384
15567W        W80552  38.246   8.868  11.575
15568W        W80553  14.619  17.543   1.836
15569W        W80554   5.724  33.580  11.011
15570W        W80555   0.262   4.367  12.059
15571W        W80556  31.928  20.180  14.025
15572W        W80557  26.567  39.578  11.535
15573W        W80558   9.750   8.118  11.616
15574W        W80559   5.832  42.772  12.665
15575W        W80560  34.839  12.724  13.338
15576W        W80561  25.444  14.869   2.727
15577W        W80562   5.320  39.897   3.256
15578W        W80563  42.936  35.484  14.490
15579W        W80564  27.941   2.756  12.551
15580W        W80565  23.771  44.566  11.281
15581W        W80566  42.523  31.154   2.299
15582W        W80567  34.173  38.799   1.976
15583W        W80568   3.649  39.495  13.796
15584W        W80569  36.096  34.824   3.079
15585W        W80570  15.099   1.776   2.319
15586W        W80571  43.739  43.424   3.779
15587W        W80572  43.681  22.904   4.987
15588W        W80573   9.811  14.384   0.347
15589W        W80574  38.437  23.476  14.505
15590W        W80575  34.601  39.978   4.390
15591W        W80576  34.960   9.451  13.487
15592W        W80577  16.844  10.293  14.934
15593W        W80578   2.328  18.647   4.445
15594W        W80579  14.336   3.145  14.972
15595W        W80580  35.680   3.026  12.052
15596W        W80581  16.659  14.904   4.315
15597W        W80582   6.453  29.136   0.713
15598W        W80583  10.243   7.674   0.374
15599W        W80584   6.699  20.614  12.000
15600W        W80585   9.720  24.935  13.649
15601W        W80586   7.443  40.440   1.643
15602W        W80587  40.893  33.417   1.723
15603W        W80588  38.074  39.879   1.620
15604W        W80589  11.112  21.647  13.852
15605W        W80590  19.898  17.923  14.910
15606W        W80591  24.705  24.610  11.117
15607W        W80592  36.303  18.651  14.244
15608W        W80593  37.337  31.053   3.195
15609W        W80594   2.984  36.510   2.691
15610W        W80595  31.181  15.836   0.322
15611W        W80596  21.576  36.323   3.620
15612W        W80597  21.237  26.977   3.815
15613W        W80598  22.388  40.395  12.009
15614W        W80599  20.669   6.867  14.996
15615W        W80600  25.567  11.616   2.937
15616W        W80601  37.699  14.662   2.811
15617W        W80602   7.425  26.606   3.342
15618W        W80603  11.821  11.817  11.899
15619W        W80604  11.272   1.715   2.211
15620W        W80605  41.770  40.820   0.735
15621W        W80606  23.382   1.435   2.748
15622W        W80607  22.700  28.216   5.095
15623W        W80608  15.248  24.953   2.819
15624W        W80609  14.661  43.752   1.003
15625W        W80610  16.782  36.024   0.701
15626W        W80611  40.507   4.215   2.838
15627W        W80612  21.947   7.799   1.751
15628W        W80613   4.154   0.966  11.153
15629W        W80614   8.626  43.722  11.076
15630W        W80615  30.857  37.484   3.853
15631W        W80616  16.198   1.871  12.460
15632W        W80617  39.855  38.629   4.404
15633W        W80618  38.952  43.024   2.661
15634W        W80619  35.333  37.382  12.767
15635W        W80620  43.006  15.573   0.492
15636W        W80621  13.127  21.558  13.904
15637W        W80622  36.446   9.957  11.858
15638W        W80623   2.873   1.688   2.540
15639W        W80624  29.631  11.169   3.694
15640W        W80625   6.639  11.864   0.221
15641W        W80626  18.555  33.505   3.792
15642W        W80627  32.414  42.174  11.982
15643W        W80628  37.057  15.696  12.517
15644W        W80629  13.612  43.362   1.735
15645W        W80630   6.887  24.091   2.736
15646W        W80631  31.153  13.740  13.483
15647W        W80632  27.112  22.154  13.872
15648W        W80633  40.369   5.987  14.945
15649W        W80634  43.047  32.603  10.704
15650W        W80635  20.140  24.648  12.670
15651W        W80636  24.634  19.349  12.458
15652W        W80637  18.260  17.569   0.439
15653W        W80638  36.250  15.594   2.927
15654W        W80639  42.770  12.290   0.672
15655W        W80640  44.349   5.204  14.398
15656W        W80641  13.753  42.801   4.373
15657W        W80642  31.623   9.893   1.441
15658W        W80643  40.536  18.825   4.849
15659W        W80644   7.685   6.350  12.129
15660W        W80645  23.169  30.509  14.494
15661W        W80646  12.790   2.256  11.530
15662W        W80647   8.803  39.914   1.275
15663W        W80648   1.313  13.323  11.340
15664W        W80649  31.317  23.719   0.687
15665W        W80650  33.313  15.721  11.063
15666W        W80651  20.196  26.879  11.031
15667W        W80652  24.527   5.682   1.380
15668W        W80653  44.531   6.682   0.909
15669W        W80654  35.053   2.395  13.057
15670W        W80655   3.497  30.017   4.118
15671W        W80656  12.118  31.537   0.433
15672W        W80657  23.090   1.722   0.968
15673W        W80658  31.523  32.592  11.146
15674W        W80659  31.227  12.344   0.495
15675W        W80660  22.567  33.094   0.734
15676W        W80661  19.756  23.205   2.533
15677W        W80662  25.567  18.152  14.563
15678W        W80663   2.718  42.228   1.391
15679W        W80664  29.504   4.660   3.132
15680W        W80665  39.483   8.271   4.630
15681W        W80666  35.890  10.643   2.375
15682W        W80667  43.803  17.243  11.873
15683W        W80668  15.772   9.707  14.314
15684W        W80669  10.627  27.148   4.008
15685W        W80670  31.082  18.754   1.917
15686W        W80671  19.705  26.180   2.659
15687W        W80672  23.019  17.226   2.656
15688W        W80673  26.039  19.375   2.475
15689W        W80674  39.442  22.620   9.709
15690W        W80675  33.687  39.849  10.895
15691W        W80676  19.289  43.556   1.189
15692W        W80677  38.388  10.762  12.607
15693W        W80678   2.851  39.450   3.102
15694W        W80679   6.538   2.884   4.073
15695W        W80680  30.949   6.821   4.023
15696W        W80681  21.505  34.570   2.788
15697W        W80682  28.822   1.322   3.700
15698W        W80683   8.628  37.860  10.614
15699W        W80684  29.320   0.917  13.074
15700W        W80685  35.075  28.750   1.332
15701W        W80686  39.559  30.044  11.452
15702W        W80687   6.731  22.816  10.694
15703W        W80688   7.326   9.280  13.453
15704W        W80689   6.198   8.926   5.066
15705W        W80690   3.360  21.775   2.659
15706W        W80691  36.668  26.693   1.258
15707W        W80692  26.624   5.856  11.957
15708W        W80693  34.521  40.288  14.371
15709W        W80694  19.747  32.961  11.598
15710W        W80695  14.064  13.140  13.365
15711W        W80696  11.695  37.298   4.507
15712W        W80697  32.970  12.868  10.752
15713W        W80698   4.905  31.058   3.724
15714W        W80699  43.269  16.036   0.862
15715W        W80700  23.587  11.612  12.448
15716W        W80701   7.032  40.405  14.261
15717W        W80702   3.300  16.292   1.922
15718W        W80703  23.945  23.034   2.092
15719W        W80704  43.317  38.337   3.832
15720W        W80705  22.669  38.446   0.457
15721W        W80706  10.042  23.677  13.090
15722W        W80707   7.218  18.559   4.603
15723W        W80708  41.179   0.286   3.934
15724W        W80709  30.684  10.396  11.153
15725W        W80710  41.021   3.789   2.440
15726W        W80711  30.797  37.122  13.386
15727W        W80712  10.478  21.072  14.256
15728W        W80713  21.362  43.724  12.676
15729W        W80714  22.199  21.344   3.838
15730W        W80715  10.390   6.713   2.767
15731W        W80716  16.734   8.441   4.075
15732W        W80717  38.878  40.283  13.832
15733W        W80718  11.888  35.860   1.849
15734W        W80719  26.165   3.353   2.674
15735W        W80720  29.115   3.544  14.700
15736W        W80721  26.782   8.436   0.488
15737W        W80722  43.852  10.089  13.465
15738W        W80723  19.696  20.192   1.282
15739W        W80724  38.542  17.779   1.279
15740W        W80725  41.871  37.594  10.304
15741W        W80726   2.935  20.509   2.867
15742W        W80727  43.035  14.192   0.856
15743W        W80728  39.519  19.000  11.989
15744W        W80729  36.966  22.133  13.661
15745W        W80730  15.274   6.282   0.299
15746W        W80731  23.014  28.907   1.112
15747W        W80732   1.918  43.813  13.039
15748W        W80733  31.079  32.502  14.714
15749W        W80734  39.668   9.799   1.334
15750W        W80735  11.415  15.119   4.058
15751W        W80736  40.422  13.531  14.444
15752W        W80737  33.396  37.155   3.952
15753W        W80738  20.857  29.496   4.906
15754W        W80739  29.969   5.564   4.747
15755W        W80740   4.894  11.921  12.478
15756W        W80741  41.469  31.841   2.569
15757W        W80742   0.288  30.616  11.415
15758W        W80743  14.890  35.040  13.211
15759W        W80744  40.838  44.695  12.555
15760W        W80745  33.617   0.317  11.046
15761W        W80746  40.794  19.708  14.209
15762W        W80747  35.859  14.523  13.098
15763W        W80748   9.612  43.337  12.967
15764W        W80749  18.281  35.860  11.661
15765W        W80750  37.541  18.438  14.906
15766W        W80751   3.750  16.206   2.182
15767W        W80752   5.166  23.122   1.142
15768W        W80753  12.133  26.214  11.171
15769W        W80754  29.719  28.947   3.557
15770W        W80755  12.723  36.596   4.739
15771W        W80756  27.282  41.584  11.551
15772W        W80757  18.155   9.803  14.922
15773W        W80758   9.021  28.705   3.539
15774W        W80759  18.543  12.395  11.053
15775W        W80760  28.229  17.105   2.683
15776W        W80761  39.992  38.852   0.334
15777W        W80762  15.562  38.243  12.967
15778W        W80763   7.688  30.780   0.317
15779W        W80764  41.625   5.117  12.540
15780W        W80765   2.761  26.496   1.839
15781W        W80766  26.633   1.030  12.453
15782W        W80767  30.034  30.645   0.993
15783W        W80768  23.612  30.489  13.984
15784W        W80769  44.365   7.642   1.194
15785W        W80770   5.166  30.492   4.711
15786W        W80771  13.197  34.205  12.459
15787W        W80772  15.332  33.226   2.336
15788W        W80773   7.370  10.152   1.356
15789W        W80774  13.578  41.471  13.920
15790W        W80775  35.011   1.072  14.211
15791W        W80776  31.092  17.517   3.358
15792W        W80777   7.860  35.953  11.166
15793W        W80778  28.935   2.190  14.867
15794W        W80779   4.177  10.246   4.507
15795W        W80780  12.955  10.301  11.222
15796W        W80781   0.153  30.976   4.920
15797W        W80782  12.123  16.548   4.532
15798W        W80783  30.138  18.312   0.817
15799W        W80784  31.198  16.830   2.132
15800W        W80785  15.399  25.714  14.343
15801W        W80786  14.368   2.181  12.827
15802W        W80787  19.681   4.436  11.470
15803W        W80788   4.675   4.466  14.840
15804W        W80789  44.833  10.248   0.384
15805W        W80790   7.114  13.951   0.842
15806W        W80791   9.594  12.680   3.486
15807W        W80792  20.549  39.360  12.672
15808W        W80793  17.800  44.468   2.962
15809W        W80794   6.564   4.329  12.278
15810W        W80795  22.276  28.021   1.451
15811W        W80796  32.105  23.156  13.947
15812W        W80797  30.312  28.936  11.711
15813W        W80798  42.737  28.024   3.310
15814W        W80799  17.259  16.088  12.333
15815W        W80800  36.933   6.748  12.390
15816W        W80801   1.882   9.746  12.935
15817W        W80802  42.868   9.737  10.745
15818W        W80803   0.959  38.384  13.941
15819W        W80804  38.925  27.491   4.449
15820W        W80805  12.448   3.712  12.213
15821W        W80806  28.547  35.959   3.636
15822W        W80807  35.916  11.057  13.507
15823W        W80808  35.636  40.240  14.372
15824W        W80809  31.802  11.855   4.130
15825W        W80810  21.263  29.484  14.197
15826W        W80811  20.951  27.315  14.062
15827W        W80812  32.008  31.643  11.136
15828W        W80813  23.682  16.179  11.044
15829W        W80814  43.291  38.879  11.139
15830W        W80815  27.204  33.368   0.409
15831W        W80816  42.509  44.248   3.375
15832W        W80817  35.616  44.379   2.740
15833W        W80818   8.940   8.898   4.355
15834W        W80819  29.177  11.679  10.909
15835W        W80820  35.134  41.091  12.053
15836W        W80821  25.447  29.115  12.977
15837W        W80822   8.708  36.950  12.533
15838W        W80823  20.322  14.839  12.925
15839W        W80824  38.297  40.385   1.432
15840W        W80825  16.329  42.958  12.386
15841W        W80826   8.964  31.579   3.571
15842W        W80827  33.336  41.502  14.069
15843W        W80828   6.027  10.611  14.471
15844W        W80829  39.844   5.332  14.112
15845W        W80830  34.015  17.827  12.952
15846W        W80831  21.696   2.398  13.959
15847W        W80832   9.414  36.570   3.417
15848W        W80833   3.620   1.056  12.947
15849W        W80834  15.118  27.422   2.344
15850W        W80835   8.358  38.985  11.868
15851W        W80836  37.363  32.852   2.781
15852W        W80837  30.013  34.331  12.200
15853W        W80838  18.535  26.610   4.374
15854W        W80839  44.479  22.524   0.438
15855W        W80840  18.373  39.897   0.806
15856W        W80841  38.373  11.352   2.684
15857W        W80842  40.966  34.526  10.981
15858W        W80843  24.941  32.886  14.332
15859W        W80844  36.583  33.465  13.808
15860W        W80845  36.496  38.830  14.923
15861W        W80846  36.064   5.181   2.760
15862W        W80847  25.212   7.385  14.001
15863W        W80848  37.772  13.231   3.198
15864W        W80849   1.345  31.894  11.251
15865W        W80850  37.636  13.821  11.066
15866W        W80851   6.986  32.928   3.420
15867W        W80852  32.968  19.105   2.275
15868W        W80853  36.039  22.213   2.593
15869W        W80854  27.929  12.595   4.539
15870W        W80855  31.917  10.282  11.867
15871W        W80856  40.596  37.094   3.258
15872W        W80857   8.652   6.884   0.222
15873W        W80858  33.094  35.497  14.431
15874W        W80859  43.940  39.773  10.357
15875W        W80860  40.423  18.401   3.014
15876W        W80861  30.583  29.177  11.319
15877W        W80862  31.096   4.159  12.978
15878W        W80863  19.479  19.289  14.537
15879W        W80864  37.750  29.018   3.160
15880W        W80865   0.437  31.106  11.581
15881W        W80866  11.787   6.832  13.728
15882W        W80867  15.779   2.891  11.160
15883W        W80868  26.665   4.633  12.487
15884W        W80869  43.893  22.309  11.694
15885W        W80870   3.809  14.599  11.945
15886W        W80871  43.809   7.556  13.920
15887W        W80872  37.866  15.714   4.536
15888W        W80873  17.262  12.195   2.930
15889W        W80874  19.712  15.085  12.373
15890W        W80875  26.687  31.410  12.948
15891W        W80876  35.094  26.374   4.671
15892W        W80877  25.986  37.236  14.751
15893W        W80878  17.790   2.145   1.407
15894W        W80879   9.151  30.464  12.104
15895W        W80880  27.529  33.578   4.086
15896W        W80881  22.663   2.009  11.685
15897W        W80882  29.951  43.435   4.264
15898W        W80883  31.235   5.375   3.861
15899W        W80884  28.640  39.568   1.736
15900W        W80885  16.200  34.157  13.524
15901W        W80886  39.558   9.422   3.970
15902W        W80887  25.966  13.846   0.217
15903W        W80888  19.031   7.719  11.337
15904W        W80889  41.467  18.651  13.737
15905W        W80890   8.339  15.371   2.416
15906W        W80891   0.350  19.990  14.021
15907W        W80892  33.338  36.335  13.814
15908W        W80893  38.349   9.196  14.864
15909W        W80894  38.788  14.826   4.033
15910W        W80895  17.438  35.091   4.502
15911W        W80896  44.584  18.329  14.458
15912W        W80897  11.058  20.531   3.554
15913W        W80898   6.405  10.198   2.959
15914W        W80899  43.366  30.952  12.504
15915W        W80900  26.512  20.150  14.474
15916W        W80901   3.355  40.911  11.345
15917W        W80902  28.570  10.509   3.733
15918W        W80903  29.338  32.047  11.502
15919W        W80904  25.485  21.197  10.227
15920W        W80905  21.236   7.924  14.507
15921W        W80906   2.466   6.920   4.634
15922W        W80907  11.866  35.863   4.614
15923W        W80908   5.699   7.376   4.059
15924W        W80909  20.267  43.209  10.999
15925W        W80910   2.651  24.436  11.416
15926W        W80911   5.165   6.259  11.397
15927W        W80912  31.018  30.895  12.571
15928W        W80913  14.058  34.512  13.881
15929W        W80914  22.596  44.258   3.438
15930W        W80915  13.827  12.232   5.022
15931W        W80916  40.035  16.369   4.454
15932W        W80917  17.129   7.636  14.719
15933W        W80918  42.437  43.355  10.713
15934W        W80919  11.862  37.027  10.353
15935W        W80920   0.391  21.977  11.399
15936W        W80921  37.828  29.471  10.694
15937W        W80922   1.296  32.615   2.201
15938W        W80923  40.605  43.878  12.057
15939W        W80924  13.386  31.937  11.130
15940W        W80925  10.695  13.784  12.019
15941W        W80926  19.872  27.856   0.930
15942W        W80927  44.060  14.317  10.757
15943W        W80928   3.722  40.069   4.866
15944W        W80929   5.474   7.383   3.588
15945W        W80930  33.389  19.550   4.507
15946W        W80931  20.779  42.346  14.780
15947W        W80932  42.446   4.813   3.465
15948W        W80933  44.224   7.607   4.846
15949W        W80934  41.473  34.358   4.096
15950W        W80935  11.343  43.959   1.952
15951W        W80936  16.397  25.146  13.999
15952W        W80937  12.317  44.337   2.338
15953W        W80938  13.296   2.755  13.652
15954W        W80939   4.832  22.484  10.467
15955W        W80940  36.564  39.337  10.690
15956W        W80941   0.051  18.521   3.265
15957W        W80942   2.602  28.038   3.241
15958W        W80943   1.412  35.463  13.903
15959W        W80944   6.228  38.820   2.771
15960W        W80945   9.953  36.972   4.657
15961W        W80946  28.468   7.170   2.393
15962W        W80947   8.423  23.137  12.833
15963W        W80948  20.447  43.566   3.673
15964W        W80949   1.151  36.014   0.814
15965W        W80950   7.184  20.029   3.054
15966W        W80951  13.548  28.177  14.110
15967W        W80952  22.931  26.660  12.845
15968W        W80953  18.742   5.790   0.686
15969W        W80954   9.888  15.255  11.156
15970W        W80955   4.331  16.530  10.508
15971W        W80956  36.708   9.312  12.176
15972W        W80957   3.512   1.493   4.578
15973W        W80958   1.149  24.691   2.798
15974W        W80959   2.363  10.703  11.152
15975W        W80960  28.739  44.182   1.749
15976W        W80961  31.955  21.584  11.652
15977W        W80962  16.754  23.233   3.612
15978W        W80963  13.574  19.252   0.264
15979W        W80964   4.953   1.891  14.367
15980W        W80965  41.887  30.023  14.935
15981W        W80966  43.578  31.133   0.465
15982W        W80967  33.008  36.999   4.621
15983W        W80968  16.741  20.257   3.380
15984W        W80969   6.431  29.103   3.864
15985W        W80970   2.204  20.138   2.878
15986W        W80971   2.974  41.723  11.800
15987W        W80972   3.380  20.621   3.314
15988W        W80973  14.798  35.931   9.675
15989W        W80974  21.940   0.880  13.334
15990W        W80975   6.383  29.947  12.145
15991W        W80976  10.019  39.321   3.940
15992W        W80977  29.544  42.324   4.491
15993W        W80978  20.717  17.625  14.087
15994W        W80979  34.323  40.159  13.479
15995W        W80980  24.261   0.144   4.109
15996W        W80981  42.742  21.987   0.759
15997W        W80982   7.055  39.263  14.923
15998W        W80983  11.605  24.701   4.277
15999W        W80984   1.215  19.568  10.737
16000W        W80985  21.906  31.133   2.952
16001W        W80986  15.621  16.341   4.136
16002W        W80987  38.941   9.286   3.416
16003W        W80988  13.782   5.469  12.882
16004W        W80989  31.459   5.896  11.324
16005W        W80990  30.418  14.484  14.360
16006W        W80991  21.296  18.620   1.193
16007W        W80992  42.913  40.481  12.860
16008W        W80993  23.585  20.110   1.434
16009W        W80994   8.951   2.094   4.548
16010W        W80995   9.637   4.091   3.664
16011W        W80996   2.228   2.493   2.410
16012W        W80997   5.860  18.428   2.625
16013W        W80998  37.003  27.502  13.037
16014W        W80999  19.963   0.508  14.379
16015W        W81000  26.455  39.073  10.681
16016W        W81001  21.917  37.638   4.124
16017W        W81002  41.799  35.326   1.866
16018W        W81003   2.069  40.207   2.363
16019W        W81004  19.244  37.886  11.094
16020W        W81005  10.690  15.658  12.408
16021W        W81006   3.400  39.878   3.031
16022W        W81007  33.980  27.910  13.894
16023W        W81008  15.068  24.050   3.587
16024W        W81009  26.096  43.443   2.212
16025W        W81010  37.320  27.476  12.621
16026W        W81011  22.018  15.262   1.982
16027W        W81012  35.139   3.244  10.109
16028W        W81013  16.293   6.729  10.289
16029W        W81014  22.188   6.346   1.285
16030W        W81015   6.399  37.958  11.148
16031W        W81016  37.405  10.766  13.385
16032W        W81017  32.125  42.100   2.681
16033W        W81018  34.396   2.818   0.511
16034W        W81019  14.332  35.687   2.704
16035W        W81020  18.004  39.772   1.184
16036W        W81021  28.513  28.466   3.158
16037W        W81022  25.166  19.115   2.035
16038W        W81023  11.844  16.332  13.835
16039W        W81024  20.307  24.551   1.866
16040W        W81025  27.250  34.029  11.600
16041W        W81026  16.777   9.409   2.163
16042W        W81027   4.955  27.111   2.762
16043W        W81028   2.480  29.398   4.163
16044W        W81029  21.518  17.376  12.579
16045W        W81030  18.112   6.889  11.632
16046W        W81031   3.022  33.530   4.612
16047W        W81032  16.138  16.725   0.544
16048W        W81033  38.751   5.898   2.007
16049W        W81034  16.735  12.294   1.542
16050W        W81035  15.115  33.444  14.745
16051W        W81036   1.347  29.018  11.642
16052W        W81037   7.234   5.375  13.861
16053W        W81038  42.033  24.137  13.955
16054W        W81039  28.596  16.709   0.943
16055W        W81040  27.998   5.968   0.760
16056W        W81041  31.020  21.162  12.115
16057W        W81042  39.832  18.696   4.472
16058W        W81043  25.347  10.327   4.897
16059W        W81044  37.053  16.781  11.719
16060W        W81045  23.569  40.888  11.587
16061W        W81046   6.445  25.619   4.335
16062W        W81047  16.715  20.775   3.508
16063W        W81048  19.780  29.395   0.834
16064W        W81049  39.111   1.221  11.868
16065W        W81050  22.996  37.848  13.894
16066W        W81051  42.980  44.565   3.234
16067W        W81052  14.159  23.397   3.605
16068W        W81053  27.969   5.502   1.012
16069W        W81054  37.346   0.299   0.343
16070W        W81055  36.005  29.427  10.567
16071W        W81056  42.946  30.918  10.646
16072W        W81057  15.940  11.690  13.322
16073W        W81058   5.197  14.785   3.067
16074W        W81059   4.414   6.974   2.960
16075W        W81060   0.729  14.531  12.081
16076W        W81061  44.760   3.067  12.896
16077W        W81062  37.362  24.717  11.528
16078W        W81063  16.682   7.150   2.728
16079W        W81064  16.666   8.430   1.284
16080W        W81065  31.083  13.372   1.181
16081W        W81066  17.184  37.067   1.321
16082W        W81067  26.675  28.323   2.407
16083W        W81068  30.029  23.583   1.095
16084W        W81069  21.817  16.980  10.722
16085W        W81070  18.907  23.221   4.649
16086W        W81071  33.826  15.128   2.612
16087W        W81072  13.568  42.398  10.694
16088W        W81073  36.264  18.140   0.326
16089W        W81074  10.945  35.005   2.134
16090W        W81075  12.585  36.194  12.809
16091W        W81076  38.427   5.812   1.223
16092W        W81077  40.320  33.469  13.921
16093W        W81078   1.782   5.750   5.030
16094W        W81079  30.230  11.775  11.570
16095W        W81080  30.419  10.962   1.943
16096W        W81081  26.618   1.499   0.416
16097W        W81082  16.789  40.038  12.974
16098W        W81083  23.058   3.251   0.461
16099W        W81084   6.951  25.190  13.937
16100W        W81085  44.022  10.055  12.604
16101W        W81086   5.642  33.581   2.673
16102W        W81087  37.464  18.369  12.039
16103W        W81088  13.754   7.849  14.549
16104W        W81089  26.993  11.691   3.577
16105W        W81090  44.809   8.846   0.241
16106W        W81091   2.959   4.077  12.605
16107W        W81092  38.571  43.834   0.375
16108W        W81093  37.035  40.624  11.584
16109W        W81094  42.802  25.148  14.691
16110W        W81095   5.248  37.870  14.573
16111W        W81096  29.673  32.722  13.893
16112W        W81097   6.363  41.062  12.454
16113W        W81098  28.278  40.823   2.319
16114W        W81099  25.817  11.230  14.523
16115W        W81100  33.455  22.431  14.030
16116W        W81101   4.860  35.062   2.161
16117W        W81102  30.586  32.574   3.901
16118W        W81103  12.468  28.176   1.619
16119W        W81104  27.940   7.836  14.470
16120W        W81105  27.472  44.198  14.155
16121W        W81106   6.616  43.344  14.385
16122W        W81107  14.536  30.031  12.525
16123W        W81108  27.266   5.251   4.605
16124W        W81109  27.618   1.816  13.693
16125W        W81110  27.927  28.595   1.933
16126W        W81111  11.716   9.790  14.479
16127W        W81112  30.770   3.090   2.374
16128W        W81113  35.365  42.974   4.537
16129W        W81114  13.555  34.211  13.219
16130W        W81115  28.654  31.410   1.360
16131W        W81116   5.521  18.535  14.252
16132W        W81117  33.200  13.190   3.096
16133W        W81118  37.748  22.677   3.770
16134W        W81119  25.560  13.577   3.320
16135W        W81120  39.031   4.981   0.337
16136W        W81121   1.042  44.886   4.695
16137W        W81122   1.382  44.480   0.556
16138W        W81123  12.338  12.804  12.499
16139W        W81124  18.816   2.844  12.330
16140W        W81125  24.529  41.581  12.504
16141W        W81126  25.075  43.746  12.718
16142W        W81127   0.835   6.291  10.798
16143W        W81128  31.666  29.543   1.261
16144W        W81129  11.839   7.260   3.732
16145W        W81130   2.447   8.111   1.756
16146W        W81131   0.374  15.078   0.022
16147W        W81132  29.218   3.053  11.555
16148W        W81133   4.490  35.064  10.700
16149W        W81134  43.936  13.568  11.174
16150W        W81135  42.102  22.169   1.425
16151W        W81136  11.557  15.890  13.970
16152W        W81137  26.273  33.556  13.108
16153W        W81138  11.353   4.214  13.719
16154W        W81139  24.792  11.286  14.422
16155W        W81140  20.974  28.085  13.022
16156W        W81141  21.281  13.223   2.766
16157W        W81142  32.470  31.163   2.289
16158W        W81143  24.978  43.450  11.582
16159W        W81144  41.927  33.251  12.014
16160W        W81145  15.056   6.151   2.395
16161W        W81146  27.956  26.434  13.897
16162W        W81147  26.887  34.795  13.083
16163W        W81148  10.941   2.849   2.474
16164W        W81149  34.104  11.856   1.355
16165W        W81150  16.095  32.659  12.015
16166W        W81151  35.909   9.328  13.365
16167W        W81152  13.184   1.939   0.722
16168W        W81153   2.462   2.443   4.785
16169W        W81154  34.465  20.114  13.812
16170W        W81155  40.864   6.886   2.488
16171W        W81156   8.207  15.580  12.577
16172W        W81157   6.497  17.904   0.483
16173W        W81158  42.395  14.772   2.435
16174W        W81159   7.465   8.374  10.731
16175W        W81160  21.665  32.605   1.742
16176W        W81161  17.324  21.188   0.832
16177W        W81162  12.649  32.426   3.150
16178W        W81163  19.591  29.021  11.074
16179W        W81164  34.480  14.249   3.840
16180W        W81165  36.400  11.573  12.338
16181W        W81166   3.648  25.602   3.285
16182W        W81167  22.204  43.900  11.592
16183W        W81168   2.262  22.191  11.291
16184W        W81169  41.413  14.764  11.677
16185W        W81170  36.410   7.106   0.957
16186W        W81171   0.228  42.026   4.102
16187W        W81172   5.367  38.765  13.148
16188W        W81173  20.501   3.936   3.761
16189W        W81174  42.308  38.388  10.733
16190W        W81175   8.931  25.903   3.687
16191W        W81176  24.879  25.213   2.587
16192W        W81177   2.367  35.867  13.081
16193W        W81178  44.699  36.345  14.996
16194W        W81179   8.101  32.855   1.516
16195W        W81180  39.336   1.066  10.787
16196W        W81181  36.411  29.074   1.488
16197W        W81182   5.843   6.444  12.606
16198W        W81183  34.953  12.963  11.928
16199W        W81184  20.598  28.057  14.507
16200W        W81185  24.051  24.447   2.533
16201W        W81186  38.314  20.592   0.394
16202W        W81187   7.329  38.625  13.251
16203W        W81188  40.833  15.796   2.770
16204W        W81189  38.122  39.504   0.209
16205W        W81190   4.642  27.660   2.232
16206W        W81191   7.140  39.317   3.094
16207W        W81192  34.648   3.923   4.953
16208W        W81193  15.779  29.753   3.823
16209W        W81194   8.393  30.966   4.154
16210W        W81195  40.770  24.419   4.546
16211W        W81196   7.894  43.294   4.449
16212W        W81197  12.919  39.878  13.095
16213W        W81198  13.133  16.285  14.978
16214W        W81199  28.960   8.670  10.504
16215W        W81200  44.309  14.102   3.183
16216W        W81201  38.470  17.231  11.413
16217W        W81202  30.547  34.470   0.922
16218W        W81203  15.438  38.118   2.800
16219W        W81204   8.006   2.913   3.325
16220W        W81205   5.886  26.303  13.489
16221W        W81206  22.423   5.735   3.013
16222W        W81207  20.633  12.147  14.382
16223W        W81208  10.219  28.034  12.630
16224W        W81209   7.941  10.734   2.641
16225W        W81210  14.099  21.498  12.966
16226W        W81211   3.454  38.464  14.467
16227W        W81212  20.629  38.097   0.361
16228W        W81213  14.302  42.876  14.347
16229W        W81214  26.672  29.630  10.972
16230W        W81215  16.707  34.162  12.971
16231W        W81216  36.400  11.929  11.428
16232W        W81217  16.749  16.250  13.083
16233W        W81218  42.884   5.855  12.076
16234W        W81219  16.759   6.165  13.863
16235W        W81220  40.811  36.525   0.304
16236W        W81221  23.635  12.767  13.383
16237W        W81222  37.608   1.440  14.445
16238W        W81223  39.309   4.584  14.543
16239W        W81224  26.951  36.682  10.776
16240W        W81225  30.131  20.686   4.649
16241W        W81226  25.605  24.915   4.025
16242W        W81227   6.068   7.708   0.083
16243W        W81228  27.364  17.322  12.140
16244W        W81229   8.814  42.940   1.461
16245W        W81230  40.820   6.713   1.235
16246W        W81231  28.943  17.541  14.981
16247W        W81232   5.214   3.664   0.830
16248W        W81233   3.522  18.243  14.232
16249W        W81234  13.513  41.867  14.967
16250W        W81235   1.587   3.765  13.281
16251W        W81236  26.216  17.138  14.956
16252W        W81237   3.155  26.719  11.121
16253W        W81238  14.556  41.977  13.477
16254W        W81239  43.206  25.557  13.523
16255W        W81240  10.849   0.885   2.660
16256W        W81241  23.700  12.924  14.324
16257W        W81242   0.657  23.177  14.835
16258W        W81243  27.193  31.919   0.701
16259W        W81244   5.796  41.506  11.902
16260W        W81245  37.024  10.111   1.738
16261W        W81246  41.122  29.881   1.728
16262W        W81247  41.020  32.416  10.571
16263W        W81248  36.961   7.003  11.387
16264W        W81249  35.672  24.614  14.770
16265W        W81250  15.805  15.708   3.655
16266W        W81251  20.239  35.022  11.763
16267W        W81252  23.430  14.640  13.960
16268W        W81253  40.099  16.624   2.812
16269W        W81254  33.958   8.492  14.809
16270W        W81255   5.710   9.416   0.926
16271W        W81256  12.120   4.501   1.793
16272W        W81257  27.454  24.565   2.294
16273W        W81258  21.207  41.396  12.530
16274W        W81259  18.135   8.842  12.930
16275W        W81260  14.574  13.201  13.411
16276W        W81261  37.417  22.701   0.017
16277W        W81262  28.503  28.303  13.680
16278W        W81263  23.518  17.063   1.304
16279W        W81264   1.249  17.713   1.250
16280W        W81265  29.202   1.717   5.472
16281W        W81266  16.835   6.271  12.927
16282W        W81267  30.935   8.017  13.369
16283W        W81268  25.377  11.267  11.197
16284W        W81269  20.928  36.788   4.204
16285W        W81270   0.391  36.652  12.562
16286W        W81271  37.607  39.688   3.678
16287W        W81272  15.845   2.713   5.010
16288W        W81273  16.639  37.581  14.862
16289W        W81274  25.208  10.523   1.830
16290W        W81275  31.007  29.320  12.533
16291W        W81276  32.894  17.225   0.976
16292W        W81277   8.275  40.461  10.683
16293W        W81278  29.395  23.777  13.875
16294W        W81279   6.529  29.225   2.679
16295W        W81280  34.483  16.281   2.326
16296W        W81281  12.255  44.105   0.792
16297W        W81282  23.231  29.394  12.802
16298W        W81283  32.251  41.712  12.113
16299W        W81284  42.793  16.320  12.472
16300W        W81285  19.688   6.506  10.576
16301W        W81286  25.265  29.155   1.373
16302W        W81287  35.952   7.204   1.585
16303W        W81288  20.705  30.581  14.046
16304W        W81289  30.456  15.215   1.632
16305W        W81290  40.894   9.842  10.718
16306W        W81291  33.058  34.876   4.188
16307W        W81292  39.708  38.534   0.709
16308W        W81293  20.584  17.308   1.405
16309W        W81294  34.125  20.277  14.581
16310W        W81295  36.114  23.899   1.449
16311W        W81296  44.753  14.776  11.392
16312W        W81297   1.358  29.101  10.760
16313W        W81298  34.938  28.968  10.725
16314W        W81299  31.439  31.878   0.902
16315W        W81300  12.396  15.188  10.599
16316W        W81301  28.457  25.022   4.597
16317W        W81302  16.343  38.051  13.938
16318W        W81303   7.240  35.327   2.361
16319W        W81304  40.246  21.939   1.750
16320W        W81305   6.933   9.733   5.520
16321W        W81306  22.750   7.236  12.014
16322W        W81307  30.011  14.287   3.001
16323W        W81308   2.941  26.939  11.527
16324W        W81309  25.772  10.765   3.628
16325W        W81310  18.864  20.009   1.359
16326W        W81311  11.204  35.398  13.468
16327W        W81312  39.367  39.137  12.129
16328W        W81313  37.783  15.553   3.648
16329W        W81314  30.573  16.437  11.671
16330W        W81315   4.476  17.647  12.511
16331W        W81316  10.082  25.050   3.751
16332W        W81317  33.918  43.523   4.270
16333W        W81318  42.778  19.555   1.499
16334W        W81319   4.881  18.167   4.656
16335W        W81320  43.289  40.985   3.425
16336W        W81321  34.425  28.651  13.855
16337W        W81322  15.625  30.243   3.768
16338W        W81323   9.134  38.995  10.144
16339W        W81324  23.775  30.868  10.223
16340W        W81325  27.732   2.656  13.974
16341W        W81326  22.632   3.761   2.468
16342W        W81327  43.575  35.063   1.808
16343W        W81328  29.928   8.263   1.400
16344W        W81329  34.064  33.873  11.668
16345W        W81330  31.952  14.880   1.049
16346W        W81331   9.882   5.290  10.290
16347W        W81332  42.033  36.905  14.961
16348W        W81333  16.546  27.753   2.809
16349W        W81334  29.489  37.660   4.169
16350W        W81335  29.170  12.294   3.621
16351W        W81336  11.466   6.740  11.036
16352W        W81337  20.405  35.064  13.862
16353W        W81338  17.313  43.914  10.991
16354W        W81339  10.223   0.104  13.094
16355W        W81340  38.920  30.148   3.296
16356W        W81341  30.234  42.999   4.189
16357W        W81342  29.518  25.542   1.907
16358W        W81343  29.849  30.205  11.738
16359W        W81344   7.926  24.103   0.257
16360W        W81345  27.926  36.490  11.610
16361W        W81346  32.360  43.344   4.065
16362W        W81347   5.804  14.126   1.397
16363W        W81348  18.499  25.463  10.668
16364W        W81349  34.661  33.842   0.361
16365W        W81350  33.769   7.597  10.230
16366W        W81351  23.767  36.966  12.118
16367W        W81352   3.858  32.541   2.230
16368W        W81353  17.213  35.577   1.433
16369W        W81354  26.262  14.241   3.568
16370W        W81355   4.591  37.912   4.136
16371W        W81356  37.827   6.930   9.760
16372W        W81357  44.404  30.416   2.838
16373W        W81358  13.609  42.344   1.429
16374W        W81359   5.694  19.028  14.344
16375W        W81360  26.080  32.302  14.448
16376W        W81361  31.883  17.315  13.963
16377W        W81362  36.846  12.833   1.429
16378W        W81363   6.268  11.533   5.128
16379W        W81364  29.367  12.458   2.362
16380W        W81365  26.796  18.299  13.145
16381W        W81366  33.122  12.045   1.685
16382W        W81367  28.421  16.349   4.332
16383W        W81368  16.087  15.064   2.676
16384W        W81369   8.672  36.845   3.371
16385W        W81370  40.330  17.095   0.417
16386W        W81371  36.043  44.701  10.941
16387W        W81372  43.867  28.449  14.264
16388W        W81373  41.365  19.966  10.182
16389W        W81374  24.637  25.265   0.373
16390W        W81375  38.338  34.370   2.358
16391W        W81376  12.838  11.694   0.654
16392W        W81377  21.796  11.199   3.669
16393W        W81378  31.644  43.824   1.189
16394W        W81379  31.305  39.298  11.133
16395W        W81380  23.902  41.001  11.037
16396W        W81381   4.643   7.389   3.168
16397W        W81382  27.544  40.103  13.358
16398W        W81383  23.698  37.598   3.394
16399W        W81384  23.840  37.311   1.157
16400W        W81385  42.923  21.039   1.198
16401W        W81386  15.761   9.710   2.791
16402W        W81387   2.916  28.206   1.977
16403W        W81388  35.147  26.111  12.037
16404W        W81389  18.134  16.146   2.472
16405W        W81390  17.200  23.784   4.154
16406W        W81391   2.406  13.630   1.886
16407W        W81392  20.479  42.924   0.836
16408W        W81393  36.817  41.214   2.468
16409W        W81394  30.560  26.100   3.712
16410W        W81395  25.503  40.685  13.190
16411W        W81396  20.271   1.830   4.916
16412W        W81397  13.054  13.359  13.328
16413W        W81398   6.162  44.798  10.607
16414W        W81399  15.712   7.431   3.414
16415W        W81400   8.319  29.577  11.533
16416W        W81401  37.306   6.002   1.852
16417W        W81402  31.955  42.282   1.403
16418W        W81403  21.323  12.273   0.138
16419W        W81404  34.387   0.212  10.650
16420W        W81405  44.901  34.857  10.266
16421W        W81406  13.557  38.308   3.229
16422W        W81407  24.502  38.628  12.083
16423W        W81408  24.680  42.330   4.817
16424W        W81409  18.513   3.708   0.427
16425W        W81410  27.127  33.562  14.054
16426W        W81411  12.591  27.101  11.531
16427W        W81412  16.579  11.446   0.904
16428W        W81413  29.293   2.749  12.941
16429W        W81414   1.724  10.799   3.381
16430W        W81415  19.287  27.338  14.567
16431W        W81416  40.553  40.995  13.922
16432W        W81417  22.672  11.178   1.424
16433W        W81418  20.420  18.184   1.919
16434W        W81419  43.165  26.138  11.384
16435W        W81420  31.607   9.870  13.933
16436W        W81421  15.841  35.981  11.571
16437W        W81422  41.421  31.637  11.118
16438W        W81423  15.023   4.468  13.381
16439W        W81424  10.698  44.212  13.998
16440W        W81425  19.755  30.630   1.116
16441W        W81426  14.808  25.470  13.521
16442W        W81427  36.359  16.838   3.136
16443W        W81428  37.432   2.554   4.174
16444W        W81429  33.188  41.476   2.695
16445W        W81430  24.111   0.625   4.076
16446W        W81431  34.722  34.995  11.570
16447W        W81432  37.778   0.527   1.309
16448W        W81433  32.955  10.303  12.375
16449W        W81434  18.772  27.972  13.903
16450W        W81435   8.418  41.825   2.434
16451W        W81436  11.096  14.541  12.854
16452W        W81437  38.927  30.943  14.438
16453W        W81438   5.547  42.373  12.448
16454W        W81439  23.424   5.808  13.010
16455W        W81440   8.984   3.880  13.452
16456W        W81441  16.805  29.242   4.744
16457W        W81442   6.435  16.187   1.379
16458W        W81443  21.661  15.630  10.235
16459W        W81444  12.144  44.541   3.794
16460W        W81445  16.138  41.936   1.901
16461W        W81446   2.479  23.980  11.195
16462W        W81447  10.292   8.074   2.813
16463W        W81448  25.645  24.531  10.690
16464W        W81449  41.002  30.159   2.182
16465W        W81450   7.783  21.317  14.577
16466W        W81451  22.048  34.628   0.397
16467W        W81452  32.555  37.803  14.494
16468W        W81453   0.174  34.517   9.982
16469W        W81454  11.655  43.982   2.797
16470W        W81455   4.758  44.320  12.412
16471W        W81456  32.152  22.222  13.571
16472W        W81457  21.093  17.731  10.906
16473W        W81458  25.566  12.266   0.861
16474W        W81459  32.383  14.984  11.983
16475W        W81460   1.353  39.868   4.753
16476W        W81461   6.801  22.687  13.545
16477W        W81462  22.155  10.252  14.525
16478W        W81463  12.650   2.524   0.864
16479W        W81464  23.631   9.349  13.308
16480W        W81465  28.483  44.760  14.838
16481W        W81466  24.528  17.748   4.067
16482W        W81467   0.032  10.260   1.775
16483W        W81468  37.448   6.766   2.243
16484W        W81469  11.304   9.024   4.533
16485W        W81470  37.556  32.945   0.991
16486W        W81471  17.751  10.927   1.403
16487W        W81472  25.902  29.783   4.514
16488W        W81473  35.936  19.084  12.549
16489W        W81474  15.071  42.755   1.306
16490W        W81475  43.488  16.484   0.721
16491W        W81476  10.374  28.613  11.969
16492W        W81477  17.621   7.682  11.565
16493W        W81478  10.401  36.512  13.513
16494W        W81479   0.760  19.682  13.866
16495W        W81480   8.792  21.259  13.906
16496W        W81481   3.669  22.624  14.975
16497W        W81482  27.959   4.807  12.009
16498W        W81483   2.988  24.824  11.541
16499W        W81484  27.345  26.257   4.189
16500W        W81485  23.741  41.407  13.428
16501W        W81486   6.813  28.321   1.926
16502W        W81487   7.680  25.734   2.194
16503W        W81488  40.470  31.432  10.950
16504W        W81489  42.616  27.041   1.375
16505W        W81490  22.972  16.739   4.765
16506W        W81491  22.963  41.364   3.295
16507W        W81492  30.884   0.412   0.843
16508W        W81493  19.811  38.609   0.961
16509W        W81494  22.708  44.691  12.071
16510W        W81495   9.217  26.513   9.957
16511W        W81496  34.891  20.628   2.318
16512W        W81497  43.426  19.289  13.510
16513W        W81498  23.642  13.071   0.236
16514W        W81499  22.298   0.813   0.877
16515W        W81500  17.761  44.867  11.651
16516W        W81501   8.463  34.617  12.859
16517W        W81502  43.339  25.869   3.542
16518W        W81503  40.971  11.698   3.135
16519W        W81504  33.465  28.386  14.438
16520W        W81505  33.742   6.398   2.342
16521W        W81506   7.742   7.408  12.323
16522W        W81507  32.677  14.691  14.112
16523W        W81508   6.127  30.389  12.129
16524W        W81509  14.149  17.865   4.084
16525W        W81510  10.144  14.898   3.754
16526W        W81511  22.441   9.738  13.473
16527W        W81512  27.027  23.935   2.775
16528W        W81513   7.866  10.780   2.138
16529W        W81514  28.111  23.622   4.090
16530W        W81515  41.888  20.744  12.977
16531W        W81516  19.588  30.626  12.703
16532W        W81517  31.468  42.197  11.984
16533W        W81518  34.482   5.429  13.774
16534W        W81519  34.028  15.689   0.974
16535W        W81520   2.958  17.968   1.741
16536W        W81521  37.726  43.474   2.109
16537W        W81522  38.446  24.083   1.918
16538W        W81523  11.830   0.991  14.462
16539W        W81524  17.541  21.745  14.433
16540W        W81525   7.919  44.475  11.181
16541W        W81526  37.531  39.229  10.564
16542W        W81527  44.372  13.373  11.896
16543W        W81528  33.788  16.862   3.215
16544W        W81529  12.214  42.247   3.533
16545W        W81530  19.150   2.191  13.020
16546W        W81531  10.765   5.948   1.798
16547W        W81532  30.213   1.784   1.854
16548W        W81533  33.957   6.801   9.872
16549W        W81534  22.579  17.550   2.747
16550W        W81535  18.261  18.014  11.740
16551W        W81536  35.478  26.993  12.537
16552W        W81537  14.359  11.381   1.329
16553W        W81538   3.674  42.584  12.932
16554W        W81539  32.372  24.639   4.551
16555W        W81540  15.644  24.038   2.178
16556W        W81541  10.445   5.764   0.309
16557W        W81542  32.010  31.106  14.417
16558W        W81543  38.516  18.767  12.803
16559W        W81544  16.405  31.591   2.164
16560W        W81545   1.970  23.387  10.735
16561W        W81546  42.032  38.108  13.401
16562W        W81547  30.700  10.937  11.143
16563W        W81548  11.611  15.284  11.679
16564W        W81549  16.781   8.324  10.682
16565W        W81550  21.768   0.491  11.626
16566W        W81551   3.002  30.097  11.524
16567W        W81552   7.194  25.114  12.556
16568W        W81553  24.537  16.121  13.976
16569W        W81554  22.459  15.320  11.616
16570W        W81555  27.228  29.678  10.635
16571W        W81556  10.697  41.525  12.193
16572W        W81557   7.868  33.863   0.327
16573W        W81558  13.366  13.755   3.256
16574W        W81559  38.328  30.824   3.378
16575W        W81560  41.305  44.510  12.088
16576W        W81561  38.066   6.460  11.959
16577W        W81562  28.378  24.695  12.911
16578W        W81563  38.600  33.827  12.779
16579W        W81564   5.841  38.483   3.815
16580W        W81565  36.206  13.163  13.918
16581W        W81566  43.940  12.225  12.485
16582W        W81567   7.857  44.245  13.835
16583W        W81568  39.878   8.293   2.147
16584W        W81569   3.356  24.549   0.226
16585W        W81570  22.474   5.351   3.731
16586W        W81571  24.178  12.844   1.458
16587W        W81572   8.339  27.103   0.407
16588W        W81573   4.030  17.259   1.816
16589W        W81574  15.281  13.889   2.300
16590W        W81575  11.023   4.617  13.765
16591W        W81576  17.166  21.128   4.231
16592W        W81577  41.831  14.269   4.114
16593W        W81578   9.748   1.040  14.899
16594W        W81579   6.918  33.980   3.712
16595W        W81580  11.791  19.692  14.401
16596W        W81581  18.996   3.864  10.680
16597W        W81582  25.928  16.130  11.600
16598W        W81583  44.302  21.855  14.570
16599W        W81584  10.227  28.894   5.020
16600W        W81585   8.516  35.638   2.856
16601W        W81586  19.824  44.195  14.786
16602W        W81587  34.279   2.082  11.443
16603W        W81588  20.805  14.122  12.528
16604W        W81589  11.308   4.755   3.392
16605W        W81590  26.293  32.043   0.514
16606W        W81591  32.485  32.176   0.357
16607W        W81592  23.086  38.038  14.358
16608W        W81593  16.085  41.436  11.178
16609W        W81594  32.849  36.857  12.995
16610W        W81595  14.812  41.554  11.594
16611W        W81596  40.767  18.347  14.600
16612W        W81597  33.940   0.413   3.855
16613W        W81598  35.558  37.210   2.382
16614W        W81599  15.403  22.697  11.608
16615W        W81600  22.071  28.416  10.454
16616W        W81601  32.192  40.994  14.542
16617W        W81602   9.830  42.964  10.983
16618W        W81603   2.729  17.638  14.065
16619W        W81604  27.158   3.207  11.590
16620W        W81605  42.168  37.941   4.576
16621W        W81606  21.617  40.514  14.372
16622W        W81607   4.450   1.787   3.710
16623W        W81608  33.119  11.432   3.808
16624W        W81609  25.746  13.267  14.512
16625W        W81610   7.400  35.535  14.854
16626W        W81611   7.212  44.544   1.694
16627W        W81612  36.113   7.811  14.288
16628W        W81613  17.115  13.330   4.550
16629W        W81614   1.818  42.750  14.735
16630W        W81615  20.481  36.059   0.459
16631W        W81616  17.238  15.386   4.607
16632W        W81617  35.812  11.794   3.051
16633W        W81618  34.875   2.371  12.544
16634W        W81619  23.252   7.520   4.692
16635W        W81620  22.565  32.454  10.197
16636W        W81621   2.878  36.662  13.804
16637W        W81622  15.807  38.779   3.571
16638W        W81623   1.277  29.234   4.164
16639W        W81624  30.615   5.410   1.268
16640W        W81625  34.276   8.404  11.262
16641W        W81626  18.019  21.792  14.852
16642W        W81627  41.961  32.893  14.362
16643W        W81628  22.282  37.778  14.506
16644W        W81629  11.866  35.964  11.209
16645W        W81630  19.537  15.327  14.468
16646W        W81631   9.859  12.298   2.572
16647W        W81632  12.873  40.854   3.580
16648W        W81633  18.199  12.778   0.577
16649W        W81634   2.837  24.547   4.427
16650W        W81635  23.067  20.193   3.255
16651W        W81636  25.686   3.118   0.984
16652W        W81637  12.187  32.121  12.592
16653W        W81638  30.493  27.828   3.329
16654W        W81639   7.360  38.272  13.827
16655W        W81640  14.613   9.115  14.228
16656W        W81641  20.515  26.428   0.614
16657W        W81642  44.447   1.885   3.221
16658W        W81643  27.105  35.189   2.606
16659W        W81644  32.551   6.770   1.732
16660W        W81645  16.510  10.641   1.980
16661W        W81646  10.687  31.122   1.348
16662W        W81647  42.921  18.571   5.398
16663W        W81648  33.363  43.019  14.242
16664W        W81649  39.969  44.165  11.559
16665W        W81650  36.509  44.578  11.078
16666W        W81651  43.255  23.619  10.677
16667W        W81652  24.920   6.732   4.157
16668W        W81653  17.355   6.325   9.793
16669W        W81654  35.088  12.276   5.608
16670W        W81655   5.764  41.890  10.654
16671W        W81656  36.279  22.608  10.798
16672W        W81657  41.239  14.108  12.987
16673W        W81658  36.649  16.140  10.766
16674W        W81659  21.057  20.162   3.387
16675W        W81660  29.138   7.786   1.411
16676W        W81661  17.910   3.745   1.691
16677W        W81662   2.454  25.225  12.889
16678W        W81663  13.214   2.024   5.113
16679W        W81664   5.791   4.824   3.915
16680W        W81665  11.186  41.564  12.427
16681W        W81666  11.756  10.961  10.761
16682W        W81667  38.517  29.147  12.559
16683W        W81668  30.643  12.656  12.390
16684W        W81669  11.994  18.934   3.554
16685W        W81670   7.419  24.281  13.913
16686W        W81671  28.161   2.930   0.539
16687W        W81672   4.812   6.670   1.605
16688W        W81673  30.052  33.902  14.497
16689W        W81674  40.124  13.655  10.933
16690W        W81675  13.304  20.774   0.813
16691W        W81676  44.434  39.508   1.239
16692W        W81677  17.154  33.519   0.728
16693W        W81678  20.759  43.980   3.725
16694W        W81679  32.905  21.917  14.532
16695W        W81680  26.341  31.144   3.695
16696W        W81681  44.233  18.557  12.350
16697W        W81682  24.151  23.455  14.453
16698W        W81683   0.734  30.123  14.023
16699W        W81684   4.708  22.069  11.271
16700W        W81685  31.008  25.360   1.403
16701W        W81686   3.946  15.994   3.015
16702W        W81687  20.815  30.217   2.862
16703W        W81688  36.189  18.234   1.112
16704W        W81689  25.055  27.973  14.458
16705W        W81690  29.067  37.338   4.086
16706W        W81691  19.669   9.640  11.655
16707W        W81692  27.448  31.440  10.696
16708W        W81693  44.934  26.926   5.055
16709W        W81694   9.932  35.083   4.649
16710W        W81695  13.251  40.852  13.115
16711W        W81696  13.588  25.586   1.241
16712W        W81697   3.782  29.397   3.722
16713W        W81698  39.357   0.446  12.024
16714W        W81699  24.398   4.191   2.739
16715W        W81700   2.960   8.183   1.277
16716W        W81701   9.180   8.813  11.746
16717W        W81702  35.936  31.769   2.265
16718W        W81703  33.953  21.778  11.610
16719W        W81704  44.606  24.774  12.007
16720W        W81705  10.780  36.912   3.229
16721W        W81706  15.998  17.650  10.970
16722W        W81707  11.182  26.783   4.601
16723W        W81708  25.541  34.903  10.786
16724W        W81709   7.907  32.178  11.963
16725W        W81710   5.640  18.736  14.764
16726W        W81711  16.828  24.560   1.756
16727W        W81712  43.371  20.674   1.737
16728W        W81713  18.236  10.128  13.965
16729W        W81714  38.747   7.874   4.972
16730W        W81715  34.303  16.165  12.654
16731W        W81716  13.681  29.486   0.771
16732W        W81717   9.626   7.732   0.881
16733W        W81718  23.072  29.979  10.903
16734W        W81719   3.017  37.380  10.192
16735W        W81720  30.526   4.432  10.387
16736W        W81721  39.981  42.879  11.921
16737W        W81722  31.050   8.731   3.149
16738W        W81723  33.853   5.647  11.448
16739W        W81724  37.561  44.721   3.195
16740W        W81725  16.841  44.050   1.889
16741W        W81726  32.173  17.090  10.358
16742W        W81727  24.178  37.568  14.378
16743W        W81728  32.021  20.005   4.743
16744W        W81729  13.868  30.368   3.286
16745W        W81730   7.399  37.913  11.124
16746W        W81731  40.936   6.410   3.725
16747W        W81732  43.890  16.423  13.626
16748W        W81733  32.991   2.861  12.624
16749W        W81734  30.484  20.141   4.178
16750W        W81735   0.246  19.736  11.492
16751W        W81736  22.190  28.872  11.983
16752W        W81737  26.015  37.033  12.462
16753W        W81738  42.138  31.773   2.385
16754W        W81739  15.818  39.370   2.209
16755W        W81740  13.159  39.362  13.061
16756W        W81741   4.310  25.003   2.136
16757W        W81742   7.455  17.659  12.457
16758W        W81743  18.631  18.088   4.850
16759W        W81744  22.020  34.804  14.026
16760W        W81745  39.167   3.213  11.964
16761W        W81746  18.829  13.409  13.828
16762W        W81747  40.979  26.249   3.604
16763W        W81748  32.091  40.493   0.983
16764W        W81749   0.103  28.564   4.283
16765W        W81750  29.694  13.652  11.863
16766W        W81751  10.354  26.520  10.860
16767W        W81752  41.045  41.368   1.277
16768W        W81753  19.843  41.340   1.156
16769W        W81754  40.905  39.107  14.898
16770W        W81755  27.603  14.342  11.806
16771W        W81756  33.929  22.166  10.999
16772W        W81757   8.346  41.564   1.110
16773W        W81758  12.283   6.188  13.007
16774W        W81759  19.766  22.607   3.702
16775W        W81760  20.017   3.700  10.467
16776W        W81761  20.612  38.249   3.636
16777W        W81762  31.828  44.273  12.763
16778W        W81763   3.636   7.025  11.051
16779W        W81764  13.378  27.232  12.843
16780W        W81765  36.902  42.734   0.027
16781W        W81766  26.533  25.822  14.976
16782W        W81767  38.915  34.636  12.916
16783W        W81768  42.802  26.153   1.628
16784W        W81769  30.560  12.606   2.795
16785W        W81770  33.770  33.578  14.604
16786W        W81771  37.062  37.453   3.634
16787W        W81772  20.815  24.213  10.687
16788W        W81773   6.660  27.401  12.585
16789W        W81774  36.775  36.992   1.002
16790W        W81775  12.770  23.547   4.307
16791W        W81776  24.155   9.748  10.402
16792W        W81777  30.146  28.009   1.142
16793W        W81778   0.196  39.348  10.363
16794W        W81779   8.875  14.747   0.408
16795W        W81780  28.086  16.753   0.906
16796W        W81781  37.529  24.757   2.153
16797W        W81782   4.537  32.011   2.179
16798W        W81783  44.123   5.279   1.566
16799W        W81784  22.595  29.349   0.564
16800W        W81785  40.066  21.061   1.001
16801W        W81786   2.279  30.626   3.643
16802W        W81787  33.578  12.848   4.165
16803W        W81788  30.542  40.533   3.737
16804W        W81789  44.881  17.073  10.639
16805W        W81790   9.344  13.086   1.757
16806W        W81791  40.953   9.724   0.936
16807W        W81792  25.077  29.973   3.124
16808W        W81793   8.307  44.856  11.526
16809W        W81794   1.486  10.187  11.354
16810W        W81795   0.014  35.969   3.778
16811W        W81796  12.601  24.385   3.255
16812W        W81797  32.410  39.214  12.659
16813W        W81798  15.749   0.542  12.619
16814W        W81799  38.357  17.015  12.696
16815W        W81800  20.131  38.088   1.906
16816W        W81801  42.903  40.723  11.942
16817W        W81802  22.588  16.676  13.824
16818W        W81803   2.496  34.796   2.209
16819W        W81804  20.155   9.384  13.503
16820W        W81805  38.448  18.106   0.885
16821W        W81806  38.107  43.402  11.972
16822W        W81807  44.059  41.980  11.958
16823W        W81808  38.945   5.861  14.888
16824W        W81809  38.929   0.713  13.242
16825W        W81810  38.559  24.980   5.511
16826W        W81811  41.841  15.463   5.449
16827W        W81812  19.011  18.043  11.281
16828W        W81813  23.059   5.493   4.503
16829W        W81814   8.649  22.643  12.020
16830W        W81815  30.338  34.574  13.799
16831W        W81816  33.679   7.722  13.409
16832W        W81817  27.741  18.962   1.864
16833W        W81818  36.965  29.392  10.651
16834W        W81819  32.511  15.708   3.536
16835W        W81820  29.583  33.096  10.548
16836W        W81821  28.981  27.557  12.762
16837W        W81822  36.976   8.278   4.566
16838W        W81823  27.195  18.024   4.079
16839W        W81824  29.168   4.785   3.554
16840W        W81825  12.744  21.251  13.231
16841W        W81826  27.577  20.126   3.133
16842W        W81827  28.531  20.680  10.836
16843W        W81828  39.828   8.947  11.525
16844W        W81829  39.963  15.538   4.107
16845W        W81830  44.438  25.168   4.752
16846W        W81831  29.718  24.397   5.025
16847W        W81832  28.992  39.466  11.019
16848W        W81833  35.981  23.129   2.107
16849W        W81834  13.023   5.744   3.664
16850W        W81835  33.038  43.761  13.888
16851W        W81836  20.458  36.338   0.017
16852W        W81837  22.816  29.516  13.090
16853W        W81838  18.258   2.749   3.828
16854W        W81839   5.675  27.126  14.917
16855W        W81840  30.923  17.288   1.830
16856W        W81841  29.512   0.239   3.240
16857W        W81842  19.123  38.095   1.457
16858W        W81843  33.998  40.386  14.442
16859W        W81844  19.256  30.304   2.732
16860W        W81845  40.999  11.810  10.994
16861W        W81846  26.733  35.511   4.883
16862W        W81847  22.077  40.494   3.863
16863W        W81848  33.054   0.105   1.514
16864W        W81849  22.057   8.221   3.822
16865W        W81850   8.320   7.837   1.326
16866W        W81851  26.371   2.480   0.337
16867W        W81852  22.174  19.597  14.824
16868W        W81853  36.039  38.985   2.849
16869W        W81854   1.482  31.422   2.854
16870W        W81855  42.813  12.848  13.803
16871W        W81856  34.666  24.026  11.473
16872W        W81857  20.755   8.927   2.393
16873W        W81858  32.450  42.860  13.205
16874W        W81859   1.179  30.530  11.900
16875W        W81860  14.097  42.563  12.088
16876W        W81861  10.794  28.332   3.401
16877W        W81862  30.935  30.906   1.963
16878W        W81863  27.102  12.677  10.295
16879W        W81864  24.187   5.335   3.296
16880W        W81865  36.586  26.576   4.363
16881W        W81866  13.791   9.176   4.070
16882W        W81867  39.345  21.046  13.670
16883W        W81868  38.263  24.111   4.589
16884W        W81869  41.904   1.319   3.638
16885W        W81870  36.424  44.820  10.606
16886W        W81871   0.992  13.667  12.470
16887W        W81872  23.075  40.933  11.406
16888W        W81873   7.172  26.218   2.193
16889W        W81874   6.248  35.068   0.472
16890W        W81875  18.958  41.158  12.473
16891W        W81876  36.317  29.872  13.021
16892W        W81877  24.390  43.729  14.044
16893W        W81878  30.023  23.539   4.402
16894W        W81879   9.374  15.570  12.830
16895W        W81880  15.213  24.687   9.770
16896W        W81881  12.386   3.777  13.700
16897W        W81882  28.535  24.461  11.509
16898W        W81883  44.869  29.158   4.556
16899W        W81884  28.269  44.221   3.203
16900W        W81885   6.375  31.139   0.495
16901W        W81886  35.800  34.096   1.607
16902W        W81887  24.729  18.161   1.793
16903W        W81888  43.660  20.968  14.500
16904W        W81889  37.862  20.815  14.849
16905W        W81890  22.031  18.332   5.071
16906W        W81891  32.123  23.391  13.075
16907W        W81892   7.692  29.744  13.115
16908W        W81893  37.060  40.481   5.093
16909W        W81894  17.949   6.569  10.716
16910W        W81895  37.905  33.092  13.921
16911W        W81896  18.233  33.371  11.994
16912W        W81897  14.183  30.766   3.299
16913W        W81898  38.745   5.182   1.487
16914W        W81899  15.244  14.599  14.951
16915W        W81900  42.782  32.225   0.397
16916W        W81901  23.153   1.489  10.251
16917W        W81902  34.495  42.382  13.452
16918W        W81903  32.147   9.720  12.943
16919W        W81904  27.952  35.089  14.463
16920W        W81905   2.300  24.427   0.301
16921W        W81906   5.536  15.238   0.887
16922W        W81907  23.177   1.308  10.729
16923W        W81908   5.376  37.562  14.972
16924W        W81909  44.484  21.539   4.497
16925W        W81910  13.167  24.799   2.102
16926W        W81911  36.542  16.542   1.028
16927W        W81912  16.455  20.022  12.556
16928W        W81913  41.350  32.092  12.405
16929W        W81914  38.298  17.782  14.430
16930W        W81915   7.311  13.587   2.935
16931W        W81916   4.281   3.609  12.595
16932W        W81917  38.157  43.534   1.827
16933W        W81918  40.356  18.370  10.797
16934W        W81919  38.318  19.745   3.299
16935W        W81920  15.579  21.777  13.327
16936W        W81921  39.685  36.749   0.054
16937W        W81922  37.371  17.763   2.950
16938W        W81923  17.573  34.096  12.849
16939W        W81924  10.807  40.635   4.605
16940W        W81925   9.188  10.107  10.809
16941W        W81926  14.783  13.386   0.546
16942W        W81927  23.127  24.210   4.144
16943W        W81928   9.355   4.277  13.548
16944W        W81929  22.535  10.259   0.785
16945W        W81930  31.768   8.338  14.534
16946W        W81931  15.926  26.020   1.422
16947W        W81932  25.836  28.114   4.947
16948W        W81933   1.953  31.513   3.706
16949W        W81934  28.881  28.801   2.239
16950W        W81935  33.684  34.903   2.719
16951W        W81936  21.254  28.225   2.516
16952W        W81937   1.762  22.681  13.407
16953W        W81938  33.310  11.118   1.412
16954W        W81939  30.305  18.504   4.126
16955W        W81940  41.264   1.363  10.772
16956W        W81941  15.549  35.101   2.539
16957W        W81942  39.785  13.135   2.144
16958W        W81943  18.168  33.594   1.507
16959W        W81944  32.995   4.227   3.775
16960W        W81945  38.826  18.128  11.884
16961W        W81946  33.380  15.543   0.789
16962W        W81947  27.161  16.659   2.774
16963W        W81948  44.899  35.426   1.959
16964W        W81949  34.717  18.284   4.332
16965W        W81950  16.346  32.375   1.772
16966W        W81951  38.010  20.048  12.973
16967W        W81952  28.691  10.204  10.131
16968W        W81953  28.357  17.372   4.542
16969W        W81954   2.762  16.946   1.028
16970W        W81955  43.789   6.581   0.467
16971W        W81956  38.433  38.453  12.959
16972W        W81957   6.891   3.251   0.534
16973W        W81958  12.825  23.015   3.044
16974W        W81959  15.433  19.461   1.747
16975W        W81960  12.036  34.507   2.967
16976W        W81961  26.143  18.880  12.135
16977W        W81962  23.265  43.924  12.902
16978W        W81963  28.268  40.516   4.416
16979W        W81964   4.374  29.367   1.843
16980W        W81965  30.163  16.152   4.070
16981W        W81966  40.143  36.636  10.751
16982W        W81967  35.112  42.220   0.747
16983W        W81968   7.163   3.009   1.734
16984W        W81969  35.982  14.984  14.061
16985W        W81970  12.167  41.036   0.924
16986W        W81971   3.984  10.172   2.828
16987W        W81972  41.865  38.258  11.599
16988W        W81973   5.959  19.741  14.021
16989W        W81974  34.392  26.460  11.233
16990W        W81975  12.054  10.764   3.538
16991W        W81976  31.616   3.515  13.828
16992W        W81977  29.605  30.786  13.825
16993W        W81978  10.980  27.013  12.724
16994W        W81979  10.556  39.562   2.649
16995W        W81980   3.247   1.834  13.775
16996W        W81981  24.626   6.721   4.583
16997W        W81982  40.858  28.810   1.733
16998W        W81983  33.424  17.268   3.275
16999W        W81984  31.815  20.589  14.922
17000W        W81985  36.441  32.038   3.748
17001W        W81986   2.047   3.932   2.220
17002W        W81987  33.572   2.625   4.691
17003W        W81988  13.770  33.450   0.818
17004W        W81989  21.402   9.032   4.934
17005W        W81990  35.800   8.311   1.032
17006W        W81991  39.789  20.752   1.318
17007W        W81992  26.915  24.975   3.776
17008W        W81993  19.534  29.942  12.097
17009W        W81994  26.629  28.627   4.132
17010W        W81995  34.380  38.320  14.047
17011W        W81996  10.161  40.862  14.390
17012W        W81997   7.024  14.428   3.246
17013W        W81998  43.231  40.317   1.295
17014W        W81999  33.703  24.763  14.444
17015W        W82000  29.047  38.371   4.473
17016W        W82001  27.053   7.681  11.499
17017W        W82002   4.256  10.667  11.021
17018W        W82003  14.085   1.872   0.586
17019W        W82004  13.629  40.509   4.358
17020W        W82005   6.958  31.476   2.851
17021W        W82006  26.264  39.978  11.714
17022W        W82007  39.726  29.947  12.761
17023W        W82008  16.216  32.879   1.669
17024W        W82009   4.460  42.888   0.535
17025W        W82010   6.459   6.139  14.975
17026W        W82011  33.665  25.537  12.402
17027W        W82012  38.567  39.979   2.529
17028W        W82013   9.941  15.460  13.900
17029W        W82014  22.779   2.335   2.185
17030W        W82015   5.077  21.245   3.658
17031W        W82016   0.191  35.416  11.862
17032W        W82017   1.218  18.648   1.467
17033W        W82018   7.261  27.557   4.386
17034W        W82019  22.720  36.393   2.963
17035W        W82020  33.697   8.463  14.317
17036W        W82021  42.016   4.496   2.212
17037W        W82022   9.823   2.169   0.535
17038W        W82023  28.513  28.185   0.654
17039W        W82024  32.167   8.306   3.612
17040W        W82025  32.562  34.043   0.691
17041W        W82026  36.495   5.984   4.882
17042W        W82027   3.441  37.501  11.640
17043W        W82028   1.425   1.076   2.977
17044W        W82029  32.885  10.372  11.860
17045W        W82030  39.311  18.243  14.060
17046W        W82031  18.495  23.504   3.699
17047W        W82032  22.024  28.659   1.489
17048W        W82033  43.581  10.157   0.265
17049W        W82034  41.644  19.296  13.029
17050W        W82035  43.077  37.194   2.394
17051W        W82036  35.156   1.021  11.200
17052W        W82037  24.082  23.374  13.950
17053W        W82038   5.275  34.122  12.054
17054W        W82039  28.555  29.305  13.999
17055W        W82040   2.205  36.407   0.406
17056W        W82041  21.159  29.538  12.816
17057W        W82042  13.635   1.240  13.284
17058W        W82043  32.621   4.694  10.814
17059W        W82044  26.029  40.025  12.760
17060W        W82045  22.677  19.505   3.426
17061W        W82046  42.507  43.354   4.736
17062W        W82047  21.348  28.279   4.090
17063W        W82048  44.751  32.690  14.954
17064W        W82049  10.682  25.436  12.582
17065W        W82050  22.733  35.882  13.077
17066W        W82051  14.175  26.903  11.668
17067W        W82052  39.097  14.299   2.623
17068W        W82053  22.315  41.440   0.416
17069W        W82054  23.869  29.946  13.988
17070W        W82055  22.690  38.106  13.570
17071W        W82056  15.588  39.477  10.706
17072W        W82057  16.018  10.728   1.222
17073W        W82058  23.504  17.891   1.640
17074W        W82059  19.445  24.135  11.600
17075W        W82060  18.457  11.633   2.443
17076W        W82061  34.633   8.926   0.323
17077W        W82062  10.834   5.206  10.712
17078W        W82063  10.144  12.314   3.728
17079W        W82064  40.955  15.163  13.271
17080W        W82065  29.505  34.970   0.693
17081W        W82066  44.336  27.483   3.649
17082W        W82067  18.854   2.734   1.917
17083W        W82068  27.910  38.052   4.504
17084W        W82069  20.410  27.016  11.536
17085W        W82070  42.890  30.232  12.928
17086W        W82071  19.253   5.449   9.767
17087W        W82072  24.179  28.101  14.527
17088W        W82073  18.108   6.003   0.347
17089W        W82074   7.993   3.832   4.263
17090W        W82075  12.110   1.462   4.762
17091W        W82076   4.191  39.308  11.590
17092W        W82077   1.710  41.394  13.559
17093W        W82078   9.141   5.212  11.682
17094W        W82079  24.201  18.039   0.903
17095W        W82080   5.465  32.790  12.887
17096W        W82081  21.974  26.098   3.238
17097W        W82082   1.335  35.862   4.095
17098W        W82083   7.854  43.296   0.031
17099W        W82084  44.872   5.722   0.901
17100W        W82085  31.806  15.614  10.307
17101W        W82086  16.878  41.109   3.291
17102W        W82087  38.759   5.756  11.969
17103W        W82088  23.599  31.655  14.970
17104W        W82089   4.756  16.928  14.376
17105W        W82090  19.991  22.232   2.217
17106W        W82091   8.413   6.478   2.227
17107W        W82092  21.605  10.790  13.361
17108W        W82093   2.374  40.580  10.790
17109W        W82094   3.303  27.862  12.513
17110W        W82095  17.512   0.974  11.596
17111W        W82096  35.757  42.720  12.607
17112W        W82097   6.395  33.864  13.986
17113W        W82098   8.645   7.899  14.037
17114W        W82099  39.661  11.593  12.730
17115W        W82100   0.387   1.527   4.236
17116W        W82101   2.269   5.424  10.958
17117W        W82102  10.677  17.110   4.609
17118W        W82103  24.092   8.772  10.726
17119W        W82104  32.374  20.320   4.001
17120W        W82105  13.180  35.979   3.550
17121W        W82106  15.868  18.544   1.668
17122W        W82107   9.864   8.111   4.126
17123W        W82108  39.517  11.711   4.610
17124W        W82109   5.557  35.360   1.345
17125W        W82110  10.668   2.419  12.984
17126W        W82111  13.115  22.518  13.903
17127W        W82112  27.179  24.359  11.081
17128W        W82113  13.040  10.284   4.568
17129W        W82114  11.704  20.634   2.779
17130W        W82115  41.080  43.563  11.055
17131W        W82116  22.550  10.778  11.990
17132W        W82117   3.119  40.589   0.426
17133W        W82118  17.998  38.772   4.645
17134W        W82119  10.380  17.002   3.130
17135W        W82120  17.698  22.242  14.522
17136W        W82121   2.421  41.680  13.117
17137W        W82122   6.161  27.243  13.439
17138W        W82123  16.286  17.830   2.878
17139W        W82124   3.713  11.566  12.656
17140W        W82125   0.249  20.035   4.189
17141W        W82126  33.838   3.638   2.249
17142W        W82127  12.343  12.030   1.849
17143W        W82128   5.488  23.603   0.898
17144W        W82129  29.803  24.016  14.969
17145W        W82130   6.129  28.654  13.354
17146W        W82131  24.277   7.168   2.764
17147W        W82132  11.634  38.791   5.046
17148W        W82133  23.060  22.046  13.843
17149W        W82134  30.031  42.176  14.967
17150W        W82135  24.112  16.400  13.425
17151W        W82136  31.384  19.735  11.527
17152W        W82137  29.611  20.947  11.015
17153W        W82138  16.033  39.952  13.800
17154W        W82139   8.246  23.288   0.772
17155W        W82140   9.457  25.751   3.398
17156W        W82141  26.443  33.987  10.671
17157W        W82142  19.229  25.122  10.417
17158W        W82143  16.777  32.231  11.597
17159W        W82144   5.866  35.060   4.616
17160W        W82145   8.503   6.595  12.478
17161W        W82146   1.831   5.016   1.417
17162W        W82147   4.216  44.989  11.461
17163W        W82148  39.174   5.637   2.911
17164W        W82149   3.215  44.470   3.675
17165W        W82150  10.216  21.016   4.550
17166W        W82151   6.063   2.565   3.215
17167W        W82152  43.915  36.943  13.163
17168W        W82153   5.387  43.575  14.914
17169W        W82154  36.989  35.824  12.243
17170W        W82155  38.248  31.520  13.896
17171W        W82156  11.279   4.769  11.457
17172W        W82157   4.695  37.753   0.788
17173W        W82158   9.637  36.472   1.256
17174W        W82159  29.838  20.336  13.983
17175W        W82160  15.790  14.799   3.522
17176W        W82161  33.130  12.373  13.067
17177W        W82162  21.285  42.024  10.799
17178W        W82163  19.511  34.514  11.578
17179W        W82164   5.456  17.106   0.843
17180W        W82165  26.551  22.749   3.993
17181W        W82166   5.093   7.864   1.271
17182W        W82167  20.669   6.307  10.724
17183W        W82168   3.868  11.419  14.447
17184W        W82169   0.543  39.340   4.875
17185W        W82170  40.102   5.172   1.453
17186W        W82171  38.049   6.963   0.592
17187W        W82172   3.813  43.024   2.192
17188W        W82173  40.651  36.882  12.586
17189W        W82174  34.374   3.129  13.904
17190W        W82175   0.491   0.216   4.557
17191W        W82176  44.305   3.927  14.928
17192W        W82177  12.804   3.663   1.294
17193W        W82178  37.591  23.786  12.053
17194W        W82179  16.318   2.948   4.946
17195W        W82180   6.374  24.692   1.739
17196W        W82181  17.538   2.262   0.963
17197W        W82182  27.057   6.619  12.418
17198W        W82183  26.221  27.242   3.643
17199W        W82184  21.019  11.055  10.385
17200W        W82185  42.261   1.476  14.905
17201W        W82186  14.958  34.965   4.279
17202W        W82187  40.515   4.847   1.334
17203W        W82188  15.246  33.657  10.483
17204W        W82189  25.433   8.682  12.485
17205W        W82190   7.133   2.178  14.935
17206W        W82191  18.094  41.038   2.971
17207W        W82192  36.034   9.398  14.463
17208W        W82193   9.920  14.887   0.254
17209W        W82194  31.692  29.212  10.672
17210W        W82195   5.452  10.349  12.957
17211W        W82196  12.534  10.196  12.144
17212W        W82197  20.120  36.957   4.641
17213W        W82198  11.122  42.475  11.987
17214W        W82199  26.036  39.819   3.474
17215W        W82200   8.640  16.596   2.275
17216W        W82201  14.018  40.907   4.563
17217W        W82202   5.209  36.800   0.118
17218W        W82203  26.642  12.330  12.996
17219W        W82204   6.484   2.005  10.098
17220W        W82205  12.730  30.002   3.635
17221W        W82206  36.298   9.599   0.395
17222W        W82207  33.547  33.060   4.665
17223W        W82208   1.239  32.445  13.003
17224W        W82209   5.720  39.020   2.689
17225W        W82210   8.153  38.109  12.385
17226W        W82211  31.599  34.842   4.559
17227W        W82212  44.441   0.918   2.181
17228W        W82213  34.565  10.636   2.817
17229W        W82214   8.294  32.386   1.391
17230W        W82215  25.553   5.396   0.826
17231W        W82216   8.821  10.782   2.516
17232W        W82217  18.111  34.483   2.742
17233W        W82218  42.123  33.928   5.037
17234W        W82219   3.897  18.832  13.666
17235W        W82220  22.228  29.702  11.027
17236W        W82221  28.329  26.067   4.480
17237W        W82222  41.213  13.205  11.252
17238W        W82223  29.663  35.918  12.073
17239W        W82224  14.193  36.819  14.795
17240W        W82225  22.677  38.076  14.669
17241W        W82226  37.069  36.297  11.893
17242W        W82227   2.215  31.386  12.955
17243W        W82228  37.414  39.298   2.351
17244W        W82229   9.421  14.320  12.140
17245W        W82230  28.915  25.544  10.767
17246W        W82231  21.339  34.971  12.562
17247W        W82232  12.311  31.567  13.291
17248W        W82233   1.388  16.751  11.158
17249W        W82234   1.009   8.461  12.929
17250W        W82235  34.486   3.365   3.084
17251W        W82236  10.164  14.129  12.686
17252W        W82237  40.944   2.557  13.051
17253W        W82238  11.765  28.962  14.802
17254W        W82239  22.596   9.516   2.081
17255W        W82240  28.635   2.775   0.726
17256W        W82241  15.352  16.682   3.226
17257W        W82242  11.770   2.794   1.724
17258W        W82243   9.728   6.477  12.085
17259W        W82244   2.853  37.849   4.680
17260W        W82245  38.752  15.317   2.144
17261W        W82246   5.859  11.036  13.505
17262W        W82247  11.245  10.529  13.548
17263W        W82248   1.030  35.197  14.772
17264W        W82249  42.999  26.261  10.172
17265W        W82250   2.005  11.753   3.787
17266W        W82251  22.774   5.995   4.288
17267W        W82252  34.969   4.930  13.011
17268W        W82253   8.059  23.933   2.733
17269W        W82254   3.509  11.723   2.891
17270W        W82255  29.101  41.930   3.350
17271W        W82256  12.280   9.096  12.373
17272W        W82257  37.556   3.861  12.495
17273W        W82258  14.816  34.080  13.586
17274W        W82259  18.706   9.895  13.934
17275W        W82260  33.171  42.020   2.700
17276W        W82261  39.685  16.388   9.848
17277W        W82262  39.328  13.838  11.537
17278W        W82263  37.935  38.152   0.777
17279W        W82264  12.579  44.902   1.216
17280W        W82265   4.232   3.218  12.008
17281W        W82266  35.957  42.015   3.579
17282W        W82267  29.258  24.055   0.826
17283W        W82268  10.842  20.017  13.001
17284W        W82269  22.536  20.557  11.179
17285W        W82270  35.610  11.251  13.924
17286W        W82271  40.790  29.902   3.756
17287W        W82272  32.782  12.767   0.027
17288W        W82273  31.379  34.584  11.535
17289W        W82274  26.457  16.677  14.779
17290W        W82275  24.594  42.316   3.790
17291W        W82276  27.724  17.106   4.954
17292W        W82277  18.306  35.152   3.633
17293W        W82278  24.026  26.714   1.983
17294W        W82279  10.871  22.283  10.654
17295W        W82280  37.475  24.491   1.726
17296W        W82281  20.508  20.775  14.148
17297W        W82282  19.518  43.989  12.609
17298W        W82283   6.120  36.907   2.263
17299W        W82284  26.336  40.987   1.252
17300W        W82285   6.900  32.907  10.691
17301W        W82286  31.998  27.922   4.612
17302W        W82287   6.794  20.773   1.412
17303W        W82288  14.240  40.462   0.964
17304W        W82289  13.488  19.992   1.854
17305W        W82290  33.175  36.888  10.987
17306W        W82291  24.119  24.478   0.374
17307W        W82292  22.298  41.406  13.511
17308W        W82293  13.651  29.167   1.853
17309W        W82294  20.777  37.156   3.788
17310W        W82295   2.505  38.325   0.818
17311W        W82296  21.180   2.357   1.791
17312W        W82297  17.028  43.873   1.430
17313W        W82298  33.490  38.418  14.315
17314W        W82299  24.788  15.811  13.653
17315W        W82300   1.812   5.134   4.091
17316W        W82301  15.036  17.608  10.623
17317W        W82302   9.434   0.917   4.528
17318W        W82303  21.632  33.235  10.383
17319W        W82304  23.672  36.473  12.458
17320W        W82305  42.062  18.735  11.963
17321W        W82306  31.500  36.684  11.180
17322W        W82307  17.591  43.518  13.159
17323W        W82308  24.973  19.486   2.842
17324W        W82309  35.601   7.139  11.259
17325W        W82310  38.817   2.281   4.086
17326W        W82311  29.710  16.906   4.210
17327W        W82312  19.725  24.016   1.025
17328W        W82313  27.973   6.096  11.562
17329W        W82314  18.293  25.899  14.505
17330W        W82315  28.543  37.991   3.852
17331W        W82316   8.626  13.195  11.633
17332W        W82317  28.065   9.312   3.831
17333W        W82318  40.198  28.819  13.519
17334W        W82319   4.712   1.146   4.229
17335W        W82320  15.689  38.425  10.683
17336W        W82321   5.403  13.875   1.193
17337W        W82322   7.318   2.840   1.265
17338W        W82323  27.237  25.062  12.182
17339W        W82324  19.558  40.358   0.795
17340W        W82325  22.627  20.809   3.586
17341W        W82326  42.150   1.736   3.836
17342W        W82327  36.113  18.686  11.321
17343W        W82328  33.061  22.696   0.778
17344W        W82329  19.819  28.738   1.398
17345W        W82330  22.554  43.605   4.162
17346W        W82331   4.774  42.802  14.775
17347W        W82332   2.905  21.127   0.929
17348W        W82333  30.167  10.065   2.230
17349W        W82334  10.688  24.116  14.844
17350W        W82335  20.727  41.778  13.045
17351W        W82336   6.599  14.693  13.430
17352W        W82337  44.010  34.967  10.149
17353W        W82338  20.283  15.317  11.233
17354W        W82339   5.152  40.721  11.958
17355W        W82340   2.140  12.870   4.995
17356W        W82341  27.517  19.313  10.783
17357W        W82342  33.380  28.626   2.744
17358W        W82343  37.989  32.343   4.322
17359W        W82344   3.278  27.421   2.342
17360W        W82345  27.101  44.323  12.849
17361W        W82346  12.245  17.118   4.648
17362W        W82347  44.013  38.444  14.842
17363W        W82348  16.207  28.134   0.658
17364W        W82349  34.009  40.360   2.858
17365W        W82350  24.998  21.212   4.626
17366W        W82351  20.506   5.346  12.070
17367W        W82352   9.522  34.212  14.350
17368W        W82353   0.807  32.068   1.469
17369W        W82354  35.838  32.093   2.642
17370W        W82355  26.351  13.617  12.459
17371W        W82356  30.693  11.287   0.376
17372W        W82357  42.551   0.953   4.185
17373W        W82358   4.326  28.092   3.615
17374W        W82359  34.939  24.650  12.985
17375W        W82360  44.596  21.687  14.966
17376W        W82361  43.496  44.409   4.584
17377W        W82362  25.386  39.998  12.014
17378W        W82363  34.349  39.539   4.675
17379W        W82364   2.244  17.035   4.560
17380W        W82365  13.399  29.756  12.096
17381W        W82366   7.542  23.437  14.322
17382W        W82367  26.181  28.948  13.979
17383W        W82368  22.502  26.154   3.217
17384W        W82369  38.847  41.835   3.119
17385W        W82370  44.670  40.859  11.947
17386W        W82371  35.678  33.840  12.957
17387W        W82372  27.535  43.283   2.579
17388W        W82373  19.228  36.545   2.933
17389W        W82374  42.079  32.072   0.833
17390W        W82375  12.244   7.804   1.657
17391W        W82376  30.078  16.244  11.656
17392W        W82377  12.029  14.220   3.227
17393W        W82378  44.746  10.748  12.542
17394W        W82379  26.796  22.040   3.927
17395W        W82380  27.134  43.204  12.895
17396W        W82381   9.924  14.162  11.676
17397W        W82382  33.532  29.966   0.831
17398W        W82383  42.445  14.800  14.441
17399W        W82384  42.866  31.180   2.815
17400W        W82385  29.529  19.967   2.785
17401W        W82386  20.757  22.150  13.625
17402W        W82387  32.118  14.102  12.197
17403W        W82388  35.505  28.631   3.210
17404W        W82389  21.263   7.288   2.232
17405W        W82390  35.359  35.152   2.292
17406W        W82391  29.976  11.266  10.529
17407W        W82392  29.609  24.050   0.450
17408W        W82393  20.666  44.051  10.147
17409W        W82394  27.521   0.306  10.724
17410W        W82395  21.182   9.259  14.384
17411W        W82396  30.592  31.092  13.377
17412W        W82397   2.495  22.501   4.579
17413W        W82398  23.699  36.272   2.680
17414W        W82399  18.842  32.087   2.661
17415W        W82400   4.447  26.093   5.009
17416W        W82401   5.174  22.691   0.811
17417W        W82402  27.873  38.741   0.274
17418W        W82403  42.609  38.321  13.875
17419W        W82404   4.423   9.498   3.969
17420W        W82405  30.184  21.758   0.148
17421W        W82406  14.577  37.350   0.069
17422W        W82407  15.366  17.844   4.537
17423W        W82408   9.611   3.549   2.774
17424W        W82409  28.129   9.812  10.554
17425W        W82410  11.101  34.727   3.843
17426W        W82411  41.997  34.815   1.191
17427W        W82412  14.061  11.898   4.667
17428W        W82413  37.334  18.969  10.926
17429W        W82414  32.812   7.339   0.413
17430W        W82415  31.141  35.902  10.713
17431W        W82416   3.036  15.906   3.466
17432W        W82417  19.398  13.335   3.407
17433W        W82418  14.733  19.957  13.509
17434W        W82419  16.483   4.593   4.484
17435W        W82420  28.750  39.291   2.201
17436W        W82421  11.624  25.848  14.292
17437W        W82422  22.928  27.309  14.263
17438W        W82423   3.896  14.193  13.396
17439W        W82424  25.306  30.104   0.539
17440W        W82425   4.730  44.752   4.330
17441W        W82426  44.485  16.552  11.287
17442W        W82427  36.445  22.073  14.953
17443W        W82428  37.807  35.787   4.819
17444W        W82429  13.863  18.020  11.550
17445W        W82430  23.060  25.205  13.464
17446W        W82431   0.530  37.874   4.017
17447W        W82432  35.166  32.667  10.617
17448W        W82433  23.562  25.143  13.334
17449W        W82434   3.233  31.038  12.867
17450W        W82435  16.833   9.661   1.698
17451W        W82436  30.905  26.578  14.067
17452W        W82437  23.487  32.689   0.060
17453W        W82438  34.399  25.092  13.827
17454W        W82439  28.014   5.163   4.075
17455W        W82440  35.350  21.111  12.380
17456W        W82441  29.046  35.095   4.793
17457W        W82442  38.837   2.215  13.753
17458W        W82443  22.645  30.118  10.388
17459W        W82444  18.891  16.815   9.722
17460W        W82445  28.785  41.796   0.062
17461W        W82446  32.482  28.016   0.581
17462W        W82447  15.802  21.482  11.791
17463W        W82448  11.764  40.359  10.773
17464W        W82449  38.962  28.164  12.576
17465W        W82450   1.939  17.267  12.338
17466W        W82451  25.199   5.827  12.378
17467W        W82452  29.532   1.780  12.705
17468W        W82453  30.715  13.698   3.245
17469W        W82454  41.373  26.048   1.564
17470W        W82455   0.922   8.930  13.146
17471W        W82456  34.085   6.051   0.771
17472W        W82457  36.302  38.814   3.654
17473W        W82458  20.166  18.279   2.790
17474W        W82459  35.484  32.115  13.513
17475W        W82460  35.117  17.867  13.930
17476W        W82461  35.326  11.285   5.406
17477W        W82462   7.950  22.722   2.296
17478W        W82463  33.817   7.776   3.206
17479W        W82464  40.487  29.439  12.942
17480W        W82465  11.322  17.874  10.817
17481W        W82466   0.743  24.202  13.364
17482W        W82467  26.957  19.150   2.358
17483W        W82468  11.798  44.468   2.640
17484W        W82469   5.129   0.271   2.323
17485W        W82470  21.423  36.371  14.775
17486W        W82471  24.521  43.253   4.319
17487W        W82472   9.155   6.704  12.862
17488W        W82473  28.562  27.186  14.815
17489W        W82474  25.669  39.519   3.293
17490W        W82475   9.333  37.463  11.098
17491W        W82476  33.358  29.446  14.646
17492W        W82477  13.224  34.247   4.794
17493W        W82478   8.921   6.004   0.364
17494W        W82479  26.115  33.475  10.245
17495W        W82480  42.952  23.036  11.148
17496W        W82481  26.032   0.940  15.000
17497W        W82482  12.232  13.804   2.537
17498W        W82483  23.792   2.483  10.707
17499W        W82484   2.681  30.444   2.388
17500W        W82485  24.548   3.848   3.849
17501W        W82486  33.155  22.135  11.540
17502W        W82487  42.771  12.072   1.834
17503W        W82488  42.810  38.789   3.154
17504W        W82489   2.802  15.932   0.817
17505W        W82490  29.168  38.537   0.251
17506W        W82491  10.926  15.502  11.064
17507W        W82492   0.831  36.925  12.460
17508W        W82493  17.267  40.527   4.550
17509W        W82494  31.058  31.115  11.998
17510W        W82495  14.343  13.271  14.284
17511W        W82496  13.862  25.676   3.493
17512W        W82497  21.563  34.195   4.830
17513W        W82498  27.414  29.076  12.973
17514W        W82499   2.448   5.377  11.444
17515W        W82500  33.429  39.785  13.025
17516W        W82501  23.267   5.266   1.641
17517W        W82502   0.580  30.893  12.576
17518W        W82503  30.592  18.651   5.051
17519W        W82504  43.847  30.178  13.509
17520W        W82505   7.119   9.926   2.192
17521W        W82506  39.975   8.074   2.639
17522W        W82507   3.253  34.508   4.737
17523W        W82508  37.348   8.748   0.482
17524W        W82509  22.662   4.521  13.927
17525W        W82510  40.317  23.166   0.310
17526W        W82511  21.253  21.832  13.020
17527W        W82512   0.827  31.729   1.066
17528W        W82513  43.659  34.597  13.219
17529W        W82514   1.855   7.464   3.151
17530W        W82515  24.244  28.189   2.313
17531W        W82516  13.084  40.347   2.323
17532W        W82517  32.176   3.885  11.292
17533W        W82518  10.115  17.339   2.207
17534W        W82519   2.284   0.722   4.843
17535W        W82520   4.838   3.152   3.811
17536W        W82521  44.751  24.725   1.729
17537W        W82522  21.985  44.267   1.395
17538W        W82523   0.246   4.046   1.301
17539W        W82524  17.089  41.493  10.760
17540W        W82525  29.154  37.318   0.480
17541W        W82526  38.077  44.032   1.342
17542W        W82527  19.054  23.885  13.670
17543W        W82528  16.139   1.816  14.355
17544W        W82529  44.835  36.151  14.282
17545W        W82530  37.392  40.374  14.049
17546W        W82531   7.104  27.197   3.131
17547W        W82532  16.834  39.023  12.004
17548W        W82533  27.170  11.730   2.261
17549W        W82534  37.973  19.186  10.523
17550W        W82535   6.141  25.246   2.657
17551W        W82536  11.606   5.179   3.262
17552W        W82537  16.772  20.062   1.925
17553W        W82538  10.150  30.691  14.970
17554W        W82539  36.830  17.028  11.298
17555W        W82540  15.305  11.283  12.849
17556W        W82541  20.816  32.456  11.555
17557W        W82542  20.515   5.862   2.519
17558W        W82543  13.992  26.419  13.570
17559W        W82544  42.911  23.579  11.065
17560W        W82545  10.030  21.547  13.456
17561W        W82546  23.001   0.536   1.780
17562W        W82547  39.186  28.877   4.601
17563W        W82548  35.138  35.618  11.162
17564W        W82549  15.896  29.477  12.354
17565W        W82550  39.125  20.730  13.031
17566W        W82551   8.271  35.345   3.756
17567W        W82552  10.206  23.121   4.514
17568W        W82553  21.742  31.206  12.963
17569W        W82554   9.874  41.964   1.303
17570W        W82555  36.828  28.195   1.300
17571W        W82556  38.046  22.010   2.269
17572W        W82557   4.471  11.820   0.776
17573W        W82558  43.522  30.068  10.824
17574W        W82559  31.417  37.974   1.780
17575W        W82560  23.210  27.561  10.453
17576W        W82561   6.832  43.016   1.332
17577W        W82562  26.965   4.237   1.230
17578W        W82563  44.914  14.710  14.897
17579W        W82564  21.689  43.984  11.751
17580W        W82565  17.863   1.876  11.930
17581W        W82566  18.104  37.780  10.709
17582W        W82567  32.671  14.162  12.118
17583W        W82568  41.251  22.750   1.730
17584W        W82569  32.849  43.833   2.665
17585W        W82570   8.529  32.622  12.312
17586W        W82571  40.612  37.189   2.266
17587W        W82572  36.002  35.651   4.143
17588W        W82573  15.323  31.524  11.130
17589W        W82574  20.741  35.912  14.939
17590W        W82575   5.217  43.500   2.783
17591W        W82576  19.115   2.237  14.429
17592W        W82577   4.757  41.051  12.149
17593W        W82578   9.676  42.257   2.360
17594W        W82579  30.199  21.040   2.817
17595W        W82580  19.285   5.710  14.884
17596W        W82581  17.135   5.101   2.396
17597W        W82582  15.539  40.974  11.623
17598W        W82583  12.377  15.507   0.678
17599W        W82584  39.761  26.284  14.422
17600W        W82585  19.512  27.949   2.908
17601W        W82586  44.976  16.584  14.016
17602W        W82587  22.608  27.374  12.401
17603W        W82588   0.800  42.226   2.319
17604W        W82589  20.687  27.075  13.071
17605W        W82590  28.390  28.253  12.821
17606W        W82591  17.004  33.574   3.264
17607W        W82592  43.373  43.770  14.445
17608W        W82593  31.972  31.316   2.278
17609W        W82594  20.032   7.638  13.860
17610W        W82595  27.976  18.274  11.548
17611W        W82596  33.547  19.253   0.040
17612W        W82597  36.546  12.811   3.682
17613W        W82598  38.191  13.776  14.489
17614W        W82599  21.565   1.322  13.318
17615W        W82600  38.580   7.871   2.524
17616W        W82601  35.163  11.909  11.954
17617W        W82602  32.837  16.145  11.432
17618W        W82603  10.470  40.111  13.249
17619W        W82604  11.020   0.332  12.468
17620W        W82605  28.437  19.740   1.800
17621W        W82606  16.620  29.919  10.701
17622W        W82607  28.781  32.961   4.491
17623W        W82608   2.178   7.008  12.472
17624W        W82609  27.040  16.240   1.916
17625W        W82610   3.607  15.727   4.681
17626W        W82611  10.385  12.809   3.106
17627W        W82612  23.535  33.456  14.410
17628W        W82613  35.911  10.927  12.984
17629W        W82614   7.582  38.417  11.501
17630W        W82615  43.955  26.079  13.254
17631W        W82616  40.546   5.886   3.133
17632W        W82617  40.448   1.902   4.899
17633W        W82618  18.821  26.226  12.070
17634W        W82619  27.254  28.177  12.274
17635W        W82620  37.366   5.747  13.145
17636W        W82621  25.892   6.886   4.386
17637W        W82622  30.319   4.722  14.814
17638W        W82623  37.973   0.837  13.381
17639W        W82624  37.610  19.143   1.328
17640W        W82625  27.726  34.002   0.895
17641W        W82626   8.389  40.921   0.068
17642W        W82627   7.956  29.071  11.041
17643W        W82628  21.647  19.057  13.118
17644W        W82629  20.102  24.557  12.174
17645W        W82630  22.992  26.304   4.129
17646W        W82631  20.063   8.076   4.181
17647W        W82632  33.986  24.633  14.859
17648W        W82633  27.282  35.308  11.116
17649W        W82634  42.428   2.891   0.148
17650W        W82635   5.299  18.094   1.869
17651W        W82636  41.885   2.820  11.651
17652W        W82637  14.399  31.223   3.308
17653W        W82638   6.246  11.182   0.753
17654W        W82639  30.551  35.091   2.785
17655W        W82640  32.131  28.783  11.283
17656W        W82641  41.621  19.524  13.751
17657W        W82642  12.100  15.147   1.152
17658W        W82643  21.436  15.938  14.260
17659W        W82644  28.924  25.239  13.117
17660W        W82645   6.825  24.114   1.199
17661W        W82646  11.713  28.011   0.372
17662W        W82647  13.376  43.855  14.301
17663W        W82648  21.610  35.100   3.933
17664W        W82649   6.796  31.739   4.201
17665W        W82650   1.201  16.861   0.865
17666W        W82651  39.294  17.026   3.327
17667W        W82652  42.333  16.791  12.785
17668W        W82653  13.372  38.890  10.698
17669W        W82654  30.820  36.952  12.491
17670W        W82655  29.681  44.788   4.110
17671W        W82656   7.753  10.283   2.800
17672W        W82657   4.857  15.080  10.959
17673W        W82658  27.139  22.712  13.912
17674W        W82659  31.889  22.805  14.287
17675W        W82660  21.744  25.039   4.557
17676W        W82661   6.357  22.714  11.543
17677W        W82662  29.319  16.738  11.132
17678W        W82663  18.662  23.593   2.969
17679W        W82664  44.280  32.149  14.408
17680W        W82665   8.811   4.604  12.494
17681W        W82666  18.223   5.452  13.423
17682W        W82667   3.982  21.674  14.521
17683W        W82668  11.525  18.864   1.883
17684W        W82669  37.514  17.935   3.719
17685W        W82670   9.140   8.749   1.281
17686W        W82671  17.342  27.183  14.723
17687W        W82672  24.262  10.615  10.706
17688W        W82673  30.209   1.376  11.494
17689W        W82674   1.020  41.847   0.966
17690W        W82675  44.483  35.384   4.366
17691W        W82676   9.421   5.682  11.791
17692W        W82677  41.597  31.521   0.271
17693W        W82678  18.804  25.090  14.342
17694W        W82679  43.668   2.004   4.708
17695W        W82680  32.222  44.458   2.596
17696W        W82681   0.885  37.488   1.123
17697W        W82682  37.088  11.848   4.505
17698W        W82683   7.996  10.639  10.609
17699W        W82684  13.394  36.996   4.293
17700W        W82685  42.725  44.994   3.123
17701W        W82686  37.871  14.505  11.483
17702W        W82687  27.541   8.806   2.360
17703W        W82688  37.486   0.795   0.455
17704W        W82689  24.112   4.949   1.185
17705W        W82690   4.772  32.826  12.082
17706W        W82691  44.331  28.550   3.835
17707W        W82692  12.712  19.859   2.810
17708W        W82693  39.480   5.356  11.365
17709W        W82694  10.655  19.133   3.772
17710W        W82695  15.687  21.138   0.962
17711W        W82696   7.846  13.065  14.866
17712W        W82697  11.565  14.459  12.564
17713W        W82698  31.048  11.836  11.954
17714W        W82699  34.352   8.366   3.655
17715W        W82700   5.782   1.783   0.821
17716W        W82701  36.595  16.114   1.759
17717W        W82702  27.778  40.302  14.847
17718W        W82703  38.084   5.061  10.116
17719W        W82704  30.196  31.022  14.803
17720W        W82705   9.747   9.910  10.815
17721W        W82706  30.178  11.249   2.853
17722W        W82707  36.176  13.205   1.361
17723W        W82708  41.829  10.251  13.483
17724W        W82709  17.012  17.253   0.769
17725W        W82710  29.690  26.392   1.800
17726W        W82711  43.435  44.691  11.400
17727W        W82712  40.040  11.642   4.774
17728W        W82713  14.359   9.106  13.363
17729W        W82714   5.831   6.964   0.943
17730W        W82715  14.312  32.461  11.631
17731W        W82716  36.510  17.199   2.753
17732W        W82717  21.613  22.644   1.330
17733W        W82718  38.476   1.517  13.309
17734W        W82719  21.238  27.021   1.701
17735W        W82720  32.353  31.979   1.284
17736W        W82721  12.747   7.321   3.251
17737W        W82722   1.741  20.127  14.487
17738W        W82723  37.465  12.082   4.777
17739W        W82724  11.239  34.151   0.167
17740W        W82725  43.248  13.644  11.588
17741W        W82726  23.827  34.455   2.201
17742W        W82727  34.023  22.798   4.423
17743W        W82728  21.542  33.926   1.360
17744W        W82729   2.450  33.797   1.401
17745W        W82730   4.152  10.251  10.649
17746W        W82731  33.612  25.992   0.289
17747W        W82732  14.835  24.485   3.707
17748W        W82733   6.421  25.653  10.691
17749W        W82734   3.293   4.223   4.512
17750W        W82735  32.427  13.918   0.476
17751W        W82736  13.994   5.939  12.952
17752W        W82737  33.321  38.301   1.232
17753W        W82738  38.961  41.451   4.457
17754W        W82739  31.091  10.122  12.442
17755W        W82740  19.495  10.681   0.543
17756W        W82741  33.046  43.208  13.139
17757W        W82742  23.045  13.589  14.404
17758W        W82743   2.017  29.857   2.740
17759W        W82744  31.366  27.545  10.731
17760W        W82745  13.362  29.068  14.976
17761W        W82746  43.517  36.956   4.071
17762W        W82747  42.108  30.576  12.101
17763W        W82748   8.578  14.902  14.960
17764W        W82749  35.490  40.821   2.811
17765W        W82750   6.114  28.423   3.193
17766W        W82751  12.177  24.989   3.635
17767W        W82752  19.126  33.057   4.173
17768W        W82753  18.011  27.602  14.604
17769W        W82754   2.696  28.109  10.852
17770W        W82755  25.422  29.691   4.965
17771W        W82756  36.000  37.763  11.071
17772W        W82757  21.275  23.483  10.634
17773W        W82758  20.032  18.217   4.487
17774W        W82759   7.780  30.277  14.308
17775W        W82760   5.717  24.084  13.351
17776W        W82761  32.045  42.776   4.747
17777W        W82762   5.801  15.854  11.977
17778W        W82763  27.973  21.673  14.342
17779W        W82764  25.219  44.913   2.391
17780W        W82765  32.683  33.814   0.228
17781W        W82766   8.370  21.013   1.485
17782W        W82767  22.952  15.735  14.322
17783W        W82768  14.359  16.643   4.667
17784W        W82769  16.748  31.391   0.785
17785W        W82770  36.245  13.671  13.975
17786W        W82771  12.396  41.781  11.632
17787W        W82772  11.218  21.472   1.411
17788W        W82773  42.726   5.316   0.967
17789W        W82774  10.506  36.084   3.828
17790W        W82775  33.485   2.843  12.850
17791W        W82776   0.541  41.836   0.769
17792W        W82777   8.911  19.601   3.139
17793W        W82778   8.365  42.256  12.021
17794W        W82779  20.303  20.280  13.899
17795W        W82780  15.547  33.604  14.462
17796W        W82781  33.934   4.283   0.338
17797W        W82782  13.317  31.420  13.359
17798W        W82783  31.969  29.533   0.793
17799W        W82784  18.334  38.910  12.665
17800W        W82785  10.430  16.046  11.623
17801W        W82786   7.813   3.203  14.729
17802W        W82787  17.346  37.316  13.164
17803W        W82788  13.343  15.204   3.312
17804W        W82789  32.123  12.511  13.091
17805W        W82790  23.220  23.998  11.532
17806W        W82791  19.255  29.473   3.647
17807W        W82792  41.319  28.548   1.543
17808W        W82793  10.269  24.180   3.117
17809W        W82794  30.524  17.185  12.416
17810W        W82795  20.271   4.257   0.888
17811W        W82796  28.957  44.029  12.238
17812W        W82797  17.026   0.347  13.964
17813W        W82798  19.829  27.505   2.862
17814W        W82799  32.444  21.656  11.860
17815W        W82800  26.992  36.078  14.275
17816W        W82801  42.564  10.810  13.383
17817W        W82802   9.668   5.339   0.818
17818W        W82803  44.888  11.424   2.458
17819W        W82804  30.174  38.514   4.057
17820W        W82805  35.346  38.426   2.866
17821W        W82806   0.783  17.091  10.713
17822W        W82807  35.586  27.692   2.573
17823W        W82808  22.065  39.492   1.825
17824W        W82809  35.938  29.839  13.795
17825W        W82810  30.379  29.646   1.820
17826W        W82811  43.304   6.767   0.318
17827W        W82812  24.040  42.983   0.645
17828W        W82813  38.309  16.728  14.756
17829W        W82814  11.842   3.994  14.982
17830W        W82815   4.243  33.390   2.317
17831W        W82816  31.426  40.822   2.113
17832W        W82817   4.820   5.212   3.254
17833W        W82818  19.623  22.971   1.583
17834W        W82819   2.248  38.165  12.055
17835W        W82820  40.008  36.492   0.864
17836W        W82821   8.710  44.823  10.624
17837W        W82822  19.945  21.795  11.113
17838W        W82823  39.531  27.076  14.865
17839W        W82824  28.409  28.932  14.927
17840W        W82825  39.325  10.772   0.999
17841W        W82826  26.402  18.606   2.669
17842W        W82827  15.905  12.557  10.733
17843W        W82828  35.929  27.754   0.433
17844W        W82829  24.202  29.446   2.630
17845W        W82830  41.396  27.553   2.312
17846W        W82831   2.433  44.298  14.897
17847W        W82832  10.167  41.939  13.888
17848W        W82833  18.825  31.644   0.076
17849W        W82834   4.714  15.168  14.241
17850W        W82835  25.533  26.440   4.168
17851W        W82836   1.403   9.439  14.089
17852W        W82837  20.942   0.826  13.547
17853W        W82838  34.017  18.768  12.493
17854W        W82839  37.334  25.105   2.477
17855W        W82840  33.055  41.981  14.975
17856W        W82841  26.732  40.030   2.744
17857W        W82842  40.019  44.763   3.652
17858W        W82843   4.877  39.383  14.424
17859W        W82844  39.811  12.875  12.067
17860W        W82845  12.209  36.375  13.142
17861W        W82846  22.756  27.761  11.571
17862W        W82847  24.724   3.337   3.698
17863W        W82848  16.903  12.635  14.941
17864W        W82849   7.889  29.681   4.446
17865W        W82850  18.068  28.067  12.799
17866W        W82851   3.273  12.830   3.127
17867W        W82852  26.811  14.401  12.881
17868W        W82853   2.014  29.111  13.839
17869W        W82854  23.083   0.483  11.957
17870W        W82855   1.886  36.537  12.642
17871W        W82856  19.974  33.335   1.297
17872W        W82857  16.039  10.792  10.928
17873W        W82858  22.936  28.172  10.730
17874W        W82859  10.961  10.694  14.783
17875W        W82860  44.187  12.783   3.200
17876W        W82861  25.235   5.225  13.782
17877W        W82862  44.702  41.418   3.846
17878W        W82863  28.699  37.051  13.959
17879W        W82864  43.354  38.229   1.762
17880W        W82865  40.306  35.959   0.920
17881W        W82866  36.128  18.720   3.694
17882W        W82867   4.704  17.452  10.244
17883W        W82868  26.619  17.777   2.638
17884W        W82869  24.673  22.229   2.575
17885W        W82870  42.285  24.826   2.234
17886W        W82871   1.430   7.931  11.172
17887W        W82872  42.814  15.295  13.875
17888W        W82873  32.109  27.989  14.766
17889W        W82874  40.475  23.172  14.812
17890W        W82875  17.536  30.332   3.232
17891W        W82876   8.649  35.043   1.990
17892W        W82877  39.748   6.016   1.439
17893W        W82878  19.068  13.849   2.680
17894W        W82879  32.178  44.946  12.221
17895W        W82880  30.830  13.328  14.326
17896W        W82881  28.378  31.872  14.300
17897W        W82882  31.565  12.431  12.505
17898W        W82883   4.491   5.261  13.744
17899W        W82884  14.142  38.790  10.920
17900W        W82885  18.809  43.524  12.536
17901W        W82886   0.509  37.964   1.672
17902W        W82887  39.453   7.786   0.927
17903W        W82888  24.820   1.980  13.450
17904W        W82889  23.236  32.142  11.703
17905W        W82890  32.551   5.625  10.979
17906W        W82891  31.114  24.694   0.357
17907W        W82892   3.815  26.445  14.709
17908W        W82893   6.777  30.989  13.731
17909W        W82894   4.387  44.353   4.483
17910W        W82895   8.224  43.273   4.022
17911W        W82896  21.082  21.784   4.051
17912W        W82897  21.479  22.142   1.472
17913W        W82898  38.792   7.333   3.818
17914W        W82899  24.659  24.485  14.979
17915W        W82900   6.853  21.106   3.597
17916W        W82901  37.417  17.077   2.352
17917W        W82902  27.553  27.120  13.037
17918W        W82903  32.150  25.463  11.219
17919W        W82904  11.895  24.731  14.839
17920W        W82905  17.611  32.881  13.078
17921W        W82906  14.105  33.954  14.573
17922W        W82907  23.574   3.433  12.001
17923W        W82908  24.601   5.376  10.749
17924W        W82909   9.822   1.472  12.014
17925W        W82910   6.627  13.741  12.429
17926W        W82911  29.077   5.448  10.489
17927W        W82912  35.624  25.604   2.209
17928W        W82913  41.265   2.903  11.579
17929W        W82914   9.271   3.859   4.400
17930W        W82915  30.686  24.970   1.283
17931W        W82916  19.263   8.207  10.652
17932W        W82917  37.564  37.065   3.688
17933W        W82918  13.631  13.909   2.003
17934W        W82919  37.127  35.393  11.932
17935W        W82920   0.965   5.795  10.813
17936W        W82921   7.046  40.872  14.864
17937W        W82922  26.976  37.437   4.136
17938W        W82923  26.123  10.593  13.118
17939W        W82924  35.671   4.830  13.658
17940W        W82925  18.696  17.571  12.477
17941W        W82926  24.117  30.457   1.564
17942W        W82927  21.242  35.440   0.345
17943W        W82928  16.317  44.201   1.868
17944W        W82929  19.157  39.336   4.509
17945W        W82930   1.018   2.334   4.536
17946W        W82931  42.652  12.393  10.780
17947W        W82932  43.947  22.654   4.560
17948W        W82933  32.579  24.049   0.755
17949W        W82934   6.413   3.861  13.371
17950W        W82935  18.786   4.013   1.774
17951W        W82936  44.068  19.064  10.958
17952W        W82937   7.154  24.534   2.739
17953W        W82938  38.332   0.921   2.606
17954W        W82939  29.961  39.878  11.557
17955W        W82940  31.509  11.237   2.821
17956W        W82941   5.670   2.872  12.058
17957W        W82942  32.145  41.359  11.732
17958W        W82943  41.379  42.365  11.127
17959W        W82944  27.008   3.791   0.771
17960W        W82945  19.786   6.241   0.477
17961W        W82946  40.777  44.410   3.782
17962W        W82947  35.377   5.224  12.898
17963W        W82948   3.899  12.652   0.890
17964W        W82949  21.045  37.887   1.939
17965W        W82950   0.231   0.900  11.089
17966W        W82951  36.297  31.117   3.703
17967W        W82952  27.486  24.288  13.162
17968W        W82953  28.198  40.116  12.595
17969W        W82954  23.282   1.948   0.526
17970W        W82955  32.486  39.532   2.943
17971W        W82956  36.109  26.459  14.076
17972W        W82957  39.909  28.192  14.495
17973W        W82958  18.593   0.968   1.345
17974W        W82959  10.080  27.407   3.638
17975W        W82960  12.324  32.988  14.526
17976W        W82961  22.542  32.108  10.626
17977W        W82962  17.092  16.297   4.615
17978W        W82963   4.302  26.525   2.128
17979W        W82964  27.152   2.622  10.611
17980W        W82965   1.388  35.128   1.589
17981W        W82966  37.470  16.021   2.206
17982W        W82967  37.757  35.114   3.772
17983W        W82968  27.315  27.648  10.840
17984W        W82969  39.241  12.774   1.960
17985W        W82970   6.884  18.262   2.208
17986W        W82971  38.509  40.953   3.015
17987W        W82972  44.596  28.165   3.607
17988W        W82973   0.480  16.378   1.423
17989W        W82974  42.931   1.767  13.845
17990W        W82975   8.755  23.492  12.635
17991W        W82976  30.728  35.116  11.175
17992W        W82977  34.092  15.265  10.646
17993W        W82978  18.932  10.773   2.610
17994W        W82979  20.812  31.085   1.707
17995W        W82980  42.728  17.853  14.614
17996W        W82981  30.958   7.279  10.257
17997W        W82982  11.359  11.372  13.874
17998W        W82983  21.898   1.768  13.264
17999W        W82984  19.566  18.179  13.370
18000W        W82985  37.437  17.575   1.432
18001W        W82986  27.450  42.071   4.574
18002W        W82987  18.088  26.486  12.698
18003W        W82988   4.827  11.303  10.671
18004W        W82989  31.460  25.054  11.363
18005W        W82990   5.516  43.804   4.584
18006W        W82991  30.774   1.052  14.334
18007W        W82992  10.086  24.206   1.746
18008W        W82993  14.834   0.022  12.636
18009W        W82994   5.166  21.042  11.139
18010W        W82995  37.819  40.528   2.858
18011W        W82996  27.743  25.747  12.345
18012W        W82997  12.257  26.861  13.360
18013W        W82998   2.172  26.712   2.675
18014W        W82999   6.599   9.284   3.811
18015W        W83000  36.045  19.179   3.926
18016W        W83001  19.498   4.454  14.304
18017W        W83002  16.690  32.611  11.252
18018W        W83003  26.205   3.808   3.547
18019W        W83004  14.819  44.965  13.897
18020W        W83005  17.569  36.713  12.649
18021W        W83006  26.036  36.129  13.504
18022W        W83007   7.339  30.613  10.759
18023W        W83008  37.045   7.877   1.415
18024W        W83009  33.998   8.236   3.026
18025W        W83010  18.355  30.163  11.120
18026W        W83011  36.087  19.582   3.626
18027W        W83012   3.627  29.033   4.982
18028W        W83013   4.545  17.813  13.031
18029W        W83014   6.757   2.460  13.102
18030W        W83015  35.308  20.597  11.560
18031W        W83016   1.189  33.164   1.364
18032W        W83017  28.321  11.643  14.675
18033W        W83018   0.616  34.179   2.671
18034W        W83019  25.514  41.793   4.251
18035W        W83020   2.279   7.926  10.793
18036W        W83021  36.223  16.493   2.363
18037W        W83022   0.845  18.818   4.589
18038W        W83023   4.249  35.376   1.678
18039W        W83024  18.240  10.648  14.102
18040W        W83025  27.367  20.265  10.596
18041W        W83026  40.039   7.058   1.220
18042W        W83027  25.402   7.637   2.261
18043W        W83028  11.150  19.170   3.964
18044W        W83029  24.241  26.510  10.769
18045W        W83030  20.786  27.018  13.582
18046W        W83031  25.841  28.885  11.904
18047W        W83032  35.585  23.094   3.679
18048W        W83033  18.293   2.616  13.962
18049W        W83034  13.883  43.936  13.693
18050W        W83035  18.256   8.858  11.813
18051W        W83036  17.308   9.329   4.133
18052W        W83037  20.382  21.838   4.620
18053W        W83038  44.134  18.630  11.858
18054W        W83039   9.923  12.491   3.069
18055W        W83040   8.948  29.007  14.335
18056W        W83041   2.876  11.163   0.304
18057W        W83042  36.825  24.897   3.245
18058W        W83043  21.087   7.479  14.712
18059W        W83044  36.839  11.680  11.482
18060W        W83045  18.825  19.499  12.467
18061W        W83046  32.192   6.348   3.537
18062W        W83047  39.524  16.853  10.557
18063W        W83048  22.403   1.875  13.387
18064W        W83049   4.271  40.857  12.062
18065W        W83050   4.200  11.876  14.257
18066W        W83051  11.205   6.471   3.827
18067W        W83052  25.615  11.656   3.453
18068W        W83053  41.955  18.669   0.970
18069W        W83054  29.278  37.083   2.431
18070W        W83055  33.021  41.216   1.315
18071W        W83056  30.835   8.526   5.432
18072W        W83057  28.735  36.021   1.804
18073W        W83058  31.673  18.574   2.831
18074W        W83059  21.285   2.784   0.172
18075W        W83060   4.331  21.595  11.690
18076W        W83061   8.342  33.276   3.692
18077W        W83062   6.366  25.516  14.321
18078W        W83063  17.641  35.565   4.637
18079W        W83064  37.329  20.486  11.494
18080W        W83065  41.276  33.423   2.778
18081W        W83066   9.221  22.829   2.192
18082W        W83067  26.684  14.929  12.834
18083W        W83068  38.059  34.898   4.167
18084W        W83069  24.135   9.405   2.940
18085W        W83070  12.273  16.298  12.892
18086W        W83071  19.571  43.777   1.904
18087W        W83072  44.724  21.080  11.690
18088W        W83073  27.087  11.448  12.362
18089W        W83074  27.971  34.486  13.915
18090W        W83075  43.906  42.958  13.013
18091W        W83076  27.557  32.945  12.601
18092W        W83077  27.225   0.740   1.369
18093W        W83078  35.346  19.575  14.371
18094W        W83079  23.166   1.787  11.653
18095W        W83080  18.812  27.439   3.178
18096W        W83081  19.483  40.500  12.871
18097W        W83082  44.064  37.528  11.191
18098W        W83083  40.818   4.417   1.044
18099W        W83084   2.506  18.120  14.997
18100W        W83085  41.272  15.771  11.481
18101W        W83086  42.256  40.077   0.950
18102W        W83087  33.830  32.146   2.852
18103W        W83088  21.774  33.383  13.698
18104W        W83089  34.633  24.012   0.233
18105W        W83090   7.360  43.846   2.227
18106W        W83091  40.072  41.404  11.102
18107W        W83092  39.252  28.576  13.395
18108W        W83093  11.110  12.308  13.794
18109W        W83094  19.047  41.031   0.985
18110W        W83095  34.071   8.110   2.542
18111W        W83096  43.951   8.394   2.876
18112W        W83097  23.910  10.842   3.627
18113W        W83098   3.527   6.160  13.867
18114W        W83099  41.196   1.946  14.464
18115W        W83100   4.813  24.467   1.726
18116W        W83101  30.998  41.509  14.026
18117W        W83102   2.796  41.378  10.618
18118W        W83103  33.451   5.362   0.491
18119W        W83104  37.574  22.251   1.378
18120W        W83105   2.192  21.285  11.656
18121W        W83106   4.978  32.587   2.922
18122W        W83107  41.194  10.384  12.070
18123W        W83108  19.812  43.908   0.526
18124W        W83109  17.821  22.734  14.723
18125W        W83110  30.663  32.954  10.707
18126W        W83111  20.533  17.034  13.408
18127W        W83112  12.467  16.111  13.335
18128W        W83113   2.145   3.012  13.867
18129W        W83114   7.447  15.178  13.414
18130W        W83115   3.231  26.209  14.356
18131W        W83116  38.329  38.035  12.042
18132W        W83117  26.965   5.673   2.152
18133W        W83118  39.361   9.657   1.900
18134W        W83119   0.434  29.162  11.197
18135W        W83120  22.466  11.724  13.427
18136W        W83121   8.018  36.510  12.124
18137W        W83122  28.700   2.455   3.717
18138W        W83123  23.260  27.435  12.989
18139W        W83124  33.014  38.748  11.247
18140W        W83125  23.698  19.692  12.873
18141W        W83126  21.156  28.416   0.235
18142W        W83127  17.150  34.412  12.898
18143W        W83128   2.793  44.935  12.493
18144W        W83129   3.221   4.769   3.708
18145W        W83130  11.591  44.341  14.023
18146W        W83131   0.381  24.464  11.614
18147W        W83132  22.231  29.426   1.795
18148W        W83133  36.118  33.525   0.488
18149W        W83134  13.404  18.086  13.028
18150W        W83135   4.106  33.944  13.565
18151W        W83136  10.243   2.236  10.951
18152W        W83137  31.028  32.206   4.848
18153W        W83138   5.380  22.712  13.173
18154W        W83139  38.801  22.172  14.332
18155W        W83140  12.235   4.002   1.851
18156W        W83141  19.097  25.200   0.526
18157W        W83142  28.024  27.238  10.339
18158W        W83143  11.734  35.594   1.421
18159W        W83144  35.902  38.766  14.015
18160W        W83145  21.124  35.913  10.295
18161W        W83146  21.774  16.547   0.791
18162W        W83147   1.497  34.909  13.086
18163W        W83148  16.619  27.101   3.156
18164W        W83149  26.392  26.427   3.935
18165W        W83150  28.855  31.587   4.966
18166W        W83151   1.370  23.007  12.486
18167W        W83152  17.004  13.173   0.606
18168W        W83153   6.620  38.369  14.718
18169W        W83154  28.203  21.023   0.397
18170W        W83155  25.647  37.584   3.765
18171W        W83156  42.027   3.293   3.689
18172W        W83157  18.697  13.778  14.840
18173W        W83158  21.698  17.557  11.575
18174W        W83159   4.568   6.517   3.223
18175W        W83160  31.236   8.755  12.547
18176W        W83161  12.782  20.303  14.212
18177W        W83162   3.692  13.272   1.061
18178W        W83163  25.987   7.685   1.434
18179W        W83164   9.862  23.543  10.150
18180W        W83165   7.833   9.069  13.527
18181W        W83166  36.932  33.588   1.386
18182W        W83167  42.867  25.671   1.453
18183W        W83168  13.899  16.752  10.980
18184W        W83169  26.267  15.586  13.343
18185W        W83170  44.965   8.163  13.776
18186W        W83171  24.932  34.828  14.435
18187W        W83172  28.448  37.523  14.056
18188W        W83173  37.306  16.266   3.630
18189W        W83174  20.506   4.716   0.933
18190W        W83175  27.782  43.524  11.149
18191W        W83176  38.368  37.506   3.532
18192W        W83177  40.602  27.860  14.060
18193W        W83178  24.935   1.210   1.127
18194W        W83179  12.370  32.736   2.762
18195W        W83180  43.787  31.237  12.596
18196W        W83181  40.051  29.022  10.635
18197W        W83182  42.572   8.648  11.294
18198W        W83183   2.305  29.002  10.748
18199W        W83184  31.793  38.730  11.827
18200W        W83185   7.074   1.592   1.671
18201W        W83186  27.177  37.538  14.356
18202W        W83187  37.920  15.245   2.221
18203W        W83188   7.802  34.021   2.635
18204W        W83189  15.110  19.768   3.077
18205W        W83190   7.589  18.608   2.087
18206W        W83191   2.908  24.626   1.765
18207W        W83192   5.760  24.999   3.899
18208W        W83193  24.151  29.116   0.021
18209W        W83194   0.003   5.932  14.507
18210W        W83195   9.179  30.174  10.924
18211W        W83196  30.384  41.455   2.742
18212W        W83197  16.275  17.494   3.740
18213W        W83198  14.735  28.397   3.112
18214W        W83199  18.221  42.662   1.320
18215W        W83200   7.879   7.914  12.387
18216W        W83201  23.458   3.902   4.691
18217W        W83202  27.799  26.241  12.477
18218W        W83203   7.402  14.587  11.059
18219W        W83204  24.504  34.102  14.861
18220W        W83205  41.944  21.868   5.016
18221W        W83206   5.998  17.084   2.856
18222W        W83207  32.904  20.796   0.672
18223W        W83208  12.723  42.820  10.655
18224W        W83209  19.658  12.972  14.795
18225W        W83210   9.947  11.892   0.402
18226W        W83211   3.230  31.876  14.835
18227W        W83212  14.178   7.594  13.567
18228W        W83213  22.238  36.423   2.700
18229W        W83214  27.603  15.293  13.558
18230W        W83215  37.035  44.773  12.648
18231W        W83216  12.242  13.030  10.399
18232W        W83217  35.214  36.834  11.062
18233W        W83218  29.848   8.140  12.438
18234W        W83219  20.747   1.712  12.403
18235W        W83220  10.376  28.986   3.079
18236W        W83221   4.114  35.447  11.971
18237W        W83222  28.549  15.786  14.872
18238W        W83223  38.465   3.413   3.907
18239W        W83224  30.273  12.945  12.684
18240W        W83225   3.290  38.675   3.083
18241W        W83226  32.148  15.139  13.600
18242W        W83227  16.226  35.539  10.777
18243W        W83228  44.654  20.239  10.084
18244W        W83229   7.939  40.708  11.652
18245W        W83230  18.849   9.817   1.691
18246W        W83231  31.939  23.344   2.610
18247W        W83232  37.073  27.862  12.392
18248W        W83233  23.713  39.145  13.762
18249W        W83234  37.438  30.583   4.546
18250W        W83235   8.420   5.244   2.641
18251W        W83236  29.655  12.554   0.480
18252W        W83237  12.757  22.519  12.190
18253W        W83238  31.618   0.249  13.048
18254W        W83239   4.881   7.383   3.623
18255W        W83240  43.032  22.594   2.892
18256W        W83241  11.126  15.457   2.342
18257W        W83242  40.446  13.352  11.696
18258W        W83243  12.653  16.379   3.697
18259W        W83244  18.362  14.218   4.313
18260W        W83245  44.824  33.133  12.935
18261W        W83246   1.303   7.789   4.702
18262W        W83247  31.532  39.748   4.564
18263W        W83248  36.427  43.328   3.997
18264W        W83249  18.182  35.837  13.128
18265W        W83250  34.329  43.292   0.149
18266W        W83251  22.981  44.271  14.959
18267W        W83252  34.615  40.492   2.267
18268W        W83253  23.289   8.617  11.584
18269W        W83254  34.372  28.218   0.932
18270W        W83255  21.011  13.678   2.698
18271W        W83256  44.818  42.798  12.931
18272W        W83257   5.265  29.040   4.745
18273W        W83258  35.119  39.102   0.818
18274W        W83259   7.148  13.966   2.636
18275W        W83260  41.783   9.683  14.443
18276W        W83261  34.097   5.514   2.046
18277W        W83262   6.327   2.227  12.990
18278W        W83263   0.857  23.707   2.638
18279W        W83264  22.636   2.861   4.912
18280W        W83265  14.640  12.872   0.388
18281W        W83266  11.419  26.093  11.587
18282W        W83267   6.507  31.345  11.251
18283W        W83268  12.673  30.449  10.759
18284W        W83269  40.785  30.708   4.184
18285W        W83270  33.462  28.210   2.094
18286W        W83271  23.498  15.236   3.192
18287W        W83272   0.273  31.178  12.861
18288W        W83273  20.697  32.958  10.775
18289W        W83274  40.827  41.983   3.372
18290W        W83275  25.444  30.892   2.653
18291W        W83276  34.437  28.742   0.926
18292W        W83277   4.808  29.410  10.652
18293W        W83278  18.044  36.363   3.392
18294W        W83279  30.882   7.158  13.513
18295W        W83280   4.812  44.948   2.053
18296W        W83281  41.285  22.036  12.022
18297W        W83282  40.296  33.323  11.310
18298W        W83283   7.647  22.168   3.390
18299W        W83284  37.879   9.254   3.215
18300W        W83285  37.805  44.827   3.638
18301W        W83286  21.731   9.972  12.959
18302W        W83287  39.378  22.560   4.411
18303W        W83288  18.678   2.232  10.769
18304W        W83289  20.572  41.339  13.952
18305W        W83290  33.653   9.512  13.126
18306W        W83291   5.662  24.131   1.994
18307W        W83292   6.429  22.224   2.643
18308W        W83293  35.275   1.897   2.452
18309W        W83294  24.325  18.608  12.315
18310W        W83295  42.106  10.428  10.213
18311W        W83296  28.446  42.793  14.285
18312W        W83297  19.639   0.025  10.451
18313W        W83298   8.667  39.428  12.952
18314W        W83299  16.925   7.211   1.846
18315W        W83300  13.097  14.776   4.820
18316W        W83301  34.662  22.698  11.160
18317W        W83302  28.341  15.526  12.591
18318W        W83303  33.349   4.095   1.169
18319W        W83304  23.683  19.337  11.881
18320W        W83305  33.401  31.678  14.033
18321W        W83306  35.706  13.809  12.557
18322W        W83307  22.083  40.912  13.358
18323W        W83308  11.316  44.577   0.761
18324W        W83309  24.531   8.189  14.892
18325W        W83310  43.068   0.814   5.152
18326W        W83311  33.128  22.640   1.302
18327W        W83312  43.147  29.917   1.027
18328W        W83313   3.829  17.253  10.683
18329W        W83314  12.605  20.280  14.751
18330W        W83315  42.994  26.291  12.204
18331W        W83316  11.612   9.335  14.859
18332W        W83317  20.858  28.119   2.160
18333W        W83318   3.040  40.980   2.830
18334W        W83319  27.146  34.587   9.580
18335W        W83320  28.328  17.443   1.357
18336W        W83321  11.760  21.334   2.185
18337W        W83322  44.942  38.872   0.714
18338W        W83323  14.683  22.204  14.433
18339W        W83324  24.267  42.981  12.759
18340W        W83325  42.521  11.150   3.812
18341W        W83326  13.726  35.597   2.122
18342W        W83327  17.098  25.376  11.206
18343W        W83328  27.232  23.859  12.983
18344W        W83329  26.548  35.652  11.457
18345W        W83330   2.681   1.966  13.984
18346W        W83331  13.351  19.446  12.445
18347W        W83332  10.259   0.684   0.948
18348W        W83333   6.202  15.152   1.293
18349W        W83334  30.357  17.296   0.816
18350W        W83335  23.569   5.303  11.786
18351W        W83336  32.958  11.257   2.415
18352W        W83337  15.536  43.254  11.935
18353W        W83338  24.593  36.814  13.534
18354W        W83339  36.208   9.768  10.269
18355W        W83340  17.697  16.047  10.978
18356W        W83341  16.570  13.660   1.663
18357W        W83342  26.800  37.237  10.165
18358W        W83343  42.818   0.839   4.650
18359W        W83344  18.709  11.185   2.404
18360W        W83345  12.467  42.779   2.275
18361W        W83346  33.414  41.822   4.506
18362W        W83347   9.428  40.543   4.972
18363W        W83348  11.277  32.594  12.070
18364W        W83349   1.603  29.197   3.294
18365W        W83350  30.584  10.641   1.581
18366W        W83351  33.372  24.159   2.344
18367W        W83352  15.103   1.216   2.378
18368W        W83353  31.351  11.129   4.502
18369W        W83354  17.301   7.196   1.448
18370W        W83355  42.911  12.902   4.399
18371W        W83356   6.502  44.887  12.996
18372W        W83357   0.408  16.700  14.343
18373W        W83358  15.545  39.473  12.441
18374W        W83359  35.136  41.834   3.144
18375W        W83360  37.370  35.385   0.823
18376W        W83361  30.510   9.402   3.261
18377W        W83362  24.536  24.999   2.920
18378W        W83363  39.791  44.860   1.499
18379W        W83364  39.802  38.842   1.955
18380W        W83365  31.683   2.938   3.330
18381W        W83366  43.987   9.889   1.459
18382W        W83367  17.563  27.880   2.765
18383W        W83368  23.454  40.723  11.108
18384W        W83369  34.143   9.716  14.600
18385W        W83370  25.037  42.053   3.689
18386W        W83371  17.017  42.132  12.580
18387W        W83372  14.579  39.249  14.920
18388W        W83373  11.363   1.476  14.027
18389W        W83374  32.461  14.199  14.853
18390W        W83375  12.182  25.766  11.994
18391W        W83376  28.966  15.366   2.846
18392W        W83377  42.364  28.505  13.792
18393W        W83378  38.920  44.008   0.790
18394W        W83379  22.074  33.049  13.219
18395W        W83380  33.946   7.007  14.924
18396W        W83381  38.068   7.843   3.648
18397W        W83382  25.471  28.010   1.814
18398W        W83383  37.997  31.597  12.164
18399W        W83384  33.579   5.928   4.207
18400W        W83385  37.060  31.664  13.327
18401W        W83386  12.803  13.229   4.587
18402W        W83387  16.829  39.756  10.856
18403W        W83388  14.209  16.381   4.237
18404W        W83389  40.880  37.073  11.601
18405W        W83390  43.846   3.744   0.109
18406W        W83391  28.519  31.212  12.909
18407W        W83392  38.771  18.465   3.663
18408W        W83393   3.897  34.311   2.169
18409W        W83394  33.394  14.766   2.817
18410W        W83395   4.495  30.836  14.500
18411W        W83396  43.307  31.477   3.688
18412W        W83397  14.546  23.626   4.790
18413W        W83398  32.865  28.554   0.771
18414W        W83399   3.816  16.845  12.456
18415W        W83400   0.073  10.176   3.179
18416W        W83401  17.253   9.681  10.543
18417W        W83402  30.461  12.875   4.276
18418W        W83403  39.516  40.258   4.966
18419W        W83404  34.729   8.366   3.270
18420W        W83405  21.807  39.847   2.684
18421W        W83406  17.934  11.674   2.428
18422W        W83407   9.734  19.654  12.401
18423W        W83408  33.557  37.462  12.953
18424W        W83409  40.413  31.921  12.151
18425W        W83410  10.317  25.999   3.060
18426W        W83411  17.422   6.590  10.750
18427W        W83412  32.774  21.208   0.369
18428W        W83413  14.566  24.577   4.814
18429W        W83414  43.840  25.232   2.892
18430W        W83415  18.323  12.215  13.522
18431W        W83416   2.639  17.537   1.794
18432W        W83417  40.954   7.849  13.777
18433W        W83418  43.907   8.936  14.828
18434W        W83419  43.937  24.975  10.615
18435W        W83420   8.219   9.603  14.420
18436W        W83421  15.684  10.297   4.525
18437W        W83422  18.743   2.934  12.822
18438W        W83423  35.876  11.697   0.263
18439W        W83424  10.178  38.135   1.290
18440W        W83425  32.477  21.841   4.175
18441W        W83426  44.505  38.572  10.119
18442W        W83427  30.247  34.101  11.412
18443W        W83428  12.158  24.550  14.401
18444W        W83429   5.674   2.382  14.057
18445W        W83430  35.617  10.737   2.829
18446W        W83431  41.753  41.989  11.857
18447W        W83432  37.557  32.351  13.958
18448W        W83433   1.553  23.703   3.793
18449W        W83434   5.228  12.907   4.268
18450W        W83435   8.789  12.932  14.699
18451W        W83436   1.583   6.547   0.191
18452W        W83437   9.610  28.577   0.138
18453W        W83438  37.272   6.712  14.494
18454W        W83439  36.530  42.514   2.267
18455W        W83440  33.081  32.951  13.005
18456W        W83441   2.675   6.919  12.607
18457W        W83442   7.095   8.123   9.818
18458W        W83443  37.745  36.057   3.825
18459W        W83444   4.856  41.869  12.641
18460W        W83445  14.168  37.862  12.781
18461W        W83446  19.541   4.147   1.295
18462W        W83447   0.559  40.090  14.326
18463W        W83448  12.579  11.071  11.622
18464W        W83449  28.414  19.553  12.858
18465W        W83450  25.927  23.088   2.374
18466W        W83451  41.264  28.669   2.044
18467W        W83452  36.050  29.422   1.815
18468W        W83453  21.844  44.379   0.751
18469W        W83454  20.111   4.356  12.122
18470W        W83455   9.688   1.728   2.653
18471W        W83456  34.509   9.956   5.416
18472W        W83457  34.165   3.841   3.644
18473W        W83458  15.322  18.729  13.328
18474W        W83459  34.402  32.063  10.810
18475W        W83460  10.963   4.318   3.529
18476W        W83461   7.630  42.990  14.157
18477W        W83462  31.568  35.360   4.638
18478W        W83463  42.969  22.571   0.020
18479W        W83464  19.173  24.594  11.756
18480W        W83465  35.020  10.373  14.727
18481W        W83466  44.378  29.393  11.574
18482W        W83467  33.822  44.427  10.580
18483W        W83468   1.753  39.563   1.805
18484W        W83469  21.935  33.653   0.427
18485W        W83470   0.973  39.975  10.759
18486W        W83471  44.209  11.213  14.374
18487W        W83472  43.412  30.696  13.922
18488W        W83473   1.731   1.661  11.415
18489W        W83474  39.453  15.218  10.290
18490W        W83475  23.047  39.546   4.469
18491W        W83476  40.274   4.184  11.601
18492W        W83477   0.988   2.760  12.452
18493W        W83478  11.277  36.528   3.641
18494W        W83479  21.592  17.659   3.265
18495W        W83480   0.001  11.904  14.362
18496W        W83481  33.477  24.630  10.591
18497W        W83482  29.438   5.355   0.479
18498W        W83483  32.394  20.905  11.207
18499W        W83484  30.153   1.286  13.962
18500W        W83485  16.151  39.771  13.324
18501W        W83486   6.115  30.606  13.458
18502W        W83487  28.202  12.881  14.067
18503W        W83488  23.700  29.806  14.458
18504W        W83489  40.785  33.756   4.081
18505W        W83490   8.340   9.044   3.799
18506W        W83491  15.199   4.901  11.792
18507W        W83492  35.110  10.116   2.198
18508W        W83493  22.572  16.798  11.818
18509W        W83494  16.246   8.654   4.149
18510W        W83495  11.982  11.167  14.948
18511W        W83496  24.620  19.335  14.229
18512W        W83497   9.601  21.721  14.473
18513W        W83498  28.092  23.212  12.424
18514W        W83499  39.016  30.390   2.740
18515W        W83500  12.203  29.157   0.747
18516W        W83501   7.428  12.760   2.220
18517W        W83502  31.105  22.607   5.000
18518W        W83503  41.867  29.292   1.404
18519W        W83504  23.293  28.878  13.379
18520W        W83505  43.259   1.498  13.017
18521W        W83506  22.006  27.602   4.122
18522W        W83507  25.281  27.818   1.372
18523W        W83508  39.748  26.382   3.179
18524W        W83509  27.666  32.177   1.905
18525W        W83510   9.902  29.420  13.848
18526W        W83511  19.792  44.172   1.622
18527W        W83512  18.295   1.752  12.613
18528W        W83513  31.351  14.309  12.454
18529W        W83514  40.961  24.343   0.863
18530W        W83515  26.556  22.086   3.055
18531W        W83516  22.105  34.333  11.126
18532W        W83517   6.603   4.450  14.758
18533W        W83518   8.396  41.965   1.434
18534W        W83519  32.321  37.450   3.602
18535W        W83520  31.041   1.983   4.568
18536W        W83521   1.706  42.407   1.562
18537W        W83522  13.685  14.356   1.447
18538W        W83523  14.273  22.644  11.132
18539W        W83524  18.217   1.816  11.555
18540W        W83525  26.409   4.127  11.119
18541W        W83526  19.533  18.094  11.330
18542W        W83527  22.531   3.412   1.713
18543W        W83528  29.622  28.024   5.420
18544W        W83529  15.583  41.505   1.459
18545W        W83530  19.925   2.418  13.501
18546W        W83531   8.180   0.313  14.535
18547W        W83532  36.444  23.176   1.383
18548W        W83533  24.512  17.527  12.999
18549W        W83534  20.507  14.609   3.603
18550W        W83535  22.790  42.784   0.825
18551W        W83536  20.887  16.556  12.565
18552W        W83537  25.452  27.675   3.151
18553W        W83538  42.327   2.224  11.290
18554W        W83539  40.989  41.511   1.804
18555W        W83540  11.138  23.264  11.682
18556W        W83541  18.278  28.651   0.424
18557W        W83542  23.803  22.053   3.561
18558W        W83543   4.142  15.155   4.679
18559W        W83544  16.511  27.518  14.898
18560W        W83545  14.578  18.061   1.867
18561W        W83546  37.254  22.808  14.500
18562W        W83547  43.031  20.251  11.580
18563W        W83548  21.629   7.932  11.539
18564W        W83549  37.952  34.961   9.944
18565W        W83550  22.504   8.655   2.685
18566W        W83551  18.629   8.148  11.997
18567W        W83552   3.237  18.372   4.398
18568W        W83553  22.963  12.163  14.432
18569W        W83554   4.878  43.617  14.552
18570W        W83555  36.947  35.111  10.961
18571W        W83556  19.041  27.617   2.744
18572W        W83557  33.738  37.322  10.588
18573W        W83558  43.490  30.201  11.828
18574W        W83559  28.127   7.385  14.731
18575W        W83560  19.869  26.873   0.068
18576W        W83561  30.594  31.552  11.365
18577W        W83562   6.604  29.630   2.327
18578W        W83563  37.836   3.725   2.308
18579W        W83564  31.576  19.448   0.801
18580W        W83565  40.232  22.719  11.670
18581W        W83566   1.540  41.962   4.625
18582W        W83567  39.505   3.964   4.051
18583W        W83568  18.694  30.529  13.216
18584W        W83569   2.838  21.967   0.268
18585W        W83570  39.608  39.877  11.591
18586W        W83571  38.572  34.840  10.536
18587W        W83572  13.273  30.570   4.982
18588W        W83573  32.993   5.452  11.204
18589W        W83574  14.008   9.338   4.570
18590W        W83575  42.284  22.702  10.671
18591W        W83576   2.358   4.535  13.987
18592W        W83577   5.294  18.211   0.180
18593W        W83578  39.438   1.827  12.934
18594W        W83579  15.479  23.153  14.785
18595W        W83580   8.462   6.195   2.727
18596W        W83581  14.614  31.906  11.379
18597W        W83582   2.224  34.512  11.916
18598W        W83583  13.701   2.678   1.003
18599W        W83584  23.220  37.055  10.730
18600W        W83585   3.862  32.810   0.444
18601W        W83586  33.619   6.629   3.084
18602W        W83587  18.046  22.707  13.931
18603W        W83588  28.981  11.106  14.047
18604W        W83589   0.386  25.573  13.486
18605W        W83590  10.933  39.386   2.225
18606W        W83591  10.371  22.236   1.825
18607W        W83592  35.977  18.757   2.615
18608W        W83593  14.553  32.105  14.010
18609W        W83594  43.910  20.111  13.957
18610W        W83595  41.961   0.173  13.489
18611W        W83596  32.031  29.217   4.790
18612W        W83597  29.909  38.862  11.545
18613W        W83598  10.665  43.889   3.100
18614W        W83599   6.660  22.229   4.564
18615W        W83600   7.876  11.914   3.684
18616W        W83601  18.114  16.321  13.363
18617W        W83602  20.080  40.898   1.313
18618W        W83603  40.766  39.359   3.260
18619W        W83604   2.956  23.679   4.181
18620W        W83605   1.762  36.644   4.070
18621W        W83606   8.330  40.431   4.257
18622W        W83607  39.503  27.460  12.532
18623W        W83608   9.814  13.000   3.141
18624W        W83609  24.732   4.660   0.343
18625W        W83610  25.343   8.889  12.966
18626W        W83611  13.162  20.705   4.434
18627W        W83612  25.624   4.498  14.945
18628W        W83613  41.009  43.595  11.937
18629W        W83614  37.818  35.560  13.041
18630W        W83615  19.274  38.130   3.643
18631W        W83616   2.766  28.152   0.474
18632W        W83617  26.539  25.673   2.855
18633W        W83618  35.608  23.619  13.439
18634W        W83619   8.537  34.082  14.847
18635W        W83620  28.049  28.086   1.898
18636W        W83621  28.112  24.631   2.913
18637W        W83622  10.393  12.153   0.458
18638W        W83623   2.710   0.129  13.446
18639W        W83624   6.952  26.645  11.924
18640W        W83625   1.425  15.213   4.855
18641W        W83626   1.442   4.172   4.305
18642W        W83627  32.422  16.009  13.988
18643W        W83628  35.654   7.468   5.356
18644W        W83629  40.278   0.601   0.341
18645W        W83630  21.140   0.720  14.018
18646W        W83631  37.491   8.905  14.484
18647W        W83632  10.759  14.595  14.985
18648W        W83633  41.924  44.831   0.807
18649W        W83634   7.170  14.394   1.164
18650W        W83635   4.695  43.008   4.153
18651W        W83636   5.748  29.655   2.752
18652W        W83637  37.335   4.341  10.964
18653W        W83638  14.078  15.018  12.377
18654W        W83639  32.947   1.284   4.287
18655W        W83640   7.028  29.120  14.360
18656W        W83641  13.569  30.584  11.135
18657W        W83642  42.611  40.514   0.533
18658W        W83643  43.912  31.989  13.918
18659W        W83644  25.120  39.860   4.616
18660W        W83645   5.836  13.859   0.325
18661W        W83646   9.310  29.895  14.423
18662W        W83647  12.188  36.977   1.661
18663W        W83648  13.133  34.673   4.458
18664W        W83649  13.019  14.527  12.959
18665W        W83650   3.353  39.181   3.773
18666W        W83651  13.698   3.699  10.673
18667W        W83652  31.708   9.876   4.152
18668W        W83653  32.821   7.241  10.691
18669W        W83654  28.981  25.068   2.641
18670W        W83655   4.367  33.190  14.823
18671W        W83656   0.222  25.544   0.768
18672W        W83657  20.093   4.568  10.127
18673W        W83658  21.538  17.858  12.384
18674W        W83659   9.421  13.716  12.439
18675W        W83660  25.674  12.074  14.993
18676W        W83661  14.738   0.466  13.822
18677W        W83662  30.052  39.625  13.435
18678W        W83663  36.822  40.757   2.153
18679W        W83664  31.962  40.022   4.848
18680W        W83665  30.196  41.480   1.877
18681W        W83666  13.155  41.589  12.110
18682W        W83667  28.287  43.348  12.094
18683W        W83668  16.260  21.013   2.707
18684W        W83669  42.998  27.313  11.198
18685W        W83670  17.829  37.073  12.984
18686W        W83671  19.548  39.379  14.498
18687W        W83672   1.993  28.424  12.621
18688W        W83673  25.672  34.823  13.527
18689W        W83674  23.934  29.538   3.639
18690W        W83675  39.860  34.347  13.827
18691W        W83676  11.539  14.406   3.338
18692W        W83677  41.978  43.283  12.866
18693W        W83678   0.346  24.313   2.193
18694W        W83679  23.309  28.981   2.770
18695W        W83680  30.561  32.752   4.751
18696W        W83681   5.212   5.897   1.264
18697W        W83682   2.922   8.905  14.890
18698W        W83683  16.064  19.703  10.657
18699W        W83684  16.579  20.125   2.893
18700W        W83685   5.717   6.415  14.502
18701W        W83686  42.527  17.184   0.147
18702W        W83687   2.842  28.484   4.333
18703W        W83688  12.290   7.899   2.611
18704W        W83689  36.228   4.556  12.119
18705W        W83690  40.983  24.276  13.464
18706W        W83691  15.510   8.923   4.404
18707W        W83692  42.963  19.110   0.856
18708W        W83693  20.491   1.073  13.490
18709W        W83694  17.822   4.345  13.152
18710W        W83695   2.422  32.177   4.132
18711W        W83696  16.647  22.752   4.657
18712W        W83697  30.054   8.729   3.539
18713W        W83698  44.055  19.844  12.185
18714W        W83699  23.718  39.091   3.600
18715W        W83700  23.935  26.048   1.436
18716W        W83701  38.742  37.558   3.179
18717W        W83702  13.174  35.875  10.412
18718W        W83703  40.310  29.167   1.696
18719W        W83704  26.606  27.600  14.806
18720W        W83705  22.139  17.908   0.225
18721W        W83706  37.781  30.469   4.179
18722W        W83707  19.202  36.817   4.101
18723W        W83708  19.517  29.907  13.971
18724W        W83709   3.108  20.162   4.161
18725W        W83710  26.549   5.675   1.139
18726W        W83711   7.895   4.369   2.616
18727W        W83712   5.787   8.238  13.820
18728W        W83713  30.353  37.901  11.579
18729W        W83714  40.091  39.613  14.778
18730W        W83715  17.415  23.571  14.442
18731W        W83716  23.120   9.695   1.401
18732W        W83717  10.635   2.173   1.247
18733W        W83718  10.323   3.733   1.458
18734W        W83719  38.454  10.837   2.952
18735W        W83720   7.132  28.855  13.916
18736W        W83721  25.641   2.662   0.713
18737W        W83722  17.857   3.214   2.414
18738W        W83723  14.605  33.420  11.552
18739W        W83724  23.182  32.494   0.472
18740W        W83725  18.269  40.402   1.875
18741W        W83726  35.232  22.794   3.235
18742W        W83727  31.038  25.435  12.516
18743W        W83728  44.481  38.778  10.945
18744W        W83729   4.949  24.383  14.474
18745W        W83730  29.529  16.176  13.463
18746W        W83731  21.172   1.568  14.965
18747W        W83732  38.535   8.202  14.759
18748W        W83733  37.012  34.910  12.161
18749W        W83734  12.839  17.022  11.659
18750W        W83735  20.225   8.860  13.520
18751W        W83736  28.267  24.396  14.924
18752W        W83737  12.842  42.157   2.849
18753W        W83738  12.856   4.779   0.195
18754W        W83739  37.503  11.230  11.512
18755W        W83740  18.150   6.751   0.888
18756W        W83741  16.785  37.907   2.240
18757W        W83742  33.261  27.550  14.224
18758W        W83743  14.023   8.746  12.114
18759W        W83744  20.099  20.650   1.149
18760W        W83745  11.251  27.284  12.366
18761W        W83746   7.867  15.316  10.619
18762W        W83747   2.789   2.461   3.864
18763W        W83748  27.472  36.347   0.389
18764W        W83749   3.907   2.730  13.476
18765W        W83750  20.054  38.612  12.062
18766W        W83751   2.793  12.115   0.439
18767W        W83752  29.035  42.327   1.860
18768W        W83753  17.142   7.245   0.972
18769W        W83754  28.049   4.944   2.735
18770W        W83755   7.687  40.985   4.684
18771W        W83756  35.256   9.561   9.685
18772W        W83757  39.476  44.333  12.411
18773W        W83758  19.370   6.522   0.395
18774W        W83759   0.685  10.875  13.957
18775W        W83760  29.634  26.019  13.195
18776W        W83761   3.342  11.238   1.600
18777W        W83762  37.114  36.668  13.373
18778W        W83763  33.717  17.054   0.759
18779W        W83764   7.189  11.286  12.474
18780W        W83765   2.257  17.591   3.698
18781W        W83766  39.551   9.062  12.438
18782W        W83767  14.061  29.574  13.842
18783W        W83768  39.974  23.153  12.449
18784W        W83769  11.867  26.946   2.351
18785W        W83770  11.600  40.807   4.180
18786W        W83771  26.523  21.235  10.208
18787W        W83772  44.622  16.233  11.677
18788W        W83773  34.609  27.980   1.354
18789W        W83774  14.790   6.322   1.051
18790W        W83775  30.231  29.427   4.568
18791W        W83776  16.632  26.206  12.765
18792W        W83777  15.105  19.636  11.546
18793W        W83778  43.388  23.369  11.127
18794W        W83779  21.083  14.205   3.648
18795W        W83780  33.475   1.975  11.524
18796W        W83781  37.344  17.547   3.440
18797W        W83782   1.787  33.482  10.665
18798W        W83783  39.403  11.718   3.176
18799W        W83784  30.661   6.099   3.727
18800W        W83785   4.241   0.226  12.434
18801W        W83786  11.741  37.142  14.027
18802W        W83787  19.294   6.840   5.013
18803W        W83788  34.621   9.566  12.845
18804W        W83789  31.018  25.179   3.685
18805W        W83790  36.655   1.236  11.921
18806W        W83791   1.524   3.295   4.504
18807W        W83792  28.922  32.520   1.029
18808W        W83793  29.954  32.121   3.206
18809W        W83794  13.780   7.382   2.231
18810W        W83795  11.948  26.267  14.248
18811W        W83796  39.391  16.579  13.777
18812W        W83797   2.520  19.374   5.015
18813W        W83798  40.131   5.752   2.314
18814W        W83799  16.030   3.717   3.615
18815W        W83800  28.082  25.044   3.250
18816W        W83801  44.557  35.970   3.165
18817W        W83802  12.901  43.900   3.376
18818W        W83803  34.387  17.696   2.874
18819W        W83804  21.592   5.911   2.334
18820W        W83805  33.865   2.072   4.089
18821W        W83806  26.668  11.135  14.915
18822W        W83807  22.538  18.540  14.430
18823W        W83808  20.979  28.027   4.962
18824W        W83809  35.360   4.660  11.703
18825W        W83810  44.154  22.710   5.043
18826W        W83811  31.769  27.226   1.365
18827W        W83812  20.086  25.496  10.750
18828W        W83813  35.090   5.355   2.870
18829W        W83814  22.443   1.217  12.964
18830W        W83815  29.916  18.416   2.196
18831W        W83816  43.478  36.102  11.978
18832W        W83817  26.207  11.401   3.232
18833W        W83818  12.040  27.992  13.977
18834W        W83819  23.966   7.153  13.965
18835W        W83820  41.556  18.277  13.360
18836W        W83821   3.220   5.748  10.510
18837W        W83822  27.964  39.279  11.534
18838W        W83823  12.033  23.953   2.758
18839W        W83824  16.733   2.824  10.785
18840W        W83825  26.391   2.287   2.597
18841W        W83826  29.583  36.986  13.739
18842W        W83827  11.414  27.509   2.726
18843W        W83828  11.817  18.058  14.976
18844W        W83829  31.518  13.189  11.938
18845W        W83830  34.742  43.114  11.380
18846W        W83831  26.769   9.731   2.913
18847W        W83832  32.365  23.932  13.722
18848W        W83833  41.894   5.951   2.379
18849W        W83834   7.776  24.869   4.689
18850W        W83835  40.621  37.467  14.294
18851W        W83836  39.242   8.218  11.105
18852W        W83837  41.547   6.910   0.831
18853W        W83838  42.950   6.743   1.839
18854W        W83839  34.184  14.343   0.683
18855W        W83840  12.937   5.658   2.417
18856W        W83841   2.495  44.367  13.876
18857W        W83842  11.267  21.130   2.211
18858W        W83843  30.651  37.498  11.666
18859W        W83844  34.712  27.590  11.192
18860W        W83845   1.044  43.908  12.105
18861W        W83846  22.963  10.235   1.366
18862W        W83847  13.321  25.161   4.814
18863W        W83848   9.727  43.839  12.976
18864W        W83849  20.957  31.975  11.533
18865W        W83850   4.114  15.911   1.912
18866W        W83851  27.037  43.520   3.275
18867W        W83852  27.013  40.096  13.121
18868W        W83853  18.977  28.956   4.344
18869W        W83854  29.205  38.883  13.773
18870W        W83855  20.573  43.969   2.831
18871W        W83856  13.070   7.654  14.873
18872W        W83857  21.710  42.787  11.951
18873W        W83858  30.606  22.043   0.529
18874W        W83859  37.383  34.524   1.436
18875W        W83860  22.175  42.269   4.083
18876W        W83861  35.900  24.099  11.990
18877W        W83862   5.721  34.957   2.207
18878W        W83863  27.689  16.006  14.650
18879W        W83864  39.048  22.366  12.970
18880W        W83865   3.798  17.028   0.438
18881W        W83866  34.361  42.030   2.375
18882W        W83867  24.168   7.641  11.525
18883W        W83868   2.240  26.162  10.798
18884W        W83869  33.791  29.982  13.879
18885W        W83870  26.220  33.527   2.343
18886W        W83871  18.750  11.531   1.292
18887W        W83872  26.658   8.868   0.770
18888W        W83873  20.501  24.821   4.170
18889W        W83874  35.864  30.138  12.956
18890W        W83875  19.756   0.709  12.716
18891W        W83876  35.329  23.101   0.881
18892W        W83877   0.442   3.220   0.844
18893W        W83878  30.558  23.920   2.204
18894W        W83879  39.463   7.408   2.378
18895W        W83880  27.222  18.613  13.239
18896W        W83881  27.835  37.812  11.532
18897W        W83882  44.307   1.001   3.366
18898W        W83883  35.498   2.890   1.905
18899W        W83884   6.773  28.974  12.917
18900W        W83885  15.752  42.205  12.056
18901W        W83886   7.208  28.094   3.704
18902W        W83887  39.845  23.115   1.812
18903W        W83888  43.014  32.642   0.694
18904W        W83889   3.316  25.892  10.747
18905W        W83890  17.643   0.119  14.275
18906W        W83891   3.629  10.142   3.332
18907W        W83892  11.433   0.192   0.392
18908W        W83893  16.138  16.900   2.840
18909W        W83894  28.214   6.468   5.000
18910W        W83895  42.103   9.797  13.470
18911W        W83896   2.661  14.104  12.802
18912W        W83897  40.566  28.479  12.022
18913W        W83898  22.505  28.839   0.524
18914W        W83899   1.272  19.344   2.528
18915W        W83900  30.209  40.468   2.204
18916W        W83901  34.940  35.633   4.204
18917W        W83902  44.351  32.656   2.263
18918W        W83903  24.134  10.239  11.074
18919W        W83904  38.930  20.756   1.249
18920W        W83905   3.530  37.458  14.428
18921W        W83906  13.705  44.174   0.901
18922W        W83907  42.229  20.214   4.645
18923W        W83908  42.612  19.475  12.897
18924W        W83909  31.135  26.472   0.467
18925W        W83910  44.690   6.653   0.429
18926W        W83911  20.907  43.861  14.295
18927W        W83912  43.937   4.309  12.898
18928W        W83913   5.908  12.578   2.434
18929W        W83914  17.637  14.926  13.430
18930W        W83915  34.060  33.190   3.120
18931W        W83916   6.438  19.624  10.994
18932W        W83917  23.092  34.076   0.920
18933W        W83918  33.376   2.931   2.564
18934W        W83919  39.320  14.144   1.191
18935W        W83920  28.695  41.055  10.705
18936W        W83921  35.711  27.094  12.983
18937W        W83922  39.531  32.607  14.416
18938W        W83923  43.933  44.263  10.471
18939W        W83924  17.089  27.278   3.474
18940W        W83925   5.119  25.566   3.544
18941W        W83926  30.168  29.114  12.189
18942W        W83927  24.898  35.424   3.762
18943W        W83928  29.899  26.766   0.085
18944W        W83929  44.031  34.536  12.833
18945W        W83930  24.257  15.143  12.022
18946W        W83931  32.876   2.755   0.938
18947W        W83932  40.980  35.340  11.608
18948W        W83933  19.587  37.094  12.034
18949W        W83934  31.430  17.050  14.896
18950W        W83935  16.225   5.873  14.992
18951W        W83936  30.011  32.356   3.663
18952W        W83937  27.851  26.128   4.290
18953W        W83938  19.795  44.462  11.043
18954W        W83939  44.825  36.574   5.029
18955W        W83940  34.345   4.779   2.881
18956W        W83941  28.096  41.319  11.750
18957W        W83942  34.869  43.499  11.708
18958W        W83943  11.176  44.461   1.829
18959W        W83944  13.063  25.579   4.606
18960W        W83945  42.983  30.439  11.905
18961W        W83946  32.879   3.011   2.367
18962W        W83947  24.963  29.023  11.792
18963W        W83948  33.752  25.075  14.961
18964W        W83949  32.045  43.717  14.480
18965W        W83950  36.373  42.746   3.499
18966W        W83951   5.267  19.228  10.710
18967W        W83952   1.403  34.913   1.117
18968W        W83953   7.447  42.576   3.305
18969W        W83954  24.258  18.632  11.808
18970W        W83955  44.256  30.866  12.009
18971W        W83956  43.897  21.167   4.813
18972W        W83957  20.153  42.431   3.732
18973W        W83958  15.690  21.386   3.187
18974W        W83959  44.009   6.397   3.699
18975W        W83960   4.236   0.215   1.070
18976W        W83961  31.977  17.312   4.115
18977W        W83962  33.414  35.076  14.351
18978W        W83963  30.832  12.733   1.489
18979W        W83964  19.988   7.857   1.374
18980W        W83965  42.717  38.302   0.522
18981W        W83966  23.268  39.900  13.935
18982W        W83967  26.614  35.393   1.276
18983W        W83968  39.701   1.515   4.027
18984W        W83969  15.713  40.996  13.891
18985W        W83970  27.166  26.703   0.203
18986W        W83971   7.907   7.086   5.346
18987W        W83972  37.351  19.266   0.873
18988W        W83973  29.654  44.176   3.395
18989W        W83974  17.622   6.972   0.309
18990W        W83975  43.293   9.127   3.123
18991W        W83976   9.626  39.594  10.801
18992W        W83977  16.812  24.009   1.726
18993W        W83978   7.411  42.482  10.671
18994W        W83979  31.345  10.804  14.863
18995W        W83980  25.368  37.578   4.193
18996W        W83981   6.164   3.495   3.255
18997W        W83982   6.286  24.156  10.451
18998W        W83983  25.643   1.212   1.395
18999W        W83984  17.233  14.351  10.711
19000W        W83985  26.349  37.180   1.173
19001W        W83986  36.065  39.248  12.894
19002W        W83987  13.762  30.809   4.986
19003W        W83988  22.973   6.104  10.436
19004W        W83989  23.207  11.287  12.574
19005W        W83990   3.478  12.720   1.722
19006W        W83991  36.807  31.718  13.910
19007W        W83992  30.496  28.263   1.954
19008W        W83993   9.177  28.978   2.602
19009W        W83994   5.773  26.923   3.278
19010W        W83995  34.610  21.019   0.236
19011W        W83996  30.512  17.178  10.704
19012W        W83997  18.397  35.399  12.923
19013W        W83998  26.928  14.068   0.387
19014W        W83999  32.174  43.113  14.640
19015W        W84000  40.035   1.595   3.163
19016W        W84001  39.584   2.536  14.850
19017W        W84002  27.864  20.209  10.680
19018W        W84003  18.591  39.575  14.884
19019W        W84004  28.533  17.238   0.057
19020W        W84005  16.364   3.412  14.845
19021W        W84006  10.929  25.901  11.505
19022W        W84007  22.734   5.840  14.572
19023W        W84008   0.425  31.103   0.361
19024W        W84009  18.567  26.402  13.940
19025W        W84010   6.384  24.376   1.302
19026W        W84011  35.425  30.135   1.939
19027W        W84012  43.002  42.281  12.161
19028W        W84013  26.453  33.292  11.747
19029W        W84014  16.341  38.386  13.446
19030W        W84015  16.284  41.245  13.458
19031W        W84016  35.531  26.649   2.678
19032W        W84017   3.221  27.208   4.064
19033W        W84018  29.899  17.524  14.865
19034W        W84019  26.394  15.123   2.107
19035W        W84020  24.604  23.758   2.228
19036W        W84021  22.794  36.584   4.893
19037W        W84022  21.254  17.992  14.751
19038W        W84023  23.490  19.328   4.483
19039W        W84024  31.138  25.599   4.936
19040W        W84025  39.587  14.387   2.824
19041W        W84026  34.746   5.466  10.673
19042W        W84027  16.231  20.613   3.527
19043W        W84028  24.602   8.192   3.657
19044W        W84029  37.242  13.572  10.873
19045W        W84030  30.877  19.485  12.382
19046W        W84031   6.814  39.567   2.703
19047W        W84032   4.345  40.175   1.699
19048W        W84033   5.643  42.627   1.935
19049W        W84034  18.050  22.591  10.173
19050W        W84035  15.948  31.357   2.327
19051W        W84036  16.051  37.892  13.512
19052W        W84037  17.855  17.233  13.607
19053W        W84038  23.732  14.300  10.543
19054W        W84039  34.565   7.238  13.496
19055W        W84040  43.005  24.917   0.733
19056W        W84041  27.195  32.463  12.585
19057W        W84042  39.915  40.932   3.177
19058W        W84043  34.624  20.368  14.498
19059W        W84044  29.982  23.636  10.691
19060W        W84045  34.681  26.451   1.415
19061W        W84046  13.137  26.160  11.043
19062W        W84047  35.297  40.958  12.543
19063W        W84048  26.323  30.747  10.661
19064W        W84049  40.809  28.516  12.484
19065W        W84050  14.730  34.536   0.343
19066W        W84051   9.767   0.330  11.642
19067W        W84052  29.586  26.657  14.251
19068W        W84053  44.998  16.617   0.481
19069W        W84054  35.369  24.931   1.849
19070W        W84055  39.927  25.213  13.445
19071W        W84056  18.138   5.220   1.443
19072W        W84057  44.310  28.243   0.722
19073W        W84058   2.955  28.856   3.774
19074W        W84059   8.770   6.901  10.789
19075W        W84060  24.237  36.971  13.882
19076W        W84061  19.494  28.611   3.639
19077W        W84062  35.571  30.847  14.004
19078W        W84063  36.507  25.239   4.466
19079W        W84064  20.555  13.505  11.970
19080W        W84065   8.775  37.415   5.036
19081W        W84066  24.201  37.071  10.754
19082W        W84067   3.413  13.637   3.819
19083W        W84068  40.461  10.714   0.023
19084W        W84069  28.422   3.414  12.991
19085W        W84070  21.647  40.086  12.407
19086W        W84071   2.711  43.281   4.613
19087W        W84072  17.974   5.703   2.784
19088W        W84073  32.236  11.603   0.467
19089W        W84074  35.082  42.835  14.939
19090W        W84075  37.117  18.766  11.522
19091W        W84076   2.589  31.794  12.900
19092W        W84077  22.046  10.528   1.227
19093W        W84078  36.542  16.797  12.527
19094W        W84079  12.616   3.378  13.944
19095W        W84080   6.873  13.203   3.593
19096W        W84081  16.770  23.045   0.597
19097W        W84082  22.762   6.185  13.471
19098W        W84083  40.009  29.738  11.067
19099W        W84084  27.059  10.245   0.281
19100W        W84085  41.471   3.042  14.775
19101W        W84086  39.900  18.074  11.504
19102W        W84087  18.493  23.214   1.372
19103W        W84088  11.153  42.544   2.661
19104W        W84089  18.127  23.292   2.294
19105W        W84090  19.399  23.076   0.735
19106W        W84091  19.251  35.565   1.933
19107W        W84092   2.818   6.687  13.513
19108W        W84093   0.140  22.162  13.119
19109W        W84094   8.199  42.473   4.705
19110W        W84095  12.090  10.737  11.107
19111W        W84096  32.647  25.472   5.102
19112W        W84097  26.267  34.056  14.215
19113W        W84098  16.841  18.843   9.855
19114W        W84099   9.572  33.879  10.930
19115W        W84100  19.729  14.920  11.873
19116W        W84101  36.683  27.923   1.752
19117W        W84102  35.118  16.076   0.177
19118W        W84103   7.485  21.254   5.042
19119W        W84104  40.497  33.616  10.378
19120W        W84105  13.212  32.623  10.655
19121W        W84106  10.063  43.105  14.367
19122W        W84107  36.536  40.505   1.745
19123W        W84108  25.155  44.792  11.247
19124W        W84109  27.988  23.113  14.323
19125W        W84110  11.833  39.083  10.398
19126W        W84111   7.417  25.537   2.757
19127W        W84112  13.181  18.922  11.079
19128W        W84113  17.653   4.115  13.578
19129W        W84114   7.649  15.667  13.505
19130W        W84115  38.384  13.803  10.554
19131W        W84116  25.467  30.392   1.862
19132W        W84117  14.130  44.306  13.398
19133W        W84118  40.064  16.751  11.748
19134W        W84119   1.615   7.908   2.733
19135W        W84120  34.415  40.797  14.345
19136W        W84121  17.604  41.287   0.346
19137W        W84122   6.007  18.585  14.387
19138W        W84123   5.374  12.320  14.808
19139W        W84124   6.830  16.121  11.535
19140W        W84125   4.227   7.934  12.589
19141W        W84126  41.829  32.670   1.977
19142W        W84127   3.483  19.589  14.417
19143W        W84128  15.378  20.838   4.037
19144W        W84129  44.062  40.600  14.296
19145W        W84130  15.280   7.351   3.699
19146W        W84131  44.467  39.612   0.729
19147W        W84132  15.166  30.193   2.759
19148W        W84133  19.584  43.020   4.109
19149W        W84134  32.594  28.221  14.090
19150W        W84135  34.805  20.181  12.958
19151W        W84136  26.970  13.577   2.839
19152W        W84137  14.550   2.812   1.422
19153W        W84138  41.917  31.011  10.700
19154W        W84139   6.117  43.115  13.849
19155W        W84140   3.487  29.563  13.769
19156W        W84141  18.269  27.135  11.148
19157W        W84142   8.342  38.892   4.689
19158W        W84143   3.224  43.815  12.005
19159W        W84144  44.858  14.198   4.992
19160W        W84145  35.426   7.568  10.382
19161W        W84146  34.717  25.999   4.755
19162W        W84147  20.343  34.236  11.469
19163W        W84148  41.142  42.376   3.292
19164W        W84149  39.342  28.479  10.961
19165W        W84150  24.100  19.603   4.626
19166W        W84151  41.466  10.474   1.850
19167W        W84152  33.490   2.942   0.331
19168W        W84153  30.385   8.390   3.336
19169W        W84154   0.873   8.487   0.540
19170W        W84155  24.753  15.899  13.133
19171W        W84156  25.027  34.709  11.977
19172W        W84157  18.076   8.283  14.647
19173W        W84158  25.254  43.909  10.729
19174W        W84159  28.773   2.625   5.411
19175W        W84160   6.238  24.194   4.058
19176W        W84161  35.068  42.737  11.574
19177W        W84162  10.107  40.852   2.831
19178W        W84163  44.323  26.412  10.260
19179W        W84164  16.616  11.579   3.012
19180W        W84165  11.634   2.781  13.083
19181W        W84166  21.568  30.999  13.942
19182W        W84167  27.509   8.961   4.258
19183W        W84168  19.125  43.577   0.699
19184W        W84169  31.380  11.466   3.300
19185W        W84170  36.802  41.541  11.664
19186W        W84171  18.678  25.443   0.744
19187W        W84172  23.681  26.437   1.679
19188W        W84173  36.768  15.103   1.654
19189W        W84174  44.625  25.649  12.787
19190W        W84175  31.970  27.439   2.902
19191W        W84176  17.080   9.559   0.497
19192W        W84177  39.813  32.056  11.402
19193W        W84178  18.993   3.386   0.754
19194W        W84179  23.215  20.207   4.755
19195W        W84180   1.817   9.884   2.403
19196W        W84181  28.989  29.146  13.756
19197W        W84182  40.548   1.808  12.978
19198W        W84183  31.803  33.102  12.878
19199W        W84184  36.688  39.970   1.156
19200W        W84185  15.510  41.932  12.438
19201W        W84186   9.710  40.744   3.974
19202W        W84187   7.735   7.168   4.417
19203W        W84188   4.713   3.716  12.882
19204W        W84189  33.397  34.524  13.045
19205W        W84190  41.152   7.865  12.920
19206W        W84191  21.956   8.203  14.949
19207W        W84192  27.983  11.300   3.753
19208W        W84193   9.132  29.562  12.112
19209W        W84194  10.372   0.459   0.478
19210W        W84195  27.222  14.516  13.492
19211W        W84196  21.093  24.242  11.161
19212W        W84197  10.712  30.579   4.927
19213W        W84198  43.408  38.495  13.272
19214W        W84199  10.407  24.604   1.843
19215W        W84200   9.157   3.522  14.660
19216W        W84201  32.047  21.677   2.906
19217W        W84202  29.462  24.289  14.034
19218W        W84203  34.253   3.211   0.854
19219W        W84204  12.833   1.287  14.814
19220W        W84205  17.109  15.866   4.943
19221W        W84206  17.068  14.072  14.027
19222W        W84207   9.616  32.406   0.868
19223W        W84208  23.543   6.240   1.850
19224W        W84209  31.970  43.412  11.063
19225W        W84210   6.951   8.752  13.378
19226W        W84211  41.356  40.762  13.376
19227W        W84212  25.787  12.891   3.675
19228W        W84213   6.311  21.513   0.025
19229W        W84214  10.884  13.696   1.349
19230W        W84215  23.510  43.447  12.945
19231W        W84216  42.708   1.906   3.253
19232W        W84217  36.377  26.008  13.983
19233W        W84218  38.402  12.875   1.177
19234W        W84219  13.829  30.661   4.119
19235W        W84220  14.682  21.770   0.303
19236W        W84221  37.699   2.402   4.622
19237W        W84222   1.847  32.267  10.615
19238W        W84223  28.966  16.707  12.388
19239W        W84224  11.852  39.041   3.113
19240W        W84225  12.115   7.653  12.507
19241W        W84226  17.501  22.308   5.074
19242W        W84227  42.295   9.098  12.511
19243W        W84228  27.231  18.383   4.450
19244W        W84229  29.455  35.824  14.796
19245W        W84230   8.004   0.197  14.049
19246W        W84231  31.401  18.257  11.485
19247W        W84232   9.596   5.588   2.662
19248W        W84233   4.750   9.217   2.264
19249W        W84234   6.341  36.448   2.410
19250W        W84235  19.474   5.149   1.230
19251W        W84236   4.370  28.853   1.789
19252W        W84237   8.782   3.754   3.687
19253W        W84238   1.532   1.321  13.485
19254W        W84239  15.775  22.110   0.481
19255W        W84240  10.678  17.809  12.898
19256W        W84241  40.992   6.003   2.845
19257W        W84242   7.551  43.213   2.630
19258W        W84243   3.313   6.898  14.341
19259W        W84244   9.374  25.251   3.371
19260W        W84245  32.631  23.491   0.538
19261W        W84246  26.531  29.514   0.861
19262W        W84247  38.899  34.439   3.424
19263W        W84248  31.740   8.335   4.500
19264W        W84249   4.939  44.538  11.019
19265W        W84250  39.370  20.444   1.353
19266W        W84251   9.185   6.562   4.687
19267W        W84252  24.614   3.423  14.006
19268W        W84253  20.146   1.303   2.138
19269W        W84254  38.026  40.985  10.409
19270W        W84255  21.005  11.897  12.270
19271W        W84256   0.392  10.709  14.364
19272W        W84257  28.538  11.307   0.342
19273W        W84258  33.398  28.144   4.078
19274W        W84259   9.480  28.028   0.986
19275W        W84260  19.740  34.914   4.657
19276W        W84261  14.789   3.299   2.849
19277W        W84262  27.149  21.178   0.778
19278W        W84263  27.296  36.914   0.433
19279W        W84264  31.624  41.311   4.241
19280W        W84265  29.078  27.448  14.167
19281W        W84266  23.619  40.411   0.077
19282W        W84267   0.475  18.501   0.887
19283W        W84268   1.883  21.847  13.763
19284W        W84269  32.831  31.696   0.780
19285W        W84270  10.404  27.477  11.410
19286W        W84271   8.947  25.301  13.168
19287W        W84272  10.263  33.469  10.425
19288W        W84273  42.769  19.793  11.098
19289W        W84274  16.756  42.451   2.769
19290W        W84275  21.351  37.597   0.319
19291W        W84276  43.059   4.122   1.935
19292W        W84277  19.574  16.326  14.550
19293W        W84278  45.000   1.872   4.918
19294W        W84279  44.790   3.124  14.257
19295W        W84280   7.390  22.805   1.148
19296W        W84281  22.735   4.346   3.422
19297W        W84282   1.625  25.606  14.718
19298W        W84283  14.770   4.894  13.111
19299W        W84284   8.801  24.746  14.014
19300W        W84285  19.260  25.231  10.958
19301W        W84286   5.003  27.543   1.012
19302W        W84287  13.533  10.070  11.234
19303W        W84288  39.818  25.980   1.054
19304W        W84289   9.744  20.703   2.903
19305W        W84290   2.582  43.962   1.422
19306W        W84291  37.916  16.657  11.785
19307W        W84292  14.076  14.063  13.593
19308W        W84293  18.353  12.736   1.589
19309W        W84294   6.301  16.779  12.567
19310W        W84295   9.288   4.161  10.755
19311W        W84296   3.920  17.653   3.259
19312W        W84297  35.095  21.341  11.193
19313W        W84298  38.422  39.173  13.428
19314W        W84299   1.565   5.880  11.986
19315W        W84300  22.503  17.976   1.308
19316W        W84301   3.868  38.004   4.190
19317W        W84302  15.758   3.288  13.476
19318W        W84303  33.990  36.637  12.496
19319W        W84304  13.094  19.345   0.500
19320W        W84305  32.831  35.429  13.983
19321W        W84306   4.152  25.055   2.615
19322W        W84307  24.083  27.739  11.014
19323W        W84308  25.798  20.529  12.638
19324W        W84309   4.935  32.052   0.271
19325W        W84310   5.705  20.245   2.765
19326W        W84311  34.061  44.368  12.837
19327W        W84312   9.836  37.367   1.230
19328W        W84313  13.800  12.285  12.939
19329W        W84314   7.874  11.131   0.832
19330W        W84315  37.220   8.829   2.395
19331W        W84316  30.098  35.491  11.525
19332W        W84317  19.636  13.351  10.460
19333W        W84318   3.279  39.238   0.843
19334W        W84319  19.956  27.706  12.519
19335W        W84320   7.567  27.902  12.831
19336W        W84321  38.276  42.689   2.165
19337W        W84322  15.546  19.655   4.376
19338W        W84323   6.743  25.933  11.442
19339W        W84324  36.895  41.744   1.749
19340W        W84325  26.002  44.287   3.875
19341W        W84326  37.950   6.285   2.914
19342W        W84327  25.436  20.019  13.310
19343W        W84328  23.533  42.059   2.528
19344W        W84329  25.024  19.350  12.104
19345W        W84330  18.269   7.505  14.198
19346W        W84331  20.000  14.141  13.799
19347W        W84332  31.853  27.124  14.322
19348W        W84333   3.479   8.511   0.677
19349W        W84334  10.672  36.656  13.945
19350W        W84335  41.213  20.409   1.951
19351W        W84336  19.005  16.765   2.728
19352W        W84337  33.476  33.079  13.783
19353W        W84338  39.374  22.410   3.422
19354W        W84339  16.710  32.001   4.707
19355W        W84340  28.146  44.714   3.210
19356W        W84341  34.785  24.381  12.571
19357W        W84342  18.327  31.619  10.743
19358W        W84343  24.152  38.311   4.646
19359W        W84344  41.476   2.633   3.398
19360W        W84345  40.248  16.137   2.231
19361W        W84346   2.874  39.280  11.573
19362W        W84347  36.893  11.833  10.074
19363W        W84348  29.328  12.579   1.354
19364W        W84349  29.129  41.885   2.820
19365W        W84350  30.999   9.574  14.711
19366W        W84351   0.455   3.737   0.813
19367W        W84352  38.563  44.348   0.473
19368W        W84353   0.640  24.081  10.697
19369W        W84354  35.085  41.451   1.868
19370W        W84355   8.620  40.923  14.139
19371W        W84356  21.172  32.329   3.168
19372W        W84357   9.330   2.264  11.711
19373W        W84358   6.807  20.054   3.712
19374W        W84359  24.988   4.792   3.188
19375W        W84360  10.245  43.183  12.168
19376W        W84361  20.063  40.064   0.240
19377W        W84362  38.497  37.806  11.601
19378W        W84363  33.012  19.124  12.462
19379W        W84364  22.154  13.256  14.583
19380W        W84365  35.571  39.890  14.800
19381W        W84366  12.455  18.298  11.576
19382W        W84367  11.231  35.410  10.931
19383W        W84368  22.151  16.520  13.515
19384W        W84369  41.635  28.474  12.057
19385W        W84370  17.567  10.771  13.031
19386W        W84371  25.439  23.733   0.615
19387W        W84372  42.299  37.273  11.660
19388W        W84373  41.708  26.248  10.732
19389W        W84374   0.956  15.310   3.746
19390W        W84375  23.264  11.620   4.206
19391W        W84376   8.122  21.435  12.995
19392W        W84377  15.548  13.199  11.442
19393W        W84378  36.686  36.525  14.870
19394W        W84379   6.013  34.971  11.552
19395W        W84380  39.938  28.970  11.511
19396W        W84381  37.581  30.005   2.264
19397W        W84382  15.632  21.045  14.491
19398W        W84383  30.511  29.371   0.953
19399W        W84384  21.494  29.925   1.692
19400W        W84385  23.827  40.404   1.010
19401W        W84386  40.722  10.201   4.977
19402W        W84387   5.853  27.572   0.698
19403W        W84388  32.477  27.501  12.354
19404W        W84389  35.174  37.921  12.775
19405W        W84390  16.744  36.771   1.189
19406W        W84391  22.700  44.834  10.736
19407W        W84392  15.107  38.204  14.152
19408W        W84393  44.702   3.450  10.550
19409W        W84394  29.049  25.563  14.863
19410W        W84395  18.359  42.822  11.930
19411W        W84396  30.300  18.216   1.915
19412W        W84397  14.399  22.616  14.347
19413W        W84398  20.069  23.495  14.688
19414W        W84399   1.976  25.645  12.216
19415W        W84400   3.899  28.540   0.340
19416W        W84401  17.576  38.807  13.887
19417W        W84402  31.168  24.328  14.515
19418W        W84403   4.861  14.667  14.040
19419W        W84404  39.079   2.045   2.165
19420W        W84405  20.004  29.108  10.133
19421W        W84406  24.960  43.446   4.498
19422W        W84407  39.993  23.012  11.123
19423W        W84408  35.489  35.536   3.633
19424W        W84409  15.839  42.241   0.060
19425W        W84410   9.320  23.576  10.826
19426W        W84411  18.147  15.561   0.340
19427W        W84412   8.681  28.265   1.936
19428W        W84413  26.602  34.567   0.288
19429W        W84414  23.235   3.446   3.743
19430W        W84415  23.032  34.379  14.820
19431W        W84416  12.329  36.398   2.284
19432W        W84417   6.728  28.694   0.807
19433W        W84418  42.097   8.790  11.341
19434W        W84419   1.894  16.635   4.560
19435W        W84420  15.610  11.093  10.757
19436W        W84421  17.267   2.686   0.743
19437W        W84422   1.603  32.073  13.029
19438W        W84423  17.222  34.670  11.445
19439W        W84424  35.405  44.776  13.431
19440W        W84425  28.338  31.935   0.514
19441W        W84426  34.500  43.019   1.522
19442W        W84427  32.007  39.882  11.228
19443W        W84428  21.111  25.938   4.626
19444W        W84429  32.023  44.153   3.635
19445W        W84430  12.693  20.625   5.174
19446W        W84431  37.974  27.470  11.039
19447W        W84432   4.248   2.293   3.347
19448W        W84433  27.985  26.889   5.029
19449W        W84434  12.626  38.834   2.693
19450W        W84435  42.270  26.505   1.705
19451W        W84436  20.869  40.243  11.939
19452W        W84437  24.251   4.209  14.427
19453W        W84438  23.486  41.292   3.309
19454W        W84439   3.480  21.345  13.508
19455W        W84440  43.835  42.857   3.076
19456W        W84441  37.471  24.274   1.256
19457W        W84442  33.666  38.865   4.953
19458W        W84443  17.855  17.224   0.510
19459W        W84444  13.611  30.085   4.581
19460W        W84445   0.265  30.272  13.375
19461W        W84446   9.260  18.368   2.161
19462W        W84447  27.111  26.233   0.504
19463W        W84448  10.053  21.066  11.506
19464W        W84449  29.386  28.794  13.930
19465W        W84450  44.534  12.310  13.988
19466W        W84451  40.512  25.698  12.518
19467W        W84452  36.706  23.196   0.938
19468W        W84453  43.592  21.483   5.036
19469W        W84454  23.141  39.796  10.519
19470W        W84455   6.880  30.587  14.512
19471W        W84456  44.740   3.191  12.385
19472W        W84457  14.829  39.477  14.482
19473W        W84458  10.493  40.054   3.907
19474W        W84459  26.768  14.013  10.368
19475W        W84460   3.193  32.408  11.082
19476W        W84461  23.079  23.726   0.827
19477W        W84462  11.875  19.482   3.423
19478W        W84463  37.014  17.529  11.129
19479W        W84464  14.786  38.910   0.877
19480W        W84465  27.522  20.453  11.058
19481W        W84466  41.887  29.491   0.917
19482W        W84467   8.511  17.095   3.352
19483W        W84468  40.816  34.606   3.804
19484W        W84469  22.587  44.217  11.887
19485W        W84470  15.155  19.558   1.306
19486W        W84471  10.932   9.797   0.026
19487W        W84472  44.607  42.206  11.189
19488W        W84473  14.401  21.102  14.863
19489W        W84474   0.725  13.598  14.154
19490W        W84475  39.898   4.819   4.088
19491W        W84476  29.395  38.963   5.030
19492W        W84477   9.671   5.686  14.344
19493W        W84478  14.583   5.906   0.822
19494W        W84479  41.450  21.731   5.123
19495W        W84480  41.439  44.458   2.482
19496W        W84481  44.004  42.499  11.983
19497W        W84482  24.132  17.278  10.501
19498W        W84483  16.637  24.925  10.759
19499W        W84484  30.618   5.265  11.707
19500W        W84485   3.187  32.350  14.023
19501W        W84486   5.459   1.348   1.262
19502W        W84487  25.486   6.260  12.427
19503W        W84488  40.971   8.035   4.820
19504W        W84489  37.973  14.132  12.617
19505W        W84490  32.973  41.687   1.114
19506W        W84491  15.224  29.390  11.543
19507W        W84492  36.257  27.620  13.380
19508W        W84493  43.939   2.470   3.238
19509W        W84494  17.552   8.413   4.501
19510W        W84495  44.052   2.439  13.486
19511W        W84496  38.777  20.927   2.280
19512W        W84497  30.069  42.428   2.634
19513W        W84498   4.488  41.521  12.626
19514W        W84499  25.081   3.259   4.097
19515W        W84500  20.979  15.149   2.649
19516W        W84501  19.210  22.815   1.871
19517W        W84502  30.493  39.893  11.478
19518W        W84503  42.407  14.651   5.579
19519W        W84504  26.183  42.416  11.451
19520W        W84505  19.650  30.897  12.247
19521W        W84506   2.111  25.249  13.269
19522W        W84507  41.809  43.314  14.355
19523W        W84508   3.455  36.610   1.231
19524W        W84509  31.429   2.426  11.892
19525W        W84510   3.000  28.020  12.108
19526W        W84511   6.058  29.235  12.191
19527W        W84512   8.859  39.834  11.230
19528W        W84513  44.933   9.741   4.281
19529W        W84514  21.494   3.489  11.591
19530W        W84515  44.270  29.252   4.583
19531W        W84516  10.144  27.694   5.209
19532W        W84517  18.191  25.766   4.249
19533W        W84518  43.489  20.032   3.935
19534W        W84519   4.821  29.656   1.846
19535W        W84520   5.971  20.586  11.388
19536W        W84521  10.874  12.729   2.283
19537W        W84522  40.846  29.693  10.561
19538W        W84523  11.547  30.651   3.696
19539W        W84524   9.715  25.308  10.780
19540W        W84525  18.476  10.180   3.415
19541W        W84526  28.978  17.017   1.835
19542W        W84527  28.940  38.423  12.965
19543W        W84528  24.809  15.741  14.165
19544W        W84529  13.832  17.309  11.613
19545W        W84530  22.608  14.572   2.656
19546W        W84531   0.314  39.492   0.648
19547W        W84532   0.757  29.137  14.871
19548W        W84533  36.419  15.593  10.667
19549W        W84534  17.727  32.523   0.989
19550W        W84535  39.097  16.636   3.643
19551W        W84536  17.307  32.449  14.647
19552W        W84537  24.551  28.602   4.297
19553W        W84538  37.968  32.789   4.571
19554W        W84539  39.313  15.732  13.213
19555W        W84540  15.250  33.198   4.614
19556W        W84541  21.484  19.360  12.726
19557W        W84542  29.162  35.149   2.651
19558W        W84543   7.426   1.357  10.842
19559W        W84544   9.843   6.811  10.750
19560W        W84545  40.875  41.047  12.494
19561W        W84546  22.614   4.477   0.232
19562W        W84547  30.601  29.211   0.445
19563W        W84548  22.641  38.935  11.883
19564W        W84549  30.472   4.962   2.638
19565W        W84550  17.144  42.135   4.634
19566W        W84551  21.075  11.074  14.748
19567W        W84552  42.972  32.142  14.919
19568W        W84553  23.920  35.394  13.858
19569W        W84554  22.739   0.537  13.747
19570W        W84555  36.326   4.888   0.780
19571W        W84556  22.664  40.972   0.834
19572W        W84557  37.158   5.758   0.844
19573W        W84558   0.487  21.701   0.494
19574W        W84559   9.787  24.176   3.332
19575W        W84560  43.936  16.730  11.941
19576W        W84561  29.989  43.944   1.573
19577W        W84562   4.955  28.122  12.870
19578W        W84563   5.913   6.332   1.747
19579W        W84564  17.106   0.307   2.846
19580W        W84565  39.416   3.752  14.503
19581W        W84566  40.567  41.494  12.517
19582W        W84567   7.804   3.811  11.133
19583W        W84568  18.239  37.017   2.377
19584W        W84569   4.308   8.642   3.780
19585W        W84570  43.891   7.466  11.926
19586W        W84571   8.496  24.463   4.455
19587W        W84572  38.846  20.761  10.988
19588W        W84573  34.219   5.847   1.683
19589W        W84574  32.609  28.947   3.118
19590W        W84575  14.565  24.016   3.633
19591W        W84576  44.564  31.676   1.747
19592W        W84577  31.999  22.716   4.880
19593W        W84578  19.493   5.281   0.295
19594W        W84579   0.828  38.790  13.017
19595W        W84580  16.627  34.507  14.817
19596W        W84581  27.998  30.615  11.850
19597W        W84582  10.319  32.371  12.136
19598W        W84583   2.978  40.204   2.337
19599W        W84584  30.396   1.166  12.398
19600W        W84585  41.461  28.541  13.282
19601W        W84586  21.041  32.849  11.274
19602W        W84587  31.054  32.347  11.129
19603W        W84588  31.077   0.199   3.892
19604W        W84589  13.150  26.628  10.600
19605W        W84590  30.857  15.693   4.907
19606W        W84591  28.866  31.049  14.352
19607W        W84592  35.608  33.347   4.020
19608W        W84593  28.777   2.949   4.634
19609W        W84594  26.020  41.973  13.455
19610W        W84595  44.979  44.016   0.413
19611W        W84596  30.153  17.077   2.126
19612W        W84597  13.270  26.491   3.616
19613W        W84598  18.221  11.818  14.556
19614W        W84599  27.663  20.673   4.634
19615W        W84600  22.200   5.322  14.967
19616W        W84601  34.021  13.443  11.088
19617W        W84602  30.716   2.725   1.594
19618W        W84603   5.364  22.482  11.663
19619W        W84604   6.442  44.533  10.268
19620W        W84605  40.650  31.501  12.411
19621W        W84606  23.444  16.191  11.535
19622W        W84607  12.130  33.757  14.629
19623W        W84608  33.502  37.802  10.644
19624W        W84609  24.060  31.742   1.229
19625W        W84610  14.294  41.803   1.371
19626W        W84611  33.262  11.330  13.342
19627W        W84612  27.315  23.447   2.767
19628W        W84613   0.821  24.430  14.494
19629W        W84614  28.034  24.325  11.452
19630W        W84615   2.008  20.615   2.838
19631W        W84616  19.005  36.365   0.872
19632W        W84617  22.981  12.866  10.657
19633W        W84618   2.022  28.563  10.660
19634W        W84619  32.390  10.699  12.493
19635W        W84620   9.605  37.449  11.577
19636W        W84621  29.449  17.452  11.917
19637W        W84622  24.502  44.061  14.430
19638W        W84623  21.950  11.783  13.530
19639W        W84624  33.461   6.348  10.887
19640W        W84625  32.880  11.893   2.710
19641W        W84626  11.067  41.951   1.807
19642W        W84627   8.909  14.448  10.345
19643W        W84628  26.394  38.365  13.582
19644W        W84629  29.155  26.192  13.120
19645W        W84630  42.979  30.870  11.572
19646W        W84631  37.471  36.099   5.056
19647W        W84632  42.289   4.227  13.469
19648W        W84633   8.864  38.113  10.979
19649W        W84634  27.170  42.514  13.404
19650W        W84635  40.843   9.428  13.471
19651W        W84636  29.430  13.723   1.911
19652W        W84637  21.223   9.755   2.299
19653W        W84638   6.712  40.071   2.651
19654W        W84639  23.761  23.272  12.451
19655W        W84640   9.267  27.021  12.029
19656W        W84641   1.840  20.566   0.737
19657W        W84642  34.202   3.930  11.415
19658W        W84643  31.082  37.566   4.912
19659W        W84644  17.037  33.422   3.847
19660W        W84645  28.993  35.814   4.128
19661W        W84646  30.399  21.617   0.686
19662W        W84647  32.411   5.432  12.447
19663W        W84648  28.264   5.987  11.116
19664W        W84649   8.780  11.322   3.359
19665W        W84650  35.364  20.174   3.254
19666W        W84651  30.575  36.894   0.029
19667W        W84652  24.146  30.481   3.124
19668W        W84653  33.360  37.436   2.679
19669W        W84654  30.930  27.763  10.563
19670W        W84655  21.683  25.073   3.547
19671W        W84656  38.448  31.994   2.859
19672W        W84657   5.764  30.978  13.369
19673W        W84658  27.641   2.061   2.757
19674W        W84659  14.781  11.237  10.530
19675W        W84660  32.051   1.020   2.073
19676W        W84661  10.152   5.248  11.452
19677W        W84662  31.362  23.089   4.305
19678W        W84663  12.242  15.608  14.302
19679W        W84664  14.624   0.228   2.746
19680W        W84665   3.301   2.420   3.608
19681W        W84666   0.844  16.246  12.721
19682W        W84667   5.495  29.469   0.798
19683W        W84668  13.623  21.732  12.952
19684W        W84669  16.997  20.910  10.661
19685W        W84670  35.464  10.612   3.807
19686W        W84671  16.466  26.041   1.395
19687W        W84672  27.271  21.080  11.619
19688W        W84673  35.146  28.081   2.013
19689W        W84674  19.692  27.444  12.169
19690W        W84675  20.065  30.663   2.141
19691W        W84676  17.088   6.858  13.797
19692W        W84677  37.878  16.828   2.291
19693W        W84678  26.074  38.311  12.795
19694W        W84679  36.907  36.609  13.831
19695W        W84680   7.750  32.015   0.883
19696W        W84681  25.682  36.564  12.275
19697W        W84682  41.547  15.042   3.318
19698W        W84683   8.654  11.297  12.538
19699W        W84684  18.305  41.232   2.336
19700W        W84685  13.095  40.546  10.249
19701W        W84686  39.600  34.945   1.818
19702W        W84687  33.069  39.344  13.091
19703W        W84688  18.572  38.893   0.436
19704W        W84689  35.107  19.230  11.471
19705W        W84690   9.099   3.245  12.328
19706W        W84691  18.072  20.411   4.208
19707W        W84692   8.189  32.610  12.688
19708W        W84693   7.139  33.400   1.263
19709W        W84694  39.583   0.676  12.495
19710W        W84695  11.773   8.329   4.151
19711W        W84696   4.876  15.063  12.847
19712W        W84697   1.251   9.625   3.645
19713W        W84698  33.360   5.603  11.524
19714W        W84699  21.247   9.990   1.824
19715W        W84700   0.715   4.704   2.004
19716W        W84701  27.570  18.439  11.094
19717W        W84702  37.556   9.612  10.216
19718W        W84703   8.668  33.345   4.090
19719W        W84704  15.717  36.908  12.403
19720W        W84705  43.920  32.902   0.750
19721W        W84706  30.721  26.583   4.116
19722W        W84707   2.802  25.925  11.611
19723W        W84708  10.883  34.026   2.881
19724W        W84709   9.874  20.976   2.132
19725W        W84710  20.689   4.863  10.532
19726W        W84711   9.065   9.417   2.381
19727W        W84712  25.714  35.116  10.333
19728W        W84713  33.631  34.519  12.570
19729W        W84714   7.508  31.951   9.956
19730W        W84715  11.844  32.027   2.705
19731W        W84716  12.813  36.804  11.595
19732W        W84717  36.610  40.898  12.410
19733W        W84718  27.056  28.366   4.631
19734W        W84719  20.372  39.369   0.514
19735W        W84720  38.136   0.741  12.122
19736W        W84721  19.891  29.081  12.480
19737W        W84722  13.533  24.383   2.722
19738W        W84723  17.805   0.561   0.139
19739W        W84724  44.806  37.099   1.247
19740W        W84725  12.279  19.013   2.612
19741W        W84726  14.327   7.724   0.959
19742W        W84727  43.942  34.185   3.652
19743W        W84728  40.506   2.475  10.892
19744W        W84729  27.184  17.635  11.582
19745W        W84730  27.858  22.638  14.400
19746W        W84731   5.349  34.951   3.481
19747W        W84732  23.702  15.463  10.456
19748W        W84733  16.657  13.700  13.963
19749W        W84734   8.757  29.825  13.917
19750W        W84735  10.339  43.433   2.036
19751W        W84736  17.203  25.647  13.893
19752W        W84737   7.336   4.778  11.912
19753W        W84738  40.851  27.962   3.554
19754W        W84739   1.504  42.507   3.252
19755W        W84740  20.615  19.663  11.229
19756W        W84741  12.730  25.174   1.255
19757W        W84742   5.268  34.844   2.481
19758W        W84743   1.904  23.251   2.916
19759W        W84744   9.922  40.299   3.687
19760W        W84745  33.896  13.767   3.371
19761W        W84746  18.793  29.135  11.555
19762W        W84747  11.346  40.476  14.849
19763W        W84748   1.435  39.064   4.251
19764W        W84749  34.330  11.112   0.555
19765W        W84750  21.749   3.808   2.461
19766W        W84751   9.837  41.988   3.762
19767W        W84752  27.558  11.979   1.363
19768W        W84753   6.510  14.008  13.001
19769W        W84754  37.308  11.379   4.128
19770W        W84755  25.648  10.085  13.470
19771W        W84756  28.762  33.398   3.604
19772W        W84757  16.201  29.516  13.183
19773W        W84758  34.198  22.541  14.499
19774W        W84759  16.122  30.084   4.033
19775W        W84760  44.552  34.960   4.081
19776W        W84761  41.252  18.193  13.808
19777W        W84762  14.346  21.611   5.033
19778W        W84763  31.785  19.690  12.455
19779W        W84764   0.993  30.077   2.765
19780W        W84765  23.801  28.644  11.158
19781W        W84766  27.238  35.613  14.231
19782W        W84767  24.701   1.774   2.360
19783W        W84768   2.025   6.914  14.727
19784W        W84769  43.075  34.108  14.316
19785W        W84770  34.874  11.273  14.751
19786W        W84771   4.628  14.051  11.012
19787W        W84772  27.341   4.875   2.429
19788W        W84773  29.196  28.740  14.873
19789W        W84774  22.580  22.602   0.471
19790W        W84775  18.725   9.575   4.414
19791W        W84776  38.368  27.457   1.170
19792W        W84777   7.378  33.002   1.031
19793W        W84778  43.160  34.503   0.633
19794W        W84779   8.417   4.775   0.766
19795W        W84780  23.657   1.735   0.250
19796W        W84781  41.500   5.906  14.367
19797W        W84782   7.245  29.577  12.528
19798W        W84783   1.273  34.510   3.220
19799W        W84784  40.846   8.431   2.217
19800W        W84785  35.195  42.347   1.744
19801W        W84786   5.039  14.899  13.306
19802W        W84787  25.617  40.337  13.956
19803W        W84788  11.693   9.401   3.899
19804W        W84789  26.065   5.821  11.807
19805W        W84790   2.909  12.070  13.988
19806W        W84791   1.402   2.405  14.303
19807W        W84792  39.349  29.031  13.124
19808W        W84793  38.795  22.161  12.497
19809W        W84794  44.288  35.851   2.343
19810W        W84795  38.589   9.499   0.307
19811W        W84796  21.716  10.537   2.365
19812W        W84797  30.887  41.361   1.327
19813W        W84798  30.902  16.418  12.084
19814W        W84799  35.425  40.389  13.922
19815W        W84800  16.828  42.870   3.073
19816W        W84801  14.844   1.556  14.894
19817W        W84802  37.646   5.361  14.776
19818W        W84803  41.241   9.933  14.407
19819W        W84804  37.504  12.598  14.826
19820W        W84805  25.230  19.314   3.597
19821W        W84806  30.613  10.565   4.647
19822W        W84807  42.028  33.881   4.532
19823W        W84808   7.780   8.890  10.495
19824W        W84809  37.981   7.152  10.208
19825W        W84810  41.931  17.536  12.345
19826W        W84811   2.870  12.906   1.846
19827W        W84812  30.071   2.780  13.723
19828W        W84813  27.217  20.757  10.676
19829W        W84814  11.023   3.409   2.937
19830W        W84815  29.463  33.489   2.312
19831W        W84816   0.189   3.755   4.521
19832W        W84817  36.022  40.079   1.821
19833W        W84818  30.242  39.521  14.256
19834W        W84819  37.614  43.910   3.157
19835W        W84820  18.700  42.158   2.469
19836W        W84821  16.715   4.962  14.352
19837W        W84822  28.137  42.891   0.724
19838W        W84823  22.677  14.360   4.591
19839W        W84824  22.634  31.955  10.113
19840W        W84825   2.773  33.616   1.756
19841W        W84826  23.909  21.781   1.368
19842W        W84827  22.520  41.055  12.140
19843W        W84828  19.884  37.592  12.566
19844W        W84829   0.405  34.587  12.424
19845W        W84830  39.915  19.804   2.614
19846W        W84831  43.802  42.237  14.525
19847W        W84832  18.125  27.212  13.945
19848W        W84833  11.617  17.729   1.325
19849W        W84834  31.582   0.833   0.332
19850W        W84835  10.338   6.783  12.871
19851W        W84836  11.818  20.866   3.672
19852W        W84837  21.054   2.835   1.653
19853W        W84838  13.843  33.464   4.206
19854W        W84839   1.241  38.393   4.979
19855W        W84840  12.741  11.321   3.249
19856W        W84841  17.306  39.327   3.212
19857W        W84842  34.654  14.302   0.909
19858W        W84843  21.634  22.292  13.831
19859W        W84844  33.592  10.607  11.616
19860W        W84845  22.310  13.720   3.246
19861W        W84846  20.756  41.930  11.541
19862W        W84847  38.472  26.958   1.184
19863W        W84848  14.649  19.497  14.466
19864W        W84849  39.608  14.367   0.267
19865W        W84850   8.905  10.807  11.969
19866W        W84851  34.584   9.919   1.463
19867W        W84852  15.793  17.243  10.727
19868W        W84853  15.715   8.290   1.707
19869W        W84854  42.256  22.575   1.696
19870W        W84855  34.823  19.429   0.429
19871W        W84856  43.342  44.183  10.011
19872W        W84857  37.317  21.978  12.432
19873W        W84858  28.581  38.807  14.869
19874W        W84859  29.764  16.146   2.269
19875W        W84860  35.528  18.542  11.157
19876W        W84861   0.801  44.933   0.494
19877W        W84862  18.871  11.661  12.069
19878W        W84863  19.909  38.466   1.468
19879W        W84864  36.841  32.918   2.764
19880W        W84865   1.916  13.542  13.897
19881W        W84866  14.657  10.240  14.010
19882W        W84867  11.541   2.283  11.242
19883W        W84868  34.221  28.961   0.502
19884W        W84869  10.425  22.053  10.564
19885W        W84870  19.260  38.743  10.939
19886W        W84871  22.051  22.448  13.540
19887W        W84872  16.002  29.566   3.191
19888W        W84873  24.072  36.335   3.647
19889W        W84874  11.364  42.319   1.640
19890W        W84875   8.608  19.650   1.760
19891W        W84876  21.753  26.010  12.978
19892W        W84877  31.102   7.910   0.820
19893W        W84878  14.298   9.906  10.615
19894W        W84879  26.653  28.228   1.896
19895W        W84880  35.435  25.203   0.786
19896W        W84881  17.542  33.015   4.210
19897W        W84882   5.922  16.750  12.148
19898W        W84883  15.307  19.298  11.952
19899W        W84884  30.452   1.343   5.132
19900W        W84885  20.344  20.698   2.189
19901W        W84886   3.926  33.908  11.087
19902W        W84887  18.601  44.413  14.138
19903W        W84888  15.785  14.348  11.596
19904W        W84889   6.429  18.537  12.924
19905W        W84890  38.602  16.287   1.009
19906W        W84891  35.466  33.525   4.485
19907W        W84892  26.129   0.920  12.516
19908W        W84893  20.642  26.645   1.701
19909W        W84894  43.300   1.599   4.611
19910W        W84895  43.920  19.825   0.799
19911W        W84896  23.110   3.862   4.107
19912W        W84897  29.446  12.837  12.860
19913W        W84898  31.599   6.684  14.809
19914W        W84899  23.102  32.846  14.718
19915W        W84900  13.152  40.775   2.646
19916W        W84901  37.589  39.268   4.490
19917W        W84902  31.684  44.419   5.101
19918W        W84903  15.847  11.803   1.337
19919W        W84904  32.374  39.305  14.421
19920W        W84905  37.930  35.077  11.055
19921W        W84906  16.528  33.801   3.226
19922W        W84907  23.672   1.980  11.609
19923W        W84908   5.308   9.337   2.361
19924W        W84909  42.463  25.558   0.435
19925W        W84910  10.358  38.373  13.079
19926W        W84911  18.336  13.337  10.988
19927W        W84912   8.820  37.997   0.671
19928W        W84913   3.977   5.149   5.048
19929W        W84914  24.819  11.682  13.153
19930W        W84915  38.420   6.173  14.005
19931W        W84916   4.455  26.279  10.772
19932W        W84917  40.754  24.030   2.349
19933W        W84918  36.500  17.284  12.745
19934W        W84919  34.215  36.298   2.652
19935W        W84920  28.237  19.017  12.046
19936W        W84921  44.105  23.308   0.730
19937W        W84922  17.503  27.698   3.636
19938W        W84923  36.469   3.814  11.118
19939W        W84924   7.401  44.356   3.579
19940W        W84925  13.322   3.529  11.631
19941W        W84926  28.506  17.196  11.578
19942W        W84927  21.021  30.532  14.473
19943W        W84928  15.550  35.552  13.785
19944W        W84929  25.346  39.414  10.905
19945W        W84930   3.320  19.703   1.780
19946W        W84931  35.609  39.905   4.499
19947W        W84932   0.477  14.106  13.390
19948W        W84933  44.860  44.105  11.553
19949W        W84934  35.868  40.291  11.032
19950W        W84935  30.128  34.188   2.552
19951W        W84936  35.055  15.593   0.979
19952W        W84937  23.996   2.838  14.411
19953W        W84938  30.925   1.739  13.953
19954W        W84939  27.498   4.024  10.039
19955W        W84940   0.694  18.033  11.078
19956W        W84941   7.595  31.552   3.591
19957W        W84942   9.228  15.575  14.985
19958W        W84943  30.702  27.424   0.566
19959W        W84944  33.712  36.119  14.454
19960W        W84945  16.976  24.624   5.556
19961W        W84946  27.426  29.501   4.103
19962W        W84947  15.137   3.324   2.449
19963W        W84948  16.233  35.781   2.801
19964W        W84949   5.232   9.141  13.507
19965W        W84950  44.735  35.482   1.481
19966W        W84951  19.387  33.605  13.077
19967W        W84952  31.601  36.450  11.633
19968W        W84953  37.391  38.312   2.434
19969W        W84954  40.846  42.332   1.163
19970W        W84955  12.984  26.809  14.865
19971W        W84956  42.785  20.678   4.197
19972W        W84957  19.163  23.141   4.198
19973W        W84958   7.035  35.015   4.584
19974W        W84959  39.856  30.155   3.341
19975W        W84960  18.546  11.229  10.705
19976W        W84961  37.501  23.666  13.428
19977W        W84962   8.278   1.938   3.108
19978W        W84963  24.018  23.067  14.761
19979W        W84964   7.767  42.530  11.385
19980W        W84965   3.533  25.282   4.095
19981W        W84966  35.619   9.624  12.321
19982W        W84967  35.474  19.096   1.635
19983W        W84968  23.112  17.637   3.054
19984W        W84969   6.284  18.639  11.456
19985W        W84970  18.044  30.158   3.300
19986W        W84971  42.455  27.937   1.658
19987W        W84972  19.216   3.257  12.746
19988W        W84973  24.710  37.259   2.829
19989W        W84974  43.692   4.013  12.039
19990W        W84975  32.355  14.700   2.472
19991W        W84976  18.279  21.453  14.043
19992W        W84977  20.784   5.390   4.727
19993W        W84978  13.285  27.612   2.620
19994W        W84979  25.803  32.627   2.201
19995W        W84980  38.349  41.017   0.671
19996W        W84981  43.178  19.056  14.270
19997W        W84982  42.662  18.681   3.259
19998W        W84983  28.979   2.938   1.370
19999W        W84984  14.048  25.598   3.002
20000W        W84985   4.133   3.842  14.299
20001W        W84986  43.357  42.328   1.465
20002W        W84987  10.672  13.043   2.643
20003W        W84988  36.050  17.845  14.125
20004W        W84989  16.035  29.762   0.957
20005W        W84990   6.960  37.488   0.327
20006W        W84991  38.608  31.545  11.461
20007W        W84992  38.910   7.374   3.323
20008W        W84993  30.369  36.909   2.018
20009W        W84994  33.642  31.650   2.831
20010W        W84995  16.498  37.428  13.413
20011W        W84996  37.553  41.443   0.687
20012W        W84997  43.925  32.139  10.908
20013W        W84998  19.801  14.119   1.869
20014W        W84999  44.816  28.158   4.554
20015W        W85000  31.208  17.738  10.781
20016W        W85001  30.405  22.045   4.671
20017W        W85002  24.247  41.536   4.644
20018W        W85003  41.936   0.510   0.146
20019W        W85004  15.629  35.394   0.306
20020W        W85005   8.995  30.623  11.114
20021W        W85006  38.764   2.706  12.083
20022W        W85007  13.053   6.646  14.047
20023W        W85008   7.671  10.825  12.960
20024W        W85009  18.079   3.340   0.717
20025W        W85010  15.357   9.205   0.749
20026W        W85011  31.915  13.701   4.009
20027W        W85012  15.044  18.265  14.377
20028W        W85013  15.581  28.739  13.587
20029W        W85014  14.021  22.874   4.231
20030W        W85015  41.221   9.774   2.100
20031W        W85016  33.818   1.716  13.555
20032W        W85017   8.685  10.151  10.643
20033W        W85018  19.642   5.667   1.801
20034W        W85019  25.970  29.831   9.785
20035W        W85020  13.267  37.318   5.007
20036W        W85021   8.194  36.455  11.109
20037W        W85022  18.309   7.988   2.757
20038W        W85023  33.882  39.623   1.466
20039W        W85024  14.525  27.708  12.564
20040W        W85025   4.991   5.263   4.963
20041W        W85026  24.024  33.609  12.637
20042W        W85027  31.520  38.714   4.949
20043W        W85028   8.754  34.586  11.941
20044W        W85029  19.569   3.654  12.486
20045W        W85030  35.854   2.209  11.136
20046W        W85031  21.218  34.159   0.233
20047W        W85032  12.283   2.106  11.556
20048W        W85033  25.189  23.840  10.326
20049W        W85034   7.771   1.695  11.009
20050W        W85035   2.733  15.318   0.377
20051W        W85036  42.746  25.944  14.169
20052W        W85037  32.617  15.646   2.140
20053W        W85038  27.488  31.159   0.034
20054W        W85039  20.787  16.483   2.694
20055W        W85040   9.897  29.775   1.365
20056W        W85041  22.060  14.041  12.366
20057W        W85042  33.102  24.059   3.228
20058W        W85043  37.722  15.703   0.229
20059W        W85044  15.502  25.006   5.191
20060W        W85045  23.068  29.932   2.518
20061W        W85046  10.882   4.641   3.124
20062W        W85047  14.596  24.163  10.463
20063W        W85048  16.167   6.454   0.901
20064W        W85049  32.215  26.117   3.275
20065W        W85050  17.277  32.550   4.110
20066W        W85051  14.769  25.886   3.255
20067W        W85052   1.865  12.232  13.306
20068W        W85053  14.785  24.446  13.677
20069W        W85054  36.146  37.955  13.881
20070W        W85055  21.023  23.855  10.316
20071W        W85056  27.626  10.104  12.891
20072W        W85057   1.467  20.700   5.079
20073W        W85058  30.264  11.293  12.312
20074W        W85059   3.208  20.831   1.712
20075W        W85060  19.415  43.128   0.770
20076W        W85061  10.360  17.120  12.964
20077W        W85062  43.436  37.153   0.792
20078W        W85063  27.895  19.525  13.869
20079W        W85064  23.027  11.901   0.264
20080W        W85065  14.940  14.871   2.300
20081W        W85066  42.266  41.762  14.903
20082W        W85067   2.461   1.960   1.259
20083W        W85068  17.816  24.061   0.481
20084W        W85069  22.545  25.028   1.361
20085W        W85070  18.084   9.684  12.365
20086W        W85071   8.787  39.957  13.857
20087W        W85072   7.141  24.760   0.306
20088W        W85073  25.945  40.934   4.437
20089W        W85074   4.281  36.296   0.727
20090W        W85075  35.419  25.610  12.144
20091W        W85076   9.790   2.562  11.533
20092W        W85077  36.367  23.497  11.385
20093W        W85078  15.400   2.986   4.983
20094W        W85079  19.445  10.934  12.075
20095W        W85080  19.227  13.300   4.259
20096W        W85081   1.009  40.838  11.675
20097W        W85082  17.976  13.645  10.785
20098W        W85083  32.486  16.633   4.608
20099W        W85084  20.764  26.163   3.725
20100W        W85085   3.797  33.984   4.051
20101W        W85086  31.106   5.204   1.353
20102W        W85087   3.503  29.635   3.292
20103W        W85088   2.409   5.787   3.178
20104W        W85089  17.714  35.885  12.895
20105W        W85090  36.355   3.603  14.335
20106W        W85091  13.773  25.561  10.776
20107W        W85092  12.659  20.166   0.703
20108W        W85093  36.869  36.117   0.102
20109W        W85094  17.322  18.003   3.263
20110W        W85095   6.934  41.732  14.588
20111W        W85096   0.672  30.476   1.709
20112W        W85097  14.250   8.308   4.311
20113W        W85098  27.836  21.116  10.368
20114W        W85099  29.020   7.707  13.942
20115W        W85100  35.413  25.909  14.477
20116W        W85101  18.476  31.108   4.572
20117W        W85102  14.329  13.280  12.944
20118W        W85103  22.875  16.411  12.025
20119W        W85104  45.000  11.012  11.196
20120W        W85105  19.314  21.540   3.066
20121W        W85106  14.057  19.171   3.137
20122W        W85107  20.592  12.110  12.004
20123W        W85108  26.664   6.638   1.532
20124W        W85109  34.776  26.154   3.188
20125W        W85110   1.434  20.688  11.557
20126W        W85111  16.203  10.309  11.235
20127W        W85112   3.994  37.269   0.543
20128W        W85113  16.085  10.345   1.865
20129W        W85114  30.415  42.724  12.105
20130W        W85115  40.890  41.819  12.897
20131W        W85116  38.809  12.961  14.793
20132W        W85117  30.477   3.809   1.886
20133W        W85118  34.601  32.922   2.249
20134W        W85119  38.615  18.112  13.471
20135W        W85120  40.813   1.843   3.489
20136W        W85121  43.299  37.643  13.539
20137W        W85122  30.534  33.432   0.477
20138W        W85123  40.061  22.391  12.027
20139W        W85124  42.084  21.605  14.327
20140W        W85125  34.362   1.954  11.953
20141W        W85126   1.798  18.199   2.830
20142W        W85127  32.685  24.794  13.443
20143W        W85128   7.962  13.417  11.188
20144W        W85129  13.271   2.809   4.517
20145W        W85130   2.508  11.970   0.008
20146W        W85131  11.131  16.931  13.033
20147W        W85132  42.112   4.124  11.129
20148W        W85133  17.109  23.554   4.626
20149W        W85134  37.014  27.077  10.394
20150W        W85135  44.869  39.813  12.922
20151W        W85136  24.813   7.723   3.718
20152W        W85137  18.721  20.746  14.397
20153W        W85138  19.850  11.478   4.146
20154W        W85139  10.534  28.636   4.686
20155W        W85140  14.124  30.945   2.366
20156W        W85141  17.905  24.210  11.569
20157W        W85142  33.175  28.031  11.814
20158W        W85143   6.466  33.482  11.842
20159W        W85144  29.414  40.563   0.222
20160W        W85145  27.926   3.509  12.848
20161W        W85146  11.246  23.658  10.983
20162W        W85147  37.286   6.375  13.441
20163W        W85148   3.317   2.809   0.757
20164W        W85149   8.670   6.878   1.635
20165W        W85150   6.837  23.574   4.483
20166W        W85151  21.237  37.876   5.007
20167W        W85152   4.854   4.251  14.388
20168W        W85153  31.527  40.331   2.326
20169W        W85154   4.014  13.033   4.199
20170W        W85155  44.901  21.672   2.067
20171W        W85156  36.391  41.324   4.114
20172W        W85157  32.607  15.584  14.234
20173W        W85158   9.441   0.222  12.025
20174W        W85159  32.118  41.977   4.069
20175W        W85160  40.712  28.956  13.565
20176W        W85161   5.109  35.995   5.232
20177W        W85162  38.907   1.765  10.109
20178W        W85163  11.290  29.674   0.996
20179W        W85164   2.380  42.013  14.126
20180W        W85165  30.808  16.192   0.484
20181W        W85166   0.842  42.853  12.988
20182W        W85167  15.304  41.430  11.560
20183W        W85168  43.136  36.838  13.736
20184W        W85169   3.869  14.580  13.849
20185W        W85170  22.404  13.497  11.728
20186W        W85171  43.512  15.665  14.702
20187W        W85172  41.929  24.233   2.771
20188W        W85173   1.137  28.032   3.639
20189W        W85174  12.274   4.894   1.489
20190W        W85175   1.891  34.902  12.006
20191W        W85176   8.548  31.567  14.901
20192W        W85177  33.495  39.343   2.375
20193W        W85178   3.896  13.316   4.631
20194W        W85179  13.501   1.426  11.042
20195W        W85180  34.661  30.209  11.149
20196W        W85181  11.210  38.842   4.170
20197W        W85182  28.209  15.847  14.410
20198W        W85183  23.851  27.032  12.853
20199W        W85184  14.618   7.376  12.442
20200W        W85185  29.959   3.695   9.980
20201W        W85186  40.061  40.785  13.073
20202W        W85187  34.966  42.574  12.064
20203W        W85188  36.282   2.548  12.642
20204W        W85189  19.725  22.511  13.010
20205W        W85190  44.385  32.656   0.756
20206W        W85191   6.062  27.247   0.261
20207W        W85192  20.513  14.946   2.735
20208W        W85193  33.031  33.148  14.467
20209W        W85194  39.358  30.733  14.239
20210W        W85195   0.046  43.997  11.053
20211W        W85196   8.291  19.722  10.509
20212W        W85197  15.420  32.842   1.581
20213W        W85198  40.442  42.622  14.864
20214W        W85199  39.568  20.566  12.799
20215W        W85200  24.993   0.998  12.116
20216W        W85201  41.377  11.754  12.590
20217W        W85202  22.541  40.692  14.382
20218W        W85203   2.999   2.497  12.620
20219W        W85204   9.016   4.952  13.370
20220W        W85205  21.581  20.748  13.598
20221W        W85206  44.249  32.212  11.863
20222W        W85207  23.006  38.855  14.764
20223W        W85208  19.372   7.669   4.539
20224W        W85209  27.851  39.769  12.390
20225W        W85210  33.031  43.943   0.806
20226W        W85211  31.520  33.144   0.368
20227W        W85212  11.673  34.599  14.818
20228W        W85213  23.150  36.405  12.446
20229W        W85214  39.729  31.294  12.852
20230W        W85215  18.469   7.999  12.492
20231W        W85216  37.907  42.473   2.475
20232W        W85217  36.390  34.974  13.160
20233W        W85218  10.275  32.659  10.182
20234W        W85219  30.617  21.204   3.123
20235W        W85220  16.811  28.415  13.968
20236W        W85221   4.031  10.705   0.983
20237W        W85222  25.719   9.417   4.051
20238W        W85223   7.383  27.091   3.596
20239W        W85224  32.941  24.306   4.007
20240W        W85225  37.480  43.782  13.352
20241W        W85226  22.685  10.239  14.338
20242W        W85227  12.331  25.788   1.739
20243W        W85228  37.182  32.613  12.055
20244W        W85229  41.497  37.617  12.170
20245W        W85230  29.641   4.318   0.264
20246W        W85231   9.300  13.962  11.063
20247W        W85232  38.369  34.972  11.848
20248W        W85233   8.954  30.588  13.574
20249W        W85234   7.695  36.821   0.281
20250W        W85235   8.150  34.395  11.196
20251W        W85236  27.445  27.621   3.430
20252W        W85237  35.220  39.599   2.866
20253W        W85238  32.346  35.803  11.604
20254W        W85239  43.814   1.426  13.426
20255W        W85240  15.844  41.388   2.741
20256W        W85241  31.678   5.766  10.843
20257W        W85242  23.684  11.138  11.516
20258W        W85243  43.209   8.466  11.647
20259W        W85244  23.073  16.986  13.717
20260W        W85245   5.759  41.424  12.783
20261W        W85246  15.577  43.236   2.017
20262W        W85247  22.238  29.875  11.537
20263W        W85248   5.313   5.983   3.006
20264W        W85249   0.932  29.060   0.381
20265W        W85250  35.115   6.724  14.059
20266W        W85251   6.169  36.131  11.272
20267W        W85252   6.719  11.682  13.826
20268W        W85253  22.057   4.621  11.180
20269W        W85254  27.405  12.014  13.636
20270W        W85255  36.484  23.051  12.578
20271W        W85256   1.999  29.629   1.906
20272W        W85257  19.924  12.450   3.350
20273W        W85258  12.435  25.965  12.413
20274W        W85259  32.805  27.726   3.245
20275W        W85260  24.089   8.919  13.097
20276W        W85261  29.762  29.758  13.879
20277W        W85262  17.151  28.598  13.568
20278W        W85263  44.085  19.062  14.266
20279W        W85264  35.830  13.118  10.607
20280W        W85265  22.233   9.845  12.203
20281W        W85266  33.017  26.509   4.608
20282W        W85267  37.827   9.372   1.241
20283W        W85268  16.491  11.790   2.177
20284W        W85269  10.874   1.524   0.506
20285W        W85270  11.939  26.365   3.242
20286W        W85271  40.127  11.330  14.868
20287W        W85272  18.088  36.035   3.817
20288W        W85273  42.927  21.322   2.836
20289W        W85274  29.679   3.329   3.668
20290W        W85275  10.389  43.832  13.798
20291W        W85276  39.062   8.396   4.898
20292W        W85277  17.225  15.242  13.398
20293W        W85278  21.287   1.202  11.521
20294W        W85279  35.102  29.403  13.898
20295W        W85280  43.258  30.588  10.066
20296W        W85281  29.913  27.498   1.162
20297W        W85282   1.201  38.988  14.482
20298W        W85283  24.242  20.831   2.324
20299W        W85284  15.403  27.673  13.591
20300W        W85285  12.550  28.398   4.552
20301W        W85286  24.111  37.062  14.388
20302W        W85287   7.602  40.353   4.065
20303W        W85288  11.371  22.795  14.864
20304W        W85289  27.147  19.665  11.464
20305W        W85290  34.401   9.962  14.235
20306W        W85291  27.595  17.275   3.535
20307W        W85292   8.430   2.212  11.536
20308W        W85293   3.043  31.664   1.401
20309W        W85294  43.523  20.019  14.407
20310W        W85295   1.725  39.576  12.018
20311W        W85296   8.643  32.329  11.493
20312W        W85297  32.798  19.316  12.033
20313W        W85298  39.207  17.620   4.864
20314W        W85299  28.949  39.170   1.529
20315W        W85300  28.490   8.105  11.692
20316W        W85301   2.317  43.692  12.471
20317W        W85302  10.575   1.650  13.360
20318W        W85303  40.453  23.246  12.581
20319W        W85304  25.422  34.404  11.866
20320W        W85305   0.666  40.980  12.096
20321W        W85306  27.166  14.806  10.643
20322W        W85307  27.577   8.776  13.345
20323W        W85308   9.157   0.488   3.639
20324W        W85309   4.216   2.361  11.431
20325W        W85310   0.315   6.814  14.105
20326W        W85311  17.734  10.366   1.443
20327W        W85312  30.180   5.245   3.329
20328W        W85313  24.155   0.815  11.077
20329W        W85314   7.208   5.913  13.911
20330W        W85315  38.787  38.776   1.917
20331W        W85316  10.135   1.453   2.774
20332W        W85317  25.902  33.622   2.756
20333W        W85318  38.257  11.849   1.199
20334W        W85319  38.899   1.913   2.640
20335W        W85320  30.968  33.094   4.303
20336W        W85321  43.417  37.096  10.728
20337W        W85322   4.484  21.096  12.535
20338W        W85323  33.256  37.356  10.780
20339W        W85324  21.683  23.974   1.255
20340W        W85325   2.062   6.845   2.276
20341W        W85326  14.084   0.368  11.910
20342W        W85327   8.395  20.345  11.969
20343W        W85328   0.346  44.712   4.605
20344W        W85329  27.116  26.050   2.440
20345W        W85330   8.399   6.481   3.150
20346W        W85331   1.484  34.558  13.997
20347W        W85332  32.878  40.845  13.489
20348W        W85333  34.956  26.660   3.865
20349W        W85334  34.338  40.923   0.267
20350W        W85335  35.823  33.379  11.008
20351W        W85336  39.160  43.261  13.635
20352W        W85337  23.075  12.571   4.819
20353W        W85338   4.871   2.401  13.461
20354W        W85339   8.336  42.110   2.858
20355W        W85340  31.073  35.547   4.640
20356W        W85341  24.812  39.292  11.050
20357W        W85342  20.039  35.005   1.235
20358W        W85343  22.969  21.189  14.375
20359W        W85344  12.059  28.497   4.661
20360W        W85345   7.235  32.509  10.469
20361W        W85346  30.671  32.052  13.503
20362W        W85347  39.715  42.438  14.953
20363W        W85348  38.441  10.228   1.026
20364W        W85349   2.413  35.571  12.332
20365W        W85350  40.782  10.260  12.460
20366W        W85351  43.036  29.713  11.525
20367W        W85352  14.203  38.369   2.439
20368W        W85353  38.147   4.728  13.535
20369W        W85354   3.285  36.318  13.078
20370W        W85355   8.565  43.363   2.699
20371W        W85356   5.785  41.890  13.559
20372W        W85357   0.081  41.441  14.515
20373W        W85358   6.660  31.566   0.554
20374W        W85359  11.492  15.316  12.598
20375W        W85360  31.371  44.008  14.926
20376W        W85361  11.628  14.318  10.802
20377W        W85362  11.653  15.293   0.963
20378W        W85363  39.068   7.730  13.376
20379W        W85364  19.526   0.310   0.763
20380W        W85365   6.657   1.443   4.281
20381W        W85366  32.128  17.676   0.851
20382W        W85367  10.152  27.504   1.278
20383W        W85368   0.757  33.451  14.346
20384W        W85369   5.445  34.602  12.783
20385W        W85370  18.552  33.526  14.283
20386W        W85371  27.189  15.633   1.202
20387W        W85372  25.103  22.659   1.509
20388W        W85373  42.090  36.114  14.042
20389W        W85374  35.146  34.780  11.347
20390W        W85375  16.640  33.555  13.464
20391W        W85376   6.248   9.823   4.607
20392W        W85377  41.799  23.696  12.619
20393W        W85378   4.136  27.728  14.891
20394W        W85379  36.107   0.845   0.319
20395W        W85380  10.056  22.240  10.206
20396W        W85381   3.525  24.640  12.413
20397W        W85382  34.552  32.445  14.857
20398W        W85383  38.379   2.069   1.403
20399W        W85384  31.000   8.871   1.741
20400W        W85385  34.896  20.224  14.069
20401W        W85386  14.259  21.746   0.809
20402W        W85387  19.730  42.443  14.564
20403W        W85388  15.394  42.604   3.084
20404W        W85389  43.065  42.505  13.165
20405W        W85390  19.333  44.230  11.005
20406W        W85391  25.225   6.312   2.464
20407W        W85392  41.815  37.621  14.914
20408W        W85393  21.657   1.476   1.971
20409W        W85394  13.672   4.425   1.905
20410W        W85395  27.195  31.528  11.170
20411W        W85396  22.662  36.570   3.457
20412W        W85397  31.594  26.686  11.840
20413W        W85398  11.811  25.099   4.548
20414W        W85399  19.558  29.161   1.263
20415W        W85400  30.123   4.082  10.285
20416W        W85401  43.498  26.023  12.936
20417W        W85402  26.001   4.856   3.151
20418W        W85403  44.381  19.126  13.382
20419W        W85404  19.082   1.956  14.867
20420W        W85405  28.097  27.162  11.359
20421W        W85406   9.166  38.858  11.946
20422W        W85407  21.952   9.068   4.950
20423W        W85408  16.759  29.820   1.759
20424W        W85409  21.740   0.013   4.157
20425W        W85410  25.311  28.230  12.466
20426W        W85411  32.197  27.165  11.156
20427W        W85412  12.794   4.691  11.975
20428W        W85413  39.583  16.796   3.677
20429W        W85414  21.630  10.968   3.259
20430W        W85415  29.821   4.150  13.644
20431W        W85416  19.456  43.799  14.587
20432W        W85417   1.966   4.473   3.692
20433W        W85418  27.775  18.805  12.037
20434W        W85419  16.063  22.806   0.844
20435W        W85420  29.079  40.635   1.103
20436W        W85421  41.989   7.831  12.343
20437W        W85422  43.318  17.931  12.891
20438W        W85423  42.798  20.560   1.351
20439W        W85424  12.550  43.199   5.031
20440W        W85425  24.110  24.018   2.212
20441W        W85426  42.548  30.656  14.133
20442W        W85427   9.232  21.237   4.578
20443W        W85428  42.219   3.862  14.797
20444W        W85429  25.155   5.462  11.015
20445W        W85430  43.232   7.175  14.469
20446W        W85431  25.193   9.907   3.641
20447W        W85432  27.926  32.912   1.361
20448W        W85433  38.849  37.338  13.510
20449W        W85434  33.122   5.870  10.272
20450W        W85435  38.280  14.558   4.211
20451W        W85436   7.161  38.108  11.544
20452W        W85437  27.084   2.273  10.986
20453W        W85438  33.631  23.555   0.462
20454W        W85439   6.688  22.601  14.947
20455W        W85440  33.887   0.351  10.611
20456W        W85441  38.317  26.185   0.808
20457W        W85442  25.248  41.019  12.890
20458W        W85443  37.992  30.480   3.151
20459W        W85444  26.204   5.913  14.975
20460W        W85445  43.709   7.090   0.357
20461W        W85446   2.679  19.101   0.397
20462W        W85447  38.631   3.345   1.454
20463W        W85448  27.643  38.387  13.582
20464W        W85449  39.759  44.248  14.862
20465W        W85450  23.839  36.741   2.837
20466W        W85451  41.259  20.467  10.030
20467W        W85452  16.156  30.524  10.161
20468W        W85453  29.066  40.922  14.981
20469W        W85454  18.180  22.900  10.624
20470W        W85455  14.265   4.383  14.037
20471W        W85456  20.250  42.545  14.423
20472W        W85457  35.285  12.744  11.042
20473W        W85458  43.202  14.606  13.006
20474W        W85459  41.340   0.701  11.721
20475W        W85460   3.147   4.213   0.808
20476W        W85461  32.908  33.855  13.023
20477W        W85462  30.022  17.552  13.944
20478W        W85463   9.259  16.050  11.158
20479W        W85464  30.559  14.067   0.706
20480W        W85465   5.174  36.506  14.090
20481W        W85466  12.752   6.811   4.023
20482W        W85467   6.534  15.205  11.880
20483W        W85468  31.468  32.512   4.823
20484W        W85469  35.479   9.815   5.062
20485W        W85470  33.352  12.083   2.551
20486W        W85471  42.314   1.579   3.379
20487W        W85472  18.816  17.623  11.060
20488W        W85473  15.284   9.928  13.273
20489W        W85474   4.818  40.123   1.381
20490W        W85475  25.576  24.428  11.662
20491W        W85476  24.087  39.133  11.193
20492W        W85477  19.609   9.563  13.370
20493W        W85478   2.909  42.807   0.686
20494W        W85479  16.584  17.570   1.620
20495W        W85480  27.181  40.984  10.682
20496W        W85481  37.272  41.487  13.406
20497W        W85482  33.861  27.070   4.717
20498W        W85483  15.849  29.702  11.111
20499W        W85484  32.244  20.188   5.157
20500W        W85485  39.747   4.581  14.873
20501W        W85486  22.344  22.937  14.261
20502W        W85487  41.444  31.728   3.614
20503W        W85488   3.733   4.738   3.656
20504W        W85489   8.342  10.821  13.716
20505W        W85490  41.283   4.755   4.178
20506W        W85491  44.526  17.447  10.524
20507W        W85492  14.003  22.963  12.830
20508W        W85493  20.293  41.885   3.132
20509W        W85494  30.516  40.937   2.790
20510W        W85495  24.353  29.995   1.448
20511W        W85496   4.821   8.296  13.491
20512W        W85497   4.737  31.441  11.444
20513W        W85498  13.218  34.165  13.603
20514W        W85499   3.792  38.447  10.811
20515W        W85500   8.791   0.695  11.591
20516W        W85501  29.180  12.622  13.895
20517W        W85502  28.861   8.762   3.987
20518W        W85503   6.877  23.196  14.477
20519W        W85504  44.197   6.406  14.449
20520W        W85505  27.528  13.259  10.741
20521W        W85506  21.314  23.087   2.232
20522W        W85507   2.637   5.463   1.320
20523W        W85508  43.938   1.947   1.983
20524W        W85509  28.514  30.490   0.922
20525W        W85510  44.234  28.991   4.134
20526W        W85511   6.889  34.485   0.519
20527W        W85512  16.136  23.258  14.791
20528W        W85513  13.635   0.981   4.319
20529W        W85514  34.386  22.936  12.268
20530W        W85515  26.861   8.870   2.678
20531W        W85516  14.326   0.340  11.467
20532W        W85517  42.720  20.934   2.187
20533W        W85518  36.306  39.857   0.835
20534W        W85519  24.305  30.989  13.045
20535W        W85520   2.653  25.855   1.895
20536W        W85521  37.516  31.865   2.799
20537W        W85522  40.717  17.755   2.705
20538W        W85523  16.611  34.112   4.283
20539W        W85524  38.502  23.257   2.423
20540W        W85525   1.307  16.151   4.800
20541W        W85526   0.057  24.002   9.847
20542W        W85527   4.258  31.321  10.557
20543W        W85528   4.919   2.802   1.194
20544W        W85529   6.846  20.703   2.415
20545W        W85530  27.568   8.923   0.392
20546W        W85531   2.814  32.409  10.719
20547W        W85532  29.026  29.596  14.728
20548W        W85533  11.893  36.846   4.664
20549W        W85534  25.270  28.203  14.899
20550W        W85535  29.656  11.637  10.717
20551W        W85536  23.639   9.256  10.496
20552W        W85537  27.188  19.182   2.815
20553W        W85538   4.155  32.955  13.505
20554W        W85539  37.335  29.082  12.769
20555W        W85540   9.189  19.584  13.285
20556W        W85541  12.371  10.913   0.230
20557W        W85542  30.023  28.580  10.705
20558W        W85543  12.570  14.248   3.196
20559W        W85544   7.382  28.405  13.973
20560W        W85545   8.816  38.467  11.920
20561W        W85546  25.489   8.457  11.619
20562W        W85547  11.408  13.652   2.240
20563W        W85548   5.877  40.489  13.162
20564W        W85549  26.104  22.416  14.524
20565W        W85550  38.858  23.942   4.060
20566W        W85551  32.133  16.424  10.840
20567W        W85552   2.379  42.247  13.169
20568W        W85553  43.061   0.241  14.064
20569W        W85554  22.595  13.420  12.387
20570W        W85555   9.099  16.309   2.957
20571W        W85556  38.796  33.500   4.622
20572W        W85557  43.815  15.466  11.490
20573W        W85558  44.318  38.200   3.686
20574W        W85559  41.524  34.494  12.582
20575W        W85560  36.512  16.161  11.772
20576W        W85561   9.529  21.050  11.421
20577W        W85562  13.874   9.345  14.902
20578W        W85563  35.146  43.699  14.050
20579W        W85564   6.814  10.114  11.014
20580W        W85565  13.017  25.544   3.153
20581W        W85566  23.299  33.465   3.045
20582W        W85567  39.932   4.337  11.969
20583W        W85568  11.053  28.990   0.462
20584W        W85569  30.084  23.028   4.148
20585W        W85570   4.466  19.524   0.836
20586W        W85571   3.232   9.361  12.067
20587W        W85572  32.966  40.534   2.518
20588W        W85573  13.050  17.235   0.093
20589W        W85574  10.632  23.637   3.754
20590W        W85575  12.043  28.589  13.108
20591W        W85576  33.025  36.265  12.071
20592W        W85577   0.553  35.108  10.720
20593W        W85578   6.139  25.936   0.627
20594W        W85579  15.760  13.326  10.990
20595W        W85580  27.523  37.287   2.366
20596W        W85581  20.658  31.806  14.864
20597W        W85582  10.306  14.646  14.291
20598W        W85583   0.300  11.605   4.198
20599W        W85584  11.870  24.010  13.941
20600W        W85585  40.300  21.005  10.587
20601W        W85586  42.598  36.146  13.982
20602W        W85587  37.972  22.145  10.349
20603W        W85588  37.078   2.193   2.838
20604W        W85589  41.478  17.243   3.917
20605W        W85590  23.495  28.036   0.799
20606W        W85591  25.135   3.827  14.552
20607W        W85592  32.181  43.490   2.864
20608W        W85593   4.273  38.883   4.063
20609W        W85594   3.184  15.182   3.879
20610W        W85595   7.660  34.531  11.157
20611W        W85596  19.617  21.196   3.739
20612W        W85597   6.231  16.793  13.524
20613W        W85598  19.254  13.057  13.865
20614W        W85599  17.759  35.647   1.848
20615W        W85600  16.517  29.566  11.684
20616W        W85601  26.528  32.015  14.450
20617W        W85602  14.192  22.496   9.954
20618W        W85603  20.687  21.762   0.908
20619W        W85604  13.173  10.205  13.911
20620W        W85605  25.152  31.966   1.830
20621W        W85606  21.615  27.098   1.320
20622W        W85607  20.603  19.547  12.120
20623W        W85608  17.962  22.522   1.199
20624W        W85609  42.756  35.519  13.972
20625W        W85610  44.447  12.608   0.324
20626W        W85611  44.704  22.096   0.290
20627W        W85612  10.341  10.961   3.722
20628W        W85613   2.226   3.710   4.013
20629W        W85614  44.069  22.535  14.057
20630W        W85615  14.591  10.324  12.507
20631W        W85616  24.719   7.204   1.505
20632W        W85617  34.376  14.855  11.705
20633W        W85618  38.419  42.296   0.999
20634W        W85619  29.042   2.941   0.434
20635W        W85620  30.534   6.946  14.348
20636W        W85621  27.656  25.632  13.281
20637W        W85622   1.166  43.455  10.731
20638W        W85623  38.521  36.224  10.767
20639W        W85624  22.053  24.681   3.528
20640W        W85625  25.445  21.219   2.380
20641W        W85626   2.767  25.141   0.727
20642W        W85627  22.152  30.392   9.658
20643W        W85628  41.822  12.800   4.798
20644W        W85629  30.914  32.927   3.647
20645W        W85630   2.386  17.455  14.415
20646W        W85631  31.504  39.069  14.020
20647W        W85632  10.196  29.647  14.996
20648W        W85633  26.794  24.021  11.008
20649W        W85634  21.833  25.540  13.257
20650W        W85635  14.776  10.825   4.105
20651W        W85636  11.851  26.630  11.093
20652W        W85637   5.263  12.265   2.676
20653W        W85638  21.748  29.490  12.108
20654W        W85639  44.348  15.405   2.797
20655W        W85640  11.657  14.752   2.979
20656W        W85641  40.132   5.505   3.784
20657W        W85642  14.261   0.926  14.396
20658W        W85643  40.410   0.945  14.489
20659W        W85644   0.121  35.660  13.798
20660W        W85645  21.720  36.383  14.348
20661W        W85646  39.528  19.672   2.289
20662W        W85647   7.387  25.259  11.221
20663W        W85648  42.416  34.368   2.802
20664W        W85649   5.743  44.947  10.858
20665W        W85650  27.244   6.880   2.713
20666W        W85651  43.793  21.531  11.820
20667W        W85652  38.470  21.247  14.215
20668W        W85653  42.809  19.106   0.354
20669W        W85654  11.436  37.024   0.768
20670W        W85655  24.107  39.770  14.476
20671W        W85656  10.591  42.762  12.448
20672W        W85657  31.885  21.266   2.257
20673W        W85658   9.408   1.525   1.439
20674W        W85659  31.851  38.557  12.918
20675W        W85660  32.416  18.908  14.810
20676W        W85661  20.662  27.551  12.867
20677W        W85662  41.294   3.214  13.442
20678W        W85663   0.249  44.334  13.226
20679W        W85664  10.690  22.702   1.546
20680W        W85665  35.403  30.840  10.640
20681W        W85666  36.921  17.537   2.761
20682W        W85667   2.991  39.718  12.507
20683W        W85668  39.052  10.932   4.514
20684W        W85669  33.856   4.246  11.147
20685W        W85670  29.556  35.455   2.461
20686W        W85671  32.200  37.533  10.787
20687W        W85672  38.986  19.548  11.591
20688W        W85673  40.066  32.778  12.386
20689W        W85674  39.903  29.919   1.762
20690W        W85675  31.860  31.475   3.749
20691W        W85676  28.511  25.605  14.092
20692W        W85677   6.880  41.993  12.516
20693W        W85678   6.481  23.658   1.718
20694W        W85679  30.836  27.043  14.341
20695W        W85680  33.626  28.689  13.053
20696W        W85681   1.839  11.915   0.925
20697W        W85682  17.586  37.635   1.878
20698W        W85683   1.173  20.453  13.041
20699W        W85684  20.523  32.305   2.167
20700W        W85685   8.398   7.908  11.208
20701W        W85686  44.469   7.354  14.697
20702W        W85687  39.206   4.439  12.833
20703W        W85688  42.283   8.402  14.753
20704W        W85689  38.792  36.696   0.287
20705W        W85690  27.509  28.495  13.554
20706W        W85691  27.658  22.104  14.313
20707W        W85692  11.882  43.276   4.069
20708W        W85693   2.465  21.583   1.424
20709W        W85694  35.844  31.131   0.092
20710W        W85695   4.342  38.848  11.406
20711W        W85696   3.392  32.374   2.101
20712W        W85697  15.965  20.721   1.732
20713W        W85698   0.319  14.826   3.229
20714W        W85699  32.354   1.188  12.550
20715W        W85700  31.847  22.519  11.534
20716W        W85701  41.887  32.696   2.524
20717W        W85702   4.397  12.774   0.737
20718W        W85703  12.859  25.249   4.009
20719W        W85704  39.657  32.886   4.544
20720W        W85705  39.080   1.563   1.940
20721W        W85706  11.932  42.991   4.504
20722W        W85707  30.714  29.504   1.447
20723W        W85708  11.028  32.115  10.922
20724W        W85709   9.882   4.344   2.188
20725W        W85710  33.012  30.373   0.367
20726W        W85711  20.370  29.034   3.148
20727W        W85712  42.127  30.527   4.650
20728W        W85713   4.258  28.558   3.855
20729W        W85714  35.041  28.911   0.288
20730W        W85715   9.630  27.181   0.569
20731W        W85716  10.328  41.785  11.236
20732W        W85717   3.206  42.489  10.610
20733W        W85718  23.037  21.826   2.361
20734W        W85719  33.912  40.615   1.489
20735W        W85720  35.410   7.807  11.759
20736W        W85721  36.392  35.853   1.759
20737W        W85722   5.705   7.770   0.443
20738W        W85723   8.633  37.909   0.196
20739W        W85724  28.508  30.460   2.480
20740W        W85725   1.886  18.945   2.456
20741W        W85726  38.849  31.065  12.382
20742W        W85727  44.351  11.096  11.687
20743W        W85728   8.314  44.972  12.395
20744W        W85729  18.283  43.911   3.339
20745W        W85730   9.991  17.248   5.116
20746W        W85731   4.615  30.080  10.871
20747W        W85732  10.387  24.633   3.706
20748W        W85733  38.609   4.734   2.237
20749W        W85734   1.517  22.051   2.844
20750W        W85735  10.310   7.685  10.722
20751W        W85736  23.048  15.252  11.623
20752W        W85737  41.111  19.009   4.472
20753W        W85738  10.870  28.112   0.964
20754W        W85739  13.069  19.709   1.970
20755W        W85740  23.630  43.237   4.739
20756W        W85741   8.332  11.059   1.111
20757W        W85742  11.824   2.827   0.237
20758W        W85743  26.611   5.920  12.481
20759W        W85744   1.632  18.170  11.013
20760W        W85745  43.407  27.914  10.660
20761W        W85746  40.922   4.380   2.559
20762W        W85747  19.266  43.061  14.315
20763W        W85748  11.629  40.495   1.669
20764W        W85749  16.138   1.824  12.975
20765W        W85750  29.757  15.756  14.329
20766W        W85751  36.379   9.110  13.598
20767W        W85752   5.527  36.210   3.331
20768W        W85753  40.927  20.825  14.081
20769W        W85754   2.317  15.878   1.096
20770W        W85755  12.353  16.795  11.577
20771W        W85756  10.605  23.148   1.305
20772W        W85757  20.044  44.791   2.688
20773W        W85758  33.458  21.507   4.478
20774W        W85759  32.352  18.606  12.997
20775W        W85760   2.404  12.244  13.298
20776W        W85761  42.841  30.791   0.585
20777W        W85762  37.952   5.241   1.858
20778W        W85763  40.246  10.840   2.682
20779W        W85764   0.039  17.099   0.207
20780W        W85765   4.307  19.647  12.627
20781W        W85766  22.269  33.670   4.267
20782W        W85767  41.500   3.859   2.685
20783W        W85768  28.077  35.995  14.341
20784W        W85769   7.999  34.537   0.469
20785W        W85770  32.053  28.035  12.427
20786W        W85771  33.420  32.346   4.166
20787W        W85772  23.245  20.847  11.416
20788W        W85773  10.332  15.105   0.502
20789W        W85774  10.337  24.562  14.201
20790W        W85775  16.349   2.716  12.645
20791W        W85776  27.926   4.280   1.255
20792W        W85777  19.118   5.005   5.474
20793W        W85778   9.739  27.502  11.686
20794W        W85779  44.446  27.741   0.946
20795W        W85780  29.539  19.097  11.923
20796W        W85781   0.420  18.665  13.271
20797W        W85782  32.668  18.814   2.582
20798W        W85783  30.044  15.555  12.959
20799W        W85784  12.924  43.956   1.724
20800W        W85785  23.237  17.762   1.201
20801W        W85786  42.930  36.357  13.605
20802W        W85787   2.014  10.839   0.327
20803W        W85788  17.756  22.062  10.768
20804W        W85789  40.095  27.852   3.374
20805W        W85790  17.057  28.639  12.623
20806W        W85791  12.243  15.629   3.894
20807W        W85792  24.068   9.634  14.770
20808W        W85793  27.666  12.659  12.915
20809W        W85794   8.593  26.204  11.176
20810W        W85795  26.472   2.491  12.042
20811W        W85796  15.990  31.726   5.059
20812W        W85797  36.784  42.401  14.649
20813W        W85798  19.716  40.746   4.682
20814W        W85799   5.334  29.909   4.154
20815W        W85800  27.596   8.487  12.122
20816W        W85801   0.154  32.010  14.672
20817W        W85802  20.709  35.980  11.611
20818W        W85803  37.017   6.655  12.902
20819W        W85804   1.928  31.646  13.935
20820W        W85805  24.339  17.367  10.002
20821W        W85806  33.164   1.726   2.694
20822W        W85807   1.406  24.233  12.904
20823W        W85808  38.851  32.797   4.162
20824W        W85809  30.875   2.025  12.253
20825W        W85810   8.441  31.592  12.483
20826W        W85811   0.199  43.938   0.893
20827W        W85812  44.538  17.744  13.383
20828W        W85813  26.759  37.923  10.966
20829W        W85814  22.030  37.564  12.838
20830W        W85815  12.856   3.500   4.169
20831W        W85816  24.413  32.891  14.344
20832W        W85817  21.114  32.371  12.844
20833W        W85818  42.516   6.482   1.686
20834W        W85819  11.820  43.015  12.192
20835W        W85820  31.820  17.684   2.160
20836W        W85821  33.187  11.780   0.800
20837W        W85822  37.087  21.202  13.556
20838W        W85823  26.996  16.669   0.667
20839W        W85824  30.491  27.751   1.853
20840W        W85825   1.481  12.591   1.385
20841W        W85826  13.076   8.252   9.744
20842W        W85827  10.757   6.892  10.544
20843W        W85828  23.920  21.529  13.004
20844W        W85829  23.707  31.540  11.940
20845W        W85830  42.677  15.108  13.429
20846W        W85831  34.362   8.441  12.156
20847W        W85832  14.380  24.692   2.807
20848W        W85833  20.640  22.779   1.031
20849W        W85834  22.485  39.736  12.506
20850W        W85835  11.159  22.032   2.233
20851W        W85836  26.211  29.945   1.040
20852W        W85837  34.034  30.961  13.027
20853W        W85838   8.220  23.512   1.264
20854W        W85839  38.965   0.071   2.871
20855W        W85840  32.360  13.426   3.960
20856W        W85841  37.944  10.866   2.099
20857W        W85842   6.724  36.088   3.778
20858W        W85843  28.469  27.419   2.733
20859W        W85844  19.349  33.174   1.973
20860W        W85845  18.715   6.312   1.506
20861W        W85846  17.503  10.745  10.995
20862W        W85847  38.097   2.365  14.431
20863W        W85848  29.032  34.154   1.717
20864W        W85849  26.703  37.511   1.310
20865W        W85850  37.506  20.115  12.363
20866W        W85851  36.201   2.231   3.546
20867W        W85852   0.047   4.480  12.551
20868W        W85853   9.297  42.843  11.008
20869W        W85854  41.501  20.166  12.961
20870W        W85855  26.048  38.474  14.766
20871W        W85856   9.881   9.636  14.232
20872W        W85857   5.953   7.679   2.909
20873W        W85858  24.921  25.093   1.709
20874W        W85859   4.899  12.693   1.459
20875W        W85860  33.783  44.913  13.698
20876W        W85861  39.117  31.586  11.476
20877W        W85862   0.258  39.885  14.703
20878W        W85863  40.784  30.995  14.303
20879W        W85864  15.045  21.109   3.734
20880W        W85865  23.599  41.505  14.580
20881W        W85866  12.702   5.987  13.248
20882W        W85867  22.094  32.287   2.983
20883W        W85868  11.653  19.483  13.919
20884W        W85869  34.019  42.776   1.548
20885W        W85870  31.428  12.233   1.866
20886W        W85871  38.516  33.134  11.580
20887W        W85872   2.221  20.749   2.246
20888W        W85873  13.805  16.643   3.114
20889W        W85874  36.256  16.051   2.699
20890W        W85875  43.666  12.235   0.161
20891W        W85876  41.564  30.609   4.555
20892W        W85877  37.349  22.573   4.123
20893W        W85878  12.684  28.983   2.852
20894W        W85879  16.273   0.408  14.889
20895W        W85880  39.538  42.208   2.378
20896W        W85881   0.782  18.987  12.837
20897W        W85882  31.981  31.994   3.617
20898W        W85883  17.771  12.765  13.953
20899W        W85884  16.997  41.322   3.994
20900W        W85885  19.842  37.911  13.607
20901W        W85886  36.134  24.418  12.323
20902W        W85887  30.712  31.039  14.850
20903W        W85888  36.290   8.522   1.641
20904W        W85889  16.168  21.104   5.478
20905W        W85890  20.759  13.241  12.864
20906W        W85891  26.238   4.960  10.572
20907W        W85892  18.704  29.674  12.421
20908W        W85893  17.126  23.010   0.202
20909W        W85894  24.754  44.491   0.365
20910W        W85895   1.827  37.556   4.628
20911W        W85896  11.209  24.963  13.253
20912W        W85897   8.313  29.710   1.488
20913W        W85898   3.028  34.110   1.834
20914W        W85899  40.805  11.774   1.673
20915W        W85900  41.466   3.648  10.867
20916W        W85901  27.219  27.215   1.041
20917W        W85902  29.503  25.466   0.564
20918W        W85903  22.023  26.957   4.263
20919W        W85904  23.026  41.538  11.166
20920W        W85905  29.063  21.988  13.576
20921W        W85906  37.357  43.577  12.896
20922W        W85907  24.422  22.630   2.923
20923W        W85908  16.273  16.082  13.808
20924W        W85909  13.720  15.540  11.576
20925W        W85910   2.074  34.798  11.522
20926W        W85911   4.256   8.563  14.079
20927W        W85912  19.608   6.987   0.493
20928W        W85913  20.012  18.593  14.431
20929W        W85914  44.491  16.503  14.754
20930W        W85915   6.990  44.261   4.636
20931W        W85916   9.698  13.791   2.835
20932W        W85917  22.765   5.685   0.565
20933W        W85918   8.410  26.174   1.407
20934W        W85919  23.468  42.956  14.459
20935W        W85920  25.023  18.827  12.059
20936W        W85921  30.878  28.493   3.692
20937W        W85922  44.020  40.022   2.785
20938W        W85923  17.713  37.306   4.190
20939W        W85924  34.640   2.502   3.650
20940W        W85925  15.316  35.598  10.776
20941W        W85926  34.028   8.882   1.905
20942W        W85927  11.804  20.101   4.750
20943W        W85928  15.240  25.014   4.183
20944W        W85929   3.799  10.209  14.347
20945W        W85930   6.245  11.970  10.282
20946W        W85931  27.623  43.056   3.606
20947W        W85932  30.052   7.025  11.440
20948W        W85933  14.982  24.038  14.874
20949W        W85934  41.599  28.632  14.448
20950W        W85935   4.515  23.700   3.976
20951W        W85936  21.246  20.246  10.948
20952W        W85937   1.349  21.120  11.230
20953W        W85938  35.998  24.601  14.347
20954W        W85939  17.272  17.364   3.806
20955W        W85940  40.032  40.493   2.879
20956W        W85941  22.196  44.557   3.640
20957W        W85942   9.124  25.120  11.195
20958W        W85943   1.234  23.042  14.372
20959W        W85944  26.023  12.377   0.511
20960W        W85945   1.516  27.081  13.043
20961W        W85946  32.192  12.694  12.001
20962W        W85947  23.582  33.956  11.676
20963W        W85948  10.094  14.806  12.008
20964W        W85949  18.723  28.527  14.273
20965W        W85950  29.573  20.614   3.480
20966W        W85951  20.202  15.215  14.821
20967W        W85952  20.026   4.112  14.116
20968W        W85953   5.723  34.477   0.431
20969W        W85954   3.505  30.544   3.362
20970W        W85955  10.459  42.030   2.182
20971W        W85956  44.009  27.282  11.815
20972W        W85957   2.782  35.367  14.428
20973W        W85958  35.067  22.589   5.066
20974W        W85959  42.529  18.452  12.892
20975W        W85960   2.889  11.302   1.202
20976W        W85961  33.353  44.535  12.998
20977W        W85962  33.552  22.599   2.207
20978W        W85963   6.272  40.930  13.798
20979W        W85964  31.142  24.007  12.627
20980W        W85965  18.495  17.991  11.238
20981W        W85966  28.079  33.382   4.156
20982W        W85967  32.275  44.497  12.886
20983W        W85968  17.043  32.623  13.806
20984W        W85969  13.870  14.211  11.551
20985W        W85970   0.878   9.372  10.996
20986W        W85971  39.046  25.295  12.124
20987W        W85972  28.725   4.812   4.326
20988W        W85973  14.341   9.182  14.663
20989W        W85974  29.072  12.845   2.598
20990W        W85975  17.215  16.611  12.377
20991W        W85976  33.876  32.534  11.019
20992W        W85977  22.601  38.334  12.122
20993W        W85978  16.815  11.493  11.023
20994W        W85979  32.246  17.617  14.816
20995W        W85980  28.991  26.625   0.349
20996W        W85981  40.266  33.944   4.388
20997W        W85982  38.486  15.799   1.198
20998W        W85983  44.994  37.363   0.821
20999W        W85984  28.628  24.029   1.603
21000W        W85985   1.471  13.273  14.864
21001W        W85986  10.143  19.688   4.055
21002W        W85987  28.029   2.499  12.104
21003W        W85988   1.562  11.246   3.098
21004W        W85989  14.339  41.484   0.813
21005W        W85990  42.606  10.779  11.523
21006W        W85991  15.603  44.219  12.358
21007W        W85992   8.726  37.515   0.829
21008W        W85993  34.246  25.256  11.988
21009W        W85994  44.687   1.538  14.950
21010W        W85995  40.928  24.406   5.351
21011W        W85996  39.621  31.872  14.859
21012W        W85997  12.791  16.827   3.884
21013W        W85998  29.694  43.404  11.179
21014W        W85999   3.287  40.086   0.214
21015W        W86000   4.677  35.912   4.674
21016W        W86001   4.849  20.635  12.958
21017W        W86002  21.657  32.741  14.971
21018W        W86003  15.588   5.846   0.931
21019W        W86004  35.017  41.807   1.132
21020W        W86005  21.331   9.687  12.527
21021W        W86006   4.856   5.934  12.292
21022W        W86007   8.847   6.176  14.024
21023W        W86008  28.625  32.165  10.987
21024W        W86009  11.225   3.139  11.117
21025W        W86010  29.281   2.790   4.525
21026W        W86011  18.139  26.733  14.879
21027W        W86012  26.709  25.009  12.012
21028W        W86013  29.955   7.168   3.378
21029W        W86014   3.255  15.231   1.401
21030W        W86015   6.108  20.752   4.281
21031W        W86016  16.680  41.947  10.698
21032W        W86017  32.531  39.537   1.234
21033W        W86018  34.164  16.702  14.334
21034W        W86019  19.853  39.184   2.695
21035W        W86020   2.479  25.093   2.904
21036W        W86021  17.736  31.980  13.577
21037W        W86022   3.299  15.859   2.239
21038W        W86023  16.196  19.687  14.357
21039W        W86024  39.498  29.556   4.296
21040W        W86025  17.631  17.575   3.069
21041W        W86026  34.214  18.379   4.307
21042W        W86027  28.506   7.785   4.182
21043W        W86028  28.520   1.191   0.848
21044W        W86029  11.053  40.917  14.271
21045W        W86030  20.631  34.103   3.951
21046W        W86031  33.313  33.931  12.242
21047W        W86032  24.710  18.665  10.602
21048W        W86033  35.178  19.270  14.920
21049W        W86034  21.182   1.586   4.138
21050W        W86035   6.141  30.621   4.750
21051W        W86036  20.563  28.637   4.018
21052W        W86037   8.132  15.180   4.686
21053W        W86038  20.199  24.607  14.028
21054W        W86039  20.087  44.818   4.616
21055W        W86040  34.471  16.282   1.460
21056W        W86041  28.166  15.647   1.554
21057W        W86042   5.307  12.601   3.832
21058W        W86043  14.325  13.787   3.233
21059W        W86044  31.707  30.008  11.231
21060W        W86045  26.604   8.845   2.221
21061W        W86046   8.958  22.703   5.048
21062W        W86047  12.359  42.474  11.206
21063W        W86048   7.179  19.685   1.100
21064W        W86049   1.522  41.874  13.589
21065W        W86050   0.523  43.499   3.332
21066W        W86051  17.696  33.188  14.423
21067W        W86052  43.950  42.375   2.151
21068W        W86053  32.990   6.447  14.905
21069W        W86054  31.368  20.308  14.828
21070W        W86055  40.005  14.050  13.472
21071W        W86056   5.180   0.779  10.813
21072W        W86057  34.186  10.210  12.952
21073W        W86058  44.199  34.587   4.135
21074W        W86059  34.271  15.163   3.432
21075W        W86060   0.365  30.864   1.579
21076W        W86061  31.456  23.207  13.418
21077W        W86062   9.874  16.781  14.010
21078W        W86063  38.766  10.454   1.436
21079W        W86064  35.443  28.256   0.635
21080W        W86065  36.316  17.054  13.170
21081W        W86066  42.319  27.592   3.135
21082W        W86067  43.422  23.050   3.175
21083W        W86068  31.015  11.426   1.235
21084W        W86069  34.641  31.564  11.647
21085W        W86070  20.689  33.449  10.592
21086W        W86071  27.890  18.180  12.408
21087W        W86072  11.717   8.084   1.358
21088W        W86073  14.797  14.686  12.540
21089W        W86074  34.971  38.388  12.045
21090W        W86075  38.411   0.919   3.114
21091W        W86076   4.021  44.223  13.604
21092W        W86077   9.360  43.799   3.368
21093W        W86078  34.009  19.951   2.835
21094W        W86079  43.485  27.027   2.912
21095W        W86080   7.696  40.999   3.813
21096W        W86081  16.594   3.339  13.959
21097W        W86082   9.859  31.675  13.460
21098W        W86083   8.431  38.332   0.408
21099W        W86084  15.205   2.200   3.360
21100W        W86085  15.557   5.319   2.775
21101W        W86086  43.439  35.453   3.864
21102W        W86087  35.603  16.182  14.937
21103W        W86088  44.438  38.127  14.884
21104W        W86089  32.284  33.788  11.607
21105W        W86090   1.064  35.832   4.557
21106W        W86091  35.777  12.004   9.967
21107W        W86092  26.019  16.362  10.687
21108W        W86093  44.780  43.293  12.346
21109W        W86094  32.692  32.651   2.248
21110W        W86095  27.561  16.755   3.570
21111W        W86096  31.100  44.309   1.819
21112W        W86097  25.491  29.140   0.117
21113W        W86098  15.835   1.957  10.675
21114W        W86099  15.105  41.597   0.387
21115W        W86100  17.213  37.166   4.141
21116W        W86101  36.332  19.471   1.661
21117W        W86102   4.419  15.280   1.732
21118W        W86103  14.783  35.481  12.912
21119W        W86104  14.329  28.108   2.318
21120W        W86105   4.787  24.528  13.048
21121W        W86106  29.165  33.541   0.136
21122W        W86107   7.924   0.712  11.173
21123W        W86108  29.393   4.704   1.787
21124W        W86109  12.520  42.485  12.069
21125W        W86110  30.927  22.809  14.345
21126W        W86111  22.161  41.423   3.770
21127W        W86112  20.463  27.180  10.608
21128W        W86113  14.309  39.467  14.503
21129W        W86114  14.370  42.982   2.015
21130W        W86115   8.240  35.885   1.704
21131W        W86116  30.608  31.175  12.363
21132W        W86117  22.613   3.165   3.110
21133W        W86118  40.755   2.257  10.491
21134W        W86119  16.703  33.600   1.224
21135W        W86120   7.674  24.714   1.442
21136W        W86121  22.325  11.226  13.592
21137W        W86122  44.007  44.173  11.981
21138W        W86123  12.092  38.278   0.861
21139W        W86124   3.802   5.871   2.067
21140W        W86125  21.168  27.886  11.660
21141W        W86126   1.355  36.876  12.444
21142W        W86127  23.598  43.057   2.638
21143W        W86128  40.296  28.735  11.178
21144W        W86129  16.798   8.326  12.562
21145W        W86130   3.779  38.369  11.775
21146W        W86131  44.303   4.729  14.586
21147W        W86132   6.442  38.363  13.652
21148W        W86133   4.840   4.890   0.970
21149W        W86134  19.627  31.678   0.411
21150W        W86135  33.667  18.617   0.690
21151W        W86136  26.547   2.256  14.808
21152W        W86137  14.758  44.414   2.910
21153W        W86138   4.739   4.394   4.894
21154W        W86139  26.414  26.903   4.096
21155W        W86140  24.824   8.922   3.918
21156W        W86141  21.131  23.452  14.908
21157W        W86142   6.213  11.637   1.428
21158W        W86143  34.927  41.674   0.640
21159W        W86144   2.779   9.398  14.835
21160W        W86145  35.114  32.250  10.303
21161W        W86146  38.431  18.574  13.295
21162W        W86147  24.609  37.052   4.641
21163W        W86148  33.934   4.529  14.867
21164W        W86149  18.073  29.223   2.838
21165W        W86150  19.783   7.613   0.750
21166W        W86151   4.169  35.322  14.461
21167W        W86152  22.449  25.921  11.124
21168W        W86153   5.001  40.463  14.961
21169W        W86154  35.989  12.139   0.533
21170W        W86155  30.522  23.068  14.553
21171W        W86156  21.796  19.649  14.395
21172W        W86157  31.999  18.872  13.784
21173W        W86158  41.793  17.339   0.245
21174W        W86159  22.460   8.174  14.831
21175W        W86160  31.548  29.893   4.643
21176W        W86161  38.360  19.537  12.468
21177W        W86162  35.047  43.042  10.246
21178W        W86163  20.125  22.002  14.420
21179W        W86164   1.406  33.584   4.549
21180W        W86165  27.956  30.806   1.705
21181W        W86166  40.808  13.487   2.943
21182W        W86167  43.668  12.843   3.171
21183W        W86168  25.975  13.295  12.593
21184W        W86169   9.707  44.317  11.596
21185W        W86170  28.679  11.369  14.394
21186W        W86171  25.656  32.964  12.116
21187W        W86172  26.071  40.121   1.375
21188W        W86173  21.312  42.036   2.872
21189W        W86174  20.306   5.492   5.129
21190W        W86175  18.286  10.639   1.319
21191W        W86176  40.384  32.397   9.885
21192W        W86177   9.349   9.142   3.609
21193W        W86178  32.646   8.813   2.178
21194W        W86179  43.244  16.312   2.833
21195W        W86180  22.566  27.199  11.910
21196W        W86181  16.521  34.031   0.776
21197W        W86182  30.145  33.605  11.468
21198W        W86183  31.556   4.403   0.558
21199W        W86184   9.270   2.826  12.942
21200W        W86185   5.265  44.535   2.714
21201W        W86186  24.753   3.383   2.629
21202W        W86187  44.519  42.630  10.904
21203W        W86188  36.901  20.612  13.501
21204W        W86189  32.360  34.680  10.676
21205W        W86190  22.322  17.601  10.688
21206W        W86191  13.211  27.034   1.244
21207W        W86192   2.920  43.862   2.803
21208W        W86193  28.551  12.553   2.793
21209W        W86194  31.074  42.824  11.235
21210W        W86195  28.543  40.314  11.916
21211W        W86196   3.566  13.723   1.372
21212W        W86197  21.612  43.789   1.963
21213W        W86198   7.464  17.202  12.229
21214W        W86199  36.548  40.945   4.920
21215W        W86200  33.811  28.090   1.724
21216W        W86201  21.603  28.656  10.475
21217W        W86202   4.356  38.575  14.503
21218W        W86203   8.408  42.613  14.730
21219W        W86204   6.194  13.663   1.775
21220W        W86205  27.447   0.587  11.177
21221W        W86206  26.062  14.883   1.760
21222W        W86207   1.733  36.522   0.560
21223W        W86208   9.424  26.209  13.628
21224W        W86209  17.141  44.926  14.864
21225W        W86210  33.015   4.268  12.018
21226W        W86211  36.276  13.085  13.052
21227W        W86212  24.809  29.986  13.812
21228W        W86213  41.256  25.004   2.145
21229W        W86214  25.125  15.606  11.491
21230W        W86215   6.116  25.488   0.333
21231W        W86216  19.639  12.732  13.153
21232W        W86217  40.006   8.263   3.982
21233W        W86218  44.601   1.190   3.751
21234W        W86219  43.987  39.416  12.981
21235W        W86220   9.583   1.663   3.618
21236W        W86221  17.079  15.869  11.024
21237W        W86222   3.191  28.658   2.072
21238W        W86223  19.572  35.084  14.998
21239W        W86224   7.361   0.811   1.382
21240W        W86225  42.355  34.244  12.080
21241W        W86226  33.957  20.039  13.073
21242W        W86227  38.200   3.304  11.085
21243W        W86228   2.346   8.293  12.863
21244W        W86229  18.005  15.186  12.871
21245W        W86230  14.432  25.663  12.554
21246W        W86231  31.339  34.488  10.644
21247W        W86232  29.005  25.286  12.619
21248W        W86233   9.850   1.711   0.274
21249W        W86234  15.773  26.445  13.503
21250W        W86235  37.331  19.042   1.798
21251W        W86236  10.368   5.831  13.880
21252W        W86237   2.985  41.468  13.887
21253W        W86238  29.636  13.493   0.314
21254W        W86239  22.631  40.594  12.915
21255W        W86240  15.339  36.845   1.348
21256W        W86241  30.602  15.530  10.643
21257W        W86242   4.031  37.305  14.365
21258W        W86243  36.604  18.046   5.125
21259W        W86244  30.234   3.140  11.149
21260W        W86245  28.561  35.516  10.702
21261W        W86246  15.554  10.096   3.072
21262W        W86247  25.956   2.722   2.389
21263W        W86248  24.249  14.217   0.934
21264W        W86249  11.126   0.347   4.568
21265W        W86250  14.848  12.765  13.451
21266W        W86251  33.546   7.612  14.760
21267W        W86252  38.290  42.280  14.956
21268W        W86253  33.969  43.248   3.326
21269W        W86254   5.770  35.000  12.744
21270W        W86255  25.755   6.338  11.983
21271W        W86256  11.598  26.145   0.715
21272W        W86257  40.954   5.648  12.013
21273W        W86258  19.506  40.794   0.520
21274W        W86259  19.359  14.263   2.802
21275W        W86260  19.703  42.770   3.638
21276W        W86261  25.740  13.384   0.387
21277W        W86262   0.202  40.462   3.891
21278W        W86263  40.471   9.310   3.800
21279W        W86264  15.112  24.724   2.299
21280W        W86265  14.916   7.697  12.062
21281W        W86266  43.581   2.913   0.766
21282W        W86267  14.212  27.421  13.414
21283W        W86268  44.578  36.862  13.333
21284W        W86269  29.283  43.646  12.191
21285W        W86270  22.607  35.280   5.322
21286W        W86271  30.903  39.399  12.998
21287W        W86272   3.384  19.715  10.578
21288W        W86273   1.379  40.874  12.563
21289W        W86274   8.988  32.127   2.296
21290W        W86275   0.923  10.915   3.872
21291W        W86276  33.873  24.621   4.214
21292W        W86277   1.996   2.783  13.429
21293W        W86278  26.240   6.153   2.447
21294W        W86279   0.428  23.868  11.533
21295W        W86280  44.232  31.411   4.081
21296W        W86281  14.831  44.241  14.619
21297W        W86282   4.669  14.273  14.754
21298W        W86283  40.408  22.487  13.547
21299W        W86284   1.511  29.262  11.235
21300W        W86285   7.175   8.274   3.204
21301W        W86286  12.832   0.498  12.908
21302W        W86287  37.066   7.867  14.905
21303W        W86288  14.957   4.272   0.299
21304W        W86289  12.631  17.149  14.805
21305W        W86290  26.433  31.673  13.475
21306W        W86291  14.168   2.402  10.688
21307W        W86292  35.178  38.827  11.892
21308W        W86293  26.313  37.007   2.158
21309W        W86294  29.922   4.695   1.781
21310W        W86295   8.938  23.044  11.882
21311W        W86296   5.835   8.225   0.231
21312W        W86297  19.529  22.297  11.823
21313W        W86298  40.066  28.512  13.091
21314W        W86299  14.791  28.638  13.971
21315W        W86300   7.749  35.842   3.232
21316W        W86301  44.773   4.363  10.549
21317W        W86302  15.800   7.031   2.526
21318W        W86303  15.276  43.448   2.701
21319W        W86304  18.534  42.926  12.984
21320W        W86305   1.818  23.734   2.784
21321W        W86306  29.409  33.203   3.746
21322W        W86307  29.027   6.335  10.622
21323W        W86308  40.567   0.952  10.312
21324W        W86309  23.599  19.696   3.200
21325W        W86310  25.617  42.551   0.978
21326W        W86311  34.810   5.922  14.512
21327W        W86312   2.481  43.042   2.485
21328W        W86313   8.239   8.841  10.720
21329W        W86314  40.542  19.746  13.764
21330W        W86315  25.615  31.582  13.220
21331W        W86316   7.736  10.329  11.674
21332W        W86317   2.787  22.226  11.198
21333W        W86318  42.389  27.542   1.302
21334W        W86319  29.438  11.175  13.514
21335W        W86320  31.342   8.434   5.418
21336W        W86321   6.706  10.905  11.123
21337W        W86322   2.683  17.842   0.820
21338W        W86323  27.340  33.992   1.772
21339W        W86324  44.920  13.096   1.731
21340W        W86325  18.350  16.184  13.823
21341W        W86326  19.039   4.280  11.890
21342W        W86327  10.166  11.821  13.346
21343W        W86328  19.337   7.756  13.416
21344W        W86329  23.698   3.306  12.494
21345W        W86330  42.444  14.285  14.102
21346W        W86331  38.251  22.766   3.556
21347W        W86332  37.034  16.630  13.710
21348W        W86333   9.073   6.803   2.375
21349W        W86334  26.431  40.497   1.430
21350W        W86335  38.821  17.977  14.361
21351W        W86336  42.568  42.384  11.918
21352W        W86337  35.120  12.354  13.615
21353W        W86338   6.726  31.884  10.734
21354W        W86339   1.969   7.381   1.131
21355W        W86340  10.285  32.444  10.652
21356W        W86341  31.213  20.130  11.053
21357W        W86342  31.664  17.185  14.431
21358W        W86343  32.386  25.759  12.400
21359W        W86344   1.855  11.265  13.154
21360W        W86345  34.411  27.167  10.637
21361W        W86346  23.976  42.194   4.026
21362W        W86347  14.209   9.894   1.806
21363W        W86348   1.683   4.256   1.924
21364W        W86349  41.674   5.821  13.468
21365W        W86350  14.103  29.035  14.488
21366W        W86351  21.410   0.580   4.186
21367W        W86352  38.938  27.526  10.891
21368W        W86353   4.550  11.972   3.047
21369W        W86354   4.351  18.032  14.802
21370W        W86355  41.119  38.373  14.369
21371W        W86356   0.797  40.086  11.223
21372W        W86357  15.804  39.365  12.008
21373W        W86358  24.196  26.965   2.593
21374W        W86359  28.167  32.037   1.022
21375W        W86360  25.706  26.717  14.312
21376W        W86361  14.075  28.966   4.851
21377W        W86362  25.319  34.528  13.261
21378W        W86363  36.355  38.473  13.981
21379W        W86364  42.242   2.371  10.813
21380W        W86365  14.674   2.967   3.680
21381W        W86366  25.057  38.389   0.138
21382W        W86367   3.722  39.419  10.427
21383W        W86368  42.364  13.437  14.696
21384W        W86369  44.914   1.231  10.693
21385W        W86370  24.981  43.804  14.942
21386W        W86371   7.463  17.596  11.893
21387W        W86372  33.430  28.523   1.648
21388W        W86373  29.145   0.205   2.851
21389W        W86374   3.445   5.648  13.953
21390W        W86375  12.528   1.512  11.155
21391W        W86376  42.755  43.286   2.574
21392W        W86377  40.699  12.610  12.180
21393W        W86378  17.808  28.884   0.237
21394W        W86379  16.589   9.139  14.324
21395W        W86380  32.542  15.564  14.763
21396W        W86381  22.774  18.222   4.326
21397W        W86382  21.808  29.071   1.742
21398W        W86383   7.084  32.023   3.204
21399W        W86384  34.503   7.077   3.114
21400W        W86385  35.555  19.232  11.678
21401W        W86386  15.020   5.205   1.862
21402W        W86387  15.562   2.397  14.274
21403W        W86388  10.235  42.497   3.767
21404W        W86389  31.801   2.801  14.553
21405W        W86390  27.065  40.374  14.500
21406W        W86391  20.456   7.726   0.247
21407W        W86392  14.316  32.771  13.565
21408W        W86393  18.333  16.611   0.117
21409W        W86394  23.161  17.895  11.948
21410W        W86395  11.650  10.286   0.435
21411W        W86396  25.421  12.290  14.180
21412W        W86397  26.999   2.636  12.921
21413W        W86398  32.198   5.323  11.896
21414W        W86399  31.414  32.321  11.997
21415W        W86400  26.474  33.101   1.748
21416W        W86401  34.039  13.814   0.698
21417W        W86402   1.864  36.935  12.293
21418W        W86403  15.180   2.007   1.793
21419W        W86404   6.624  21.085  10.735
21420W        W86405  27.752  34.167   3.703
21421W        W86406   8.614  38.382  12.496
21422W        W86407  18.395  22.200   3.811
21423W        W86408  25.592  39.189  14.042
21424W        W86409  20.982  44.901   2.786
21425W        W86410  42.520   9.703   2.218
21426W        W86411  36.891  37.495   3.141
21427W        W86412  43.974   1.782  14.722
21428W        W86413  34.088   7.689  12.071
21429W        W86414   2.231   9.986  12.438
21430W        W86415   4.909   8.190  14.522
21431W        W86416  15.805  37.470  11.669
21432W        W86417  29.418  44.777   2.714
21433W        W86418  22.505   7.209  10.776
21434W        W86419  13.106  43.099  10.431
21435W        W86420  41.840   9.828  10.769
21436W        W86421  21.485  31.692  12.758
21437W        W86422  30.690   5.252  13.232
21438W        W86423  32.072   9.654   3.242
21439W        W86424   5.097  42.906   5.121
21440W        W86425  34.371  13.925  13.834
21441W        W86426   1.896  22.559  14.727
21442W        W86427  26.097  14.361   0.257
21443W        W86428  24.030  38.367   4.007
21444W        W86429  27.970  23.903  11.159
21445W        W86430  15.658  10.256  14.280
21446W        W86431  38.084  23.280   1.841
21447W        W86432   6.223  39.616   3.849
21448W        W86433  25.898  35.755  12.211
21449W        W86434  15.778  33.845  10.942
21450W        W86435   1.468  42.337  11.304
21451W        W86436  37.696  11.672   5.014
21452W        W86437  29.825  10.198  11.894
21453W        W86438  27.732  19.895   0.978
21454W        W86439  11.862  31.185  13.614
21455W        W86440   4.640  10.955   4.989
21456W        W86441   4.988  42.429   3.424
21457W        W86442  29.268  44.251  11.679
21458W        W86443  43.366  12.854   2.745
21459W        W86444  42.436  40.090   3.328
21460W        W86445   8.832  32.050   3.699
21461W        W86446  13.466  34.073   1.627
21462W        W86447  41.497  10.688   3.619
21463W        W86448   1.031  25.716   4.160
21464W        W86449  41.919  12.675  12.958
21465W        W86450  44.420   1.838  13.936
21466W        W86451  12.329  37.957  12.684
21467W        W86452  24.683  13.049   0.281
21468W        W86453  30.078  14.783   4.741
21469W        W86454  22.962  13.763  10.846
21470W        W86455  41.115  37.122  12.463
21471W        W86456  13.879  36.634   3.507
21472W        W86457  24.094   2.247  11.087
21473W        W86458   5.319  14.620   4.628
21474W        W86459   4.435   8.934  11.566
21475W        W86460   2.385   8.900   2.148
21476W        W86461   1.420  15.628  13.349
21477W        W86462   0.216  13.924  11.319
21478W        W86463   9.739  37.776   2.075
21479W        W86464  26.554  13.379   4.112
21480W        W86465   1.441   5.723   3.558
21481W        W86466  23.485  24.408   0.399
21482W        W86467  41.771   6.356   0.967
21483W        W86468  30.489  38.352   2.252
21484W        W86469   1.166  35.157   0.738
21485W        W86470   1.496  17.850   2.595
21486W        W86471  29.585  42.846  12.953
21487W        W86472  19.169   3.071  14.064
21488W        W86473  36.361   0.871  14.521
21489W        W86474  16.663  43.451   3.679
21490W        W86475   1.736  28.551  13.453
21491W        W86476   2.779  15.638   2.242
21492W        W86477  35.448  21.767   4.160
21493W        W86478  44.934  17.835   4.526
21494W        W86479   4.744  34.337   3.289
21495W        W86480  10.836  19.809   2.797
21496W        W86481  28.447   6.760   4.632
21497W        W86482   7.204  27.292  11.285
21498W        W86483  43.463  43.062  13.918
21499W        W86484  10.318   8.761   4.528
21500W        W86485  40.291  14.852  12.640
21501W        W86486  21.979  13.805  12.931
21502W        W86487  13.129  18.399  11.008
21503W        W86488  18.989   8.725   0.353
21504W        W86489  31.697   6.195  13.085
21505W        W86490  25.890  26.690  13.372
21506W        W86491   7.806  22.223  10.669
21507W        W86492  27.953  16.502   0.464
21508W        W86493  23.685  19.163  11.380
21509W        W86494   0.606  15.154  11.474
21510W        W86495  31.854  14.374   0.920
21511W        W86496  23.938  42.028  12.042
21512W        W86497   4.185  20.418  11.978
21513W        W86498  28.524  28.932   2.841
21514W        W86499  22.264  14.778   3.761
21515W        W86500  29.159  31.220   5.311
21516W        W86501  15.735  18.780   3.626
21517W        W86502   3.406  14.178   2.945
21518W        W86503  31.488  15.753  14.891
21519W        W86504  44.304  24.111   0.631
21520W        W86505   5.651  12.220  13.003
21521W        W86506  10.358  13.394   1.791
21522W        W86507  20.761  21.615   4.874
21523W        W86508  41.273  42.469  12.536
21524W        W86509  17.304  36.084   1.438
21525W        W86510  16.100  17.977   3.874
21526W        W86511  17.306  20.214   4.118
21527W        W86512  13.940  37.963  14.823
21528W        W86513  30.467   1.213  14.742
21529W        W86514  44.355  35.965  14.131
21530W        W86515   1.661  37.118   4.346
21531W        W86516   2.509  40.982  11.887
21532W        W86517  41.272  14.902   1.997
21533W        W86518  20.794  20.002   2.848
21534W        W86519  43.110  26.655   2.764
21535W        W86520  41.156  33.004  12.585
21536W        W86521  29.409  32.461   3.201
21537W        W86522  24.450  35.150   3.657
21538W        W86523   6.715  12.303  14.920
21539W        W86524  23.750  20.654   4.635
21540W        W86525  11.652  39.799   2.757
21541W        W86526   4.407  19.317  14.492
21542W        W86527  35.964  35.262   0.303
21543W        W86528   5.250   1.906   3.081
21544W        W86529  35.438   6.050   4.548
21545W        W86530  31.987  39.951  12.096
21546W        W86531  28.293  40.543   3.853
21547W        W86532   7.349  42.291  12.593
21548W        W86533   9.592   8.973  11.494
21549W        W86534  11.691  24.282  14.382
21550W        W86535   6.724   5.445  14.400
21551W        W86536  38.745  35.685   2.359
21552W        W86537  23.979  18.974  10.597
21553W        W86538  13.924   1.881   2.952
21554W        W86539  30.623   1.225  10.715
21555W        W86540  17.181  29.488   1.767
21556W        W86541  41.838  21.324  13.349
21557W        W86542  26.650  19.972  12.620
21558W        W86543  29.449  26.882   0.408
21559W        W86544   3.779  32.918   3.464
21560W        W86545  28.498   7.824  11.223
21561W        W86546  12.719  19.684  12.159
21562W        W86547  38.528  29.150   1.905
21563W        W86548  16.931  25.843  11.032
21564W        W86549   6.129  15.345   3.723
21565W        W86550  39.124  18.698   1.927
21566W        W86551  11.347  25.031  10.632
21567W        W86552  37.458  42.029   1.019
21568W        W86553  33.478  24.069   2.853
21569W        W86554  17.517  31.927   4.262
21570W        W86555  21.249  30.595   2.745
21571W        W86556   3.770  23.283  11.986
21572W        W86557  38.552  35.012   4.166
21573W        W86558  10.582  21.649  12.112
21574W        W86559   6.411  29.377  12.985
21575W        W86560   0.876   1.255  14.998
21576W        W86561  33.419  44.567  13.515
21577W        W86562   8.245  16.978  13.988
21578W        W86563  43.759  14.057  14.366
21579W        W86564  10.546   3.326   1.216
21580W        W86565   1.014  19.110   4.172
21581W        W86566  36.848  25.695  11.558
21582W        W86567  22.987   1.802  10.740
21583W        W86568  13.097   5.484   3.234
21584W        W86569  27.966  26.747   3.233
21585W        W86570  15.531  36.109   2.313
21586W        W86571  24.035   7.164  11.433
21587W        W86572  12.682   0.424   1.893
21588W        W86573   0.037  42.285   1.901
21589W        W86574   4.593  10.770   4.038
21590W        W86575   5.724  34.443  13.468
21591W        W86576  36.789  21.356   4.041
21592W        W86577   5.358  33.514  11.376
21593W        W86578  19.636  17.324  13.641
21594W        W86579  37.398   4.943   0.034
21595W        W86580   3.694  24.458   1.395
21596W        W86581  37.489  17.539  10.389
21597W        W86582  20.292  14.271   1.814
21598W        W86583  19.364  40.629  14.392
21599W        W86584  43.467  33.960  12.536
21600W        W86585  19.288   1.684   3.534
21601W        W86586  38.875  25.562   3.641
21602W        W86587  18.011   2.649  12.378
21603W        W86588  19.038  13.638   3.631
21604W        W86589  27.131   5.855   3.146
21605W        W86590  35.298   0.424   3.810
21606W        W86591  29.609  18.761   1.891
21607W        W86592  40.066  41.102  14.039
21608W        W86593   3.576  10.166  11.476
21609W        W86594  25.745  30.007   0.818
21610W        W86595   8.797  31.459  11.496
21611W        W86596  12.201  17.997   2.756
21612W        W86597  17.373   2.010  11.890
21613W        W86598  21.075  39.324   3.063
21614W        W86599  42.767  43.526   0.425
21615W        W86600   6.714  30.975   1.826
21616W        W86601  12.836   3.270   3.279
21617W        W86602  25.540  16.557  12.976
21618W        W86603  38.091  20.585  13.021
21619W        W86604  39.740  16.014   4.103
21620W        W86605  35.108  23.805   4.985
21621W        W86606  22.912  15.338   0.255
21622W        W86607  29.747  18.270   1.692
21623W        W86608  39.457  43.087  12.159
21624W        W86609   1.731  24.948   3.157
21625W        W86610  25.203  42.107  13.105
21626W        W86611  44.002  27.966  14.414
21627W        W86612   3.267  44.238  12.854
21628W        W86613  42.848   2.652   3.768
21629W        W86614  12.730  30.000  13.813
21630W        W86615  25.967  15.259   1.375
21631W        W86616  13.615  25.140   1.961
21632W        W86617  44.250   9.781  14.488
21633W        W86618   2.286  30.865  14.716
21634W        W86619  33.148  21.581   0.402
21635W        W86620  32.620   7.635   1.655
21636W        W86621  13.529  15.095   0.699
21637W        W86622   0.685  43.340  10.889
21638W        W86623  20.741  26.215  10.483
21639W        W86624  39.951  39.262   3.753
21640W        W86625  23.948  43.491  13.898
21641W        W86626  38.513  14.203   3.873
21642W        W86627  11.591   7.442  13.920
21643W        W86628  17.300  21.761   2.241
21644W        W86629   0.932  19.654   3.320
21645W        W86630  44.860   2.912  11.118
21646W        W86631  33.677   1.258  14.522
21647W        W86632  41.016  20.159  12.184
21648W        W86633  42.095  13.614   4.158
21649W        W86634  36.680  33.141   0.674
21650W        W86635  16.301  17.250   1.887
21651W        W86636  13.067   6.182   2.446
21652W        W86637  21.702  37.881   1.728
21653W        W86638   6.922   7.214  10.742
21654W        W86639  36.130  17.517  10.674
21655W        W86640  26.639  30.216   0.869
21656W        W86641   2.409  12.942  11.726
21657W        W86642   6.658  43.764  13.437
21658W        W86643  32.492  41.479   4.765
21659W        W86644   4.769  42.265   4.573
21660W        W86645  15.844  30.178  11.262
21661W        W86646  28.430  44.854   2.316
21662W        W86647  33.722  33.617  13.055
21663W        W86648  20.029   5.388  14.515
21664W        W86649  14.019  37.341  11.619
21665W        W86650  35.187  36.527  11.471
21666W        W86651   8.956  24.735  10.489
21667W        W86652  42.198  29.602  14.920
21668W        W86653  38.443  12.564  14.856
21669W        W86654   3.462   0.268   1.753
21670W        W86655  25.431  20.398  12.972
21671W        W86656  32.071  20.851  10.551
21672W        W86657   2.225   5.347   3.372
21673W        W86658  32.689  18.017   2.244
21674W        W86659  20.435   3.828   0.181
21675W        W86660  22.406  44.398   5.194
21676W        W86661  34.508   6.898   3.624
21677W        W86662   4.254   0.350   0.032
21678W        W86663  22.440  10.349   3.046
21679W        W86664  28.641  25.216   0.713
21680W        W86665  15.832  18.552   0.758
21681W        W86666  36.530  37.151   2.403
21682W        W86667  37.973   9.514   5.050
21683W        W86668  24.703  13.694   2.284
21684W        W86669  32.612   9.545  10.719
21685W        W86670   7.898  16.804   0.348
21686W        W86671  38.437  26.842  13.353
21687W        W86672  37.720  28.183  13.036
21688W        W86673   7.601  24.735   2.860
21689W        W86674  20.971  24.706   1.191
21690W        W86675  41.711  37.764  12.897
21691W        W86676  20.036   6.879  10.672
21692W        W86677  20.845  26.382  14.302
21693W        W86678   7.807  35.598   3.687
21694W        W86679  34.087  11.933   2.810
21695W        W86680  22.305  30.253   4.596
21696W        W86681   5.885   9.609   3.603
21697W        W86682  10.927   8.668   1.260
21698W        W86683  40.271  19.015   0.353
21699W        W86684  44.473  23.704  14.039
21700W        W86685  41.382  44.188  11.272
21701W        W86686   3.710  30.000  12.041
21702W        W86687  12.190  28.091   2.880
21703W        W86688  23.049  22.444   1.261
21704W        W86689  21.031  32.545  13.691
21705W        W86690  14.616  36.590   2.362
21706W        W86691  35.127  22.234  12.437
21707W        W86692  42.467  19.612  14.255
21708W        W86693  18.013  37.078   4.737
21709W        W86694  36.960  35.024  12.669
21710W        W86695  22.563  12.843  14.895
21711W        W86696  42.448  37.871   0.480
21712W        W86697  39.940  33.986   1.005
21713W        W86698  28.522  24.796  14.695
21714W        W86699  17.612  31.114   3.996
21715W        W86700  28.577  19.524   0.358
21716W        W86701  19.510  28.908   1.775
21717W        W86702  16.702  18.269   4.589
21718W        W86703  23.521  17.174   4.174
21719W        W86704   5.864  43.502   2.289
21720W        W86705  34.610  18.436  11.064
21721W        W86706  44.817  43.274   1.851
21722W        W86707   9.245  14.245   4.542
21723W        W86708  27.479  28.402   3.448
21724W        W86709   2.267  23.503   2.636
21725W        W86710  14.185  10.651  12.575
21726W        W86711  24.733  29.565   3.962
21727W        W86712   8.690  31.860   3.166
21728W        W86713  39.451  34.839   9.694
21729W        W86714  28.201  29.586   0.264
21730W        W86715  27.535   2.365   1.748
21731W        W86716  14.153  20.543  13.017
21732W        W86717  44.461   7.870  10.584
21733W        W86718  21.517  10.848  14.531
21734W        W86719  22.454   7.375  12.409
21735W        W86720   4.264  35.537   3.335
21736W        W86721  25.204   1.312  12.639
21737W        W86722  43.532   6.758   1.323
21738W        W86723   4.966  20.531   1.272
21739W        W86724  37.047  39.417  10.495
21740W        W86725  22.038  14.826  14.342
21741W        W86726  10.163   3.029   2.841
21742W        W86727  22.767  20.677  12.606
21743W        W86728  15.787  11.087   2.305
21744W        W86729   5.744   1.330  12.551
21745W        W86730  24.068  21.936  10.644
21746W        W86731   2.575   7.177  11.403
21747W        W86732  13.849  19.596  14.928
21748W        W86733  17.667   4.987   1.351
21749W        W86734  43.387  24.866   3.754
21750W        W86735  13.084  31.911   4.547
21751W        W86736  25.964  24.973  12.460
21752W        W86737  26.965   7.660   4.653
21753W        W86738  39.889  11.705   0.161
21754W        W86739  44.237  41.499  14.940
21755W        W86740   4.435   7.153   4.635
21756W        W86741  36.956   7.210   4.452
21757W        W86742  36.506  28.952  14.459
21758W        W86743  24.636  29.464  10.563
21759W        W86744  33.946   2.417   2.204
21760W        W86745   3.176  36.411   0.228
21761W        W86746  38.114  34.876   2.305
21762W        W86747   7.213  30.423  12.910
21763W        W86748   1.018   0.786   4.157
21764W        W86749   6.137  16.035   4.293
21765W        W86750   4.722  34.544   0.213
21766W        W86751  39.247  18.484   1.184
21767W        W86752  42.812   6.703  13.094
21768W        W86753  43.499  42.618   2.417
21769W        W86754   0.166  40.426  11.702
21770W        W86755  38.857  30.549  11.293
21771W        W86756  44.094  34.520   3.266
21772W        W86757  31.904  26.163   0.934
21773W        W86758   0.961   1.157   3.795
21774W        W86759  39.832  24.138   1.668
21775W        W86760   0.967  31.496   2.809
21776W        W86761  44.963  12.221  11.569
21777W        W86762  20.788  28.043   2.706
21778W        W86763  27.192  21.529   1.160
21779W        W86764  41.677   0.256  12.472
21780W        W86765   6.581  35.898  10.705
21781W        W86766   7.678   4.954   0.332
21782W        W86767  39.437  44.449   1.587
21783W        W86768   7.296  33.990  14.455
21784W        W86769   0.853  13.828   4.522
21785W        W86770  28.891  41.413  13.326
21786W        W86771  35.583  30.833  11.567
21787W        W86772  27.950  39.752   4.122
21788W        W86773  19.149   3.088  11.681
21789W        W86774  39.067  20.678   3.357
21790W        W86775  22.134   0.101   2.990
21791W        W86776  35.139  20.985   0.277
21792W        W86777  41.886  12.160  12.937
21793W        W86778  34.249  15.277  12.517
21794W        W86779  31.455  31.142  14.345
21795W        W86780  29.538  15.188   1.373
21796W        W86781   7.182  35.809  13.854
21797W        W86782  22.467  12.101   4.579
21798W        W86783   2.650  23.653   0.964
21799W        W86784  25.006  11.764  10.693
21800W        W86785   4.703  19.559  13.222
21801W        W86786  26.111  24.987  13.802
21802W        W86787  40.463  42.047  11.663
21803W        W86788  11.812   4.251  14.082
21804W        W86789  42.700  12.149  13.496
21805W        W86790  31.576  42.892   3.546
21806W        W86791  21.849  41.925   2.681
21807W        W86792  42.561  37.059   4.258
21808W        W86793  44.468   5.925  14.463
21809W        W86794   1.224  39.910   2.356
21810W        W86795  38.419   3.335   1.923
21811W        W86796   6.030  29.480  14.298
21812W        W86797   8.794   3.457  11.731
21813W        W86798  19.335  14.292   1.887
21814W        W86799  21.711   5.168  14.980
21815W        W86800   3.190  33.617  14.528
21816W        W86801  41.843  31.074   3.486
21817W        W86802  34.098  15.842   3.180
21818W        W86803  23.762   9.317  11.512
21819W        W86804  39.466  12.679   4.634
21820W        W86805   6.657  22.477  11.077
21821W        W86806   2.707  11.487  14.920
21822W        W86807  14.191  32.339   3.759
21823W        W86808  33.421  38.325  10.734
21824W        W86809  34.000  12.746  11.998
21825W        W86810   6.828  26.196  13.359
21826W        W86811  41.299  44.796   3.149
21827W        W86812  23.515  36.187   1.813
21828W        W86813  35.989   7.023   2.098
21829W        W86814  14.474  16.087  11.536
21830W        W86815   7.418   6.412   1.888
21831W        W86816  41.388   2.310   2.355
21832W        W86817   0.788  14.368  12.591
21833W        W86818  23.474   4.795  11.045
21834W        W86819  37.377   9.654   1.361
21835W        W86820   0.243  15.802   0.309
21836W        W86821  19.527  14.628  11.406
21837W        W86822  33.930  41.832   4.565
21838W        W86823  36.637  39.304  11.645
21839W        W86824  18.278  36.833  13.154
21840W        W86825   1.841   4.804  13.083
21841W        W86826   6.665   9.666   2.252
21842W        W86827  20.247  15.696   2.862
21843W        W86828  35.407  43.058  12.419
21844W        W86829  19.562   7.144   5.349
21845W        W86830  21.781  30.135   1.315
21846W        W86831  11.304  32.923  14.503
21847W        W86832   7.272  44.718  10.797
21848W        W86833  31.095  44.518   1.326
21849W        W86834  12.971  37.322  11.515
21850W        W86835  31.045  42.927   0.251
21851W        W86836  40.937  33.016   1.400
21852W        W86837  36.102  30.849   2.151
21853W        W86838  35.952   2.678   1.135
21854W        W86839  39.274   2.592   0.327
21855W        W86840  18.505  27.094   4.193
21856W        W86841  44.552  24.731  12.778
21857W        W86842  11.178   4.449  14.685
21858W        W86843   2.917  24.821  10.630
21859W        W86844  10.216   3.268   4.614
21860W        W86845  33.029  21.132  12.879
21861W        W86846  15.564  34.443   4.615
21862W        W86847  32.581   1.099   3.736
21863W        W86848  37.553   6.370   3.265
21864W        W86849  14.767   0.489   3.701
21865W        W86850   0.006  22.965   3.897
21866W        W86851  29.811  30.207   4.498
21867W        W86852   6.480   3.207   0.232
21868W        W86853  37.329   5.654  14.069
21869W        W86854  28.252  13.018   4.590
21870W        W86855  37.693  44.629  11.348
21871W        W86856   0.983   0.924   1.186
21872W        W86857  37.465  35.286  10.707
21873W        W86858  40.948  12.254   3.884
21874W        W86859  11.395  27.976  14.759
21875W        W86860  22.140  17.159  11.937
21876W        W86861  31.602  27.918   0.735
21877W        W86862   8.168  28.642  10.792
21878W        W86863  10.204  19.337  12.005
21879W        W86864  11.887   3.773  13.880
21880W        W86865   4.210  44.722  12.527
21881W        W86866  17.291  15.699  10.231
21882W        W86867  35.997   4.318   4.628
21883W        W86868  12.696  43.787   4.390
21884W        W86869  17.915   3.940   3.966
21885W        W86870  39.631  24.144  12.409
21886W        W86871   7.961  34.375  13.574
21887W        W86872   5.433  44.102   4.106
21888W        W86873  25.989  41.053   2.706
21889W        W86874  21.737   6.476   4.655
21890W        W86875  12.322  43.565   4.100
21891W        W86876  43.609  19.241  14.031
21892W        W86877  40.969  17.275  11.992
21893W        W86878  15.862  42.930  13.130
21894W        W86879   1.736   1.809  10.929
21895W        W86880   8.883   0.584   2.188
21896W        W86881  24.466  30.527   2.691
21897W        W86882  36.190  22.687   2.349
21898W        W86883  31.609  13.113   2.284
21899W        W86884  25.251   3.616  12.926
21900W        W86885  13.261  22.525  11.948
21901W        W86886  28.205  43.235   5.145
21902W        W86887  16.669  11.007  12.970
21903W        W86888  28.557  17.153  14.512
21904W        W86889  38.574  28.290   0.884
21905W        W86890   4.521  19.471  11.294
21906W        W86891   6.945  29.217   2.251
21907W        W86892   3.939  31.419   0.697
21908W        W86893   1.412  40.983  13.459
21909W        W86894  11.687   5.424  11.347
21910W        W86895  10.937   5.815  11.531
21911W        W86896  42.960  36.484  12.548
21912W        W86897  23.462  32.935   4.310
21913W        W86898  14.200   0.912   1.039
21914W        W86899  38.419  32.550   4.051
21915W        W86900  40.556  14.704   4.119
21916W        W86901  12.964  17.536  11.604
21917W        W86902  30.543  30.503  10.736
21918W        W86903   4.230   1.651  14.892
21919W        W86904  11.609   8.559   0.359
21920W        W86905  33.610  27.671   4.102
21921W        W86906  15.350  24.395  10.703
21922W        W86907  29.598   0.288   2.591
21923W        W86908   9.625  15.898   9.878
21924W        W86909  32.132  17.765   2.807
21925W        W86910   6.762  19.212   0.962
21926W        W86911  25.315   7.171   2.702
21927W        W86912   3.634  10.155  10.615
21928W        W86913  41.337  36.374   1.194
21929W        W86914  41.511   0.277   2.972
21930W        W86915  32.385  27.252  14.389
21931W        W86916  13.769  21.061   0.926
21932W        W86917   5.786  31.428  10.704
21933W        W86918  41.605  32.098  10.595
21934W        W86919  34.443   5.570   1.249
21935W        W86920   8.394  39.606   1.344
21936W        W86921  43.994  16.718   3.403
21937W        W86922   2.345  26.213  11.653
21938W        W86923  21.712  17.710   0.448
21939W        W86924  18.144  20.013  14.247
21940W        W86925  19.060   7.721  13.939
21941W        W86926  38.443  14.633   0.513
21942W        W86927  25.004   5.857  13.984
21943W        W86928  10.473   0.875  10.982
21944W        W86929  43.742  16.319  14.129
21945W        W86930  14.162   4.653   1.909
21946W        W86931  39.219  16.548  14.265
21947W        W86932  12.431  10.170   0.717
21948W        W86933  38.829  30.074   0.726
21949W        W86934  41.510  16.747  14.504
21950W        W86935  42.078   7.832   3.385
21951W        W86936  16.487  20.470   0.168
21952W        W86937  35.440  26.527   5.082
21953W        W86938  17.377  12.638  10.679
21954W        W86939  40.892  13.098   0.463
21955W        W86940  11.097   6.283   1.608
21956W        W86941  21.397  23.762  12.041
21957W        W86942  18.781  17.442   3.517
21958W        W86943   8.233   0.187   0.837
21959W        W86944  15.394  21.854   1.578
21960W        W86945  18.104  38.926   0.198
21961W        W86946  33.850  14.982  12.470
21962W        W86947  16.845   1.036   2.686
21963W        W86948  38.747  19.457   3.214
21964W        W86949  39.516   9.298   1.295
21965W        W86950  44.446  35.101  12.847
21966W        W86951  26.259  28.765   0.515
21967W        W86952  11.722  18.170   0.918
21968W        W86953   5.643  33.973  11.628
21969W        W86954  41.258  41.762   3.556
21970W        W86955  32.085  24.160  11.530
21971W        W86956   2.786   1.210  11.160
21972W        W86957  20.928  12.569  13.330
21973W        W86958  21.184   0.865   1.457
21974W        W86959  24.591   4.375   3.675
21975W        W86960  41.454  18.831  14.235
21976W        W86961   2.364  34.322  10.978
21977W        W86962   9.385   9.181   1.382
21978W        W86963  30.134   9.197  11.649
21979W        W86964  28.481  15.613  14.001
21980W        W86965  23.101  40.352  13.750
21981W        W86966   3.843  26.427  12.517
21982W        W86967  27.084  36.953  14.939
21983W        W86968   4.565  44.104  13.695
21984W        W86969  19.185  16.280   4.159
21985W        W86970  43.569  44.486  11.882
21986W        W86971  36.380  40.470   4.673
21987W        W86972  31.202  26.059   3.631
21988W        W86973  40.454  28.656  13.930
21989W        W86974   7.701  41.006   2.877
21990W        W86975  39.784  34.596   5.403
21991W        W86976  44.109  27.104  14.771
21992W        W86977  24.203  17.203   4.617
21993W        W86978  16.265  16.160  12.937
21994W        W86979  39.376  23.319   2.305
21995W        W86980  25.566  32.424   2.634
21996W        W86981   8.900   0.253   4.481
21997W        W86982  25.733   6.181   2.459
21998W        W86983  26.541  19.825  10.749
21999W        W86984  11.911  21.003   1.769
22000W        W86985   2.311   5.455  11.927
22001W        W86986  28.370  44.054   0.127
22002W        W86987  40.574  37.398   0.402
22003W        W86988  29.641  41.818  12.950
22004W        W86989  44.898   1.022  11.575
22005W        W86990  22.736   2.325  12.534
22006W        W86991   7.849  23.330  13.510
22007W        W86992  20.635  17.170   4.623
22008W        W86993   2.384  41.994  12.720
22009W        W86994  37.675  25.692  10.498
22010W        W86995  25.319  15.229  12.891
22011W        W86996  16.125  37.379  13.780
22012W        W86997  13.873  41.195   3.210
22013W        W86998  28.315   5.894  11.907
22014W        W86999  19.763  38.884   0.337
22015W        W87000  31.655  38.446  10.847
22016W        W87001  37.145  39.880  13.858
22017W        W87002   4.852  20.675  13.894
22018W        W87003   4.379  19.551  14.948
22019W        W87004  17.823  33.884   1.763
22020W        W87005  40.712  31.409   2.065
22021W        W87006  16.810   8.843   3.571
22022W        W87007  25.437   9.633   0.966
22023W        W87008  27.196   6.168   0.785
22024W        W87009  24.925   5.686   0.603
22025W        W87010   9.715   7.171  13.878
22026W        W87011  14.410  40.274   5.186
22027W        W87012  37.908  34.584  13.103
22028W        W87013  41.571  32.713   3.422
22029W        W87014   4.085  27.823  13.588
22030W        W87015   9.347  44.831  14.891
22031W        W87016  21.179   3.790  14.985
22032W        W87017  21.227  18.614   9.699
22033W        W87018  25.066  44.035   1.761
22034W        W87019  12.511  34.578   2.782
22035W        W87020  36.451  28.673  13.526
22036W        W87021  12.303  36.021  12.409
22037W        W87022  37.924  43.900  11.957
22038W        W87023  35.090  36.681  14.327
22039W        W87024   2.431  12.879  14.968
22040W        W87025   7.209  28.461   0.702
22041W        W87026  35.309  15.741   2.778
22042W        W87027  11.670  24.081   0.837
22043W        W87028   0.300  24.865  14.361
22044W        W87029  37.470  29.150   3.752
22045W        W87030  25.438  38.039  11.254
22046W        W87031  32.443   8.119   0.971
22047W        W87032  41.466  16.415   0.327
22048W        W87033  35.519  32.909  14.779
22049W        W87034   4.227  20.637  12.457
22050W        W87035  14.254   2.188   3.239
22051W        W87036  41.368  24.054  12.791
22052W        W87037  30.027  38.907   3.275
22053W        W87038   6.441  16.595  10.085
22054W        W87039  27.535   9.163   3.800
22055W        W87040  24.550  29.970   0.941
22056W        W87041  27.987  16.765   3.839
22057W        W87042  30.364  36.433  14.557
22058W        W87043  40.430   1.424   4.634
22059W        W87044  26.968  19.954  10.499
22060W        W87045   0.903  21.128  11.559
22061W        W87046   5.113  42.495  11.029
22062W        W87047  38.351  23.789  11.074
22063W        W87048  32.636   9.847  14.812
22064W        W87049  20.748  41.876  14.418
22065W        W87050   5.134  34.011   3.390
22066W        W87051  17.378  42.176   1.703
22067W        W87052   1.435   2.774   2.842
22068W        W87053  34.589  30.921   0.880
22069W        W87054  40.470  19.357  11.550
22070W        W87055  26.089  44.479  13.602
22071W        W87056  18.020  20.269  11.033
22072W        W87057  11.640  25.626   0.528
22073W        W87058  36.048  29.596   3.782
22074W        W87059  18.797  11.491   0.353
22075W        W87060   1.813  25.519   0.345
22076W        W87061  18.638  44.537   3.670
22077W        W87062  42.101   1.983   1.979
22078W        W87063  19.854  33.852  12.947
22079W        W87064   4.796  41.545  13.062
22080W        W87065  36.348  21.638   4.094
22081W        W87066  14.302   8.712  14.440
22082W        W87067  28.500  42.980   4.732
22083W        W87068   2.199  16.936  10.685
22084W        W87069  43.254  35.532  14.078
22085W        W87070   1.375  12.133  10.708
22086W        W87071  34.361  32.356  11.928
22087W        W87072  33.474  38.393   2.671
22088W        W87073  17.529  13.678  13.176
22089W        W87074  40.307  43.408   3.853
22090W        W87075  40.398   0.987   0.004
22091W        W87076  21.078  38.672   4.485
22092W        W87077  31.236  42.909  14.776
22093W        W87078  30.313  23.221  10.716
22094W        W87079  39.549   2.322   4.632
22095W        W87080  24.729  18.773  11.100
22096W        W87081  29.886  38.129   1.672
22097W        W87082  31.162  36.534   3.848
22098W        W87083  40.485   1.289  11.180
22099W        W87084  23.471   0.861  14.292
22100W        W87085  33.870  18.119   4.011
22101W        W87086  15.516  10.263   1.676
22102W        W87087  20.278  40.456   1.148
22103W        W87088   4.703  23.461  10.806
22104W        W87089   0.348  27.692   2.966
22105W        W87090  23.809  23.169   1.217
22106W        W87091   7.678  14.126  13.415
22107W        W87092  21.043  44.604   0.342
22108W        W87093   6.346  25.151   4.569
22109W        W87094  14.624  18.996   5.124
22110W        W87095  23.676  31.518   3.914
22111W        W87096  23.417   3.844   0.423
22112W        W87097   3.443  41.309   1.653
22113W        W87098  34.464  35.068  14.311
22114W        W87099   0.526  20.373   3.880
22115W        W87100  37.518  40.776  14.468
22116W        W87101   3.716  28.452   4.900
22117W        W87102  18.594  29.507   1.759
22118W        W87103  44.404   3.867  12.787
22119W        W87104  26.060  43.583  12.584
22120W        W87105   3.507  34.914   0.105
22121W        W87106  38.834  23.987   0.747
22122W        W87107   2.328  30.649   1.207
22123W        W87108  30.212  24.263  12.484
22124W        W87109  23.796  25.265   3.731
22125W        W87110  35.523   7.624  13.431
22126W        W87111  38.270  42.515   2.858
22127W        W87112  24.034  31.912   0.048
22128W        W87113  12.899  19.236  12.380
22129W        W87114  35.429  37.467   2.877
22130W        W87115  16.520   2.783  13.449
22131W        W87116   3.640   1.763  13.438
22132W        W87117  37.791  28.077   3.275
22133W        W87118  24.474  33.463   3.636
22134W        W87119  14.971   3.194   3.324
22135W        W87120  19.196  27.334  12.787
22136W        W87121  25.397  10.357  11.116
22137W        W87122  31.385  18.192   2.629
22138W        W87123  18.101   3.857  14.308
22139W        W87124  36.667  25.693  12.379
22140W        W87125  13.077  19.150  11.552
22141W        W87126   3.960  40.502  14.853
22142W        W87127   4.262  31.614   4.399
22143W        W87128   7.704   8.804  12.781
22144W        W87129  21.153  25.684  12.499
22145W        W87130  20.485   5.855  12.025
22146W        W87131  23.735   2.944  10.454
22147W        W87132   7.954   9.593   0.735
22148W        W87133   8.843  33.325   3.176
22149W        W87134  12.280  34.460  13.107
22150W        W87135   2.463   7.452  10.693
22151W        W87136  36.948   5.920   1.327
22152W        W87137  34.195  26.370  10.755
22153W        W87138  33.661  36.403  11.584
22154W        W87139   9.503  40.008   1.755
22155W        W87140   7.339  42.800   0.465
22156W        W87141   2.399  40.898  11.393
22157W        W87142   0.889   8.256   1.440
22158W        W87143  17.596  37.900  13.305
22159W        W87144  35.169  37.530  14.807
22160W        W87145  39.213  15.566  14.089
22161W        W87146  15.639  33.905  11.424
22162W        W87147  12.163  40.093   4.297
22163W        W87148   4.022  30.921   3.541
22164W        W87149  30.953  23.896  14.283
22165W        W87150   3.183  28.967  11.003
22166W        W87151  28.182  34.171  12.464
22167W        W87152  40.840  23.780  13.387
22168W        W87153  30.084  40.111  12.025
22169W        W87154  37.090  31.494   1.841
22170W        W87155  31.204  31.277   0.367
22171W        W87156   1.108  37.844   3.049
22172W        W87157  11.943  16.291   0.359
22173W        W87158  37.500   8.357   1.389
22174W        W87159  23.762   8.899  11.782
22175W        W87160  39.574   5.737  12.525
22176W        W87161  27.715  21.127   3.347
22177W        W87162  25.288  25.605  12.043
22178W        W87163  31.977  38.479  14.273
22179W        W87164  35.949  31.973  12.096
22180W        W87165  15.596  43.668   2.316
22181W        W87166   5.489   1.946  12.583
22182W        W87167   2.619  43.789  11.593
22183W        W87168   7.917  15.105   3.159
22184W        W87169  11.458  27.929  11.433
22185W        W87170  44.810   4.454  14.445
22186W        W87171  19.424   2.387  13.597
22187W        W87172  18.700  37.824   2.272
22188W        W87173  42.250   3.713  12.588
22189W        W87174  10.716  29.018  10.924
22190W        W87175  31.097   7.796  10.665
22191W        W87176  44.551  44.257  10.279
22192W        W87177   4.870  18.307   3.747
22193W        W87178  36.763   8.852  12.489
22194W        W87179   2.556  16.743   4.209
22195W        W87180  42.034  15.100   3.137
22196W        W87181  40.323   3.988   3.272
22197W        W87182  33.033  17.609   1.315
22198W        W87183  15.816  44.191   4.606
22199W        W87184   1.475  33.467  11.989
22200W        W87185   1.147  17.560   2.290
22201W        W87186  23.355  22.804  14.430
22202W        W87187  35.905  43.994  13.812
22203W        W87188  17.347  22.062   4.631
22204W        W87189  10.234  42.577  10.859
22205W        W87190  13.452  17.678   3.385
22206W        W87191  28.145  42.320   3.606
22207W        W87192  38.869  36.583   2.207
22208W        W87193  25.609  43.890   4.396
22209W        W87194  41.935   0.695  14.671
22210W        W87195  34.103   9.701  12.910
22211W        W87196  34.935   3.398   3.822
22212W        W87197   3.270  44.795   1.886
22213W        W87198   7.437  13.426   0.010
22214W        W87199  21.957  44.059  11.149
22215W        W87200  33.911  29.134   0.906
22216W        W87201  34.612  22.030   3.302
22217W        W87202   2.175  26.120   1.296
22218W        W87203   5.779  22.232   0.277
22219W        W87204  33.130  18.675   1.063
22220W        W87205  18.131   0.784   1.134
22221W        W87206  13.751  44.935  10.549
22222W        W87207  23.276  10.807   0.903
22223W        W87208   8.733  38.598   1.823
22224W        W87209  24.412  41.779  12.040
22225W        W87210  15.695  40.175   0.895
22226W        W87211  10.868  25.763  10.696
22227W        W87212  16.703   5.399   1.295
22228W        W87213  38.419  41.322  11.596
22229W        W87214  37.509  43.454   3.704
22230W        W87215  21.626  14.126   2.366
22231W        W87216  40.611   7.799   3.801
22232W        W87217   9.876  15.430  13.124
22233W        W87218  29.033   6.331   3.072
22234W        W87219  43.911   6.260   1.924
22235W        W87220  32.049   5.590   4.857
22236W        W87221  30.836   0.472  10.588
22237W        W87222  44.303  38.557  12.708
22238W        W87223  35.094   3.090   2.129
22239W        W87224   5.196  25.183  11.473
22240W        W87225   2.755  30.031   3.262
22241W        W87226  39.093  26.725  13.121
22242W        W87227  26.746  27.126  10.305
22243W        W87228   6.390  32.377  13.797
22244W        W87229  27.078  19.117  14.500
22245W        W87230  36.152  18.660  14.751
22246W        W87231  36.848  23.222   4.581
22247W        W87232  32.961  44.989   2.440
22248W        W87233  29.535   5.147   0.029
22249W        W87234  21.607  31.375  14.338
22250W        W87235  16.743  13.771   3.651
22251W        W87236  32.602  35.855  12.935
22252W        W87237  27.661  42.155  12.799
22253W        W87238  35.475  42.087  13.532
22254W        W87239   1.740  44.195   0.275
22255W        W87240  26.908   9.171  12.555
22256W        W87241   3.677  26.472  13.440
22257W        W87242  11.162  40.389  14.356
22258W        W87243   4.374   0.513   3.333
22259W        W87244   2.516  13.802  11.650
22260W        W87245  10.525  33.645  14.887
22261W        W87246  41.944  10.209   1.748
22262W        W87247   7.433  35.621   4.079
22263W        W87248  15.589  19.482  11.589
22264W        W87249  35.218  12.771  10.106
22265W        W87250  24.307  36.144   4.233
22266W        W87251   6.219  11.123  13.934
22267W        W87252  17.914   4.336   0.777
22268W        W87253   5.478  32.179   0.822
22269W        W87254  43.994  24.051  11.536
22270W        W87255  11.342   5.889   0.893
22271W        W87256  40.886  14.640  13.330
22272W        W87257   9.234  31.453   0.320
22273W        W87258  29.527  18.864   4.321
22274W        W87259  28.848  42.865  14.623
22275W        W87260  22.315  41.744   2.505
22276W        W87261   1.929   2.599  11.410
22277W        W87262  30.892   2.038  14.400
22278W        W87263  15.858  29.120  14.885
22279W        W87264  25.684  37.808  14.159
22280W        W87265  30.715  31.098   4.139
22281W        W87266  36.425  11.327  11.382
22282W        W87267   9.156  30.308  10.411
22283W        W87268  13.577  36.928  13.824
22284W        W87269   1.191  32.889   0.897
22285W        W87270  44.785  15.778   2.351
22286W        W87271   4.423   8.300   3.424
22287W        W87272  37.982   0.564  10.988
22288W        W87273  23.839  15.545  14.022
22289W        W87274  11.236  19.233   1.621
22290W        W87275  13.367  43.259  13.473
22291W        W87276  36.949  38.572  12.610
22292W        W87277  17.628   0.317   4.248
22293W        W87278  13.091  29.866   4.433
22294W        W87279   2.953  38.619   0.711
22295W        W87280  34.864   2.972   0.329
22296W        W87281   9.408  37.874  12.113
22297W        W87282  17.053  41.280   0.319
22298W        W87283   3.369   6.976   4.041
22299W        W87284  39.110  12.123   3.303
22300W        W87285  20.119   4.283   4.506
22301W        W87286  26.852   1.911   4.014
22302W        W87287   7.027  44.968  12.881
22303W        W87288  27.396  41.360  14.294
22304W        W87289  17.750  34.975  12.342
22305W        W87290  11.825  35.041   4.540
22306W        W87291  22.171  12.656   3.686
22307W        W87292  22.128  27.725  14.798
22308W        W87293  15.827  31.363   0.437
22309W        W87294  35.124  25.524  11.448
22310W        W87295  24.731  11.272   3.203
22311W        W87296  31.217  39.309   0.325
22312W        W87297   4.900   9.248  12.327
22313W        W87298   5.543  33.149   2.919
22314W        W87299   6.779   1.897   2.271
22315W        W87300  15.752   0.913  11.135
22316W        W87301   1.796  31.960   1.891
22317W        W87302  42.453  39.443   9.547
22318W        W87303  17.968  17.851  12.721
22319W        W87304  31.430   0.426   3.619
22320W        W87305  29.562  16.874   1.692
22321W        W87306  44.521  21.484   3.204
22322W        W87307  26.196  22.502   0.979
22323W        W87308  22.579  14.016   2.479
22324W        W87309  15.799   8.415  12.653
22325W        W87310  36.371  18.542   2.838
22326W        W87311  26.282  27.893  12.509
22327W        W87312  15.516   7.669  12.783
22328W        W87313   5.453  14.336   5.084
22329W        W87314   8.007   7.653  13.478
22330W        W87315  15.298  33.508  13.092
22331W        W87316   3.953  34.677   1.754
22332W        W87317  21.680  10.585  10.790
22333W        W87318  13.572  19.010  11.605
22334W        W87319  30.180  15.531   9.970
22335W        W87320  20.013  31.605  13.669
22336W        W87321  35.359   7.819  12.992
22337W        W87322  30.490  21.062  13.494
22338W        W87323  22.631  42.532   4.187
22339W        W87324  30.480  21.525  12.403
22340W        W87325  38.272   4.742  11.854
22341W        W87326  35.062  24.518   1.733
22342W        W87327  41.341  31.076  13.088
22343W        W87328   7.344   3.165  11.579
22344W        W87329  29.582   2.505  10.143
22345W        W87330  41.578  21.937  11.561
22346W        W87331  32.512  26.990  12.124
22347W        W87332  32.377  11.859  14.020
22348W        W87333   5.786  25.631  12.515
22349W        W87334  34.154  41.199   2.884
22350W        W87335  42.300  29.993   2.991
22351W        W87336  33.110  31.643  13.449
22352W        W87337  19.606   4.257  13.347
22353W        W87338   4.731   4.767   5.269
22354W        W87339  44.796  25.194   0.945
22355W        W87340  17.744  30.620   1.836
22356W        W87341  37.558   1.412  12.216
22357W        W87342   7.621  30.958   1.872
22358W        W87343  36.922  18.542   0.462
22359W        W87344  42.552  31.209   0.478
22360W        W87345   2.725  31.440  11.629
22361W        W87346  10.728  32.723   4.576
22362W        W87347   9.234  29.609  14.835
22363W        W87348   9.726   5.404   2.182
22364W        W87349  24.226  23.259  13.462
22365W        W87350   4.857  37.073  13.076
22366W        W87351  31.214  15.289  14.483
22367W        W87352   5.945  17.339  14.960
22368W        W87353  38.842  35.471   0.161
22369W        W87354  39.149  13.854  11.020
22370W        W87355  30.496  43.374  14.500
22371W        W87356   0.955  35.309  14.036
22372W        W87357   4.418  40.020   3.289
22373W        W87358  20.788   5.698  13.203
22374W        W87359  21.051  21.996  14.440
22375W        W87360  12.291  19.985  12.107
22376W        W87361   5.379  16.145  13.179
22377W        W87362   5.887  21.013   4.712
22378W        W87363  19.126   2.771  14.489
22379W        W87364  12.260  17.313  10.757
22380W        W87365  15.829  30.067   0.005
22381W        W87366  17.081  20.780  13.052
22382W        W87367  32.555   3.704  11.019
22383W        W87368  40.023  14.075  11.673
22384W        W87369   3.418   4.843   1.233
22385W        W87370  39.062  19.028  11.457
22386W        W87371  16.847  44.873   3.819
22387W        W87372  18.856  36.137   3.126
22388W        W87373  22.626  30.182   2.459
22389W        W87374   8.335   8.877  13.634
22390W        W87375   5.967   7.728  13.884
22391W        W87376  34.704   3.433   2.124
22392W        W87377  42.975  25.495  14.280
22393W        W87378  24.132   8.221   3.835
22394W        W87379  22.603  34.198   0.989
22395W        W87380   4.883  30.680   1.646
22396W        W87381  41.342   8.830  13.094
22397W        W87382  17.135  22.255   0.084
22398W        W87383  30.104  30.591  14.543
22399W        W87384  18.118   4.395   3.992
22400W        W87385  37.396  29.113   0.540
22401W        W87386  17.596  34.924   3.208
22402W        W87387  22.441  30.979  14.303
22403W        W87388  17.545  42.680  13.931
22404W        W87389  13.450  41.600   5.178
22405W        W87390  22.392  10.308  13.504
22406W        W87391   3.766  22.265   4.491
22407W        W87392  17.548  25.644  13.462
22408W        W87393   0.755  35.958  12.407
22409W        W87394  39.217  40.781   4.756
22410W        W87395  34.403  22.463  14.014
22411W        W87396  44.862   2.403   0.889
22412W        W87397   6.799   3.697   2.874
22413W        W87398   9.376   4.051   1.418
22414W        W87399  19.465   9.895  11.245
22415W        W87400  43.298  36.765   2.122
22416W        W87401  36.946   5.935  14.332
22417W        W87402  36.037  44.404  11.973
22418W        W87403  42.537   3.908  14.393
22419W        W87404  12.666   1.007  11.216
22420W        W87405  35.480  31.801  13.949
22421W        W87406  30.937  28.160   4.098
22422W        W87407  44.244   4.910  12.572
22423W        W87408  30.128  22.415  12.410
22424W        W87409  11.798   2.227   0.042
22425W        W87410  43.984   4.414  11.617
22426W        W87411  22.131  19.663   1.674
22427W        W87412  44.891  34.171  10.914
22428W        W87413   9.071  21.716   4.451
22429W        W87414  33.528  36.122   4.591
22430W        W87415  31.479   9.078  13.036
22431W        W87416   3.157  40.474   4.469
22432W        W87417  28.912  41.331   3.268
22433W        W87418  25.744  26.003   4.621
22434W        W87419  32.659  27.029   3.173
22435W        W87420   6.561  19.580  12.109
22436W        W87421   9.951  36.607   4.262
22437W        W87422   1.401  26.628   1.429
22438W        W87423   4.803  25.816   2.496
22439W        W87424  20.171   1.527   1.646
22440W        W87425  40.972  42.828  10.123
22441W        W87426  27.626  14.802  13.704
22442W        W87427  12.656   8.432   0.415
22443W        W87428   3.209   9.880   3.521
22444W        W87429  29.830  17.227  11.639
22445W        W87430  38.481  20.155   0.015
22446W        W87431  22.480   3.868   4.800
22447W        W87432  16.410   1.968   4.641
22448W        W87433  33.018  24.239   2.718
22449W        W87434   9.608  16.734  14.459
22450W        W87435  27.234  22.496  12.954
22451W        W87436   9.177  23.434  11.677
22452W        W87437  34.070   6.841   3.049
22453W        W87438  41.326  41.421  10.731
22454W        W87439  13.790  33.505  11.988
22455W        W87440  39.185  36.147   3.526
22456W        W87441  12.835  25.110   4.538
22457W        W87442  31.876  32.220  13.088
22458W        W87443  33.303  19.071   1.359
22459W        W87444   4.825  39.667   3.255
22460W        W87445  38.117  38.340  14.554
22461W        W87446  40.740   5.253  13.397
22462W        W87447   1.761  35.133   0.812
22463W        W87448  35.628  13.908   3.308
22464W        W87449  27.984   3.387  12.086
22465W        W87450   8.389  14.373   4.351
22466W        W87451   3.244  33.326  14.991
22467W        W87452  22.415  36.082  13.535
22468W        W87453  17.182  10.275   0.311
22469W        W87454  11.372  10.202   0.904
22470W        W87455  31.132  19.521   4.138
22471W        W87456  30.946   1.046   2.921
22472W        W87457  28.051  28.359   2.387
22473W        W87458  21.684   6.797   4.259
22474W        W87459   2.760  21.429   4.143
22475W        W87460  14.188  14.407  10.983
22476W        W87461  18.085  25.561  11.434
22477W        W87462  36.536   7.725   2.251
22478W        W87463  22.423  30.584   3.739
22479W        W87464  16.578  44.384  10.603
22480W        W87465  28.949   0.878   2.104
22481W        W87466  33.668  10.716   0.040
22482W        W87467  19.672   0.539  13.651
22483W        W87468  13.615   4.413  11.142
22484W        W87469  27.756   0.461  13.341
22485W        W87470  39.417  29.870  14.590
22486W        W87471  42.239   9.659  14.680
22487W        W87472  15.676  21.664  10.950
22488W        W87473  33.787  27.993   4.858
22489W        W87474  23.155  22.512  14.046
22490W        W87475  30.991   6.679  14.423
22491W        W87476  40.817  10.285   3.239
22492W        W87477  10.330  20.069   1.195
22493W        W87478   3.649  38.380   2.724
22494W        W87479  18.808  11.652  10.575
22495W        W87480  40.135  29.096  14.087
22496W        W87481  21.995  25.252   0.376
22497W        W87482   8.822   9.696   4.766
22498W        W87483  32.917  27.014  11.681
22499W        W87484   6.193   9.208  14.979
22500W        W87485  44.317  39.418   2.284
22501W        W87486  12.533   0.850  11.676
22502W        W87487  26.278  14.242  14.393
22503W        W87488  20.141  15.967   4.210
22504W        W87489   3.496  38.470   4.854
22505W        W87490   8.137  40.918   0.587
22506W        W87491  20.856   9.822  14.949
22507W        W87492  37.033  22.719   0.418
22508W        W87493  35.615   7.181   3.259
22509W        W87494  25.526  16.850  11.169
22510W        W87495  19.076  37.296   0.821
22511W        W87496   7.869  30.349  10.592
22512W        W87497  15.634  36.393  12.472
22513W        W87498   7.311  35.370  10.679
22514W        W87499  38.283  35.423   9.890
22515W        W87500  19.221  35.890  11.694
22516W        W87501  13.629  30.623  13.554
22517W        W87502  37.543   3.516  11.578
22518W        W87503  19.322  20.296   0.107
22519W        W87504  42.687   9.830  12.730
22520W        W87505  14.387  19.017  14.888
22521W        W87506  13.377   3.993  10.960
22522W        W87507  30.255  16.026   2.307
22523W        W87508   9.034  25.950   3.173
22524W        W87509   0.403  34.513  10.841
22525W        W87510  37.637   7.395   5.160
22526W        W87511  19.140   8.824   4.060
22527W        W87512  10.086  13.629   2.552
22528W        W87513  27.000   8.572  11.668
22529W        W87514  33.026  27.110  14.363
22530W        W87515  19.012  35.121  13.527
22531W        W87516  31.807   6.702   4.182
22532W        W87517  15.156   8.911   1.208
22533W        W87518  41.902   5.818   4.640
22534W        W87519  23.059   3.042  11.287
22535W        W87520  13.895  28.235   3.653
22536W        W87521  27.733  29.292  11.141
22537W        W87522  40.082  34.572   2.642
22538W        W87523   3.050  29.591  11.578
22539W        W87524   8.632  42.270   2.219
22540W        W87525  40.298  28.715   3.587
22541W        W87526  25.274  19.243  13.440
22542W        W87527  17.697  15.264  11.560
22543W        W87528  10.193  18.624   4.085
22544W        W87529  40.276  31.352   1.402
22545W        W87530   9.688  35.107  11.694
22546W        W87531  29.049  29.685  13.819
22547W        W87532  39.337   3.184  14.048
22548W        W87533  26.131   5.333   0.243
22549W        W87534  24.996  27.461  14.325
22550W        W87535  26.412   4.848  12.045
22551W        W87536  21.990   6.936   0.408
22552W        W87537   5.138  30.919   4.392
22553W        W87538   9.806  12.159   2.079
22554W        W87539   7.609  28.995  14.062
22555W        W87540   9.604   3.546   1.510
22556W        W87541  29.557  41.160   4.274
22557W        W87542   5.201  41.425  14.627
22558W        W87543  29.716   5.950   1.292
22559W        W87544  44.773  28.056  13.981
22560W        W87545  19.136  39.063  14.374
22561W        W87546   5.247   0.732   1.884
22562W        W87547  39.772  19.207  10.761
22563W        W87548   3.144  12.708  10.395
22564W        W87549  24.720  43.008  10.715
22565W        W87550   9.699  20.131   3.571
22566W        W87551  25.004   9.082  11.084
22567W        W87552  24.516  18.710   3.086
22568W        W87553  43.006  38.575  14.553
22569W        W87554  25.540   2.376  10.212
22570W        W87555  21.315  20.984   3.726
22571W        W87556  22.127  34.792  14.564
22572W        W87557  24.237  39.100   3.769
22573W        W87558  30.621  27.344   3.226
22574W        W87559  43.369  26.424   1.713
22575W        W87560  35.010   5.847   3.119
22576W        W87561  41.705  30.649   0.471
22577W        W87562  21.978  23.090  13.447
22578W        W87563  25.629  34.663   3.307
22579W        W87564  15.514  14.253   3.360
22580W        W87565  41.280  28.008   3.827
22581W        W87566   3.279  27.160  10.802
22582W        W87567  13.341  26.444  14.964
22583W        W87568  34.096   7.204   4.281
22584W        W87569  35.081   8.788   1.738
22585W        W87570  43.715  12.952   4.039
22586W        W87571  41.509  24.991  13.842
22587W        W87572   0.743  22.522  10.577
22588W        W87573  19.599  36.038   1.364
22589W        W87574  33.943  29.630   0.828
22590W        W87575   5.681  23.089  10.624
22591W        W87576  19.456   5.763  11.087
22592W        W87577  18.340  13.354  12.155
22593W        W87578   3.628   3.988  12.037
22594W        W87579  15.160  36.195  12.556
22595W        W87580  19.951  31.969  11.572
22596W        W87581   7.795  24.799   2.377
22597W        W87582  39.595  16.173   4.627
22598W        W87583  41.794  27.741   4.039
22599W        W87584   5.668  32.552   4.559
22600W        W87585  15.744  28.682   2.218
22601W        W87586  37.953  32.169   2.737
22602W        W87587  16.606  21.996   0.758
22603W        W87588  14.625   9.355  13.773
22604W        W87589  21.207   4.881  14.882
22605W        W87590  10.735   9.218  11.676
22606W        W87591  22.486   9.332  14.856
22607W        W87592  35.240  21.760  10.455
22608W        W87593  16.650  40.768   1.759
22609W        W87594  38.998  26.477   0.809
22610W        W87595   8.183  13.600  12.902
22611W        W87596   1.426  34.448  10.772
22612W        W87597  27.198  21.739   0.670
22613W        W87598  31.546   4.331   2.308
22614W        W87599  25.528  21.108   0.887
22615W        W87600   0.859  37.600   3.663
22616W        W87601  37.448  18.792   3.241
22617W        W87602  23.137  42.837  10.664
22618W        W87603  32.153  26.983   3.197
22619W        W87604   2.250  33.536   1.833
22620W        W87605  12.298  15.386  14.764
22621W        W87606  25.266  38.004   0.891
22622W        W87607  26.586   8.868   1.284
22623W        W87608   1.411  35.124  11.228
22624W        W87609  12.607   3.947  14.541
22625W        W87610   6.336  22.633   4.652
22626W        W87611  19.147  44.351   3.660
22627W        W87612   2.895  35.863  12.684
22628W        W87613   8.839  13.273   0.472
22629W        W87614  43.858   0.103  14.019
22630W        W87615   3.113  21.130   0.328
22631W        W87616  40.430  30.901   0.543
22632W        W87617  31.673   7.995   1.888
22633W        W87618   8.134  31.342  12.125
22634W        W87619  10.139  11.271   2.255
22635W        W87620  26.666  36.516  11.172
22636W        W87621  40.051  43.907   3.573
22637W        W87622  17.541  25.107  10.790
22638W        W87623  26.905   2.752  11.606
22639W        W87624  41.256  29.467   2.441
22640W        W87625  11.921  38.892  12.346
22641W        W87626   6.099  17.580   0.413
22642W        W87627   2.476  25.961  11.211
22643W        W87628   6.701  10.040  11.537
22644W        W87629  44.970  25.839  14.353
22645W        W87630  11.158  33.333   1.894
22646W        W87631  18.831   4.787  10.697
22647W        W87632  17.702  37.358  10.916
22648W        W87633   5.897   9.375  12.018
22649W        W87634  44.826  31.647  13.391
22650W        W87635  22.048   7.683  12.377
22651W        W87636   8.550  35.095  12.092
22652W        W87637  28.467  24.101  13.920
22653W        W87638  41.993  21.560   4.603
22654W        W87639   3.804  34.757  11.823
22655W        W87640   9.834  22.210  14.432
22656W        W87641  17.079  22.463  13.749
22657W        W87642  28.459  28.976  11.586
22658W        W87643  17.324  28.986   0.039
22659W        W87644  19.192  39.209  11.124
22660W        W87645  35.994   9.686   4.960
22661W        W87646   5.582   7.416  14.498
22662W        W87647   7.198  43.713   0.697
22663W        W87648   9.119  28.377  13.259
22664W        W87649  29.012  37.089   1.830
22665W        W87650  33.566  34.573   0.391
22666W        W87651  28.936   2.862  11.184
22667W        W87652  12.585   2.758  13.110
22668W        W87653   1.068   9.225   3.165
22669W        W87654  24.595  25.657   0.808
22670W        W87655  19.759  13.684  13.869
22671W        W87656  39.298  28.517  14.781
22672W        W87657  28.923  44.658   4.510
22673W        W87658  26.657  33.959  12.222
22674W        W87659   3.445  12.120  12.048
22675W        W87660   7.179  30.615  13.408
22676W        W87661  12.826  15.155  12.401
22677W        W87662  32.327  30.616   2.764
22678W        W87663   7.728  35.063  12.389
22679W        W87664  14.900   2.284   4.724
22680W        W87665  40.828  40.699  10.931
22681W        W87666   5.736  40.585  11.740
22682W        W87667   2.812  43.982   1.891
22683W        W87668  18.174   6.693  10.262
22684W        W87669  34.861  18.253   3.810
22685W        W87670  28.237  20.996   2.506
22686W        W87671   6.697  12.580  13.643
22687W        W87672  35.157  16.940   0.413
22688W        W87673  42.507  16.879   1.831
22689W        W87674  14.542   0.219  14.801
22690W        W87675  20.007  30.961  13.993
22691W        W87676   2.051  10.480  12.562
22692W        W87677  18.215  16.109  10.744
22693W        W87678   4.434  11.118   1.703
22694W        W87679  32.858  36.004  13.390
22695W        W87680   5.227  34.215   4.552
22696W        W87681  41.238   0.444  10.837
22697W        W87682  36.498  30.632   4.972
22698W        W87683  40.945  22.838   3.236
22699W        W87684  34.881  32.332   0.853
22700W        W87685  15.676  35.071  11.961
22701W        W87686  42.507  23.797  14.324
22702W        W87687  43.293  24.511   3.339
22703W        W87688  15.805   2.660   2.718
22704W        W87689  40.937  32.903   1.920
22705W        W87690  43.690  18.451   4.242
22706W        W87691  42.518  30.384   3.906
22707W        W87692  41.186   7.769  14.240
22708W        W87693  25.074  14.754  12.125
22709W        W87694  15.116   1.384  13.560
22710W        W87695  10.782  27.384  13.599
22711W        W87696  15.286  10.509   2.255
22712W        W87697  42.403  29.704  13.538
22713W        W87698   5.923  24.910  10.968
22714W        W87699  28.494  31.918   1.455
22715W        W87700  10.664  38.118  11.550
22716W        W87701  41.857  22.706   3.738
22717W        W87702  33.805  39.910  12.204
22718W        W87703  43.037  17.697   1.430
22719W        W87704  29.610  42.581  12.472
22720W        W87705  24.265   0.047   3.212
22721W        W87706  13.661  30.158  14.762
22722W        W87707  20.803  17.529   2.629
22723W        W87708  27.560  24.209  13.679
22724W        W87709  33.347   7.559   3.162
22725W        W87710   9.493  23.312   3.905
22726W        W87711  38.569  42.037  13.345
22727W        W87712  24.606   7.366   0.596
22728W        W87713  29.579   8.885  12.320
22729W        W87714  25.380  41.571   1.732
22730W        W87715  19.560  35.021   3.655
22731W        W87716   1.316  11.035  12.565
22732W        W87717  24.273   9.008   2.159
22733W        W87718  37.133  40.680  13.197
22734W        W87719  28.385  43.329  12.614
22735W        W87720  19.801   6.715  11.118
22736W        W87721  33.006  29.105  13.371
22737W        W87722  43.884  40.969   3.645
22738W        W87723  43.460  38.600   0.795
22739W        W87724  19.643  44.252   3.130
22740W        W87725   6.333   6.705   1.109
22741W        W87726   5.902  27.991   3.345
22742W        W87727   3.863  38.866  11.613
22743W        W87728  29.967  38.953   4.357
22744W        W87729  42.289   2.383   0.372
22745W        W87730   8.252  36.110   2.730
22746W        W87731  20.843  35.654  10.676
22747W        W87732  10.923  18.632  13.122
22748W        W87733  27.060  17.581  13.422
22749W        W87734  21.722  36.775  14.932
22750W        W87735  25.121  36.201  12.107
22751W        W87736  43.464   5.651  10.475
22752W        W87737  44.054  20.866   0.906
22753W        W87738  36.178   9.448   1.737
22754W        W87739  16.666   8.251  13.528
22755W        W87740  40.165  17.720   3.582
22756W        W87741  10.899  37.363   1.839
22757W        W87742   0.790  31.394   4.521
22758W        W87743  19.240   1.136   2.211
22759W        W87744   4.447  28.407  14.371
22760W        W87745   8.044  15.467  14.392
22761W        W87746  19.186   5.860  11.532
22762W        W87747  16.066  13.339   1.399
22763W        W87748  28.253  29.141  13.394
22764W        W87749  16.582  18.262   2.253
22765W        W87750   3.368  36.015   0.576
22766W        W87751  26.596  18.694  11.965
22767W        W87752   6.871  18.218   0.236
22768W        W87753  37.370  39.410   4.053
22769W        W87754  32.011  24.536   4.100
22770W        W87755  35.951  42.454   3.857
22771W        W87756  21.808  10.557  13.761
22772W        W87757  33.541  44.429   4.058
22773W        W87758   9.388   5.602   0.303
22774W        W87759  43.913  13.870  13.059
22775W        W87760  32.854  11.747  13.872
22776W        W87761  21.734   6.237   2.731
22777W        W87762  18.835   5.324   4.471
22778W        W87763  40.502  12.860  11.000
22779W        W87764  31.383   7.208  13.489
22780W        W87765  13.619  17.487  14.472
22781W        W87766  42.512  44.853   2.316
22782W        W87767  30.517  32.058  12.079
22783W        W87768  21.154  37.520   3.783
22784W        W87769   8.123  29.928   2.785
22785W        W87770  10.167  33.017   3.249
22786W        W87771  11.505   3.505  13.649
22787W        W87772  27.014  31.015  11.367
22788W        W87773   2.860  41.047  11.158
22789W        W87774   4.682  40.301   0.359
22790W        W87775  26.265  28.527   0.042
22791W        W87776  34.127  28.954  12.117
22792W        W87777  10.086  41.070  10.760
22793W        W87778  21.602  22.753   0.800
22794W        W87779  33.377   2.919  11.798
22795W        W87780  35.157  17.459  12.009
22796W        W87781  39.776  16.530   4.051
22797W        W87782  15.100  44.729  12.980
22798W        W87783   2.984  44.478  12.228
22799W        W87784  40.668  33.274  11.681
22800W        W87785   9.699  34.951   4.191
22801W        W87786   5.429  31.630  11.542
22802W        W87787   9.086  15.330   1.368
22803W        W87788  14.285  40.565  11.217
22804W        W87789  30.467  13.416   1.853
22805W        W87790  30.759  13.141   0.244
22806W        W87791  18.051  30.972  11.277
22807W        W87792  21.669  14.393   1.616
22808W        W87793  34.538  37.390   1.777
22809W        W87794   0.327  37.585   2.417
22810W        W87795  12.211   0.071   0.856
22811W        W87796  29.883  21.700  14.040
22812W        W87797  41.467  41.625   4.749
22813W        W87798  25.955  43.080   5.104
22814W        W87799  34.228  13.681   4.555
22815W        W87800  18.516  32.808  11.170
22816W        W87801  19.198  11.174  12.985
22817W        W87802  29.842  40.329   4.423
22818W        W87803  38.487  21.748   2.161
22819W        W87804  11.914   0.956   2.746
22820W        W87805  20.841  20.057   1.985
22821W        W87806  15.477  37.624   5.183
22822W        W87807   4.300  11.757   4.318
22823W        W87808  26.527  28.375   3.287
22824W        W87809  10.416  33.474   3.238
22825W        W87810   5.131  21.182   0.887
22826W        W87811  43.389  35.270   3.250
22827W        W87812  42.975  23.581   0.385
22828W        W87813  18.688  25.949  10.656
22829W        W87814   5.400   2.893  13.432
22830W        W87815   8.253  40.830  12.860
22831W        W87816  18.463  37.517   2.647
22832W        W87817   1.544  37.374  11.188
22833W        W87818  36.086  28.714  11.560
22834W        W87819  40.204  33.300   3.612
22835W        W87820  38.376   0.955  14.890
22836W        W87821  13.614  32.471  13.798
22837W        W87822   2.499  12.462   4.130
22838W        W87823  29.838  29.533  14.900
22839W        W87824  33.083  27.581   3.680
22840W        W87825  22.601  33.134   4.113
22841W        W87826  21.655  16.508   2.634
22842W        W87827  18.661  11.603  14.305
22843W        W87828  35.889  44.377  14.213
22844W        W87829  17.559   7.630  12.836
22845W        W87830  13.788  39.444  14.480
22846W        W87831  32.866   7.194   1.761
22847W        W87832  19.739   3.860   1.913
22848W        W87833  39.841  36.439   5.113
22849W        W87834  34.378  39.530   0.223
22850W        W87835  12.749  37.628  11.019
22851W        W87836  33.905  37.014   3.306
22852W        W87837  32.690   7.573  14.746
22853W        W87838  13.022  42.926  14.586
22854W        W87839   2.702  27.725  12.784
22855W        W87840  33.275  17.155   4.606
22856W        W87841  13.721   9.573   1.793
22857W        W87842  23.432  43.655   3.254
22858W        W87843  25.090  43.320  14.578
22859W        W87844   2.363   9.350  14.458
22860W        W87845  15.522  35.364   3.802
22861W        W87846  10.399  38.864   4.935
22862W        W87847  24.409  23.523  14.911
22863W        W87848  43.915  27.206  12.339
22864W        W87849  14.131  13.831   1.853
22865W        W87850   0.150  41.043  12.019
22866W        W87851  30.400  17.206  13.963
22867W        W87852  15.552  37.819   2.344
22868W        W87853  39.028  21.091   5.135
22869W        W87854  11.702  42.492   1.311
22870W        W87855  26.782  32.304   2.313
22871W        W87856  37.028  39.866   1.522
22872W        W87857  26.202  44.403   0.929
22873W        W87858  39.036  26.698   0.338
22874W        W87859  17.123  37.601  14.117
22875W        W87860  24.192  21.570  11.223
22876W        W87861   8.228  39.784   0.858
22877W        W87862  28.633  17.640   0.981
22878W        W87863  31.955  15.353   4.562
22879W        W87864  29.236  41.847  14.717
22880W        W87865  21.232  40.885   3.690
22881W        W87866  32.387   7.122   3.964
22882W        W87867  29.481  37.435  14.031
22883W        W87868  26.647  13.704   0.722
22884W        W87869   5.902  33.097   1.976
22885W        W87870  44.082  22.259  11.226
22886W        W87871  38.731  17.319  11.883
22887W        W87872  16.800  29.384  12.673
22888W        W87873   8.760  27.381   1.297
22889W        W87874   7.797  35.787  12.998
22890W        W87875  15.199  33.144   4.080
22891W        W87876   2.923  41.731  14.313
22892W        W87877  27.970  32.543  14.371
22893W        W87878  40.948   2.491  11.150
22894W        W87879  15.793  35.059   1.081
22895W        W87880  36.504  44.996   2.232
22896W        W87881  11.809   9.908   1.685
22897W        W87882  32.072  11.135  13.045
22898W        W87883  27.778  22.206   3.757
22899W        W87884   8.611  27.900   2.753
22900W        W87885  35.374  30.657   4.364
22901W        W87886  35.533  22.024  14.555
22902W        W87887  10.408  42.906   2.391
22903W        W87888  32.050   6.442  14.858
22904W        W87889  43.395   3.948  12.980
22905W        W87890  15.601  24.945  14.361
22906W        W87891   3.256   1.391  13.478
22907W        W87892  31.102  24.093  11.295
22908W        W87893  18.286   6.206   2.764
22909W        W87894   5.400  30.586   2.971
22910W        W87895  11.506  30.917  13.051
22911W        W87896  39.841   8.019   1.322
22912W        W87897  28.320  39.448   0.780
22913W        W87898  13.409   1.964  11.435
22914W        W87899  10.154  16.697  14.462
22915W        W87900   6.764  13.940  10.763
22916W        W87901  26.153  34.981   3.437
22917W        W87902   1.173  15.396  11.951
22918W        W87903   8.623  41.361   4.333
22919W        W87904  15.355  23.795  11.083
22920W        W87905   9.661  18.924  14.101
22921W        W87906   2.975  25.425  14.650
22922W        W87907  42.308   9.878   1.314
22923W        W87908  35.401   2.760   2.399
22924W        W87909   4.824  26.032  10.480
22925W        W87910  20.083  16.585   0.299
22926W        W87911  30.852  13.807  13.039
22927W        W87912  27.989  19.851  10.325
22928W        W87913   1.198   6.436  11.645
22929W        W87914  36.875  35.583   0.754
22930W        W87915  34.390  26.652   1.802
22931W        W87916  40.516  44.375  11.028
22932W        W87917  20.940  23.037  11.852
22933W        W87918  38.938  32.899  11.375
22934W        W87919  34.134  24.646  13.799
22935W        W87920  42.204  29.214   2.404
22936W        W87921  16.056   7.484  13.459
22937W        W87922  24.213  42.438  12.902
22938W        W87923  18.579   8.281   3.651
22939W        W87924  18.548  31.283   2.316
22940W        W87925  28.680  36.000   0.942
22941W        W87926  43.790  39.897  13.053
22942W        W87927  40.967  44.884   0.907
22943W        W87928  13.564  15.524   4.178
22944W        W87929  13.237  44.813   1.559
22945W        W87930   2.770  27.249  10.626
22946W        W87931  10.103   0.607   3.852
22947W        W87932  30.022   9.174   3.249
22948W        W87933   8.246   8.869  11.225
22949W        W87934  19.187  17.062   1.284
22950W        W87935  24.825  15.277  13.045
22951W        W87936   8.090  31.388   3.731
22952W        W87937  17.338  13.755   3.201
22953W        W87938  28.235  15.589   3.334
22954W        W87939  23.080  26.080   4.597
22955W        W87940  25.055   9.237   4.770
22956W        W87941   0.362  30.102  11.417
22957W        W87942  29.439   8.217   2.337
22958W        W87943  36.993  27.233   0.196
22959W        W87944  10.626  35.992   3.335
22960W        W87945  33.074  10.338  13.970
22961W        W87946  31.884  25.248  11.585
22962W        W87947  20.401   8.480   0.722
22963W        W87948   3.150  34.037  10.726
22964W        W87949  32.971  15.481  13.529
22965W        W87950   3.799  16.514   1.237
22966W        W87951  20.794  34.908   2.339
22967W        W87952  32.286  17.694  11.602
22968W        W87953   1.086  33.859  14.460
22969W        W87954  27.024  37.117   1.246
22970W        W87955  38.358  11.127   3.611
22971W        W87956   2.400  39.930   3.591
22972W        W87957  36.575  12.787   4.607
22973W        W87958  23.143  27.474  11.386
22974W        W87959  34.560  15.163   4.323
22975W        W87960  18.751  17.631   5.060
22976W        W87961  16.539   6.234   2.632
22977W        W87962  14.281  21.732  11.628
22978W        W87963  38.411  11.875  13.377
22979W        W87964  42.682  13.831  13.935
22980W        W87965  11.122  37.904   2.281
22981W        W87966  25.490  43.445   3.349
22982W        W87967   4.363  38.979  12.430
22983W        W87968  18.867   7.785   4.498
22984W        W87969   4.184  35.954   2.765
22985W        W87970  34.854  15.607   3.646
22986W        W87971  20.502  23.565   0.392
22987W        W87972  15.136  16.515   4.090
22988W        W87973   2.194  18.149   4.565
22989W        W87974  20.720  14.040   2.391
22990W        W87975   3.294  26.729  13.160
22991W        W87976  34.475  18.011   1.850
22992W        W87977  34.045   1.859  11.023
22993W        W87978  25.267  21.555  12.068
22994W        W87979  30.934  43.757   1.663
22995W        W87980  26.879  21.151  12.966
22996W        W87981  21.110  16.753   1.257
22997W        W87982  15.282  42.139   3.250
22998W        W87983   5.481  43.920   3.623
22999W        W87984  21.719   1.567  11.598
23000W        W87985  31.464  12.600   4.871
23001W        W87986   6.882  42.000   2.191
23002W        W87987  29.562  42.131  10.686
23003W        W87988  13.076  39.373  13.968
23004W        W87989   2.999  42.504  13.915
23005W        W87990  24.419  21.362  14.272
23006W        W87991  38.087  36.019   0.493
23007W        W87992   7.298  31.581   4.902
23008W        W87993   8.275  27.180   1.315
23009W        W87994  35.546   0.921   2.300
23010W        W87995  18.609   3.320  14.977
23011W        W87996   2.547  44.951  14.650
23012W        W87997  40.423  39.315  10.655
23013W        W87998  38.977  19.560  12.881
23014W        W87999  42.528  25.987  14.800
23015W        W88000  11.424  16.193   0.269
23016W        W88001  16.225  18.536  12.487
23017W        W88002  22.464  26.465   0.969
23018W        W88003  27.663  10.249  10.250
23019W        W88004  26.452   0.375   1.256
23020W        W88005  18.365  15.777   1.259
23021W        W88006  38.001  15.252  10.421
23022W        W88007   4.714  40.869  14.781
23023W        W88008  15.363  18.529  12.409
23024W        W88009  22.158   2.416  11.652
23025W        W88010  14.034   6.406   2.410
23026W        W88011  16.751  34.857  13.738
23027W        W88012  19.142  16.710  10.193
23028W        W88013  12.122  15.702   2.205
23029W        W88014  37.795   5.766   1.847
23030W        W88015  29.502  17.104   4.636
23031W        W88016  27.415  33.880  13.771
23032W        W88017  12.835  10.254   3.632
23033W        W88018  25.045   5.342  12.454
23034W        W88019  23.537  44.504   2.742
23035W        W88020  21.757   5.749   4.180
23036W        W88021  27.923  38.967   4.551
23037W        W88022   2.314  41.485   0.890
23038W        W88023  17.547  16.809  13.765
23039W        W88024   1.948  17.744  14.507
23040W        W88025  41.973   5.932   1.268
23041W        W88026   0.509  26.521   4.542
23042W        W88027  15.809  27.078  12.411
23043W        W88028  42.568  28.096   2.554
23044W        W88029   6.445  15.399   2.379
23045W        W88030  20.109  40.518  11.627
23046W        W88031  44.832  42.280   3.778
23047W        W88032  39.102  19.960   2.283
23048W        W88033  40.520  18.072  13.369
23049W        W88034   4.837  35.651   3.395
23050W        W88035  13.763  34.606   2.172
23051W        W88036   8.317   5.666   0.935
23052W        W88037  40.429   4.407  12.059
23053W        W88038  20.106  20.686   0.621
23054W        W88039  18.604  12.087   4.559
23055W        W88040  25.192   4.659   1.695
23056W        W88041   7.934   2.118   2.374
23057W        W88042  18.273  35.370  13.977
23058W        W88043  40.275  11.131  12.409
23059W        W88044  43.013  33.613  10.812
23060W        W88045   2.000  44.932   3.012
23061W        W88046  28.003  33.464   2.847
23062W        W88047  44.824  17.189   0.658
23063W        W88048   8.836  36.633   0.815
23064W        W88049  27.582  19.168   4.139
23065W        W88050   0.364  25.997   4.717
23066W        W88051  30.923   9.775  11.002
23067W        W88052  13.888   6.633  13.827
23068W        W88053  28.467  34.978  10.715
23069W        W88054  21.713  32.408   5.560
23070W        W88055  26.629  21.841   0.471
23071W        W88056  17.999  31.239  12.196
23072W        W88057  41.802  25.720   1.887
23073W        W88058   5.666  29.108  13.518
23074W        W88059   5.886   4.617  13.794
23075W        W88060  34.547  33.886   3.880
23076W        W88061  16.754   7.829   2.280
23077W        W88062   3.348  14.398   4.184
23078W        W88063  41.560  18.661  12.094
23079W        W88064  28.519  22.450  11.409
23080W        W88065  44.769  38.968  14.433
23081W        W88066  24.508  35.639   3.534
23082W        W88067  40.326   7.913   4.204
23083W        W88068  32.839   3.716   4.750
23084W        W88069  13.096  32.883  11.089
23085W        W88070   5.424  14.343   3.281
23086W        W88071  43.794  12.506   2.744
23087W        W88072  38.957  18.554  12.913
23088W        W88073  21.499  29.468  13.438
23089W        W88074  22.043  36.021  11.077
23090W        W88075  32.046   1.670   4.125
23091W        W88076  44.278  23.918   4.103
23092W        W88077  14.897  32.222  14.803
23093W        W88078   1.637  19.950  11.514
23094W        W88079   0.900  41.306  14.123
23095W        W88080  28.585  43.069   3.701
23096W        W88081  34.306   5.906  11.401
23097W        W88082  38.328   0.253  12.162
23098W        W88083   9.875   4.319  11.413
23099W        W88084  40.834   3.508   3.772
23100W        W88085  17.233  27.212  13.860
23101W        W88086  28.948  22.690   4.850
23102W        W88087  35.085  20.694  13.996
23103W        W88088  34.124  15.224   4.774
23104W        W88089   0.664  31.569   3.679
23105W        W88090   6.330  31.690  14.328
23106W        W88091  31.155  34.353  11.108
23107W        W88092  13.282  28.906  11.054
23108W        W88093   3.220  37.006   0.953
23109W        W88094  37.860   4.331  13.362
23110W        W88095   4.269  30.396   1.776
23111W        W88096  28.153  26.438   2.309
23112W        W88097  32.242   7.107  12.923
23113W        W88098   3.863  16.619   0.750
23114W        W88099  34.084  10.238  11.092
23115W        W88100   5.123   5.932   9.953
23116W        W88101   6.858  28.618  10.710
23117W        W88102  22.170  26.578   3.201
23118W        W88103  35.583   8.772   1.426
23119W        W88104  36.905  35.512  13.697
23120W        W88105  22.227   0.976   3.345
23121W        W88106  24.763  15.867   1.868
23122W        W88107  42.488  31.967   0.007
23123W        W88108  15.324   3.729   0.731
23124W        W88109  28.719   0.780  11.236
23125W        W88110   0.611  15.495  11.865
23126W        W88111  24.704  38.598  12.687
23127W        W88112  44.714  28.122  13.167
23128W        W88113  14.096  26.055  14.441
23129W        W88114   0.976  15.685   5.014
23130W        W88115  42.899  14.082   1.840
23131W        W88116  11.429   2.299   3.928
23132W        W88117   2.632  43.786   2.354
23133W        W88118  19.030  12.053  14.124
23134W        W88119  20.068  39.572  13.966
23135W        W88120   7.435  19.327   0.340
23136W        W88121   9.256  24.134   3.418
23137W        W88122   7.920  12.713  12.317
23138W        W88123  33.665  12.399   3.764
23139W        W88124  28.897  38.966  11.184
23140W        W88125  15.092  44.769   3.232
23141W        W88126  40.045  27.926  11.598
23142W        W88127  18.782  21.584   0.316
23143W        W88128  43.371  40.414  13.705
23144W        W88129  11.156   6.106  13.484
23145W        W88130  43.869  33.640   2.943
23146W        W88131  21.272  10.113  14.976
23147W        W88132  36.556  30.127   2.385
23148W        W88133  38.531  16.010   3.304
23149W        W88134  31.812  14.344  11.539
23150W        W88135  38.395  31.432  10.958
23151W        W88136  42.329  37.438   1.791
23152W        W88137   2.370  22.750   0.239
23153W        W88138  18.324   4.699  10.724
23154W        W88139  29.902  39.792   3.255
23155W        W88140   7.485  38.995   9.874
23156W        W88141  29.068  12.277  12.626
23157W        W88142  15.682  34.324   1.906
23158W        W88143  41.022   0.111  13.942
23159W        W88144  24.853  36.475  13.270
23160W        W88145  42.843  31.817  14.550
23161W        W88146  14.103  36.811  10.799
23162W        W88147   9.706   7.764  13.787
23163W        W88148  26.496  15.195   0.584
23164W        W88149   4.172   9.885  14.090
23165W        W88150  37.822  39.452  10.989
23166W        W88151   9.794   3.334  14.511
23167W        W88152  39.369  44.712   2.827
23168W        W88153  20.004  41.772   4.569
23169W        W88154  40.523  39.052  13.758
23170W        W88155  17.646  10.483   0.374
23171W        W88156  23.770   5.349   1.920
23172W        W88157  26.816  26.568   4.223
23173W        W88158  30.352   3.479  10.764
23174W        W88159   9.413  18.118  13.484
23175W        W88160  27.637  23.178  12.154
23176W        W88161  16.979  22.314  11.182
23177W        W88162  15.588  12.850   2.168
23178W        W88163  25.007   8.674  10.690
23179W        W88164   9.914  19.460   0.451
23180W        W88165  32.659  13.813  14.557
23181W        W88166  14.287  31.509  11.503
23182W        W88167  28.080  14.795   1.276
23183W        W88168  13.045  44.295   3.855
23184W        W88169  11.843   6.171   3.208
23185W        W88170  24.049  21.808   3.189
23186W        W88171  25.755   7.927   4.077
23187W        W88172  37.126  11.673  12.924
23188W        W88173  44.371  15.530   0.214
23189W        W88174   3.809  36.318  12.001
23190W        W88175  12.199   2.883  13.454
23191W        W88176   3.938  18.858   1.744
23192W        W88177   8.185  17.205  10.720
23193W        W88178  32.459   3.184   0.528
23194W        W88179  17.343   9.879   3.066
23195W        W88180   6.034  15.753   2.213
23196W        W88181   4.648  32.121   1.671
23197W        W88182  13.329  38.788   0.766
23198W        W88183   6.323  19.501   4.080
23199W        W88184   8.673  30.499  13.139
23200W        W88185   5.962  35.888   3.308
23201W        W88186   5.909   1.280   2.123
23202W        W88187   8.422  22.491  14.711
23203W        W88188  12.563   7.689  11.085
23204W        W88189  37.476  32.954  13.111
23205W        W88190  32.790  30.227  12.014
23206W        W88191  38.931  42.875  12.372
23207W        W88192  27.097   8.050   2.350
23208W        W88193  15.682  33.419  10.666
23209W        W88194  23.706  35.524  12.599
23210W        W88195  32.988  33.974   4.020
23211W        W88196  26.367  28.047  13.408
23212W        W88197  27.084  38.536  12.379
23213W        W88198   4.655  26.340   2.558
23214W        W88199  42.814  33.932   4.207
23215W        W88200  34.948  10.907  12.967
23216W        W88201  36.575  31.253  14.107
23217W        W88202   3.211  36.992   1.499
23218W        W88203   8.439  24.682   0.774
23219W        W88204   6.940   4.755  11.608
23220W        W88205  30.081  18.426  12.923
23221W        W88206   9.812  30.700   3.135
23222W        W88207   8.409  30.003   2.352
23223W        W88208  20.593  26.709  10.441
23224W        W88209   7.108   1.024   2.811
23225W        W88210   3.262   6.831   0.193
23226W        W88211   3.230  41.008  13.898
23227W        W88212  43.427  34.780   0.280
23228W        W88213  35.442   2.756   3.911
23229W        W88214   7.904  38.841  10.138
23230W        W88215  29.595  35.872   0.703
23231W        W88216  12.758  23.604   3.781
23232W        W88217   3.953  13.858  12.987
23233W        W88218   7.341  35.871   3.635
23234W        W88219   2.757  35.465   0.385
23235W        W88220  37.496  34.149  11.481
23236W        W88221  14.253   3.751   3.970
23237W        W88222  18.194  13.210   1.490
23238W        W88223   6.471  34.589   3.184
23239W        W88224   2.338  20.090   3.367
23240W        W88225  24.079  11.755  11.730
23241W        W88226  21.597   9.448   3.271
23242W        W88227  38.357  25.194   5.073
23243W        W88228   6.928  15.586   2.506
23244W        W88229   6.696  41.906  13.006
23245W        W88230  21.220  31.372  13.822
23246W        W88231   3.741  11.589  13.957
23247W        W88232  21.291  41.009  10.776
23248W        W88233  12.131  22.168  14.815
23249W        W88234  26.504  24.664   3.825
23250W        W88235  43.974  23.029  13.967
23251W        W88236  29.649  30.546  14.289
23252W        W88237  37.863   6.487   4.937
23253W        W88238   3.844  31.208  11.551
23254W        W88239  25.029  10.096  13.849
23255W        W88240  19.592  24.201   3.649
23256W        W88241  37.654  24.942   2.860
23257W        W88242  33.631  19.254  10.806
23258W        W88243  33.053  42.988   0.016
23259W        W88244  22.628  37.594  14.870
23260W        W88245  40.062  39.981  12.537
23261W        W88246  31.354  39.758  10.918
23262W        W88247   8.963  11.635  14.573
23263W        W88248  22.839  19.662  11.609
23264W        W88249  31.982  11.339   0.842
23265W        W88250  33.053  25.881   3.777
23266W        W88251  39.967  19.033   3.185
23267W        W88252  22.853  16.888   2.216
23268W        W88253   8.118   8.094   0.928
23269W        W88254  37.489  39.003   1.202
23270W        W88255   1.966   4.273   2.824
23271W        W88256  34.375  24.304  11.165
23272W        W88257   6.616  24.264   2.218
23273W        W88258  39.801  32.321  11.986
23274W        W88259  22.766  10.730   0.671
23275W        W88260   2.341  14.110   0.368
23276W        W88261  39.300  36.453  12.569
23277W        W88262  11.203  31.962   4.845
23278W        W88263  22.120  40.120   4.704
23279W        W88264  30.372  15.152  10.402
23280W        W88265   0.209  19.831  12.452
23281W        W88266   0.463   9.682   2.365
23282W        W88267  23.791  37.866   3.823
23283W        W88268  17.301  28.618   1.336
23284W        W88269  11.332  40.886   3.290
23285W        W88270  13.147  28.718   1.198
23286W        W88271   3.804  26.168   3.041
23287W        W88272  38.982  12.984   9.901
23288W        W88273   5.140  27.661   2.372
23289W        W88274  17.241  14.678   2.415
23290W        W88275  22.647  38.874   3.762
23291W        W88276  41.759  27.500   1.384
23292W        W88277  36.532  33.592  11.574
23293W        W88278  37.992  15.847  14.392
23294W        W88279  28.113  42.469   2.013
23295W        W88280  42.038  27.251   2.259
23296W        W88281   5.327  12.080   3.760
23297W        W88282   0.923  41.334  11.840
23298W        W88283  11.767  35.308  13.468
23299W        W88284  44.746  12.499  11.939
23300W        W88285  26.905   8.293  12.552
23301W        W88286  32.759  26.761   1.674
23302W        W88287  12.093  12.818  11.065
23303W        W88288  26.454  33.571  10.965
23304W        W88289  40.806   5.316  12.468
23305W        W88290  37.561  36.372  10.655
23306W        W88291   8.794   8.918   2.462
23307W        W88292  16.822  18.758   0.456
23308W        W88293  13.864   6.712   2.790
23309W        W88294   3.931  37.788  11.989
23310W        W88295  41.605  17.318  14.766
23311W        W88296  38.433  33.465  14.401
23312W        W88297   3.706  43.826  13.496
23313W        W88298  38.359  21.034  11.604
23314W        W88299  28.973   1.719   4.957
23315W        W88300  20.217  34.741  13.432
23316W        W88301  26.001  15.125  13.420
23317W        W88302  43.013  27.218  11.955
23318W        W88303  10.663  44.360  14.491
23319W        W88304  10.695  36.454   4.691
23320W        W88305  29.983  38.908   3.803
23321W        W88306  12.027   6.838   2.328
23322W        W88307   4.146  18.190  10.759
23323W        W88308  34.022  44.758   3.119
23324W        W88309  28.678  20.346   2.743
23325W        W88310  42.934  40.998  12.906
23326W        W88311   7.755  17.285  11.001
23327W        W88312  36.439  32.509  14.309
23328W        W88313  35.894  33.039   3.690
23329W        W88314  34.574   3.215  12.927
23330W        W88315  16.380  16.618   3.209
23331W        W88316   4.946  20.634   3.353
23332W        W88317   2.418  12.139   3.720
23333W        W88318  17.620  37.521  10.443
23334W        W88319   1.178  12.355  11.976
23335W        W88320   8.781   9.426  14.402
23336W        W88321  33.655  37.364   1.222
23337W        W88322  23.710  43.189   3.305
23338W        W88323  37.740  25.659   9.958
23339W        W88324   0.921  43.460   4.655
23340W        W88325  19.724  18.893   0.789
23341W        W88326  24.474  40.942  11.710
23342W        W88327  41.778  30.715   3.139
23343W        W88328   4.240  21.235  10.992
23344W        W88329  31.806  13.160   2.796
23345W        W88330  22.308  30.619  11.511
23346W        W88331  27.605   3.684  14.829
23347W        W88332  37.868  42.462  13.748
23348W        W88333  33.998   4.771  11.442
23349W        W88334   5.005  26.500   2.901
23350W        W88335  18.769  29.979  14.424
23351W        W88336  32.019  13.668   2.762
23352W        W88337  44.436  12.661  10.579
23353W        W88338   8.312  33.298  11.674
23354W        W88339  33.483   8.681  14.739
23355W        W88340  15.800  13.317   3.815
23356W        W88341  36.006  25.233  11.246
23357W        W88342  38.857  21.616   1.690
23358W        W88343   9.712  15.817   0.821
23359W        W88344  29.499   4.499   2.638
23360W        W88345  34.629   6.575   2.562
23361W        W88346  32.299  33.678   2.410
23362W        W88347   6.742  11.324  14.599
23363W        W88348  14.729  26.416   4.092
23364W        W88349  44.770  28.927  13.464
23365W        W88350  24.598   6.957   2.368
23366W        W88351  38.396  24.995  13.595
23367W        W88352  39.355   4.696  14.040
23368W        W88353  33.810   0.711  14.929
23369W        W88354  24.016  18.116   3.251
23370W        W88355  44.841  40.944  13.351
23371W        W88356  39.290  39.084   0.165
23372W        W88357  15.795  13.547  12.104
23373W        W88358   0.309  24.254  10.331
23374W        W88359  40.923   4.378  13.506
23375W        W88360  35.603   4.760  10.888
23376W        W88361  15.965   7.344  11.648
23377W        W88362  12.679   9.678   1.824
23378W        W88363  25.981   1.893   0.415
23379W        W88364   9.665  13.539   0.009
23380W        W88365  38.923   8.281  12.424
23381W        W88366   4.191  17.660   3.708
23382W        W88367  35.832  16.074  12.371
23383W        W88368  37.075  43.065  12.773
23384W        W88369  30.045  14.080  12.874
23385W        W88370  31.709   4.914  11.141
23386W        W88371   5.814   5.810   2.922
23387W        W88372  35.594  39.012   2.064
23388W        W88373  40.745   4.247  10.739
23389W        W88374  10.178  18.466   2.768
23390W        W88375  37.153  13.582   4.472
23391W        W88376   4.886   3.546  10.336
23392W        W88377  44.278  26.933  11.556
23393W        W88378  27.175   6.038   2.666
23394W        W88379   2.205   7.141   4.237
23395W        W88380  40.893  13.764  14.520
23396W        W88381  25.021  43.746  10.277
23397W        W88382  41.248  39.746   2.702
23398W        W88383   0.676  38.132   2.819
23399W        W88384   5.188  15.814   2.765
23400W        W88385   7.028  31.528  14.923
23401W        W88386  32.906   0.345  13.306
23402W        W88387  33.888  17.562   2.563
23403W        W88388  28.670   2.482  14.038
23404W        W88389   1.205  13.831   2.794
23405W        W88390   0.460   5.960   3.319
23406W        W88391  19.271  18.517  12.370
23407W        W88392   3.964  30.054   2.198
23408W        W88393  17.905  34.546   0.977
23409W        W88394  44.930  15.313  13.110
23410W        W88395   6.925  34.563   3.886
23411W        W88396   6.939  36.461   2.185
23412W        W88397  14.929   7.594   2.797
23413W        W88398  36.074  28.657  14.297
23414W        W88399  14.549  44.859   3.108
23415W        W88400  26.528  18.970  14.803
23416W        W88401  20.284  29.494  13.886
23417W        W88402   8.836  18.343  14.300
23418W        W88403   5.310  27.019  10.705
23419W        W88404  31.448  25.494  14.820
23420W        W88405  42.012  32.851   4.597
23421W        W88406   5.984  25.043  11.865
23422W        W88407   3.405  24.576  13.370
23423W        W88408   6.422  19.785  11.476
23424W        W88409  15.412  11.014  13.528
23425W        W88410  22.712  29.183   2.712
23426W        W88411  11.722   3.944  12.419
23427W        W88412  30.777   3.238  13.621
23428W        W88413  10.923  36.446  13.390
23429W        W88414  29.026  19.455  13.501
23430W        W88415   5.842  40.961  14.088
23431W        W88416  27.518   2.260   0.932
23432W        W88417  43.237   5.936   3.590
23433W        W88418  15.542  17.149   2.451
23434W        W88419   7.727  14.075  12.238
23435W        W88420  30.331  22.568   4.122
23436W        W88421   6.480  32.836  13.052
23437W        W88422   0.920   3.954  12.521
23438W        W88423  26.726   5.903   0.004
23439W        W88424   5.700  27.605  10.891
23440W        W88425  22.756   0.538   4.167
23441W        W88426  26.607  42.218   2.327
23442W        W88427  21.558  35.367  11.819
23443W        W88428  39.891  40.336  12.190
23444W        W88429  22.680  34.058   1.503
23445W        W88430  24.012  29.664   4.582
23446W        W88431   3.983   5.878  13.917
23447W        W88432   3.466  26.720  11.543
23448W        W88433  37.624  11.815  12.952
23449W        W88434   3.822   0.573   0.216
23450W        W88435   0.819  21.151  12.530
23451W        W88436  42.463  15.649   4.601
23452W        W88437  11.731  38.017   0.110
23453W        W88438  11.258   5.326   0.038
23454W        W88439  12.301  28.046  11.574
23455W        W88440  17.904  16.065  12.958
23456W        W88441  31.732   6.772   1.151
23457W        W88442  33.967  20.012   3.780
23458W        W88443  35.418  16.100  13.732
23459W        W88444  16.164  19.889   1.525
23460W        W88445  30.066   3.023   0.848
23461W        W88446  19.974  27.858  11.255
23462W        W88447  17.879  38.695   3.183
23463W        W88448  14.755   4.379  14.830
23464W        W88449   9.795  17.670  13.399
23465W        W88450   5.417  17.323  12.889
23466W        W88451  31.101  14.032  14.808
23467W        W88452  23.892   8.144  13.971
23468W        W88453  22.578  18.303   3.296
23469W        W88454   0.916  11.713  10.523
23470W        W88455  27.769   3.925   1.594
23471W        W88456  24.154   6.673   2.782
23472W        W88457  39.039  24.421   3.858
23473W        W88458   3.654  15.182   4.509
23474W        W88459  30.081  42.608   4.918
23475W        W88460   0.868  31.085  14.789
23476W        W88461   8.256  26.657  11.861
23477W        W88462  21.141  14.522   0.830
23478W        W88463   0.632  31.474  10.921
23479W        W88464  42.392  30.121  12.892
23480W        W88465  38.425  16.122  14.491
23481W        W88466  37.374  33.041   1.844
23482W        W88467  36.347   3.685   1.243
23483W        W88468  15.127  41.262   3.444
23484W        W88469   9.141  14.577   0.838
23485W        W88470  34.929  34.485   0.275
23486W        W88471   0.020   3.147  13.779
23487W        W88472   8.702  44.887   1.749
23488W        W88473   6.455   7.894  14.732
23489W        W88474  35.562  28.242   1.126
23490W        W88475   5.840  35.055  10.559
23491W        W88476  38.348  11.114  10.427
23492W        W88477  17.605   8.926   4.323
23493W        W88478  28.645  22.335  13.410
23494W        W88479  20.762  10.301  13.778
23495W        W88480  26.707  32.499   3.613
23496W        W88481  12.178   3.878   3.999
23497W        W88482  10.411   8.347  12.141
23498W        W88483  27.790  16.018  11.155
23499W        W88484  41.912  17.057   4.129
23500W        W88485  30.335  22.518  12.867
23501W        W88486  25.474   6.534  13.714
23502W        W88487   4.428  14.360   1.264
23503W        W88488   0.526  10.643  11.099
23504W        W88489  21.027  41.582   0.695
23505W        W88490   2.180  29.194  11.223
23506W        W88491  27.580  41.607  11.125
23507W        W88492  29.026  16.327  13.354
23508W        W88493  33.141  10.089   2.424
23509W        W88494  29.974   5.282   1.303
23510W        W88495  35.012   5.281   2.383
23511W        W88496   6.662  38.047  11.579
23512W        W88497  23.706  18.123   4.751
23513W        W88498   4.256   6.405  14.341
23514W        W88499  26.184  28.475   1.953
23515W        W88500  19.085   5.666  14.000
23516W        W88501  22.860  30.045   1.377
23517W        W88502   6.898   9.149   1.931
23518W        W88503   2.853  10.158   2.274
23519W        W88504   0.905  35.630  14.989
23520W        W88505  44.682   7.370   4.647
23521W        W88506  43.915  23.276   3.197
23522W        W88507  38.619  34.407   1.044
23523W        W88508  34.916  37.383   2.163
23524W        W88509  22.201  12.490  14.788
23525W        W88510  32.545   5.422   2.616
23526W        W88511  16.299  12.120   3.619
23527W        W88512   5.201  20.705   1.711
23528W        W88513  12.082  26.583  13.755
23529W        W88514  11.168  12.292   0.012
23530W        W88515  44.419  11.772   3.112
23531W        W88516  43.702  10.631   3.245
23532W        W88517  10.782  21.642  10.633
23533W        W88518  30.208  32.880   1.817
23534W        W88519  20.010  41.009  11.239
23535W        W88520  16.103  23.482   1.466
23536W        W88521  41.620  17.807  12.038
23537W        W88522  22.992  44.287  11.506
23538W        W88523  28.941  27.417   0.968
23539W        W88524  10.784  14.741   2.162
23540W        W88525  11.727  10.574   0.928
23541W        W88526   6.933  21.136  14.742
23542W        W88527   6.242   5.833  12.116
23543W        W88528  24.501  39.158   4.649
23544W        W88529  19.676   1.977  13.347
23545W        W88530  15.207  10.825  13.041
23546W        W88531  39.883  40.767  11.667
23547W        W88532  27.546  39.967   2.329
23548W        W88533  18.018  25.439  13.423
23549W        W88534  43.406  28.109  14.251
23550W        W88535  18.502   6.257   0.725
23551W        W88536  34.369  20.629  14.900
23552W        W88537  40.859   4.909   3.851
23553W        W88538  21.729  18.001  12.860
23554W        W88539  29.081   7.838   0.556
23555W        W88540  15.111   0.891   0.386
23556W        W88541   9.742  24.340   4.708
23557W        W88542  27.590  27.960   0.179
23558W        W88543  30.224  18.971   1.343
23559W        W88544  15.652  17.865   4.115
23560W        W88545  23.924   3.287  11.606
23561W        W88546   1.537  29.716   4.137
23562W        W88547  39.992  27.043  12.000
23563W        W88548  12.135  13.793  10.694
23564W        W88549   3.773  42.962   2.880
23565W        W88550  11.380  42.294  14.813
23566W        W88551  40.032  41.416   2.772
23567W        W88552  43.565  20.637  12.194
23568W        W88553  13.318   6.004   3.312
23569W        W88554  33.244  14.131   3.099
23570W        W88555  24.664  10.740   4.753
23571W        W88556  19.633  17.304   4.475
23572W        W88557  24.004  29.429   1.602
23573W        W88558  32.106   3.113   4.764
23574W        W88559  41.457  28.409   5.212
23575W        W88560   9.785  39.243  13.967
23576W        W88561   7.713  24.581   0.208
23577W        W88562  16.211  25.208   3.182
23578W        W88563  17.664  31.657  11.228
23579W        W88564   6.146  41.152  14.772
23580W        W88565  28.995  16.578  13.893
23581W        W88566  23.798  11.502   1.357
23582W        W88567  28.423  35.617   4.604
23583W        W88568   6.351  36.316  12.555
23584W        W88569   0.085  26.627  10.649
23585W        W88570   8.635  28.143  11.161
23586W        W88571  10.059  21.655  12.040
23587W        W88572  29.524  13.281   2.748
23588W        W88573  32.015  36.781   2.776
23589W        W88574  16.360  26.543   0.804
23590W        W88575  10.072  36.380  12.557
23591W        W88576   1.789  12.266   2.295
23592W        W88577  40.751  43.262   2.377
23593W        W88578  17.182  20.800   3.288
23594W        W88579  22.763   0.970  11.634
23595W        W88580   1.336  25.001  11.581
23596W        W88581  11.271  28.071  10.561
23597W        W88582  20.997   8.604   0.386
23598W        W88583  13.331  12.022   1.706
23599W        W88584  29.417  18.681   0.006
23600W        W88585  35.566  33.862   3.926
23601W        W88586  42.910  11.453   1.055
23602W        W88587  21.114  31.154   2.220
23603W        W88588   7.003  13.746  14.932
23604W        W88589  42.174  33.415   3.735
23605W        W88590  25.176   9.111   4.249
23606W        W88591  19.401  10.667  11.620
23607W        W88592  27.992   2.426   0.793
23608W        W88593  39.062  28.456   2.572
23609W        W88594  10.836  17.620  14.944
23610W        W88595  36.079  13.097  11.659
23611W        W88596  29.085  20.782  14.440
23612W        W88597   4.538  19.309  13.983
23613W        W88598  44.466  23.530   1.412
23614W        W88599   1.392  21.513  14.443
23615W        W88600   9.062  22.802  13.389
23616W        W88601   7.163   9.276  11.063
23617W        W88602   6.815  26.102   1.339
23618W        W88603   5.622  16.504  11.298
23619W        W88604  18.050  40.876  14.431
23620W        W88605  26.489   3.976   1.265
23621W        W88606  17.275  28.295  11.667
23622W        W88607  27.171  22.721  11.103
23623W        W88608  42.535   2.494   3.176
23624W        W88609  44.650  36.352   9.758
23625W        W88610  29.365   1.956   2.436
23626W        W88611  34.475  35.873   4.585
23627W        W88612  14.509   4.513  13.391
23628W        W88613  13.700  32.862  10.603
23629W        W88614   1.403  21.245  14.899
23630W        W88615   6.225  11.104   4.152
23631W        W88616  12.404  13.597  14.043
23632W        W88617  43.877  14.530  12.438
23633W        W88618  36.940  31.972  11.007
23634W        W88619   3.987   5.427   0.227
23635W        W88620   0.859  32.557  14.358
23636W        W88621   2.424  28.910   2.508
23637W        W88622  16.220  12.820   4.407
23638W        W88623   4.272   5.191   4.118
23639W        W88624  20.546  43.242  12.923
23640W        W88625  28.112  19.720   1.379
23641W        W88626  44.642   6.299  10.401
23642W        W88627  27.991  11.766  12.153
23643W        W88628  29.069  15.395  14.674
23644W        W88629  13.516  44.167   2.768
23645W        W88630  32.084  15.582  13.997
23646W        W88631   0.430  18.502  14.984
23647W        W88632  15.187  31.164  11.922
23648W        W88633  19.498  16.712   3.610
23649W        W88634  37.263  43.931  10.370
23650W        W88635   8.330  16.064  13.811
23651W        W88636   4.323  26.173   3.868
23652W        W88637  17.309  20.780  13.531
23653W        W88638  38.593  23.725   3.677
23654W        W88639  29.250   6.168   4.391
23655W        W88640  34.728  35.882  13.062
23656W        W88641  32.838  30.092   0.760
23657W        W88642  43.283  12.382  14.457
23658W        W88643  41.830   2.188  11.142
23659W        W88644   0.434  14.258  10.988
23660W        W88645  16.119  26.430   4.510
23661W        W88646  22.478   0.772   4.687
23662W        W88647  23.709   4.401   0.793
23663W        W88648   7.434  34.419  11.614
23664W        W88649   8.914  40.312  12.508
23665W        W88650  39.744  10.840  14.040
23666W        W88651  41.512  13.629   3.349
23667W        W88652  10.194  34.814  10.803
23668W        W88653  34.018  23.105  13.354
23669W        W88654  27.633  40.498  12.028
23670W        W88655  25.772  10.136   5.103
23671W        W88656  21.232  12.279  13.685
23672W        W88657  43.523  11.901  12.480
23673W        W88658  17.645  36.578   0.709
23674W        W88659   8.447   3.851  12.422
23675W        W88660  22.047  32.148   0.270
23676W        W88661  44.073   3.574   1.870
23677W        W88662  44.996   5.291  14.749
23678W        W88663  31.450  14.484   4.335
23679W        W88664  26.104  32.773  11.258
23680W        W88665  37.006  32.389  14.461
23681W        W88666   4.958  24.520  13.554
23682W        W88667  37.831  30.704   1.779
23683W        W88668   8.353  23.548   3.632
23684W        W88669   7.875   8.432  12.423
23685W        W88670  35.003   3.903  13.140
23686W        W88671  27.468  36.913  13.379
23687W        W88672  36.156  44.895   4.490
23688W        W88673  32.077  44.818   2.230
23689W        W88674  29.938   9.715   1.874
23690W        W88675  25.509  13.327  11.820
23691W        W88676  16.518   6.470   2.174
23692W        W88677  23.454  28.428  11.509
23693W        W88678  29.499  16.148  14.581
23694W        W88679  10.970  32.518  14.550
23695W        W88680  42.822  40.015   4.916
23696W        W88681  44.326  29.975  14.306
23697W        W88682  17.033  20.175   0.832
23698W        W88683  21.353  36.768   3.376
23699W        W88684  36.867  25.568   3.813
23700W        W88685   6.451   2.542  14.483
23701W        W88686  21.251   3.291   1.530
23702W        W88687  16.873  38.868   3.278
23703W        W88688  44.262   8.846  13.478
23704W        W88689  36.486   9.866   1.719
23705W        W88690  31.866  15.153   4.077
23706W        W88691   4.498  33.422   4.500
23707W        W88692  27.725  29.340   0.826
23708W        W88693  19.471   9.285  14.840
23709W        W88694  37.589  17.759   0.454
23710W        W88695  28.139  34.948  11.128
23711W        W88696  22.599  21.863  13.928
23712W        W88697  27.171  37.794  13.893
23713W        W88698   2.453  10.252   5.053
23714W        W88699  30.934   7.409  12.640
23715W        W88700  30.191   8.713   1.254
23716W        W88701  30.887  40.279  11.456
23717W        W88702  17.760  10.814  12.537
23718W        W88703  15.337  25.936   0.278
23719W        W88704  12.965  14.066  11.426
23720W        W88705  31.019  36.455  14.018
23721W        W88706  38.013  10.735   4.486
23722W        W88707  37.306   2.389  14.044
23723W        W88708  15.718  36.901   0.974
23724W        W88709  21.264   3.903   1.761
23725W        W88710  30.673  33.537   1.502
23726W        W88711  29.372  11.210  10.687
23727W        W88712  23.479  27.894  12.783
23728W        W88713  11.490  15.798   4.552
23729W        W88714  36.558  16.332   3.051
23730W        W88715  17.215  42.445   0.823
23731W        W88716   0.682  29.074  14.353
23732W        W88717  30.558   0.957  13.386
23733W        W88718   3.007  32.881  10.728
23734W        W88719  12.950  15.560   4.982
23735W        W88720   8.619   5.328  14.887
23736W        W88721   9.703  31.071   1.805
23737W        W88722   2.914  27.494   4.624
23738W        W88723  41.516  34.943   2.847
23739W        W88724  38.976  23.232  13.085
23740W        W88725  15.306  38.883   0.812
23741W        W88726  37.894  41.629  14.419
23742W        W88727  42.163  14.163  11.111
23743W        W88728  33.461   7.968  13.876
23744W        W88729   3.430  20.056  13.522
23745W        W88730  20.993   0.232  12.683
23746W        W88731   0.634  34.070  13.598
23747W        W88732   7.888  40.592  12.516
23748W        W88733  40.319  10.340   4.674
23749W        W88734  26.737  14.087   3.435
23750W        W88735  18.306  24.003   1.776
23751W        W88736  32.894   8.392  13.885
23752W        W88737   5.199  39.068   2.685
23753W        W88738  16.678  37.834   3.103
23754W        W88739  20.007  39.878   1.575
23755W        W88740  23.027  14.366  11.578
23756W        W88741  20.425  38.432   1.633
23757W        W88742  23.426   1.385   4.058
23758W        W88743  10.733  32.524  13.881
23759W        W88744  22.190  14.540  13.226
23760W        W88745  11.183   3.505   3.773
23761W        W88746  20.053   0.339  12.920
23762W        W88747   8.817  29.480  11.492
23763W        W88748  20.323   0.248   2.219
23764W        W88749  16.445  11.020   1.359
23765W        W88750  24.955   0.448   2.189
23766W        W88751   2.253  20.253  12.609
23767W        W88752  12.617   2.245  10.654
23768W        W88753  32.892  42.577   0.295
23769W        W88754   8.637   4.714   5.633
23770W        W88755   2.199  42.168  12.102
23771W        W88756  39.839   1.899  11.332
23772W        W88757  22.284  14.109   1.764
23773W        W88758  22.769  42.034   2.353
23774W        W88759  13.090   2.936   3.653
23775W        W88760   9.685  42.418   1.458
23776W        W88761  24.009   0.884   3.618
23777W        W88762  36.958   7.493  14.279
23778W        W88763  37.617  31.412  12.472
23779W        W88764  25.253  16.991   3.915
23780W        W88765  36.011   5.290   4.592
23781W        W88766   5.917  26.456   1.764
23782W        W88767  13.389  37.754   0.901
23783W        W88768  20.654  24.785  11.533
23784W        W88769  16.579   3.602   3.663
23785W        W88770   5.709  23.774   3.347
23786W        W88771   9.825  16.208   0.455
23787W        W88772  31.878  17.535  13.014
23788W        W88773  24.121  42.540   4.373
23789W        W88774  33.949   2.882   1.943
23790W        W88775  44.916  26.149   2.741
23791W        W88776   4.665  31.436   4.919
23792W        W88777  14.770   0.973  12.888
23793W        W88778  13.867  36.440  12.954
23794W        W88779  18.846  24.566  13.065
23795W        W88780  20.754  32.102   3.810
23796W        W88781  24.040   0.176  14.835
23797W        W88782  24.566  25.495  14.902
23798W        W88783  30.067   4.910   3.760
23799W        W88784   8.125  38.585  12.615
23800W        W88785   8.909   6.648  14.631
23801W        W88786   0.693  42.023   3.208
23802W        W88787  44.401  21.255   0.801
23803W        W88788  37.523  15.084   1.295
23804W        W88789  11.542  10.348   1.790
23805W        W88790  34.104   5.838   4.212
23806W        W88791   9.898  29.594   3.462
23807W        W88792  13.744  13.886   0.950
23808W        W88793  12.797  25.144  11.631
23809W        W88794  34.373  26.187  13.398
23810W        W88795  26.404  21.554   3.114
23811W        W88796  42.369  12.017  12.908
23812W        W88797  31.710   5.679   0.766
23813W        W88798  13.525  16.748   4.651
23814W        W88799  40.583  13.447   4.283
23815W        W88800  24.909   2.829   3.678
23816W        W88801  26.724  40.955  13.147
23817W        W88802  12.091   6.233   1.854
23818W        W88803  35.452   7.160   0.535
23819W        W88804   2.025  42.963  11.527
23820W        W88805   2.252  16.268  13.312
23821W        W88806   9.965  30.439  11.394
23822W        W88807  41.551  30.328   0.898
23823W        W88808  21.997  23.568  14.982
23824W        W88809  11.145  34.180   4.658
23825W        W88810  12.804  11.275  10.746
23826W        W88811  20.022  28.326   2.300
23827W        W88812  28.505   5.953  13.089
23828W        W88813  18.207  37.924  12.923
23829W        W88814  23.625  20.623   3.271
23830W        W88815  37.107   5.287   4.791
23831W        W88816  27.458  36.396  13.556
23832W        W88817  31.230  31.119  14.810
23833W        W88818  39.069  12.171   1.987
23834W        W88819  15.090  29.260  11.023
23835W        W88820  17.507  32.287   1.963
23836W        W88821  11.142  34.034  13.010
23837W        W88822  12.877   5.328  13.850
23838W        W88823  29.238  12.774   4.555
23839W        W88824  33.181   9.680   1.039
23840W        W88825  10.349  29.163  14.083
23841W        W88826  43.134   1.774   3.512
23842W        W88827  36.069  33.180   9.987
23843W        W88828  41.760  11.078   1.003
23844W        W88829  13.326  26.070   2.391
23845W        W88830  36.600  23.022  13.396
23846W        W88831  41.931  15.479  12.084
23847W        W88832  25.290  32.607   2.225
23848W        W88833  27.032   6.180  12.707
23849W        W88834   9.405  23.110  14.236
23850W        W88835  33.189  24.646  14.423
23851W        W88836  42.132  34.064  11.635
23852W        W88837  34.131   0.301  11.077
23853W        W88838  20.661  29.969  11.110
23854W        W88839  18.942  41.785   2.157
23855W        W88840  34.539  26.603  13.095
23856W        W88841  19.317   6.446  13.570
23857W        W88842  20.317  27.000   1.265
23858W        W88843  20.453   7.946  11.563
23859W        W88844  39.589  39.320  12.993
23860W        W88845  24.706  14.361  12.099
23861W        W88846   5.303  44.792   2.228
23862W        W88847   1.725  18.671  12.130
23863W        W88848  15.523  18.150   1.731
23864W        W88849  16.542  35.608   2.114
23865W        W88850  10.734  32.317  12.879
23866W        W88851  33.067  30.902  14.511
23867W        W88852   9.940   4.859  10.618
23868W        W88853  20.284  14.143  12.602
23869W        W88854   4.817  10.819   0.461
23870W        W88855  36.055  18.702   2.092
23871W        W88856  19.923  13.077   5.381
23872W        W88857   1.840  38.483   4.233
23873W        W88858  21.292  19.784   2.127
23874W        W88859  22.795  35.918  11.749
23875W        W88860  26.487  44.564  11.292
23876W        W88861  42.036  18.038  12.476
23877W        W88862   5.076   7.896  11.991
23878W        W88863  18.593  36.206  14.797
23879W        W88864  24.481  36.025   0.559
23880W        W88865  20.652  14.815  14.286
23881W        W88866  29.205  38.425  13.454
23882W        W88867   3.846  15.532   3.221
23883W        W88868  38.416  25.877   0.391
23884W        W88869   8.707  25.422   0.399
23885W        W88870  14.098  17.297  12.056
23886W        W88871  11.437   5.895  11.493
23887W        W88872  13.279   0.766  12.072
23888W        W88873  34.525  23.587   0.952
23889W        W88874  43.308  32.466   2.658
23890W        W88875  23.794  22.323  13.572
23891W        W88876   8.095  16.696  11.561
23892W        W88877  36.066   2.224  12.005
23893W        W88878  34.464  18.186   0.211
23894W        W88879   6.405  44.995   0.421
23895W        W88880  38.589   7.716  14.984
23896W        W88881   7.843   6.134   3.139
23897W        W88882  23.022   3.721  10.178
23898W        W88883  33.943  21.485   4.710
23899W        W88884  18.692  29.703   1.229
23900W        W88885  24.712  33.109  13.928
23901W        W88886  30.629  44.764  11.952
23902W        W88887  33.847  24.945   4.625
23903W        W88888  19.649  11.674  11.628
23904W        W88889  18.553  12.313   0.821
23905W        W88890  37.260  35.092   2.224
23906W        W88891  10.008  36.164   3.960
23907W        W88892  29.411  44.930  13.633
23908W        W88893  13.230  31.545  10.834
23909W        W88894  14.711  35.026   0.172
23910W        W88895   2.695  11.224  12.005
23911W        W88896  10.118  23.084   0.009
23912W        W88897  19.226   1.997  10.826
23913W        W88898   1.388  18.571  13.372
23914W        W88899  31.320   1.067  14.433
23915W        W88900  19.550  32.950  11.139
23916W        W88901   8.639  34.032   1.984
23917W        W88902  30.465  10.961  10.678
23918W        W88903  26.598   0.487  13.074
23919W        W88904  17.371  33.941  14.074
23920W        W88905   6.370   0.686  14.770
23921W        W88906  21.315  11.136   2.391
23922W        W88907  37.247  12.642  12.435
23923W        W88908   4.251  22.473   4.616
23924W        W88909  10.803  13.859  14.488
23925W        W88910  25.262  39.035  10.537
23926W        W88911  16.112  34.617   1.906
23927W        W88912  38.977  17.625   3.857
23928W        W88913  20.069  21.289  11.046
23929W        W88914  28.903  25.289   4.459
23930W        W88915  21.561  18.092  14.342
23931W        W88916  39.003  13.215   4.622
23932W        W88917  20.567  30.885   0.251
23933W        W88918  18.094  19.271  13.046
23934W        W88919  42.985  15.683   4.637
23935W        W88920  31.490   4.319  13.248
23936W        W88921  34.044  36.862  13.484
23937W        W88922  15.588  28.326   2.558
23938W        W88923  30.868  23.456  11.709
23939W        W88924   5.437   7.519   2.789
23940W        W88925  29.098   0.499   2.437
23941W        W88926   4.636   7.841   2.924
23942W        W88927  28.444   7.203   1.423
23943W        W88928  15.781  29.968  14.109
23944W        W88929   5.259  10.262  14.530
23945W        W88930  11.707  11.262   2.465
23946W        W88931  18.170  33.464   3.014
23947W        W88932   8.746  43.009  13.151
23948W        W88933  34.157  19.575   0.776
23949W        W88934   0.270  23.678   4.873
23950W        W88935  40.390  41.859  12.134
23951W        W88936  19.291   4.677   2.407
23952W        W88937  24.603  17.164   2.769
23953W        W88938  16.250  21.729   1.970
23954W        W88939  36.431   8.607   0.410
23955W        W88940  15.179   7.668   0.580
23956W        W88941  41.837  27.060  13.770
23957W        W88942  37.989  37.438   0.305
23958W        W88943  11.972  21.558   1.012
23959W        W88944   5.933  38.088  12.872
23960W        W88945  17.961  19.716  12.807
23961W        W88946  26.431  10.894  13.589
23962W        W88947   5.756  16.781   1.864
23963W        W88948  18.975   4.283  14.355
23964W        W88949  41.014  12.643   4.784
23965W        W88950  33.052  29.138   0.795
23966W        W88951  42.522  28.006   3.904
23967W        W88952  36.540  13.605  13.009
23968W        W88953   6.936  30.628   1.362
23969W        W88954   4.984  38.998  10.597
23970W        W88955  35.018  27.474   3.257
23971W        W88956  24.091  30.236   1.071
23972W        W88957  23.162  12.292   0.572
23973W        W88958   5.677  40.796   1.922
23974W        W88959  21.065  40.970  13.413
23975W        W88960  26.005  43.809   2.597
23976W        W88961  27.153  12.267   2.206
23977W        W88962  38.378  31.538   1.432
23978W        W88963  31.060  10.876  13.142
23979W        W88964  22.151   4.957   2.925
23980W        W88965  19.950  21.995  14.915
23981W        W88966  28.390   5.457   0.359
23982W        W88967  16.425   6.679   4.473
23983W        W88968  39.458   8.010   2.778
23984W        W88969  25.619   3.841   3.108
23985W        W88970  32.387  35.557   3.574
23986W        W88971  13.596  17.888   0.345
23987W        W88972  11.158   3.801  12.930
23988W        W88973   9.796  16.386  12.904
23989W        W88974  23.578  19.283   2.872
23990W        W88975   1.521  38.291  11.114
23991W        W88976   2.309  44.184   0.839
23992W        W88977  20.162  34.212  13.273
23993W        W88978  26.628  13.175   2.812
23994W        W88979  27.228  12.815   0.916
23995W        W88980  36.888  15.015   4.513
23996W        W88981   4.499  43.882   3.972
23997W        W88982  25.638  10.334  14.429
23998W        W88983  34.571  44.974  11.166
23999W        W88984  18.945  18.166  12.553
24000W        W88985  36.187   9.165   5.040
24001W        W88986  26.224  36.842   1.681
24002W        W88987  17.276  21.174  11.039
24003W        W88988  29.956   7.106   1.773
24004W        W88989  36.015  32.674  14.773
24005W        W88990  30.044  28.040   0.084
24006W        W88991  12.319   5.668  13.081
24007W        W88992   7.882  28.554  13.903
24008W        W88993  19.148   6.051   0.461
24009W        W88994  23.581  39.756  12.598
24010W        W88995  35.345   3.671  14.519
24011W        W88996  17.929  29.102   4.874
24012W        W88997  11.427  20.844   0.788
24013W        W88998  36.872   3.710   1.430
24014W        W88999  39.527   8.692  11.165
24015W        W89000  21.076  27.610   0.770
24016W        W89001  40.339  28.946  13.024
24017W        W89002  29.610  22.211   1.458
24018W        W89003  43.220  13.297  11.158
24019W        W89004  12.249  32.422   2.353
24020W        W89005   4.407  33.973  12.079
24021W        W89006  16.586  31.097   4.068
24022W        W89007  14.701  16.798   3.714
24023W        W89008  15.945  11.693  11.767
24024W        W89009  37.310  43.500   0.622
24025W        W89010  13.394  13.920   4.700
24026W        W89011  15.249   2.840   0.682
24027W        W89012  26.481  21.044   2.949
24028W        W89013  15.190  34.204   4.932
24029W        W89014  14.199  19.743  12.021
24030W        W89015  36.852  11.065  12.147
24031W        W89016  29.353  36.313  14.934
24032W        W89017  20.486  14.424  10.776
24033W        W89018  20.782  43.539   2.150
24034W        W89019  29.478  15.183  11.681
24035W        W89020  28.934  30.196  11.656
24036W        W89021  44.475   0.168  11.718
24037W        W89022  12.357  11.657   0.829
24038W        W89023  16.731   2.795   4.638
24039W        W89024  43.290   8.287  14.857
24040W        W89025   8.325  34.184   0.308
24041W        W89026   2.372  24.218  12.984
24042W        W89027  41.942  32.119  10.207
24043W        W89028  14.646  35.701  12.027
24044W        W89029  41.409   4.794   0.532
24045W        W89030  29.041  34.453  12.818
24046W        W89031   1.235  24.546   3.806
24047W        W89032  28.206  39.323   4.292
24048W        W89033  20.172  29.814  10.895
24049W        W89034  24.959   1.122  11.219
24050W        W89035  36.030  37.085   1.478
24051W        W89036   3.141   8.267   2.239
24052W        W89037  36.180  21.995  11.028
24053W        W89038  15.582  38.144   4.179
24054W        W89039  28.197  37.957  13.867
24055W        W89040   8.777   8.663   0.876
24056W        W89041  44.813  35.923   0.730
24057W        W89042  31.416  21.639   0.029
24058W        W89043  28.652   8.242   3.151
24059W        W89044  13.791   4.492   0.600
24060W        W89045  10.454  37.553   0.450
24061W        W89046  33.540  33.125  10.964
24062W        W89047  29.886  13.598  12.821
24063W        W89048  12.609  22.648  13.047
24064W        W89049  29.786  37.059   2.319
24065W        W89050  20.642  30.960  14.719
24066W        W89051  12.366  42.329  13.376
24067W        W89052  20.121  25.338   3.585
24068W        W89053   0.050   4.776  10.344
24069W        W89054  39.472  43.187   2.754
24070W        W89055  10.024  34.089  14.391
24071W        W89056  31.082  38.318   4.256
24072W        W89057  25.237  32.645  13.935
24073W        W89058  12.285   4.076  11.731
24074W        W89059   4.651  28.195   4.639
24075W        W89060  36.569  42.849   0.406
24076W        W89061   7.265  13.833  13.617
24077W        W89062  20.116  11.633   2.850
24078W        W89063  23.987  42.097   0.413
24079W        W89064  23.555   4.880   1.843
24080W        W89065  41.865  11.641   2.210
24081W        W89066  13.603  16.000  14.334
24082W        W89067  44.553  20.687   0.037
24083W        W89068   8.833  42.119   2.663
24084W        W89069   5.442  19.100   0.940
24085W        W89070  38.120   9.146   0.857
24086W        W89071  35.726  14.640   4.011
24087W        W89072   6.167  18.137  10.701
24088W        W89073  43.027  31.419   3.234
24089W        W89074   0.774  19.301  13.510
24090W        W89075   9.406  23.107  12.926
24091W        W89076  18.792  26.440   1.456
24092W        W89077  31.589  36.459  12.593
24093W        W89078  14.799  20.494   4.711
24094W        W89079   6.675  41.104  11.099
24095W        W89080  31.148  13.241  13.633
24096W        W89081  29.510  26.575   5.272
24097W        W89082  27.512   3.561   4.603
24098W        W89083  10.883  43.250  12.560
24099W        W89084  35.608  21.224   0.247
24100W        W89085  42.483   0.013  12.622
24101W        W89086  24.679  17.637   2.103
24102W        W89087  25.661   8.909   4.164
24103W        W89088  22.557  12.831   1.701
24104W        W89089  30.011  20.734   1.834
24105W        W89090  10.794  24.619  11.098
24106W        W89091  44.080  34.025  14.793
24107W        W89092  33.088  32.235  14.902
24108W        W89093  31.057   3.812  10.490
24109W        W89094   9.965  36.050   1.271
24110W        W89095   8.737  10.128   3.156
24111W        W89096   0.982  12.761   5.137
24112W        W89097  42.535  43.930   0.708
24113W        W89098  20.241  33.131  10.998
24114W        W89099  43.052  40.808   0.331
24115W        W89100  43.759   0.386  14.864
24116W        W89101  19.131   4.205   4.207
24117W        W89102  41.474  16.251  11.173
24118W        W89103  26.076  30.354   0.123
24119W        W89104  40.098  11.808  14.678
24120W        W89105  35.445  25.199   3.608
24121W        W89106   6.167  23.902  14.457
24122W        W89107   5.270  35.755   1.585
24123W        W89108  15.760  30.002  10.726
24124W        W89109  12.936  15.158  11.883
24125W        W89110  32.643   3.452   2.646
24126W        W89111  21.838  43.757   2.870
24127W        W89112  39.470  11.187  11.971
24128W        W89113  10.300  41.456  13.763
24129W        W89114  28.768   6.152   2.207
24130W        W89115  40.034  19.680  13.643
24131W        W89116  44.548  18.276  10.239
24132W        W89117   3.730  39.263   0.247
24133W        W89118   7.704  13.283   2.802
24134W        W89119   6.501   8.574   1.252
24135W        W89120  15.186  13.813  13.976
24136W        W89121  35.903   6.447  12.606
24137W        W89122  39.098  41.301   1.195
24138W        W89123  15.193  24.586   1.354
24139W        W89124   8.225  19.548  12.540
24140W        W89125   9.421  27.513  14.763
24141W        W89126  22.915  11.361  14.878
24142W        W89127  36.348  35.576  14.961
24143W        W89128   7.926  40.841   3.325
24144W        W89129   4.732  32.489   2.027
24145W        W89130  38.106  43.905  11.437
24146W        W89131  30.405  34.247  11.880
24147W        W89132  36.621   1.422  13.304
24148W        W89133  26.592  21.023   4.071
24149W        W89134  36.029  39.210   4.676
24150W        W89135   7.447  31.110   3.877
24151W        W89136  29.457  14.964  12.169
24152W        W89137  42.258  27.079   4.276
24153W        W89138  21.264  17.676   2.446
24154W        W89139  30.440  14.233  12.559
24155W        W89140  11.671  11.432   2.938
24156W        W89141  35.484  36.258   0.790
24157W        W89142  33.849  42.837  11.012
24158W        W89143  40.550  24.018  10.275
24159W        W89144  11.120  23.520   3.601
24160W        W89145  32.875  40.479  14.725
24161W        W89146  22.079  27.187   3.748
24162W        W89147  17.490  14.251   3.301
24163W        W89148  22.437  14.194  14.934
24164W        W89149  10.385  28.111  12.090
24165W        W89150  12.625  43.331   1.783
24166W        W89151   6.011  44.715   4.432
24167W        W89152  28.146   4.300   2.110
24168W        W89153  26.524  39.022   4.517
24169W        W89154  21.109  44.402  12.842
24170W        W89155  34.748  15.259  12.580
24171W        W89156  17.627  37.798   4.226
24172W        W89157   5.929   2.121   1.202
24173W        W89158  15.106  28.427   2.707
24174W        W89159  43.376  44.183  11.449
24175W        W89160  18.712  24.984   4.494
24176W        W89161  40.921   5.657  10.560
24177W        W89162  20.932   6.737  14.408
24178W        W89163  39.900  14.058   4.221
24179W        W89164   9.054  27.088   1.982
24180W        W89165  41.820  42.047  14.991
24181W        W89166  17.311  16.685  10.604
24182W        W89167  36.174   1.204  12.095
24183W        W89168   3.791  18.971   4.388
24184W        W89169  33.593  23.970   0.894
24185W        W89170  39.041  39.514   4.514
24186W        W89171  36.136   6.671  14.909
24187W        W89172  37.216   0.300  10.691
24188W        W89173  41.129  42.890  14.005
24189W        W89174  36.341  44.089  11.092
24190W        W89175  17.237   7.641   1.761
24191W        W89176   9.689  34.098  11.743
24192W        W89177  20.194  17.747   3.972
24193W        W89178   1.201   3.400   0.361
24194W        W89179  33.503   0.376   4.109
24195W        W89180   1.926  13.122   4.549
24196W        W89181  32.124  35.163  14.705
24197W        W89182  16.275  38.024  12.895
24198W        W89183  35.626  21.544  14.400
24199W        W89184  30.062  31.666   1.291
24200W        W89185  40.821  29.342   1.674
24201W        W89186  19.308  20.734   4.600
24202W        W89187  20.119   8.325  11.667
24203W        W89188  36.461  30.645   2.463
24204W        W89189   0.305  33.093   0.933
24205W        W89190  41.545  27.202   5.394
24206W        W89191   5.702  36.975   0.295
24207W        W89192  25.205  14.091  14.348
24208W        W89193  35.628   6.293   2.485
24209W        W89194   7.356  10.206   4.581
24210W        W89195   1.919  21.572   4.848
24211W        W89196  36.594  34.527  11.172
24212W        W89197  20.570  43.820   1.084
24213W        W89198  25.074   8.719   1.205
24214W        W89199  29.444  24.088  11.665
24215W        W89200  13.357  32.054   2.783
24216W        W89201  30.285  39.913   0.944
24217W        W89202  20.773   2.712   3.255
24218W        W89203  39.988   9.839  12.546
24219W        W89204  28.241   0.883   9.929
24220W        W89205  12.655  17.662  13.086
24221W        W89206  12.210  38.685   4.180
24222W        W89207  10.734   9.369  10.724
24223W        W89208  12.132  44.046  12.516
24224W        W89209  39.583  28.571  11.421
24225W        W89210  32.396  38.476   1.754
24226W        W89211  37.145  21.345  14.996
24227W        W89212   3.846  34.573   3.312
24228W        W89213  23.518  39.980  14.817
24229W        W89214  28.399   7.896  10.704
24230W        W89215  34.381  41.858   0.106
24231W        W89216  38.110   5.447   0.927
24232W        W89217  13.945  15.316   1.020
24233W        W89218  12.045  23.105  11.482
24234W        W89219  24.118   8.494   1.580
24235W        W89220   2.208   4.229   1.842
24236W        W89221  29.239  43.524   2.197
24237W        W89222  31.033  26.019  11.207
24238W        W89223  40.672  15.609  14.458
24239W        W89224  22.031  40.039  13.841
24240W        W89225  13.656  18.516   1.890
24241W        W89226  27.225   3.802  13.267
24242W        W89227  14.549  40.619   1.748
24243W        W89228  38.887   4.878   3.374
24244W        W89229  13.617   8.756   1.401
24245W        W89230   9.852  26.966   2.359
24246W        W89231   8.353  32.453   0.464
24247W        W89232  19.349  19.781  14.434
24248W        W89233  33.100  22.784  12.864
24249W        W89234   0.354   6.433   2.432
24250W        W89235  13.379  30.928  11.464
24251W        W89236  15.946  29.514   4.982
24252W        W89237  38.407  11.304   1.315
24253W        W89238  10.462  39.152   2.251
24254W        W89239   8.399  44.451   0.013
24255W        W89240   8.618  38.289  13.414
24256W        W89241  16.305  32.567  14.417
24257W        W89242  31.452  35.537  14.702
24258W        W89243   5.213  24.643   2.088
24259W        W89244  29.086  32.001   4.765
24260W        W89245  30.504   9.932  11.308
24261W        W89246  28.740  25.995  10.939
24262W        W89247  12.718  31.436   3.315
24263W        W89248  19.698   8.291   1.464
24264W        W89249   5.295  41.992  14.934
24265W        W89250   6.255  27.863  12.086
24266W        W89251   2.452  37.847  11.093
24267W        W89252  34.990  12.574   0.973
24268W        W89253  21.578  30.837   4.573
24269W        W89254  25.516  18.618  14.333
24270W        W89255  14.835  17.704  12.905
24271W        W89256  30.088  33.647  13.579
24272W        W89257  36.966  29.646  14.472
24273W        W89258   3.282  20.268   4.657
24274W        W89259  20.021  19.309   0.367
24275W        W89260  28.469  26.281   0.323
24276W        W89261  17.201  16.341  14.484
24277W        W89262   8.759  44.385   1.852
24278W        W89263  11.035  25.796  12.619
24279W        W89264  33.094  12.830   4.924
24280W        W89265  26.034  26.474  13.812
24281W        W89266  10.087  40.365   1.302
24282W        W89267  36.458  12.204   3.581
24283W        W89268  11.236  39.783   3.266
24284W        W89269   9.422  14.254  13.525
24285W        W89270  22.184  14.312  11.939
24286W        W89271  14.177  38.485   1.492
24287W        W89272  17.844   5.995   1.199
24288W        W89273   1.708   2.688  13.944
24289W        W89274  10.998  42.708   4.469
24290W        W89275  32.582  44.362   1.679
24291W        W89276   4.843  16.771   0.451
24292W        W89277  13.956   6.455   4.376
24293W        W89278  20.597  12.660  14.607
24294W        W89279  41.803   3.953  11.961
24295W        W89280  13.426  17.263   1.358
24296W        W89281  25.185  28.447   0.923
24297W        W89282  38.930  40.753  10.848
24298W        W89283  29.866   5.342  11.415
24299W        W89284  37.508  27.041   0.703
24300W        W89285  33.919   5.145  10.610
24301W        W89286   2.413  17.088  12.258
24302W        W89287  37.913   1.866   3.266
24303W        W89288  28.424  26.557  13.557
24304W        W89289  40.847  23.542   5.413
24305W        W89290  23.029  30.982   1.609
24306W        W89291  37.039  19.051   0.454
24307W        W89292  34.677  27.072   1.735
24308W        W89293   9.423  42.959  13.818
24309W        W89294  15.093  41.312  12.045
24310W        W89295  35.144  30.612   1.232
24311W        W89296   0.586   3.243   4.858
24312W        W89297  37.316  34.255   0.443
24313W        W89298  43.876  39.615  14.389
24314W        W89299  32.090  23.805   2.741
24315W        W89300  19.040  43.823  14.979
24316W        W89301   2.157  12.650  13.482
24317W        W89302  20.003  29.183  14.257
24318W        W89303  10.245  19.682  13.931
24319W        W89304  42.592  22.524   0.444
24320W        W89305   8.111  26.013   1.835
24321W        W89306  23.524  25.065  11.447
24322W        W89307  31.195  16.692  11.070
24323W        W89308   4.823   2.361  11.228
24324W        W89309   4.002   3.211  12.783
24325W        W89310  31.947   1.546  12.121
24326W        W89311   9.024  32.723  12.445
24327W        W89312  28.108  17.103  14.747
24328W        W89313  12.571  37.038  14.005
24329W        W89314  16.822  11.868   0.644
24330W        W89315  32.158  22.442  11.139
24331W        W89316  20.378  23.943  10.727
24332W        W89317  20.780   7.515  13.468
24333W        W89318  21.252   6.677   3.456
24334W        W89319  20.936  22.967  12.371
24335W        W89320   5.327  14.247  13.934
24336W        W89321  43.702  10.771  14.816
24337W        W89322  17.183  16.125   1.590
24338W        W89323   3.431   8.663  14.897
24339W        W89324  13.616  24.671  11.971
24340W        W89325  21.761  15.734  11.223
24341W        W89326  23.413   9.679  14.233
24342W        W89327  30.093  11.799  10.508
24343W        W89328  25.015  40.638  13.434
24344W        W89329   0.497  44.896  14.219
24345W        W89330   3.884  13.659   3.638
24346W        W89331  31.464  34.400  14.908
24347W        W89332  24.542  16.707   3.086
24348W        W89333  13.187  31.147   3.182
24349W        W89334   3.400  15.950   3.862
24350W        W89335   4.411  31.024  12.383
24351W        W89336  38.429  22.931   1.453
24352W        W89337  38.085   0.314  13.087
24353W        W89338  27.077  44.334   2.210
24354W        W89339  36.521  31.384   0.849
24355W        W89340  37.775  27.252   2.718
24356W        W89341  33.427  18.465  12.888
24357W        W89342  43.090  37.799  11.573
24358W        W89343   0.747  30.967   0.769
24359W        W89344  12.009  29.510  14.020
24360W        W89345  15.833  41.119   0.789
24361W        W89346  29.473   5.723   4.522
24362W        W89347  15.326  28.248   2.100
24363W        W89348  32.774  30.362   3.737
24364W        W89349   4.382   5.884  11.140
24365W        W89350  22.311  16.483  14.934
24366W        W89351  19.497  28.478  13.879
24367W        W89352  24.208  10.522   4.599
24368W        W89353  29.932  23.736   2.854
24369W        W89354  25.014   2.907  11.019
24370W        W89355  28.771   9.587   4.238
24371W        W89356  24.733   1.143   4.594
24372W        W89357  18.041   6.735  12.629
24373W        W89358  29.516  39.283  11.120
24374W        W89359  27.424  14.281   1.838
24375W        W89360  38.806   2.022   1.729
24376W        W89361  30.442   7.946  14.369
24377W        W89362  10.308  36.578   1.517
24378W        W89363  33.963  44.191  10.114
24379W        W89364  24.627  40.945   3.021
24380W        W89365  36.650   5.764   0.940
24381W        W89366  30.637  43.325  10.709
24382W        W89367  19.136  42.256  11.089
24383W        W89368  21.631  31.930   4.811
24384W        W89369   4.942  35.852   0.200
24385W        W89370   4.464  42.879   2.827
24386W        W89371  29.915  12.268   1.849
24387W        W89372  24.309  40.994  14.685
24388W        W89373   2.165  28.269   4.740
24389W        W89374  25.436  28.469   4.167
24390W        W89375  14.334   8.171  11.964
24391W        W89376  25.984  20.797   3.692
24392W        W89377  30.705   1.583  11.529
24393W        W89378  36.217  22.647   4.144
24394W        W89379  38.327  13.157  14.853
24395W        W89380  41.821  37.519   1.768
24396W        W89381   9.640   4.229  13.983
24397W        W89382   1.396  43.053  14.921
24398W        W89383   7.445  20.536  13.945
24399W        W89384  35.120   1.731   1.966
24400W        W89385  10.160  30.937  10.668
24401W        W89386  21.597  15.794   1.406
24402W        W89387  17.349  29.163   0.901
24403W        W89388  20.189  27.263   4.099
24404W        W89389   4.308  25.703   4.661
24405W        W89390  42.244  17.130  12.404
24406W        W89391   4.354  13.608  12.197
24407W        W89392   3.791  10.236  13.324
24408W        W89393  37.960  18.128  14.260
24409W        W89394  20.564  34.562   1.938
24410W        W89395  24.100  44.399  13.835
24411W        W89396  28.889  41.765   4.677
24412W        W89397  33.514  11.710   3.558
24413W        W89398  30.254  16.430   0.511
24414W        W89399  13.576  25.073  12.475
24415W        W89400  33.049  14.398  10.458
24416W        W89401  17.555  10.095  11.962
24417W        W89402  21.434  11.848  13.459
24418W        W89403  39.331   7.907  12.954
24419W        W89404  16.214  39.945   2.940
24420W        W89405   3.719  24.618  12.954
24421W        W89406  14.875  13.831   3.241
24422W        W89407  26.086  27.932  12.987
24423W        W89408  16.634   4.298  10.766
24424W        W89409  34.793  33.238   5.035
24425W        W89410  42.526  44.508   0.033
24426W        W89411  18.302   1.171  12.424
24427W        W89412  11.847   1.459   1.482
24428W        W89413   2.858   4.502   4.639
24429W        W89414  39.020  33.966   4.590
24430W        W89415  28.983  35.896   2.248
24431W        W89416  10.145  15.236  14.905
24432W        W89417   2.716  44.550   3.590
24433W        W89418  38.520   3.916  11.576
24434W        W89419  41.734  19.871  11.144
24435W        W89420  39.700  36.201  11.295
24436W        W89421  39.765  33.032   1.413
24437W        W89422   3.395   5.688   1.506
24438W        W89423   9.807   7.799   2.875
24439W        W89424  42.349  28.331   1.281
24440W        W89425  28.351   7.299  12.090
24441W        W89426  28.006   8.919  11.588
24442W        W89427  33.949  44.299   3.328
24443W        W89428  11.740  42.508   3.576
24444W        W89429  14.220  31.450   0.947
24445W        W89430  32.603  37.003  14.978
24446W        W89431   7.296  24.528  10.510
24447W        W89432  27.654  22.628  10.926
24448W        W89433   3.719  25.062   0.716
24449W        W89434   4.143  12.685  11.150
24450W        W89435   8.112  20.655  13.299
24451W        W89436  12.144   5.173   0.469
24452W        W89437  37.754   8.699   2.322
24453W        W89438  43.892  40.256   0.049
24454W        W89439  42.784   8.911   1.859
24455W        W89440  28.060   5.420   3.607
24456W        W89441  39.460  30.881  14.744
24457W        W89442  41.034   5.557   1.834
24458W        W89443  20.815  24.583   4.892
24459W        W89444  14.634  14.135   2.516
24460W        W89445  21.630  31.800   4.305
24461W        W89446  24.044  10.137  11.940
24462W        W89447  21.130   7.327   4.764
24463W        W89448  24.869  36.257  14.378
24464W        W89449  20.139   4.857   9.694
24465W        W89450  22.784   4.691   4.477
24466W        W89451  25.960   0.485   0.259
24467W        W89452   4.183  12.729   4.605
24468W        W89453  34.088  10.904   2.804
24469W        W89454  38.883  14.087  10.564
24470W        W89455  39.387  21.596  12.850
24471W        W89456  27.610   5.875  10.677
24472W        W89457  23.194  41.240   1.342
24473W        W89458  41.317  21.453  14.020
24474W        W89459  42.214   2.724  12.530
24475W        W89460  26.930   3.936   4.106
24476W        W89461  24.157   0.348   3.648
24477W        W89462  14.098  29.159   4.112
24478W        W89463  41.812  28.270   2.248
24479W        W89464  37.602  36.538   3.681
24480W        W89465  16.589   0.718  10.626
24481W        W89466  16.757  17.544   4.649
24482W        W89467  35.944  33.878   3.192
24483W        W89468  13.577  19.018   4.076
24484W        W89469   8.902  41.910   1.312
24485W        W89470  16.286  27.635   1.840
24486W        W89471   7.458  24.634   4.316
24487W        W89472  36.324  24.823   0.342
24488W        W89473   5.366  16.325  12.692
24489W        W89474  39.804  16.372   2.456
24490W        W89475  18.169  32.455  14.190
24491W        W89476  20.953  13.839  11.961
24492W        W89477  27.936  33.983  12.894
24493W        W89478  14.078  36.284  10.755
24494W        W89479  26.772  28.930  10.354
24495W        W89480  39.940   7.199   2.328
24496W        W89481  34.704  11.134   4.926
24497W        W89482  12.746  31.945  12.347
24498W        W89483  42.566  27.602   3.586
24499W        W89484   3.778  35.022   3.581
24500W        W89485  20.536  34.553   3.194
24501W        W89486  38.923  15.076  12.259
24502W        W89487   1.491  34.490   4.587
24503W        W89488  32.566  13.292   4.566
24504W        W89489  43.480   0.395  13.801
24505W        W89490  25.012  18.903   3.907
24506W        W89491  26.558  27.016   4.615
24507W        W89492  11.614  19.965  14.814
24508W        W89493   0.376   8.207   1.277
24509W        W89494  22.283   7.655  12.858
24510W        W89495  22.521  19.969  11.110
24511W        W89496   5.647   3.438  10.850
24512W        W89497  26.729  28.045   1.325
24513W        W89498  38.584  22.931   2.870
24514W        W89499  22.989  40.595  10.912
24515W        W89500   5.937   6.209  14.946
24516W        W89501  13.746  39.977  14.382
24517W        W89502  24.506  19.845  14.264
24518W        W89503  28.732  10.238  13.126
24519W        W89504  27.887  21.906  14.797
24520W        W89505  41.524  32.369   2.362
24521W        W89506  20.998  18.093  13.384
24522W        W89507  33.067  42.794  10.867
24523W        W89508  34.070  11.720  13.566
24524W        W89509  10.166  27.929   2.162
24525W        W89510   0.255  20.790   3.735
24526W        W89511   3.718  27.891   0.261
24527W        W89512  40.111  32.865   9.834
24528W        W89513  22.343  28.452   1.137
24529W        W89514  22.591  31.266   1.287
24530W        W89515   7.797  13.212   1.721
24531W        W89516  20.971  39.013  14.980
24532W        W89517  20.537  11.639  14.204
24533W        W89518  32.373  33.256  14.274
24534W        W89519  19.661  39.434  11.126
24535W        W89520  41.443   4.764   2.787
24536W        W89521  32.443  14.371  13.164
24537W        W89522  40.877  15.166   4.010
24538W        W89523  27.662  30.052  13.321
24539W        W89524  21.542  17.197  13.450
24540W        W89525  21.799  19.834   2.335
24541W        W89526  11.296  28.179  13.482
24542W        W89527  43.408  15.814  12.381
24543W        W89528   4.493  20.843  12.059
24544W        W89529  12.438  20.227  11.148
24545W        W89530  40.937  14.645   3.771
24546W        W89531  24.068  12.327   4.160
24547W        W89532  20.225  29.511  11.905
24548W        W89533  20.769  12.338  13.919
24549W        W89534  39.489  29.575  13.872
24550W        W89535  21.582  44.202  12.707
24551W        W89536  35.879  31.146   2.917
24552W        W89537  29.224  39.367   4.752
24553W        W89538   9.188  37.397   1.824
24554W        W89539  33.059  36.163  14.943
24555W        W89540  40.479   3.174   3.560
24556W        W89541  16.850  31.984  12.473
24557W        W89542  41.522   4.783  12.952
24558W        W89543  36.715   9.138   4.998
24559W        W89544   6.388  18.189  12.092
24560W        W89545  10.975  26.154   1.897
24561W        W89546  17.573  12.175   4.769
24562W        W89547   7.352  32.455   2.717
24563W        W89548   5.792  32.487  11.573
24564W        W89549  16.517  40.800  13.529
24565W        W89550  39.503  30.318   3.866
24566W        W89551  35.042  33.485   1.260
24567W        W89552   0.419  12.285   2.484
24568W        W89553  29.943   5.214  14.070
24569W        W89554  20.038  36.004   3.222
24570W        W89555  11.661  44.256   1.687
24571W        W89556  11.619  35.502   4.359
24572W        W89557   1.710   3.683   0.216
24573W        W89558  24.805  30.033  14.788
24574W        W89559   7.378  10.989   0.171
24575W        W89560  35.310  23.685   4.165
24576W        W89561  17.024  35.692   3.599
24577W        W89562  12.356  34.667  10.744
24578W        W89563  11.884  29.894   2.150
24579W        W89564   1.814  37.668   1.400
24580W        W89565  35.489   4.446  14.949
24581W        W89566   6.836  27.590  13.057
24582W        W89567  19.728   1.672   2.763
24583W        W89568   4.185  30.131   0.341
24584W        W89569  29.975  19.196  11.690
24585W        W89570  43.510  14.919  12.607
24586W        W89571  34.369  24.521   4.328
24587W        W89572  16.150   3.732   1.631
24588W        W89573  39.507  37.636  13.370
24589W        W89574  38.931  21.868  10.666
24590W        W89575  13.645   8.136  11.761
24591W        W89576  25.182  26.880  10.736
24592W        W89577  16.339  39.437   2.171
24593W        W89578   3.928  20.945  10.700
24594W        W89579  13.168  17.487  10.797
24595W        W89580  33.201  18.239  14.230
24596W        W89581  40.365  43.600   2.323
24597W        W89582  36.667  29.886   2.836
24598W        W89583  34.436  35.893  11.661
24599W        W89584  34.592  10.150  11.020
24600W        W89585  37.573  21.722   1.378
24601W        W89586  36.086  10.238  14.158
24602W        W89587  44.473  12.409  11.281
24603W        W89588  41.042  39.557  10.755
24604W        W89589  42.981   2.505  12.286
24605W        W89590  22.499  43.191   3.262
24606W        W89591  27.524  38.537   3.869
24607W        W89592  21.024  25.442  12.943
24608W        W89593   0.850  16.135  10.718
24609W        W89594  25.032  17.094  14.837
24610W        W89595  24.228   9.727   0.668
24611W        W89596  32.856  29.494   2.344
24612W        W89597   1.645   6.283   2.804
24613W        W89598   2.222  31.928  11.240
24614W        W89599  17.358  30.560  12.988
24615W        W89600  13.502  30.481  14.015
24616W        W89601  12.593  39.970   3.500
24617W        W89602   7.339  41.952   3.918
24618W        W89603  22.522  34.606   2.190
24619W        W89604   4.264  21.227  14.733
24620W        W89605  16.029  15.720  13.018
24621W        W89606  36.909   9.329  10.592
24622W        W89607   6.468  43.538   3.354
24623W        W89608   4.267   3.227   0.939
24624W        W89609  12.801  30.716  13.133
24625W        W89610  43.457  31.471  11.046
24626W        W89611  22.002   6.571   1.829
24627W        W89612  40.258   3.865   2.325
24628W        W89613   4.817   0.761  13.344
24629W        W89614  27.302  30.777  13.013
24630W        W89615   3.805   1.391  11.188
24631W        W89616  11.439   0.953   3.601
24632W        W89617  14.348  14.303   1.677
24633W        W89618   9.179  43.524   3.787
24634W        W89619   1.243   2.901   0.362
24635W        W89620  13.750  43.391   4.527
24636W        W89621  37.517  19.397  10.686
24637W        W89622  30.629   2.668   2.100
24638W        W89623   0.335  37.811  13.900
24639W        W89624   6.952  16.071   2.636
24640W        W89625  12.689  42.966   3.833
24641W        W89626  40.278   2.961   3.107
24642W        W89627   4.232   5.334  14.255
24643W        W89628  44.782  33.480   4.082
24644W        W89629  23.970  40.508   2.809
24645W        W89630   6.442  14.937   3.693
24646W        W89631  15.851  31.033  13.828
24647W        W89632   6.727  14.580  12.594
24648W        W89633  41.846   6.660   4.240
24649W        W89634  33.433  13.281  14.377
24650W        W89635  25.710  43.278   3.803
24651W        W89636  10.215  24.997  14.486
24652W        W89637   2.798  23.902  14.732
24653W        W89638  44.823   1.451   1.682
24654W        W89639   6.790  25.605   1.142
24655W        W89640  22.477  25.763   4.560
24656W        W89641  31.124   3.352  12.577
24657W        W89642   9.216  23.968  12.948
24658W        W89643   0.843  11.389  13.501
24659W        W89644  26.287  11.187  12.028
24660W        W89645  29.463  27.489  13.583
24661W        W89646   0.651  26.559   2.724
24662W        W89647   4.231  39.199   1.887
24663W        W89648  40.681  38.340   3.302
24664W        W89649  27.511  37.455  13.431
24665W        W89650  26.103  24.466   3.593
24666W        W89651  25.247  38.060  10.787
24667W        W89652   3.355  16.689  14.527
24668W        W89653   1.004  43.383  12.299
24669W        W89654  30.575  21.345  11.940
24670W        W89655  14.871  20.489  11.530
24671W        W89656   0.532  44.550   2.741
24672W        W89657  38.924  17.987   0.318
24673W        W89658  26.411  33.682  11.445
24674W        W89659   0.251  15.194  13.510
24675W        W89660   4.482  38.100   0.463
24676W        W89661  38.374  17.529   4.845
24677W        W89662  15.884  43.276   2.462
24678W        W89663  42.981  33.802   1.911
24679W        W89664  44.957   2.742  12.497
24680W        W89665   0.396   8.651  12.016
24681W        W89666  33.824  18.093  13.645
24682W        W89667   1.736  34.366   3.075
24683W        W89668   3.970  41.988  14.779
24684W        W89669   8.228  14.325  13.539
24685W        W89670  16.097   5.075  10.977
24686W        W89671  24.212  23.491   4.625
24687W        W89672  26.588  12.665  11.205
24688W        W89673  28.810  33.376  14.772
24689W        W89674  12.210  26.667   1.960
24690W        W89675  21.485   8.763   0.411
24691W        W89676  27.938  17.546   2.652
24692W        W89677  29.381  12.636  13.411
24693W        W89678  39.749   9.382   2.792
24694W        W89679   8.025  27.692  11.992
24695W        W89680  42.246   5.677   3.808
24696W        W89681  25.058   6.172   0.768
24697W        W89682  43.588  40.577  14.137
24698W        W89683  11.632   1.524  12.375
24699W        W89684  35.613  36.384  12.793
24700W        W89685   4.744   2.421  12.122
24701W        W89686  13.568  28.641   3.636
24702W        W89687  41.092  13.142   2.677
24703W        W89688   4.288  42.351   4.770
24704W        W89689  32.389  16.348  14.382
24705W        W89690  33.356  10.607  13.642
24706W        W89691   9.290  32.184  12.445
24707W        W89692  12.919  36.231  11.173
24708W        W89693  38.117  15.941   4.112
24709W        W89694  17.117  30.633   3.356
24710W        W89695   3.272  10.190  10.986
24711W        W89696   3.245  19.790   3.372
24712W        W89697   3.672   7.117   3.443
24713W        W89698  32.624   0.539  14.306
24714W        W89699  12.479   7.772  10.554
24715W        W89700  12.587  21.709  10.574
24716W        W89701  35.868  19.642   2.673
24717W        W89702  42.201  21.182  11.236
24718W        W89703  19.082  11.166   3.634
24719W        W89704  39.130  27.746   0.325
24720W        W89705  18.717   1.919  14.350
24721W        W89706  44.374  27.451   0.283
24722W        W89707  17.329  35.521   4.233
24723W        W89708  25.084  42.792   2.300
24724W        W89709  23.787  11.107   1.802
24725W        W89710  13.822  13.528   3.371
24726W        W89711  34.302  15.624   2.747
24727W        W89712  21.719  33.117  14.597
24728W        W89713  24.454  40.479  11.464
24729W        W89714   5.154  32.002   1.648
24730W        W89715  22.090  11.298  11.182
24731W        W89716  21.157  42.348   4.720
24732W        W89717  23.415  21.491  13.102
24733W        W89718  37.884  29.741   0.402
24734W        W89719   5.255  13.829  12.605
24735W        W89720  22.043  34.083   4.075
24736W        W89721   9.773  35.979   3.106
24737W        W89722   9.671  13.185  11.627
24738W        W89723  41.046  28.956  10.703
24739W        W89724  37.121  40.113  11.062
24740W        W89725  40.081  27.945  14.052
24741W        W89726  23.580  40.206   2.601
24742W        W89727  29.093   8.133   1.028
24743W        W89728  37.167  14.009  11.124
24744W        W89729  36.557  30.506  14.532
24745W        W89730  42.275  29.749   2.514
24746W        W89731  16.298  36.951  12.211
24747W        W89732  41.434  16.846   2.721
24748W        W89733  15.145  21.770   0.550
24749W        W89734   6.228  27.659  11.581
24750W        W89735   6.699  40.353   3.324
24751W        W89736  41.826  22.511   4.680
24752W        W89737  42.060  38.040   4.093
24753W        W89738   6.497  23.564  13.475
24754W        W89739  18.125  15.404  14.347
24755W        W89740  10.311   7.735   1.804
24756W        W89741  15.766   0.923   3.407
24757W        W89742  29.054  16.750  12.999
24758W        W89743  11.722   5.381   0.277
24759W        W89744  31.920  39.396   2.671
24760W        W89745   0.398  32.606   1.379
24761W        W89746  37.419  26.301   1.566
24762W        W89747  35.607  22.138  13.542
24763W        W89748  34.181  29.561  14.356
24764W        W89749   8.627  18.432  14.755
24765W        W89750  20.287   2.215   4.125
24766W        W89751  38.294   4.615  10.989
24767W        W89752  23.296  12.564  14.194
24768W        W89753  41.961  22.982  10.075
24769W        W89754   1.227  38.526   2.148
24770W        W89755   3.450  35.994   1.951
24771W        W89756   6.747  21.983   2.288
24772W        W89757  36.789  14.235   3.485
24773W        W89758   6.276  35.770   2.574
24774W        W89759  24.618  26.874   2.893
24775W        W89760  31.117   6.545   1.822
24776W        W89761  20.202  10.372   2.428
24777W        W89762   4.426  23.502  12.531
24778W        W89763  29.152  10.822  11.225
24779W        W89764  42.404  21.609  13.151
24780W        W89765  28.018   0.774  12.411
24781W        W89766  20.031  16.038   3.205
24782W        W89767  33.299  28.037   4.995
24783W        W89768  29.129   4.191   1.735
24784W        W89769  21.133  33.551   2.361
24785W        W89770  30.720  14.857   1.946
24786W        W89771  32.406  36.416   1.773
24787W        W89772  33.902   9.003  14.807
24788W        W89773  16.779   8.765  12.300
24789W        W89774  22.668   2.918  13.391
24790W        W89775  29.719  22.267  11.035
24791W        W89776   8.626   8.166   0.824
24792W        W89777  32.115  21.290  12.079
24793W        W89778  25.258  29.918   1.863
24794W        W89779  35.955  36.132   1.791
24795W        W89780   0.962  38.157   1.797
24796W        W89781   6.149   2.754  12.767
24797W        W89782  13.035  11.530   1.929
24798W        W89783   9.360  44.516   1.192
24799W        W89784   9.173  42.127  12.887
24800W        W89785  28.892   3.776   0.883
24801W        W89786  19.220   6.986   1.903
24802W        W89787  42.177  36.295  11.994
24803W        W89788  17.998  35.584  11.979
24804W        W89789   3.181   8.745   2.794
24805W        W89790  43.606  39.690   2.817
24806W        W89791   8.124  39.298   3.597
24807W        W89792  44.680  26.880   1.432
24808W        W89793   3.866  13.867   4.620
24809W        W89794  11.163  13.080  11.633
24810W        W89795  21.781  21.612  14.446
24811W        W89796  42.981  36.741  14.552
24812W        W89797  30.917  32.479   1.301
24813W        W89798  12.666   9.822  11.197
24814W        W89799  39.012  19.617  14.825
24815W        W89800  20.581   5.856   0.456
24816W        W89801  38.538  42.833   1.732
24817W        W89802  30.965  30.126  12.049
24818W        W89803  22.641  22.949  12.825
24819W        W89804  34.939  25.685  14.414
24820W        W89805  35.429  42.039   1.348
24821W        W89806  22.395  38.565  10.077
24822W        W89807  29.476  26.999   2.427
24823W        W89808   2.706  41.372  11.522
24824W        W89809  24.225  39.920  12.091
24825W        W89810  26.160  19.217  14.490
24826W        W89811  18.016  10.714   2.365
24827W        W89812   5.329  33.644  13.794
24828W        W89813  16.648  39.542   4.389
24829W        W89814  43.874   5.003  14.289
24830W        W89815  41.246  39.848   1.773
24831W        W89816   5.364  18.189   4.511
24832W        W89817   0.517   8.690  12.901
24833W        W89818   0.546   4.302  12.478
24834W        W89819  30.984  11.835  12.830
24835W        W89820   2.428  33.672   3.154
24836W        W89821  18.803  30.651   3.515
24837W        W89822   5.832  18.785  11.267
24838W        W89823   5.525  28.101   0.718
24839W        W89824  27.386  10.828   4.217
24840W        W89825  26.906   5.186   2.370
24841W        W89826  29.867   0.214  14.467
24842W        W89827   2.316  21.293  12.542
24843W        W89828  24.896  11.117  11.130
24844W        W89829   9.737   2.417  14.112
24845W        W89830  31.659  15.585  11.949
24846W        W89831  12.921  29.625   0.416
24847W        W89832   3.920   5.457  12.347
24848W        W89833  28.978  14.737  14.542
24849W        W89834  18.248  12.338   1.261
24850W        W89835   9.180   1.411   3.334
24851W        W89836  18.803   0.706  13.061
24852W        W89837   4.185  24.273   1.689
24853W        W89838  35.824  43.503   3.164
24854W        W89839  40.886  20.620   3.361
24855W        W89840  40.089  26.649   1.756
24856W        W89841  31.099   7.292  10.747
24857W        W89842  42.993  31.324  14.852
24858W        W89843  12.698  41.050  11.059
24859W        W89844  29.304  19.142  14.794
24860W        W89845  16.255  43.352  10.726
24861W        W89846  34.928   7.188   3.713
24862W        W89847  28.970  30.941   3.963
24863W        W89848   4.378  33.891   4.693
24864W        W89849  20.598  22.065   4.184
24865W        W89850  44.908  14.270   1.248
24866W        W89851   5.661  38.121   3.341
24867W        W89852  41.004  10.865  14.836
24868W        W89853  29.142  38.780   4.122
24869W        W89854  32.319  38.578   2.639
24870W        W89855  42.436   9.250  14.362
24871W        W89856   3.263   1.329  14.896
24872W        W89857  29.965   3.531   0.743
24873W        W89858  13.478  13.572  13.147
24874W        W89859  25.470   9.357  12.028
24875W        W89860  26.591   5.276   0.805
24876W        W89861   2.150  24.547  11.263
24877W        W89862  20.272  34.181   1.701
24878W        W89863  37.802   8.666  12.576
24879W        W89864  16.233   4.504  12.595
24880W        W89865  36.290  41.991  13.965
24881W        W89866  22.336  17.647  13.562
24882W        W89867   3.994  32.666  11.615
24883W        W89868  35.130  27.479   2.733
24884W        W89869  26.964  39.329  13.026
24885W        W89870  22.812  41.343  13.433
24886W        W89871  44.715  34.545   1.760
24887W        W89872  24.643  13.805  13.055
24888W        W89873   2.287  28.205   0.799
24889W        W89874  31.987  33.319   1.698
24890W        W89875  31.694  30.045   0.443
24891W        W89876   1.766   3.928   0.673
24892W        W89877  29.267  16.128   3.883
24893W        W89878  37.484   2.938   2.327
24894W        W89879  28.096  21.737   1.263
24895W        W89880  24.657  39.339  11.527
24896W        W89881  40.926  33.065  12.103
24897W        W89882   3.512  33.946  13.808
24898W        W89883   9.184   5.206   0.568
24899W        W89884  11.343  38.648  11.080
24900W        W89885   5.016  43.954  14.942
24901W        W89886  31.639   6.868  12.420
24902W        W89887  20.963  12.191   3.350
24903W        W89888   6.073  20.676  11.884
24904W        W89889  17.757  17.499   2.588
24905W        W89890  16.824   1.027   1.002
24906W        W89891  27.984   4.178  12.487
24907W        W89892  19.352  32.412  12.508
24908W        W89893  23.239  20.995  13.993
24909W        W89894   7.214  23.016  11.433
24910W        W89895  26.818   1.273  10.763
24911W        W89896   4.377  30.558  11.907
24912W        W89897  18.535  24.607  10.674
24913W        W89898  36.452  10.413  11.479
24914W        W89899   9.954  13.840   0.366
24915W        W89900  44.798  36.382  10.755
24916W        W89901   1.192  19.046  14.460
24917W        W89902  22.519  26.848  12.326
24918W        W89903  22.919  38.513   1.448
24919W        W89904  13.064   8.370   1.993
24920W        W89905   8.392  20.803  11.463
24921W        W89906  42.015  30.558   0.880
24922W        W89907  25.434  28.361   3.630
24923W        W89908   4.242   7.472   2.827
24924W        W89909  13.331  25.471   1.658
24925W        W89910  15.099   0.167   3.987
24926W        W89911   0.755  25.610   4.601
24927W        W89912   4.812  35.790  13.406
24928W        W89913   2.235  14.546   4.944
24929W        W89914  30.128  21.153   3.329
24930W        W89915  41.587   4.150  11.085
24931W        W89916  22.348   5.715  10.508
24932W        W89917   6.155  33.795   1.965
24933W        W89918  13.620  16.535  11.409
24934W        W89919  42.625  41.451   3.521
24935W        W89920  19.226  19.592   2.234
24936W        W89921   8.392  33.831   3.690
24937W        W89922  38.368  17.116   3.830
24938W        W89923  28.758   7.599   2.351
24939W        W89924  27.172  18.808  12.715
24940W        W89925  15.715  36.907   2.881
24941W        W89926   2.661  16.310  10.618
24942W        W89927  41.424   4.221  14.297
24943W        W89928  38.746   6.586   2.784
24944W        W89929  26.698  33.827  14.066
24945W        W89930  20.091  24.328   3.842
24946W        W89931  26.401   4.227  11.598
24947W        W89932  18.247  43.761  11.118
24948W        W89933   5.471  13.046   0.186
24949W        W89934  28.459   5.152   3.744
24950W        W89935  31.364  42.446   0.169
24951W        W89936  22.960  20.573   0.008
24952W        W89937  11.194  37.540  14.735
24953W        W89938  34.501  12.684  11.931
24954W        W89939  17.178  34.004  10.737
24955W        W89940   2.046  24.782  13.489
24956W        W89941  23.766  27.589   0.767
24957W        W89942   2.920  22.933   2.819
24958W        W89943  22.996  14.304  12.370
24959W        W89944  40.344  16.024  14.451
24960W        W89945  12.690  14.139   2.278
24961W        W89946  25.872  36.438  10.757
24962W        W89947   1.392  27.184   3.135
24963W        W89948  23.877  31.005   2.229
24964W        W89949  15.658  38.769  13.091
24965W        W89950  38.957  30.871   0.323
24966W        W89951  44.954  22.180   1.301
24967W        W89952  27.307  28.978  14.355
24968W        W89953  13.670  44.723   0.906
24969W        W89954  37.760  25.496  13.419
24970W        W89955  31.106  42.486  12.185
24971W        W89956  38.111  22.976  10.918
24972W        W89957  13.317  23.039   3.817
24973W        W89958  42.019  38.457   1.120
24974W        W89959  26.180  20.791   1.949
24975W        W89960  25.951   1.781  14.432
24976W        W89961   4.324  27.485   3.083
24977W        W89962  24.745  23.164   0.256
24978W        W89963  12.803   5.436  14.349
24979W        W89964   5.834  41.856  14.068
24980W        W89965  28.156  25.072   4.175
24981W        W89966  24.176  30.666  12.316
24982W        W89967  28.183  35.206   1.859
24983W        W89968  21.461  32.848   1.317
24984W        W89969   1.290  44.929   0.300
24985W        W89970  19.686  28.948  13.927
24986W        W89971  11.723   2.679   3.679
24987W        W89972  12.391   0.815  10.816
24988W        W89973  23.567   1.452   3.241
24989W        W89974  23.322  29.073  10.489
24990W        W89975  44.179  12.812  11.014
24991W        W89976  34.508  18.844   1.350
24992W        W89977  42.517  10.272  12.925
24993W        W89978  39.271  21.101   2.258
24994W        W89979   3.853  30.896   0.776
24995W        W89980  10.889   4.957  11.162
24996W        W89981  30.090  32.380   2.770
24997W        W89982  23.499  10.600   4.327
24998W        W89983  36.913   6.786   4.760
24999W        W89984  29.993  29.776   4.265
25000W        W89985   4.777   3.289  14.494
25001W        W89986  26.168  30.213  11.729
25002W        W89987   3.596  21.682  14.164
25003W        W89988  27.344  16.956   3.159
25004W        W89989  26.948  23.179   2.245
25005W        W89990  25.019  14.091  11.475
25006W        W89991  31.722   6.189   0.809
25007W        W89992   7.441  37.443  13.504
25008W        W89993  12.835   7.814  14.035
25009W        W89994  26.153  26.484  12.930
25010W        W89995  40.429  40.388  10.895
25011W        W89996  35.896  29.671  11.540
25012W        W89997  31.825   0.037   1.800
25013W        W89998  10.677  14.553   2.652
25014W        W89999  41.850  31.977  12.979
25015W        W90000  29.335  32.426   4.534
25016W        W90001  16.414  20.456   9.822
25017W        W90002  36.069  41.224   0.755
25018W        W90003  38.434   2.665  12.881
25019W        W90004  28.377  17.655  10.457
25020W        W90005   2.146  42.912   2.855
25021W        W90006   5.212  17.827   1.415
25022W        W90007  10.799  34.443   3.201
25023W        W90008  26.809  29.002  13.252
25024W        W90009  27.518  24.534  10.723
25025W        W90010  28.061   9.243   1.756
25026W        W90011  38.485   8.697   0.711
25027W        W90012   6.526   5.981   1.082
25028W        W90013   6.961  19.769  13.699
25029W        W90014  34.938   4.268  13.525
25030W        W90015   1.770  23.813  13.768
25031W        W90016  20.242  33.874   4.181
25032W        W90017  33.148  15.994  13.467
25033W        W90018  25.319   3.871   2.706
25034W        W90019  14.418  44.463   1.723
25035W        W90020  31.130  21.400   3.839
25036W        W90021  27.001  10.660  13.303
25037W        W90022  33.661  36.213   3.724
25038W        W90023  23.451  26.382   2.169
25039W        W90024  38.080  39.911   2.786
25040W        W90025   6.128  15.242  14.280
25041W        W90026  31.006   4.900   3.044
25042W        W90027   1.323  26.095  12.865
25043W        W90028  29.996  18.713   4.516
25044W        W90029   0.859  32.296   2.275
25045W        W90030   6.889  21.646   1.490
25046W        W90031  42.539  20.415  11.553
25047W        W90032  28.200  39.997  13.265
25048W        W90033  14.572  39.036  14.370
25049W        W90034  42.890   7.010  10.614
25050W        W90035  12.588  18.735   4.151
25051W        W90036   7.888   2.622   1.183
25052W        W90037  42.017  37.064   4.246
25053W        W90038  41.409  28.393   1.066
25054W        W90039  21.236   1.961  13.186
25055W        W90040  24.228   8.344   2.069
25056W        W90041   4.041  11.832   1.642
25057W        W90042   6.893  43.987   4.192
25058W        W90043   8.930  23.041  12.810
25059W        W90044  20.862  23.897   5.524
25060W        W90045  26.932   4.872  12.063
25061W        W90046  42.517   5.342  11.536
25062W        W90047  35.951   2.595  13.508
25063W        W90048  15.700  17.994   9.976
25064W        W90049  39.621  38.758   2.903
25065W        W90050  38.037   7.751  13.425
25066W        W90051  10.732  16.656   1.777
25067W        W90052  15.588   3.775  12.180
25068W        W90053  14.160  16.965  14.915
25069W        W90054   0.040  27.031   1.798
25070W        W90055   9.848  35.881  12.120
25071W        W90056   3.216  35.504   3.298
25072W        W90057  42.434   9.382   1.399
25073W        W90058  17.587  36.867  11.277
25074W        W90059  41.482  40.019   2.315
25075W        W90060   5.911  32.516   0.262
25076W        W90061  12.946  24.908  13.070
25077W        W90062  33.544  32.435  13.293
25078W        W90063  27.011  24.172  12.149
25079W        W90064  20.860   0.779   2.982
25080W        W90065  28.750   2.506  12.060
25081W        W90066  21.658  12.513  10.982
25082W        W90067  28.546   3.016   3.031
25083W        W90068   5.901   2.975   4.571
25084W        W90069   5.309  21.968  13.863
25085W        W90070   3.937  35.380   4.690
25086W        W90071  23.169   1.781   0.041
25087W        W90072  25.602   3.398  12.492
25088W        W90073   1.369   6.326   2.389
25089W        W90074  44.858   0.265   0.802
25090W        W90075   3.896   6.900   4.112
25091W        W90076  18.723  23.148  10.546
25092W        W90077   1.279  32.651   4.778
25093W        W90078  28.390   9.558   0.724
25094W        W90079   1.865  34.195  14.916
25095W        W90080  44.997  25.028  12.844
25096W        W90081   3.301  16.948  12.646
25097W        W90082  10.730  35.604  10.779
25098W        W90083  29.069  14.400  13.356
25099W        W90084  39.051   4.245  12.386
25100W        W90085  33.685  17.491  13.878
25101W        W90086  39.719  33.097  14.316
25102W        W90087  30.599   4.817  13.491
25103W        W90088  14.522  34.111   3.164
25104W        W90089   9.777  12.189  11.011
25105W        W90090   9.966   9.881   2.924
25106W        W90091   6.963  42.511   1.403
25107W        W90092  25.100  16.111   0.837
25108W        W90093  16.686  42.276  13.765
25109W        W90094  22.571  10.949  14.863
25110W        W90095  22.929  30.582   0.839
25111W        W90096  16.749  16.554  12.145
25112W        W90097  33.888   3.846   4.069
25113W        W90098  14.650  12.956  11.191
25114W        W90099   6.741  43.829   2.144
25115W        W90100  39.997  44.693  14.205
25116W        W90101  27.176  35.417   3.986
25117W        W90102   9.461  18.207   5.090
25118W        W90103  42.648   6.306  13.518
25119W        W90104  32.976  43.938  12.058
25120W        W90105   5.928   9.458   0.350
25121W        W90106   5.767   1.175  13.513
25122W        W90107  27.092   9.057   2.218
25123W        W90108  41.768  33.637   2.776
25124W        W90109  44.832   2.574  12.985
25125W        W90110  32.124  19.182  10.711
25126W        W90111  10.208  15.263  13.491
25127W        W90112  25.064  35.812  14.544
25128W        W90113  18.978  25.487   1.182
25129W        W90114  34.450  30.968   1.379
25130W        W90115   9.868  43.412   1.699
25131W        W90116  20.189  29.843  12.920
25132W        W90117  33.402  14.650  10.992
25133W        W90118  30.395  31.086  11.503
25134W        W90119  16.618  31.060  11.602
25135W        W90120  17.964   4.867   0.704
25136W        W90121  37.673  25.860   3.255
25137W        W90122   0.101  43.341  14.631
25138W        W90123  34.288  22.466   4.734
25139W        W90124   8.002  24.023  13.038
25140W        W90125  19.236   8.713  11.541
25141W        W90126  35.887  43.487  13.950
25142W        W90127  18.079  21.033   1.879
25143W        W90128  35.092  25.109  11.145
25144W        W90129  27.574  15.908   2.927
25145W        W90130  31.453  13.579   2.822
25146W        W90131  24.489  31.215   3.315
25147W        W90132  29.142  28.895   1.774
25148W        W90133  10.681  10.159   3.382
25149W        W90134  39.017  19.062  12.824
25150W        W90135  29.035   9.881   2.396
25151W        W90136  42.558  30.318   2.656
25152W        W90137  12.260  23.052   2.267
25153W        W90138  18.996   0.521   4.508
25154W        W90139   3.450   4.806  10.190
25155W        W90140  23.900   5.287   2.851
25156W        W90141  10.206   0.380   9.875
25157W        W90142  43.479   4.480   3.690
25158W        W90143  34.989  14.115  13.598
25159W        W90144  24.463  37.999  14.439
25160W        W90145  38.631  14.346  13.509
25161W        W90146  32.547   2.681   3.141
25162W        W90147  37.657  29.443   0.839
25163W        W90148  21.970  22.849   4.560
25164W        W90149  11.471   8.391  11.133
25165W        W90150  31.688  35.418   2.298
25166W        W90151  21.323   6.963  10.988
25167W        W90152  10.635  41.364  11.166
25168W        W90153  44.014  29.862   2.791
25169W        W90154  40.320  39.851   2.768
25170W        W90155  13.813  22.375   2.894
25171W        W90156  10.753   2.822   1.294
25172W        W90157  21.250   2.372  12.337
25173W        W90158  38.804  17.411   5.168
25174W        W90159  31.038  22.893  13.347
25175W        W90160  30.087  33.193  11.165
25176W        W90161  44.027  12.320  13.959
25177W        W90162  18.672   3.257  13.595
25178W        W90163   0.485  26.220   0.063
25179W        W90164  32.634  32.041  10.504
25180W        W90165  17.225  33.975   4.553
25181W        W90166  23.384   2.438  14.754
25182W        W90167  17.664  10.247  10.952
25183W        W90168  21.109  28.231  13.900
25184W        W90169   4.921  40.144   2.397
25185W        W90170  34.058   3.992   1.184
25186W        W90171   4.118  20.556  13.507
25187W        W90172  13.303  15.605  13.118
25188W        W90173  31.296  13.750   1.457
25189W        W90174  12.756  16.293  14.145
25190W        W90175  16.614  34.999   4.117
25191W        W90176  34.638  35.067   2.494
25192W        W90177  40.912  12.232   2.433
25193W        W90178   0.382  15.923   1.212
25194W        W90179   1.287  42.465   0.797
25195W        W90180  15.829  11.738  11.278
25196W        W90181  21.190  41.435   2.167
25197W        W90182  21.740  17.207  13.932
25198W        W90183  35.380  20.502   3.659
25199W        W90184   4.008  40.460  14.001
25200W        W90185  28.163   6.394   3.870
25201W        W90186  15.782  21.160  10.822
25202W        W90187   3.852  36.806  12.087
25203W        W90188  14.766  23.856   2.323
25204W        W90189   8.618  12.592   3.845
25205W        W90190  10.708   2.100  10.743
25206W        W90191  30.956   2.344  12.644
25207W        W90192  41.836  26.728   1.530
25208W        W90193  43.671  44.657  12.827
25209W        W90194  18.702  12.957   4.859
25210W        W90195  10.233  41.573  13.217
25211W        W90196  23.442  22.572   2.672
25212W        W90197  35.553  35.876   4.522
25213W        W90198  31.854  11.282   3.216
25214W        W90199   7.958   3.817  12.619
25215W        W90200  26.982   7.632   0.349
25216W        W90201  33.676  17.601   0.777
25217W        W90202  21.087  18.280   3.706
25218W        W90203  17.952  41.382  13.773
25219W        W90204  16.599  14.876  11.670
25220W        W90205  14.647  29.810   0.558
25221W        W90206  39.525  12.345   1.858
25222W        W90207  26.225   4.992   1.866
25223W        W90208  21.254  43.673  13.954
25224W        W90209  27.628  42.877   4.072
25225W        W90210  40.010  11.702  11.277
25226W        W90211  13.034   1.250   1.081
25227W        W90212   7.422  35.399   0.787
25228W        W90213   6.710  38.572   2.870
25229W        W90214  23.374  33.448   2.113
25230W        W90215  10.842  43.754   0.764
25231W        W90216  25.728   3.179   2.887
25232W        W90217  33.135  24.211   4.509
25233W        W90218  18.278   6.255   1.198
25234W        W90219  36.520  24.252  12.043
25235W        W90220  24.726  12.218  12.012
25236W        W90221  38.530  15.158  13.137
25237W        W90222  43.117   6.423  12.660
25238W        W90223  41.066  25.038   1.658
25239W        W90224  39.429   9.197   0.775
25240W        W90225  11.757  43.264  14.837
25241W        W90226  24.140  16.839  14.268
25242W        W90227  35.354  29.756  10.882
25243W        W90228  21.185  17.481  11.367
25244W        W90229  16.272   5.526  12.630
25245W        W90230  24.597  19.830  10.569
25246W        W90231  42.798  37.146  11.824
25247W        W90232   0.467  10.207  12.144
25248W        W90233   1.334  32.953  12.064
25249W        W90234  42.999  37.550  12.041
25250W        W90235  37.501  19.271  12.922
25251W        W90236  41.861  13.672  11.386
25252W        W90237   5.729  23.688  14.047
25253W        W90238  33.781  31.097  12.592
25254W        W90239  11.663  25.447  10.500
25255W        W90240  16.423  35.093   1.951
25256W        W90241  16.246   9.835  11.647
25257W        W90242  23.717  37.958  10.752
25258W        W90243  27.160  14.259  10.609
25259W        W90244  29.679   2.826  10.605
25260W        W90245  26.186   5.363  14.301
25261W        W90246  43.767  12.778  14.012
25262W        W90247   2.411   8.629   1.706
25263W        W90248  40.778  24.111   1.833
25264W        W90249  44.006  27.081   1.581
25265W        W90250   1.968  17.561   4.557
25266W        W90251  11.521   9.134   1.985
25267W        W90252  38.063   2.331   2.389
25268W        W90253  12.758  40.292  14.310
25269W        W90254  34.577  39.847   0.580
25270W        W90255  19.719  18.660  11.110
25271W        W90256  16.049   2.970  12.141
25272W        W90257  30.475   7.850   4.591
25273W        W90258  38.089  29.470  13.927
25274W        W90259  31.902   6.077  11.540
25275W        W90260  29.013  36.416   2.310
25276W        W90261  14.561  42.173   4.142
25277W        W90262  20.145  26.914   2.212
25278W        W90263  12.723  42.450   1.309
25279W        W90264   2.175  17.249   0.766
25280W        W90265  10.140   5.694  13.425
25281W        W90266  43.750   8.869  13.431
25282W        W90267   9.554  10.148  12.010
25283W        W90268  13.800  28.653   2.013
25284W        W90269  16.017  40.752  13.531
25285W        W90270  32.015  42.311  14.330
25286W        W90271  15.630  13.324   4.834
25287W        W90272  27.116  36.225   2.766
25288W        W90273  29.517   5.674   1.742
25289W        W90274  18.499  29.902   3.183
25290W        W90275  14.811  12.167  12.994
25291W        W90276  28.373   1.152  11.122
25292W        W90277  24.349   3.505  13.113
25293W        W90278  21.822  40.911  12.889
25294W        W90279   8.373  23.730   3.146
25295W        W90280  30.594  41.801  12.080
25296W        W90281  20.976  29.921   0.953
25297W        W90282  44.278  38.906  10.494
25298W        W90283  13.735  23.431   1.843
25299W        W90284  33.507  34.352   3.265
25300W        W90285  22.144  33.940   1.724
25301W        W90286   2.938  35.425   2.838
25302W        W90287  27.037   2.096   5.026
25303W        W90288  20.173   2.508  11.111
25304W        W90289   1.133   9.927  14.085
25305W        W90290  26.247  22.994  13.375
25306W        W90291  20.720  18.079   0.209
25307W        W90292  24.847  39.056   1.343
25308W        W90293  38.019  31.171   3.613
25309W        W90294  21.884  41.787   1.270
25310W        W90295  39.183  32.944  14.245
25311W        W90296  18.633  30.230  11.538
25312W        W90297   7.910  31.609  14.394
25313W        W90298  28.630  34.132  14.256
25314W        W90299   8.664  29.297   0.782
25315W        W90300  10.176  17.612  13.029
25316W        W90301  17.001  22.769   0.985
25317W        W90302  15.638  24.686  13.902
25318W        W90303  25.125  43.507   1.779
25319W        W90304  20.676  40.045   4.076
25320W        W90305  24.117   9.858  12.357
25321W        W90306   3.188  11.179  12.005
25322W        W90307  18.483  18.652   3.239
25323W        W90308  17.145  19.041   4.734
25324W        W90309   5.741  42.126   2.038
25325W        W90310  26.733  40.537   4.680
25326W        W90311  28.197   3.433   4.122
25327W        W90312   0.075  27.643  10.080
25328W        W90313   7.731  13.187   2.246
25329W        W90314  41.703   8.010  14.746
25330W        W90315  27.626  12.032   2.332
25331W        W90316   2.230  24.484   0.973
25332W        W90317  37.319  35.762  13.927
25333W        W90318  39.483   3.698  13.991
25334W        W90319  25.078   8.026  10.540
25335W        W90320  37.949  39.756  14.785
25336W        W90321  40.286   8.707  13.430
25337W        W90322  30.585   2.716   4.798
25338W        W90323  42.854  21.491   1.428
25339W        W90324  43.437  39.313  14.279
25340W        W90325   5.322  36.521   1.004
25341W        W90326  19.532   8.734   0.400
25342W        W90327  33.973   0.816   4.589
25343W        W90328  12.883   6.391  10.594
25344W        W90329  24.258   5.341  13.945
25345W        W90330   3.220   2.290   4.097
25346W        W90331   2.521  40.104   2.592
25347W        W90332   1.929  13.376   4.084
25348W        W90333  11.345  42.836   3.650
25349W        W90334  40.930  25.090  11.262
25350W        W90335  42.965  14.349  12.274
25351W        W90336  24.670  14.906  11.173
25352W        W90337   3.034  40.569  11.053
25353W        W90338  43.574  18.025   2.771
25354W        W90339  31.893   8.265  10.427
25355W        W90340  11.436  25.053  10.130
25356W        W90341  14.700  20.952   2.932
25357W        W90342  10.288  37.407  12.835
25358W        W90343  35.497  16.525  13.475
25359W        W90344  32.399  16.998  12.508
25360W        W90345  11.907  33.953   1.737
25361W        W90346   4.736  44.253  11.908
25362W        W90347  23.970  37.524  10.610
25363W        W90348   1.707  35.957  12.047
25364W        W90349  39.509  34.542   4.032
25365W        W90350  24.910  26.732   2.124
25366W        W90351  30.404  17.322   1.693
25367W        W90352  28.631  20.742  13.642
25368W        W90353  34.597  26.341   3.641
25369W        W90354  30.105  27.642  11.144
25370W        W90355  10.537  31.936  11.868
25371W        W90356  39.796  30.525  12.608
25372W        W90357   0.228   8.963  14.944
25373W        W90358  35.403   7.271  14.127
25374W        W90359  14.641   3.576  10.595
25375W        W90360  17.134  13.210   1.344
25376W        W90361  43.269  17.191   2.419
25377W        W90362  21.393  10.121  14.474
25378W        W90363  32.041   8.738  14.371
25379W        W90364  17.623   3.317   1.922
25380W        W90365  12.645  34.452  13.999
25381W        W90366  42.924  36.007   1.681
25382W        W90367  30.405  19.595  10.579
25383W        W90368   2.137  23.246   4.197
25384W        W90369  32.959  12.402   3.165
25385W        W90370   4.822  26.475   1.909
25386W        W90371  44.319  21.406   4.964
25387W        W90372   8.208   6.963   4.483
25388W        W90373  34.836  14.552  11.085
25389W        W90374  36.026  36.659   1.861
25390W        W90375   5.137  24.438   0.764
25391W        W90376  34.028   7.778   5.370
25392W        W90377  29.396  43.017   1.265
25393W        W90378  14.631  10.555  14.441
25394W        W90379  20.642  25.744  12.426
25395W        W90380  15.151  21.720  13.650
25396W        W90381  37.912  10.580   1.655
25397W        W90382  21.231  27.554   3.247
25398W        W90383  14.299  26.543  14.485
25399W        W90384  40.785  37.613   4.472
25400W        W90385   7.108   5.341  14.752
25401W        W90386  30.913  36.064   2.299
25402W        W90387  44.033  23.564   2.766
25403W        W90388  28.436  15.025  13.149
25404W        W90389   1.896  38.177   2.824
25405W        W90390  31.016  17.558  14.115
25406W        W90391  17.856   3.755  11.533
25407W        W90392  37.108  30.122   3.726
25408W        W90393  43.967  17.525   0.377
25409W        W90394   8.247   3.392   4.215
25410W        W90395  30.532   6.288  10.712
25411W        W90396   3.190  27.999   0.732
25412W        W90397  23.652  34.107   3.217
25413W        W90398  42.955  32.612  14.716
25414W        W90399   8.366  41.698  13.017
25415W        W90400   5.895  24.281  12.907
25416W        W90401  38.602  33.490   1.831
25417W        W90402  38.938  32.940  11.894
25418W        W90403   3.010  11.223  11.520
25419W        W90404   6.693   3.481  13.089
25420W        W90405  11.553  39.101  11.862
25421W        W90406  24.518  41.452  11.617
25422W        W90407  23.972   1.986  12.060
25423W        W90408  24.183  33.814   4.054
25424W        W90409  28.907  38.822  13.364
25425W        W90410  14.082  26.096   1.842
25426W        W90411  26.132  18.367  11.942
25427W        W90412   0.029  22.003   4.224
25428W        W90413   7.698  13.095  13.549
25429W        W90414  43.169   4.445  13.873
25430W        W90415  13.398  23.558  11.143
25431W        W90416  27.867   0.723  14.992
25432W        W90417  32.196  39.932  13.875
25433W        W90418  12.375  21.670   3.534
25434W        W90419  18.645  40.350   1.497
25435W        W90420  36.672  26.686   2.308
25436W        W90421  14.236   1.430  11.480
25437W        W90422  11.054  25.041  11.049
25438W        W90423  21.042  36.634  12.404
25439W        W90424  22.932  25.037  11.144
25440W        W90425  32.530  23.224  11.384
25441W        W90426  30.893  28.599   2.837
25442W        W90427   7.870  10.887   0.354
25443W        W90428  21.056  32.366  14.169
25444W        W90429  42.467  20.247   3.266
25445W        W90430   1.894   9.440  11.022
25446W        W90431   3.998  44.476   0.475
25447W        W90432  39.590  39.475  14.925
25448W        W90433  22.531   9.493  13.942
25449W        W90434  32.373  26.863   0.217
25450W        W90435  23.240  35.764   2.415
25451W        W90436  37.129  44.296  11.972
25452W        W90437  37.923  26.690   0.744
25453W        W90438  34.925   9.407  10.831
25454W        W90439  16.546  19.995  11.076
25455W        W90440  10.222  15.069  11.514
25456W        W90441   9.811  12.507   4.493
25457W        W90442   0.382  32.484  11.136
25458W        W90443  37.728   2.898   3.755
25459W        W90444   3.260  21.562   4.822
25460W        W90445  33.405   1.988  12.847
25461W        W90446  23.731  38.402  14.032
25462W        W90447  43.243  38.981  14.809
25463W        W90448  43.489  42.373  12.022
25464W        W90449   4.347   5.478  10.070
25465W        W90450  18.845   4.223  12.372
25466W        W90451  11.585  17.024  11.585
25467W        W90452  40.340  35.415   2.261
25468W        W90453  23.539  35.878   0.467
25469W        W90454  35.559  14.693  13.484
25470W        W90455  24.082   2.823   3.264
25471W        W90456  26.081  30.155   3.579
25472W        W90457  20.751  43.253  14.885
25473W        W90458  40.231  16.393  12.528
25474W        W90459  24.716  31.436   0.897
25475W        W90460  17.754   2.596  14.416
25476W        W90461  15.261   9.735  10.634
25477W        W90462  37.939  22.840  12.427
25478W        W90463  13.627  13.022  11.098
25479W        W90464  29.507  12.410   4.309
25480W        W90465  44.287  41.886   3.013
25481W        W90466  23.250   8.129   2.744
25482W        W90467  20.591  22.238  14.473
25483W        W90468  18.231  21.795  13.640
25484W        W90469  16.536  13.383   0.254
25485W        W90470  32.361  19.059   1.014
25486W        W90471  37.899  38.743  11.119
25487W        W90472  27.599  10.299   2.579
25488W        W90473   8.865  41.415  10.402
25489W        W90474  38.093  29.558   4.597
25490W        W90475  22.978  14.429  10.372
25491W        W90476  26.841  29.195   1.869
25492W        W90477  21.744  33.995  12.487
25493W        W90478  36.842   5.805   3.656
25494W        W90479  12.182  36.912  12.861
25495W        W90480  18.103  26.507  11.308
25496W        W90481  29.180   0.441  12.936
25497W        W90482  29.667   8.425   0.372
25498W        W90483  25.971  14.638  11.485
25499W        W90484  42.293  28.629   5.449
25500W        W90485  24.058  13.774   0.226
25501W        W90486  38.511   5.224  11.791
25502W        W90487   1.983   9.384   0.822
25503W        W90488  18.751  23.041  12.247
25504W        W90489   5.192   8.250  13.072
25505W        W90490  11.255  34.607   2.882
25506W        W90491  38.365  38.104   4.710
25507W        W90492  26.867  28.864   4.544
25508W        W90493  16.603  12.857   3.234
25509W        W90494   1.700  43.120   2.114
25510W        W90495  16.277  38.629   0.715
25511W        W90496  13.155  19.231   1.547
25512W        W90497  34.564  28.588  11.500
25513W        W90498   3.780  10.434   1.930
25514W        W90499  44.301   7.512  13.788
25515W        W90500  34.709   7.329   2.178
25516W        W90501   6.896  15.850   2.050
25517W        W90502  43.382  41.780   3.326
25518W        W90503  27.978   4.250  10.030
25519W        W90504  15.974  19.803   4.124
25520W        W90505   8.095  12.113  13.981
25521W        W90506  40.867   2.901  13.457
25522W        W90507  44.824  44.000   1.273
25523W        W90508  22.256  20.941  12.015
25524W        W90509  23.502  32.903   0.546
25525W        W90510  31.027  40.557   0.010
25526W        W90511   6.213  26.171   3.107
25527W        W90512  26.180  16.710  14.319
25528W        W90513  41.581  32.883  14.974
25529W        W90514  41.945  12.535  10.596
25530W        W90515  22.201  36.524  14.478
25531W        W90516  36.418   5.281   2.399
25532W        W90517  19.271  33.385   0.672
25533W        W90518   1.275  25.912  14.439
25534W        W90519  28.450   7.819  14.393
25535W        W90520  15.159  41.830   2.207
25536W        W90521  11.342  27.894   1.688
25537W        W90522  43.768  37.171   1.255
25538W        W90523  27.353   8.736   1.861
25539W        W90524  16.101  44.321   2.458
25540W        W90525  20.635  28.507   1.830
25541W        W90526  30.238  10.916   0.263
25542W        W90527  26.647  18.704   1.167
25543W        W90528  43.355  14.274   1.630
25544W        W90529  27.459   5.950  11.517
25545W        W90530  29.127   9.621  12.439
25546W        W90531  35.035  15.368   4.118
25547W        W90532  24.202  18.365   5.111
25548W        W90533  28.518  28.467   2.622
25549W        W90534  42.062  23.411   2.980
25550W        W90535  28.774  16.694  14.370
25551W        W90536  34.012   4.515   1.870
25552W        W90537  24.293   1.340  14.744
25553W        W90538   5.796  39.041  13.280
25554W        W90539  28.585   3.877   3.346
25555W        W90540  13.057  13.590  12.841
25556W        W90541   0.030  10.168  14.157
25557W        W90542  29.460  20.698  14.891
25558W        W90543  18.676  23.676   1.541
25559W        W90544   9.374   0.526  13.301
25560W        W90545  24.052   0.353  11.837
25561W        W90546  25.181  20.594  13.948
25562W        W90547  21.546  34.044   2.913
25563W        W90548   9.016  27.933  13.526
25564W        W90549  38.888  43.837   4.360
25565W        W90550  39.785  26.795  11.599
25566W        W90551   3.767  18.013  11.108
25567W        W90552  19.150   9.218  11.588
25568W        W90553  14.790  13.656   2.342
25569W        W90554  13.658  43.068  13.849
25570W        W90555  29.461  29.330  13.939
25571W        W90556  18.481   0.389   4.245
25572W        W90557  41.585  30.384   2.792
25573W        W90558   7.443  41.920   2.437
25574W        W90559  41.957  42.870   3.108
25575W        W90560  20.267  10.918  14.478
25576W        W90561  16.515   7.507   4.936
25577W        W90562  23.459  22.037   4.438
25578W        W90563   6.184  31.094  12.517
25579W        W90564  40.447   4.928  12.080
25580W        W90565   2.453   9.257  13.955
25581W        W90566  39.628   3.526   1.400
25582W        W90567  34.314  16.350  13.985
25583W        W90568  36.642  10.418   0.868
25584W        W90569  33.080   2.898  13.415
25585W        W90570   4.506  44.925  11.889
25586W        W90571  34.939   3.535   2.802
25587W        W90572  16.716  22.496   4.203
25588W        W90573   6.349  23.645  12.561
25589W        W90574   0.852  11.345   3.610
25590W        W90575  34.057  23.575   2.227
25591W        W90576  31.505  25.409   2.649
25592W        W90577  15.159   4.397  11.953
25593W        W90578  18.223  35.939   1.165
25594W        W90579  37.079   8.745  14.776
25595W        W90580  14.024  29.997  12.517
25596W        W90581  44.403  31.367  14.023
25597W        W90582  15.549  33.515   4.159
25598W        W90583  33.166  43.793  11.532
25599W        W90584  28.192  11.833  11.179
25600W        W90585  27.956  16.654  13.999
25601W        W90586  33.638  14.758   0.333
25602W        W90587  37.109  27.524  10.673
25603W        W90588  26.231  40.724  14.397
25604W        W90589  24.958  20.682   3.792
25605W        W90590  41.052  13.580   2.419
25606W        W90591  43.918  40.690  10.351
25607W        W90592   6.260  10.153  10.770
25608W        W90593   7.440  11.885   0.945
25609W        W90594  20.993  42.415  11.595
25610W        W90595  34.855  31.147  14.556
25611W        W90596   2.774   6.520   0.088
25612W        W90597  36.531  21.012   3.721
25613W        W90598  18.525  41.817  11.558
25614W        W90599  33.599   1.379  10.685
25615W        W90600   5.832  33.984   1.186
25616W        W90601  36.647  16.936   3.583
25617W        W90602  19.636  30.680  10.475
25618W        W90603  37.441  29.611   4.046
25619W        W90604  28.071  26.503   4.655
25620W        W90605  20.271   1.815   3.373
25621W        W90606  33.925  23.723   0.020
25622W        W90607  14.837  18.183  13.066
25623W        W90608  40.290  28.570  12.498
25624W        W90609  29.937   8.753  13.515
25625W        W90610  30.030  25.807   2.573
25626W        W90611  17.748  36.483   3.782
25627W        W90612  27.202  40.029  14.138
25628W        W90613  33.128  10.160  14.458
25629W        W90614  36.885   8.456  10.116
25630W        W90615   9.445  14.664  13.861
25631W        W90616  19.136  23.743  12.163
25632W        W90617  11.662  10.786   3.855
25633W        W90618   9.770  33.213   0.542
25634W        W90619  22.720  24.685  14.287
25635W        W90620  33.586   2.480   4.198
25636W        W90621  29.578   6.887   4.123
25637W        W90622  13.846  26.064   2.299
25638W        W90623  36.472   1.715  14.866
25639W        W90624  44.601  37.289  11.146
25640W        W90625  26.125  43.466   4.788
25641W        W90626  39.227  27.091  14.421
25642W        W90627  16.542   3.261   4.575
25643W        W90628  16.573   8.218  14.551
25644W        W90629  43.362  31.841  14.730
25645W        W90630  15.125  31.514   1.770
25646W        W90631  20.484  22.585  13.408
25647W        W90632  40.813  40.223  14.308
25648W        W90633   0.070  12.295  14.009
25649W        W90634  24.642  37.035  10.496
25650W        W90635  34.206   5.117   1.172
25651W        W90636  14.359  18.161   0.765
25652W        W90637  14.102  19.941  13.919
25653W        W90638  14.171  19.443  14.007
25654W        W90639  13.861   9.604  11.188
25655W        W90640  34.492  39.035   4.585
25656W        W90641  43.316  33.409   1.224
25657W        W90642   2.975  41.585   1.596
25658W        W90643   7.363  33.061   0.076
25659W        W90644  42.829  26.529  13.012
25660W        W90645  16.273   9.913  13.549
25661W        W90646  26.775  33.925   2.983
25662W        W90647  17.227   6.585  10.248
25663W        W90648   1.219  17.725  12.790
25664W        W90649  44.563  18.592   0.081
25665W        W90650  28.617   3.475   1.290
25666W        W90651  26.549  29.120  14.334
25667W        W90652  17.580  21.168   3.861
25668W        W90653  16.020  35.514  13.540
25669W        W90654  44.904  38.920  13.905
25670W        W90655  37.006  21.990   0.531
25671W        W90656   4.374  39.011  13.464
25672W        W90657  32.152  23.710   4.675
25673W        W90658  11.163  14.292  13.305
25674W        W90659   6.830   2.249   4.705
25675W        W90660   0.822  39.141  10.796
25676W        W90661  16.643  10.536  13.191
25677W        W90662  25.647   0.545   0.703
25678W        W90663  40.864   4.439   4.049
25679W        W90664  36.759  33.874   1.778
25680W        W90665   8.979   9.323   0.509
25681W        W90666  39.383   3.365  12.407
25682W        W90667  20.144  41.066  14.419
25683W        W90668  40.047  20.269   4.798
25684W        W90669  19.016  21.785  11.112
25685W        W90670  26.394  18.381   3.181
25686W        W90671  37.678  12.255   0.534
25687W        W90672  19.122  37.092   2.074
25688W        W90673   4.944  11.314   1.452
25689W        W90674  42.598  33.160   3.503
25690W        W90675  15.982   2.765  14.549
25691W        W90676  37.193  33.295   0.819
25692W        W90677  37.477  35.704   4.073
25693W        W90678  20.209  36.541  13.296
25694W        W90679  39.650   6.298  11.603
25695W        W90680  27.346  24.470   3.938
25696W        W90681   6.053  35.300  14.453
25697W        W90682  14.813  18.283   2.395
25698W        W90683   9.425   9.085   0.368
25699W        W90684  44.985  15.023  13.929
25700W        W90685  37.362  29.654   5.051
25701W        W90686  27.866   3.731   4.948
25702W        W90687  38.040  25.629   2.294
25703W        W90688  35.888  10.130   3.264
25704W        W90689  14.254  41.450   2.928
25705W        W90690  25.632  12.625  12.916
25706W        W90691  27.521  19.924  12.187
25707W        W90692   3.481  28.088  12.985
25708W        W90693   6.265  31.611  10.870
25709W        W90694  34.850  30.892  10.528
25710W        W90695  26.083  40.610   4.041
25711W        W90696  24.666   9.392  11.545
25712W        W90697  42.455  43.781   1.191
25713W        W90698  14.014   4.882   0.897
25714W        W90699   0.131  17.460  13.771
25715W        W90700  24.273  44.398   0.202
25716W        W90701  16.704  43.333  11.010
25717W        W90702  29.519   7.918  12.096
25718W        W90703   1.348  10.749  12.139
25719W        W90704   9.495  16.644   1.514
25720W        W90705  25.924  27.246   0.310
25721W        W90706  41.073  26.985   3.095
25722W        W90707  12.916  31.049  11.253
25723W        W90708  31.529  28.132   2.339
25724W        W90709   0.080  36.093  12.903
25725W        W90710  27.201  25.616  11.533
25726W        W90711  11.338  22.571  13.493
25727W        W90712  17.268  35.031  12.138
25728W        W90713  29.511  22.653  10.733
25729W        W90714   2.123   8.425  10.776
25730W        W90715  16.606  20.136  13.569
25731W        W90716  41.130  37.098   2.198
25732W        W90717  11.242  31.194   0.797
25733W        W90718  43.322  27.187   0.820
25734W        W90719  10.524  15.600  13.761
25735W        W90720  16.618  18.867   3.173
25736W        W90721  40.418  14.836   1.899
25737W        W90722  11.816  26.861   3.326
25738W        W90723  10.357  42.128  11.623
25739W        W90724  11.884  20.303  13.390
25740W        W90725  30.330   1.426   0.193
25741W        W90726  10.899  12.288   0.478
25742W        W90727  19.009  16.767   4.172
25743W        W90728  17.311   0.078   0.866
25744W        W90729   5.430  25.614   1.677
25745W        W90730  24.942  38.858  11.490
25746W        W90731   5.452  15.857   4.368
25747W        W90732   9.298  38.406   0.629
25748W        W90733  17.361  28.705   5.393
25749W        W90734  20.089   4.069   3.365
25750W        W90735  42.773  26.265   0.865
25751W        W90736  41.399  11.230   1.317
25752W        W90737  35.866  40.271   3.414
25753W        W90738  18.252   0.288   1.360
25754W        W90739   9.130  28.034  11.126
25755W        W90740  29.703  37.663   1.769
25756W        W90741  42.973  11.965  10.830
25757W        W90742  10.645  11.932   1.385
25758W        W90743   2.227  16.607   1.752
25759W        W90744  14.622  44.408  11.555
25760W        W90745  33.144  44.781   0.560
25761W        W90746  13.829  14.406   2.848
25762W        W90747  15.557   2.956  13.092
25763W        W90748   3.437   5.057  11.667
25764W        W90749   7.953  32.846   4.996
25765W        W90750  20.074  12.791  12.832
25766W        W90751  22.520  29.947   1.807
25767W        W90752  18.228  12.123  12.518
25768W        W90753  32.544  22.409  10.733
25769W        W90754   9.678  31.903  14.399
25770W        W90755  14.317   7.342   3.910
25771W        W90756  44.055   7.629  14.730
25772W        W90757   3.381  38.613  13.519
25773W        W90758   4.845  42.788  10.165
25774W        W90759  35.980  39.290   2.347
25775W        W90760  35.367  15.259   0.711
25776W        W90761  19.422  10.885   2.349
25777W        W90762  24.717   5.808  13.487
25778W        W90763  27.083   0.691  11.546
25779W        W90764  11.080  29.829   1.447
25780W        W90765  36.169  24.512  11.808
25781W        W90766   9.731  41.431  12.385
25782W        W90767  23.462   0.837   4.470
25783W        W90768  21.996  21.216  14.781
25784W        W90769  36.060  21.746   1.703
25785W        W90770  31.072  16.633   3.393
25786W        W90771  41.522   6.275   2.213
25787W        W90772  11.261  13.030  14.409
25788W        W90773  43.501   9.228   1.557
25789W        W90774  23.510  44.041  12.087
25790W        W90775   4.695  30.863   3.281
25791W        W90776   6.310  33.892  12.154
25792W        W90777  17.762  25.866   3.951
25793W        W90778  20.190  11.716  12.033
25794W        W90779  30.002   9.894  11.037
25795W        W90780  21.708   3.428  14.473
25796W        W90781   2.304   2.858   4.480
25797W        W90782   2.649  21.037   0.481
25798W        W90783  37.808  20.238  13.937
25799W        W90784  35.890  18.671   1.132
25800W        W90785   0.700  29.864  10.441
25801W        W90786   0.597   6.429  13.881
25802W        W90787  16.607   0.041  13.803
25803W        W90788  11.740  28.909   0.830
25804W        W90789  10.542   6.927  11.017
25805W        W90790  44.322  18.532   4.466
25806W        W90791  26.473  24.697   3.272
25807W        W90792  31.051  34.372  12.493
25808W        W90793  13.506  11.344  11.670
25809W        W90794   6.236  11.074  12.559
25810W        W90795  40.823   3.418  13.548
25811W        W90796  31.932  20.051   2.720
25812W        W90797  15.824  12.700  13.515
25813W        W90798  34.085   1.777   2.822
25814W        W90799  37.483   0.509   2.203
25815W        W90800  39.378  14.996   3.200
25816W        W90801  44.939  15.732  14.509
25817W        W90802  44.235  40.459  14.751
25818W        W90803  28.120  42.471  11.124
25819W        W90804  31.136  24.528  12.606
25820W        W90805  23.872  36.399   1.114
25821W        W90806  12.906  22.724   0.521
25822W        W90807  26.570  35.550   4.375
25823W        W90808  24.146  26.060   3.033
25824W        W90809  44.128  26.164   1.422
25825W        W90810  18.753  44.881  12.874
25826W        W90811   9.283  29.838   1.871
25827W        W90812  33.028  22.007   2.530
25828W        W90813  17.031  30.749   2.865
25829W        W90814  40.413  39.001   1.539
25830W        W90815  31.121  42.541   2.301
25831W        W90816  32.934  21.507   2.647
25832W        W90817   7.874  26.882   0.290
25833W        W90818   4.780  40.479   1.770
25834W        W90819  38.757  27.115  11.242
25835W        W90820   4.961   3.661   1.410
25836W        W90821  39.474  27.997  12.616
25837W        W90822   3.690   7.766   4.987
25838W        W90823  33.532   7.856  12.944
25839W        W90824  42.025   6.480  14.810
25840W        W90825  22.712  39.389   0.010
25841W        W90826  38.853  25.699  14.693
25842W        W90827  25.454  37.360  14.822
25843W        W90828   0.506   9.376   1.009
25844W        W90829  37.626   9.370   0.307
25845W        W90830  39.124  13.903   0.777
25846W        W90831   6.437   2.461  13.505
25847W        W90832   2.685  41.346   1.235
25848W        W90833  15.605   5.489   3.267
25849W        W90834  16.818  19.163  12.592
25850W        W90835  22.575  27.997  13.058
25851W        W90836  25.514  19.332   1.262
25852W        W90837  33.081  28.413   2.401
25853W        W90838  20.599   1.926  13.844
25854W        W90839  43.914  41.981  12.813
25855W        W90840  26.073  20.498   0.015
25856W        W90841  38.227  33.002  14.586
25857W        W90842  10.401  37.757   4.582
25858W        W90843  44.769  30.833  11.988
25859W        W90844  42.613   1.900   0.543
25860W        W90845  29.957  39.917  14.409
25861W        W90846  21.207  36.585   0.262
25862W        W90847  26.632  15.797   2.809
25863W        W90848   9.754  31.056  12.438
25864W        W90849  36.598  38.435  10.689
25865W        W90850   7.263   8.530   2.774
25866W        W90851  21.499  41.582   4.335
25867W        W90852   5.317  38.449   1.876
25868W        W90853   4.116  27.981   1.651
25869W        W90854  41.831  44.283   2.808
25870W        W90855  33.345  44.341   1.011
25871W        W90856  32.342  36.004  10.392
25872W        W90857  37.204  33.957  14.120
25873W        W90858  41.724  20.463   0.501
25874W        W90859  42.892  29.180  11.555
25875W        W90860   4.682  29.006   0.519
25876W        W90861  15.492  23.312   3.272
25877W        W90862   1.438  43.852  14.353
25878W        W90863  12.981  30.059  14.261
25879W        W90864  12.828  31.922   2.667
25880W        W90865  42.334  31.424   0.906
25881W        W90866  32.552   9.958   1.301
25882W        W90867  13.319  20.286  14.308
25883W        W90868  44.772  31.227  11.059
25884W        W90869   2.695   4.407   1.866
25885W        W90870  17.691  14.406   3.756
25886W        W90871   1.952   8.002  11.202
25887W        W90872  42.981  34.710  12.297
25888W        W90873  15.061   5.189   2.863
25889W        W90874  42.283  36.575   3.209
25890W        W90875  31.904  30.767  13.110
25891W        W90876   2.053  16.797  13.485
25892W        W90877  42.450  14.250   1.630
25893W        W90878  22.469  34.178   2.502
25894W        W90879  32.043  41.861   1.701
25895W        W90880  15.842  33.960  13.200
25896W        W90881  19.796   4.179  10.435
25897W        W90882  17.394  30.892  12.359
25898W        W90883  24.743  36.511   0.706
25899W        W90884  33.798  10.423  13.241
25900W        W90885   8.412  40.202   1.077
25901W        W90886  23.669  41.780   1.767
25902W        W90887  30.378  12.377  13.080
25903W        W90888  31.009  23.290   0.776
25904W        W90889  32.473  44.978  11.542
25905W        W90890   6.249  38.243  12.473
25906W        W90891  32.949  40.720   0.709
25907W        W90892  22.246  12.969   1.078
25908W        W90893  24.290  34.158  12.181
25909W        W90894  27.737  16.805  11.526
25910W        W90895  28.471  37.534  13.087
25911W        W90896  37.998   7.451  12.982
25912W        W90897  24.659  13.224   4.379
25913W        W90898  16.620  18.248   0.343
25914W        W90899  33.866   2.972  12.090
25915W        W90900  27.647  41.380  13.842
25916W        W90901  18.172  31.564   4.464
25917W        W90902  14.582  19.239   3.180
25918W        W90903  26.768  41.037   0.228
25919W        W90904  44.508  35.132  10.077
25920W        W90905  34.472   6.848   2.134
25921W        W90906  30.101  31.131   1.211
25922W        W90907  28.948   8.376   0.067
25923W        W90908  10.132   1.207   0.891
25924W        W90909  23.992  43.774   0.076
25925W        W90910  32.646  33.468   4.779
25926W        W90911  30.094  40.992  13.979
25927W        W90912  42.034  23.621   1.239
25928W        W90913  39.853   7.957  13.641
25929W        W90914  39.126  33.499   1.897
25930W        W90915  31.997  27.016   1.806
25931W        W90916  32.067   5.028   4.732
25932W        W90917   6.668  43.854   0.749
25933W        W90918  15.698  34.296  10.740
25934W        W90919   7.334  27.132  14.368
25935W        W90920  28.180   0.589   0.390
25936W        W90921   1.610  25.397   2.391
25937W        W90922  22.617  42.350  12.578
25938W        W90923  39.215   2.712  11.243
25939W        W90924   3.253  32.882  13.197
25940W        W90925  24.958  11.294  14.934
25941W        W90926  11.339  43.230  14.509
25942W        W90927  24.745  35.500  14.853
25943W        W90928   8.075  30.123  11.668
25944W        W90929   1.332  36.890   1.242
25945W        W90930   2.031   3.120  11.501
25946W        W90931  29.239  24.898  12.364
25947W        W90932  19.390  43.350   1.658
25948W        W90933  11.211  18.140   4.179
25949W        W90934  29.499   2.996  14.701
25950W        W90935  11.118  13.554  13.062
25951W        W90936  14.217   5.495   2.371
25952W        W90937  33.530  30.936   0.858
25953W        W90938  16.628  41.415   4.362
25954W        W90939   9.262  35.932   3.267
25955W        W90940  42.497  19.832   0.796
25956W        W90941   5.511  39.394   4.400
25957W        W90942   7.930  14.678   1.314
25958W        W90943  25.561  35.064   2.033
25959W        W90944   5.353  11.232   0.296
25960W        W90945  34.047  10.926   3.719
25961W        W90946  32.045  22.925  14.856
25962W        W90947  12.874  12.692   2.762
25963W        W90948  16.071  30.547  12.979
25964W        W90949  15.586  41.868  13.301
25965W        W90950   4.367   0.876   3.746
25966W        W90951  38.766  43.420  12.823
25967W        W90952  14.960   0.182   2.004
25968W        W90953  22.279   4.310   0.591
25969W        W90954   6.115  30.984   4.275
25970W        W90955   5.520  40.281   1.701
25971W        W90956   1.173   6.435   4.197
25972W        W90957  39.907   8.798   1.990
25973W        W90958  18.125  31.929   2.121
25974W        W90959  10.750  29.333   3.188
25975W        W90960  25.578  20.677   2.271
25976W        W90961  17.060  37.856  13.359
25977W        W90962  37.625  34.094   1.353
25978W        W90963  44.783   7.407   2.123
25979W        W90964  31.163  43.590   2.809
25980W        W90965  31.615  42.799   0.948
25981W        W90966   0.340  44.188   4.630
25982W        W90967  34.436  10.976   4.074
25983W        W90968  18.302  11.423   3.312
25984W        W90969  19.557  41.469   3.311
25985W        W90970  10.269  35.368   0.765
25986W        W90971   7.865  19.854  13.390
25987W        W90972   8.999  29.372  13.937
25988W        W90973  29.046   1.240  12.342
25989W        W90974  21.377  40.893  13.829
25990W        W90975  33.438  43.515   0.005
25991W        W90976  23.734  38.130   3.384
25992W        W90977  24.670  19.830   4.912
25993W        W90978  18.277  38.374   3.180
25994W        W90979   5.203   2.272  12.297
25995W        W90980   0.390   9.689   1.413
25996W        W90981  13.316  33.297   5.006
25997W        W90982   1.703  27.092   1.398
25998W        W90983  42.267   4.117  12.172
25999W        W90984   5.356  34.383   2.252
26000W        W90985   8.348  33.091   4.748
26001W        W90986  26.173   3.701   2.300
26002W        W90987  11.434  24.587   1.917
26003W        W90988   9.979  22.106   3.548
26004W        W90989  16.076  17.137  12.090
26005W        W90990   9.435  36.691   4.176
26006W        W90991  41.827  23.764  13.505
26007W        W90992  19.076  40.420  10.674
26008W        W90993   4.671  14.196   1.672
26009W        W90994  20.757  22.333   2.693
26010W        W90995   5.947  35.014  12.255
26011W        W90996  24.654   0.458   4.101
26012W        W90997  18.442  31.545  13.250
26013W        W90998  18.267  34.427   1.333
26014W        W90999  20.302   4.366  14.927
26015W        W91000  32.532  28.472  11.445
26016W        W91001   8.734   3.461  14.372
26017W        W91002  18.288   2.880   0.841
26018W        W91003  26.002  26.463   9.953
26019W        W91004  36.532  27.575  13.957
26020W        W91005  24.667  11.399   3.714
26021W        W91006  10.290  12.336   2.254
26022W        W91007   5.459   5.505  13.554
26023W        W91008  27.593  44.697  13.531
26024W        W91009  23.838  22.478  11.572
26025W        W91010  32.641   2.434  11.050
26026W        W91011  19.051  16.787  11.956
26027W        W91012  29.727  40.284   2.132
26028W        W91013  41.978  29.133   1.917
26029W        W91014  18.129  23.220   0.505
26030W        W91015  32.903   4.744  12.946
26031W        W91016  38.300   4.580  14.828
26032W        W91017  15.370   1.889   4.171
26033W        W91018  21.678  40.619   4.639
26034W        W91019   5.919  26.724   1.268
26035W        W91020  42.049  25.932   0.398
26036W        W91021  30.132  39.590  11.938
26037W        W91022   1.210  39.526  10.720
26038W        W91023   1.467  20.133  12.766
26039W        W91024  11.074  27.248  10.918
26040W        W91025   6.951   6.359  13.772
26041W        W91026   6.920  15.200  13.390
26042W        W91027  31.955  12.337   2.445
26043W        W91028  14.221  44.461   9.816
26044W        W91029  10.418  32.405  11.653
26045W        W91030  41.209   5.115  11.164
26046W        W91031  21.425  14.037  11.545
26047W        W91032  31.864  17.095  11.210
26048W        W91033  26.471  32.499  11.980
26049W        W91034  34.382  37.890   1.705
26050W        W91035  38.052   2.488   3.808
26051W        W91036  30.485  10.887  14.797
26052W        W91037  37.893  24.536  14.920
26053W        W91038   1.433   0.191   2.425
26054W        W91039  17.524  14.795  10.670
26055W        W91040  18.705  33.207  10.389
26056W        W91041  41.154  37.884   2.835
26057W        W91042  36.812  17.840   1.691
26058W        W91043  44.267   2.240  12.593
26059W        W91044  18.747  28.162   0.001
26060W        W91045  30.828  18.490  10.929
26061W        W91046  36.910  12.666   4.223
26062W        W91047   5.342   0.737   0.889
26063W        W91048  32.995  34.193  13.532
26064W        W91049  20.243  21.121   0.949
26065W        W91050   5.263  13.835   4.162
26066W        W91051  11.736  10.949  12.003
26067W        W91052  44.886  32.246  11.073
26068W        W91053   3.705  24.984  13.488
26069W        W91054  22.834   9.799  12.478
26070W        W91055  40.888  14.768  14.207
26071W        W91056  15.830  37.980   0.859
26072W        W91057  25.006   2.930   0.316
26073W        W91058  16.273  34.792  11.187
26074W        W91059  38.248   2.846  12.099
26075W        W91060  28.129  34.607  13.420
26076W        W91061   8.776  43.836   2.702
26077W        W91062  41.542  30.213  12.905
26078W        W91063  24.215   3.804   1.919
26079W        W91064  37.752  24.194  13.709
26080W        W91065  39.535  42.552   4.273
26081W        W91066   5.649   4.698  11.345
26082W        W91067  30.640  38.859  12.621
26083W        W91068   2.939   4.269   1.414
26084W        W91069  25.584  34.089   4.352
26085W        W91070  22.500  12.272   3.240
26086W        W91071  31.172  11.116   4.016
26087W        W91072  14.843  19.738   0.468
26088W        W91073  16.291  25.253  10.016
26089W        W91074  43.453  21.122   4.084
26090W        W91075  24.033  30.618   0.710
26091W        W91076   1.994  13.039  13.140
26092W        W91077   9.256   0.225   4.075
26093W        W91078  26.212  32.160  10.669
26094W        W91079   3.271   5.767   3.578
26095W        W91080  43.433  32.364  14.794
26096W        W91081  29.689  10.192  13.388
26097W        W91082  31.408  26.480   3.357
26098W        W91083  39.553  19.980  10.322
26099W        W91084   8.314  18.780   0.004
26100W        W91085  26.133  42.491  13.379
26101W        W91086   6.709  24.657   2.538
26102W        W91087   3.169   7.427   4.220
26103W        W91088   2.793  17.810  12.415
26104W        W91089   4.834  22.516  10.973
26105W        W91090  11.053  30.434   3.651
26106W        W91091  30.927  42.848   3.608
26107W        W91092   4.308  44.620   3.601
26108W        W91093  41.918  28.548   2.780
26109W        W91094  36.278  39.141  10.298
26110W        W91095  35.062  31.164   0.008
26111W        W91096   5.541  29.691  14.467
26112W        W91097  38.506   4.987  12.249
26113W        W91098   9.216  18.247   1.223
26114W        W91099  19.115  13.821  12.183
26115W        W91100  14.135   8.906  11.589
26116W        W91101  16.599  10.849   4.020
26117W        W91102  36.611  11.117   2.147
26118W        W91103  38.136   4.680   2.428
26119W        W91104  20.751  41.445   0.284
26120W        W91105  40.360  26.134   1.056
26121W        W91106  37.416  24.658   0.034
26122W        W91107   2.028  33.356   3.183
26123W        W91108  22.512  17.628  14.497
26124W        W91109   9.547  35.061  13.811
26125W        W91110  44.927  28.929  11.009
26126W        W91111  25.124  27.394  12.058
26127W        W91112  43.132   0.579   9.865
26128W        W91113  23.955  22.539   2.324
26129W        W91114  36.530  10.253   2.657
26130W        W91115   0.317  34.610   3.522
26131W        W91116  24.045  23.990  10.752
26132W        W91117  33.628  18.546  11.108
26133W        W91118   6.178  40.321   3.317
26134W        W91119  30.003  29.507   3.297
26135W        W91120  18.101  36.440  11.032
26136W        W91121  21.240  29.844  13.215
26137W        W91122  36.933  34.644  13.016
26138W        W91123  40.544  42.912  12.568
26139W        W91124   5.950  19.647  11.154
26140W        W91125   6.652  31.643   1.481
26141W        W91126  12.586  25.529   2.833
26142W        W91127  34.193  14.605  14.354
26143W        W91128  11.786  34.037  10.821
26144W        W91129  33.876   7.620  11.583
26145W        W91130   0.548  17.006  12.883
26146W        W91131  16.139  14.114   2.403
26147W        W91132   5.174  12.662   4.743
26148W        W91133  22.543  29.835   3.962
26149W        W91134  10.790   1.448  13.797
26150W        W91135  33.462  32.866  11.415
26151W        W91136  40.317  21.655   2.700
26152W        W91137  30.997  39.169   3.316
26153W        W91138  19.837   0.893   4.622
26154W        W91139  26.667  28.426   0.561
26155W        W91140  23.524  20.191   3.002
26156W        W91141  10.701   9.845  10.487
26157W        W91142  35.453  30.546  12.476
26158W        W91143  33.952  16.579  12.043
26159W        W91144   3.488  22.073  12.501
26160W        W91145  29.575  18.553   2.879
26161W        W91146  18.240   9.615  13.960
26162W        W91147  40.408   6.689   2.325
26163W        W91148  28.975  39.614   3.726
26164W        W91149  21.146  23.502   0.957
26165W        W91150  21.813  32.382   4.631
26166W        W91151  24.248  35.497   3.087
26167W        W91152  36.260  32.293   3.348
26168W        W91153   6.809  31.456   4.648
26169W        W91154  27.756  40.975  14.326
26170W        W91155   7.661   7.686   2.622
26171W        W91156  25.118   9.096   0.372
26172W        W91157   5.708  37.238   3.517
26173W        W91158  39.271  31.600   3.884
26174W        W91159   1.775  32.181  13.811
26175W        W91160   6.252  31.272  10.499
26176W        W91161  33.896   1.713   1.463
26177W        W91162   2.808  30.113  12.378
26178W        W91163   8.166  42.265  11.234
26179W        W91164  35.357  40.683   3.778
26180W        W91165   7.881  20.711  10.739
26181W        W91166  19.253  30.308  14.762
26182W        W91167  41.783  24.949  14.308
26183W        W91168  28.198  14.627   1.755
26184W        W91169  33.432  24.665  14.872
26185W        W91170  35.556  37.525  10.991
26186W        W91171  37.322   0.634  12.363
26187W        W91172  15.117   7.362  11.707
26188W        W91173  28.062  34.948   2.295
26189W        W91174  44.780  34.481  11.614
26190W        W91175   6.671  40.914   2.834
26191W        W91176  22.179  29.092  12.625
26192W        W91177  38.109  15.736  12.607
26193W        W91178  33.492  38.574  13.468
26194W        W91179  31.533  42.480  12.477
26195W        W91180  26.505   7.830  12.779
26196W        W91181   7.191   9.659   1.315
26197W        W91182  12.804  23.638   0.302
26198W        W91183   1.079  13.436  12.921
26199W        W91184  44.998   9.433  11.160
26200W        W91185   9.049  33.636   4.258
26201W        W91186  28.977  41.055   3.708
26202W        W91187   7.811  32.169   2.722
26203W        W91188   1.121  26.086  13.957
26204W        W91189  25.855  33.640  11.700
26205W        W91190  20.689  17.392  10.792
26206W        W91191  31.913  11.883   0.790
26207W        W91192   8.834   7.691   4.025
26208W        W91193  22.210  41.683  10.525
26209W        W91194  41.061   3.171   0.921
26210W        W91195  20.197  36.546   0.408
26211W        W91196  18.669  42.942   3.756
26212W        W91197  30.796  23.815   0.736
26213W        W91198   8.272   2.978   1.300
26214W        W91199  44.540  34.903   5.158
26215W        W91200   0.548   7.476   3.293
26216W        W91201  37.219  21.680   3.848
26217W        W91202   7.459  36.322   0.732
26218W        W91203   5.425  17.024   3.543
26219W        W91204  36.026  20.704  13.937
26220W        W91205   7.960  36.454   0.523
26221W        W91206  21.562   2.486   2.767
26222W        W91207  23.558  34.797  13.061
26223W        W91208   8.035  20.457  11.594
26224W        W91209   3.085  42.441   4.791
26225W        W91210  41.092  12.562   1.598
26226W        W91211  24.795  36.274   4.124
26227W        W91212   2.605   1.530   0.909
26228W        W91213  39.532   1.436  14.730
26229W        W91214  38.316   5.951   2.720
26230W        W91215   3.418  27.488   4.855
26231W        W91216   6.756  38.055   2.910
26232W        W91217   2.372  19.507  13.963
26233W        W91218  11.656  30.499   5.136
26234W        W91219  15.858   2.269   2.309
26235W        W91220  20.256   7.418  14.777
26236W        W91221  17.747  38.724  12.480
26237W        W91222  28.553  22.347   3.305
26238W        W91223  36.025  17.213   1.924
26239W        W91224  13.660  27.037  10.363
26240W        W91225  20.302  22.002   2.640
26241W        W91226  13.726  28.414  11.531
26242W        W91227   6.697  41.747   1.342
26243W        W91228  14.044   1.792   0.078
26244W        W91229  39.444  17.219   5.672
26245W        W91230   5.476  19.635  10.949
26246W        W91231   4.158   7.939   3.127
26247W        W91232   2.976  30.892   1.766
26248W        W91233  30.904  33.598  13.747
26249W        W91234   4.341  27.218  10.725
26250W        W91235  34.112  20.799   4.195
26251W        W91236  17.532  14.197  13.030
26252W        W91237  35.456  21.171   2.258
26253W        W91238  30.380   2.298   0.464
26254W        W91239   5.890  34.439  11.527
26255W        W91240  41.755  40.517   9.943
26256W        W91241  42.487  39.642  11.366
26257W        W91242  20.706   5.713  12.465
26258W        W91243   3.857  41.596  13.043
26259W        W91244  16.171  22.498   0.316
26260W        W91245   3.582   5.499  11.957
26261W        W91246  13.896  28.566  14.412
26262W        W91247  32.036  12.240  13.968
26263W        W91248  44.709  31.925   3.624
26264W        W91249  10.814   5.473  11.172
26265W        W91250  22.792  42.510  11.568
26266W        W91251  39.479  40.847   2.399
26267W        W91252  20.425  10.388   0.806
26268W        W91253  18.187  29.986  11.608
26269W        W91254  28.090   8.745  13.438
26270W        W91255  25.614  41.103   1.704
26271W        W91256   8.282  31.971  14.631
26272W        W91257  40.967  35.022   2.776
26273W        W91258  30.708  20.242  11.127
26274W        W91259  22.245   7.699  14.900
26275W        W91260  42.026  30.022   0.903
26276W        W91261  12.065  37.635   5.279
26277W        W91262   6.904  13.288  12.383
26278W        W91263  40.651   6.942   3.808
26279W        W91264  34.399  23.140  11.217
26280W        W91265  14.553  43.513  11.955
26281W        W91266  37.328   7.055   1.801
26282W        W91267  26.362  27.123  11.143
26283W        W91268  11.362  43.968  10.748
26284W        W91269  28.041  44.849   2.712
26285W        W91270  15.994   2.905   3.186
26286W        W91271  27.774   8.231  11.720
26287W        W91272  36.952   4.526  12.176
26288W        W91273  38.370  40.452   3.724
26289W        W91274  18.411  26.068  11.461
26290W        W91275  10.126  28.186   4.203
26291W        W91276  14.896   2.739   4.989
26292W        W91277  39.082  16.357   4.642
26293W        W91278  25.953  25.206   2.682
26294W        W91279  42.373  17.796  10.375
26295W        W91280  41.970  16.530   0.149
26296W        W91281  18.208   6.509  14.400
26297W        W91282  25.781  19.152   0.859
26298W        W91283  32.031  27.638  13.426
26299W        W91284  32.080   0.684  11.084
26300W        W91285  28.458  32.998  12.660
26301W        W91286  27.258  29.019  11.164
26302W        W91287  42.320  14.068   4.125
26303W        W91288  43.348   7.077   1.670
26304W        W91289  17.179  19.399  11.927
26305W        W91290   1.978   0.925  10.537
26306W        W91291  40.887  36.395  11.849
26307W        W91292  16.698  14.588  13.784
26308W        W91293   1.789  41.363   4.576
26309W        W91294   4.402  25.226  11.039
26310W        W91295   0.274   9.374  10.712
26311W        W91296  29.944   6.600   1.650
26312W        W91297   4.249  40.765  12.987
26313W        W91298  32.921  28.145  13.387
26314W        W91299  33.611  19.125  11.633
26315W        W91300  20.655  21.488   0.472
26316W        W91301  10.384  27.419   3.178
26317W        W91302   7.819  41.399  11.626
26318W        W91303  37.860  19.341   0.809
26319W        W91304   4.406  11.630   1.963
26320W        W91305  35.396   4.930   2.785
26321W        W91306  31.196   1.934  13.539
26322W        W91307  11.745  23.623  11.028
26323W        W91308  20.168  15.285   2.101
26324W        W91309  25.815  42.547  14.353
26325W        W91310   0.558  18.627   4.988
26326W        W91311  40.348   1.288  12.162
26327W        W91312  12.370  42.537   1.680
26328W        W91313  12.855  27.989   0.754
26329W        W91314  13.319  23.728  13.563
26330W        W91315   7.573  35.339   0.300
26331W        W91316  35.620  17.058   1.150
26332W        W91317  28.701  43.009  12.839
26333W        W91318  43.348  21.353   1.300
26334W        W91319  21.723  25.240   1.124
26335W        W91320  20.544  37.459   0.808
26336W        W91321  21.864  27.382   0.966
26337W        W91322  33.874  24.214   2.127
26338W        W91323  32.944   8.321  12.045
26339W        W91324  11.743   3.561   2.281
26340W        W91325  27.882  13.546  11.534
26341W        W91326  18.510  37.051  12.394
26342W        W91327  35.675  12.073   9.432
26343W        W91328  40.485  20.733   2.398
26344W        W91329  22.319  38.034   2.302
26345W        W91330  14.513  15.814  11.114
26346W        W91331  33.427   0.963  11.672
26347W        W91332   4.818  41.961   0.759
26348W        W91333   4.673  29.037   3.378
26349W        W91334  35.014   8.952   0.736
26350W        W91335  16.317  43.184  12.865
26351W        W91336  41.620   4.349   4.570
26352W        W91337  30.038  13.387   3.657
26353W        W91338  28.817  23.258  11.008
26354W        W91339   4.268   8.665  10.220
26355W        W91340   1.717  22.638  11.509
26356W        W91341  20.035  22.273  11.007
26357W        W91342  40.920   0.264  14.423
26358W        W91343  40.030  17.902   1.337
26359W        W91344  34.633   1.493  13.419
26360W        W91345  21.480  30.510   3.612
26361W        W91346  18.171   8.535   1.431
26362W        W91347  36.044  18.184   2.957
26363W        W91348   8.919  38.997   0.054
26364W        W91349  25.644   3.630  11.612
26365W        W91350  38.814  40.558  14.272
26366W        W91351  41.206   1.306  14.828
26367W        W91352  41.787   7.842   1.278
26368W        W91353  40.225  31.301   2.837
26369W        W91354  14.777  39.985  10.738
26370W        W91355  44.773  43.537   2.987
26371W        W91356  25.089  35.949  13.995
26372W        W91357   2.350  44.221   1.891
26373W        W91358   2.486  22.154  13.509
26374W        W91359  44.915  33.911  13.398
26375W        W91360  31.985  14.874   3.649
26376W        W91361   1.365  28.207  12.876
26377W        W91362  27.167  42.048   1.232
26378W        W91363  22.111  24.912  10.699
26379W        W91364  17.268  41.150   2.936
26380W        W91365  38.337  38.824   1.703
26381W        W91366   1.363   9.404  14.992
26382W        W91367  18.579   3.644   1.468
26383W        W91368  36.275  13.808   4.529
26384W        W91369   3.418  28.105  14.731
26385W        W91370  39.569  27.770  14.045
26386W        W91371   8.296  29.103  10.630
26387W        W91372   1.743  24.155   3.990
26388W        W91373  16.600   0.049   1.869
26389W        W91374  34.484  27.549  13.239
26390W        W91375  13.644  40.443  13.857
26391W        W91376  26.425  28.115  14.282
26392W        W91377  17.588  18.075   1.023
26393W        W91378   3.779  15.781  12.467
26394W        W91379   3.361  33.150  14.517
26395W        W91380  27.820   3.244   5.478
26396W        W91381   4.266  27.481  13.224
26397W        W91382  20.616  42.867  10.733
26398W        W91383   5.869  22.446  11.581
26399W        W91384  27.623   9.740  10.629
26400W        W91385  37.297   6.313   1.320
26401W        W91386  42.506  24.073   2.844
26402W        W91387   9.302  28.016  14.923
26403W        W91388  11.832  26.412  11.549
26404W        W91389   9.857   6.917   1.734
26405W        W91390  43.216  23.555   1.800
26406W        W91391  12.387  26.001  10.744
26407W        W91392  28.570  38.267   1.242
26408W        W91393  37.606  28.652   3.609
26409W        W91394  37.974  32.794   4.044
26410W        W91395  16.592  39.581  13.037
26411W        W91396  34.851  34.837   3.790
26412W        W91397  32.891   1.803   3.142
26413W        W91398  38.552  25.392   2.933
26414W        W91399   8.298  16.357   0.918
26415W        W91400  16.703  15.285  12.471
26416W        W91401  36.778  20.087   3.804
26417W        W91402  17.358  33.688  12.304
26418W        W91403  34.159  42.908  11.408
26419W        W91404   9.874  42.756   2.392
26420W        W91405   2.935   1.488  12.482
26421W        W91406  35.353  33.177   2.840
26422W        W91407  31.776  38.900   2.589
26423W        W91408  14.635  26.380   3.230
26424W        W91409  11.205  15.680  12.377
26425W        W91410  13.173   6.713  10.218
26426W        W91411  38.466  17.932   3.500
26427W        W91412  13.270   9.938   0.770
26428W        W91413  34.987  15.316  10.477
26429W        W91414  32.467  30.391  12.449
26430W        W91415  39.972   4.341  11.085
26431W        W91416  40.326  38.426  12.482
26432W        W91417  23.155   2.840  14.969
26433W        W91418  11.162  36.245   1.478
26434W        W91419  21.179  21.957   3.573
26435W        W91420   9.918  21.178   1.190
26436W        W91421  11.666  23.213  14.383
26437W        W91422  30.092  29.001   2.752
26438W        W91423  18.578  41.271   0.915
26439W        W91424  41.744  15.547   3.287
26440W        W91425  11.153  38.758   3.287
26441W        W91426  31.916  27.179   0.799
26442W        W91427  22.156  26.662   4.688
26443W        W91428  32.828  17.130   0.442
26444W        W91429   1.703  15.124   4.414
26445W        W91430  14.262  35.971  12.606
26446W        W91431  19.675  33.098   4.230
26447W        W91432  11.230  28.600  10.685
26448W        W91433   1.886  15.360  13.364
26449W        W91434  26.555  35.906   1.188
26450W        W91435  24.703  12.092   1.456
26451W        W91436  41.037  32.952  10.659
26452W        W91437  31.385  43.330   3.248
26453W        W91438  33.640   3.752   1.415
26454W        W91439  22.930   7.719  12.168
26455W        W91440  35.133  23.797   0.400
26456W        W91441  23.457  44.421  12.958
26457W        W91442  12.943  12.324   2.400
26458W        W91443  24.493  16.588   3.574
26459W        W91444  29.981   4.206   3.811
26460W        W91445  44.511   4.422  11.612
26461W        W91446  19.497  18.714  13.069
26462W        W91447  21.476  15.250   2.730
26463W        W91448  16.336  31.568  14.474
26464W        W91449  24.601  28.202  10.821
26465W        W91450  15.840   4.287  11.404
26466W        W91451   8.709  32.971   2.174
26467W        W91452  10.763  10.807  14.309
26468W        W91453  16.327  18.755  13.371
26469W        W91454  34.650  37.432   3.645
26470W        W91455   0.388   4.429  10.523
26471W        W91456   1.704  32.974   4.742
26472W        W91457   4.411   9.014   1.197
26473W        W91458  37.508  16.075  14.415
26474W        W91459  36.406  35.072  10.959
26475W        W91460  17.028  15.608   0.889
26476W        W91461  30.249  29.813  14.765
26477W        W91462  16.897  42.114   1.539
26478W        W91463  37.403  35.148  11.201
26479W        W91464  39.359  33.107   4.095
26480W        W91465  18.168  21.917  14.348
26481W        W91466   2.657  26.970  12.447
26482W        W91467  42.875  22.684  14.109
26483W        W91468  20.600  21.126   5.066
26484W        W91469  32.870  14.064  13.365
26485W        W91470  27.554  17.826   4.418
26486W        W91471  37.608   0.944  13.976
26487W        W91472  16.285  36.209   1.949
26488W        W91473  34.283   2.540  11.723
26489W        W91474   1.432   6.623  11.235
26490W        W91475  21.661   5.406  13.829
26491W        W91476  42.751  22.963   1.429
26492W        W91477  11.739  27.537  11.191
26493W        W91478  28.026  31.690   2.153
26494W        W91479   0.273  19.574  13.703
26495W        W91480  23.577  13.929  11.752
26496W        W91481  28.980  20.064   2.431
26497W        W91482  41.141  18.645   3.598
26498W        W91483  24.750  21.914  14.938
26499W        W91484  44.447  21.145  10.416
26500W        W91485  23.218  38.360   2.282
26501W        W91486  10.472  35.278   3.329
26502W        W91487  12.172  24.895   0.741
26503W        W91488  32.232   1.732   0.365
26504W        W91489  38.150   1.383   3.111
26505W        W91490  34.042  33.969   3.702
26506W        W91491  13.694  38.449  14.365
26507W        W91492   3.673  35.090  14.536
26508W        W91493  23.602  39.938   3.323
26509W        W91494  12.183  32.363  13.960
26510W        W91495   2.158   3.495   1.360
26511W        W91496   1.704  43.549  11.576
26512W        W91497  29.589  21.026   1.737
26513W        W91498  10.899  30.494  14.067
26514W        W91499   0.490  29.650  14.078
26515W        W91500  44.868  38.763   4.868
26516W        W91501  33.454  11.342   2.267
26517W        W91502   3.291  25.501  11.095
26518W        W91503  20.000   6.695   0.292
26519W        W91504   4.493  20.222   4.016
26520W        W91505   2.160  26.966  11.158
26521W        W91506  15.035  29.905   0.886
26522W        W91507  18.675  17.185   1.413
26523W        W91508  44.990  21.359  14.855
26524W        W91509  22.203  39.505   2.808
26525W        W91510  43.563  13.302  14.475
26526W        W91511  24.973  20.189  14.211
26527W        W91512   6.786  44.841   2.995
26528W        W91513  24.097   2.949  12.486
26529W        W91514   1.813  39.281   2.245
26530W        W91515  38.050  22.685  13.804
26531W        W91516   1.684  34.653  11.197
26532W        W91517  13.616  39.960  11.223
26533W        W91518  40.446  37.085   2.761
26534W        W91519  33.577  11.828  11.102
26535W        W91520  16.277  16.861  14.495
26536W        W91521   5.718  18.224  13.834
26537W        W91522  26.781  43.441  14.987
26538W        W91523  16.642  36.521   4.552
26539W        W91524  28.203   1.577   1.399
26540W        W91525  44.158  23.778   9.856
26541W        W91526  19.819  20.149   1.775
26542W        W91527   0.375   3.204   1.733
26543W        W91528  38.056  34.349  14.955
26544W        W91529  12.195   4.833   4.401
26545W        W91530  20.696  19.682  13.538
26546W        W91531  32.614  38.831  10.093
26547W        W91532  31.134  42.903   0.763
26548W        W91533  10.634  15.968   1.147
26549W        W91534  39.105   9.262  12.591
26550W        W91535  27.537  19.941  10.979
26551W        W91536  25.012  43.135   4.100
26552W        W91537  35.122  11.188   0.775
26553W        W91538   8.781  42.884  10.791
26554W        W91539   3.298  41.521   3.585
26555W        W91540   1.423  40.060   3.146
26556W        W91541  27.123  15.123  12.641
26557W        W91542  30.449  43.914   1.814
26558W        W91543   4.998   3.263  12.588
26559W        W91544  40.089  17.680  14.917
26560W        W91545  28.426  38.789  11.046
26561W        W91546   7.446  41.722   1.853
26562W        W91547  13.083  36.782   3.544
26563W        W91548  24.820  21.957   2.122
26564W        W91549  12.113  22.493  13.028
26565W        W91550   3.832  27.885   3.646
26566W        W91551  33.226  21.288   1.368
26567W        W91552  29.811  39.417  12.380
26568W        W91553   5.967  29.471  13.754
26569W        W91554   9.762  33.978   3.585
26570W        W91555  22.073  28.171  12.210
26571W        W91556  21.336  25.627   1.485
26572W        W91557  25.724  12.749   0.700
26573W        W91558  22.818  18.203   4.847
26574W        W91559  25.547  20.148  10.775
26575W        W91560  27.932   5.981   2.696
26576W        W91561  40.541  14.288   2.779
26577W        W91562  40.030  11.173  11.968
26578W        W91563  31.074   8.102  14.014
26579W        W91564  33.457  16.234   3.245
26580W        W91565  35.783   3.320  10.778
26581W        W91566  44.917  16.287  11.209
26582W        W91567  40.804  38.773   2.396
26583W        W91568  12.823  13.531   1.450
26584W        W91569  29.482  30.128   4.076
26585W        W91570  35.905  38.194   4.708
26586W        W91571   2.850  14.101   4.854
26587W        W91572  14.350  26.092  12.208
26588W        W91573  28.314  21.543  13.989
26589W        W91574  25.591   1.534   0.521
26590W        W91575  32.417  16.217  12.955
26591W        W91576   8.919  22.991   3.209
26592W        W91577   1.749  38.858   4.590
26593W        W91578  16.568   1.279  11.182
26594W        W91579  20.213  21.614   0.755
26595W        W91580  11.158  43.932   2.940
26596W        W91581   3.457  28.668  10.696
26597W        W91582  36.499  22.924  14.607
26598W        W91583  29.709  31.148   4.607
26599W        W91584   2.262  38.916  13.763
26600W        W91585  39.100  26.149   1.743
26601W        W91586   5.225  39.735  11.165
26602W        W91587  18.239  37.738  13.420
26603W        W91588  31.191   7.828  12.418
26604W        W91589  34.934   2.931  10.457
26605W        W91590  41.632   4.318   0.625
26606W        W91591  17.941  34.970   4.559
26607W        W91592  24.868  25.895  12.048
26608W        W91593   0.388  36.136  13.311
26609W        W91594  16.781  16.629   3.578
26610W        W91595  34.495   8.262   4.142
26611W        W91596  29.985   0.818  10.666
26612W        W91597  21.229  26.707  14.922
26613W        W91598  43.286  17.212   1.909
26614W        W91599  32.820  35.472  12.580
26615W        W91600   1.254  39.270  11.151
26616W        W91601  11.673   0.414  13.295
26617W        W91602  35.045  29.097   2.772
26618W        W91603   5.316  12.759  12.334
26619W        W91604  33.525  44.564   4.542
26620W        W91605  44.778  37.376  13.333
26621W        W91606   0.834  26.576  14.750
26622W        W91607  35.048   0.808   2.844
26623W        W91608  37.472  38.388   0.584
26624W        W91609   4.278  23.812  11.212
26625W        W91610  41.371  13.660   4.639
26626W        W91611  39.680  41.399   3.282
26627W        W91612  20.538  16.249   1.374
26628W        W91613  19.923  21.994   4.867
26629W        W91614  38.896  17.229   4.166
26630W        W91615   5.281  42.301  13.512
26631W        W91616   6.862   0.382  10.862
26632W        W91617  28.740  11.856  13.578
26633W        W91618  31.609  15.382   3.207
26634W        W91619   5.362  19.825  14.679
26635W        W91620  14.785   3.477   4.176
26636W        W91621  32.457  16.534  13.880
26637W        W91622  24.575  38.357  13.522
26638W        W91623  31.051  12.498  13.790
26639W        W91624  41.875  30.219   3.245
26640W        W91625  22.892  42.242  14.284
26641W        W91626  24.247  42.223  14.480
26642W        W91627   8.163  12.565   2.636
26643W        W91628  10.382  29.882  12.481
26644W        W91629  32.063  44.039  11.924
26645W        W91630  22.488  39.836   1.937
26646W        W91631  43.532   3.451  12.920
26647W        W91632  40.887  14.836   1.664
26648W        W91633  40.753  24.103  10.738
26649W        W91634  22.711   5.474  14.971
26650W        W91635   8.826  35.883   1.468
26651W        W91636  17.336   6.789  14.243
26652W        W91637  35.385  39.450   4.745
26653W        W91638  19.268   1.223  12.824
26654W        W91639   4.197   9.730   1.611
26655W        W91640  33.829  25.168  11.120
26656W        W91641  11.686   0.525   2.111
26657W        W91642   7.148  31.972   5.198
26658W        W91643  44.831   8.423   5.206
26659W        W91644  27.463  40.746  11.514
26660W        W91645  44.478  19.382  13.958
26661W        W91646  23.813  35.831  11.476
26662W        W91647  34.194  44.739  11.425
26663W        W91648  27.643  34.249   0.371
26664W        W91649  41.341   1.423   1.723
26665W        W91650  32.371  44.468   3.091
26666W        W91651  23.669   0.925  11.244
26667W        W91652  44.947   8.341   0.220
26668W        W91653  38.588   8.976   0.272
26669W        W91654  13.588   7.728  11.443
26670W        W91655  19.588  23.798   4.552
26671W        W91656  41.114   0.174   0.498
26672W        W91657   1.716  40.468   1.260
26673W        W91658  37.071   3.944   2.751
26674W        W91659  32.579   3.281   0.031
26675W        W91660  27.502  25.975   2.797
26676W        W91661  11.885  12.275   1.365
26677W        W91662   4.184  42.031   3.707
26678W        W91663  12.392  20.731   0.813
26679W        W91664   7.793  35.000   1.784
26680W        W91665   0.477  25.714  14.350
26681W        W91666  10.432   2.087  12.032
26682W        W91667  39.419  12.541  12.981
26683W        W91668   8.868   4.790  13.826
26684W        W91669   8.565   1.844  13.808
26685W        W91670   1.919   4.393  12.764
26686W        W91671  21.290   5.996   4.164
26687W        W91672  28.733   8.422   2.676
26688W        W91673   6.164  36.905  11.708
26689W        W91674  21.696  27.394  13.780
26690W        W91675  20.717  34.071   1.943
26691W        W91676  36.452  19.014   2.689
26692W        W91677  10.032   4.777  11.600
26693W        W91678  16.536  19.562  12.869
26694W        W91679  41.487  26.555   2.313
26695W        W91680  44.095  22.382  14.746
26696W        W91681   8.700  17.561   1.263
26697W        W91682  32.216  10.895   1.028
26698W        W91683  25.699   6.819   0.014
26699W        W91684  36.887  27.223  11.395
26700W        W91685  41.975  13.724  11.885
26701W        W91686  14.711   2.501  12.574
26702W        W91687  14.223   3.702   1.686
26703W        W91688  44.209  34.418   1.905
26704W        W91689  43.928   5.730   1.754
26705W        W91690   2.818  26.624   4.514
26706W        W91691  19.230  11.768   1.972
26707W        W91692   0.603  38.715  12.086
26708W        W91693   5.942  10.772   0.781
26709W        W91694   6.008  42.506  12.269
26710W        W91695  29.533  37.417  11.561
26711W        W91696  14.154   6.283   3.898
26712W        W91697  44.289   4.624  11.201
26713W        W91698  30.534   3.534  11.338
26714W        W91699  31.619  18.826  12.633
26715W        W91700  27.060  20.199   3.971
26716W        W91701  19.623  32.323   2.175
26717W        W91702  19.977  21.158  10.547
26718W        W91703  26.123   8.641  13.330
26719W        W91704  24.552   8.665   1.843
26720W        W91705   1.919  17.230  13.728
26721W        W91706  14.380  36.997  13.481
26722W        W91707  29.316  43.709  10.982
26723W        W91708   0.684  31.776   3.201
26724W        W91709  21.876  34.946  12.492
26725W        W91710  28.759   4.402  14.621
26726W        W91711   5.648  24.543   2.342
26727W        W91712  39.170  41.586   1.670
26728W        W91713  39.179  21.651   3.916
26729W        W91714  31.199  25.146   4.191
26730W        W91715  12.704   0.023  14.174
26731W        W91716  37.364   8.473  13.476
26732W        W91717  36.463  18.597   0.209
26733W        W91718  37.613  43.930   0.607
26734W        W91719  18.176  29.408  11.643
26735W        W91720  22.187  30.201  10.143
26736W        W91721  31.700   7.904  14.844
26737W        W91722  22.755  32.927  13.006
26738W        W91723  25.231  29.088   2.749
26739W        W91724   9.327  31.515  10.757
26740W        W91725  26.915  19.983   1.488
26741W        W91726   9.793   4.458   0.424
26742W        W91727  37.082  26.186  10.947
26743W        W91728  24.675  32.449  14.997
26744W        W91729  43.033   4.108  11.384
26745W        W91730  10.997  40.926   3.672
26746W        W91731   6.876  33.100  14.858
26747W        W91732  25.793   5.822  13.599
26748W        W91733   4.811   1.002   1.756
26749W        W91734   3.270  44.877  11.653
26750W        W91735  33.806  10.411  12.677
26751W        W91736   6.571  23.077   4.482
26752W        W91737  24.238  27.256  12.013
26753W        W91738  24.901  13.351  13.881
26754W        W91739  36.795  22.050   4.522
26755W        W91740  13.348  39.081   2.358
26756W        W91741  37.677   9.692  10.727
26757W        W91742  10.535  21.052   0.588
26758W        W91743   2.174  18.125   3.684
26759W        W91744  39.469   5.321   4.481
26760W        W91745  32.430  38.257   3.975
26761W        W91746  42.798  32.974   1.523
26762W        W91747  21.111  38.343  10.629
26763W        W91748  37.049  21.486   0.474
26764W        W91749  21.541  14.616   2.244
26765W        W91750  36.387   1.300   2.712
26766W        W91751  27.131  23.005  12.841
26767W        W91752  33.601  20.268   2.807
26768W        W91753  27.391  24.577   0.946
26769W        W91754   9.284   2.870   4.351
26770W        W91755  21.202   1.012   3.302
26771W        W91756  37.003  17.616  12.019
26772W        W91757  28.040  20.006  12.000
26773W        W91758  28.994   7.891  12.028
26774W        W91759  41.692   7.131  11.674
26775W        W91760  34.420  29.255   0.938
26776W        W91761   0.788  42.839  10.842
26777W        W91762  42.459  36.099  14.888
26778W        W91763  33.433   4.784   0.761
26779W        W91764   0.673  30.272   3.134
26780W        W91765  23.682  32.344  11.552
26781W        W91766  25.128  33.307   3.457
26782W        W91767  31.528  21.662  12.079
26783W        W91768  10.980   7.718   3.086
26784W        W91769  17.487  12.469   2.210
26785W        W91770  17.190  43.104   0.790
26786W        W91771  20.124  20.935   4.471
26787W        W91772   7.085  22.928  14.853
26788W        W91773  33.958  10.217  11.617
26789W        W91774  36.619  10.292   4.029
26790W        W91775  17.294   6.450   2.811
26791W        W91776  44.765  21.542  11.073
26792W        W91777   7.989  20.041   1.317
26793W        W91778  33.773   4.783   3.731
26794W        W91779  28.627  21.782   2.724
26795W        W91780  34.511  28.954  11.142
26796W        W91781  33.139  31.194  14.930
26797W        W91782   5.709  42.762   1.407
26798W        W91783  41.332  32.003  12.931
26799W        W91784  25.416  19.190   4.074
26800W        W91785  37.787  18.894  14.978
26801W        W91786  16.684  44.334   4.653
26802W        W91787  29.283  24.121   4.945
26803W        W91788  33.960  32.770   3.825
26804W        W91789  11.922  33.546  12.606
26805W        W91790  13.104  14.779   2.408
26806W        W91791  23.580  41.072  12.073
26807W        W91792  17.256   3.928  14.721
26808W        W91793   5.034   9.651   2.898
26809W        W91794  20.006  18.151  11.524
26810W        W91795  11.426  26.140   2.223
26811W        W91796   0.531  42.000  13.451
26812W        W91797  19.673  31.090   2.610
26813W        W91798   4.378  43.970  11.645
26814W        W91799   3.007  27.723  10.676
26815W        W91800  30.645  39.816  12.620
26816W        W91801   8.404   2.702   3.653
26817W        W91802  23.345   8.417   1.620
26818W        W91803  22.669   6.742  10.953
26819W        W91804  23.511  30.627   4.273
26820W        W91805  17.541  35.097  14.818
26821W        W91806   1.767  32.164  11.138
26822W        W91807  41.723  41.614   3.803
26823W        W91808  26.007  39.836   1.941
26824W        W91809  23.242  12.859   3.307
26825W        W91810  43.014  18.303  14.439
26826W        W91811  21.522   6.978  12.057
26827W        W91812  10.790   2.030   4.191
26828W        W91813  29.397  31.441  13.237
26829W        W91814  26.496   4.511  13.253
26830W        W91815  25.538   9.860  13.922
26831W        W91816   7.177  41.015   4.712
26832W        W91817   1.484  36.218  14.238
26833W        W91818  31.818  40.059   3.302
26834W        W91819  37.914  42.648   4.614
26835W        W91820  37.900  11.995  14.408
26836W        W91821  34.455  27.183   0.260
26837W        W91822  28.671  29.915  12.580
26838W        W91823  33.516  14.062  13.542
26839W        W91824  25.960   7.699   0.522
26840W        W91825  17.672  16.823   2.590
26841W        W91826   6.259  42.975  14.329
26842W        W91827  21.936   2.455   1.295
26843W        W91828  23.724  23.873  11.626
26844W        W91829  41.600  31.410  10.708
26845W        W91830  20.243  15.190   3.093
26846W        W91831  18.183  34.306  13.947
26847W        W91832  42.711   8.712   4.169
26848W        W91833  32.275   0.442   3.280
26849W        W91834   0.930  29.426  12.897
26850W        W91835   9.358  22.711  11.130
26851W        W91836  42.349  19.051   4.996
26852W        W91837  17.586   8.227  14.512
26853W        W91838  10.896   3.363  12.934
26854W        W91839  44.673  40.472  11.583
26855W        W91840  19.731  21.682  14.530
26856W        W91841  37.935  43.005   2.397
26857W        W91842  20.728   8.879  12.863
26858W        W91843  28.524  27.101  10.556
26859W        W91844  33.457  31.181  14.163
26860W        W91845  42.900   1.563  10.737
26861W        W91846   4.079  42.744   2.527
26862W        W91847  35.999   1.417   1.579
26863W        W91848  24.286  22.684   1.938
26864W        W91849  32.386  36.833  10.631
26865W        W91850  12.792  26.452   0.205
26866W        W91851  10.334  26.624   1.782
26867W        W91852  35.000  22.450  12.929
26868W        W91853  23.254  32.623  11.431
26869W        W91854  13.128   3.309  13.428
26870W        W91855   1.340  15.716   3.726
26871W        W91856  29.125  31.608   0.023
26872W        W91857  42.336  11.219  11.512
26873W        W91858  40.436  34.013  13.121
26874W        W91859   1.193  38.051  10.766
26875W        W91860   2.467  38.045  14.776
26876W        W91861  37.222  43.333  14.300
26877W        W91862  23.711  31.998   3.664
26878W        W91863  21.861  24.710   1.789
26879W        W91864  26.159  22.297   4.709
26880W        W91865  15.115  29.201   2.445
26881W        W91866   9.357  44.185  11.999
26882W        W91867   5.120  29.539   1.149
26883W        W91868   7.874  19.251   4.093
26884W        W91869   0.731  11.302   4.198
26885W        W91870   4.152  35.061   1.275
26886W        W91871  26.564  40.347  11.989
26887W        W91872  29.886  25.151  12.921
26888W        W91873  11.560  26.397  10.731
26889W        W91874  36.324  39.876   2.207
26890W        W91875   4.212  38.019  11.377
26891W        W91876  35.121  43.430  12.225
26892W        W91877  22.555  30.597   2.762
26893W        W91878   7.225  35.117  14.470
26894W        W91879  44.503  27.481  12.585
26895W        W91880   1.871   2.264   3.408
26896W        W91881   7.197  10.540  14.856
26897W        W91882  40.874  21.127   3.205
26898W        W91883  19.275  38.750  13.303
26899W        W91884  15.775  25.050   2.884
26900W        W91885  19.742  27.021  13.622
26901W        W91886  39.608  43.746  12.936
26902W        W91887  10.864  19.012  14.859
26903W        W91888  43.230  10.675   1.304
26904W        W91889  24.934  18.818   2.821
26905W        W91890   4.740  40.582   3.684
26906W        W91891   2.465  34.605   2.766
26907W        W91892  26.688  26.008   1.393
26908W        W91893  36.115  20.994  13.124
26909W        W91894  28.570   5.796   4.385
26910W        W91895  17.636  38.007  10.667
26911W        W91896   8.787  26.983   3.871
26912W        W91897  41.079  36.043   0.439
26913W        W91898  37.807  34.250  12.191
26914W        W91899  40.531   2.812   4.431
26915W        W91900  23.381  14.859  14.416
26916W        W91901  33.410  29.717  12.871
26917W        W91902  27.059   0.145   3.603
26918W        W91903  22.290  14.776  12.740
26919W        W91904  17.856  11.274  14.928
26920W        W91905  27.436  23.103   4.276
26921W        W91906  10.315  29.635   3.130
26922W        W91907  23.385  16.527  11.955
26923W        W91908  18.344  43.309  12.624
26924W        W91909  23.937  32.816   4.135
26925W        W91910  14.825  11.653  13.823
26926W        W91911  16.234  15.006  10.972
26927W        W91912  31.710  31.793  10.739
26928W        W91913  43.086   5.996  13.420
26929W        W91914  29.498   2.991   0.203
26930W        W91915  25.057  18.375   3.203
26931W        W91916  27.474   5.423   0.438
26932W        W91917   4.439  22.142   2.424
26933W        W91918  23.431  31.913  13.177
26934W        W91919  11.711  32.384  10.950
26935W        W91920  35.585   0.757   4.607
26936W        W91921  32.959  38.550  10.748
26937W        W91922  40.020  19.221  11.229
26938W        W91923  12.176  21.419   0.431
26939W        W91924  23.306  30.919   5.757
26940W        W91925  14.150   9.171  11.143
26941W        W91926  25.196  42.206   0.896
26942W        W91927   7.501   6.516   4.909
26943W        W91928  30.377  36.019  12.605
26944W        W91929  18.199  40.099   4.468
26945W        W91930   5.334  28.260  14.467
26946W        W91931  20.065   0.230  13.427
26947W        W91932  34.819  32.376  13.548
26948W        W91933  32.435  25.403   2.764
26949W        W91934   0.018  28.696   2.871
26950W        W91935  31.462  43.842   2.438
26951W        W91936   1.367   9.932  14.976
26952W        W91937  36.775  13.110  12.917
26953W        W91938  20.549  32.884  11.655
26954W        W91939   7.777  21.108   2.780
26955W        W91940  26.807  43.298   4.093
26956W        W91941  16.158   7.152  11.195
26957W        W91942  26.189   9.249   1.352
26958W        W91943   4.759  21.607   4.460
26959W        W91944   8.816  38.961   3.775
26960W        W91945   0.733   3.867  12.978
26961W        W91946   4.747  17.281  13.450
26962W        W91947  33.955   9.932  13.363
26963W        W91948  16.646  18.519   3.602
26964W        W91949   5.960  36.276   1.649
26965W        W91950  43.591  11.306   0.272
26966W        W91951  40.447   4.675   0.409
26967W        W91952  10.774  17.001   1.365
26968W        W91953  27.584  23.557  11.117
26969W        W91954  14.204  42.090  11.195
26970W        W91955   6.132  28.575   2.417
26971W        W91956  33.527  43.856   1.717
26972W        W91957  21.772  14.815  11.223
26973W        W91958  43.676   3.457   3.076
26974W        W91959  14.830  17.055  14.245
26975W        W91960  29.192  30.615  11.142
26976W        W91961  34.514   2.650  14.828
26977W        W91962  28.248  44.366  12.992
26978W        W91963  35.597  41.090   1.381
26979W        W91964  44.261  38.351   4.657
26980W        W91965  42.374  14.735   2.944
26981W        W91966   5.897  36.128  10.407
26982W        W91967  19.190  16.836   0.269
26983W        W91968  44.541  27.094  11.149
26984W        W91969  36.277  23.608  11.872
26985W        W91970   0.945  25.248   2.319
26986W        W91971  37.788  28.627  14.958
26987W        W91972  20.100  11.115  13.820
26988W        W91973  38.196  10.592   0.752
26989W        W91974   1.856   0.899  11.032
26990W        W91975  18.525  29.002  14.226
26991W        W91976   7.823  41.999  11.496
26992W        W91977  42.258  14.371   0.604
26993W        W91978  39.677  22.224   2.567
26994W        W91979   2.990  38.472  13.091
26995W        W91980   7.148  42.734  14.073
26996W        W91981  22.498  26.455  12.664
26997W        W91982  19.998  22.163  11.972
26998W        W91983  40.960   8.266   2.942
26999W        W91984  37.846  22.584  10.693
27000W        W91985  11.737   0.805  12.074
27001W        W91986   9.270  43.724   2.877
27002W        W91987  17.475  43.800   2.729
27003W        W91988  22.997  18.232  13.399
27004W        W91989  25.572   8.619   5.150
27005W        W91990  39.424   9.965   0.433
27006W        W91991  26.094  24.654  11.001
27007W        W91992  21.091  35.416   2.309
27008W        W91993  35.540  17.328   3.227
27009W        W91994  28.190  30.159   0.418
27010W        W91995  21.892  31.472  12.533
27011W        W91996  37.937  39.991   0.301
27012W        W91997  19.175   9.758   3.228
27013W        W91998   6.899   8.876   1.082
27014W        W91999  10.866   8.334   4.282
27015W        W92000  32.395   6.393   0.237
27016W        W92001  14.793  20.003  11.326
27017W        W92002  13.561  42.779  11.466
27018W        W92003   6.233  20.782  10.559
27019W        W92004   4.431  25.754  12.656
27020W        W92005  11.494  34.533  11.677
27021W        W92006  22.262  28.079  14.432
27022W        W92007  37.067  23.320  13.400
27023W        W92008  25.464  40.754  13.695
27024W        W92009  39.076  36.916  12.456
27025W        W92010  40.473  33.137   1.790
27026W        W92011   8.995   0.334  14.002
27027W        W92012   6.102  32.769   3.685
27028W        W92013   2.762  34.174   0.034
27029W        W92014   3.469   4.813  12.157
27030W        W92015  28.871  19.760  12.078
27031W        W92016   2.351  38.382   3.362
27032W        W92017  28.462   0.013  14.277
27033W        W92018  14.006   1.238  11.913
27034W        W92019  33.274  34.613   1.860
27035W        W92020  15.588  15.685  13.936
27036W        W92021  11.023   7.976   0.039
27037W        W92022  14.037  11.238   1.771
27038W        W92023  10.194  15.601  12.728
27039W        W92024  42.814   8.936  12.528
27040W        W92025   3.251  17.968  11.151
27041W        W92026  23.048  22.866   2.214
27042W        W92027   8.805  22.540   2.228
27043W        W92028  30.020  42.376  10.746
27044W        W92029   9.858   1.208   0.407
27045W        W92030  31.437  32.421   0.862
27046W        W92031  21.235   4.777   2.249
27047W        W92032  26.711   0.876   1.268
27048W        W92033  29.613  35.427  10.617
27049W        W92034  26.360   9.776   0.720
27050W        W92035  22.765  22.810   3.277
27051W        W92036  21.013  38.342  11.138
27052W        W92037  31.323   6.639   4.314
27053W        W92038   5.144  10.200  12.562
27054W        W92039  37.797  37.831   4.709
27055W        W92040  44.727  34.457  13.400
27056W        W92041  38.302   8.600  12.546
27057W        W92042   5.887  12.595   3.417
27058W        W92043  30.034   7.611   0.419
27059W        W92044  34.468  22.564   1.297
27060W        W92045  33.156   9.083   0.503
27061W        W92046   9.971  18.511   0.336
27062W        W92047  37.219  15.480  11.614
27063W        W92048  21.282  18.560  14.031
27064W        W92049  35.171  42.790   4.105
27065W        W92050  40.531  15.138   1.434
27066W        W92051  11.423  18.815   3.699
27067W        W92052  24.541  14.813  13.889
27068W        W92053   4.149  22.718   3.740
27069W        W92054  42.709  38.702  10.069
27070W        W92055   9.696  39.441  12.590
27071W        W92056  42.548  13.955  14.840
27072W        W92057  31.171  14.357   0.400
27073W        W92058  44.819  41.787  10.752
27074W        W92059  35.127  33.333  11.657
27075W        W92060  41.706  38.888  14.960
27076W        W92061  16.351  28.174   1.212
27077W        W92062  42.108  41.545   3.439
27078W        W92063  22.643  33.135  14.830
27079W        W92064  18.582   5.685  14.274
27080W        W92065  29.108  15.311  10.996
27081W        W92066  33.385  12.715   3.204
27082W        W92067  38.104  38.495  12.012
27083W        W92068  31.630  25.001   2.914
27084W        W92069  35.440  29.819  13.899
27085W        W92070  20.528  39.873  11.566
27086W        W92071  30.861  42.510   0.491
27087W        W92072  43.377  32.501   1.066
27088W        W92073  19.692  11.937  11.163
27089W        W92074  19.284   0.877  13.755
27090W        W92075  23.242  24.744   0.803
27091W        W92076  15.355  28.963   3.420
27092W        W92077  17.432  36.565  13.982
27093W        W92078  37.945  40.558  14.303
27094W        W92079  26.661  16.660  13.394
27095W        W92080  20.516   0.357  12.394
27096W        W92081  12.604  17.257   2.565
27097W        W92082  30.693  22.148  13.978
27098W        W92083  19.046  44.508  13.378
27099W        W92084  15.266  44.037  11.994
27100W        W92085   6.433  43.506   4.646
27101W        W92086   2.677  18.012   3.638
27102W        W92087  10.727  34.870  14.192
27103W        W92088  33.175  44.488  14.924
27104W        W92089  13.076   1.766   3.652
27105W        W92090  40.389  24.628  12.171
27106W        W92091  44.369  37.043  14.569
27107W        W92092  25.590  17.919  11.069
27108W        W92093  40.523  21.630   2.204
27109W        W92094  27.962  12.589   3.131
27110W        W92095  26.920  28.547  13.514
27111W        W92096  29.994  16.552  14.030
27112W        W92097  26.339  43.422   5.250
27113W        W92098  15.315  40.867   3.203
27114W        W92099  18.193  44.268   1.325
27115W        W92100  36.806   5.688   2.778
27116W        W92101  19.356  36.410  13.516
27117W        W92102  19.849  17.383   0.866
27118W        W92103  36.302  31.649  13.826
27119W        W92104  36.028  38.762  11.865
27120W        W92105   6.333  43.313  11.115
27121W        W92106  42.690  29.942   5.045
27122W        W92107  24.925  40.061   2.837
27123W        W92108  20.273  26.669   3.707
27124W        W92109  39.326  13.946   3.302
27125W        W92110  18.281  44.871   1.700
27126W        W92111  37.232   2.851   3.616
27127W        W92112  24.562  39.178   2.869
27128W        W92113  11.043  13.621   4.876
27129W        W92114  44.253  19.313   0.230
27130W        W92115  22.092  43.055   3.653
27131W        W92116  38.782  21.232   0.870
27132W        W92117   6.375  18.347   0.197
27133W        W92118  38.002  31.617   2.690
27134W        W92119   7.850  37.442   3.201
27135W        W92120  21.222  19.760  11.147
27136W        W92121   0.813  10.243  10.741
27137W        W92122  26.160  39.338   3.219
27138W        W92123  16.660  14.292   3.644
27139W        W92124   6.022  25.850   2.334
27140W        W92125  18.297  14.767  14.956
27141W        W92126  13.434  43.878  12.947
27142W        W92127  38.248  40.798   2.086
27143W        W92128  16.239   9.347  11.921
27144W        W92129  15.309  19.172   4.319
27145W        W92130  31.227  33.917  11.717
27146W        W92131   3.885   9.926   1.957
27147W        W92132  22.049  22.359   3.201
27148W        W92133  22.254   3.112   2.101
27149W        W92134  38.025  31.640  13.453
27150W        W92135   6.778  19.541   1.387
27151W        W92136  29.359  20.071  12.928
27152W        W92137  15.023  12.190   2.925
27153W        W92138  43.419  25.618   2.752
27154W        W92139  36.069   8.860  13.261
27155W        W92140  31.929  37.800   1.842
27156W        W92141  17.612   8.919   3.171
27157W        W92142  20.186   4.902   0.359
27158W        W92143  42.831   7.083   2.808
27159W        W92144  39.979  33.847  12.902
27160W        W92145  35.006  41.259   4.168
27161W        W92146  11.247  17.024  11.155
27162W        W92147   6.936  44.601  11.159
27163W        W92148  43.042  11.362   3.219
27164W        W92149  35.856  38.508   2.758
27165W        W92150  21.315  25.625  13.341
27166W        W92151  21.720  42.393  12.350
27167W        W92152  26.984  36.473   0.400
27168W        W92153  16.491   1.877  13.358
27169W        W92154  10.721  44.458  14.999
27170W        W92155  19.064  16.187  14.492
27171W        W92156  11.220  10.270  14.993
27172W        W92157  29.474  14.254   5.114
27173W        W92158  35.642  13.391  11.647
27174W        W92159  37.321  33.365   3.651
27175W        W92160  25.941  11.884   0.399
27176W        W92161  12.214  24.133   4.776
27177W        W92162  11.404  42.241  14.296
27178W        W92163  38.959  20.005   4.465
27179W        W92164  26.740  18.240   2.824
27180W        W92165  10.583  41.920  14.908
27181W        W92166  26.230   1.280  11.520
27182W        W92167   6.412  41.603   3.704
27183W        W92168  17.195  30.600  13.487
27184W        W92169  14.896  21.321   3.264
27185W        W92170  38.265  21.197   0.915
27186W        W92171  35.174  30.198  11.110
27187W        W92172   4.158  30.461  12.843
27188W        W92173   4.402  12.560   1.197
27189W        W92174   8.184  14.626  11.699
27190W        W92175  26.023  39.913   0.085
27191W        W92176  15.419  31.105   4.799
27192W        W92177  23.973   4.481  13.389
27193W        W92178  14.045  27.871  12.417
27194W        W92179  39.887  42.917   3.902
27195W        W92180  40.978  13.706  10.812
27196W        W92181  41.089  35.865  14.941
27197W        W92182  33.051   3.460   3.301
27198W        W92183  18.711   3.543  10.373
27199W        W92184  11.949   1.814  11.996
27200W        W92185   3.802  24.041   1.932
27201W        W92186  36.247  40.757  14.752
27202W        W92187  44.818  15.553   0.506
27203W        W92188  18.653  21.080  11.089
27204W        W92189  39.086  43.567   2.733
27205W        W92190  21.975   3.792   4.657
27206W        W92191  14.589  16.983  13.215
27207W        W92192   4.988  20.072   4.185
27208W        W92193  39.230  32.115  13.045
27209W        W92194  37.610  40.647  14.969
27210W        W92195  38.187   4.192  10.723
27211W        W92196  40.307   2.571  10.433
27212W        W92197  38.668  11.734  12.962
27213W        W92198   4.559  33.842   0.316
27214W        W92199   8.269  15.061  10.837
27215W        W92200  15.573  41.150  12.104
27216W        W92201  15.792   9.798   1.868
27217W        W92202  26.710  43.754  14.286
27218W        W92203  33.910   3.936  13.989
27219W        W92204   7.367   0.235  10.735
27220W        W92205  44.591  34.002  14.818
27221W        W92206  38.749  17.620   2.975
27222W        W92207   1.174  34.682  11.152
27223W        W92208  13.033  10.399  12.134
27224W        W92209  31.186  26.914   5.056
27225W        W92210  42.862   2.450   2.623
27226W        W92211  35.838   1.717   1.190
27227W        W92212  31.417  43.075  14.324
27228W        W92213   5.157  23.590  14.458
27229W        W92214  36.553  27.973   0.932
27230W        W92215  20.708  42.746   2.700
27231W        W92216   5.251   0.229   0.995
27232W        W92217  36.325   2.298  13.706
27233W        W92218  35.874   1.742   4.423
27234W        W92219  39.482   4.754   2.750
27235W        W92220  20.782  22.134   1.833
27236W        W92221  32.895   0.831   2.133
27237W        W92222  22.726  43.460  14.515
27238W        W92223   9.861  10.328  11.079
27239W        W92224  32.321  11.875   4.223
27240W        W92225  27.846  33.788  12.434
27241W        W92226  44.323  43.779  12.106
27242W        W92227  39.368  25.595  11.869
27243W        W92228  38.773   3.052   4.622
27244W        W92229  36.964   7.340   1.322
27245W        W92230   1.279  24.007  11.396
27246W        W92231  25.789  21.908  11.968
27247W        W92232  43.247  32.037  12.636
27248W        W92233  31.443   1.193   3.189
27249W        W92234  15.832  32.929  12.490
27250W        W92235  30.211  15.349  13.410
27251W        W92236  33.029  44.567  12.123
27252W        W92237  26.109  29.413   5.423
27253W        W92238   8.948  15.674  11.075
27254W        W92239  10.895  22.075   4.590
27255W        W92240  32.309  31.557   5.040
27256W        W92241  35.751   3.480  13.831
27257W        W92242   4.888  22.777   3.193
27258W        W92243  12.527  37.628   1.162
27259W        W92244   0.972  20.207  13.517
27260W        W92245  44.891   1.538   4.017
27261W        W92246   0.545  35.602   2.045
27262W        W92247  27.548  40.312  13.845
27263W        W92248  22.159  32.917   3.797
27264W        W92249  40.010  24.846   0.342
27265W        W92250  41.857  40.935   2.685
27266W        W92251   4.962  38.773   3.411
27267W        W92252  38.778  14.001   4.952
27268W        W92253  29.103  40.491   1.604
27269W        W92254  43.765  29.671  11.034
27270W        W92255  29.081  16.246  14.289
27271W        W92256  33.120  40.231  12.992
27272W        W92257  36.742  20.084  12.115
27273W        W92258  39.373  15.162  10.797
27274W        W92259  13.803  20.804  13.798
27275W        W92260  26.942  16.727  13.830
27276W        W92261  25.761   6.347  11.114
27277W        W92262  13.256  33.618   1.641
27278W        W92263  10.684  26.921  10.924
27279W        W92264  16.226  12.617   2.265
27280W        W92265  42.718  29.881  10.729
27281W        W92266   0.766  38.287  12.979
27282W        W92267  21.789  25.463  11.508
27283W        W92268   8.851  35.959  12.111
27284W        W92269  14.599  41.759  14.897
27285W        W92270  28.294  16.049  11.276
27286W        W92271   9.857  41.969  13.063
27287W        W92272  19.811  40.311  11.987
27288W        W92273  27.489   5.430  12.817
27289W        W92274  19.708  17.992   2.672
27290W        W92275  21.229  40.176   1.882
27291W        W92276  44.308  34.752  14.306
27292W        W92277  42.339  19.088   3.298
27293W        W92278  13.827   3.934  14.880
27294W        W92279  16.215  36.777   2.809
27295W        W92280  19.151   7.467   2.766
27296W        W92281  24.005  18.667  14.387
27297W        W92282  22.715  32.331   3.666
27298W        W92283  35.240   9.159  14.863
27299W        W92284  29.101  27.459   4.340
27300W        W92285  39.066   9.840  14.686
27301W        W92286   3.977  14.624   3.364
27302W        W92287  37.785   0.821   0.869
27303W        W92288   6.294  18.231   3.848
27304W        W92289  30.906  33.166   0.766
27305W        W92290  15.892  33.238  14.267
27306W        W92291  18.071  23.613   4.608
27307W        W92292  37.900  38.391  14.093
27308W        W92293  36.396  25.889  10.711
27309W        W92294   4.959  43.508   2.327
27310W        W92295  30.258  29.577   0.259
27311W        W92296  17.740  22.281  12.575
27312W        W92297  26.175  43.840  14.258
27313W        W92298   3.092  27.583   1.038
27314W        W92299  24.662  24.505  12.934
27315W        W92300  10.180  16.134  14.422
27316W        W92301  39.356  40.437   4.384
27317W        W92302  34.365  42.822   1.975
27318W        W92303   5.801  38.850   0.771
27319W        W92304  44.324  24.436   2.979
27320W        W92305  25.346  32.058   1.361
27321W        W92306  31.667  43.449   2.829
27322W        W92307  40.773  13.223  13.775
27323W        W92308   4.378  43.289  13.259
27324W        W92309  24.068  24.051   1.295
27325W        W92310   9.536  43.628   4.171
27326W        W92311  21.187  30.058  12.743
27327W        W92312  16.729  33.677   2.169
27328W        W92313  42.353  12.877   1.631
27329W        W92314  35.002  21.558   1.864
27330W        W92315  15.822  44.033  14.722
27331W        W92316   3.837  37.055   1.420
27332W        W92317  31.481  40.029  14.400
27333W        W92318   0.209  38.874   1.529
27334W        W92319  44.445  38.183  11.589
27335W        W92320  16.281  41.892   0.111
27336W        W92321   8.528  37.085  14.129
27337W        W92322   8.231  21.297  11.474
27338W        W92323   8.805  29.780   1.694
27339W        W92324   1.465  30.356  14.977
27340W        W92325  38.852  14.795  14.034
27341W        W92326  20.072  14.004   1.171
27342W        W92327   0.727  27.712  12.525
27343W        W92328   2.464   0.851   3.296
27344W        W92329   0.058  31.472  14.521
27345W        W92330  40.626  27.575   0.332
27346W        W92331  16.143  19.245   2.366
27347W        W92332  37.175  29.944  11.169
27348W        W92333  14.375  19.202   4.725
27349W        W92334  29.550  34.006   2.311
27350W        W92335  28.914   5.681  12.769
27351W        W92336   4.639   2.277   4.214
27352W        W92337  25.555  38.016   3.455
27353W        W92338   0.927  14.613   0.119
27354W        W92339  27.672  18.486  14.040
27355W        W92340   9.514  24.526   4.169
27356W        W92341  16.300  39.545   1.231
27357W        W92342  40.545  20.279   3.191
27358W        W92343  16.266  21.043  12.459
27359W        W92344  32.381  29.306   0.532
27360W        W92345  42.712  25.184   1.669
27361W        W92346  32.235  38.648   3.534
27362W        W92347  14.425  18.427  12.823
27363W        W92348  21.600  17.044  11.613
27364W        W92349   0.910  23.667  11.604
27365W        W92350   9.293  15.039   4.358
27366W        W92351  23.794  25.105   2.429
27367W        W92352  34.345  43.301  11.719
27368W        W92353  22.239   4.398  13.080
27369W        W92354  40.519  12.590   4.640
27370W        W92355   3.469  12.362  12.507
27371W        W92356  16.524  42.302   1.855
27372W        W92357  29.630   7.320  14.691
27373W        W92358  37.037  10.331  13.139
27374W        W92359  20.749  37.474   1.980
27375W        W92360  43.848  19.400   1.799
27376W        W92361  13.228  39.565   4.593
27377W        W92362  35.270  40.609  12.117
27378W        W92363  33.779  11.346  13.343
27379W        W92364  22.839  19.967   1.014
27380W        W92365  38.339  34.441  12.051
27381W        W92366  22.179  11.843  12.992
27382W        W92367  13.819  22.976   3.761
27383W        W92368  33.869  38.012  14.480
27384W        W92369   8.446  32.622   1.836
27385W        W92370  33.318  21.366  10.611
27386W        W92371  22.176  18.103   4.617
27387W        W92372  20.626  21.286  12.198
27388W        W92373  39.013  27.651  13.343
27389W        W92374   6.635  20.196   1.765
27390W        W92375  42.931  43.065  11.919
27391W        W92376  39.462  14.728  10.535
27392W        W92377  16.664  33.121   1.483
27393W        W92378  37.085   3.197  10.510
27394W        W92379  44.956  12.845   4.525
27395W        W92380  17.426  32.956  14.806
27396W        W92381  33.315  19.293  12.047
27397W        W92382  39.307   0.312   4.625
27398W        W92383  35.959  13.218  13.475
27399W        W92384  26.279  23.709   4.492
27400W        W92385  33.994   4.387   2.908
27401W        W92386  34.625  18.747   2.775
27402W        W92387  22.654  37.595  13.581
27403W        W92388  23.730   6.785  14.884
27404W        W92389  10.819  12.771  14.010
27405W        W92390   8.096   2.925   0.819
27406W        W92391  12.763  16.090   3.234
27407W        W92392  32.671   7.639  11.087
27408W        W92393  14.027   5.116   5.000
27409W        W92394  42.676  14.154  11.052
27410W        W92395  17.917  41.601  12.869
27411W        W92396  42.004  16.037  14.129
27412W        W92397  32.636  34.573  13.490
27413W        W92398  32.741  39.542   1.705
27414W        W92399  15.678   8.161  12.227
27415W        W92400   9.996   3.763  13.262
27416W        W92401  17.721  19.113  13.512
27417W        W92402   6.030  22.463  10.338
27418W        W92403  39.294   1.235   0.141
27419W        W92404  29.963  16.623  12.853
27420W        W92405  36.413  24.362   0.076
27421W        W92406  27.690  31.303   2.246
27422W        W92407  36.121  14.769   0.877
27423W        W92408  24.106  25.189  14.043
27424W        W92409  39.838   1.774  14.490
27425W        W92410  19.708  38.750  11.692
27426W        W92411  21.783  24.087  13.389
27427W        W92412  39.762  16.864   2.215
27428W        W92413  13.396   3.008   4.993
27429W        W92414  41.922   3.862   1.853
27430W        W92415   4.348  39.737   2.847
27431W        W92416   9.150  15.068  12.799
27432W        W92417  32.227  18.657   2.814
27433W        W92418   2.705  42.482  10.777
27434W        W92419   4.967  23.024  11.066
27435W        W92420  28.201  12.184   0.277
27436W        W92421  19.182  36.908   1.593
27437W        W92422   6.855  11.055  13.030
27438W        W92423  24.207   0.747   0.788
27439W        W92424  28.153  13.788   1.455
27440W        W92425  19.224  41.313  11.110
27441W        W92426  26.993  15.181   3.434
27442W        W92427   3.756  39.991   3.866
27443W        W92428  32.955  17.073  13.301
27444W        W92429   5.668   4.050  10.779
27445W        W92430  24.672  33.343   1.884
27446W        W92431  23.982  17.626  11.916
27447W        W92432   5.437  15.649  11.452
27448W        W92433  10.190  33.713  11.881
27449W        W92434   9.264  40.368  14.458
27450W        W92435  12.919  32.988   1.463
27451W        W92436   8.825  19.067   4.229
27452W        W92437  40.350  11.834  11.646
27453W        W92438  26.753  20.745   3.266
27454W        W92439   4.900   6.024  11.771
27455W        W92440   7.314  30.228   4.092
27456W        W92441  10.207   9.691  10.697
27457W        W92442  25.578   1.232   3.132
27458W        W92443   7.726   9.860   0.335
27459W        W92444  37.787  18.135   2.847
27460W        W92445  36.878   2.799   1.242
27461W        W92446  32.561  15.227  13.296
27462W        W92447  14.301  44.889  13.487
27463W        W92448   3.236   3.718  12.911
27464W        W92449  44.973  10.707   3.116
27465W        W92450  29.250  27.978   1.661
27466W        W92451  21.804  21.077   2.455
27467W        W92452   2.917  35.810   0.790
27468W        W92453  35.276   3.162  10.774
27469W        W92454  39.524  35.584   0.794
27470W        W92455  44.276  25.427  13.559
27471W        W92456  15.668  30.732  10.257
27472W        W92457  44.240  14.673  13.194
27473W        W92458  37.331  39.797   3.242
27474W        W92459  27.572   9.856   3.336
27475W        W92460   6.210   1.640   3.538
27476W        W92461  35.803  42.397   2.767
27477W        W92462  35.116  41.594  11.128
27478W        W92463  44.708  40.601   3.790
27479W        W92464  12.032  15.128   0.628
27480W        W92465   3.301  42.920   1.464
27481W        W92466   7.821  43.510   2.288
27482W        W92467  26.107  11.605  13.716
27483W        W92468  10.682   9.662  11.948
27484W        W92469   0.335   5.020   0.344
27485W        W92470  26.244   9.353  11.616
27486W        W92471  35.247   5.346  10.553
27487W        W92472   9.292  20.107  13.971
27488W        W92473  17.393  36.936  13.596
27489W        W92474   3.476  14.861  11.630
27490W        W92475  15.529   7.481  13.752
27491W        W92476   1.674  42.090   2.538
27492W        W92477   1.321  31.177  14.518
27493W        W92478  37.064  44.339  13.477
27494W        W92479  24.350  37.383   1.202
27495W        W92480  42.354   3.200   1.403
27496W        W92481  10.953  11.267  10.709
27497W        W92482  39.738  44.083  13.371
27498W        W92483  30.142  41.468  13.776
27499W        W92484  21.768  41.855  14.049
27500W        W92485  23.690  24.641   2.201
27501W        W92486  10.088  15.778  13.483
27502W        W92487   0.519  30.934   4.568
27503W        W92488  34.359  28.689   4.397
27504W        W92489   4.928  20.949   2.115
27505W        W92490  42.268  42.308   4.659
27506W        W92491  31.010  16.904  12.018
27507W        W92492  42.428  18.815   0.744
27508W        W92493   3.636   0.821  11.954
27509W        W92494  25.733  16.700   3.092
27510W        W92495   3.894  30.183  14.409
27511W        W92496   1.397  34.994  13.731
27512W        W92497   4.438  26.739   4.585
27513W        W92498  41.146   4.923  12.571
27514W        W92499  16.108  20.859  14.337
27515W        W92500  44.427  17.226  13.494
27516W        W92501   7.135  42.399   2.435
27517W        W92502  38.610  42.029  11.035
27518W        W92503  19.650  39.954   4.159
27519W        W92504   2.453  27.150   0.870
27520W        W92505  19.123  37.886  13.891
27521W        W92506  18.460   8.798   0.258
27522W        W92507  39.237  18.616  11.121
27523W        W92508  26.589  19.737   4.850
27524W        W92509  24.681  13.556  12.593
27525W        W92510  35.461  29.853  14.918
27526W        W92511  35.610  25.245  12.968
27527W        W92512  27.666   6.151   3.126
27528W        W92513   1.056  33.207  12.428
27529W        W92514  19.517  41.391  13.068
27530W        W92515  19.718   4.345   1.745
27531W        W92516  25.486   8.087  12.460
27532W        W92517  44.978  23.210   4.903
27533W        W92518   5.869  10.333  12.063
27534W        W92519   4.326  25.725   4.135
27535W        W92520  34.663  13.219   2.468
27536W        W92521   5.417  32.685   0.435
27537W        W92522  20.244  14.735  11.970
27538W        W92523  11.563  10.456  10.610
27539W        W92524  43.212  25.047   1.644
27540W        W92525  30.534  26.645  11.300
27541W        W92526  36.957  36.512   0.896
27542W        W92527  40.136  24.777  13.240
27543W        W92528  14.227  43.348  13.244
27544W        W92529  30.308   0.076   9.913
27545W        W92530  27.169  37.597   1.008
27546W        W92531  39.386  24.958  14.757
27547W        W92532  12.474  19.493   0.316
27548W        W92533   9.761   3.922  11.070
27549W        W92534   4.699  21.523   0.267
27550W        W92535  35.587  22.139  12.178
27551W        W92536   1.183   8.937  11.428
27552W        W92537   3.759  39.281  10.928
27553W        W92538   9.246  40.488   2.438
27554W        W92539  26.212  10.180  11.682
27555W        W92540   7.782  16.059   3.164
27556W        W92541  10.953  29.452   4.712
27557W        W92542  43.718  17.269  13.995
27558W        W92543  34.077  11.032   9.628
27559W        W92544  33.857  12.875   3.051
27560W        W92545  26.102  16.052  12.464
27561W        W92546  11.833  20.225  14.403
27562W        W92547  24.611  37.876  11.632
27563W        W92548  10.038   4.673   9.699
27564W        W92549  13.175  17.777  14.451
27565W        W92550  43.512  32.464   3.159
27566W        W92551  35.607  34.170  10.821
27567W        W92552  37.108  14.679   1.705
27568W        W92553  30.074  43.054  12.431
27569W        W92554   9.694  12.106  14.875
27570W        W92555   3.627   2.512   4.313
27571W        W92556  44.317  16.715  12.283
27572W        W92557  12.231  24.536  13.529
27573W        W92558  12.957  37.349  12.325
27574W        W92559  20.462  38.745  13.904
27575W        W92560  39.316  16.797   9.851
27576W        W92561  22.435   7.860   0.385
27577W        W92562   0.876   9.277   3.651
27578W        W92563  14.503  40.421  14.519
27579W        W92564   7.835  10.899  14.448
27580W        W92565  23.523  38.286  12.107
27581W        W92566   0.057  17.260   3.259
27582W        W92567  13.534  22.559   4.336
27583W        W92568  13.191  40.853  10.955
27584W        W92569  19.089   9.775   2.719
27585W        W92570  19.047  39.693  12.335
27586W        W92571  30.699  31.434   0.457
27587W        W92572  23.970  12.837   0.574
27588W        W92573  19.177  35.205  11.218
27589W        W92574  32.580  35.896   1.676
27590W        W92575  21.566  30.340   0.322
27591W        W92576  18.731  16.422  14.828
27592W        W92577  41.485   2.481  14.882
27593W        W92578  24.287   7.414   3.230
27594W        W92579  21.676  21.679   1.337
27595W        W92580  25.991  12.125  11.700
27596W        W92581   5.478   6.660  11.538
27597W        W92582  15.048  24.999  12.480
27598W        W92583   8.819   2.107   1.906
27599W        W92584  26.715  42.385   3.581
27600W        W92585  15.436  34.329  11.186
27601W        W92586  28.950  36.945  11.894
27602W        W92587  13.393   7.146   4.172
27603W        W92588  39.351   2.953   3.150
27604W        W92589  15.935  15.250   1.373
27605W        W92590   4.278  17.680  11.959
27606W        W92591   3.700  41.431   0.272
27607W        W92592   9.125  37.524  14.445
27608W        W92593   6.196  36.409  10.812
27609W        W92594   4.234  33.438   0.404
27610W        W92595  42.473  31.108  11.532
27611W        W92596  17.604  16.354   2.798
27612W        W92597   2.371  36.597   1.779
27613W        W92598  23.258  32.897  13.836
27614W        W92599  40.030  33.304  12.104
27615W        W92600  43.387  20.631  11.168
27616W        W92601  42.833  42.227  13.525
27617W        W92602  16.626  39.815   0.023
27618W        W92603  21.941   1.941  13.975
27619W        W92604  41.172  43.811  14.819
27620W        W92605  25.477   6.767  11.142
27621W        W92606  44.014  13.371  10.705
27622W        W92607  23.975  34.973  11.120
27623W        W92608  29.696  12.224   1.380
27624W        W92609  22.121  26.855   2.736
27625W        W92610  13.362   5.247  10.722
27626W        W92611   9.179  35.460  11.082
27627W        W92612  16.090  19.850  12.921
27628W        W92613  36.124  23.940   3.749
27629W        W92614  26.020   7.715  12.954
27630W        W92615  29.174   3.915   1.289
27631W        W92616  32.404  30.180  12.919
27632W        W92617   2.578  22.787  13.021
27633W        W92618   3.774  33.365   3.206
27634W        W92619  24.543  38.309  14.978
27635W        W92620  24.716  27.051   4.953
27636W        W92621  19.340  14.121   4.603
27637W        W92622  36.918   6.246   4.522
27638W        W92623  39.860  15.712  14.065
27639W        W92624  40.824  25.924   0.295
27640W        W92625  40.848  42.654  13.294
27641W        W92626  25.942  11.783   2.637
27642W        W92627  36.511  40.917   1.416
27643W        W92628  40.382  11.818   0.857
27644W        W92629  36.317  19.805   9.604
27645W        W92630  29.979  36.008  11.454
27646W        W92631  30.792  24.649   2.611
27647W        W92632   9.652   2.940  14.829
27648W        W92633  37.553  43.754  14.260
27649W        W92634   2.669  35.886  14.447
27650W        W92635  24.107  35.647  14.269
27651W        W92636  12.617  38.474  13.515
27652W        W92637  21.961  28.812   4.943
27653W        W92638   2.782  26.127   0.419
27654W        W92639  27.995  13.086   4.144
27655W        W92640  30.633  41.973  13.355
27656W        W92641  14.813  42.068  11.802
27657W        W92642  43.806  42.760  12.388
27658W        W92643  42.204   0.832   1.906
27659W        W92644  41.557   8.739   3.285
27660W        W92645  22.677   3.301  11.573
27661W        W92646   9.154  38.914   4.206
27662W        W92647  37.333  26.131  12.384
27663W        W92648   4.763  13.664  12.508
27664W        W92649  36.851  23.273   0.446
27665W        W92650  35.411  43.185   0.904
27666W        W92651  28.057  42.436  13.060
27667W        W92652   7.617  41.580  13.582
27668W        W92653  36.256  40.006  10.789
27669W        W92654  43.830   4.612   4.888
27670W        W92655  39.090  13.749   4.623
27671W        W92656  34.615   9.285  10.432
27672W        W92657   0.832  24.209  11.568
27673W        W92658  41.466  43.955   4.157
27674W        W92659  19.796  42.479   2.713
27675W        W92660   5.835   0.778   0.666
27676W        W92661  24.443  13.180   3.290
27677W        W92662  43.389  10.156   2.124
27678W        W92663  27.474  20.978   4.205
27679W        W92664  27.096  14.190  11.986
27680W        W92665  31.478  23.975  14.301
27681W        W92666  12.531  42.548   4.122
27682W        W92667  23.672  10.083  14.054
27683W        W92668  11.264  10.075  14.515
27684W        W92669  31.593  20.135   3.641
27685W        W92670  24.216  41.746  10.708
27686W        W92671  42.070  38.587   1.623
27687W        W92672  42.112  28.615  11.959
27688W        W92673  10.240  44.299  11.400
27689W        W92674  40.387  30.755   0.042
27690W        W92675  24.103  34.268  11.700
27691W        W92676  22.295  44.230  13.794
27692W        W92677  42.556  13.811   3.277
27693W        W92678  30.216   6.976   1.331
27694W        W92679   5.742  30.736   2.137
27695W        W92680   0.323  32.675   2.340
27696W        W92681  33.864  34.791   4.565
27697W        W92682  23.161  41.025   3.689
27698W        W92683  39.485  23.165   0.955
27699W        W92684  44.439  11.670   0.257
27700W        W92685   0.326   2.679  11.220
27701W        W92686  27.508  43.029  12.048
27702W        W92687   9.846   6.420   1.885
27703W        W92688  40.861  30.168   4.182
27704W        W92689  38.609  12.497   2.544
27705W        W92690  40.363  44.284  11.875
27706W        W92691   3.317   6.961  13.489
27707W        W92692  20.074  33.736  13.450
27708W        W92693  41.287   0.970   5.085
27709W        W92694  12.177  40.481  13.962
27710W        W92695  44.495  41.722  14.504
27711W        W92696  18.747  34.999  11.428
27712W        W92697  26.223  22.179   1.410
27713W        W92698  15.676   7.772  14.910
27714W        W92699   6.848  10.381  14.332
27715W        W92700   8.336   0.291  13.354
27716W        W92701  44.344  39.431  10.416
27717W        W92702   9.934   1.555  13.402
27718W        W92703   9.764   7.249  14.455
27719W        W92704  16.614   9.591  13.271
27720W        W92705  39.268  17.760  12.592
27721W        W92706  13.878  44.538  10.898
27722W        W92707  11.684  44.976   2.246
27723W        W92708  22.208  33.551  13.364
27724W        W92709  22.253  39.506   5.026
27725W        W92710  18.252   2.800   1.380
27726W        W92711  17.365   9.960   4.833
27727W        W92712   5.789   9.019   4.755
27728W        W92713  33.438  43.088  11.172
27729W        W92714  25.643   5.851  12.101
27730W        W92715  18.576   5.175  11.615
27731W        W92716   5.311  22.466   3.196
27732W        W92717  34.025  37.607   0.443
27733W        W92718  37.499  26.706  14.263
27734W        W92719   1.673  23.703  12.022
27735W        W92720   1.413   8.033  13.373
27736W        W92721  12.850  24.530   3.688
27737W        W92722  31.623  14.597   0.200
27738W        W92723  39.362   3.536  14.980
27739W        W92724  30.101  10.561   2.161
27740W        W92725  32.062  35.631  10.660
27741W        W92726  26.926   2.740  12.431
27742W        W92727  30.213  10.235   4.655
27743W        W92728   6.484  41.074  11.587
27744W        W92729  17.986  10.728   0.892
27745W        W92730   7.165  44.034   1.753
27746W        W92731  43.206  11.386   0.624
27747W        W92732  10.627   7.898  14.701
27748W        W92733  15.052  30.518  14.761
27749W        W92734  10.678  36.157  13.787
27750W        W92735  27.751   8.131  10.653
27751W        W92736  22.966  15.140  13.539
27752W        W92737  14.701  26.699   3.649
27753W        W92738  33.831   0.148   1.278
27754W        W92739   8.507  24.947   3.761
27755W        W92740  20.257   9.567  11.291
27756W        W92741  37.283  23.991  13.795
27757W        W92742  17.095  19.232   9.626
27758W        W92743  22.937  40.051  13.003
27759W        W92744  24.785  43.959  13.093
27760W        W92745  21.657  33.419  12.143
27761W        W92746   0.160  13.595   2.732
27762W        W92747  26.361  24.071  12.256
27763W        W92748   4.795   8.574   4.985
27764W        W92749  19.083  23.556   2.654
27765W        W92750  37.934   5.468  14.014
27766W        W92751  38.043  40.771  11.388
27767W        W92752  19.823  37.424   4.723
27768W        W92753  30.509   6.095  12.577
27769W        W92754   0.145   1.487   1.248
27770W        W92755   0.517   6.881   3.752
27771W        W92756  31.089  33.508   1.189
27772W        W92757  19.125  12.559  14.018
27773W        W92758  12.353  16.309  13.790
27774W        W92759  11.586  10.000   4.940
27775W        W92760  41.954  15.064  12.882
27776W        W92761  29.961  30.691   0.381
27777W        W92762  14.632   1.361   1.218
27778W        W92763   7.836  12.652  10.169
27779W        W92764  15.226  13.392   4.424
27780W        W92765  27.402  37.137   0.897
27781W        W92766  31.926  14.694  13.734
27782W        W92767   0.273  34.089  12.720
27783W        W92768  30.488  15.183   3.842
27784W        W92769  37.090  28.483   3.616
27785W        W92770   4.150  42.273  11.176
27786W        W92771  25.193  14.589   2.197
27787W        W92772  35.929   9.993  12.585
27788W        W92773  38.379  43.908  10.934
27789W        W92774  18.192   7.699   1.738
27790W        W92775  43.039  42.347  14.952
27791W        W92776  37.338  22.558  10.779
27792W        W92777   1.413   2.490   2.101
27793W        W92778  10.492  27.190   0.762
27794W        W92779  31.989  13.347   0.011
27795W        W92780  19.676  14.321   3.777
27796W        W92781  38.639  25.630   9.970
27797W        W92782  17.718  43.735   4.187
27798W        W92783  26.893  34.952  10.778
27799W        W92784  35.703  16.098   1.337
27800W        W92785  38.843  14.053   4.264
27801W        W92786  26.009  21.318   1.868
27802W        W92787   7.396  25.404  14.386
27803W        W92788  27.955  44.416   1.498
27804W        W92789  11.830  36.847  12.480
27805W        W92790  11.076   6.308  14.864
27806W        W92791   2.143  32.564   4.375
27807W        W92792  35.769  20.745  13.465
27808W        W92793  33.342  18.320  11.973
27809W        W92794  13.747   0.484  13.419
27810W        W92795   8.910  18.243  12.583
27811W        W92796  30.405   4.834   4.566
27812W        W92797  14.067  40.494  12.674
27813W        W92798  17.327   0.939  12.897
27814W        W92799  31.402  41.984  11.007
27815W        W92800  41.281  35.339  12.120
27816W        W92801  24.274  14.132   3.698
27817W        W92802  10.041  24.124  12.344
27818W        W92803   5.347  44.822  11.129
27819W        W92804   3.251  19.541  13.964
27820W        W92805  20.646   4.842   2.763
27821W        W92806  18.013  29.925  12.120
27822W        W92807  31.342  16.851  10.607
27823W        W92808   5.236   8.633  12.372
27824W        W92809  22.040  43.145  11.712
27825W        W92810  32.396   7.142  14.676
27826W        W92811  35.141  21.418   4.434
27827W        W92812  44.085  11.394  12.997
27828W        W92813  31.583  19.278   1.307
27829W        W92814  32.034  24.066   4.316
27830W        W92815  42.217   6.091  12.183
27831W        W92816  21.294  44.866   1.332
27832W        W92817  13.107  37.997  14.166
27833W        W92818   6.865   2.879  13.384
27834W        W92819  26.693  17.952  14.980
27835W        W92820  26.701  35.070   4.555
27836W        W92821  17.083   3.408   1.617
27837W        W92822  32.524  39.245   3.915
27838W        W92823  10.370  30.413  12.744
27839W        W92824  27.629   1.936   0.300
27840W        W92825  42.426  39.238  12.913
27841W        W92826  38.417   7.019   2.755
27842W        W92827  28.917  40.442   0.189
27843W        W92828  38.258  34.176  12.515
27844W        W92829  16.941  25.557  14.349
27845W        W92830  18.043  28.919  14.058
27846W        W92831   7.785  36.136   3.657
27847W        W92832  25.444  30.709   0.060
27848W        W92833  36.111   3.665   3.749
27849W        W92834  43.617   7.512  14.475
27850W        W92835  30.611  18.538   0.728
27851W        W92836  10.740  32.616  10.424
27852W        W92837  33.101  36.980  13.454
27853W        W92838  41.128  18.586   2.368
27854W        W92839  20.691  28.082  10.931
27855W        W92840  43.227   3.641  13.377
27856W        W92841  14.250  43.772   2.316
27857W        W92842  31.566   8.132   0.758
27858W        W92843  21.771  41.323   0.394
27859W        W92844  17.044   9.966  14.572
27860W        W92845  10.430  17.497  12.552
27861W        W92846  13.141  35.067  11.066
27862W        W92847  38.679  25.423   0.485
27863W        W92848  42.499  40.763  13.097
27864W        W92849  24.914   2.860  10.495
27865W        W92850   3.100   5.655   2.763
27866W        W92851  34.638  42.076   0.925
27867W        W92852  42.940  17.603   2.461
27868W        W92853   1.320  14.072   3.834
27869W        W92854  33.027  27.151  10.778
27870W        W92855   9.136  13.557   1.683
27871W        W92856  17.786  34.226  14.300
27872W        W92857  43.767  17.180   1.676
27873W        W92858  23.982  26.224   4.624
27874W        W92859  27.043  35.812   1.846
27875W        W92860   2.523  41.052   4.969
27876W        W92861   5.202   0.120  12.442
27877W        W92862  44.906  35.869  13.338
27878W        W92863   5.763  34.523   1.961
27879W        W92864  34.337  26.178  12.476
27880W        W92865  13.243  12.414   0.253
27881W        W92866   7.312   7.104  11.487
27882W        W92867   3.929  43.200   3.359
27883W        W92868   1.444  30.993   4.890
27884W        W92869  18.191  39.927   0.328
27885W        W92870  43.769  16.118   0.976
27886W        W92871  29.148  20.727   4.889
27887W        W92872  26.467  26.637  11.988
27888W        W92873  10.038  11.337  13.466
27889W        W92874   1.217  22.106   2.421
27890W        W92875  13.854  36.060   1.802
27891W        W92876   7.085  42.045   1.191
27892W        W92877  16.999  19.193   1.192
27893W        W92878  40.941   4.851   0.301
27894W        W92879  27.056  23.445   4.126
27895W        W92880  29.900  36.665  13.331
27896W        W92881  32.940  23.756  13.236
27897W        W92882  40.832  39.187  11.568
27898W        W92883  18.131  31.866   0.533
27899W        W92884   7.190   3.403   3.184
27900W        W92885  30.166  42.146   1.256
27901W        W92886   7.448  21.968  12.045
27902W        W92887  31.958  10.363   1.869
27903W        W92888  39.698  27.564   1.454
27904W        W92889  43.943   7.715   2.406
27905W        W92890   8.600  29.952   4.580
27906W        W92891   0.694   0.373  14.354
27907W        W92892  35.635  17.659   3.645
27908W        W92893  17.290  15.744   2.337
27909W        W92894  30.637  34.215  11.088
27910W        W92895  39.278  37.326   2.198
27911W        W92896  38.573  23.375  12.811
27912W        W92897  16.514  20.631   4.405
27913W        W92898  38.430  31.599   4.397
27914W        W92899  24.042   8.496  11.153
27915W        W92900  28.603  30.466   0.370
27916W        W92901  29.347  11.647   2.053
27917W        W92902  34.268  39.002   4.125
27918W        W92903  32.068  10.958   1.905
27919W        W92904  39.149   9.911  10.413
27920W        W92905  41.786   6.844   2.207
27921W        W92906  15.655  42.690  14.896
27922W        W92907  33.300  43.477  12.190
27923W        W92908  19.938  22.547  13.513
27924W        W92909  31.718  15.789  14.394
27925W        W92910  11.180  37.502  10.684
27926W        W92911   5.819  28.313  14.224
27927W        W92912  24.623  34.127   0.703
27928W        W92913  42.791   1.216  12.963
27929W        W92914  24.027  15.147   2.739
27930W        W92915  37.934  35.888   4.282
27931W        W92916   8.853   8.465  11.552
27932W        W92917  11.399   7.922  14.040
27933W        W92918  37.393  29.520  10.984
27934W        W92919  39.034   3.461   0.462
27935W        W92920  25.649   7.633   3.650
27936W        W92921  35.001  25.277   4.190
27937W        W92922  28.720   0.688   4.184
27938W        W92923  23.195  28.319  14.038
27939W        W92924  31.614   9.338   2.180
27940W        W92925  17.535  38.568  11.933
27941W        W92926  27.061  12.659  14.046
27942W        W92927  27.020   6.624  10.472
27943W        W92928   7.274  44.241  12.897
27944W        W92929  43.918  33.948  12.785
27945W        W92930  10.259   8.050  14.355
27946W        W92931  29.054  32.424  11.227
27947W        W92932  16.794   2.230  14.975
27948W        W92933  36.431  34.275  12.487
27949W        W92934  37.610   4.447   0.957
27950W        W92935  21.194  22.859   4.096
27951W        W92936  38.263  18.032  11.980
27952W        W92937  19.466  44.345   4.118
27953W        W92938   7.940   3.568   2.603
27954W        W92939   1.007  32.958   2.744
27955W        W92940  36.866  23.250   1.721
27956W        W92941   8.427   5.829   0.456
27957W        W92942  10.851   3.545   0.824
27958W        W92943  28.985  38.408  13.934
27959W        W92944  17.152  38.386  14.814
27960W        W92945  29.501  29.607   4.187
27961W        W92946   6.519  13.711  14.786
27962W        W92947   4.273  39.095  14.389
27963W        W92948  25.235  37.414   1.857
27964W        W92949  19.274  30.464   3.655
27965W        W92950  29.513  15.631   3.732
27966W        W92951  10.404   4.697   1.417
27967W        W92952  29.153  11.324   3.721
27968W        W92953  23.138  28.163   4.345
27969W        W92954  41.421  11.266   3.042
27970W        W92955   4.558  40.436  14.001
27971W        W92956  22.948  12.000   3.179
27972W        W92957  44.703  37.718  12.425
27973W        W92958  34.572  33.677   2.097
27974W        W92959  18.180  43.972  13.546
27975W        W92960   4.939  20.649  11.521
27976W        W92961  25.483  38.644   1.872
27977W        W92962  24.914   7.584  11.232
27978W        W92963  26.548  15.627  10.592
27979W        W92964  29.147  17.656   1.098
27980W        W92965  37.155  30.093  14.290
27981W        W92966  31.272  12.888   1.257
27982W        W92967  21.508   7.211  14.764
27983W        W92968  10.938   1.089  10.674
27984W        W92969   7.957  13.358   1.258
27985W        W92970  20.139  11.882   2.348
27986W        W92971  33.351  12.156  12.290
27987W        W92972   4.839  13.284   2.159
27988W        W92973  44.285  21.053   2.209
27989W        W92974  26.083   3.324   1.225
27990W        W92975  17.591  18.629  14.979
27991W        W92976  14.482  37.444  12.687
27992W        W92977  29.323  18.370   3.863
27993W        W92978   8.952  43.662   0.208
27994W        W92979  18.237  15.039   2.695
27995W        W92980   9.709  32.709   0.456
27996W        W92981   2.386   8.624   4.090
27997W        W92982  29.942  13.581  14.901
27998W        W92983  36.186   9.642   2.255
27999W        W92984   7.404  25.142   0.558
28000W        W92985   4.483  24.098  12.094
28001W        W92986  40.562  10.643   2.295
28002W        W92987  12.823  39.403   4.294
28003W        W92988  39.923  21.607   4.846
28004W        W92989  18.704   2.872  11.822
28005W        W92990  42.817  12.219  11.827
28006W        W92991  22.173  14.274  12.802
28007W        W92992   9.729  32.165  13.425
28008W        W92993  30.442   9.680   2.024
28009W        W92994   5.074  33.482   1.180
28010W        W92995   4.208   8.008  14.441
28011W        W92996   6.104  11.904  14.448
28012W        W92997  18.003   1.922   1.847
28013W        W92998   5.330   6.146   0.811
28014W        W92999   7.507  30.988   2.382
28015W        W93000  21.707  31.617   1.907
28016W        W93001  44.970   6.205   3.230
28017W        W93002   1.121   6.482  13.938
28018W        W93003  34.184  26.684   0.824
28019W        W93004  19.125  32.584   1.391
28020W        W93005   3.730   0.083   4.312
28021W        W93006   1.033   0.237  12.534
28022W        W93007  15.590  44.961   3.316
28023W        W93008  40.343   1.285   2.763
28024W        W93009  25.205  18.537   1.250
28025W        W93010  35.973   2.151  14.135
28026W        W93011  30.714   2.287  10.785
28027W        W93012  23.580  26.178   4.200
28028W        W93013  32.932  40.825   1.669
28029W        W93014  39.999   9.953   4.731
28030W        W93015  15.368  20.102  11.476
28031W        W93016   3.123  28.429   2.582
28032W        W93017  17.850  23.988   0.984
28033W        W93018  34.498   2.908   3.339
28034W        W93019  43.512  42.399   2.882
28035W        W93020  24.696  32.976  11.634
28036W        W93021  25.403   5.955   4.596
28037W        W93022   5.397   8.136  12.576
28038W        W93023  40.073  24.125  12.735
28039W        W93024  40.047  17.933   4.906
28040W        W93025  11.768  18.452  10.060
28041W        W93026  15.097  26.422  11.526
28042W        W93027  37.622  44.730   0.682
28043W        W93028  22.852  34.178   3.778
28044W        W93029  24.568  12.118   4.859
28045W        W93030   3.484  38.671   3.630
28046W        W93031  16.284  37.303  11.469
28047W        W93032  15.523  43.307  12.451
28048W        W93033  40.595  10.363   4.122
28049W        W93034   0.017   0.871  14.697
28050W        W93035  33.560  13.494   0.655
28051W        W93036  19.279  20.534   3.318
28052W        W93037  13.443  33.878  11.135
28053W        W93038  32.891   6.491  11.642
28054W        W93039  20.410  20.276  11.415
28055W        W93040  12.636  37.899   1.899
28056W        W93041  39.477   0.507   4.133
28057W        W93042  43.359  20.597  13.076
28058W        W93043  24.364   1.724   5.023
28059W        W93044  13.071   0.486   2.270
28060W        W93045  25.963  36.922   0.739
28061W        W93046   2.609  33.021  11.535
28062W        W93047  14.139  31.098   5.206
28063W        W93048  20.049  27.255  11.836
28064W        W93049  34.170  31.482   2.382
28065W        W93050  42.125  22.759  14.841
28066W        W93051  11.095  22.985   1.277
28067W        W93052  35.472  31.035   1.308
28068W        W93053  27.633  27.159   3.274
28069W        W93054  18.024  43.817   1.174
28070W        W93055   8.157  27.264  10.803
28071W        W93056  11.675   1.028   2.250
28072W        W93057  32.624   4.365  14.055
28073W        W93058  37.441  23.296  10.431
28074W        W93059  28.058  42.258   1.518
28075W        W93060  15.317  30.549   2.088
28076W        W93061   0.034  41.804   3.704
28077W        W93062  41.988  34.546   2.409
28078W        W93063  36.265  26.562   5.318
28079W        W93064  35.913  42.350  14.045
28080W        W93065  10.836   6.634   4.129
28081W        W93066  13.766  19.644   0.916
28082W        W93067  12.850  41.091  13.357
28083W        W93068  42.050  31.939  11.968
28084W        W93069  12.760   2.864  14.403
28085W        W93070  29.685  23.429  12.014
28086W        W93071   5.100  43.199   1.941
28087W        W93072  32.906  29.226   1.271
28088W        W93073   5.291  10.590   0.388
28089W        W93074  29.892  29.955  10.297
28090W        W93075   8.214  34.814  12.455
28091W        W93076  35.756  28.536   2.750
28092W        W93077   2.685  41.554   0.243
28093W        W93078  15.066  34.307   1.213
28094W        W93079   5.258  15.732   3.881
28095W        W93080  40.050  26.682   1.197
28096W        W93081  27.399  43.887   3.391
28097W        W93082  27.036  35.519   5.300
28098W        W93083  31.038   0.745  14.772
28099W        W93084  12.258   3.485   2.166
28100W        W93085   2.509  44.569  12.039
28101W        W93086  35.105  34.606  12.308
28102W        W93087  39.143  37.661   0.349
28103W        W93088   0.041   7.007   0.281
28104W        W93089  22.652   2.355  14.302
28105W        W93090  17.493   7.797  13.788
28106W        W93091  31.770  37.369  13.489
28107W        W93092  36.185  32.267   4.139
28108W        W93093  15.135  21.829   2.541
28109W        W93094   8.206  31.431   4.279
28110W        W93095  31.706  20.214   2.284
28111W        W93096  24.166  44.906  11.082
28112W        W93097  28.510   0.949   3.033
28113W        W93098  18.741  24.918   3.983
28114W        W93099  42.676  27.630   0.332
28115W        W93100  41.225   2.262   1.329
28116W        W93101  21.813   2.978  12.708
28117W        W93102  32.024  34.016  13.164
28118W        W93103  38.426  14.429  12.661
28119W        W93104  38.710  12.182   4.639
28120W        W93105  10.576  35.385   2.214
28121W        W93106  29.420  11.398  13.999
28122W        W93107   1.925  20.224   3.648
28123W        W93108  12.945  25.985  12.470
28124W        W93109   5.163  40.567   1.403
28125W        W93110  21.184  24.730  13.041
28126W        W93111  41.823  40.922  13.540
28127W        W93112  28.521   4.211  12.719
28128W        W93113  30.909  16.102  14.865
28129W        W93114   4.251  28.313  13.479
28130W        W93115   9.939  40.926   4.850
28131W        W93116   7.289  18.255   4.164
28132W        W93117  39.277  15.759   3.647
28133W        W93118  18.579  28.706  12.368
28134W        W93119   9.585  10.316   2.200
28135W        W93120   5.696   9.083  14.994
28136W        W93121  28.129  29.037   0.996
28137W        W93122  29.867   4.832  11.573
28138W        W93123  13.169  23.719   5.064
28139W        W93124  11.434  15.743   0.868
28140W        W93125  37.832  24.566  14.062
28141W        W93126  14.561  20.406  11.098
28142W        W93127  30.135  25.380  13.357
28143W        W93128  41.386   0.045  14.313
28144W        W93129  15.556  10.744   2.631
28145W        W93130  35.596  28.726   1.407
28146W        W93131  14.737  25.586  11.492
28147W        W93132  19.195  35.891   4.117
28148W        W93133  25.175  39.722   3.277
28149W        W93134   6.260  26.675  10.078
28150W        W93135   9.636  31.729   3.416
28151W        W93136  13.705  43.214   4.066
28152W        W93137  20.185  22.742  12.962
28153W        W93138   1.990  10.666  14.353
28154W        W93139   1.281  25.969   4.537
28155W        W93140   4.880   0.322  13.039
28156W        W93141  44.603  44.737   4.795
28157W        W93142  38.128  39.416   4.513
28158W        W93143  17.012  32.108   4.270
28159W        W93144  26.799  44.559   1.785
28160W        W93145  44.935   9.397  13.439
28161W        W93146  40.312  21.481  13.323
28162W        W93147  36.926  42.822  11.187
28163W        W93148  41.108  25.544   0.498
28164W        W93149  15.601  11.089  14.743
28165W        W93150  15.691   6.542  14.232
28166W        W93151  19.710  35.000   3.141
28167W        W93152  15.087   5.658   2.118
28168W        W93153   3.321  19.035   1.218
28169W        W93154   7.689  23.033  11.627
28170W        W93155  40.418   8.684   4.566
28171W        W93156  27.105  44.437   5.810
28172W        W93157  28.982  34.547   3.896
28173W        W93158   4.432  18.535   3.594
28174W        W93159  14.837   6.594   2.692
28175W        W93160  32.304  22.756  11.542
28176W        W93161   1.551  21.493   1.311
28177W        W93162  26.152   4.779   1.404
28178W        W93163  17.716  34.226   0.291
28179W        W93164  23.553  23.020   2.425
28180W        W93165  25.252  36.423  14.048
28181W        W93166  14.634   1.405   2.600
28182W        W93167  11.952   7.066   4.552
28183W        W93168  28.987   8.246   4.934
28184W        W93169  34.020  32.371  13.540
28185W        W93170   2.951   7.201   3.755
28186W        W93171   6.780  10.853   0.499
28187W        W93172  12.972  25.211  10.346
28188W        W93173  16.755  38.605   3.705
28189W        W93174  11.825  32.868  14.462
28190W        W93175  13.857  34.610  13.413
28191W        W93176  17.593  42.044   0.061
28192W        W93177  24.057  28.478  12.596
28193W        W93178  34.201  36.407   2.161
28194W        W93179  27.965  32.063  14.542
28195W        W93180  21.566  24.034   3.688
28196W        W93181  12.785  35.386  12.092
28197W        W93182   3.978  11.684  10.860
28198W        W93183  11.636  32.363   4.107
28199W        W93184   6.041  32.908   4.659
28200W        W93185  26.634  31.173  10.640
28201W        W93186  28.648  37.980  12.844
28202W        W93187  40.585  29.678   3.349
28203W        W93188  23.859  22.734   0.955
28204W        W93189   9.087  33.513  11.186
28205W        W93190   6.805   7.732   3.244
28206W        W93191  19.794   5.733  14.850
28207W        W93192   4.915  12.895  11.563
28208W        W93193   6.858   1.389   2.176
28209W        W93194  44.035  29.201   0.074
28210W        W93195  18.812   9.156   1.758
28211W        W93196  18.109  13.827   0.839
28212W        W93197   5.850  36.012   0.273
28213W        W93198  11.168  34.508  10.751
28214W        W93199  15.605   4.087   2.397
28215W        W93200  43.825  37.890   2.618
28216W        W93201  43.565  36.460   4.006
28217W        W93202  24.501  24.173  11.555
28218W        W93203  27.644  29.871  11.802
28219W        W93204  34.529  30.705  13.888
28220W        W93205   2.943  12.308  14.487
28221W        W93206   3.160   0.376  10.602
28222W        W93207   0.320   6.648  12.027
28223W        W93208  10.355   1.859  14.309
28224W        W93209  40.270  15.477  12.208
28225W        W93210  17.903  20.505  14.862
28226W        W93211   3.405  39.556   1.687
28227W        W93212  28.012  28.365   3.757
28228W        W93213  12.149  26.087  14.694
28229W        W93214  29.854  14.869  12.491
28230W        W93215  18.220  22.437   3.326
28231W        W93216   6.316  18.558  10.971
28232W        W93217  12.040  20.271  12.453
28233W        W93218  40.519  27.230   5.261
28234W        W93219  15.849  27.013  13.798
28235W        W93220   8.255   6.131  13.284
28236W        W93221  28.413   2.627  12.426
28237W        W93222   4.705  23.612  12.114
28238W        W93223  44.617  10.336  12.017
28239W        W93224  38.413  43.220   3.112
28240W        W93225   8.122   0.883  13.325
28241W        W93226  12.319  31.512   4.547
28242W        W93227  10.868   1.250  14.269
28243W        W93228  31.080   2.446   3.655
28244W        W93229   2.211  41.259   1.393
28245W        W93230  30.063  39.078  11.094
28246W        W93231  21.475  21.553   3.762
28247W        W93232  19.577  34.551   2.800
28248W        W93233  29.380  32.025  14.434
28249W        W93234   9.334  18.469  11.153
28250W        W93235  20.188  24.919   3.242
28251W        W93236  37.806  33.549   3.820
28252W        W93237  37.485  21.207   1.339
28253W        W93238  36.876  16.127   4.377
28254W        W93239  23.456  27.742  12.139
28255W        W93240  35.263  15.901  13.024
28256W        W93241   4.429   7.046   1.413
28257W        W93242   2.750  10.753   2.769
28258W        W93243  35.810  29.420   2.273
28259W        W93244  16.597  34.267   0.289
28260W        W93245  11.793   4.326  13.059
28261W        W93246   2.434  25.642  14.093
28262W        W93247  41.961  43.435  11.398
28263W        W93248  41.291   6.180  13.978
28264W        W93249  41.911  12.847  14.819
28265W        W93250  15.074  25.888   5.466
28266W        W93251  34.551  39.834  11.036
28267W        W93252  30.952  23.312   4.493
28268W        W93253   9.771  12.340  12.471
28269W        W93254   5.655  28.126  13.402
28270W        W93255   6.437  36.101  12.098
28271W        W93256   2.252  19.238   0.994
28272W        W93257   8.198  14.531   1.781
28273W        W93258   5.629  39.465   3.384
28274W        W93259   9.183  26.578   2.660
28275W        W93260  24.015  12.378  12.376
28276W        W93261  24.618  40.336  11.020
28277W        W93262  24.727  15.365  12.219
28278W        W93263  15.189  20.531  14.321
28279W        W93264  32.783  44.676  14.129
28280W        W93265   4.861  15.794  10.666
28281W        W93266  43.194  28.918   2.646
28282W        W93267  24.712  18.691   1.285
28283W        W93268  18.530  35.034  14.281
28284W        W93269  39.317  33.925   0.774
28285W        W93270  22.427  26.157   2.328
28286W        W93271  22.967  32.640   4.996
28287W        W93272  44.343   4.717   4.594
28288W        W93273   8.342   8.272  14.828
28289W        W93274   8.915  13.773   0.334
28290W        W93275  25.868  31.107  11.659
28291W        W93276  42.575  25.811   2.387
28292W        W93277  38.894  15.184   2.602
28293W        W93278  35.925  41.834  10.626
28294W        W93279  36.353  19.136  11.188
28295W        W93280  13.777  11.910   0.998
28296W        W93281  29.191  43.807  12.668
28297W        W93282   6.298  11.315   2.186
28298W        W93283  34.472  20.629  11.167
28299W        W93284  38.293  19.620   2.293
28300W        W93285  33.518  21.059   2.266
28301W        W93286  22.672   7.062  14.260
28302W        W93287  38.398  20.262  14.492
28303W        W93288  40.337  28.876   3.074
28304W        W93289  20.560  18.094   0.702
28305W        W93290  18.348  29.113  13.586
28306W        W93291   1.154   2.648  13.930
28307W        W93292  31.857  21.268   4.140
28308W        W93293  37.846  24.522  13.173
28309W        W93294  32.468  11.966  11.560
28310W        W93295  34.510  10.118   2.778
28311W        W93296  34.882   1.942   1.154
28312W        W93297  11.208  17.607  11.996
28313W        W93298  14.368   0.503   0.767
28314W        W93299   2.153   6.313  12.898
28315W        W93300  32.005   0.048  11.746
28316W        W93301   2.228  10.337  12.065
28317W        W93302  10.351   5.214  10.506
28318W        W93303  40.961   2.044  13.968
28319W        W93304  24.021  25.555  12.571
28320W        W93305   3.637  25.921  11.213
28321W        W93306  30.476  21.620   4.365
28322W        W93307  20.702   3.709  12.583
28323W        W93308  23.838  33.086  10.645
28324W        W93309  19.586  30.656   0.635
28325W        W93310  15.089   5.765  13.035
28326W        W93311  29.656  44.877   0.447
28327W        W93312  21.885  24.256   3.229
28328W        W93313  19.241  41.052   2.906
28329W        W93314   9.371   6.361   3.166
28330W        W93315  10.598  44.627  11.236
28331W        W93316  38.591  34.800   2.652
28332W        W93317  20.595  41.835   2.511
28333W        W93318  27.233  27.741  13.173
28334W        W93319  16.183  44.038  12.537
28335W        W93320  11.709  35.117   4.041
28336W        W93321   0.451  28.695   1.741
28337W        W93322  27.029  21.716   3.589
28338W        W93323  14.725  41.235  11.205
28339W        W93324  15.705   7.311   0.796
28340W        W93325  31.355  39.215  12.489
28341W        W93326  16.739  38.949   4.115
28342W        W93327   6.393  30.740  14.489
28343W        W93328   7.399   6.458  12.565
28344W        W93329  11.781  21.214  12.370
28345W        W93330  13.379  10.990   0.654
28346W        W93331  10.357   0.318   1.886
28347W        W93332  24.060   1.553   9.763
28348W        W93333  12.667  12.901   2.312
28349W        W93334  11.464   2.731  11.506
28350W        W93335  35.239  27.193  14.259
28351W        W93336  29.919   6.290   3.557
28352W        W93337  42.957  17.889  13.504
28353W        W93338  35.227  28.237   3.664
28354W        W93339   3.764  37.395  11.249
28355W        W93340  21.206  11.518   4.364
28356W        W93341  28.998  28.909   4.555
28357W        W93342   3.604  44.381  10.889
28358W        W93343  16.565  36.170  13.926
28359W        W93344   4.308  15.904  13.041
28360W        W93345  14.288  14.396   0.864
28361W        W93346  16.209  19.816  13.432
28362W        W93347  30.915   0.238  14.572
28363W        W93348  32.183   8.859  12.368
28364W        W93349  26.527  34.477   0.776
28365W        W93350   8.814  29.938   2.681
28366W        W93351  23.981  23.472  10.759
28367W        W93352  43.853  27.568   1.687
28368W        W93353  37.544  13.068  14.257
28369W        W93354  37.280  19.535   0.423
28370W        W93355  35.820  16.845   2.263
28371W        W93356   0.504  26.268   1.932
28372W        W93357  19.310  38.998  12.852
28373W        W93358  16.869  38.918  11.484
28374W        W93359  19.560   2.255   1.904
28375W        W93360  32.450  24.547   0.741
28376W        W93361   5.933  17.782   0.878
28377W        W93362  42.923  24.096  11.209
28378W        W93363  10.891  17.260  14.221
28379W        W93364  34.677  22.008  12.301
28380W        W93365  39.503  37.548  13.893
28381W        W93366  26.421  29.639   4.255
28382W        W93367  37.531  43.069   0.399
28383W        W93368  43.001  25.945   0.493
28384W        W93369  28.488  12.820  10.552
28385W        W93370  10.747  11.811  11.416
28386W        W93371  17.086  25.390  13.441
28387W        W93372  21.753  25.909   3.691
28388W        W93373  30.532  26.936  12.248
28389W        W93374  12.350  33.474   0.012
28390W        W93375  18.335  25.000  13.388
28391W        W93376  16.390  39.476   3.058
28392W        W93377  15.635  11.010   0.990
28393W        W93378  27.605  37.404  10.589
28394W        W93379   7.271   1.459  12.669
28395W        W93380  22.630   2.773  11.097
28396W        W93381   6.548  23.567  14.399
28397W        W93382  11.218  23.944   3.308
28398W        W93383  31.535   4.393  14.542
28399W        W93384  15.819  17.334   5.003
28400W        W93385   3.529  37.390   0.752
28401W        W93386  12.056  19.459   2.431
28402W        W93387  19.533  18.340   4.459
28403W        W93388  17.611  44.282   2.055
28404W        W93389  32.546  20.485  13.904
28405W        W93390   0.884   2.400  14.922
28406W        W93391  19.736  28.873   2.682
28407W        W93392  15.811  35.984  13.613
28408W        W93393  41.833  40.402   2.727
28409W        W93394  36.602   5.874  13.063
28410W        W93395  15.405  43.903   3.100
28411W        W93396  39.937   6.251   3.331
28412W        W93397  17.722  37.007  13.974
28413W        W93398   8.344  42.454   1.203
28414W        W93399  39.811  31.799   0.572
28415W        W93400  42.696   9.704   1.705
28416W        W93401  13.297  43.533  12.555
28417W        W93402  38.519   1.459  14.724
28418W        W93403  36.399  40.789  13.295
28419W        W93404   1.177  18.014   4.424
28420W        W93405  14.856   9.240   0.913
28421W        W93406  44.730   5.207  11.982
28422W        W93407  36.021  14.023  12.166
28423W        W93408  37.405  43.871  11.891
28424W        W93409  12.835  12.851   0.921
28425W        W93410  40.529  33.122  10.586
28426W        W93411  13.791  19.981   4.559
28427W        W93412  30.535   5.273  10.628
28428W        W93413  40.768  15.723   3.307
28429W        W93414  25.197   2.020  14.888
28430W        W93415   1.127  42.380   1.879
28431W        W93416  27.990  38.182   3.622
28432W        W93417   2.545  25.225   5.121
28433W        W93418  21.973  12.895   2.851
28434W        W93419  25.051  13.106  12.549
28435W        W93420  40.978  23.070  10.934
28436W        W93421   0.760   9.734   2.784
28437W        W93422  24.995  25.901  12.893
28438W        W93423   3.929  28.239   3.259
28439W        W93424  30.857  33.519  10.615
28440W        W93425  44.845  14.570  12.410
28441W        W93426  19.484  28.560   5.061
28442W        W93427  44.362   1.491   4.140
28443W        W93428   1.348   6.663  12.577
28444W        W93429  29.160  23.065   3.721
28445W        W93430  15.724  42.114  14.527
28446W        W93431  24.285   8.858   0.699
28447W        W93432  32.679  35.923   4.541
28448W        W93433  20.313   3.107   1.055
28449W        W93434  20.153  23.726   4.658
28450W        W93435  13.865   2.154  11.654
28451W        W93436  32.957  42.473   2.849
28452W        W93437  34.623  25.460   0.879
28453W        W93438  37.427  22.320  14.388
28454W        W93439  18.658   2.524   1.490
28455W        W93440  20.899   8.858   4.959
28456W        W93441  25.157  38.910  11.027
28457W        W93442  10.703  29.149  13.359
28458W        W93443  35.541  31.475   2.114
28459W        W93444  41.813   5.128   2.734
28460W        W93445  42.108  14.633   5.154
28461W        W93446  44.591  17.554  13.867
28462W        W93447  30.853  27.107   4.715
28463W        W93448   2.773  29.516  14.384
28464W        W93449  20.246  19.561   3.155
28465W        W93450  16.721  33.137  13.113
28466W        W93451  16.794   3.207  13.465
28467W        W93452  30.709  44.782  14.744
28468W        W93453  34.609  15.067  10.780
28469W        W93454  14.744   8.147   1.441
28470W        W93455  27.211  21.958  13.373
28471W        W93456  25.085  39.040   2.702
28472W        W93457  32.362  25.127   4.780
28473W        W93458  27.481  11.734   4.351
28474W        W93459  11.100  27.451   3.664
28475W        W93460  21.706  41.727  11.098
28476W        W93461  26.031  29.694   2.669
28477W        W93462  25.478  41.693  10.714
28478W        W93463  21.196  37.108   0.306
28479W        W93464  23.478   4.253   2.870
28480W        W93465   8.746  33.957  13.939
28481W        W93466  19.596  14.274   0.358
28482W        W93467  29.227  14.810   1.683
28483W        W93468   2.051  11.123   3.096
28484W        W93469   0.046  32.957   2.729
28485W        W93470  36.007  27.502   3.345
28486W        W93471  17.599   9.448  10.257
28487W        W93472  21.929  40.394   2.332
28488W        W93473  13.856  16.577   2.545
28489W        W93474  40.070   2.672  12.191
28490W        W93475  14.189  33.876   0.971
28491W        W93476   7.129  43.101  12.461
28492W        W93477  36.914  17.137  12.448
28493W        W93478  35.736  32.517   3.444
28494W        W93479  30.469  30.963   3.705
28495W        W93480  23.735  25.456  10.701
28496W        W93481  30.477   4.894   4.073
28497W        W93482  30.572  19.313   3.173
28498W        W93483   1.786   5.108  13.556
28499W        W93484  39.748  30.746  11.005
28500W        W93485  36.602   2.343   1.243
28501W        W93486  10.759  13.108   4.060
28502W        W93487   5.658  24.466  11.184
28503W        W93488  32.200   7.801  11.177
28504W        W93489  33.841  20.653  13.428
28505W        W93490  43.204   2.573  11.027
28506W        W93491  12.890  18.625   1.232
28507W        W93492  24.715  28.603  13.932
28508W        W93493  25.511   6.189  11.562
28509W        W93494  30.933   9.862   0.696
28510W        W93495   1.749  40.528  11.547
28511W        W93496  14.468  27.875   1.862
28512W        W93497   2.753  22.753   4.150
28513W        W93498   9.516  27.938  11.948
28514W        W93499  40.384  34.141   0.042
28515W        W93500  16.696  19.192   0.737
28516W        W93501  20.152   3.509   9.962
28517W        W93502   5.356  20.754  12.438
28518W        W93503   4.736  38.165  11.536
28519W        W93504  16.331   9.785   3.273
28520W        W93505  34.663  12.299   3.527
28521W        W93506  19.070   0.782   1.190
28522W        W93507   4.881   9.385  11.832
28523W        W93508   5.285   4.959   4.129
28524W        W93509   5.270  25.626   4.600
28525W        W93510  14.687  39.593  13.489
28526W        W93511  24.298  24.931  11.226
28527W        W93512  19.382   9.125  12.514
28528W        W93513  22.995   3.073  14.526
28529W        W93514  26.111  29.872  13.474
28530W        W93515  43.435  14.374   1.122
28531W        W93516  31.000  10.516  14.091
28532W        W93517  14.851  18.253   1.458
28533W        W93518  19.666   8.767   4.741
28534W        W93519   7.645   8.890   1.518
28535W        W93520  36.923   8.910   3.689
28536W        W93521  18.348   1.953   3.250
28537W        W93522  24.118   4.023  11.864
28538W        W93523  31.827  29.380  13.757
28539W        W93524  22.539  25.994   4.104
28540W        W93525   1.356  17.867   0.764
28541W        W93526  25.957  22.010   4.324
28542W        W93527   1.305   5.149  14.219
28543W        W93528  18.784  18.029   4.354
28544W        W93529   6.913   5.681   0.850
28545W        W93530  11.696  24.445   3.120
28546W        W93531  32.082   6.207  13.948
28547W        W93532  41.005   2.056  13.010
28548W        W93533  39.509  23.937  11.076
28549W        W93534  41.801  24.983   2.090
28550W        W93535   1.211  15.149  14.446
28551W        W93536   5.166  20.670   0.793
28552W        W93537   6.663  17.603   4.614
28553W        W93538  39.086  15.892  14.998
28554W        W93539  16.548   2.143  12.783
28555W        W93540  30.951  35.472  14.555
28556W        W93541  19.341   6.959  11.245
28557W        W93542  30.500  11.642   2.835
28558W        W93543  11.654  43.995   1.189
28559W        W93544   1.029  11.067  13.050
28560W        W93545   9.436   8.818   4.198
28561W        W93546  20.132  34.101  11.017
28562W        W93547  28.419   9.300   2.111
28563W        W93548  42.750  34.048   2.337
28564W        W93549  29.797  11.127  12.418
28565W        W93550   1.043   0.399   0.330
28566W        W93551  23.905  27.522   4.543
28567W        W93552  33.610  44.134   3.647
28568W        W93553  43.167  13.651  13.918
28569W        W93554  13.420  42.428  14.793
28570W        W93555  36.162   1.713   3.622
28571W        W93556  25.575  42.976   0.049
28572W        W93557   7.110   6.706   2.179
28573W        W93558  43.578  26.718   0.748
28574W        W93559   6.704  39.080   2.809
28575W        W93560  29.163  18.243  14.812
28576W        W93561   2.683  11.841  14.438
28577W        W93562  15.622  27.826  14.979
28578W        W93563  43.140  27.432  10.710
28579W        W93564  33.102  28.614  13.378
28580W        W93565  37.525  34.262  14.987
28581W        W93566   2.504  29.557   3.168
28582W        W93567   0.988  24.417  12.063
28583W        W93568  32.054  33.854   1.752
28584W        W93569   2.214  44.844   0.019
28585W        W93570  26.119  21.177  12.419
28586W        W93571  27.124   6.311  11.226
28587W        W93572  18.260  26.412   4.757
28588W        W93573  21.398  10.238   2.741
28589W        W93574  10.786  40.921   2.698
28590W        W93575  29.144  39.552   1.841
28591W        W93576  32.794   3.878   2.402
28592W        W93577  17.795  41.745  14.108
28593W        W93578  24.709  23.043  10.817
28594W        W93579  23.009   0.810  10.766
28595W        W93580  10.466  21.966   3.646
28596W        W93581  11.572  31.383  13.240
28597W        W93582   8.360  22.526   1.409
28598W        W93583  14.689  42.945   0.360
28599W        W93584  34.473  30.136   2.945
28600W        W93585   9.505   7.851  13.313
28601W        W93586  16.945  29.906  14.861
28602W        W93587   5.738  38.547   2.170
28603W        W93588   9.921   7.380  10.965
28604W        W93589  34.624  17.087  10.697
28605W        W93590  14.664  12.348   0.249
28606W        W93591  38.456  35.316   1.630
28607W        W93592   6.683  16.634   0.902
28608W        W93593  34.924  33.657   0.793
28609W        W93594   1.064   4.860  12.775
28610W        W93595   4.233  44.263   2.760
28611W        W93596  19.512  13.028   2.676
28612W        W93597  36.996  12.322   4.694
28613W        W93598  23.799   2.288  13.286
28614W        W93599  22.234   2.012   4.985
28615W        W93600  28.332  40.471   3.338
28616W        W93601  24.001  32.507   1.772
28617W        W93602  30.465  38.853  14.625
28618W        W93603   1.860  10.265   0.569
28619W        W93604   2.207  18.011  11.830
28620W        W93605  32.960  16.329  13.867
28621W        W93606  18.980  22.371  13.379
28622W        W93607  19.555  44.949  10.953
28623W        W93608   9.336   0.738  14.753
28624W        W93609  43.557  41.872  11.961
28625W        W93610  16.789  40.932   4.779
28626W        W93611  24.588  37.010   2.018
28627W        W93612   3.859  44.496  14.924
28628W        W93613  25.769   6.908   1.786
28629W        W93614  41.202  12.852   0.831
28630W        W93615   7.209  31.012   1.584
28631W        W93616   2.639  15.957   4.269
28632W        W93617  33.128  15.028   0.300
28633W        W93618  42.676  14.628  12.938
28634W        W93619  20.256  12.303   1.898
28635W        W93620  38.946  40.819   2.734
28636W        W93621  30.094   4.458   4.699
28637W        W93622  23.125  36.214   4.806
28638W        W93623  36.129  13.242   2.394
28639W        W93624  40.635  35.799   2.418
28640W        W93625   6.392  34.294  12.494
28641W        W93626  22.174  24.601  10.285
28642W        W93627  21.714  32.049  12.465
28643W        W93628  21.295  18.986  14.913
28644W        W93629  30.115  15.355  10.832
28645W        W93630   2.427  34.186   3.284
28646W        W93631  26.344   0.602   5.060
28647W        W93632  15.592  17.532  13.910
28648W        W93633  17.823  33.839   3.140
28649W        W93634  34.340   8.530   2.753
28650W        W93635  34.694  11.686  12.000
28651W        W93636  40.017  37.060  14.366
28652W        W93637  24.586   9.672  14.810
28653W        W93638  18.671  42.376   1.425
28654W        W93639  28.534   9.185  14.430
28655W        W93640   8.721  30.128   0.373
28656W        W93641  14.231   5.660   1.718
28657W        W93642  38.922   3.695  10.370
28658W        W93643   5.366  15.106  11.993
28659W        W93644   1.332   4.073   0.957
28660W        W93645   6.589   9.896  12.031
28661W        W93646   2.225  38.793  14.274
28662W        W93647  15.221  25.180  13.329
28663W        W93648   6.490  17.644   1.844
28664W        W93649   2.816   1.660  13.567
28665W        W93650  30.611  24.670  13.463
28666W        W93651   2.226  35.972  12.027
28667W        W93652  35.692  22.680  13.367
28668W        W93653   9.347  31.126   4.449
28669W        W93654  27.649  25.166  14.593
28670W        W93655  31.852  25.599  13.584
28671W        W93656  11.332   2.397   3.440
28672W        W93657  34.891   8.073  12.989
28673W        W93658  24.253  25.934  12.300
28674W        W93659  40.512  18.274   0.987
28675W        W93660   5.441  41.367   0.678
28676W        W93661   4.709  24.737   0.902
28677W        W93662  34.023   3.393   4.360
28678W        W93663  11.316  40.068   3.707
28679W        W93664  11.678  10.800  12.820
28680W        W93665  28.847  21.376  12.526
28681W        W93666  13.391   8.889  14.255
28682W        W93667  26.231   0.760  11.518
28683W        W93668  17.034  37.030  12.810
28684W        W93669  32.457  25.489  10.487
28685W        W93670  10.184  26.932  14.454
28686W        W93671   9.321  22.368  13.404
28687W        W93672  40.920  35.009  12.830
28688W        W93673  29.562  25.509   0.060
28689W        W93674  44.933   6.344  11.853
28690W        W93675  19.781  34.487  11.093
28691W        W93676   1.781  20.197   3.153
28692W        W93677   7.387  43.251   0.761
28693W        W93678  20.208  37.795   3.839
28694W        W93679  28.625  10.511  10.541
28695W        W93680  17.903  39.046  12.925
28696W        W93681  25.736  30.954  13.924
28697W        W93682  39.511  44.731   4.596
28698W        W93683   0.414   3.786  12.567
28699W        W93684  29.209  11.736  10.410
28700W        W93685  36.876   4.704   3.602
28701W        W93686  40.415  24.479  10.831
28702W        W93687   4.155  19.648  11.619
28703W        W93688  20.693  39.673   2.787
28704W        W93689  15.296  19.625   0.229
28705W        W93690  41.628  32.610   5.232
28706W        W93691   8.414  12.360  14.341
28707W        W93692  36.455  25.663  11.901
28708W        W93693  31.595  26.897  14.759
28709W        W93694  12.735   9.944   3.202
28710W        W93695   0.659  29.850   0.957
28711W        W93696  28.541  38.479   2.672
28712W        W93697  39.372  30.029  14.108
28713W        W93698  12.691  34.021  10.835
28714W        W93699  36.973  20.529  14.346
28715W        W93700   1.080  16.755   4.234
28716W        W93701  23.520  37.847  14.525
28717W        W93702  19.913  29.802   3.163
28718W        W93703   8.236  23.228   1.723
28719W        W93704  34.707   6.960   1.704
28720W        W93705  18.137   5.971  14.409
28721W        W93706  38.322  15.784  11.840
28722W        W93707   2.835  19.792  14.073
28723W        W93708  13.751   6.255  11.061
28724W        W93709  24.452  11.709   3.329
28725W        W93710  32.847  40.996   4.088
28726W        W93711  25.239  14.485  11.717
28727W        W93712   8.785   8.377  11.057
28728W        W93713  37.236  34.640  14.791
28729W        W93714  27.505  24.571  11.690
28730W        W93715  17.797  40.315   0.292
28731W        W93716  36.772  12.636  14.455
28732W        W93717  33.524  18.483   4.095
28733W        W93718   9.825   5.945  13.074
28734W        W93719  27.568  21.726   4.674
28735W        W93720  30.698  18.523  14.416
28736W        W93721  15.781  34.501  14.470
28737W        W93722  16.458  21.952   9.269
28738W        W93723  18.104  40.158  12.636
28739W        W93724  29.521  24.679  10.702
28740W        W93725  22.676  16.389   2.270
28741W        W93726  13.393  18.186  11.618
28742W        W93727  44.994  20.938  13.543
28743W        W93728   5.404  21.328   1.280
28744W        W93729  15.509   4.305  12.338
28745W        W93730  24.156  43.302   3.558
28746W        W93731  36.458  35.151   2.877
28747W        W93732  15.307  33.939  13.376
28748W        W93733  21.218   6.193   2.768
28749W        W93734  37.474  37.528  14.405
28750W        W93735  33.147  29.759  11.699
28751W        W93736   7.930   1.276   0.538
28752W        W93737  42.861  10.257  10.678
28753W        W93738   3.306  10.365   2.127
28754W        W93739  44.284   7.324   3.014
28755W        W93740   6.649  35.426   4.420
28756W        W93741  37.811   8.430   2.821
28757W        W93742  28.621  16.763   3.048
28758W        W93743  10.818  12.759  14.536
28759W        W93744   5.835  10.577   2.465
28760W        W93745  36.897   8.810   0.250
28761W        W93746  42.469  24.873   3.324
28762W        W93747  42.963   7.690  11.982
28763W        W93748  12.282  22.009  11.937
28764W        W93749  22.946   6.789  13.878
28765W        W93750  39.732  17.110  11.950
28766W        W93751   2.400  33.959  14.053
28767W        W93752  24.815  43.350  14.103
28768W        W93753  44.127   1.984   4.967
28769W        W93754  36.550  21.284   0.391
28770W        W93755  27.089   4.349   3.793
28771W        W93756  28.320  10.386  13.437
28772W        W93757   2.251  14.819  10.686
28773W        W93758  27.500  42.523  11.842
28774W        W93759  36.595  26.817  10.009
28775W        W93760  43.366  39.240   2.723
28776W        W93761   4.376  29.665  12.987
28777W        W93762   4.732  21.153  13.049
28778W        W93763  34.040  12.171  10.825
28779W        W93764  18.752  18.712   0.968
28780W        W93765   2.237  29.767   1.475
28781W        W93766  20.680  40.476   3.276
28782W        W93767  44.646  24.651   2.627
28783W        W93768   3.760  14.509  11.087
28784W        W93769  19.318  23.914  10.244
28785W        W93770  16.179   9.416  13.547
28786W        W93771  34.158   5.599  14.892
28787W        W93772  33.508   3.452  13.888
28788W        W93773   2.515  42.822  11.595
28789W        W93774  36.398   0.316   4.664
28790W        W93775  13.812   4.902  12.055
28791W        W93776  39.823  14.826  13.966
28792W        W93777  14.201  23.070   0.394
28793W        W93778  32.991  16.182   3.031
28794W        W93779  29.978   8.218  13.433
28795W        W93780  18.412  28.745   5.047
28796W        W93781  27.752  44.888   1.393
28797W        W93782  10.625  24.294   0.840
28798W        W93783   0.652  17.276   2.283
28799W        W93784  42.484   2.332   0.858
28800W        W93785  19.630  42.598  10.793
28801W        W93786  43.862   0.688   0.263
28802W        W93787  31.599   6.996   4.588
28803W        W93788  38.068  10.176  13.254
28804W        W93789  22.701  27.594  13.896
28805W        W93790  28.726  22.601  13.931
28806W        W93791  17.129  33.388  13.337
28807W        W93792  27.931  30.055  14.448
28808W        W93793  36.095   1.076  11.181
28809W        W93794  17.156  41.487  12.068
28810W        W93795  13.634  41.759   1.986
28811W        W93796  10.346  26.065   0.417
28812W        W93797  37.378  31.565   1.391
28813W        W93798   7.696   0.263  14.936
28814W        W93799  39.947   0.477  13.321
28815W        W93800  33.073  14.023   1.257
28816W        W93801  44.038  13.246   1.362
28817W        W93802  10.841  21.718   3.347
28818W        W93803  38.294  38.480  13.790
28819W        W93804  43.943  39.992   1.472
28820W        W93805  28.648  26.191  13.270
28821W        W93806  35.489  27.013   0.412
28822W        W93807  10.166  24.565   2.298
28823W        W93808  23.086  28.834  11.482
28824W        W93809  43.945   4.817   1.443
28825W        W93810   2.531  12.368  13.765
28826W        W93811   2.468  31.689   4.418
28827W        W93812   3.714  26.359   0.823
28828W        W93813  31.361  41.579   4.603
28829W        W93814  28.436  13.787   4.529
28830W        W93815  33.478  36.419  14.815
28831W        W93816  26.948  38.428  12.843
28832W        W93817  26.041  16.311   1.659
28833W        W93818  44.385  18.193   1.802
28834W        W93819   8.750   9.790  12.564
28835W        W93820  37.815  22.663   3.255
28836W        W93821  20.223  14.453   4.418
28837W        W93822  43.431  27.657   0.046
28838W        W93823  32.189  15.394  12.469
28839W        W93824  36.034  15.244  12.887
28840W        W93825  15.273   6.761  12.367
28841W        W93826  40.380   6.477  12.108
28842W        W93827  44.844  24.244   0.465
28843W        W93828  27.777  18.320   2.848
28844W        W93829   1.174  18.526   0.185
28845W        W93830  37.332  36.537   3.241
28846W        W93831  30.657   4.808  12.514
28847W        W93832  16.323  34.574   4.086
28848W        W93833  39.515  39.773   2.825
28849W        W93834  30.909  44.110   4.471
28850W        W93835  42.393   8.753   2.153
28851W        W93836  35.141  44.025   1.021
28852W        W93837  33.146  36.438  11.612
28853W        W93838  29.374  44.426   4.334
28854W        W93839  29.785  16.765  13.573
28855W        W93840   5.805  36.170   2.904
28856W        W93841  17.151  32.600   4.600
28857W        W93842   3.844  27.382  14.374
28858W        W93843  32.082   7.719  13.903
28859W        W93844  32.419  12.580  14.085
28860W        W93845  13.143  43.825   1.269
28861W        W93846  26.915  33.228  11.507
28862W        W93847   1.787  11.793   3.305
28863W        W93848  44.565  20.513   2.363
28864W        W93849   9.442  10.366  13.984
28865W        W93850  18.759  23.507  12.442
28866W        W93851   6.623  15.644  13.490
28867W        W93852  25.673  22.030  13.374
28868W        W93853  43.348  20.303   1.374
28869W        W93854  23.688  41.061   2.212
28870W        W93855  37.577  34.636   3.366
28871W        W93856  29.123   7.414  14.734
28872W        W93857  17.414  21.680  10.932
28873W        W93858  37.844  22.775   2.718
28874W        W93859  14.793  13.211  14.512
28875W        W93860  38.743  11.236  11.230
28876W        W93861   7.091   9.815  11.986
28877W        W93862  44.341   7.207  11.793
28878W        W93863  22.738  33.731  11.523
28879W        W93864  24.453  26.454  11.238
28880W        W93865  21.207  36.064   0.157
28881W        W93866   6.553  32.712  14.782
28882W        W93867  12.141  27.197   2.740
28883W        W93868  24.706  13.166  14.373
28884W        W93869  29.016  19.025  12.575
28885W        W93870  11.548   1.426   2.859
28886W        W93871   7.112  39.032   3.991
28887W        W93872  33.063  24.130  13.576
28888W        W93873  25.057  13.066  11.203
28889W        W93874  35.365  32.575   4.386
28890W        W93875  42.607   5.936   1.765
28891W        W93876   8.672   7.615  14.990
28892W        W93877  16.900  20.674   4.770
28893W        W93878  16.224  37.520   3.705
28894W        W93879  37.289  43.464  11.544
28895W        W93880   6.174   0.269   0.045
28896W        W93881  19.659  40.651   2.790
28897W        W93882  34.151  19.139   4.574
28898W        W93883  11.899  43.966  12.985
28899W        W93884  37.363   8.685   2.852
28900W        W93885  39.103  17.967   1.227
28901W        W93886  44.317   9.617  11.575
28902W        W93887  29.571  34.908  13.370
28903W        W93888  36.891   4.423  13.485
28904W        W93889  23.790  11.323  14.320
28905W        W93890  20.336  39.281  11.171
28906W        W93891  32.396   1.653  14.772
28907W        W93892  24.658  15.332   0.987
28908W        W93893  28.122   3.808   1.977
28909W        W93894  14.308  41.924   0.383
28910W        W93895  10.591  27.527   3.673
28911W        W93896  22.489  21.759   3.704
28912W        W93897  20.052   2.117   0.764
28913W        W93898  38.612   8.712  12.167
28914W        W93899  24.181   3.015  11.979
28915W        W93900  16.415  20.828   4.894
28916W        W93901   2.015  41.921   4.815
28917W        W93902  38.802   6.941  12.104
28918W        W93903  44.504  15.261   3.683
28919W        W93904  39.150  14.109   1.693
28920W        W93905  29.898   7.282  13.366
28921W        W93906  40.957  24.100   1.338
28922W        W93907  15.129  23.952  12.099
28923W        W93908  41.433  35.987   0.840
28924W        W93909  23.107  44.676  14.658
28925W        W93910   5.629  28.619  13.293
28926W        W93911  38.504  10.240  13.995
28927W        W93912  33.624  22.139  12.855
28928W        W93913  11.429  23.098   4.344
28929W        W93914   8.630   5.280  13.556
28930W        W93915  34.684  21.598   1.419
28931W        W93916  40.672  29.070  11.290
28932W        W93917  26.426  18.544  14.368
28933W        W93918  36.563  19.384  12.357
28934W        W93919   5.280  31.480   1.653
28935W        W93920  23.121   7.265   2.383
28936W        W93921   8.892  38.989  14.084
28937W        W93922  21.642  14.846   4.214
28938W        W93923  37.954  17.056   0.020
28939W        W93924  34.126   0.869  12.009
28940W        W93925   1.358  26.704   2.928
28941W        W93926  22.036  30.057  13.043
28942W        W93927  31.006  44.319   3.486
28943W        W93928  14.086   7.794  13.082
28944W        W93929  18.993   1.760  12.048
28945W        W93930  20.539  37.573   4.166
28946W        W93931  39.166  19.747  11.136
28947W        W93932   3.239   0.506  14.594
28948W        W93933  34.065  30.421  13.859
28949W        W93934  35.188  30.917   4.861
28950W        W93935  28.535  15.057   4.122
28951W        W93936   0.294  42.299   1.457
28952W        W93937  10.643  25.621   3.745
28953W        W93938  10.720  30.971   4.571
28954W        W93939  32.086  18.541   1.865
28955W        W93940  12.552  16.743  13.997
28956W        W93941   9.618  29.488  11.901
28957W        W93942  20.324  25.897   1.811
28958W        W93943  31.056   9.402   0.867
28959W        W93944  38.297  35.937  11.728
28960W        W93945   2.792  11.396   1.709
28961W        W93946  40.551  43.582   0.992
28962W        W93947   7.417  39.071  11.845
28963W        W93948  16.806  41.804  13.924
28964W        W93949   3.673  12.820   2.179
28965W        W93950  13.674  21.250  13.629
28966W        W93951  11.253  29.704  13.556
28967W        W93952  17.074  36.606  12.482
28968W        W93953  21.655  20.856  14.907
28969W        W93954  41.482  41.241   1.875
28970W        W93955   9.124   8.781  11.213
28971W        W93956  35.256  35.417   4.559
28972W        W93957  14.182   5.988   2.114
28973W        W93958  44.744  30.214   3.231
28974W        W93959   5.926  11.163  11.694
28975W        W93960   8.621  25.783   0.011
28976W        W93961  13.801  33.648  13.449
28977W        W93962   2.214  20.110   4.658
28978W        W93963   1.546   8.651  14.442
28979W        W93964  23.572  38.082  14.983
28980W        W93965  21.667  18.893   9.689
28981W        W93966   3.111  14.189  10.682
28982W        W93967  27.469  43.617   1.663
28983W        W93968  19.333  13.799   2.210
28984W        W93969  11.889  40.810   1.312
28985W        W93970  41.273  19.091  12.140
28986W        W93971  11.633  13.785  12.969
28987W        W93972  33.697  26.207   4.918
28988W        W93973  19.531   1.845  11.219
28989W        W93974   1.982  14.637   0.314
28990W        W93975  44.333   3.001  14.747
28991W        W93976  33.168  13.457  12.523
28992W        W93977  36.616   3.248   1.241
28993W        W93978  21.598  28.119  14.102
28994W        W93979  25.715  20.901   4.478
28995W        W93980  31.084  11.095   3.527
28996W        W93981  16.914   4.877   1.785
28997W        W93982  15.671  11.910  12.912
28998W        W93983  16.259  10.837  14.341
28999W        W93984  30.913  17.692   4.380
29000W        W93985   2.141  43.876   2.286
29001W        W93986   1.898  29.814  12.529
29002W        W93987  43.305  14.358  13.490
29003W        W93988  10.091   8.036   4.970
29004W        W93989  10.252   2.742   4.582
29005W        W93990  21.625  33.958  13.917
29006W        W93991  14.279  10.651   0.973
29007W        W93992   7.342  19.529   3.127
29008W        W93993  26.618  19.130   0.728
29009W        W93994  25.598  16.049  13.078
29010W        W93995  29.325   9.049   2.356
29011W        W93996   2.921   0.197  14.333
29012W        W93997   7.075  40.405   3.866
29013W        W93998   0.765   9.217  11.498
29014W        W93999  15.077  13.069   2.685
29015W        W94000  18.142  27.883   2.016
29016W        W94001  29.665  12.176   3.392
29017W        W94002   8.795  16.192  13.145
29018W        W94003  40.177  17.435   9.583
29019W        W94004   0.852  39.616   1.381
29020W        W94005  29.195  17.749   3.051
29021W        W94006  34.789   1.977  14.278
29022W        W94007   2.340  27.881   0.404
29023W        W94008  39.385  30.441  13.789
29024W        W94009  41.735  31.028   0.103
29025W        W94010  39.843  13.833  12.997
29026W        W94011   4.591   0.052   3.484
29027W        W94012  15.873  16.679   3.226
29028W        W94013   7.310   3.330   0.805
29029W        W94014  22.997  42.048  11.066
29030W        W94015  11.210  38.984  12.769
29031W        W94016  29.084  33.829   2.146
29032W        W94017  40.596  16.141  11.060
29033W        W94018  41.932  13.638   1.885
29034W        W94019  30.028  26.497   0.920
29035W        W94020   8.906  24.498  14.574
29036W        W94021  41.453  12.594  14.912
29037W        W94022  36.543  20.917   2.737
29038W        W94023   0.128   6.319  10.608
29039W        W94024   2.230  14.410  12.035
29040W        W94025  22.573  22.757  10.941
29041W        W94026  40.278  27.973   0.439
29042W        W94027  21.732  29.362   2.778
29043W        W94028   6.399  12.956  12.089
29044W        W94029   4.150  19.088   4.020
29045W        W94030  39.173  31.562   0.785
29046W        W94031   3.332  34.877  12.002
29047W        W94032  27.946  21.036   4.370
29048W        W94033  24.930  44.600   1.189
29049W        W94034  35.632  29.118   0.981
29050W        W94035   6.371  10.592  12.781
29051W        W94036  25.399  10.879  11.996
29052W        W94037  16.016  42.530   3.937
29053W        W94038  36.190  44.995   3.135
29054W        W94039  28.452  15.802   0.739
29055W        W94040  43.971  24.055  12.929
29056W        W94041   6.162  30.438   2.269
29057W        W94042  15.250  34.542  10.719
29058W        W94043  13.530  43.873   4.598
29059W        W94044  24.587   9.872   4.363
29060W        W94045  12.807  21.281   4.203
29061W        W94046  44.671  27.625  14.254
29062W        W94047  26.942  39.345   3.786
29063W        W94048  25.181  29.814  12.451
29064W        W94049   1.093  10.610  12.810
29065W        W94050  18.330  41.225   1.451
29066W        W94051   4.396   6.512   2.740
29067W        W94052  42.888  37.550   2.736
29068W        W94053  10.737  23.030  14.883
29069W        W94054  11.622  20.770  13.536
29070W        W94055   5.897  32.554   1.803
29071W        W94056   6.133  43.781  13.512
29072W        W94057  37.812  12.548  14.403
29073W        W94058  36.488  37.891  13.087
29074W        W94059  31.481  32.518  13.326
29075W        W94060  38.081  20.370   4.199
29076W        W94061  30.281  39.806  13.000
29077W        W94062  21.589  15.187  12.091
29078W        W94063  29.080  30.693   0.295
29079W        W94064  38.951  18.050  13.014
29080W        W94065  33.667  19.265   3.406
29081W        W94066  20.625   6.205  12.629
29082W        W94067  35.267  38.332  14.968
29083W        W94068  42.466  40.824  12.167
29084W        W94069  23.636  14.686   2.219
29085W        W94070   6.083   5.250   3.143
29086W        W94071  24.526  10.078  10.013
29087W        W94072  10.256  22.107   0.889
29088W        W94073  32.475  38.453  13.492
29089W        W94074   3.757   3.659  12.857
29090W        W94075   3.973   0.437  12.043
29091W        W94076  20.713  20.554  13.097
29092W        W94077  32.415   6.835  11.577
29093W        W94078  34.571  16.553  10.749
29094W        W94079  19.158  19.959  12.592
29095W        W94080  44.502  36.705   0.330
29096W        W94081  15.243   9.954   0.369
29097W        W94082   8.717  17.879  14.475
29098W        W94083   8.330   4.308   4.084
29099W        W94084   8.750   0.217  12.492
29100W        W94085   9.655  22.614  11.935
29101W        W94086  40.264  36.713   0.347
29102W        W94087  44.359  26.706  12.981
29103W        W94088  43.572   5.319   1.671
29104W        W94089  42.070  12.780  12.218
29105W        W94090   0.835  10.825   2.819
29106W        W94091  37.497   2.195  13.614
29107W        W94092  27.250  37.998  12.388
29108W        W94093   6.144  12.786  10.380
29109W        W94094  10.065   4.181   3.425
29110W        W94095   6.348  35.288  12.492
29111W        W94096  17.322  44.568  11.712
29112W        W94097   6.221  12.128   4.117
29113W        W94098  30.480   0.379  12.628
29114W        W94099  42.195  22.600  14.332
29115W        W94100  14.737   6.775   1.272
29116W        W94101  24.326  10.049   4.786
29117W        W94102   8.227  22.988  13.328
29118W        W94103  37.996   2.277  12.208
29119W        W94104  23.696  23.922   2.507
29120W        W94105   2.385  23.467  13.503
29121W        W94106  40.057  16.160  12.965
29122W        W94107  17.006  14.240   2.316
29123W        W94108  26.327  14.102  13.485
29124W        W94109  17.543  12.876   3.620
29125W        W94110  41.549  39.376   0.869
29126W        W94111  44.031  25.236  11.076
29127W        W94112  11.353  23.226  13.028
29128W        W94113  38.408  20.457   1.318
29129W        W94114  11.065  33.056  12.028
29130W        W94115  15.717  44.889  13.912
29131W        W94116  12.892  11.195  14.794
29132W        W94117  42.461  19.584  13.718
29133W        W94118  35.615  35.048  14.909
29134W        W94119  20.579  39.012   2.218
29135W        W94120  20.697  16.487   4.751
29136W        W94121  18.165   0.831   3.638
29137W        W94122  36.698  21.230  13.880
29138W        W94123  19.389  19.296   2.639
29139W        W94124  26.479  16.312  10.940
29140W        W94125   0.361   6.146  12.062
29141W        W94126   1.973  24.211   4.480
29142W        W94127  35.886  22.989  12.922
29143W        W94128  42.379   3.674   1.089
29144W        W94129   2.448  24.369   1.779
29145W        W94130   6.941  43.212  14.006
29146W        W94131  14.863  25.393   3.254
29147W        W94132  11.635  32.369   3.091
29148W        W94133  37.521  41.827   2.421
29149W        W94134  24.730   9.428   4.068
29150W        W94135   5.892   8.055  14.752
29151W        W94136  13.035  12.832  14.314
29152W        W94137  24.202  36.987  11.250
29153W        W94138   8.092   8.450  12.904
29154W        W94139  17.004  15.061  12.099
29155W        W94140   8.370  41.962   3.878
29156W        W94141  43.168  18.670   4.953
29157W        W94142  30.664  37.962   2.858
29158W        W94143  35.000  38.088   0.899
29159W        W94144  19.145  30.272   1.829
29160W        W94145  29.167   1.351   4.608
29161W        W94146  34.339  32.376  12.902
29162W        W94147   8.585  37.794  13.892
29163W        W94148  14.677  33.198  14.933
29164W        W94149  35.100   1.798   3.750
29165W        W94150  19.641  10.926  11.230
29166W        W94151  29.427   6.194   3.411
29167W        W94152  43.962   7.880  13.479
29168W        W94153  35.107   6.945  11.339
29169W        W94154   7.946  24.798  10.790
29170W        W94155  33.203  14.121   0.319
29171W        W94156  34.770  12.722  11.069
29172W        W94157  36.342   9.274  10.274
29173W        W94158  23.253  29.852  11.626
29174W        W94159  14.038  17.115  12.542
29175W        W94160  36.954   7.569   3.212
29176W        W94161  27.218  31.058   3.598
29177W        W94162  32.876  30.366   4.647
29178W        W94163  28.614  34.084   4.475
29179W        W94164   1.250  23.566   1.588
29180W        W94165  15.843   2.506   1.348
29181W        W94166  43.100   9.216  12.863
29182W        W94167   5.638  12.530  11.260
29183W        W94168  13.620  31.137  12.918
29184W        W94169  13.484  30.149  13.382
29185W        W94170  35.096  13.320   2.199
29186W        W94171   0.779  16.282  13.500
29187W        W94172  20.224   0.586  11.555
29188W        W94173  32.774  39.498  12.425
29189W        W94174  22.038  34.293  13.890
29190W        W94175   5.598  21.999  11.558
29191W        W94176  43.255  35.428  14.907
29192W        W94177  34.422  29.861  11.515
29193W        W94178   5.659  15.691   3.001
29194W        W94179  23.638   9.637  13.760
29195W        W94180  34.566  24.439   0.532
29196W        W94181  23.724  36.844  13.795
29197W        W94182  20.468   3.445  12.961
29198W        W94183   6.884  13.314   4.129
29199W        W94184  21.406  27.567   1.710
29200W        W94185  17.101  13.404   3.543
29201W        W94186  43.199  12.608   3.194
29202W        W94187  34.591  10.884  12.501
29203W        W94188  17.240  33.565   1.229
29204W        W94189  42.005  24.122   1.111
29205W        W94190  21.285  38.752   1.820
29206W        W94191  20.248  28.726   2.741
29207W        W94192   0.584  24.773  14.793
29208W        W94193  14.364  27.793  14.309
29209W        W94194  25.163  24.727   3.806
29210W        W94195  34.545  43.872   0.707
29211W        W94196  14.920  36.154   3.253
29212W        W94197  24.225  35.980   2.371
29213W        W94198  24.639  12.195  12.944
29214W        W94199  33.307  26.548   5.038
29215W        W94200  18.371  12.585   3.748
29216W        W94201   9.441  11.676   4.172
29217W        W94202  19.501   0.936   4.183
29218W        W94203  31.801  29.736  12.961
29219W        W94204  23.103  33.685  12.458
29220W        W94205  29.943  41.226   1.119
29221W        W94206  23.122  33.043   1.846
29222W        W94207   5.318  39.911  10.249
29223W        W94208  12.902  10.593   4.016
29224W        W94209   0.960  41.429  12.832
29225W        W94210  32.002  40.806   2.883
29226W        W94211  36.146  41.937   5.184
29227W        W94212   3.882   8.823   0.799
29228W        W94213   9.754  36.622  12.875
29229W        W94214  41.399  21.241   0.390
29230W        W94215  28.474  35.663   0.164
29231W        W94216  14.649  12.231  10.512
29232W        W94217  34.548  33.590   4.680
29233W        W94218  38.940  35.149   1.448
29234W        W94219  32.953  30.146  10.562
29235W        W94220  38.383  17.583   2.575
29236W        W94221  43.420  39.490  12.349
29237W        W94222   4.211  33.472  11.038
29238W        W94223  31.641  32.137  12.627
29239W        W94224  14.594  41.716   4.434
29240W        W94225  25.351  17.206   0.368
29241W        W94226  36.934  25.372  10.037
29242W        W94227  33.549   5.265   3.672
29243W        W94228   7.166  21.014   3.202
29244W        W94229  42.481  43.358  12.963
29245W        W94230  38.252   7.708   4.132
29246W        W94231   1.564  32.381   1.684
29247W        W94232  20.760  18.112  13.842
29248W        W94233   6.771  39.722  11.942
29249W        W94234  42.885   1.519  13.390
29250W        W94235  26.500   9.801   1.873
29251W        W94236  39.027  19.147  11.963
29252W        W94237   9.810  40.273  13.799
29253W        W94238  18.463  25.400   1.256
29254W        W94239  17.521  33.586   4.727
29255W        W94240  44.892  34.576   4.982
29256W        W94241  21.623  25.209  11.926
29257W        W94242   8.719  16.036   4.661
29258W        W94243  18.251   9.356   4.273
29259W        W94244  34.632  14.287   0.393
29260W        W94245  28.882  27.038  14.439
29261W        W94246  41.909  16.032  14.641
29262W        W94247  42.482  40.308   4.693
29263W        W94248   1.463   1.828  13.480
29264W        W94249  32.108  30.083  14.898
29265W        W94250   0.254  24.564   4.563
29266W        W94251  25.980  41.647  14.299
29267W        W94252   4.203   3.810   4.075
29268W        W94253  10.720  40.037   2.583
29269W        W94254  25.751  34.229   2.380
29270W        W94255  30.023   6.366  13.827
29271W        W94256   5.664  22.044  14.752
29272W        W94257  37.902  41.119  14.294
29273W        W94258  34.422  28.437  13.388
29274W        W94259  34.629  15.015  13.109
29275W        W94260  15.556  21.560  12.308
29276W        W94261   2.839  30.636   1.357
29277W        W94262  15.382  28.127   0.330
29278W        W94263  42.545  19.919  11.529
29279W        W94264  34.554   3.242   2.592
29280W        W94265  21.027  22.650   3.026
29281W        W94266  34.747  40.730  12.051
29282W        W94267   4.336  40.694   0.337
29283W        W94268  25.588  31.069  13.371
29284W        W94269  14.086  25.227   3.613
29285W        W94270   4.355  18.043  13.466
29286W        W94271  38.437  32.494   4.547
29287W        W94272  42.772  19.873  13.341
29288W        W94273   8.573  39.493  10.970
29289W        W94274   2.236   8.174   3.259
29290W        W94275  17.966   6.276   0.749
29291W        W94276  14.020   1.342  10.974
29292W        W94277   0.040   6.191   0.722
29293W        W94278  19.036  21.285  12.975
29294W        W94279  28.015  16.155   2.760
29295W        W94280  20.753   5.237   3.109
29296W        W94281   1.631  13.959  13.857
29297W        W94282  10.568   9.933   1.168
29298W        W94283   4.486  30.055  11.625
29299W        W94284  28.087  42.428   4.594
29300W        W94285  41.009  13.642   1.904
29301W        W94286  23.149   9.500   0.257
29302W        W94287   9.624  40.551   0.223
29303W        W94288  13.146  35.593   3.921
29304W        W94289   2.821  14.087  11.125
29305W        W94290  10.399  40.596  11.555
29306W        W94291  17.056  37.853   3.480
29307W        W94292  30.048  11.792   3.384
29308W        W94293  44.800  38.877   1.194
29309W        W94294  17.089  30.665  10.840
29310W        W94295   6.753  15.768  14.468
29311W        W94296  13.104  32.376  13.796
29312W        W94297  36.566  12.345  14.000
29313W        W94298  41.441  24.502   2.179
29314W        W94299  40.692  31.072  12.121
29315W        W94300  29.858  39.079   4.854
29316W        W94301  44.810  35.075  11.986
29317W        W94302  36.584  35.568  13.274
29318W        W94303  25.234  15.898  13.909
29319W        W94304  10.081  34.141   4.936
29320W        W94305  20.071   3.155  12.789
29321W        W94306  13.419  44.105  13.849
29322W        W94307  26.673  19.215   1.938
29323W        W94308  28.082  41.376   3.561
29324W        W94309  16.773   7.206  12.894
29325W        W94310  31.941  42.119  12.209
29326W        W94311   2.998   1.336   2.194
29327W        W94312  41.859  44.490   2.157
29328W        W94313  44.403  22.732  10.535
29329W        W94314  39.454  18.715  11.570
29330W        W94315  40.459  20.097   2.697
29331W        W94316  36.260  21.137  14.118
29332W        W94317   9.689   9.248   1.790
29333W        W94318  30.565  43.973  12.555
29334W        W94319   7.032  14.473   4.755
29335W        W94320  28.972  10.051   1.926
29336W        W94321   4.305  29.287  10.603
29337W        W94322  15.681  39.355   4.800
29338W        W94323  35.389   8.282  14.533
29339W        W94324   7.463  41.083  10.722
29340W        W94325   0.264  35.952   2.307
29341W        W94326   8.704   2.822  10.678
29342W        W94327  39.648  21.245   4.571
29343W        W94328  25.553  37.558   0.392
29344W        W94329  30.685   5.332   3.245
29345W        W94330  39.764  15.843   0.371
29346W        W94331  36.963  35.094   0.933
29347W        W94332   8.708  15.187  10.603
29348W        W94333  24.720  17.132   2.222
29349W        W94334  10.344  31.321  12.418
29350W        W94335   8.262   4.272   0.522
29351W        W94336  29.492  25.481  13.072
29352W        W94337   4.261  11.201   4.187
29353W        W94338  19.986  21.260  12.869
29354W        W94339  44.504  11.197   2.867
29355W        W94340   7.227  10.802  12.734
29356W        W94341   1.332  23.066   4.024
29357W        W94342  37.363  29.008  14.509
29358W        W94343  28.114  26.897  11.812
29359W        W94344   3.455  19.175  14.724
29360W        W94345   5.239  21.366  10.725
29361W        W94346  12.171  21.517  11.236
29362W        W94347  13.132  42.751   0.085
29363W        W94348  32.554  40.489   1.509
29364W        W94349  38.844  17.808  10.179
29365W        W94350  13.649  32.338  10.657
29366W        W94351  29.178  15.130  14.233
29367W        W94352   9.684  31.684   0.227
29368W        W94353  23.287  32.143  11.216
29369W        W94354   5.131  29.454  14.200
29370W        W94355   4.413  18.527  12.527
29371W        W94356  38.133   3.780   0.487
29372W        W94357  40.767   5.026  12.905
29373W        W94358  42.373   6.336   3.116
29374W        W94359  24.454   6.343  10.575
29375W        W94360  40.174  22.470  13.082
29376W        W94361  13.923  10.241   2.116
29377W        W94362  17.245  41.959   1.182
29378W        W94363  15.313  22.200   0.275
29379W        W94364  33.235   4.912   0.296
29380W        W94365  21.124  36.582   1.942
29381W        W94366   8.695  24.873  12.174
29382W        W94367   4.135  31.762  14.022
29383W        W94368  29.300   8.684   1.718
29384W        W94369  15.748  16.319  10.274
29385W        W94370  28.169  33.423  12.584
29386W        W94371  22.124  16.073  11.269
29387W        W94372   0.055  16.052   0.731
29388W        W94373   7.367  18.851  12.930
29389W        W94374  38.764  43.851  12.525
29390W        W94375  16.362  33.395  12.831
29391W        W94376  36.976  19.068   4.653
29392W        W94377  37.846   4.243   0.517
29393W        W94378  11.163  20.049  14.566
29394W        W94379  22.356  31.959   5.200
29395W        W94380   1.253  40.486  12.882
29396W        W94381  20.994  14.813   1.292
29397W        W94382  34.548  18.675   4.633
29398W        W94383  19.090   2.549  14.002
29399W        W94384   4.985  26.940  11.117
29400W        W94385  24.826  23.759  11.631
29401W        W94386   1.894   5.721   1.912
29402W        W94387   0.311  31.516   4.656
29403W        W94388  35.509  41.238  14.575
29404W        W94389  13.758  44.231   3.261
29405W        W94390   9.437  12.479   2.302
29406W        W94391  29.873  35.015   1.509
29407W        W94392  31.691  40.854  12.959
29408W        W94393  25.148  31.055   3.083
29409W        W94394  42.220  16.430  13.139
29410W        W94395  32.816  42.427  13.174
29411W        W94396   2.265   1.489   0.093
29412W        W94397  40.456  34.417   2.307
29413W        W94398   0.721  40.039   0.418
29414W        W94399  15.701  24.710   1.214
29415W        W94400  25.439  28.583   3.122
29416W        W94401  41.289  28.382   3.382
29417W        W94402   7.757   4.398  13.077
29418W        W94403  41.020  14.099  11.123
29419W        W94404   2.551  22.542  14.334
29420W        W94405  26.637  34.038  11.146
29421W        W94406  10.163  36.482   4.741
29422W        W94407  37.686   5.910   4.135
29423W        W94408  16.070  23.755   1.029
29424W        W94409  19.019  37.492  14.967
29425W        W94410  36.483  26.576  11.419
29426W        W94411  39.737   5.530   1.268
29427W        W94412  17.398  14.231  12.485
29428W        W94413  16.133  43.599   0.693
29429W        W94414  44.826  17.090  14.004
29430W        W94415  12.159  44.508   4.308
29431W        W94416   0.868  41.856  12.354
29432W        W94417  33.774  21.332  12.369
29433W        W94418   7.878   7.260  13.158
29434W        W94419  31.251  26.952   3.566
29435W        W94420  25.781  35.538  14.826
29436W        W94421  15.256   0.463   4.900
29437W        W94422  18.938   7.903   3.650
29438W        W94423   1.717  17.601  14.055
29439W        W94424  27.941  22.754   1.201
29440W        W94425  29.025  34.111  10.086
29441W        W94426  40.057  28.983   1.298
29442W        W94427  31.899   7.640   0.243
29443W        W94428   9.194  42.473   2.875
29444W        W94429   6.215  15.160   2.841
29445W        W94430  41.817  21.517   2.763
29446W        W94431  38.955  11.301  12.083
29447W        W94432  23.951   6.168  10.577
29448W        W94433  25.940  21.066   2.324
29449W        W94434   2.294  30.158  12.391
29450W        W94435  19.796   4.697  10.540
29451W        W94436  25.578  27.180  13.067
29452W        W94437  42.276  11.754  11.488
29453W        W94438  25.376  34.402   3.681
29454W        W94439  17.013  20.041   3.754
29455W        W94440  11.322  40.536  13.836
29456W        W94441  11.788  30.038   4.434
29457W        W94442  10.139   5.739   1.844
29458W        W94443  37.938  33.075   3.618
29459W        W94444  28.819  36.571   1.843
29460W        W94445   1.887  15.561  12.435
29461W        W94446  25.173  20.744  14.874
29462W        W94447  16.025  23.526  10.619
29463W        W94448   8.737  19.564  13.031
29464W        W94449  16.320   6.747   2.783
29465W        W94450  10.685  23.471   3.266
29466W        W94451  10.097   9.910   3.798
29467W        W94452   0.380  23.128  11.112
29468W        W94453  21.174  42.556   9.927
29469W        W94454   3.444   3.011  11.511
29470W        W94455  27.268  18.063   1.824
29471W        W94456   2.529  17.948  14.478
29472W        W94457  23.710   2.271   0.238
29473W        W94458  41.032  21.530  11.114
29474W        W94459  11.453  12.535   1.611
29475W        W94460  18.142  12.867  14.313
29476W        W94461   2.031  16.650   2.833
29477W        W94462  16.755  40.455   4.549
29478W        W94463  14.861  44.152   4.786
29479W        W94464  11.326  44.748  11.667
29480W        W94465  25.612  13.864   1.363
29481W        W94466  25.140  41.403  12.568
29482W        W94467  20.287   0.339   3.726
29483W        W94468  40.021  15.085  13.547
29484W        W94469  31.098  21.265   0.265
29485W        W94470  43.557   9.713  11.159
29486W        W94471  39.391   1.896  11.103
29487W        W94472   9.579  18.050  12.022
29488W        W94473  33.454  22.958  14.981
29489W        W94474  27.672  44.031   3.800
29490W        W94475   4.711  44.131   1.793
29491W        W94476  34.992  15.227   1.944
29492W        W94477  28.431  11.061  12.512
29493W        W94478  14.653  26.569  14.113
29494W        W94479  10.858  22.033  11.927
29495W        W94480  25.123  23.135  11.136
29496W        W94481   2.514  32.169  13.245
29497W        W94482  30.241  26.635  10.491
29498W        W94483  23.964   0.299   0.939
29499W        W94484  13.024  33.442   1.221
29500W        W94485   9.337  17.519  11.135
29501W        W94486  10.112  30.155  14.025
29502W        W94487  26.382  12.378  12.020
29503W        W94488  36.120  30.329  10.868
29504W        W94489  36.670  31.619  11.598
29505W        W94490  17.016  40.932  10.845
29506W        W94491   3.715  27.368   4.015
29507W        W94492   9.778  26.652   0.850
29508W        W94493  41.593  39.754  14.522
29509W        W94494  30.958  29.329   4.938
29510W        W94495  10.384  43.833   1.653
29511W        W94496  42.622  26.197   9.820
29512W        W94497  44.399  18.214  11.118
29513W        W94498  12.203  35.566  14.246
29514W        W94499   2.003  13.308   3.141
29515W        W94500  23.104   1.196   0.924
29516W        W94501  42.943  18.691   0.056
29517W        W94502  15.831  31.182   2.800
29518W        W94503  33.833  30.609  10.823
29519W        W94504   2.230   4.300   3.275
29520W        W94505  21.735   6.787  14.964
29521W        W94506   2.298  37.129  12.524
29522W        W94507  13.738  30.967  13.919
29523W        W94508  42.458  16.736   1.322
29524W        W94509  38.491  14.600   1.058
29525W        W94510  28.369   3.046  13.376
29526W        W94511   2.731  12.071  11.930
29527W        W94512   3.098  34.083  14.667
29528W        W94513  33.392  17.834  13.604
29529W        W94514  16.887  38.861  14.813
29530W        W94515  18.333  33.447   4.290
29531W        W94516  17.788   4.716  11.705
29532W        W94517   3.765  17.522   2.770
29533W        W94518  15.912  16.487   1.382
29534W        W94519  42.893   5.516  13.463
29535W        W94520  22.630  39.918  13.429
29536W        W94521  37.588  31.122   0.337
29537W        W94522  37.445  21.430   1.831
29538W        W94523   2.652  41.029   0.829
29539W        W94524   3.170  35.120  11.090
29540W        W94525  25.944  13.308  14.054
29541W        W94526   5.215  28.308  11.164
29542W        W94527  39.706  42.413  13.981
29543W        W94528  31.710  31.171   4.128
29544W        W94529  15.252  11.030  10.377
29545W        W94530  35.127  16.162  11.548
29546W        W94531   9.222  42.261  10.700
29547W        W94532  18.446   3.817  11.473
29548W        W94533  27.199  40.142   9.951
29549W        W94534  26.548  18.216   2.342
29550W        W94535  39.493  19.665   0.861
29551W        W94536  18.809   5.401  10.060
29552W        W94537  31.361  13.111   3.609
29553W        W94538   7.434  26.079  13.748
29554W        W94539  33.535  12.048   2.062
29555W        W94540  19.254  34.683   2.272
29556W        W94541  36.028  40.593   0.186
29557W        W94542  26.435  38.216   1.853
29558W        W94543  10.807   6.968   1.838
29559W        W94544  41.187   1.011   2.664
29560W        W94545  14.801  33.674  13.962
29561W        W94546  33.905  17.711   3.067
29562W        W94547  21.264  26.680  11.069
29563W        W94548  42.014  36.339   0.052
29564W        W94549  11.609  28.463  14.786
29565W        W94550  36.611  25.271   0.236
29566W        W94551  36.870  37.068   2.812
29567W        W94552  31.195  44.545  12.074
29568W        W94553  44.689  24.380  13.304
29569W        W94554   5.976  41.771   1.763
29570W        W94555  23.312  16.412  12.925
29571W        W94556  35.457  35.361   0.308
29572W        W94557  11.858  32.548   2.660
29573W        W94558  18.453  42.974  10.888
29574W        W94559  12.012  20.063   4.138
29575W        W94560  41.889  11.546   0.810
29576W        W94561  40.580  16.210  13.956
29577W        W94562  17.639  19.658   2.398
29578W        W94563  23.517  27.733   3.129
29579W        W94564  43.927  22.119   1.452
29580W        W94565   6.513  42.438  11.678
29581W        W94566  28.170  18.018   2.630
29582W        W94567  20.703  29.202   2.746
29583W        W94568  42.319  15.814  13.778
29584W        W94569  21.509  11.636  10.753
29585W        W94570   2.716  14.596  11.927
29586W        W94571  22.155  28.629  13.423
29587W        W94572  39.044   0.331  11.646
29588W        W94573  31.455  35.648   4.193
29589W        W94574  15.597   7.699  13.296
29590W        W94575  14.324   6.176  13.283
29591W        W94576  19.963   8.584   4.211
29592W        W94577  11.310  13.566  11.662
29593W        W94578  17.492   1.871   1.750
29594W        W94579  38.076  21.753   4.053
29595W        W94580  14.302   8.901   1.664
29596W        W94581  37.173  26.714   5.089
29597W        W94582  16.849  40.846  11.589
29598W        W94583  31.519  27.461   0.977
29599W        W94584  28.974  37.092   0.918
29600W        W94585  16.270  40.031  11.538
29601W        W94586  32.658  41.346  11.635
29602W        W94587  28.491  43.539  10.638
29603W        W94588  23.641  30.526   2.287
29604W        W94589   8.391  14.222   2.924
29605W        W94590  37.550  26.579  11.557
29606W        W94591  23.601   0.403   4.769
29607W        W94592   7.075  16.083  11.991
29608W        W94593  23.288  39.034   2.257
29609W        W94594  19.110   4.139  13.041
29610W        W94595  42.579  33.629  13.122
29611W        W94596  42.343  12.776  14.051
29612W        W94597   6.167  37.071   1.379
29613W        W94598  41.889   5.622   4.182
29614W        W94599  29.598   7.910   0.487
29615W        W94600  16.035  12.187  13.531
29616W        W94601  13.168  29.942  12.884
29617W        W94602  34.034  34.728   3.098
29618W        W94603  33.414   8.377  12.994
29619W        W94604   5.328  21.845  13.353
29620W        W94605  14.316  43.870   0.373
29621W        W94606   3.323  25.655   1.875
29622W        W94607  35.020  25.706   3.246
29623W        W94608  33.483  42.263   2.320
29624W        W94609  37.108   9.674  14.876
29625W        W94610   4.602  16.100   1.713
29626W        W94611  12.734  26.562   1.883
29627W        W94612  32.969   9.258   5.505
29628W        W94613   5.051  31.424  11.842
29629W        W94614  27.035  44.952  10.114
29630W        W94615  39.970   1.277   1.806
29631W        W94616  30.044  39.965   4.784
29632W        W94617  35.199  40.083  13.377
29633W        W94618  12.366  35.477   0.894
29634W        W94619  23.057  32.873   3.993
29635W        W94620  30.065  25.744   3.077
29636W        W94621   5.419  23.264   2.147
29637W        W94622  31.988  21.955  14.538
29638W        W94623  27.564  13.864   3.638
29639W        W94624  15.718   6.141  13.891
29640W        W94625  16.388  29.058  11.510
29641W        W94626  35.136  38.826  12.926
29642W        W94627   5.770   1.160   0.302
29643W        W94628  13.340   3.913   3.532
29644W        W94629  38.930  20.929  14.059
29645W        W94630  18.124  44.764  12.056
29646W        W94631   4.215  25.130   4.694
29647W        W94632  13.226  40.520   3.241
29648W        W94633  24.678  41.527   4.971
29649W        W94634  37.574  18.853  14.112
29650W        W94635  42.696  26.415   4.996
29651W        W94636   0.211  29.432  12.667
29652W        W94637  17.217  44.225  14.351
29653W        W94638  16.122   9.663  13.105
29654W        W94639  28.730  15.628   3.257
29655W        W94640  16.646  36.966   2.581
29656W        W94641  11.421  38.943  12.320
29657W        W94642   0.877  37.380   3.164
29658W        W94643  15.314  14.898  11.091
29659W        W94644  20.032   9.374  12.581
29660W        W94645  41.592   9.800  13.563
29661W        W94646  12.977  10.665  11.589
29662W        W94647  20.027  11.912  12.511
29663W        W94648  21.669  29.832   0.413
29664W        W94649  32.062  24.097  12.376
29665W        W94650   5.624  33.830  12.890
29666W        W94651  13.273  37.570  11.097
29667W        W94652  43.313  41.906   2.846
29668W        W94653  30.453  33.049   2.237
29669W        W94654  36.283  32.939   2.806
29670W        W94655  24.522  24.307   2.288
29671W        W94656  11.187  41.348  14.700
29672W        W94657  22.081  39.124   4.559
29673W        W94658  17.056   3.187   4.562
29674W        W94659   9.649  10.107  13.571
29675W        W94660  41.506  22.549   0.371
29676W        W94661   4.706  43.750   3.509
29677W        W94662  29.597  23.599  14.716
29678W        W94663  42.991  15.101   3.555
29679W        W94664  33.519  18.595   0.183
29680W        W94665   8.384  24.595  11.858
29681W        W94666  33.854   0.655  11.643
29682W        W94667   8.885   6.474   3.354
29683W        W94668  24.941  19.185  10.838
29684W        W94669  26.201  23.384   2.019
29685W        W94670  39.343  44.185  13.926
29686W        W94671  13.591   8.175   0.449
29687W        W94672  27.173   8.487   1.446
29688W        W94673  30.812   5.802   2.709
29689W        W94674  35.779  32.900   2.955
29690W        W94675  13.146  16.469   1.012
29691W        W94676  28.684  25.574   3.612
29692W        W94677  37.432  11.431  10.796
29693W        W94678   6.958  13.262   0.173
29694W        W94679  23.088  15.587   3.196
29695W        W94680   5.341   2.949  12.927
29696W        W94681  34.564   1.773   3.726
29697W        W94682  19.319   8.561  14.075
29698W        W94683   4.890  16.160   4.558
29699W        W94684  17.514  17.827  14.251
29700W        W94685  34.897  10.899   2.483
29701W        W94686  37.094  12.833   4.677
29702W        W94687   7.380  16.054  12.791
29703W        W94688  28.521   3.892   0.366
29704W        W94689  35.826  31.041  14.574
29705W        W94690  10.211  21.459   0.483
29706W        W94691   6.731   5.967   0.390
29707W        W94692  13.746  15.420   1.487
29708W        W94693  43.927   0.090   1.429
29709W        W94694  25.256  28.597   2.633
29710W        W94695  25.921   5.735   2.200
29711W        W94696  31.965   7.298   2.683
29712W        W94697  43.035   4.052   0.736
29713W        W94698  26.424  26.708   0.781
29714W        W94699   6.701   4.166   1.719
29715W        W94700  31.927  36.876   0.502
29716W        W94701  37.093  15.222  14.874
29717W        W94702  17.778   8.423  12.919
29718W        W94703   0.518  37.482  11.003
29719W        W94704  21.143  24.722  13.556
29720W        W94705   7.340  26.597  11.557
29721W        W94706   0.827   5.479   3.299
29722W        W94707  22.733  43.743   4.663
29723W        W94708  41.543  30.716  12.779
29724W        W94709  34.877   1.703  10.715
29725W        W94710  28.665  20.195   3.251
29726W        W94711  35.365  30.637   2.716
29727W        W94712  33.600  12.047  14.255
29728W        W94713  22.267   5.808   4.145
29729W        W94714  21.061  14.650  14.508
29730W        W94715  41.848  28.022   2.696
29731W        W94716  25.705  23.405   1.991
29732W        W94717  24.462  22.046   0.817
29733W        W94718  41.089  43.311  11.503
29734W        W94719  24.694  19.745   0.952
29735W        W94720   8.910  17.795   4.770
29736W        W94721  33.871  17.588  12.501
29737W        W94722   7.869   2.002  12.130
29738W        W94723  10.776   9.686  11.443
29739W        W94724  42.247  36.051  12.457
29740W        W94725  11.295   5.273  10.964
29741W        W94726  25.729  28.848   2.748
29742W        W94727   1.275  31.640  14.294
29743W        W94728  43.060  11.205  12.053
29744W        W94729  21.299  11.609  13.013
29745W        W94730  29.891  37.948   0.252
29746W        W94731   8.627  33.648   2.763
29747W        W94732  10.340   0.951   1.396
29748W        W94733  29.395  18.156  11.472
29749W        W94734  14.576  31.405  12.188
29750W        W94735  16.212  29.418  14.602
29751W        W94736  38.830  37.954  11.235
29752W        W94737   2.935   5.524   1.737
29753W        W94738   6.927  30.169  13.517
29754W        W94739  23.465  26.241  11.107
29755W        W94740  19.084  33.526   3.771
29756W        W94741  44.739  41.311   2.345
29757W        W94742  15.567   1.432  11.172
29758W        W94743  18.232  20.607  13.130
29759W        W94744  17.305   8.153  10.726
29760W        W94745  27.666  16.138  14.031
29761W        W94746  15.084  35.622  11.659
29762W        W94747  25.936  35.293   1.726
29763W        W94748  28.163  28.975   3.215
29764W        W94749  11.118  38.044   0.961
29765W        W94750  13.219  16.689  11.815
29766W        W94751   8.168  15.103   3.807
29767W        W94752  23.162  26.194  10.685
29768W        W94753  42.998   2.335   3.296
29769W        W94754  25.591  30.713   3.174
29770W        W94755  37.479  17.787  11.417
29771W        W94756   6.379   2.531  11.720
29772W        W94757  15.095  29.370   3.718
29773W        W94758  26.490  43.965  13.852
29774W        W94759  43.490  19.199  11.187
29775W        W94760   3.669   7.450  13.123
29776W        W94761   1.843  43.270  14.838
29777W        W94762  38.102  18.144  10.540
29778W        W94763  26.191  29.570  12.391
29779W        W94764  36.946   3.012  12.522
29780W        W94765  42.901   4.921   4.644
29781W        W94766   5.613  36.073   4.606
29782W        W94767  17.157  19.012   5.231
29783W        W94768   5.760  39.957   2.646
29784W        W94769  30.942  22.906   3.524
29785W        W94770  29.759  34.901   3.305
29786W        W94771  43.723   2.560  10.952
29787W        W94772  44.328  30.996  11.163
29788W        W94773  31.918   9.641  13.452
29789W        W94774  13.272  15.753  11.388
29790W        W94775  19.094  39.452  12.781
29791W        W94776  33.465  44.883  12.213
29792W        W94777   5.378  44.398  14.977
29793W        W94778  36.349  28.941   4.249
29794W        W94779  21.020   6.218   3.266
29795W        W94780  43.445  15.876   3.721
29796W        W94781   5.207   6.079  10.906
29797W        W94782   8.702  29.610   0.339
29798W        W94783  29.939  17.627   3.865
29799W        W94784  20.912  10.315  11.926
29800W        W94785  14.073  24.021  12.959
29801W        W94786  33.902  38.078  11.552
29802W        W94787  27.451  19.208  12.055
29803W        W94788  15.089   2.808  11.937
29804W        W94789  30.397  11.906  14.830
29805W        W94790  17.021  44.726   3.088
29806W        W94791  20.849   8.026   1.622
29807W        W94792   9.322  28.475   2.707
29808W        W94793   0.991   3.258   4.494
29809W        W94794  36.868  22.716   0.928
29810W        W94795  43.516  26.228   4.765
29811W        W94796  20.050   7.407   3.136
29812W        W94797   3.885  28.897  12.848
29813W        W94798  21.137  31.666   2.138
29814W        W94799  35.996  31.725   1.452
29815W        W94800   9.143  26.106   1.829
29816W        W94801   3.490  23.156  13.631
29817W        W94802   6.462  23.115  13.853
29818W        W94803  32.363  28.946   0.098
29819W        W94804  29.081  18.035   2.361
29820W        W94805   8.650   5.840  14.958
29821W        W94806  12.606   8.350   2.305
29822W        W94807  24.830  24.702   3.266
29823W        W94808   0.618  20.009  11.228
29824W        W94809  37.460  42.404   0.651
29825W        W94810  17.172  37.640   0.461
29826W        W94811   6.684  22.605   1.748
29827W        W94812  24.098  28.525   3.072
29828W        W94813  40.756   6.503  11.240
29829W        W94814  27.508  13.482   2.107
29830W        W94815  32.051   3.066   2.401
29831W        W94816  30.753   1.233   4.737
29832W        W94817   0.219  11.651   3.274
29833W        W94818  41.833   8.581  13.150
29834W        W94819  35.472   3.474  11.174
29835W        W94820   0.393  19.228   2.725
29836W        W94821  12.399  36.390  13.622
29837W        W94822  21.172  28.732  14.817
29838W        W94823  20.717  17.211   3.628
29839W        W94824   2.664  32.810   3.177
29840W        W94825  31.187  10.159   2.205
29841W        W94826  15.143  35.799  14.352
29842W        W94827  13.238  22.014  12.054
29843W        W94828  14.610  41.570  13.071
29844W        W94829  20.541  10.321  12.750
29845W        W94830  42.043  20.297  11.247
29846W        W94831  25.978  17.539  13.757
29847W        W94832  34.893  36.165   4.258
29848W        W94833  22.959   4.590  14.838
29849W        W94834  19.255  38.586  14.520
29850W        W94835  38.757  12.368  11.131
29851W        W94836  31.586   8.055  10.776
29852W        W94837  26.437  17.822   3.116
29853W        W94838  16.890   3.195  11.139
29854W        W94839  24.094  29.460   2.123
29855W        W94840  44.341  11.014   4.775
29856W        W94841  27.969  32.823   0.242
29857W        W94842  22.986  34.453   4.190
29858W        W94843  31.248  22.758   9.945
29859W        W94844  29.110  39.121   3.739
29860W        W94845   2.342  16.029   0.088
29861W        W94846  13.792  29.074  12.126
29862W        W94847   4.454  28.207  12.967
29863W        W94848  35.933  14.680  11.640
29864W        W94849  33.782  42.711  14.149
29865W        W94850  13.317  25.234  12.939
29866W        W94851   7.416  27.532  14.800
29867W        W94852  31.912  11.046  14.851
29868W        W94853  22.231  23.658   3.667
29869W        W94854   0.414   2.976   5.266
29870W        W94855  43.277  23.628  13.950
29871W        W94856  26.062  19.931   1.529
29872W        W94857  14.321  27.648   3.684
29873W        W94858  42.854  42.101   0.892
29874W        W94859   3.869  29.063  14.701
29875W        W94860  17.116  15.563  12.979
29876W        W94861  26.437  37.914  13.348
29877W        W94862   5.234  39.346   0.258
29878W        W94863  10.249  34.963  14.370
29879W        W94864  33.941  15.304  14.916
29880W        W94865  32.166  37.352  11.664
29881W        W94866   5.808  32.710  12.048
29882W        W94867  22.274  26.457   1.882
29883W        W94868  33.867  14.371  10.957
29884W        W94869  16.302  38.379   0.243
29885W        W94870  38.864  12.926  11.801
29886W        W94871  15.896   5.463   0.164
29887W        W94872   1.476  22.282  14.759
29888W        W94873  20.255  25.030   1.656
29889W        W94874  15.174  31.991  10.676
29890W        W94875  11.205  38.306  13.545
29891W        W94876   0.395  36.457   2.407
29892W        W94877   5.194  34.957   3.969
29893W        W94878   3.619  34.167  12.425
29894W        W94879  35.115  41.992  13.161
29895W        W94880   6.808  25.567   3.566
29896W        W94881  12.234   0.080   3.520
29897W        W94882  32.663  27.056   2.147
29898W        W94883  27.070   6.820  10.943
29899W        W94884  30.513   6.845  11.523
29900W        W94885  30.431  39.985   1.842
29901W        W94886  22.345  12.746   0.356
29902W        W94887  27.378  44.743  13.036
29903W        W94888  41.843   1.965   1.287
29904W        W94889  11.695  31.448   1.778
29905W        W94890  17.527  24.907  12.020
29906W        W94891  28.938  44.561   3.654
29907W        W94892  28.950  28.653  12.153
29908W        W94893  42.817   5.251   2.829
29909W        W94894  27.046   7.217  12.240
29910W        W94895  33.569  42.924   3.224
29911W        W94896  16.326  15.653  11.627
29912W        W94897  40.802  43.293  14.180
29913W        W94898   7.289  11.653   1.404
29914W        W94899  17.217  24.246   3.293
29915W        W94900  37.867   0.742   2.468
29916W        W94901  29.819  10.378  11.000
29917W        W94902  10.379  43.533  14.295
29918W        W94903  41.914  13.179  10.660
29919W        W94904  29.986  23.536   0.061
29920W        W94905  26.189  30.731   0.454
29921W        W94906   9.602  30.915  11.436
29922W        W94907   9.268   3.742   2.404
29923W        W94908   8.445  44.394   1.455
29924W        W94909  21.615  35.877  12.490
29925W        W94910  43.019  42.553  11.710
29926W        W94911  27.682  13.967   2.168
29927W        W94912   4.446  20.734   4.200
29928W        W94913  19.105   8.691   2.254
29929W        W94914   4.856  25.572   2.969
29930W        W94915  10.134   6.682   0.177
29931W        W94916  12.771  24.992   1.791
29932W        W94917  23.383  42.212  13.577
29933W        W94918  39.315  37.341  10.687
29934W        W94919  10.891  37.565  13.646
29935W        W94920  34.478   4.880  11.623
29936W        W94921  17.758  32.451  10.688
29937W        W94922  28.101  28.775   4.047
29938W        W94923  21.445  17.143   1.394
29939W        W94924  38.287  29.271  14.674
29940W        W94925  39.854  24.470   3.344
29941W        W94926   7.518   4.430   3.748
29942W        W94927  26.810   9.141   3.358
29943W        W94928  29.047   5.670   4.219
29944W        W94929  32.740   0.098  11.128
29945W        W94930  15.395   7.241   0.302
29946W        W94931  22.729  42.007  11.549
29947W        W94932  16.083   4.310   2.333
29948W        W94933  25.908  17.149  14.513
29949W        W94934  11.851  24.249   1.324
29950W        W94935   7.207  31.888  13.743
29951W        W94936  32.487   3.242  11.282
29952W        W94937   4.761  38.983  12.110
29953W        W94938  19.159  20.517  13.574
29954W        W94939  31.376  16.283  14.195
29955W        W94940   7.243   4.268   5.673
29956W        W94941  21.290  18.238  13.009
29957W        W94942  12.179  34.042   1.138
29958W        W94943  41.230  23.120   1.355
29959W        W94944  16.727  23.142  12.318
29960W        W94945  14.594  19.600  11.623
29961W        W94946  10.366  20.573   0.434
29962W        W94947  34.007   6.251  14.519
29963W        W94948  44.252   6.392   0.353
29964W        W94949  20.017  24.697  14.502
29965W        W94950  29.337   7.350   4.062
29966W        W94951  25.874  31.368  14.206
29967W        W94952  32.363  31.916   0.787
29968W        W94953  30.099  39.939   2.782
29969W        W94954  31.087  32.296   1.773
29970W        W94955  34.525  15.716  12.460
29971W        W94956  41.570  33.665   4.479
29972W        W94957  33.832  24.322   4.639
29973W        W94958  41.966   1.809  11.472
29974W        W94959  19.121  28.010   0.385
29975W        W94960  14.866  22.312   3.317
29976W        W94961   8.085  19.212   1.145
29977W        W94962  21.132  10.682  13.137
29978W        W94963  26.772  36.136  11.531
29979W        W94964  26.110  38.805   3.591
29980W        W94965   4.867  40.522  10.779
29981W        W94966   9.398  23.681  12.063
29982W        W94967  22.291  12.126   3.679
29983W        W94968  27.286   8.150  11.559
29984W        W94969   5.978   1.396   3.126
29985W        W94970  41.600   7.663   3.269
29986W        W94971   0.297  12.722  13.813
29987W        W94972  33.090  15.566   1.238
29988W        W94973   5.823   9.508   2.498
29989W        W94974  31.434   3.491  12.959
29990W        W94975   8.646  33.708  10.988
29991W        W94976  17.223  30.868  14.495
29992W        W94977   5.666  38.905   4.092
29993W        W94978  21.166   1.881  12.153
29994W        W94979  16.342  42.904   3.197
29995W        W94980   3.354  29.024  14.784
29996W        W94981  43.318   6.908   2.163
29997W        W94982   6.217  43.360   4.191
29998W        W94983  44.106  36.692  11.766
29999W        W94984  23.739  21.058   2.129
30000W        W94985  10.055  43.297   0.661
30001W        W94986  21.042  28.980   1.076
30002W        W94987  13.188   3.767   5.559
30003W        W94988  22.768  19.787   1.510
30004W        W94989  33.143   3.458   1.314
30005W        W94990   4.792   0.056   0.764
30006W        W94991  43.994  12.311  14.766
30007W        W94992   9.872   4.172  12.599
30008W        W94993  44.305  23.687  12.947
30009W        W94994  26.910  23.833  14.749
30010W        W94995  30.360  16.737  13.738
30011W        W94996   4.736  27.643  12.987
30012W        W94997  19.530  17.272   0.474
30013W        W94998  12.147   8.847  11.877
30014W        W94999  22.643  43.926  14.001
30015W        W95000  10.687   2.135   3.344
30016W        W95001  38.739  38.435   3.402
30017W        W95002  39.595  18.681  14.062
30018W        W95003  21.729  22.246   0.560
30019W        W95004  38.772  20.471  13.323
30020W        W95005  33.115  36.047   2.321
30021W        W95006   2.664  36.922  12.908
30022W        W95007  38.278  32.198   4.950
30023W        W95008   3.625   5.591   2.844
30024W        W95009  34.907  44.396   4.599
30025W        W95010   6.383  13.097   1.397
30026W        W95011  32.604   1.361  10.731
30027W        W95012  21.667  43.531   4.287
30028W        W95013  38.346  36.977   0.904
30029W        W95014   3.758   8.705  14.434
30030W        W95015  12.452  36.581  12.430
30031W        W95016  35.652   0.352  12.356
30032W        W95017  11.244  20.982   1.248
30033W        W95018  29.684  19.120   0.155
30034W        W95019  29.643   2.737   1.670
30035W        W95020  34.867   2.214  10.741
30036W        W95021   2.246  11.206  11.034
30037W        W95022   5.825  37.354   4.026
30038W        W95023  10.179  43.771  14.701
30039W        W95024  17.857  15.218   3.418
30040W        W95025  30.180  21.696   3.459
30041W        W95026  11.121  33.041  11.195
30042W        W95027  21.436  34.936   0.973
30043W        W95028  25.899  23.520  12.613
30044W        W95029  14.064  15.780  12.299
30045W        W95030   5.676  12.185   4.865
30046W        W95031  23.984  39.270  14.545
30047W        W95032  40.443   8.130  12.171
30048W        W95033   8.092  19.735   4.869
30049W        W95034  44.059  37.309   3.282
30050W        W95035  10.345   8.482   9.811
30051W        W95036  38.571   5.359  10.833
30052W        W95037  43.272  12.408  11.632
30053W        W95038  14.244  21.179   2.863
30054W        W95039  24.671  23.664   0.333
30055W        W95040  17.528  21.317  10.578
30056W        W95041  12.875  44.887  13.679
30057W        W95042  43.427   2.223  14.452
30058W        W95043   1.418  21.596   4.616
30059W        W95044  40.783  40.552   1.831
30060W        W95045  17.329   0.718  14.288
30061W        W95046   0.572  30.774   4.075
30062W        W95047  42.570  14.286   2.735
30063W        W95048  11.940   6.194  10.761
30064W        W95049   5.030  39.507  10.361
30065W        W95050  32.636  33.494  12.382
30066W        W95051  11.536  27.292  14.278
30067W        W95052  27.919   6.066   5.081
30068W        W95053  28.184  21.491  13.493
30069W        W95054   0.275  20.014   1.182
30070W        W95055   1.778  13.807   4.700
30071W        W95056  31.617  24.615  13.541
30072W        W95057  42.359  30.919   3.715
30073W        W95058  11.152  41.924   3.246
30074W        W95059  32.873   7.141   2.692
30075W        W95060  23.565  12.408   2.645
30076W        W95061  42.016   2.874   2.510
30077W        W95062   7.818  41.497   2.800
30078W        W95063  23.465  10.052   2.222
30079W        W95064   4.398  36.145   2.336
30080W        W95065  16.843  13.276   4.997
30081W        W95066   4.949  41.465   3.571
30082W        W95067  41.974  34.585  11.843
30083W        W95068  37.743  32.997   1.488
30084W        W95069  42.060  40.073  12.517
30085W        W95070  40.728  37.922   3.823
30086W        W95071  29.918  33.398   2.618
30087W        W95072  18.668  26.012   3.225
30088W        W95073  26.586  13.283  14.874
30089W        W95074   5.525  25.592  11.573
30090W        W95075  15.760   4.176  10.891
30091W        W95076  27.456  19.544   4.948
30092W        W95077   6.973  11.658   0.892
30093W        W95078  15.178  11.754  14.863
30094W        W95079  36.984  24.522   1.930
30095W        W95080   5.248  22.243   1.296
30096W        W95081  19.288  16.881   2.260
30097W        W95082  31.557  43.902   3.749
30098W        W95083  23.619  16.354   3.674
30099W        W95084  20.117  19.808   0.645
30100W        W95085   3.505  43.991   2.294
30101W        W95086  15.315  16.748   2.210
30102W        W95087  25.775  23.605   4.456
30103W        W95088   8.378  18.518  13.949
30104W        W95089  11.731  40.574   3.224
30105W        W95090   3.811  10.838   2.847
30106W        W95091  23.448  43.998   1.045
30107W        W95092   6.966   0.560   0.490
30108W        W95093  18.397  19.136   2.307
30109W        W95094  12.231   2.217   0.876
30110W        W95095   0.744   3.767  11.578
30111W        W95096  39.835  41.804   0.969
30112W        W95097  39.584   5.041   1.379
30113W        W95098   9.372  41.114   4.121
30114W        W95099  40.530  29.789  13.337
30115W        W95100  35.257  17.726   2.341
30116W        W95101  12.762   8.267   3.738
30117W        W95102  37.011  16.256   2.323
30118W        W95103  36.017  43.322  13.482
30119W        W95104  29.701  25.418   1.415
30120W        W95105  42.110  30.904  11.152
30121W        W95106  10.231  25.912   1.243
30122W        W95107   1.241  35.641   0.414
30123W        W95108  41.563  16.320   2.633
30124W        W95109  39.126  33.210  10.703
30125W        W95110  28.230  41.027   4.628
30126W        W95111  44.676  36.604   4.545
30127W        W95112  23.069  33.554  10.151
30128W        W95113  37.532  36.987   1.299
30129W        W95114   9.282   8.299  10.925
30130W        W95115   3.260  35.063  12.466
30131W        W95116  19.014   9.906   3.716
30132W        W95117  34.100  21.097  14.841
30133W        W95118  40.591  41.310   0.992
30134W        W95119  12.665  32.065  11.858
30135W        W95120  28.521   8.349  11.242
30136W        W95121  22.600  43.897  13.473
30137W        W95122   7.430  17.275  13.768
30138W        W95123  41.983  15.630   2.836
30139W        W95124  35.526  13.380   3.257
30140W        W95125  11.892  34.641   4.192
30141W        W95126   8.836  43.564   3.134
30142W        W95127  44.974  25.726  10.386
30143W        W95128  15.524  11.268   2.717
30144W        W95129  19.061  23.025   3.261
30145W        W95130  26.063  33.880   4.167
30146W        W95131  27.826  16.927  10.966
30147W        W95132  36.496  22.490   3.715
30148W        W95133   5.995  35.846  13.812
30149W        W95134  35.507  10.758  13.620
30150W        W95135  44.679   3.801   4.654
30151W        W95136  25.375  40.401  11.687
30152W        W95137  10.915  40.927  14.817
30153W        W95138  15.235   0.681   3.871
30154W        W95139  23.455  30.781   5.084
30155W        W95140  11.982   3.296   5.022
30156W        W95141  20.018  41.331  13.117
30157W        W95142  12.797  16.507  11.586
30158W        W95143  42.527   8.319  14.301
30159W        W95144   0.253  28.717  14.407
30160W        W95145   3.674   8.116   3.184
30161W        W95146  13.210  38.071   0.544
30162W        W95147  40.421  14.616   1.430
30163W        W95148  32.638  43.042   0.362
30164W        W95149  17.510   8.015   2.827
30165W        W95150  17.594  19.531   1.903
30166W        W95151   0.139  25.983   1.489
30167W        W95152   1.369  11.970   4.698
30168W        W95153  38.287  37.051   4.772
30169W        W95154   2.333   8.996  12.042
30170W        W95155  37.020  31.167   4.102
30171W        W95156  34.382  37.420   4.556
30172W        W95157  13.085  41.581  13.901
30173W        W95158  38.862  16.472   4.139
30174W        W95159  42.546  26.745   4.602
30175W        W95160   9.089  24.238   1.831
30176W        W95161  28.768   9.240  13.008
30177W        W95162   2.139  10.229   9.917
30178W        W95163  35.316  41.963  10.784
30179W        W95164   4.520   2.443  13.059
30180W        W95165  20.975  13.221   3.694
30181W        W95166  10.101   4.041   0.515
30182W        W95167  12.762  26.895  13.531
30183W        W95168  30.689  44.443  11.350
30184W        W95169   1.452  29.949  13.415
30185W        W95170  21.574  31.310   4.380
30186W        W95171   4.870  43.108  14.348
30187W        W95172   8.218  34.545   3.382
30188W        W95173  21.581  43.896   4.642
30189W        W95174  36.845  40.563  11.101
30190W        W95175   3.043  11.657  11.220
30191W        W95176  42.646  23.255   3.722
30192W        W95177  39.793  23.006   2.333
30193W        W95178  38.331  24.953  11.684
30194W        W95179  25.977  36.327   2.611
30195W        W95180  16.019  37.948   0.345
30196W        W95181  14.690  10.141   0.449
30197W        W95182  32.189   7.905  10.225
30198W        W95183  28.413  11.684   4.168
30199W        W95184  19.899   8.791  10.712
30200W        W95185  32.833  31.168   0.780
30201W        W95186  32.315   6.327  14.390
30202W        W95187   4.470  43.284   3.269
30203W        W95188  11.434   5.799  13.189
30204W        W95189   8.035  38.276  11.337
30205W        W95190  10.571  42.296  13.889
30206W        W95191   9.852  15.117   3.128
30207W        W95192  10.625  20.255  12.588
30208W        W95193   7.942  42.314   1.818
30209W        W95194  28.409  11.168   3.508
30210W        W95195   0.275  23.963   0.385
30211W        W95196  19.100  36.074  13.186
30212W        W95197  11.880  38.531  13.925
30213W        W95198  29.980  39.105  11.994
30214W        W95199   3.986  21.785   3.792
30215W        W95200  38.834  23.668  11.207
30216W        W95201  44.888  27.069  12.274
30217W        W95202  44.141  43.233   2.852
30218W        W95203  15.138   1.012   0.940
30219W        W95204  33.508  11.124  13.746
30220W        W95205  18.440   0.982   0.766
30221W        W95206  17.281   3.999  11.961
30222W        W95207  28.352  37.337  11.056
30223W        W95208   6.738  34.053   4.195
30224W        W95209  11.278  10.062  13.325
30225W        W95210  32.202   8.712   0.394
30226W        W95211  23.981  18.069  10.159
30227W        W95212   9.292  35.165  14.266
30228W        W95213  11.865  12.653   4.043
30229W        W95214  26.524   8.967  13.473
30230W        W95215  34.666  41.913   3.996
30231W        W95216  15.228  22.636  13.857
30232W        W95217  33.840  38.333  13.178
30233W        W95218  14.842  39.025   4.718
30234W        W95219  28.337  36.010  12.444
30235W        W95220  20.110  27.730  12.040
30236W        W95221  30.441  36.231   4.586
30237W        W95222  44.621  38.835   2.335
30238W        W95223  22.203  24.996   4.349
30239W        W95224   4.182  25.910  14.330
30240W        W95225  16.038   3.374  10.112
30241W        W95226   4.282  42.372   2.822
30242W        W95227  25.978  12.639   1.581
30243W        W95228  26.338  31.166  11.451
30244W        W95229  42.714  15.700   2.354
30245W        W95230  30.096  26.090   0.294
30246W        W95231  42.422  26.182  13.850
30247W        W95232  21.179  26.219  12.490
30248W        W95233  15.456  20.094  14.339
30249W        W95234  36.066  27.505  10.654
30250W        W95235  19.031  41.059   0.453
30251W        W95236  31.142  34.051  13.726
30252W        W95237  21.008   2.472   4.549
30253W        W95238  14.716   0.181  13.376
30254W        W95239  18.092  14.937  11.617
30255W        W95240  11.281   7.619   0.304
30256W        W95241   2.783  27.449  13.788
30257W        W95242   7.570  34.908   2.275
30258W        W95243  11.398  40.570   3.743
30259W        W95244  44.963  10.880  12.080
30260W        W95245  10.450  19.606   4.970
30261W        W95246   6.783  24.955  14.807
30262W        W95247  17.400  16.712   2.152
30263W        W95248  37.724  27.765   1.882
30264W        W95249  16.209  30.007  12.959
30265W        W95250   9.161  19.595  14.909
30266W        W95251  38.951  21.685  12.584
30267W        W95252  11.791  35.441  12.108
30268W        W95253  40.525  38.185  14.804
30269W        W95254  21.631  13.720  12.448
30270W        W95255   4.714  27.433  12.458
30271W        W95256  43.769  15.483  12.564
30272W        W95257  11.185   4.422   0.868
30273W        W95258  13.728  20.003   3.535
30274W        W95259  34.545   8.224   2.379
30275W        W95260  36.499   4.457  10.993
30276W        W95261  44.276   4.426   3.767
30277W        W95262  15.650  30.049   4.222
30278W        W95263   7.369  34.055  13.048
30279W        W95264  28.818  33.484  10.796
30280W        W95265  22.723   9.716  13.017
30281W        W95266  43.499  19.483  12.928
30282W        W95267  14.706  16.557  10.651
30283W        W95268  39.899   0.874   0.548
30284W        W95269  19.739  40.488  13.353
30285W        W95270   1.451  36.338  12.844
30286W        W95271  36.777  44.491  13.030
30287W        W95272  26.884   0.253   2.333
30288W        W95273  35.809  43.822   1.468
30289W        W95274  28.867   1.888  12.063
30290W        W95275   8.485  19.954   4.043
30291W        W95276   5.880  37.449   0.094
30292W        W95277  12.126  18.807  14.730
30293W        W95278   0.561  10.640   4.113
30294W        W95279   4.526  31.903  11.215
30295W        W95280  35.999  30.885   3.350
30296W        W95281   4.777  14.128  13.263
30297W        W95282   3.454   5.939  14.932
30298W        W95283  20.507  27.567   1.495
30299W        W95284  40.331  13.652   2.748
30300W        W95285  23.759  41.405   3.745
30301W        W95286  44.574  15.780   4.557
30302W        W95287  30.861  41.471   3.646
30303W        W95288  32.206  43.562  12.837
30304W        W95289  28.638  25.756   0.636
30305W        W95290  18.839   7.287   1.712
30306W        W95291  40.238   8.248   3.138
30307W        W95292  38.800   4.018  14.143
30308W        W95293  39.716  28.780  13.372
30309W        W95294  34.699  15.022  11.287
30310W        W95295  12.357  41.268  14.370
30311W        W95296   4.402  43.204  11.114
30312W        W95297  37.720   0.286  10.619
30313W        W95298  16.762  40.820   2.737
30314W        W95299  44.010  17.005   1.243
30315W        W95300  44.826  32.560   2.451
30316W        W95301   0.641  37.349  12.690
30317W        W95302  23.100   2.597  14.343
30318W        W95303  22.106  44.522  14.485
30319W        W95304  21.118  28.219  10.269
30320W        W95305   4.443  44.224   2.287
30321W        W95306   4.991   7.772   4.457
30322W        W95307   0.804  16.206   4.975
30323W        W95308  41.411  16.218   0.805
30324W        W95309  20.364  10.782  13.499
30325W        W95310   3.220  36.405   3.141
30326W        W95311  11.708  10.235   1.307
30327W        W95312  21.087  11.493  12.562
30328W        W95313  25.301  13.247   3.662
30329W        W95314  37.000  38.431   2.121
30330W        W95315  19.172  42.428  10.581
30331W        W95316  23.351  23.517  11.646
30332W        W95317  31.325  24.107  13.846
30333W        W95318  35.103  40.897   3.135
30334W        W95319   6.415  25.127  13.064
30335W        W95320   0.324  30.185   0.252
30336W        W95321  26.844  29.056  12.012
30337W        W95322   3.663   9.790  14.017
30338W        W95323  35.018  19.826  11.085
30339W        W95324  29.094   7.655   2.760
30340W        W95325  40.378  12.990  14.474
30341W        W95326  22.611  16.212  14.078
30342W        W95327   8.647   5.427   2.221
30343W        W95328  21.873  20.130   5.104
30344W        W95329  12.833  20.232  11.586
30345W        W95330  21.841  34.023  13.439
30346W        W95331  24.975  30.417   1.766
30347W        W95332  42.110   8.343   0.576
30348W        W95333  41.827   4.785   0.835
30349W        W95334   7.817  17.564   5.244
30350W        W95335  20.234  19.824   3.633
30351W        W95336   3.459  35.963   3.275
30352W        W95337  27.994  29.748   4.967
30353W        W95338   8.823  13.407  14.946
30354W        W95339  37.827  25.188   0.735
30355W        W95340   6.156  22.465  12.001
30356W        W95341  23.011  41.091  10.919
30357W        W95342  16.060  32.377  13.995
30358W        W95343  38.053  43.735   0.910
30359W        W95344  39.999  19.163   3.690
30360W        W95345  10.096  17.098  12.488
30361W        W95346  32.980   2.738   2.813
30362W        W95347  44.858  19.673  11.147
30363W        W95348   8.934  23.914  11.952
30364W        W95349  15.287  35.192  13.513
30365W        W95350  25.758  31.097   2.243
30366W        W95351  30.570  23.573   1.257
30367W        W95352   6.775  42.870  14.440
30368W        W95353  23.756  23.111  14.268
30369W        W95354  21.997  30.106   0.150
30370W        W95355   6.791   7.301  11.554
30371W        W95356   9.169  11.420  13.291
30372W        W95357  18.703  32.666   4.507
30373W        W95358  19.801  33.416  11.208
30374W        W95359   1.341  25.090   1.038
30375W        W95360  41.400  17.729  12.547
30376W        W95361  19.043  15.202  14.480
30377W        W95362  36.702  33.840  13.090
30378W        W95363  12.754  34.340   4.157
30379W        W95364  16.450  22.051  13.400
30380W        W95365  34.900  35.174  11.106
30381W        W95366  18.375   8.748   1.860
30382W        W95367  21.617  13.355  13.835
30383W        W95368  38.445  15.563  14.464
30384W        W95369  36.354  22.449  14.487
30385W        W95370  33.161  42.040  12.997
30386W        W95371  17.368   2.420  14.796
30387W        W95372  28.153  37.527  13.571
30388W        W95373  21.818  32.894   2.172
30389W        W95374   7.349  38.924  14.382
30390W        W95375  18.556  40.088  14.929
30391W        W95376  14.550  39.736   4.028
30392W        W95377  36.620  30.135  13.400
30393W        W95378   1.152  20.793  10.894
30394W        W95379  31.720   1.779  10.052
30395W        W95380  35.501  20.197   5.118
30396W        W95381  11.358  25.495   1.847
30397W        W95382  24.507  16.073   0.444
30398W        W95383   3.916  28.719   3.484
30399W        W95384  31.905  24.759   2.150
30400W        W95385  36.540  12.145  10.962
30401W        W95386  35.407  23.049  14.778
30402W        W95387  10.314  39.353   4.748
30403W        W95388  12.588  44.497  14.115
30404W        W95389  29.257  34.705   2.920
30405W        W95390  19.660   8.082  14.694
30406W        W95391  27.497  41.752  14.602
30407W        W95392  40.105  35.570   2.681
30408W        W95393   5.239   9.033  14.122
30409W        W95394   3.781  32.922   2.937
30410W        W95395  42.612  36.844   0.429
30411W        W95396  41.574  26.346  14.054
30412W        W95397  44.808  28.469  14.283
30413W        W95398   9.863  13.790  10.567
30414W        W95399   4.074  36.033  12.327
30415W        W95400  15.233  40.376   3.115
30416W        W95401  16.510  21.728  12.003
30417W        W95402  36.851  29.401  12.423
30418W        W95403   4.707   5.286   1.684
30419W        W95404  11.212   6.817   3.199
30420W        W95405  13.168   6.124  14.958
30421W        W95406   5.708  13.675  12.384
30422W        W95407  26.428  18.724   4.571
30423W        W95408  37.828  23.477   4.166
30424W        W95409  23.588  41.793   0.010
30425W        W95410  35.045  25.607  10.423
30426W        W95411   8.750   3.724  13.912
30427W        W95412   8.145  34.290  13.100
30428W        W95413  37.771  38.603   0.968
30429W        W95414  38.988  24.304  13.032
30430W        W95415  15.144   4.030  14.838
30431W        W95416  31.415  27.710  13.878
30432W        W95417   3.093  22.034  11.562
30433W        W95418  30.796   8.446   1.931
30434W        W95419  36.403   6.124   1.418
30435W        W95420  21.922  36.146  13.412
30436W        W95421  32.862  37.377   3.632
30437W        W95422   4.228   6.810  12.166
30438W        W95423  24.386  25.746   2.083
30439W        W95424  10.729  36.405   1.791
30440W        W95425   1.033  23.183  13.433
30441W        W95426  29.780  41.226   1.616
30442W        W95427  36.813  13.357  12.084
30443W        W95428   9.869   5.887   0.223
30444W        W95429  24.014  41.155  11.542
30445W        W95430  33.887  19.553  11.677
30446W        W95431  40.465  26.697  13.443
30447W        W95432  44.849  36.795   4.097
30448W        W95433  11.644  38.412  10.734
30449W        W95434   1.924  22.469  10.711
30450W        W95435   0.957  44.259   1.803
30451W        W95436  33.005  31.653  12.542
30452W        W95437   7.670  38.540   0.805
30453W        W95438  20.339  11.402   2.397
30454W        W95439  41.926  28.619   5.055
30455W        W95440  31.890  30.249  12.986
30456W        W95441  34.886  28.965   2.276
30457W        W95442  22.186  44.064  14.262
30458W        W95443  30.525  40.220  14.034
30459W        W95444  38.871  39.014   1.454
30460W        W95445  22.345  21.196   1.737
30461W        W95446  35.871  21.745   3.343
30462W        W95447  35.954  16.796  12.884
30463W        W95448   1.883  11.332  10.670
30464W        W95449  11.164  26.537  12.581
30465W        W95450   1.820   4.224  13.244
30466W        W95451  12.913  31.095  12.067
30467W        W95452  22.746  12.484  14.042
30468W        W95453   1.195  14.934   4.460
30469W        W95454  42.872   0.739   1.128
30470W        W95455   2.884  24.321   3.500
30471W        W95456  10.675   7.889  11.058
30472W        W95457  19.766  13.128   3.097
30473W        W95458  30.458  22.568  14.298
30474W        W95459  26.939  11.282  11.088
30475W        W95460  13.399  22.735  12.575
30476W        W95461   5.331  29.402  14.895
30477W        W95462  24.705   6.832  10.530
30478W        W95463  10.739   7.806   4.427
30479W        W95464  30.870  34.846  13.376
30480W        W95465   2.300   5.161   4.314
30481W        W95466   8.211  16.112   2.860
30482W        W95467   2.316   5.883  13.547
30483W        W95468   3.668  20.601   2.173
30484W        W95469   9.888  36.493   3.215
30485W        W95470  21.139   6.479  13.481
30486W        W95471  34.755  35.962  11.195
30487W        W95472   0.133  42.119  11.173
30488W        W95473  19.575  15.256  13.425
30489W        W95474  13.147  37.387   2.631
30490W        W95475   7.147  41.540   2.260
30491W        W95476  17.941  13.104   4.413
30492W        W95477  28.368  32.642   1.728
30493W        W95478  38.902  30.656   3.190
30494W        W95479  13.193  31.968   2.299
30495W        W95480  26.278  10.748   3.678
30496W        W95481  35.137  37.774   1.280
30497W        W95482  32.675  12.765   4.618
30498W        W95483  39.863  39.843   1.288
30499W        W95484   9.675   6.739  14.197
30500W        W95485  29.491   1.765  11.222
30501W        W95486  44.695   3.342   3.133
30502W        W95487   0.061  28.472   0.263
30503W        W95488  19.743  44.827   4.218
30504W        W95489  21.682  31.584  13.864
30505W        W95490   5.722  10.856   0.329
30506W        W95491  19.100  18.452  13.824
30507W        W95492  23.410  20.196  12.092
30508W        W95493  13.193  36.113   4.050
30509W        W95494   1.262  38.772  12.373
30510W        W95495  18.576  44.451  12.080
30511W        W95496  18.752  31.448   3.250
30512W        W95497  26.441  34.592   3.682
30513W        W95498  22.882   9.760  14.265
30514W        W95499  27.543  31.673   1.892
30515W        W95500   5.463  30.683   0.439
30516W        W95501  19.557  27.279  10.670
30517W        W95502  18.783  41.954  13.835
30518W        W95503  38.721  35.200   4.970
30519W        W95504  31.535  40.759   3.600
30520W        W95505  10.712  28.597  10.657
30521W        W95506  15.358  15.693  10.694
30522W        W95507   2.886   2.190   2.402
30523W        W95508  43.401  34.005  13.446
30524W        W95509  13.723  27.714   0.796
30525W        W95510   1.778   5.312  13.069
30526W        W95511  30.996  24.235   4.093
30527W        W95512  13.272  17.256  13.613
30528W        W95513  24.570  27.770   1.370
30529W        W95514  14.951   1.448   3.609
30530W        W95515   5.980  30.389  11.632
30531W        W95516   6.187  17.701  11.402
30532W        W95517  24.748  27.598  13.886
30533W        W95518  43.545  44.895  12.296
30534W        W95519  29.090  23.981  12.085
30535W        W95520  21.799  40.178  11.183
30536W        W95521  10.024  34.681   4.978
30537W        W95522  37.942  44.339   2.839
30538W        W95523   5.909  40.383   2.886
30539W        W95524  37.498  33.817  11.074
30540W        W95525  29.593  12.566   3.775
30541W        W95526  11.593  30.521   1.527
30542W        W95527  44.587  32.511   3.212
30543W        W95528  19.815  36.057  13.964
30544W        W95529  11.348  15.801  14.859
30545W        W95530   2.991   5.333  13.963
30546W        W95531  24.824  40.837  13.938
30547W        W95532   8.256  44.363   3.604
30548W        W95533  10.184  37.382   0.850
30549W        W95534  13.826  34.032  10.805
30550W        W95535  15.139  44.945   1.569
30551W        W95536  16.182  35.877  11.193
30552W        W95537  34.464  35.588   0.120
30553W        W95538  34.374   5.984   0.335
30554W        W95539  34.922  29.015  12.548
30555W        W95540   3.298  16.302   2.963
30556W        W95541   4.286  35.844   1.918
30557W        W95542  34.926   4.925  11.938
30558W        W95543  13.796  27.069  11.360
30559W        W95544  34.710  34.415  13.360
30560W        W95545   0.705  16.057  13.980
30561W        W95546   6.215  16.249  14.380
30562W        W95547   0.258  17.438   4.560
30563W        W95548  13.986  23.678   3.199
30564W        W95549  14.859   7.912   0.934
30565W        W95550  31.007  10.902   1.296
30566W        W95551  41.414  33.409   4.886
30567W        W95552  11.453  11.668  10.895
30568W        W95553  32.905   5.416   1.183
30569W        W95554  35.463   2.034  13.069
30570W        W95555   6.171   4.340  13.306
30571W        W95556  26.629   7.225   4.607
30572W        W95557   6.251  23.342   0.276
30573W        W95558  16.111  41.847  11.451
30574W        W95559  29.155  34.085   0.778
30575W        W95560  23.211  11.586   2.776
30576W        W95561  44.838   0.075   1.280
30577W        W95562  20.096  35.901   3.732
30578W        W95563   1.513  29.474   1.949
30579W        W95564  28.670  19.012   0.321
30580W        W95565  22.566  31.006  12.682
30581W        W95566  17.193  39.220   2.330
30582W        W95567  10.129   6.850   4.624
30583W        W95568  24.970  44.535   3.071
30584W        W95569   8.630  42.262  13.845
30585W        W95570  17.711  28.845   2.914
30586W        W95571  16.656  12.153   4.313
30587W        W95572  10.663  32.946  14.745
30588W        W95573  18.763  29.887   0.348
30589W        W95574  44.418  39.788  11.087
30590W        W95575  41.617  42.931  14.703
30591W        W95576  27.805  32.850  11.118
30592W        W95577  11.564   5.710   4.585
30593W        W95578   0.964  15.847  12.005
30594W        W95579  26.290   9.495   2.281
30595W        W95580  43.034  18.224   0.781
30596W        W95581   4.957  13.072  11.089
30597W        W95582  44.332  32.082   4.631
30598W        W95583  40.924   0.436  13.049
30599W        W95584  42.451  39.137   2.412
30600W        W95585   9.692   9.644  12.132
30601W        W95586  30.278  27.364  11.587
30602W        W95587  30.194  35.880  13.084
30603W        W95588   8.098  43.612  10.959
30604W        W95589  39.264   7.648   1.922
30605W        W95590   9.140  28.636  12.484
30606W        W95591  30.468  32.168  13.061
30607W        W95592  35.889  28.376  11.873
30608W        W95593   2.845  35.349  12.572
30609W        W95594   4.660   3.543   4.084
30610W        W95595   2.741  37.385   4.474
30611W        W95596  23.475  44.385  14.847
30612W        W95597  13.714  17.484   1.792
30613W        W95598   0.248   2.941   0.439
30614W        W95599  10.244  30.470  13.267
30615W        W95600   1.056   6.914  11.411
30616W        W95601  43.506   0.526   0.946
30617W        W95602  38.884  23.786   1.798
30618W        W95603   6.984  38.983  13.997
30619W        W95604   8.342  20.076   4.529
30620W        W95605  43.584  39.083   0.724
30621W        W95606   9.673  23.780  12.501
30622W        W95607  44.761   4.940  12.632
30623W        W95608  23.043   9.170   2.089
30624W        W95609  26.771  39.501  10.564
30625W        W95610  30.164   7.319  11.880
30626W        W95611  43.896   5.733  10.727
30627W        W95612  18.040  22.595   0.696
30628W        W95613   9.849  44.452   4.650
30629W        W95614  18.073   1.744  14.495
30630W        W95615  35.641  44.752  11.306
30631W        W95616  19.975   5.227   1.976
30632W        W95617   5.289   7.440  14.932
30633W        W95618  11.961  20.581   4.080
30634W        W95619  33.298  42.454   0.588
30635W        W95620  40.393  10.763   4.414
30636W        W95621  29.801  21.231  12.599
30637W        W95622   9.324  18.695   3.110
30638W        W95623   4.766  36.554  14.856
30639W        W95624  15.687  24.881  13.249
30640W        W95625  20.685  27.647  10.653
30641W        W95626   2.745  21.280  12.878
30642W        W95627  44.079  17.675  14.026
30643W        W95628  20.977  26.955  11.699
30644W        W95629  14.688  11.723   2.069
30645W        W95630  28.177  33.865   1.138
30646W        W95631   3.240  28.989  10.351
30647W        W95632   4.082  16.808  14.739
30648W        W95633  37.471  37.038  13.484
30649W        W95634  13.208  42.390  14.326
30650W        W95635  38.626  41.321   1.441
30651W        W95636  21.093  26.949  14.480
30652W        W95637  43.463   4.761  11.027
30653W        W95638   0.021  29.153   2.273
30654W        W95639  22.933   8.950   9.935
30655W        W95640  17.061   8.523   4.523
30656W        W95641  12.646   6.826  13.778
30657W        W95642  11.192  41.012   1.896
30658W        W95643  29.906  33.864  14.000
30659W        W95644  32.417  36.256  12.632
30660W        W95645  10.390  43.422  13.466
30661W        W95646  31.936  44.310   4.628
30662W        W95647  43.374   7.321  11.993
30663W        W95648   8.723   9.727   1.205
30664W        W95649  11.555  41.090   0.455
30665W        W95650  16.774  24.839   2.613
30666W        W95651  37.304  38.560   2.885
30667W        W95652  35.905   3.229   4.723
30668W        W95653  37.509  42.694   1.609
30669W        W95654  26.683   9.349  11.897
30670W        W95655  15.818  29.217  13.591
30671W        W95656  35.145  14.555  12.083
30672W        W95657  42.794  39.226   9.954
30673W        W95658   6.081  16.741  11.236
30674W        W95659   4.519  35.727  12.095
30675W        W95660  14.883  38.048  10.630
30676W        W95661   4.448  27.052   2.833
30677W        W95662   3.776  27.221   1.238
30678W        W95663  34.460  22.615  11.622
30679W        W95664   0.479  27.672   0.506
30680W        W95665   0.002   7.837  13.360
30681W        W95666  31.431  31.182  12.364
30682W        W95667  40.996   2.737   3.207
30683W        W95668  11.636  10.787   2.728
30684W        W95669  17.353  11.590  11.077
30685W        W95670  12.821  34.283   0.378
30686W        W95671  12.721  13.669   2.451
30687W        W95672  12.882  12.758   4.354
30688W        W95673   1.225  37.515  13.869
30689W        W95674  25.933  42.439  14.855
30690W        W95675   4.009  10.497   3.244
30691W        W95676  37.021  43.706  13.995
30692W        W95677   0.005  38.840   0.206
30693W        W95678  32.805  28.544   3.827
30694W        W95679   7.700   9.908  11.377
30695W        W95680  27.059  35.474   4.484
30696W        W95681  31.061  12.836   0.565
30697W        W95682  28.604  41.348  11.121
30698W        W95683  31.142  33.478   3.053
30699W        W95684  25.024  24.467   0.401
30700W        W95685  14.151  34.409   1.127
30701W        W95686  37.861  36.837   2.551
30702W        W95687  20.193  23.294   4.378
30703W        W95688  23.816   3.715  10.572
30704W        W95689  34.362  21.232   2.696
30705W        W95690   9.847  13.274  10.721
30706W        W95691  36.748   0.033  13.152
30707W        W95692  18.555  28.003  12.978
30708W        W95693  22.194   3.401   4.382
30709W        W95694   5.771  33.512  12.489
30710W        W95695  41.454  21.422  14.519
30711W        W95696  39.610   6.877  13.950
30712W        W95697  21.095  25.119   3.328
30713W        W95698  17.957   0.987   0.558
30714W        W95699  32.164   2.351  11.291
30715W        W95700  26.988  41.753  14.444
30716W        W95701  31.762  21.080  14.233
30717W        W95702  16.259  31.446  11.565
30718W        W95703  22.576  20.534   2.653
30719W        W95704   7.368  40.472  14.702
30720W        W95705  23.484   3.783  13.048
30721W        W95706  28.628   5.449   2.901
30722W        W95707  43.466  27.173  14.434
30723W        W95708  30.108  20.948  11.163
30724W        W95709  20.487  36.083   5.271
30725W        W95710  30.640  26.104  12.943
30726W        W95711  11.748  10.640  13.636
30727W        W95712  14.286  33.312   0.889
30728W        W95713  37.089  29.694  13.931
30729W        W95714  12.693  39.574   3.834
30730W        W95715   1.310  22.290  13.936
30731W        W95716  41.149  21.637   4.292
30732W        W95717  10.204  14.428   2.329
30733W        W95718  11.753  41.623   4.668
30734W        W95719  18.335  37.881  14.623
30735W        W95720  34.696  41.348  10.941
30736W        W95721   7.228   9.405   3.222
30737W        W95722  30.905  44.935  11.188
30738W        W95723   0.113   5.758   4.093
30739W        W95724  22.574   1.757   3.574
30740W        W95725  22.781  15.606  14.815
30741W        W95726  12.042  18.226   1.335
30742W        W95727  25.995  18.265  14.275
30743W        W95728  31.544   0.510  14.412
30744W        W95729  20.438   5.391   1.291
30745W        W95730  34.534  13.405  12.597
30746W        W95731   4.993   0.762  13.879
30747W        W95732  39.079   3.803  12.649
30748W        W95733  44.440  42.900  13.868
30749W        W95734  20.811  42.267   2.838
30750W        W95735  23.109  20.685   3.400
30751W        W95736  31.198   3.479  13.459
30752W        W95737  36.448   7.577  10.280
30753W        W95738   8.415   6.530   9.780
30754W        W95739  41.107  42.358   2.409
30755W        W95740  33.989  21.462   0.869
30756W        W95741  13.422  20.795  13.451
30757W        W95742  13.184   0.693  14.576
30758W        W95743  16.792  38.567   0.768
30759W        W95744   3.996  40.854   4.661
30760W        W95745  17.374  25.869   0.258
30761W        W95746  26.495   9.764   4.545
30762W        W95747   4.467  41.863  14.500
30763W        W95748  23.445  33.819  14.003
30764W        W95749   3.374   1.283  13.990
30765W        W95750  26.990  42.510   0.796
30766W        W95751  39.475   6.384   3.523
30767W        W95752   7.187  18.782   1.592
30768W        W95753   1.364  24.482  10.741
30769W        W95754  31.737   1.847   1.845
30770W        W95755  12.792  40.823  13.824
30771W        W95756  35.100  12.890   5.241
30772W        W95757  27.922  36.146  13.393
30773W        W95758  12.618  18.244   3.008
30774W        W95759  12.842  19.742  13.446
30775W        W95760  27.749  28.375  11.364
30776W        W95761  39.536  10.435   0.210
30777W        W95762   0.297  42.266  13.867
30778W        W95763  25.770  39.399   2.214
30779W        W95764  26.253   8.607   0.550
30780W        W95765  33.840  21.707  13.127
30781W        W95766  17.809  25.049  10.360
30782W        W95767  31.760  19.143  11.107
30783W        W95768  27.747  20.582   0.468
30784W        W95769  33.132  44.036   1.396
30785W        W95770  21.955  13.081   4.640
30786W        W95771  17.146  13.682  11.113
30787W        W95772   9.116  33.427  13.438
30788W        W95773  43.295  12.343   2.759
30789W        W95774  10.550   3.961   3.388
30790W        W95775  26.561  33.099   4.131
30791W        W95776  36.367  12.293  11.823
30792W        W95777  24.077  10.295  14.309
30793W        W95778  11.126  36.014  11.657
30794W        W95779  39.695   7.634   0.447
30795W        W95780  37.833  29.371   5.028
30796W        W95781  28.545  23.764  13.502
30797W        W95782  37.353  28.499  13.785
30798W        W95783  44.076  37.005   0.472
30799W        W95784  35.102  12.162  11.528
30800W        W95785  20.694  30.580   0.976
30801W        W95786  16.091  44.980  11.046
30802W        W95787  24.036  43.446  12.925
30803W        W95788  35.362   9.235   1.511
30804W        W95789   5.442  38.265  12.907
30805W        W95790  44.878   4.110  13.981
30806W        W95791   5.430  17.536   3.416
30807W        W95792  14.701  35.912  13.988
30808W        W95793  25.529  33.247  11.668
30809W        W95794   6.220   1.127   1.271
30810W        W95795   5.931  10.204  11.181
30811W        W95796   8.602  37.553  14.367
30812W        W95797  10.239  42.057  10.747
30813W        W95798  23.678  40.790   1.774
30814W        W95799  17.968  30.588   0.294
30815W        W95800   7.463  20.051   1.312
30816W        W95801  44.881  41.759  14.166
30817W        W95802   6.629  14.816   4.683
30818W        W95803  18.653  11.750  11.623
30819W        W95804  28.502  37.043  10.661
30820W        W95805  13.273  20.221  11.298
30821W        W95806   2.199  15.596  13.998
30822W        W95807   8.792   7.688  14.494
30823W        W95808   1.775   3.226  12.011
30824W        W95809  13.855  13.583  13.508
30825W        W95810   8.582  10.355   4.106
30826W        W95811  18.711  12.049   2.211
30827W        W95812  35.357  23.002   4.904
30828W        W95813  30.241   2.454  10.682
30829W        W95814  10.639   7.920  11.982
30830W        W95815   6.225  37.897  14.441
30831W        W95816  34.774  28.627   4.098
30832W        W95817  17.528  37.407   2.909
30833W        W95818  43.540  25.472   1.726
30834W        W95819  40.619   4.775   2.413
30835W        W95820   2.801  13.713   2.240
30836W        W95821  40.068   9.057  13.773
30837W        W95822  18.128  27.624  13.619
30838W        W95823  36.536  24.467   3.270
30839W        W95824  28.362  29.088  14.432
30840W        W95825   2.482   5.872  11.635
30841W        W95826  30.915  24.654   0.837
30842W        W95827  21.411   6.900   2.563
30843W        W95828  26.391   6.917   3.524
30844W        W95829  29.610  14.417   2.545
30845W        W95830  10.358  40.523  14.987
30846W        W95831  20.102  14.253   2.288
30847W        W95832  42.430  21.846  14.017
30848W        W95833  44.295  20.197   1.938
30849W        W95834   5.830  15.948   4.747
30850W        W95835   6.636  30.595  13.431
30851W        W95836  15.206   4.939   0.111
30852W        W95837  12.685  32.029  12.855
30853W        W95838  33.305  31.549   1.880
30854W        W95839  15.542  38.937  10.759
30855W        W95840   3.575  17.206   3.731
30856W        W95841  19.309   6.819   0.935
30857W        W95842  25.077  15.403  13.873
30858W        W95843   7.683   5.337   2.425
30859W        W95844   4.249  19.709   3.720
30860W        W95845  17.715  44.516   3.790
30861W        W95846  31.432  41.273  14.157
30862W        W95847  32.556  43.426  13.885
30863W        W95848   4.946  10.725  11.510
30864W        W95849  13.737  12.779   3.825
30865W        W95850   0.201   7.955  12.434
30866W        W95851  28.490  26.567  12.028
30867W        W95852  27.439  20.290   0.811
30868W        W95853  15.827  28.173   2.103
30869W        W95854  33.168   5.065   5.200
30870W        W95855  15.491  36.862  13.970
30871W        W95856   9.783  29.575   4.496
30872W        W95857   5.277   3.527  11.593
30873W        W95858  35.283  12.072   9.767
30874W        W95859  34.568  26.708   0.425
30875W        W95860  10.788   5.027   0.833
30876W        W95861  26.142  29.707  11.700
30877W        W95862  40.438  20.328   4.103
30878W        W95863  20.086  36.731  13.759
30879W        W95864  28.667  12.778   1.881
30880W        W95865   5.730  17.474   4.774
30881W        W95866  32.923  38.363   4.068
30882W        W95867  24.929  42.964   3.627
30883W        W95868  12.592  11.901  14.825
30884W        W95869  15.962  43.912   1.577
30885W        W95870  35.939  14.397  14.901
30886W        W95871  28.847  40.960  13.567
30887W        W95872  27.947  38.389  14.018
30888W        W95873  37.830  19.561  10.169
30889W        W95874  30.340  25.956  11.438
30890W        W95875  41.180  15.937   4.531
30891W        W95876   9.986  39.320  13.466
30892W        W95877  24.488  13.683   3.934
30893W        W95878   7.940   2.479   3.876
30894W        W95879  33.468  36.682  12.480
30895W        W95880  13.592   7.841  12.490
30896W        W95881  20.346  20.262   1.896
30897W        W95882   4.684  14.610  13.531
30898W        W95883  28.717  36.479   3.751
30899W        W95884  26.717  38.332   3.152
30900W        W95885   5.075  40.236  14.080
30901W        W95886  32.098  36.021   1.714
30902W        W95887  33.509  27.935  11.034
30903W        W95888  39.478  26.287   0.806
30904W        W95889   8.144  22.691  11.990
30905W        W95890  26.203  31.929   1.517
30906W        W95891  28.863  41.830  11.057
30907W        W95892  38.732  24.646  11.505
30908W        W95893  34.948   3.467   3.321
30909W        W95894   0.908  16.201   0.353
30910W        W95895  29.839  13.244  14.328
30911W        W95896   7.859  24.438  12.503
30912W        W95897  21.859  37.614   0.318
30913W        W95898  37.746  11.191   4.691
30914W        W95899   7.695  20.222   0.874
30915W        W95900  11.068   7.485  14.829
30916W        W95901   1.359  20.191   4.959
30917W        W95902  33.179  10.301   1.961
30918W        W95903  24.503  43.137   1.304
30919W        W95904  22.795  35.467  12.404
30920W        W95905  31.922   5.210  10.488
30921W        W95906  17.382  21.297  11.971
30922W        W95907  20.683  36.374  13.484
30923W        W95908  13.270  41.372  11.144
30924W        W95909  15.772  40.445  10.401
30925W        W95910  38.753  28.041  13.039
30926W        W95911  38.605  36.327  11.602
30927W        W95912  15.146   2.427   0.936
30928W        W95913  23.716  16.268   0.728
30929W        W95914  37.143   4.807   3.170
30930W        W95915  42.821   7.860   1.165
30931W        W95916  32.631   2.423  14.803
30932W        W95917  36.195   0.368  14.539
30933W        W95918  42.929  31.147   1.597
30934W        W95919  22.708  19.905  14.098
30935W        W95920  41.434  11.401  12.960
30936W        W95921  15.224  42.827  11.838
30937W        W95922   4.293  41.301  13.044
30938W        W95923  24.980  12.634   2.263
30939W        W95924   6.186   1.288  11.171
30940W        W95925  24.636  26.480  13.912
30941W        W95926  27.166   6.762  11.941
30942W        W95927  28.352  23.159   1.547
30943W        W95928  16.080  23.948   2.705
30944W        W95929  36.698  35.957   3.732
30945W        W95930  18.054  11.081   3.654
30946W        W95931   5.232  20.806  14.911
30947W        W95932  33.065  24.726   1.322
30948W        W95933   6.193  38.634  14.897
30949W        W95934  19.011  10.357  13.340
30950W        W95935  44.085  18.054   2.778
30951W        W95936  23.008  29.511   4.591
30952W        W95937  27.040   7.845  12.982
30953W        W95938  18.415  26.943   9.962
30954W        W95939  23.393  31.341  11.545
30955W        W95940  33.154  11.013   2.827
30956W        W95941  25.725   2.426   3.172
30957W        W95942  20.144  13.686  13.505
30958W        W95943  35.633  34.895  10.686
30959W        W95944  29.194  43.146  12.092
30960W        W95945   1.201   9.909   4.132
30961W        W95946  15.627  21.153  12.626
30962W        W95947  10.366  21.322   2.414
30963W        W95948  26.567  25.505   0.414
30964W        W95949  12.195  35.898  12.928
30965W        W95950  28.452   8.241  13.449
30966W        W95951   0.501   5.986   4.922
30967W        W95952   8.153  15.699  13.464
30968W        W95953   8.144  28.276  11.135
30969W        W95954  28.892  25.078   3.695
30970W        W95955  29.688  29.822   1.315
30971W        W95956  42.794   5.987  14.820
30972W        W95957   2.157  16.409  10.578
30973W        W95958  29.514  20.167  12.448
30974W        W95959   2.444  31.261   4.712
30975W        W95960  11.626  29.710  11.261
30976W        W95961   4.226  21.827   0.379
30977W        W95962  17.979   4.369   2.586
30978W        W95963  19.598  12.719  12.649
30979W        W95964  19.810   8.335  13.883
30980W        W95965   2.108  39.247  12.526
30981W        W95966  41.384  23.803  14.777
30982W        W95967  37.162  40.532  10.707
30983W        W95968  16.599   7.159   5.321
30984W        W95969   3.855   4.831   4.166
30985W        W95970  15.816  24.318   4.150
30986W        W95971   1.229   5.888   2.153
30987W        W95972  16.120  18.766   3.205
30988W        W95973  22.075  14.577   0.923
30989W        W95974  42.536   1.513  10.367
30990W        W95975  39.401  38.846  13.102
30991W        W95976  14.550  36.458   4.284
30992W        W95977  35.974  32.145  14.839
30993W        W95978  36.029  40.961   1.633
30994W        W95979   2.488  12.394   2.702
30995W        W95980  38.405  36.994   3.769
30996W        W95981  37.295   4.335  14.294
30997W        W95982  21.004  42.497   1.876
30998W        W95983  39.437  12.539   3.246
30999W        W95984  15.886   7.236   1.301
31000W        W95985  26.631   0.408   3.697
31001W        W95986  25.104  44.815  13.602
31002W        W95987  28.513  35.487  13.708
31003W        W95988  22.059  42.686  13.714
31004W        W95989  17.109  22.526   1.456
31005W        W95990  44.244  24.613   2.285
31006W        W95991  29.580  11.719   3.064
31007W        W95992   1.761  29.912   2.282
31008W        W95993  21.201   8.669   2.252
31009W        W95994  42.226  40.579   0.904
31010W        W95995  37.285  29.788   0.741
31011W        W95996  32.222  19.797  10.291
31012W        W95997   8.175   8.398   4.567
31013W        W95998  32.104  13.887   2.172
31014W        W95999   5.095   8.321   1.463
31015W        W96000  16.504  31.669  12.966
31016W        W96001  13.565  37.913   3.955
31017W        W96002  26.559  36.542  12.178
31018W        W96003  15.836   3.485   3.156
31019W        W96004  40.817  27.117  14.891
31020W        W96005  42.780  21.050   0.218
31021W        W96006  30.097  43.869  13.423
31022W        W96007  35.665  40.322   2.123
31023W        W96008  17.547  22.180   0.410
31024W        W96009  22.893  22.937   1.238
31025W        W96010   4.494   0.467  12.002
31026W        W96011  25.535   7.118   2.241
31027W        W96012  30.948  32.083   3.285
31028W        W96013  26.274   6.433   3.351
31029W        W96014  41.449  20.333  12.467
31030W        W96015   4.431  22.516   3.292
31031W        W96016  32.940  35.257   2.018
31032W        W96017  15.192  37.575   0.784
31033W        W96018  31.898  34.069  11.325
31034W        W96019  36.540   5.623   1.443
31035W        W96020  26.803  12.789  14.898
31036W        W96021  17.348  25.026  13.712
31037W        W96022   7.129  17.509  11.054
31038W        W96023  33.584  32.364  11.418
31039W        W96024  21.356  33.198  13.417
31040W        W96025  22.212   6.058  11.469
31041W        W96026  40.270  14.352   3.222
31042W        W96027  17.808  30.736  12.079
31043W        W96028  19.895  17.051   4.120
31044W        W96029  11.805  29.146  12.562
31045W        W96030  43.006  25.692  12.313
31046W        W96031   1.036  26.885   0.885
31047W        W96032  41.280   7.386   0.822
31048W        W96033  43.001  28.098   3.763
31049W        W96034  40.463  26.866   4.876
31050W        W96035   7.765  42.475  12.906
31051W        W96036  39.504  12.022  10.705
31052W        W96037  34.741  42.771   2.771
31053W        W96038  41.105   5.273  14.884
31054W        W96039  31.724  20.761   0.420
31055W        W96040  32.617   8.581   3.575
31056W        W96041   4.560  33.636   2.661
31057W        W96042  24.247   8.270  13.624
31058W        W96043  12.624  28.577  14.758
31059W        W96044  41.540  23.099   5.400
31060W        W96045  33.897   1.798  10.515
31061W        W96046  21.555   0.342  14.831
31062W        W96047  12.709  33.274   0.353
31063W        W96048  43.953   2.561  12.342
31064W        W96049   6.618  42.810  13.966
31065W        W96050  14.665   7.312  14.126
31066W        W96051  41.384  27.026  14.045
31067W        W96052   5.659  27.754   2.985
31068W        W96053   8.891  27.541  13.864
31069W        W96054  29.337  20.045   1.778
31070W        W96055   3.534  22.318   2.672
31071W        W96056   5.472  28.072  13.921
31072W        W96057  20.027  31.118  13.485
31073W        W96058   1.739  41.042   3.206
31074W        W96059  15.611  31.111  11.171
31075W        W96060  15.290  18.368   0.866
31076W        W96061  28.369  28.695   3.604
31077W        W96062   8.942  13.091   1.409
31078W        W96063  22.538  11.195  10.275
31079W        W96064  34.607  43.744  14.781
31080W        W96065  21.222  36.240  14.265
31081W        W96066  19.670  25.879   0.838
31082W        W96067  23.968  13.758   4.584
31083W        W96068  29.153  41.410   0.657
31084W        W96069  30.012  38.605  12.175
31085W        W96070   3.843  30.534  10.652
31086W        W96071   6.232   0.043   3.688
31087W        W96072  26.075  12.817  11.110
31088W        W96073  13.431   7.760  10.977
31089W        W96074   0.950   6.731   0.826
31090W        W96075   7.715  29.217   3.185
31091W        W96076  10.182   9.739  12.042
31092W        W96077  14.367  25.624   3.400
31093W        W96078  20.886  37.851  12.486
31094W        W96079  26.902  26.191   0.030
31095W        W96080  31.871   5.279   0.467
31096W        W96081  19.471   8.648  13.596
31097W        W96082  37.535  28.516   3.124
31098W        W96083  39.259  35.868  14.964
31099W        W96084  34.499  25.047   0.216
31100W        W96085   5.415  43.245   2.363
31101W        W96086  16.525  32.497   2.753
31102W        W96087   4.477  16.504   2.422
31103W        W96088   1.325  14.298  10.897
31104W        W96089  20.136  37.796   2.937
31105W        W96090   9.456  22.618   0.910
31106W        W96091  27.386  10.290  13.917
31107W        W96092   8.768  38.352   3.160
31108W        W96093  41.132  13.740   0.997
31109W        W96094  36.033   9.454  10.661
31110W        W96095  40.084  37.599   1.686
31111W        W96096  42.945  38.511   0.917
31112W        W96097  12.286  40.541   0.530
31113W        W96098   7.475  40.051  11.516
31114W        W96099  41.866  17.625   1.882
31115W        W96100  19.136  44.221   4.544
31116W        W96101  14.052  16.618   1.456
31117W        W96102  36.056  30.341   4.776
31118W        W96103  30.929  13.250   2.148
31119W        W96104  44.813  44.765   0.773
31120W        W96105  33.489  24.742  11.499
31121W        W96106  19.704   1.180   0.007
31122W        W96107  43.098  44.511  12.055
31123W        W96108   6.747  16.909   0.437
31124W        W96109  35.501  12.534   2.769
31125W        W96110   8.117  10.003   4.172
31126W        W96111  29.472  19.158  13.411
31127W        W96112  32.550  24.185   4.334
31128W        W96113  44.012  36.976  12.661
31129W        W96114   2.548  26.433   3.607
31130W        W96115   5.022  19.168  14.111
31131W        W96116   4.774   7.867   1.699
31132W        W96117  16.752   3.800  10.755
31133W        W96118   8.226  41.344   2.554
31134W        W96119  41.829  11.669  12.791
31135W        W96120  11.214   5.078   0.509
31136W        W96121   9.848  21.171  11.999
31137W        W96122   0.594  11.236  12.203
31138W        W96123   2.000  33.931   0.382
31139W        W96124  22.524   0.334   0.765
31140W        W96125  16.391  36.572   2.366
31141W        W96126   0.973  30.555  13.871
31142W        W96127  12.817  41.318   3.365
31143W        W96128  28.753  32.337   2.403
31144W        W96129  39.979  35.663  12.489
31145W        W96130   1.942  14.124   0.743
31146W        W96131  38.993   0.541   1.961
31147W        W96132   1.152   1.666   9.563
31148W        W96133  33.495  12.563  14.103
31149W        W96134  42.866  20.535   1.863
31150W        W96135  22.462  31.293   0.272
31151W        W96136  20.866   6.238  11.181
31152W        W96137  44.779   0.538   0.009
31153W        W96138   6.983  27.222   0.382
31154W        W96139   9.152  39.769  13.536
31155W        W96140  43.964  15.135   3.487
31156W        W96141  24.091  41.543   2.892
31157W        W96142   4.691  21.428   2.137
31158W        W96143  32.355  36.148  13.291
31159W        W96144   1.436  14.056   0.984
31160W        W96145  30.329  10.852  14.297
31161W        W96146  24.587   1.519  11.454
31162W        W96147  25.010  15.534  14.846
31163W        W96148  40.762   7.715  12.000
31164W        W96149  34.270  10.885   5.048
31165W        W96150  34.801  32.067   2.764
31166W        W96151  27.014  17.826  13.885
31167W        W96152  18.743  26.401   2.858
31168W        W96153   2.997  44.298   3.209
31169W        W96154  34.680   6.649  12.124
31170W        W96155   6.902  20.233   2.212
31171W        W96156   0.405  38.545  12.692
31172W        W96157   6.661   4.899   2.677
31173W        W96158  14.220  21.096  12.376
31174W        W96159  30.088   0.737  13.444
31175W        W96160   1.792  11.191   4.244
31176W        W96161   2.850  34.438   4.067
31177W        W96162  11.077  41.390  11.448
31178W        W96163  13.216  26.231   0.432
31179W        W96164  17.565   9.426   3.091
31180W        W96165   6.776  18.777   3.331
31181W        W96166  38.819   7.371  14.656
31182W        W96167   3.950  24.162  12.942
31183W        W96168  24.572  27.903  11.241
31184W        W96169  10.887  24.026   1.191
31185W        W96170  27.806  24.478   3.718
31186W        W96171  39.377  40.095  11.160
31187W        W96172  16.099  16.292   2.887
31188W        W96173  11.343   8.341  14.795
31189W        W96174   0.907  33.567   1.187
31190W        W96175  33.561   1.930  12.367
31191W        W96176  33.398  36.853   2.950
31192W        W96177   9.471   5.024   4.591
31193W        W96178  39.380  10.262   4.520
31194W        W96179  40.028   1.934   4.020
31195W        W96180   9.439  41.801   2.193
31196W        W96181  36.048  40.854   1.138
31197W        W96182   9.662  33.559  12.602
31198W        W96183  17.070  18.575  13.797
31199W        W96184  23.982  24.300  11.629
31200W        W96185  19.586  23.588  12.375
31201W        W96186   8.250  39.973   0.328
31202W        W96187  10.449  19.950  14.690
31203W        W96188  44.887  22.489  11.533
31204W        W96189  22.554  29.957   4.950
31205W        W96190   2.525  30.415   4.092
31206W        W96191  24.248  33.883  13.047
31207W        W96192  41.203  10.676  11.632
31208W        W96193  41.826  35.147   0.830
31209W        W96194  19.006   3.007   3.144
31210W        W96195  22.127  22.652   1.177
31211W        W96196   9.310  41.459   0.867
31212W        W96197  35.209  24.742   4.807
31213W        W96198   6.514  29.265  14.456
31214W        W96199  10.441  11.886   4.114
31215W        W96200  12.380  12.836   0.671
31216W        W96201  33.415   1.966  13.364
31217W        W96202  30.708  17.745  11.597
31218W        W96203  44.369  13.083   2.418
31219W        W96204  15.491  30.745  11.523
31220W        W96205  31.871  23.232  10.731
31221W        W96206  40.272  12.300  12.367
31222W        W96207   7.246  37.723   0.733
31223W        W96208  40.321  29.232   4.520
31224W        W96209  17.738  29.454   1.629
31225W        W96210  40.104   7.263   1.709
31226W        W96211   3.614  10.209  12.814
31227W        W96212  44.059  24.435  12.600
31228W        W96213   6.082  14.795  13.321
31229W        W96214  16.400  22.151  10.720
31230W        W96215  21.645  42.995   1.333
31231W        W96216  35.225   2.207  14.832
31232W        W96217  31.585  32.126   0.452
31233W        W96218   4.816  44.819  10.571
31234W        W96219  37.154  34.874  10.544
31235W        W96220  23.016   1.000   2.726
31236W        W96221   1.327  38.434   4.429
31237W        W96222  38.541  38.961  13.873
31238W        W96223   7.575  14.542   0.807
31239W        W96224  40.508  23.243  11.094
31240W        W96225  21.962  32.963   1.339
31241W        W96226   5.313  15.334  11.047
31242W        W96227  36.131  31.600   3.738
31243W        W96228   2.877  24.006   1.490
31244W        W96229   5.798  24.983   4.956
31245W        W96230  15.365  29.198  13.971
31246W        W96231  16.795  32.074   3.796
31247W        W96232   2.850  29.881   3.766
31248W        W96233  19.156   5.355  12.155
31249W        W96234  43.961   6.902   3.716
31250W        W96235  11.203  44.397  12.017
31251W        W96236  29.854   9.436   3.661
31252W        W96237  15.420  44.436  11.155
31253W        W96238  17.785  25.435   4.286
31254W        W96239  25.177  23.007  10.615
31255W        W96240  24.720  14.717   4.169
31256W        W96241  44.368   9.781  13.982
31257W        W96242  22.346  29.816  14.906
31258W        W96243  37.937   9.300  11.967
31259W        W96244  14.897  44.448  11.125
31260W        W96245   8.324  36.150  14.842
31261W        W96246  12.647   6.715   1.171
31262W        W96247  30.396  18.351   2.465
31263W        W96248  28.163  36.830  10.338
31264W        W96249  12.098   2.864  11.220
31265W        W96250  14.088  41.881   3.252
31266W        W96251  20.327  23.020   4.814
31267W        W96252  29.490  15.671  14.778
31268W        W96253   2.507   8.382  14.070
31269W        W96254  11.835  36.933  11.644
31270W        W96255  30.292   2.306  11.213
31271W        W96256  43.661  16.554  10.268
31272W        W96257   0.993   6.655   3.682
31273W        W96258  42.802  28.066  11.839
31274W        W96259   5.833   9.373   4.331
31275W        W96260  34.179  17.523   4.533
31276W        W96261  39.523  26.453   2.492
31277W        W96262  34.876  43.053  11.930
31278W        W96263   4.869  35.152  12.855
31279W        W96264  42.431  33.369  12.159
31280W        W96265  40.788  36.708   2.260
31281W        W96266  33.084  24.850   1.859
31282W        W96267  44.441  26.004   4.182
31283W        W96268  31.641  16.606  12.782
31284W        W96269   7.124  28.670  12.626
31285W        W96270  27.310   8.451   0.517
31286W        W96271  38.633  24.121  13.955
31287W        W96272   5.604  33.182  12.112
31288W        W96273   1.806  21.048   3.055
31289W        W96274  43.099  27.696   3.478
31290W        W96275  36.426  34.846   3.802
31291W        W96276  31.495   0.708  10.984
31292W        W96277  29.147  22.227  14.539
31293W        W96278   0.774   1.472   3.450
31294W        W96279   8.298   0.722  12.854
31295W        W96280  20.298  38.090  13.377
31296W        W96281   5.505  44.683  11.919
31297W        W96282  13.763  43.325  12.564
31298W        W96283  42.491  38.374   1.876
31299W        W96284  15.226   9.854  12.731
31300W        W96285  37.585  18.753  13.021
31301W        W96286   9.660  41.601  11.389
31302W        W96287  44.792  21.230  13.941
31303W        W96288  17.360  11.735   4.567
31304W        W96289  11.747  21.817   2.350
31305W        W96290  29.943  32.180  12.934
31306W        W96291  42.272  23.177   1.424
31307W        W96292  30.937   9.776  10.471
31308W        W96293  14.025  39.048  12.786
31309W        W96294  41.426   4.401  13.307
31310W        W96295  32.337   3.314   1.624
31311W        W96296   8.246  31.980  11.544
31312W        W96297  23.680  15.747  11.722
31313W        W96298  21.302  39.470   4.614
31314W        W96299  23.277   5.739  10.660
31315W        W96300  24.354   4.667   2.133
31316W        W96301  24.950  39.500   0.474
31317W        W96302  27.611  22.689  14.856
31318W        W96303   2.004  24.755  12.097
31319W        W96304   1.215  12.430  12.842
31320W        W96305  38.303  16.302   0.535
31321W        W96306  40.465  31.650   0.984
31322W        W96307  12.090  44.311  11.101
31323W        W96308  24.436   1.512  13.768
31324W        W96309  41.590  14.759  10.613
31325W        W96310  36.151  38.050   1.384
31326W        W96311  11.121  41.155  12.133
31327W        W96312   3.872   8.957  14.883
31328W        W96313   3.694  41.246  14.380
31329W        W96314   1.438  39.339   4.768
31330W        W96315  37.073   5.333   3.772
31331W        W96316  31.371  36.334   4.717
31332W        W96317  34.781  37.565  13.456
31333W        W96318  18.514  33.760   0.187
31334W        W96319  23.692  18.771   3.520
31335W        W96320   0.775  19.488  11.005
31336W        W96321  36.525  23.354   4.189
31337W        W96322  12.052  41.256  10.462
31338W        W96323  44.482  39.136   2.735
31339W        W96324   5.934  42.975  11.143
31340W        W96325   5.245  43.114  13.945
31341W        W96326   3.230   1.235   2.675
31342W        W96327  12.105  40.600   4.247
31343W        W96328   4.174  34.923  11.094
31344W        W96329   2.146  42.637  13.436
31345W        W96330  38.976   1.095   0.563
31346W        W96331  23.805  40.847  12.508
31347W        W96332  12.103  18.137   2.245
31348W        W96333  14.080  19.229  10.693
31349W        W96334   9.118  37.778  13.996
31350W        W96335  20.715  44.399  11.512
31351W        W96336  17.019   7.401   3.616
31352W        W96337  17.095   5.348   1.940
31353W        W96338  18.572   5.990  13.022
31354W        W96339   8.763  35.343   4.178
31355W        W96340  25.219   3.331   1.151
31356W        W96341  32.201  31.431  11.549
31357W        W96342  17.064  11.768   3.195
31358W        W96343  39.874  30.973  13.251
31359W        W96344  37.877  31.062   2.621
31360W        W96345  23.094  12.273  11.818
31361W        W96346   3.821  19.189  14.331
31362W        W96347   9.415  21.648  12.765
31363W        W96348  39.517   9.624  13.521
31364W        W96349  24.589  31.626   2.597
31365W        W96350  23.612  13.381   1.727
31366W        W96351  25.972   8.162   2.752
31367W        W96352  15.259  10.015   2.093
31368W        W96353  16.299   2.816   2.740
31369W        W96354  14.758  25.094   2.823
31370W        W96355   0.391  10.112   4.625
31371W        W96356  22.100  16.010  13.429
31372W        W96357  35.136  19.600   0.854
31373W        W96358  25.979  19.990  13.424
31374W        W96359  39.081  38.567   1.294
31375W        W96360   2.121  25.507   2.379
31376W        W96361  24.640  43.632   1.302
31377W        W96362  36.502  36.540   3.113
31378W        W96363  25.032  30.315  12.412
31379W        W96364  22.736  39.371  11.137
31380W        W96365   2.695  36.479   3.147
31381W        W96366   2.337  11.719   1.898
31382W        W96367  17.587  17.148   3.435
31383W        W96368  24.507  20.347  14.380
31384W        W96369  12.339  18.576   3.727
31385W        W96370  40.803  13.178   3.479
31386W        W96371   2.864  44.001  14.899
31387W        W96372  28.475   5.326  10.815
31388W        W96373  34.871  11.175   2.054
31389W        W96374  24.482  12.413  10.780
31390W        W96375   9.203  17.732   1.323
31391W        W96376  11.183  28.255  14.139
31392W        W96377  22.714   1.846   2.056
31393W        W96378  34.340  14.319  10.720
31394W        W96379   2.319  33.412   0.076
31395W        W96380  21.826   1.718   5.175
31396W        W96381  19.635  17.323  13.069
31397W        W96382  27.164  22.691   0.711
31398W        W96383   2.826   0.433  11.554
31399W        W96384  36.869   4.673   4.566
31400W        W96385   7.820  44.438   3.891
31401W        W96386  34.944  37.038   4.452
31402W        W96387  23.815   1.007   3.153
31403W        W96388  10.294  17.492   0.541
31404W        W96389  44.220  14.903   2.769
31405W        W96390  31.838  16.677   1.332
31406W        W96391  23.163  38.337  11.531
31407W        W96392  24.788  41.400   3.768
31408W        W96393   3.350  22.148  13.899
31409W        W96394  32.756  27.004  13.865
31410W        W96395  15.630   6.802  12.730
31411W        W96396  41.497   3.876   0.354
31412W        W96397  30.449  37.166   3.777
31413W        W96398  19.302  24.006   2.807
31414W        W96399  37.518  22.752  11.218
31415W        W96400  26.176  32.623   4.942
31416W        W96401   5.390  26.085  11.749
31417W        W96402  32.570  36.497   3.214
31418W        W96403  13.841  19.123  12.956
31419W        W96404  41.993   9.720   4.789
31420W        W96405  24.486  34.287   4.066
31421W        W96406  23.559  22.170  11.898
31422W        W96407  21.268  12.446   0.986
31423W        W96408   2.000  30.600  12.098
31424W        W96409  23.125  28.031   4.852
31425W        W96410  21.267  27.390  11.620
31426W        W96411  22.199  15.607   4.140
31427W        W96412  14.760  28.734   2.029
31428W        W96413  38.027  13.395   1.834
31429W        W96414  32.886  24.654   4.410
31430W        W96415  25.154  38.781   4.513
31431W        W96416  32.154  25.576   1.985
31432W        W96417   4.411  30.817   2.483
31433W        W96418  27.337   9.167   3.321
31434W        W96419  30.129  29.142   1.827
31435W        W96420  29.185   5.020  10.239
31436W        W96421  16.875  40.517  11.995
31437W        W96422   7.779  26.715  12.035
31438W        W96423  35.547  44.892   2.758
31439W        W96424  19.546   5.664   1.282
31440W        W96425  17.146  12.870  13.563
31441W        W96426   8.165  26.974   2.705
31442W        W96427  31.038   0.835   4.627
31443W        W96428  40.677   6.135   4.103
31444W        W96429  10.481  33.571   4.500
31445W        W96430  35.493   3.879  14.085
31446W        W96431   4.176  32.098   3.167
31447W        W96432   4.473   4.755  13.540
31448W        W96433  40.473  13.783  13.433
31449W        W96434  40.373  20.241  13.860
31450W        W96435   4.477  24.740   0.378
31451W        W96436  27.241  35.043  14.997
31452W        W96437  26.108   6.730  11.018
31453W        W96438  27.040  17.844  12.963
31454W        W96439  42.970   4.560  14.963
31455W        W96440  14.417  14.608  14.299
31456W        W96441  16.521  21.502   0.993
31457W        W96442  18.828  10.718   4.595
31458W        W96443  22.946   8.675  11.962
31459W        W96444  33.711   6.960   4.017
31460W        W96445  41.781  36.436   3.168
31461W        W96446  35.492  26.488   0.361
31462W        W96447  30.442  29.767   3.208
31463W        W96448   6.207  10.584   4.133
31464W        W96449  33.684  28.801   1.267
31465W        W96450  31.096  26.941   4.235
31466W        W96451  15.431  23.113  14.033
31467W        W96452  21.059  41.319  11.306
31468W        W96453  37.600   0.234  13.304
31469W        W96454  44.331  35.402  14.122
31470W        W96455  13.348   3.013   0.723
31471W        W96456  27.452  42.078  11.419
31472W        W96457   2.704  15.242  14.561
31473W        W96458   6.180  21.519  11.795
31474W        W96459   3.746  43.864  10.733
31475W        W96460  30.652  32.599   1.930
31476W        W96461  41.974  12.875   2.804
31477W        W96462  24.159   4.139   0.799
31478W        W96463  27.447  27.463   0.246
31479W        W96464  31.427  40.361  13.985
31480W        W96465   9.877  28.691   3.305
31481W        W96466   2.489  22.276   4.071
31482W        W96467  44.422  19.523   3.680
31483W        W96468  32.103   5.858  11.117
31484W        W96469  19.748   0.818  11.232
31485W        W96470   5.463  15.531   4.786
31486W        W96471   5.050  18.667  12.891
31487W        W96472  42.300   5.857  10.756
31488W        W96473  44.348   5.875   0.309
31489W        W96474   1.085  44.634   2.675
31490W        W96475  21.266  33.452  10.074
31491W        W96476  29.413  41.461   3.318
31492W        W96477  13.720  18.160   4.145
31493W        W96478   0.495  42.531  11.221
31494W        W96479   8.428   8.363   1.281
31495W        W96480  13.383   7.443   3.757
31496W        W96481  33.402   0.274  14.531
31497W        W96482   6.713  26.504   2.661
31498W        W96483   7.223  40.272  11.101
31499W        W96484  38.481  21.517  12.406
31500W        W96485   2.348   4.428  12.468
31501W        W96486  18.151  32.623  11.525
31502W        W96487  27.188   8.715  12.392
31503W        W96488  13.777  11.640   1.454
31504W        W96489  28.013  32.973  12.369
31505W        W96490  42.824  21.418  13.381
31506W        W96491  35.984  26.552  11.704
31507W        W96492   5.411   2.211   4.555
31508W        W96493   7.745  23.537  11.567
31509W        W96494  11.417  40.981  14.967
31510W        W96495  18.315   7.417   3.087
31511W        W96496  16.549  24.157  14.900
31512W        W96497  17.819  32.560   3.204
31513W        W96498  17.072   8.184  14.466
31514W        W96499  16.346  32.544  12.955
31515W        W96500   2.785   8.134  14.463
31516W        W96501  19.037  43.908  10.739
31517W        W96502   2.496  36.103  12.476
31518W        W96503   4.832  14.780  10.519
31519W        W96504  16.841  27.720   0.274
31520W        W96505  28.101  39.089   1.150
31521W        W96506   1.779   0.911  12.875
31522W        W96507  38.566  30.097   2.601
31523W        W96508   7.694  16.023  12.058
31524W        W96509  14.518  14.579   2.273
31525W        W96510  33.354   3.420  11.567
31526W        W96511  15.704  39.773   0.581
31527W        W96512  29.420  37.363  13.018
31528W        W96513  16.430  23.344  13.863
31529W        W96514   3.349  17.312  12.293
31530W        W96515  15.625  40.235   0.356
31531W        W96516   8.165  10.456  11.973
31532W        W96517  20.192  30.482   4.110
31533W        W96518  42.555  44.137   1.550
31534W        W96519   4.838  42.570  13.419
31535W        W96520  14.303  19.151   0.916
31536W        W96521  42.552   5.837  13.242
31537W        W96522  37.050  12.655  12.914
31538W        W96523  25.230  22.021   0.400
31539W        W96524  24.754  19.221  13.393
31540W        W96525  15.304  39.367  13.395
31541W        W96526  44.667  11.929   2.320
31542W        W96527  34.785  42.984   2.280
31543W        W96528  13.703  11.594  12.072
31544W        W96529   6.213  17.240  14.470
31545W        W96530  39.571  34.560   0.036
31546W        W96531  32.955  21.256   0.896
31547W        W96532   3.520   9.780  12.180
31548W        W96533   3.472  39.597   1.168
31549W        W96534  16.250   4.261  10.092
31550W        W96535  43.365  32.906  14.786
31551W        W96536  23.113  20.741   0.474
31552W        W96537   5.045  34.395   2.857
31553W        W96538  28.537  43.798  13.866
31554W        W96539  34.054  43.210   1.233
31555W        W96540  38.787   4.167   4.500
31556W        W96541  23.586  44.226  10.766
31557W        W96542  34.533  31.618  13.489
31558W        W96543  40.302  33.728  12.509
31559W        W96544   6.326   2.339  10.478
31560W        W96545  44.950  15.900  12.420
31561W        W96546  34.491  11.225   3.635
31562W        W96547  30.647  18.807   1.638
31563W        W96548  21.379  35.868   4.238
31564W        W96549  10.578  27.682   0.993
31565W        W96550  38.575   9.074  14.356
31566W        W96551  16.507  36.630  14.855
31567W        W96552  26.138  19.205   1.999
31568W        W96553  31.470   4.944   0.510
31569W        W96554  17.371  25.231  11.646
31570W        W96555  20.327   4.481   4.939
31571W        W96556  18.318  30.724   2.718
31572W        W96557  19.602  13.300   2.226
31573W        W96558   5.210   6.835   4.828
31574W        W96559  13.325  27.003  11.516
31575W        W96560   6.421  33.141   0.122
31576W        W96561  40.104  26.820  10.783
31577W        W96562  29.636  40.608  10.811
31578W        W96563  25.108  11.056  11.599
31579W        W96564  43.620  40.323   2.901
31580W        W96565  21.677  30.454   3.114
31581W        W96566  25.774  11.745  12.887
31582W        W96567  13.330  34.903   2.050
31583W        W96568  37.615   2.747   0.754
31584W        W96569  24.126  13.582  13.823
31585W        W96570  26.105   2.506  14.897
31586W        W96571  20.970   9.661   1.165
31587W        W96572   0.660  24.695  11.200
31588W        W96573   4.563   0.194   1.508
31589W        W96574   5.342  15.619  11.946
31590W        W96575  21.976   0.303  13.028
31591W        W96576  38.777   2.461   0.202
31592W        W96577  33.483  39.013   1.712
31593W        W96578  19.043   6.257   4.064
31594W        W96579  29.257  11.908  14.331
31595W        W96580  44.809  10.929   1.309
31596W        W96581  21.368  28.569  12.947
31597W        W96582  25.904   0.444   2.663
31598W        W96583   5.306  25.278  14.804
31599W        W96584   8.595  26.577  13.702
31600W        W96585  37.252  40.915   2.419
31601W        W96586  34.433  41.793  13.366
31602W        W96587  30.056   7.116  12.860
31603W        W96588   9.621  39.774   0.883
31604W        W96589  41.449  25.178  11.835
31605W        W96590  24.760  14.245   4.434
31606W        W96591  32.800  31.111  11.089
31607W        W96592  35.606  41.307  13.102
31608W        W96593  29.802  34.706  14.236
31609W        W96594  27.487   3.851  14.309
31610W        W96595  17.138  23.122   2.341
31611W        W96596  12.819  39.451   0.438
31612W        W96597  28.098  22.608   3.225
31613W        W96598  17.102  17.670  11.587
31614W        W96599  25.451   0.344  12.470
31615W        W96600  36.494   4.945  10.848
31616W        W96601  13.795  42.797   0.622
31617W        W96602   5.887  32.171   4.253
31618W        W96603   8.346  36.894  11.443
31619W        W96604  23.502  34.621   4.125
31620W        W96605  33.530   8.282   1.764
31621W        W96606  33.766   7.308  11.159
31622W        W96607  22.129  34.159   3.229
31623W        W96608  13.171  20.166   2.236
31624W        W96609   8.912  43.342  14.775
31625W        W96610  31.995   0.295   2.424
31626W        W96611  24.708   5.644  14.395
31627W        W96612  24.510  34.412  11.403
31628W        W96613  32.988   2.522   2.303
31629W        W96614   6.323  14.898   2.379
31630W        W96615  43.091   4.867  14.547
31631W        W96616   2.651   9.753  13.933
31632W        W96617  34.408  38.795  12.547
31633W        W96618   3.372  29.433  11.159
31634W        W96619   2.409  37.767   0.202
31635W        W96620  19.723   9.359  13.840
31636W        W96621  28.541  19.349  14.474
31637W        W96622  22.879  29.470   3.737
31638W        W96623  37.297  33.877  13.596
31639W        W96624   8.112  33.513   4.550
31640W        W96625  11.341  42.829   0.372
31641W        W96626  38.445  21.744   4.481
31642W        W96627   7.107  42.919   3.467
31643W        W96628   7.570   5.246  12.774
31644W        W96629  10.745   1.015   2.171
31645W        W96630  32.081  33.354   3.126
31646W        W96631  40.726  26.266  10.503
31647W        W96632  14.935   3.209  10.320
31648W        W96633   3.928   4.940  12.461
31649W        W96634  30.271  14.829   4.218
31650W        W96635  10.407   9.228  13.074
31651W        W96636  42.898  16.936   0.653
31652W        W96637  27.480  43.082  11.176
31653W        W96638   3.769  38.568   3.200
31654W        W96639  16.187  17.603   4.236
31655W        W96640  20.102  17.817   1.701
31656W        W96641  44.868   8.435   4.683
31657W        W96642  15.113  37.933   1.633
31658W        W96643  13.952   3.034   5.011
31659W        W96644  18.299   4.767   2.689
31660W        W96645  14.108   3.196   1.532
31661W        W96646  30.205   7.406   4.521
31662W        W96647  28.189   5.140  11.673
31663W        W96648   8.470  25.675  13.566
31664W        W96649   1.150  31.729   0.276
31665W        W96650   7.692  32.503   4.730
31666W        W96651  21.026  15.757  10.526
31667W        W96652  34.044  25.592  13.318
31668W        W96653   0.509   1.821  12.571
31669W        W96654   2.880  22.268  14.765
31670W        W96655  22.236  26.972   0.322
31671W        W96656  18.005   8.375   0.963
31672W        W96657   8.285  24.690   2.213
31673W        W96658  39.264   7.421   0.584
31674W        W96659  18.033  19.295   0.388
31675W        W96660  29.907  12.179   5.080
31676W        W96661  31.650  16.852   0.852
31677W        W96662  19.788   2.915   0.612
31678W        W96663  24.454   8.595  12.844
31679W        W96664  39.272   5.427  14.869
31680W        W96665  33.023  42.785  11.390
31681W        W96666  44.441   8.801  10.996
31682W        W96667   2.590  42.407   1.868
31683W        W96668   7.793  12.129   4.948
31684W        W96669  34.845  44.866   2.967
31685W        W96670  32.572  40.100   2.881
31686W        W96671  30.056   3.934   2.225
31687W        W96672   3.653  15.032   2.650
31688W        W96673  10.526  43.928  10.707
31689W        W96674  23.196  20.347   9.636
31690W        W96675  41.332   6.142   3.501
31691W        W96676  16.629   5.521   3.539
31692W        W96677  26.476  19.553  14.795
31693W        W96678   3.930   8.114   2.266
31694W        W96679  14.849  26.147   1.216
31695W        W96680  27.550  42.793  10.771
31696W        W96681  29.888  31.075  11.543
31697W        W96682  27.448  35.115  14.523
31698W        W96683   8.223  25.000  11.595
31699W        W96684  13.180  36.456  11.663
31700W        W96685   1.449  29.880  14.756
31701W        W96686  28.993  24.803  11.442
31702W        W96687  41.937   2.304  11.646
31703W        W96688  27.503  16.964   0.981
31704W        W96689  23.269  11.853   2.282
31705W        W96690   8.783  20.720  12.123
31706W        W96691   8.825   2.598  13.535
31707W        W96692  27.529   9.250  14.567
31708W        W96693  40.851   9.591  14.371
31709W        W96694  19.248   7.905  12.138
31710W        W96695  41.059  24.681  13.145
31711W        W96696  12.247  10.838   1.861
31712W        W96697  42.968   1.145   0.199
31713W        W96698  35.037  25.889   1.751
31714W        W96699   7.889  32.003   3.570
31715W        W96700  11.895  22.333   3.657
31716W        W96701  11.029  40.131  11.163
31717W        W96702   8.028   1.896  11.408
31718W        W96703  28.104  25.793   4.863
31719W        W96704  31.321  34.067  14.533
31720W        W96705  40.347   2.775   0.316
31721W        W96706  27.903  43.239  12.441
31722W        W96707  23.212  28.545   3.031
31723W        W96708  13.226   8.928   2.819
31724W        W96709   0.871  25.238  12.319
31725W        W96710  25.473  33.597   1.703
31726W        W96711  18.138  15.495   4.983
31727W        W96712  19.498  21.097  12.938
31728W        W96713   1.499   0.123   4.656
31729W        W96714  29.738  24.911  12.492
31730W        W96715  41.444   7.127   3.136
31731W        W96716  30.994  28.148   2.300
31732W        W96717   7.137  31.121  13.388
31733W        W96718  38.441  17.706  10.591
31734W        W96719  12.840  38.939  10.702
31735W        W96720  22.597  26.257  11.581
31736W        W96721   9.439  18.417  10.273
31737W        W96722   4.366  26.615   3.594
31738W        W96723  26.766  31.713  12.558
31739W        W96724  14.890  16.665  12.472
31740W        W96725   1.638  40.711   2.697
31741W        W96726  19.784  31.106   0.898
31742W        W96727  11.282  35.209   0.274
31743W        W96728  27.421  24.647   4.695
31744W        W96729   2.457  13.105   3.257
31745W        W96730  37.001  18.149  11.949
31746W        W96731  24.020  24.802  11.649
31747W        W96732   3.501  31.832  10.986
31748W        W96733  43.140  34.130  10.816
31749W        W96734  44.761  25.551   3.550
31750W        W96735  28.578  11.697   3.269
31751W        W96736  39.991  15.762   0.840
31752W        W96737  19.267  24.329   1.852
31753W        W96738  43.773  15.782   3.334
31754W        W96739  23.250  16.070   0.827
31755W        W96740  38.068   9.437  11.088
31756W        W96741  28.723  39.543  12.363
31757W        W96742   7.639  37.047  10.568
31758W        W96743   7.747  23.494   2.758
31759W        W96744  31.270  40.354   4.193
31760W        W96745  33.013  31.195  11.614
31761W        W96746   3.642  19.132   2.406
31762W        W96747   8.945  39.597   2.256
31763W        W96748  26.197  29.205   2.628
31764W        W96749  36.579  42.317   3.734
31765W        W96750  10.458  15.612  13.172
31766W        W96751  19.175  26.663  10.987
31767W        W96752  37.147   3.950  13.452
31768W        W96753  38.774  30.546  12.360
31769W        W96754  24.956  23.294   4.160
31770W        W96755  23.605  31.365  12.665
31771W        W96756  11.733  37.434   3.179
31772W        W96757  36.812  33.088  11.205
31773W        W96758  13.414  25.491   3.651
31774W        W96759  39.376  20.175   0.896
31775W        W96760  33.227  16.296   2.582
31776W        W96761  32.334   3.230   1.061
31777W        W96762  41.410  33.155  11.930
31778W        W96763  14.539  14.802  13.841
31779W        W96764  37.513   5.208  14.308
31780W        W96765   2.434  14.161   3.230
31781W        W96766  14.283  13.270   3.341
31782W        W96767  11.441  39.599  12.001
31783W        W96768  31.221  31.682  10.560
31784W        W96769   6.604  12.185  13.980
31785W        W96770  41.777  29.825   1.326
31786W        W96771   7.890  10.285  11.111
31787W        W96772  15.223  41.230  12.566
31788W        W96773   7.060  40.516  12.081
31789W        W96774  20.330   2.531  12.633
31790W        W96775  27.936  10.707  13.574
31791W        W96776  13.636  14.069  12.477
31792W        W96777  41.003   1.054  11.135
31793W        W96778  19.957   7.790  11.524
31794W        W96779   2.716  35.910   4.588
31795W        W96780  36.070  36.908   2.333
31796W        W96781   5.238   8.527   2.938
31797W        W96782   8.705   7.734  11.778
31798W        W96783  15.255  44.651  13.850
31799W        W96784  25.911   7.191  12.965
31800W        W96785  14.729  23.153   4.656
31801W        W96786  37.272  33.799   0.680
31802W        W96787   5.617  10.817  10.758
31803W        W96788  21.031  17.217  13.339
31804W        W96789  43.991  29.576   3.217
31805W        W96790  38.044  40.053  14.363
31806W        W96791  27.092  40.406  12.031
31807W        W96792  20.511  24.013   3.626
31808W        W96793   3.786  42.574  11.969
31809W        W96794   3.889  23.547  13.354
31810W        W96795  42.519  10.722   0.873
31811W        W96796  42.926   3.559   0.889
31812W        W96797   0.415  13.524   4.645
31813W        W96798  37.414  21.467  12.391
31814W        W96799  11.934  16.457  12.470
31815W        W96800  28.685  30.546  14.316
31816W        W96801  25.203  15.222   4.573
31817W        W96802  20.180  15.750   1.829
31818W        W96803  44.907  30.427   0.449
31819W        W96804  40.103   3.714   1.282
31820W        W96805  38.013  28.025  14.905
31821W        W96806  40.887  39.053  10.645
31822W        W96807   4.868  23.303   4.087
31823W        W96808   5.823  23.537   2.864
31824W        W96809   6.957   4.380  11.252
31825W        W96810  43.240  31.568   2.296
31826W        W96811  26.916   0.913  13.828
31827W        W96812   7.917  22.784   9.809
31828W        W96813  42.480  40.919   1.202
31829W        W96814  37.436   9.759  12.674
31830W        W96815  23.112   3.932   3.092
31831W        W96816  10.249  34.866   0.917
31832W        W96817   3.570  15.829   1.789
31833W        W96818  20.413  17.477   4.963
31834W        W96819  37.062  32.485  11.587
31835W        W96820  40.590   9.292   1.640
31836W        W96821  36.209  24.464   2.855
31837W        W96822  21.091  18.142  11.913
31838W        W96823  32.635  11.695   3.331
31839W        W96824   9.651  40.961   3.513
31840W        W96825   9.279  32.345   1.543
31841W        W96826  31.204   7.083  13.001
31842W        W96827  29.807  12.691   3.310
31843W        W96828  34.355  27.551  14.887
31844W        W96829  16.260  32.472   3.233
31845W        W96830  13.308   8.107  14.688
31846W        W96831  14.273  12.313   3.467
31847W        W96832  29.708  37.020  14.254
31848W        W96833  40.544   1.760  12.109
31849W        W96834  38.291  28.455  14.901
31850W        W96835  12.620  33.045   1.865
31851W        W96836  44.065  11.323   1.712
31852W        W96837  39.159  18.647  14.914
31853W        W96838   4.485   5.737  12.586
31854W        W96839   9.610  27.124   0.060
31855W        W96840  28.749  44.433   0.186
31856W        W96841  40.913  35.584   1.668
31857W        W96842   8.278  42.861   0.383
31858W        W96843  36.888   8.127  10.689
31859W        W96844   7.162   0.310   0.026
31860W        W96845  36.332  17.585  14.482
31861W        W96846  16.631   9.209   4.736
31862W        W96847   8.536   8.576   3.702
31863W        W96848   5.753   0.831  14.318
31864W        W96849  39.856   1.482   2.667
31865W        W96850  26.459  28.036   0.849
31866W        W96851  33.716  15.319   3.844
31867W        W96852  26.680   7.169   0.417
31868W        W96853  16.147   4.729  10.276
31869W        W96854   3.526  37.998  13.862
31870W        W96855  38.116   7.889  12.009
31871W        W96856  38.371   5.996  13.087
31872W        W96857  38.853  12.922   2.325
31873W        W96858   5.404  35.730   3.184
31874W        W96859  25.387  40.903   4.490
31875W        W96860  40.777   8.677  10.713
31876W        W96861  36.402  36.006  11.089
31877W        W96862  25.243  22.027  12.664
31878W        W96863   2.315  30.837   0.701
31879W        W96864  38.869  21.430   2.181
31880W        W96865   5.597  30.726  13.806
31881W        W96866  16.290   3.262  13.476
31882W        W96867  39.327  43.327  11.646
31883W        W96868  22.771  44.424  11.041
31884W        W96869  13.206  25.174  14.297
31885W        W96870  23.749  14.265  11.055
31886W        W96871  29.206  41.391  12.442
31887W        W96872  22.793  25.012  13.007
31888W        W96873   7.963   9.644  12.216
31889W        W96874  41.935  44.015   2.367
31890W        W96875   2.351  39.839   4.109
31891W        W96876  41.858  11.576   3.648
31892W        W96877  41.035  40.416   4.605
31893W        W96878  28.612  20.562   4.513
31894W        W96879   7.563  17.752  10.889
31895W        W96880  22.186   8.025  10.690
31896W        W96881  33.881  25.058   1.440
31897W        W96882  13.985  27.347   1.413
31898W        W96883  18.985  44.013   0.954
31899W        W96884   6.517   7.446   3.601
31900W        W96885  20.706  17.224  11.285
31901W        W96886   5.218  40.509  11.482
31902W        W96887  16.447   4.555   5.028
31903W        W96888  41.833  15.208  11.612
31904W        W96889  28.865  12.285  14.195
31905W        W96890  41.449  15.172  13.003
31906W        W96891  38.457  44.816   0.275
31907W        W96892  27.139   5.829  13.539
31908W        W96893  32.251  12.151   1.420
31909W        W96894  18.091  38.405   4.292
31910W        W96895  31.802  27.805   3.262
31911W        W96896  35.937  41.516   3.840
31912W        W96897  37.558  28.194  12.233
31913W        W96898  26.098  23.227   2.985
31914W        W96899  35.887   2.953   3.215
31915W        W96900  13.044  24.709   1.224
31916W        W96901  35.856  36.128   4.038
31917W        W96902  19.288   1.377   2.715
31918W        W96903  33.103  44.282  13.955
31919W        W96904  41.334   3.924  11.739
31920W        W96905   9.642  37.419   4.731
31921W        W96906   5.768  38.846  11.067
31922W        W96907  26.828  23.052  10.466
31923W        W96908  14.040  22.519  12.118
31924W        W96909  12.855  17.726  14.866
31925W        W96910  44.374   8.301  10.890
31926W        W96911  30.456  44.340  12.212
31927W        W96912  12.854  23.898   3.280
31928W        W96913  15.275  36.090   2.850
31929W        W96914  15.837  16.596  11.100
31930W        W96915  29.465  15.621  11.192
31931W        W96916  19.144  10.954  12.507
31932W        W96917  20.788  39.531   4.688
31933W        W96918  25.088  38.046   2.620
31934W        W96919  11.884  13.764   1.387
31935W        W96920  42.046  14.338   2.722
31936W        W96921  40.447  24.274   0.941
31937W        W96922   6.802  29.526  10.592
31938W        W96923  14.684  35.054   2.196
31939W        W96924  20.207  40.922   4.849
31940W        W96925  42.087  21.594  10.958
31941W        W96926  19.847  24.015  10.644
31942W        W96927  25.475  14.150  14.826
31943W        W96928  41.294  32.259   2.810
31944W        W96929   5.829  17.979   1.375
31945W        W96930  19.019  18.636   3.254
31946W        W96931  13.239  13.419   0.265
31947W        W96932  18.166   5.703  12.942
31948W        W96933  32.359  18.838   4.218
31949W        W96934  16.159  36.271   2.716
31950W        W96935  27.965  17.433  13.337
31951W        W96936  27.516  20.799   0.879
31952W        W96937  20.853  27.958  14.965
31953W        W96938   1.860  19.565   0.860
31954W        W96939  35.416   6.328   2.944
31955W        W96940  40.018  29.693   4.245
31956W        W96941  38.703  26.224   2.723
31957W        W96942  42.511  23.551  13.467
31958W        W96943  30.098  10.728   4.332
31959W        W96944  22.175  29.116   0.256
31960W        W96945  18.570  43.271  12.138
31961W        W96946  33.515   3.132   4.511
31962W        W96947  24.507  42.117   2.189
31963W        W96948  24.196  17.789  13.343
31964W        W96949   0.332   8.626   0.946
31965W        W96950  12.078  31.377  12.066
31966W        W96951  27.411  42.057   0.358
31967W        W96952  19.566  42.734   4.540
31968W        W96953  21.697  16.489  10.745
31969W        W96954  37.548  40.246  14.545
31970W        W96955   0.576  28.177   1.808
31971W        W96956  38.093  30.100  13.651
31972W        W96957  11.240  32.529  11.171
31973W        W96958  35.424  37.748  12.384
31974W        W96959   1.916  32.235  12.217
31975W        W96960  30.208  21.231   0.034
31976W        W96961  37.483  11.624   2.331
31977W        W96962  33.412   2.837  12.310
31978W        W96963  43.943  37.062   3.728
31979W        W96964   2.295  35.037   0.845
31980W        W96965  35.510  36.048  13.530
31981W        W96966  13.302  22.162   3.924
31982W        W96967  44.807   6.334   1.172
31983W        W96968  27.027  29.136   2.358
31984W        W96969  12.403   3.137  11.547
31985W        W96970  22.782  21.733  11.625
31986W        W96971  37.973   4.768  10.587
31987W        W96972  32.681   2.391   1.900
31988W        W96973  17.587  34.618  12.012
31989W        W96974   3.348  33.245   0.904
31990W        W96975  26.244  12.097  13.901
31991W        W96976  28.022  31.321   1.780
31992W        W96977  20.173   8.144  11.167
31993W        W96978  21.732   9.891  14.851
31994W        W96979   2.337  43.388  14.738
31995W        W96980   9.168   5.393   2.879
31996W        W96981  33.916   7.300   2.701
31997W        W96982  22.657  44.969   2.514
31998W        W96983  44.548  40.564   3.237
31999W        W96984  21.252   3.696  12.854
32000W        W96985  33.368  25.641  11.961
32001W        W96986  41.332  17.257  13.775
32002W        W96987  22.755  13.079   0.328
32003W        W96988  26.098  24.346   2.345
32004W        W96989   6.853  32.561  13.975
32005W        W96990  18.209  31.671  12.564
32006W        W96991  18.553   7.559   1.373
32007W        W96992  26.266   1.745   3.400
32008W        W96993  38.941  15.501   1.319
32009W        W96994   2.174  25.063  14.260
32010W        W96995  41.321  39.503   0.418
32011W        W96996  18.208  12.564   2.831
32012W        W96997  21.119  18.377   0.340
32013W        W96998  26.399  28.589  10.169
32014W        W96999  19.765   1.891   3.235
32015W        W97000   4.757  12.378   2.709
32016W        W97001  36.003  25.115  14.514
32017W        W97002   4.107   9.324  11.572
32018W        W97003  36.116  30.126  13.417
32019W        W97004  25.017  18.382   5.104
32020W        W97005  11.569  44.678  13.581
32021W        W97006  16.645  30.159  10.191
32022W        W97007   3.002  32.919  14.223
32023W        W97008  32.440   7.947  12.916
32024W        W97009  13.221   3.881   4.023
32025W        W97010   6.810   8.209  11.559
32026W        W97011  24.979   3.726   1.463
32027W        W97012  33.340  10.699   0.441
32028W        W97013   6.575  31.806  14.773
32029W        W97014  40.653  26.371   4.953
32030W        W97015  44.856   8.121  10.765
32031W        W97016  25.501  35.812   2.704
32032W        W97017  27.561  12.798   1.864
32033W        W97018  30.162  17.704   2.919
32034W        W97019  34.544  37.953   3.641
32035W        W97020  11.656  41.792  12.454
32036W        W97021  37.855  37.856   9.996
32037W        W97022  39.706   2.293   0.319
32038W        W97023  39.916  10.333  14.840
32039W        W97024  32.535  32.909  10.954
32040W        W97025  35.997  34.047   2.123
32041W        W97026   8.715  40.835  13.613
32042W        W97027  30.093  34.183   0.440
32043W        W97028  20.604  38.860   4.603
32044W        W97029  17.854   8.730   1.814
32045W        W97030  15.325  33.846   3.461
32046W        W97031  29.640  37.474   4.648
32047W        W97032  30.527   6.442  13.055
32048W        W97033  23.524  18.098   2.345
32049W        W97034  18.173  18.044  14.798
32050W        W97035  16.011   3.292  13.016
32051W        W97036  18.174  31.775  12.066
32052W        W97037  42.913  17.239   1.106
32053W        W97038  39.108  20.104  11.584
32054W        W97039   3.560  40.959   2.745
32055W        W97040  21.533  31.878   0.327
32056W        W97041  29.037  18.711   4.619
32057W        W97042  29.550  10.356  12.322
32058W        W97043  39.120   2.438  10.807
32059W        W97044  29.087  33.503   4.068
32060W        W97045  39.088  28.022  14.869
32061W        W97046  36.030  14.165  14.365
32062W        W97047  15.327  12.634   1.169
32063W        W97048  23.532  11.723   0.252
32064W        W97049  20.024  10.779   4.212
32065W        W97050  18.896   5.053  11.164
32066W        W97051  12.796  21.763   4.416
32067W        W97052  44.713  14.656   3.971
32068W        W97053   2.913  16.461   0.825
32069W        W97054  17.260  19.988   2.224
32070W        W97055  13.902   9.709  13.923
32071W        W97056  39.955  28.413   2.644
32072W        W97057  31.713   5.444   3.135
32073W        W97058  18.320  39.790   4.048
32074W        W97059  25.484   7.257   4.581
32075W        W97060  26.403   2.979   1.471
32076W        W97061  32.431  38.424   3.106
32077W        W97062  40.463  27.721   4.524
32078W        W97063   4.789  14.729  14.937
32079W        W97064  38.587  14.879  13.586
32080W        W97065  31.891  41.384  12.965
32081W        W97066  42.785  39.742   3.182
32082W        W97067   2.713  11.580  13.977
32083W        W97068   2.735  20.225   4.856
32084W        W97069  12.613  22.961  14.291
32085W        W97070  37.429  30.535  11.937
32086W        W97071  42.840   9.997   4.833
32087W        W97072  25.032   9.631  12.075
32088W        W97073  40.468  27.487  13.165
32089W        W97074  28.132  31.431   3.719
32090W        W97075   0.404  25.113   0.998
32091W        W97076  24.657   8.219   4.502
32092W        W97077   5.285  41.530   4.577
32093W        W97078  16.327  19.727  11.503
32094W        W97079  13.591  20.719  14.244
32095W        W97080  16.900  26.058   0.287
32096W        W97081  28.481  15.049   0.353
32097W        W97082  21.574  24.716  11.934
32098W        W97083  32.828  17.297   4.433
32099W        W97084  39.820  30.902   2.830
32100W        W97085  24.878  29.882  13.276
32101W        W97086  20.065  25.157  10.287
32102W        W97087   6.655  15.915   4.337
32103W        W97088  22.237   8.735   3.564
32104W        W97089  27.515   3.347   5.067
32105W        W97090  28.154   0.267  13.008
32106W        W97091  43.745  38.424   4.216
32107W        W97092  36.535  31.964   2.443
32108W        W97093   3.414  10.244   3.809
32109W        W97094   1.355  44.798  11.722
32110W        W97095  31.376   2.708   2.966
32111W        W97096  14.585  35.643   1.312
32112W        W97097  14.709  35.463   1.795
32113W        W97098  34.328  39.288  12.633
32114W        W97099  41.033   8.750  11.163
32115W        W97100  30.840  28.091  13.064
32116W        W97101  29.500  38.355  13.889
32117W        W97102  33.523  24.258  14.315
32118W        W97103  14.835  29.700   4.059
32119W        W97104   3.193   7.697   1.304
32120W        W97105  24.108  40.798   2.380
32121W        W97106  43.744   4.715  13.410
32122W        W97107  28.951  13.397   1.872
32123W        W97108  10.456   3.458  12.489
32124W        W97109  25.217   9.750  13.472
32125W        W97110  13.514  39.798  12.648
32126W        W97111  17.081  44.807   1.534
32127W        W97112   9.257   6.692  12.000
32128W        W97113  31.416   1.200   4.628
32129W        W97114  21.190  24.924   2.176
32130W        W97115  41.284  39.823  13.675
32131W        W97116   2.753   9.918  14.838
32132W        W97117   5.763   8.256   3.572
32133W        W97118  38.430  20.257  11.982
32134W        W97119   5.873   5.135  13.781
32135W        W97120   0.936  14.124   4.934
32136W        W97121  32.999   0.207  14.145
32137W        W97122  20.399   5.353   2.266
32138W        W97123  39.745   2.728  11.291
32139W        W97124   2.302  27.892  14.403
32140W        W97125   3.613  17.731  13.001
32141W        W97126  17.009  25.989   1.312
32142W        W97127  43.369  12.799  11.274
32143W        W97128   8.114  43.440   1.829
32144W        W97129  11.091   9.310   0.750
32145W        W97130  26.028  11.124  13.895
32146W        W97131  22.633  12.334  13.072
32147W        W97132  32.395  32.088   4.435
32148W        W97133  20.429  34.814   0.143
32149W        W97134  31.702  37.251  14.359
32150W        W97135   2.126  40.982  14.818
32151W        W97136  14.113   7.889  12.520
32152W        W97137  24.289  28.977   1.376
32153W        W97138  20.574  44.375   2.186
32154W        W97139  10.800  42.334   0.814
32155W        W97140  11.110   0.470  13.884
32156W        W97141  21.174  10.747   3.165
32157W        W97142  15.668  29.385  11.881
32158W        W97143  15.019  16.628  11.541
32159W        W97144   0.074  44.279  10.164
32160W        W97145  42.114  27.985  14.708
32161W        W97146  34.932   7.557  13.100
32162W        W97147  29.158  21.741  11.749
32163W        W97148  40.677   8.026  12.765
32164W        W97149  11.030   0.001   0.685
32165W        W97150   0.933   5.854   1.441
32166W        W97151  11.388  23.407  12.130
32167W        W97152  24.431   3.383   0.716
32168W        W97153  13.045   6.706  11.245
32169W        W97154   9.483  39.385   4.093
32170W        W97155  30.577   2.832  11.943
32171W        W97156  44.601  27.583  10.977
32172W        W97157  42.293  43.783   0.275
32173W        W97158  22.700  30.346   0.404
32174W        W97159   3.784  40.352   1.825
32175W        W97160  36.862   7.182   3.550
32176W        W97161  31.853   4.861  12.756
32177W        W97162  33.029   4.747   2.350
32178W        W97163  34.709  26.481  10.732
32179W        W97164  40.974  36.977   0.934
32180W        W97165  20.306  15.870   4.714
32181W        W97166  11.220  22.401  11.916
32182W        W97167   8.645  43.405  11.487
32183W        W97168  18.862   7.770  14.432
32184W        W97169   6.120  16.518  13.058
32185W        W97170  13.459  19.703   0.490
32186W        W97171  43.343  24.717  11.359
32187W        W97172   4.494   8.174   0.730
32188W        W97173  20.560   4.211  13.372
32189W        W97174  17.814  25.110  12.576
32190W        W97175  24.053  31.016  13.498
32191W        W97176  30.603   5.996   1.461
32192W        W97177   8.655  29.097   0.267
32193W        W97178   2.222  39.690   2.297
32194W        W97179  18.078  24.978   1.367
32195W        W97180  44.049  32.765   2.673
32196W        W97181   5.869  36.514   4.745
32197W        W97182  39.802  19.404   1.199
32198W        W97183  23.821  24.730  11.188
32199W        W97184  41.010   3.569  12.900
32200W        W97185  16.028  28.478   3.703
32201W        W97186  12.131  35.804  14.727
32202W        W97187  25.186  29.594   2.794
32203W        W97188  33.783   5.862   1.154
32204W        W97189  12.085  25.522   4.270
32205W        W97190  15.090  10.731  12.118
32206W        W97191  20.009  30.356  12.946
32207W        W97192  39.418   9.066  10.821
32208W        W97193  44.266  21.745   1.485
32209W        W97194  13.589  33.490   2.745
32210W        W97195   0.806  25.677   2.784
32211W        W97196  27.257  32.428   0.837
32212W        W97197  33.367  43.395   0.515
32213W        W97198   0.423  13.117   3.842
32214W        W97199  15.137   5.654   1.619
32215W        W97200  25.963  15.522  11.039
32216W        W97201   6.897  30.372  11.635
32217W        W97202  31.153  12.128  12.393
32218W        W97203   7.641  29.407   3.667
32219W        W97204  35.561  19.091   2.639
32220W        W97205   7.797  36.807  13.018
32221W        W97206  43.960  44.786   0.543
32222W        W97207   4.215  36.095  13.439
32223W        W97208  12.936  15.087  10.680
32224W        W97209  40.469  31.052   1.790
32225W        W97210   2.996  31.951  10.875
32226W        W97211  37.093  13.801   1.250
32227W        W97212   1.975  37.119   3.931
32228W        W97213  18.328  17.172  13.293
32229W        W97214  24.973  17.238  10.543
32230W        W97215  34.848  27.086   2.239
32231W        W97216  40.946  29.370  12.736
32232W        W97217   7.272  32.768  12.632
32233W        W97218  39.644  26.530   0.365
32234W        W97219  28.562  34.160   2.362
32235W        W97220  13.906  35.404  14.770
32236W        W97221  11.873  16.614  11.620
32237W        W97222  11.940   2.959  11.689
32238W        W97223  25.184  42.337   4.704
32239W        W97224  14.204   0.227   2.292
32240W        W97225  10.424  35.216  13.919
32241W        W97226  27.679  14.179  14.377
32242W        W97227  32.211  19.670   5.182
32243W        W97228   4.941  18.205   0.590
32244W        W97229  29.403  16.620   1.260
32245W        W97230  20.109  44.454   3.099
32246W        W97231  20.581  25.396   1.913
32247W        W97232  26.965   1.834   2.163
32248W        W97233  15.755  11.596   4.106
32249W        W97234  17.690   5.506  12.293
32250W        W97235  31.441  25.447   3.164
32251W        W97236   8.873  21.156   2.336
32252W        W97237   0.291  38.077   0.746
32253W        W97238  38.639  24.648   0.695
32254W        W97239  39.811  11.142  14.482
32255W        W97240   7.912  42.844   3.902
32256W        W97241  10.681   3.942   4.352
32257W        W97242  31.133  27.699  14.853
32258W        W97243   9.381  32.065  14.775
32259W        W97244  31.663  29.464  11.148
32260W        W97245  32.505  38.074  11.527
32261W        W97246  42.205  40.486  14.419
32262W        W97247  21.996  14.132   4.524
32263W        W97248   9.934  36.459  11.450
32264W        W97249  35.435  19.768   4.802
32265W        W97250  10.751  30.406   0.510
32266W        W97251  17.579  24.466  13.224
32267W        W97252  27.939  28.179  13.453
32268W        W97253   7.229  41.795   0.347
32269W        W97254  29.868  16.196  12.126
32270W        W97255  19.092   0.330   1.886
32271W        W97256   3.451  41.332   4.014
32272W        W97257  21.788  11.220  11.597
32273W        W97258   1.329  37.400   2.898
32274W        W97259  16.157  19.044   4.796
32275W        W97260  43.522  29.875   1.931
32276W        W97261  39.490  40.404   2.712
32277W        W97262  39.336  24.545   5.019
32278W        W97263  13.784  28.694  12.453
32279W        W97264  21.472  36.967   2.857
32280W        W97265  16.772   1.772   4.122
32281W        W97266  23.468  20.515  14.872
32282W        W97267  29.528  28.641   2.195
32283W        W97268  26.801  28.481   1.051
32284W        W97269  37.728  18.768   3.668
32285W        W97270  26.702  36.150   2.059
32286W        W97271   9.154  16.761  10.729
32287W        W97272   4.286  40.478  13.557
32288W        W97273   3.019  15.442   0.789
32289W        W97274   9.109  31.950  10.591
32290W        W97275  41.488  12.401   1.885
32291W        W97276  17.115   1.220  12.051
32292W        W97277  32.937  38.500   3.170
32293W        W97278   7.503  33.487  14.508
32294W        W97279  44.906   2.562   3.796
32295W        W97280  11.904  26.143   3.755
32296W        W97281  41.716  19.518  12.552
32297W        W97282  24.030  18.122  10.662
32298W        W97283   7.896  29.004  12.396
32299W        W97284  17.052  32.858  11.514
32300W        W97285   3.517   3.990  11.210
32301W        W97286   8.155  41.993  12.409
32302W        W97287   1.807  32.663  10.945
32303W        W97288  44.316   4.218  14.455
32304W        W97289   0.021  36.918  11.424
32305W        W97290  10.736  27.005   0.325
32306W        W97291  14.188  25.419   0.306
32307W        W97292  41.027   5.057   2.714
32308W        W97293  28.794  43.446  12.094
32309W        W97294  33.553   9.720   1.448
32310W        W97295  32.420  17.082   3.307
32311W        W97296  41.951  18.545   1.978
32312W        W97297  13.080  22.121   1.020
32313W        W97298  14.343  12.385  13.020
32314W        W97299  44.365  43.864   4.629
32315W        W97300  40.256  12.597  14.118
32316W        W97301  28.127  22.168   0.575
32317W        W97302  34.673  10.040  13.006
32318W        W97303   8.991  16.041  14.699
32319W        W97304  31.282  13.090   2.684
32320W        W97305  34.684  40.963  13.910
32321W        W97306  41.112  40.036  12.552
32322W        W97307  36.114  25.593  13.796
32323W        W97308   8.390  29.539   4.293
32324W        W97309  28.155   8.723  14.033
32325W        W97310  42.925   2.725  14.128
32326W        W97311   9.379  29.383  13.101
32327W        W97312  39.996   3.766  12.770
32328W        W97313  35.446   5.396   2.125
32329W        W97314  12.659  13.254  14.552
32330W        W97315   9.788  34.526   2.595
32331W        W97316  40.429  28.464   1.869
32332W        W97317  44.180  29.043   1.773
32333W        W97318  26.254  30.550  12.761
32334W        W97319   5.990  44.403   1.335
32335W        W97320  26.701   4.868   1.716
32336W        W97321   7.964  43.842   1.344
32337W        W97322  18.784  13.084   4.354
32338W        W97323  37.781  33.176   2.875
32339W        W97324  28.035   0.956   0.764
32340W        W97325  41.047  14.059   4.699
32341W        W97326  20.666  39.048  13.499
32342W        W97327  29.938  34.963  11.563
32343W        W97328  10.468   1.947   2.154
32344W        W97329  21.330  20.114  11.561
32345W        W97330  19.998   0.361  12.410
32346W        W97331  43.359  35.877   2.412
32347W        W97332  39.565  33.036   0.737
32348W        W97333  23.435  12.208   1.011
32349W        W97334  10.867  20.686   0.402
32350W        W97335   9.706  10.293   2.713
32351W        W97336  33.983  10.180  14.442
32352W        W97337  22.762  27.529  12.902
32353W        W97338  23.482  17.884  14.030
32354W        W97339  24.409  26.519  12.486
32355W        W97340   3.235   9.885  12.606
32356W        W97341   1.482  19.539   3.825
32357W        W97342  39.426  16.817   1.822
32358W        W97343   5.274  42.467   2.990
32359W        W97344   4.125  13.289  14.082
32360W        W97345  37.089  15.653   4.153
32361W        W97346  41.462  15.672  12.742
32362W        W97347   9.280  20.236  10.872
32363W        W97348  34.357  40.264   0.815
32364W        W97349   9.431  36.670  13.584
32365W        W97350  13.996  12.961  12.049
32366W        W97351  20.196  32.568   0.844
32367W        W97352   0.397  25.484   1.376
32368W        W97353  42.713  38.937  14.858
32369W        W97354  23.483  29.558   4.331
32370W        W97355  35.415   4.553   2.435
32371W        W97356  26.618  38.869   1.000
32372W        W97357  44.404  13.142   2.930
32373W        W97358  19.092  36.027   2.153
32374W        W97359  29.020  25.700   1.782
32375W        W97360  27.085  37.948  12.957
32376W        W97361  41.341  15.686   4.107
32377W        W97362  13.535  28.978  13.621
32378W        W97363   6.559  39.866  12.456
32379W        W97364   5.777  32.641   4.061
32380W        W97365   4.942  14.195   5.139
32381W        W97366   8.925  27.442   4.153
32382W        W97367  39.421  43.496   2.341
32383W        W97368  36.845   4.167   0.221
32384W        W97369  19.217   8.690   0.854
32385W        W97370   1.227  30.969   2.825
32386W        W97371  36.990   8.617  12.959
32387W        W97372  40.611  28.988   1.295
32388W        W97373  17.993  23.359   4.170
32389W        W97374  39.861  17.188  14.747
32390W        W97375  30.749  18.620   0.229
32391W        W97376  16.435   6.503  11.660
32392W        W97377  16.139  30.885   1.073
32393W        W97378  16.163   8.054   1.803
32394W        W97379   2.557  27.102   4.766
32395W        W97380  21.659  28.555  13.377
32396W        W97381  25.834   4.003   2.617
32397W        W97382  20.425  27.643  11.106
32398W        W97383  19.148  14.690  11.738
32399W        W97384  44.536  11.590  11.636
32400W        W97385  12.744  17.140  10.805
32401W        W97386  10.317  39.184   3.503
32402W        W97387  15.669  13.176  12.476
32403W        W97388  23.523   4.245  12.545
32404W        W97389   9.310  29.756  10.645
32405W        W97390   8.878  23.913   3.124
32406W        W97391  17.224  43.444  10.288
32407W        W97392  28.146  26.892  12.795
32408W        W97393   6.464  24.600  11.704
32409W        W97394   9.861  34.926  11.238
32410W        W97395  11.767  10.917   4.849
32411W        W97396  38.312  29.424   0.221
32412W        W97397  20.545  19.294  13.858
32413W        W97398  16.228   1.275   2.170
32414W        W97399  15.578  17.028  13.122
32415W        W97400  43.235  25.861  13.965
32416W        W97401  19.073  24.544  14.047
32417W        W97402  36.293  33.384   3.719
32418W        W97403   8.488  19.190   1.494
32419W        W97404   5.843  26.476   4.363
32420W        W97405  30.088  11.590  13.839
32421W        W97406  31.142  41.547   0.890
32422W        W97407  32.982   3.025   0.476
32423W        W97408  37.118   6.642   0.874
32424W        W97409  25.996  18.085  11.489
32425W        W97410  33.444  13.560  13.911
32426W        W97411  41.035  38.020   4.263
32427W        W97412  42.006  19.750  12.110
32428W        W97413   8.198  31.652   1.899
32429W        W97414  18.163  40.356  10.504
32430W        W97415  25.421  36.353  10.509
32431W        W97416  38.148   8.956   1.358
32432W        W97417  15.692  37.020  10.635
32433W        W97418   2.267   9.777  13.303
32434W        W97419  26.024  31.666   0.039
32435W        W97420  19.958  13.334   3.554
32436W        W97421  20.113  42.547   0.776
32437W        W97422  37.375  27.982  10.749
32438W        W97423   9.385   4.900   0.944
32439W        W97424   7.356  10.418   0.898
32440W        W97425  39.904  28.351   3.621
32441W        W97426   0.476  38.706  14.365
32442W        W97427  27.142  25.179   5.475
32443W        W97428  25.582  35.634   1.856
32444W        W97429   3.758  20.660   0.791
32445W        W97430   3.364   1.196  12.544
32446W        W97431  12.905  31.151  10.181
32447W        W97432   3.830  22.104  14.820
32448W        W97433  28.746  35.916  13.871
32449W        W97434  39.946  31.008   1.767
32450W        W97435  25.886  22.585  12.480
32451W        W97436   4.928  23.986   1.460
32452W        W97437  37.655  36.415  14.894
32453W        W97438  22.054  24.522   4.527
32454W        W97439  14.332  24.405   3.865
32455W        W97440  16.146  31.113  12.990
32456W        W97441   3.257  39.126  14.954
32457W        W97442  32.144  35.073   0.726
32458W        W97443   8.323  25.617  10.868
32459W        W97444  12.271  11.826  13.865
32460W        W97445  18.923  11.164  14.434
32461W        W97446  14.068  28.187  14.114
32462W        W97447  38.267  32.935   1.450
32463W        W97448  29.566  21.240   2.211
32464W        W97449  36.829  30.116   4.185
32465W        W97450  31.875  44.842   2.687
32466W        W97451  17.329  44.546   0.773
32467W        W97452  22.183   2.556  14.488
32468W        W97453  22.171  44.662  14.976
32469W        W97454  31.507  41.550  14.565
32470W        W97455  24.890  26.818   0.317
32471W        W97456   0.490  44.372   4.169
32472W        W97457  11.388   4.290  12.232
32473W        W97458  16.700   3.412   3.198
32474W        W97459  36.084   4.359  13.940
32475W        W97460   9.088  18.708   1.812
32476W        W97461  10.316   6.643   4.161
32477W        W97462  38.089  17.115   1.878
32478W        W97463   6.434  15.152   1.912
32479W        W97464   6.689  32.675   2.125
32480W        W97465  39.548   4.016  14.960
32481W        W97466   6.950  13.550   1.362
32482W        W97467  24.749  42.352  11.138
32483W        W97468   2.302  32.020   0.928
32484W        W97469   6.100   7.204  13.063
32485W        W97470  28.072  20.775   3.426
32486W        W97471  11.462   4.367  11.719
32487W        W97472  25.642  26.666  12.913
32488W        W97473  31.320  29.959   3.229
32489W        W97474   5.429  27.690  13.583
32490W        W97475  43.271  11.590  13.035
32491W        W97476   5.338  25.661  12.074
32492W        W97477   0.240   3.735   3.619
32493W        W97478   0.616  37.858  10.343
32494W        W97479  15.539  11.144   1.853
32495W        W97480  33.646  33.958   2.481
32496W        W97481  19.155  28.037  13.543
32497W        W97482   9.195  23.140   4.309
32498W        W97483  43.120  20.193   5.012
32499W        W97484   3.234  34.542  12.429
32500W        W97485   4.922   9.087   4.245
32501W        W97486  16.236   7.724   2.190
32502W        W97487  42.552  24.071  11.593
32503W        W97488  33.705  18.152   2.310
32504W        W97489  42.223  17.143   3.199
32505W        W97490  40.236  30.483  11.714
32506W        W97491   8.326  27.162   2.249
32507W        W97492  34.796  13.655  13.985
32508W        W97493  32.336  35.750  12.507
32509W        W97494  13.709  21.101  11.152
32510W        W97495  14.578  32.314  13.515
32511W        W97496  15.113  30.121   4.041
32512W        W97497  22.992  12.045   1.885
32513W        W97498   1.499  30.622  12.314
32514W        W97499   4.398  27.990   3.106
32515W        W97500  41.139  21.099   1.417
32516W        W97501  23.358  11.943  11.052
32517W        W97502  13.343  14.048  12.893
32518W        W97503  12.657  40.312  10.604
32519W        W97504  13.365  10.862   3.259
32520W        W97505  14.789  11.737  10.626
32521W        W97506  33.063  38.573  12.578
32522W        W97507  38.917  29.962  13.872
32523W        W97508   0.790  16.673   1.125
32524W        W97509  37.516  12.910   3.936
32525W        W97510  38.913  44.092   1.738
32526W        W97511   1.431  18.498   1.937
32527W        W97512  11.606  24.214   3.564
32528W        W97513  24.215  24.332   0.879
32529W        W97514  13.277  11.933  12.099
32530W        W97515  29.916   1.522  11.067
32531W        W97516  27.659  16.236  10.707
32532W        W97517  17.123   3.182   3.340
32533W        W97518  43.714  24.968   1.778
32534W        W97519   7.695  30.599   4.559
32535W        W97520  35.280   2.233  13.521
32536W        W97521  27.870  11.685   1.648
32537W        W97522  26.046  25.958  14.827
32538W        W97523  34.931  42.824  10.739
32539W        W97524  35.037  26.854   0.184
32540W        W97525   0.642  22.405   2.963
32541W        W97526  29.040  16.565  11.517
32542W        W97527   4.695   9.629  14.833
32543W        W97528  21.186  17.122  11.942
32544W        W97529  19.007  27.212   0.911
32545W        W97530  26.214  17.538  13.305
32546W        W97531  30.173  25.004   1.446
32547W        W97532  35.020   4.273   3.890
32548W        W97533  13.473  20.030   2.685
32549W        W97534  13.296  43.853   3.719
32550W        W97535  31.515  18.691  11.196
32551W        W97536  20.635  23.990  11.156
32552W        W97537  19.024  18.254   0.287
32553W        W97538  29.549  14.017  12.230
32554W        W97539   4.247  14.596   2.193
32555W        W97540   7.789  35.964   4.957
32556W        W97541  31.708  36.899   1.934
32557W        W97542  43.466  22.233   2.742
32558W        W97543  18.684  31.601   4.610
32559W        W97544  43.481  14.114  11.536
32560W        W97545   6.475   1.322  10.731
32561W        W97546  38.153  34.869  14.901
32562W        W97547   3.511  31.470   1.469
32563W        W97548  42.306  11.459  11.054
32564W        W97549  39.918  20.740   0.090
32565W        W97550  38.219  10.674  10.695
32566W        W97551  26.197  17.402   4.322
32567W        W97552   9.891  27.784   3.953
32568W        W97553  33.381  42.689   3.717
32569W        W97554   8.245  31.461   2.384
32570W        W97555  40.473  43.424  12.529
32571W        W97556  11.115  28.503  14.700
32572W        W97557  21.905   9.705  13.386
32573W        W97558  17.599  16.031  14.316
32574W        W97559  20.742  43.974  13.248
32575W        W97560  27.434  40.910  13.893
32576W        W97561   5.408  18.634   0.447
32577W        W97562   5.820  13.278   1.821
32578W        W97563  30.751   0.692   1.278
32579W        W97564  30.078  26.478  14.407
32580W        W97565  29.143  31.676  12.690
32581W        W97566  36.824   4.842   0.716
32582W        W97567  24.776  22.272  12.627
32583W        W97568  26.063   6.346   1.491
32584W        W97569  19.117  39.371  14.807
32585W        W97570  29.406  19.622  13.179
32586W        W97571  23.600   5.091  13.489
32587W        W97572  38.418   7.680   3.279
32588W        W97573  23.188  36.898  14.786
32589W        W97574  10.074  24.643   3.174
32590W        W97575   8.298   0.495   2.265
32591W        W97576   9.355  34.280  10.673
32592W        W97577   9.696   6.992  11.996
32593W        W97578  14.068  32.355   0.530
32594W        W97579  17.557  15.636   3.295
32595W        W97580  35.342  11.829  10.245
32596W        W97581  16.809  34.558  14.308
32597W        W97582  44.924  33.649  12.905
32598W        W97583  15.316  14.665  12.427
32599W        W97584   9.180  38.445   4.516
32600W        W97585  41.939  32.718  10.709
32601W        W97586  17.648   1.890  11.473
32602W        W97587  17.134  11.472  13.029
32603W        W97588  10.883  28.196   4.633
32604W        W97589  30.080  27.085   1.931
32605W        W97590  31.546   7.873  11.773
32606W        W97591  18.789  30.515   2.773
32607W        W97592  22.973   1.299  13.027
32608W        W97593  21.252  16.531   0.715
32609W        W97594  31.744  37.319   0.294
32610W        W97595  18.077   5.952   2.352
32611W        W97596  22.148  38.612   3.179
32612W        W97597  34.421   0.050   0.149
32613W        W97598  34.323  13.220  11.978
32614W        W97599  27.947  44.356  14.028
32615W        W97600  28.656  21.323   2.461
32616W        W97601  15.901  42.145  13.594
32617W        W97602  17.411  26.634  10.801
32618W        W97603  42.121  32.590   4.164
32619W        W97604  29.390  42.038  11.604
32620W        W97605  19.879   3.147   2.999
32621W        W97606  23.339  17.832  13.503
32622W        W97607  19.575  23.896   3.230
32623W        W97608  24.281  24.666  10.771
32624W        W97609  33.977  39.070   1.552
32625W        W97610  15.680  14.644   3.031
32626W        W97611  14.737  12.192   1.555
32627W        W97612  34.405  44.097  13.853
32628W        W97613  12.217  10.410  14.743
32629W        W97614  40.729  31.913   4.649
32630W        W97615   6.869   7.572  14.782
32631W        W97616   7.085  33.540   2.435
32632W        W97617   2.716  41.014   4.159
32633W        W97618  13.059  38.483  10.646
32634W        W97619  23.498  29.446   1.521
32635W        W97620   8.450  44.723  12.830
32636W        W97621   4.150  18.827  14.533
32637W        W97622  39.450  10.823  11.292
32638W        W97623  29.858  28.439   3.550
32639W        W97624   3.886   3.767  13.346
32640W        W97625   3.898  23.026  13.344
32641W        W97626  29.010  16.957   4.687
32642W        W97627   4.261  10.636  12.460
32643W        W97628  27.591   6.809  12.533
32644W        W97629  36.553  43.232   3.508
32645W        W97630  11.772  21.994  11.230
32646W        W97631   5.655  36.872   3.925
32647W        W97632  26.709  26.153   4.679
32648W        W97633   4.762  30.062  12.271
32649W        W97634  13.275   5.219   1.552
32650W        W97635  33.970  27.632   3.711
32651W        W97636  28.589  41.804   4.238
32652W        W97637   3.213  11.889  14.362
32653W        W97638  27.174  23.693  10.795
32654W        W97639  21.154  34.471   4.997
32655W        W97640  33.983  25.744   4.288
32656W        W97641   7.150  30.392  11.176
32657W        W97642  29.649  40.801  13.831
32658W        W97643  36.926   9.483   2.851
32659W        W97644  11.125  33.143   0.347
32660W        W97645  36.591  13.268   2.188
32661W        W97646  13.098   7.146   9.890
32662W        W97647  39.338  33.650  11.883
32663W        W97648  33.630  44.618   5.034
32664W        W97649  41.775  18.059   2.131
32665W        W97650  38.325  17.857   9.608
32666W        W97651  21.205  40.808   4.450
32667W        W97652  19.742  25.118   3.076
32668W        W97653  28.470  15.856   3.712
32669W        W97654  19.577  35.335  14.508
32670W        W97655   1.216  40.093  12.062
32671W        W97656  38.104  32.992  11.893
32672W        W97657   4.294  22.749   1.867
32673W        W97658  20.169  17.785   2.614
32674W        W97659   3.140  20.548  11.976
32675W        W97660   0.301  17.491  14.948
32676W        W97661  35.902   7.375   3.648
32677W        W97662  24.289   8.342  14.454
32678W        W97663  15.583  41.055  14.391
32679W        W97664  23.168  39.950  14.444
32680W        W97665  13.007  38.443  14.899
32681W        W97666  16.243   9.087  13.944
32682W        W97667  42.320   8.658   0.204
32683W        W97668  11.905   4.378  10.094
32684W        W97669   8.249  29.606   0.954
32685W        W97670  22.713  11.108   0.328
32686W        W97671  41.749  17.630   0.955
32687W        W97672  20.513   9.359  12.828
32688W        W97673  18.394  33.802  13.874
32689W        W97674  35.981  22.670   2.827
32690W        W97675  41.131  10.441   4.156
32691W        W97676  39.493  15.856   2.779
32692W        W97677   9.262  17.565   4.417
32693W        W97678  38.414   8.657  10.790
32694W        W97679  13.345   3.417  14.844
32695W        W97680  17.176  28.199  10.706
32696W        W97681  15.794  24.704  10.633
32697W        W97682  42.909   7.798  14.303
32698W        W97683  43.740  44.595  14.173
32699W        W97684  38.236  44.355   2.228
32700W        W97685  16.434  11.754  11.895
32701W        W97686  40.810  22.814   5.018
32702W        W97687  20.120  36.439   4.438
32703W        W97688  16.383   2.189   0.305
32704W        W97689   4.872  23.825   4.808
32705W        W97690  13.170   3.695  14.418
32706W        W97691  36.059  22.262  12.441
32707W        W97692   1.858  15.485   5.041
32708W        W97693  41.219  15.051   4.663
32709W        W97694  23.757  44.503  13.423
32710W        W97695  19.284  34.142   0.273
32711W        W97696   5.089  12.101  13.099
32712W        W97697  19.020  37.429   1.679
32713W        W97698  33.450  40.622   0.805
32714W        W97699  41.817  42.199   1.820
32715W        W97700  37.442  38.837   4.738
32716W        W97701  11.543   6.654   0.319
32717W        W97702  22.574  37.819  12.099
32718W        W97703   3.894  17.685   2.287
32719W        W97704  36.620   9.448   2.040
32720W        W97705  43.808  36.522  12.784
32721W        W97706  11.347  31.976   2.863
32722W        W97707   8.576   6.849  12.014
32723W        W97708  18.807  27.069   3.777
32724W        W97709  23.537  32.532  11.001
32725W        W97710  29.947  21.540   3.009
32726W        W97711  30.428  31.073   1.796
32727W        W97712  27.705   6.201   3.666
32728W        W97713  36.899  24.218   0.567
32729W        W97714  27.907   1.340   1.852
32730W        W97715  17.565   9.399   0.258
32731W        W97716   9.668  10.503  12.982
32732W        W97717  29.159  23.482  11.975
32733W        W97718   6.885   8.858   0.426
32734W        W97719  18.146  42.821  14.888
32735W        W97720  24.161  36.179  11.685
32736W        W97721  31.243  44.455  14.488
32737W        W97722  17.150  36.414  11.986
32738W        W97723   0.579  18.804   2.411
32739W        W97724   4.942  36.478  12.113
32740W        W97725  29.395  31.659   0.891
32741W        W97726   0.205  24.116   1.376
32742W        W97727  29.993  19.368   0.891
32743W        W97728  10.799   8.763  11.416
32744W        W97729   3.617   8.228   4.677
32745W        W97730  13.519  38.416  14.838
32746W        W97731  15.240  15.566   0.403
32747W        W97732  38.310   7.203   4.710
32748W        W97733   5.280  20.321  10.587
32749W        W97734  30.378  16.826   0.211
32750W        W97735   8.640  42.506   2.948
32751W        W97736  19.533  14.019  14.836
32752W        W97737  14.160  17.295   0.840
32753W        W97738  19.235  10.202  14.670
32754W        W97739   4.280  22.610   2.362
32755W        W97740  28.775   8.852   0.209
32756W        W97741   4.678   9.544   1.688
32757W        W97742  12.571  31.096  14.558
32758W        W97743  25.490  36.032  11.268
32759W        W97744  25.480   6.273   2.904
32760W        W97745  31.948  11.218  10.716
32761W        W97746   6.840  35.474  10.899
32762W        W97747  28.037  12.153   4.279
32763W        W97748  23.577  12.613   4.631
32764W        W97749   9.976  17.038   3.477
32765W        W97750  33.526  21.577   3.135
32766W        W97751   1.730  30.673   3.596
32767W        W97752   8.875  19.185   1.859
32768W        W97753  13.397   5.166  13.022
32769W        W97754  31.898  14.174   1.799
32770W        W97755  33.567  30.507  11.716
32771W        W97756  41.411  28.220   9.869
32772W        W97757   9.698  15.234   4.082
32773W        W97758  28.047  25.535  11.063
32774W        W97759  33.091  24.061   0.812
32775W        W97760  30.149  37.384  14.533
32776W        W97761  11.233   0.222   2.146
32777W        W97762  37.801   4.750   4.608
32778W        W97763  38.044   6.429  12.954
32779W        W97764  18.965  19.668  12.984
32780W        W97765   5.181  42.887  10.652
32781W        W97766  39.511  16.168  12.039
32782W        W97767  28.604  17.721   1.685
32783W        W97768  17.797  29.884   0.318
32784W        W97769  24.082  41.458  13.835
32785W        W97770   3.919  18.313   3.734
32786W        W97771  32.440  21.816  14.342
32787W        W97772  33.167  12.530   1.496
32788W        W97773  30.070  40.906  10.720
32789W        W97774   8.353  41.012  11.598
32790W        W97775   9.160   4.368   4.509
32791W        W97776  44.804  35.388   2.893
32792W        W97777  36.512  20.234   3.385
32793W        W97778  13.818  13.877   3.016
32794W        W97779  26.629   6.043   3.276
32795W        W97780   0.161  36.381   4.644
32796W        W97781  18.671   5.412  13.839
32797W        W97782  20.768  31.382   2.507
32798W        W97783  23.023  21.123  12.469
32799W        W97784  44.572  26.151   9.797
32800W        W97785   6.500  33.163   4.536
32801W        W97786   5.624  12.649   0.550
32802W        W97787  38.122  44.081   0.532
32803W        W97788  21.092  27.882  13.480
32804W        W97789   5.225   3.915   1.804
32805W        W97790  34.117  26.247  14.391
32806W        W97791  18.696  22.748  14.482
32807W        W97792  35.108   6.928  10.826
32808W        W97793  11.769  28.042   4.712
32809W        W97794  42.676  22.513   4.216
32810W        W97795  42.491  38.935   4.225
32811W        W97796  37.391  26.540   0.774
32812W        W97797   4.873  19.164  14.724
32813W        W97798  37.574  39.735  10.587
32814W        W97799   1.372  10.298  13.813
32815W        W97800   3.177  38.651   2.590
32816W        W97801  31.692  35.107   0.485
32817W        W97802  34.820  12.331   5.064
32818W        W97803  25.139  40.298   1.796
32819W        W97804  16.235  20.121   3.342
32820W        W97805  21.874  20.609   2.191
32821W        W97806  30.005  43.383  14.292
32822W        W97807  40.891  10.683   0.858
32823W        W97808  19.562  13.759   0.315
32824W        W97809  21.203   6.347   4.565
32825W        W97810  30.819  22.035  10.736
32826W        W97811   6.819  13.161   1.678
32827W        W97812   6.741   1.333   0.856
32828W        W97813   9.301  32.259   3.834
32829W        W97814  30.146   2.544  12.711
32830W        W97815  41.331  30.077   1.302
32831W        W97816  11.292  15.586  11.403
32832W        W97817  38.984  21.086   1.814
32833W        W97818  32.581   4.396   2.361
32834W        W97819  10.135  38.327  10.317
32835W        W97820  22.157  18.827   1.196
32836W        W97821   2.780  13.113  12.904
32837W        W97822   0.408  30.625   0.510
32838W        W97823  22.702  15.038   3.811
32839W        W97824  35.847  37.895  11.560
32840W        W97825   7.875  22.020   1.004
32841W        W97826   9.913  17.371   1.746
32842W        W97827  13.185  33.851   2.586
32843W        W97828  25.777  18.682  13.773
32844W        W97829   4.933  10.861  13.946
32845W        W97830  40.816  21.776   2.736
32846W        W97831  12.591  29.837  10.716
32847W        W97832  11.821  16.383   1.858
32848W        W97833  25.979  13.726  13.395
32849W        W97834  42.885  12.110  14.289
32850W        W97835   5.476   7.797  11.562
32851W        W97836  40.899  37.719   1.595
32852W        W97837  24.256  32.701   2.207
32853W        W97838  32.422  11.005   1.517
32854W        W97839  14.263  27.717  13.005
32855W        W97840   0.848  21.960   0.952
32856W        W97841  33.060  28.420  11.508
32857W        W97842  38.373  21.544  14.913
32858W        W97843   9.093  28.485  14.246
32859W        W97844  10.202  43.949   0.185
32860W        W97845  44.766  31.697   2.236
32861W        W97846  28.263   3.716  12.486
32862W        W97847  38.092   9.869   1.190
32863W        W97848  14.979   0.996  12.425
32864W        W97849  21.264  26.810  13.611
32865W        W97850   8.872  44.456  12.931
32866W        W97851  20.723   8.155  14.328
32867W        W97852  19.821  33.360  13.166
32868W        W97853  35.906   2.329   2.002
32869W        W97854  35.655  38.282   1.780
32870W        W97855   3.760  44.680  13.481
32871W        W97856  26.189  15.210   4.739
32872W        W97857   7.312   7.730   0.037
32873W        W97858  23.093  22.410   3.257
32874W        W97859  18.211   8.021   1.327
32875W        W97860  15.522   9.311  10.529
32876W        W97861  31.140   2.443   1.417
32877W        W97862   6.500  11.923  12.931
32878W        W97863   2.138  18.244  14.356
32879W        W97864  32.892  41.931   3.630
32880W        W97865  38.135  27.952  11.264
32881W        W97866   9.706  37.129   4.216
32882W        W97867  34.916  21.703  11.627
32883W        W97868  26.576  30.463  13.999
32884W        W97869  24.502  13.745   4.451
32885W        W97870  16.774  35.168   2.334
32886W        W97871  12.389  36.015   1.893
32887W        W97872  26.164  38.551   0.788
32888W        W97873  34.984  17.428   0.424
32889W        W97874  20.775  40.482  13.367
32890W        W97875   8.873  35.666  12.885
32891W        W97876  28.728   9.114   3.098
32892W        W97877   0.878  37.897  14.818
32893W        W97878  13.340  30.499   0.332
32894W        W97879  34.149  34.574  12.544
32895W        W97880  42.757  19.233   1.959
32896W        W97881  44.028  36.842   1.861
32897W        W97882  16.170   7.222  12.131
32898W        W97883  10.346  32.021   2.282
32899W        W97884  14.108  31.279   4.730
32900W        W97885   7.938  15.304  11.159
32901W        W97886  10.111  41.064   3.756
32902W        W97887  22.745  36.750  12.118
32903W        W97888  44.990  10.338  12.368
32904W        W97889  28.648  20.652  13.141
32905W        W97890  44.347  21.692   2.765
32906W        W97891   0.029  19.317   0.016
32907W        W97892  11.690  42.799   4.034
32908W        W97893  34.827  32.892  13.612
32909W        W97894  24.605  23.697   3.696
32910W        W97895  32.656  26.121   4.581
32911W        W97896  16.326  22.667   2.293
32912W        W97897  30.205  19.718   3.147
32913W        W97898   3.995  22.886   3.089
32914W        W97899  42.446   1.787  13.647
32915W        W97900  18.122   2.243  14.279
32916W        W97901   8.631  28.580  12.408
32917W        W97902   4.373   2.296  13.996
32918W        W97903  26.533   6.684   0.398
32919W        W97904   2.763   0.010   1.855
32920W        W97905  16.215  24.714   0.932
32921W        W97906  37.357  10.287   3.184
32922W        W97907  37.979  21.260   1.764
32923W        W97908  13.099   0.498  11.644
32924W        W97909  31.008  33.088   2.186
32925W        W97910   6.748  31.005  11.604
32926W        W97911  18.768   3.388  14.080
32927W        W97912  10.684  32.522   0.036
32928W        W97913  41.148  26.243  13.421
32929W        W97914  41.889  12.184   2.115
32930W        W97915  28.022  13.057  10.644
32931W        W97916  19.723  25.526  14.243
32932W        W97917  21.807  44.294   3.474
32933W        W97918  41.132  21.089  13.688
32934W        W97919   8.978  43.953  14.789
32935W        W97920  26.281  27.981   2.162
32936W        W97921   0.089   0.700  12.534
32937W        W97922   2.545  16.225   3.469
32938W        W97923  39.229  35.649   5.405
32939W        W97924  10.214   5.013   5.035
32940W        W97925   6.837  19.161   2.395
32941W        W97926  16.095  35.961  12.932
32942W        W97927   2.374  40.763   1.195
32943W        W97928   6.680  38.863  14.948
32944W        W97929   6.954  16.121  12.480
32945W        W97930  22.887  39.365  12.200
32946W        W97931  29.837  30.244   5.446
32947W        W97932  33.748   4.773   0.324
32948W        W97933  30.522  19.533   2.706
32949W        W97934  26.603  38.322   0.925
32950W        W97935  27.092  37.607   2.177
32951W        W97936  38.243  10.857   0.270
32952W        W97937   4.937  15.943   0.335
32953W        W97938  29.570  22.775  13.356
32954W        W97939  19.223  27.231  11.923
32955W        W97940   1.947  37.576  13.446
32956W        W97941  15.249  32.056   4.590
32957W        W97942  42.731  41.881  13.915
32958W        W97943  32.284   0.709  13.465
32959W        W97944  27.702  10.855   0.506
32960W        W97945  33.051  22.478   2.355
32961W        W97946   3.154  13.752  13.256
32962W        W97947  14.736   9.073   0.436
32963W        W97948  16.082  25.496   0.294
32964W        W97949  31.368  15.593   9.994
32965W        W97950  33.375  18.689  14.394
32966W        W97951  13.468  34.168  11.687
32967W        W97952  14.718  23.669   2.811
32968W        W97953  14.835   4.911  13.607
32969W        W97954   3.090  26.106   1.773
32970W        W97955  15.818   3.904  13.019
32971W        W97956   8.923  37.454  12.367
32972W        W97957  11.862  24.615   3.851
32973W        W97958  39.941  43.479   2.617
32974W        W97959  21.459  13.225   0.450
32975W        W97960  10.235   5.013  14.283
32976W        W97961  25.453  38.480  11.008
32977W        W97962  33.441  41.378   0.398
32978W        W97963   5.332  29.413  10.671
32979W        W97964   0.815  37.531   4.616
32980W        W97965   1.604  23.906   0.369
32981W        W97966  35.484  17.616   2.795
32982W        W97967   9.112   7.385   1.439
32983W        W97968  35.493  12.837   3.218
32984W        W97969  16.729  27.509   0.756
32985W        W97970  33.870  25.139   3.270
32986W        W97971  42.911  10.571   1.720
32987W        W97972   3.670  11.072  11.999
32988W        W97973  13.829  10.637   1.268
32989W        W97974   9.285  15.375  11.442
32990W        W97975   0.338   1.340  12.969
32991W        W97976  30.102  27.586   4.606
32992W        W97977  43.793   3.322  10.510
32993W        W97978  44.267  10.590  11.652
32994W        W97979  18.069  19.480  12.095
32995W        W97980  30.911  15.159  11.330
32996W        W97981  24.375   5.848   5.005
32997W        W97982  23.925  19.042   4.368
32998W        W97983   2.119  36.857   4.361
32999W        W97984   8.766  10.188  11.300
33000W        W97985  34.140   3.513   1.325
33001W        W97986  19.656  10.520   3.981
33002W        W97987   6.870  10.381   3.107
33003W        W97988  28.099  38.796   1.617
33004W        W97989   1.795  19.047   0.810
33005W        W97990  22.641  40.540   1.153
33006W        W97991  29.918  15.679  12.013
33007W        W97992   1.944  33.900   3.186
33008W        W97993  19.202  23.200  12.472
33009W        W97994  30.251   3.675   0.337
33010W        W97995  34.912  14.068  13.044
33011W        W97996  35.535   1.248  13.369
33012W        W97997  26.085  21.429  14.751
33013W        W97998  39.352   8.818  13.848
33014W        W97999  10.725  22.310  12.911
33015W        W98000  18.729  31.693   0.586
33016W        W98001  23.909   4.373   4.269
33017W        W98002  36.962  30.374   4.612
33018W        W98003  39.844  18.796  13.599
33019W        W98004   7.426  41.740  14.386
33020W        W98005  14.392   2.259   0.291
33021W        W98006  26.638  10.037   4.071
33022W        W98007  31.837   3.463   5.051
33023W        W98008  19.112  21.236   4.547
33024W        W98009  41.568  33.985  12.440
33025W        W98010  40.951  18.157   1.799
33026W        W98011  31.352  41.056   9.860
33027W        W98012  36.622  19.865  14.002
33028W        W98013  16.242  15.112  10.450
33029W        W98014   6.576  32.148   3.211
33030W        W98015  21.072  37.918  11.410
33031W        W98016  24.960   8.154   4.009
33032W        W98017  33.887  42.799   3.620
33033W        W98018  37.365   1.223  14.855
33034W        W98019   0.984  22.922  12.159
33035W        W98020  26.949  14.511  11.013
33036W        W98021  29.562  33.163  11.084
33037W        W98022  26.624  39.900  11.132
33038W        W98023  15.132  44.819  11.363
33039W        W98024  34.618  37.655   1.295
33040W        W98025  33.973  18.808  13.739
33041W        W98026  22.957  23.182  13.455
33042W        W98027  18.255  44.975  10.666
33043W        W98028  16.179  11.854  12.878
33044W        W98029  12.170  24.172   2.310
33045W        W98030   9.435  12.262   2.867
33046W        W98031  23.821  11.753  11.254
33047W        W98032  13.680  34.659  12.920
33048W        W98033  23.609  35.448  11.181
33049W        W98034  26.588   6.881  10.630
33050W        W98035  17.126   9.216  10.365
33051W        W98036   9.640  22.462  14.009
33052W        W98037  25.290  32.030   0.485
33053W        W98038   6.081  18.448   3.279
33054W        W98039  44.927   5.629   1.420
33055W        W98040  11.147  19.258   0.227
33056W        W98041  30.088  23.811   3.777
33057W        W98042  10.197  23.555  14.331
33058W        W98043  15.130  34.286   3.253
33059W        W98044  34.425  24.487  11.629
33060W        W98045  23.608  15.210   2.341
33061W        W98046  10.833  16.100   3.644
33062W        W98047   1.894   4.330  13.764
33063W        W98048  38.275  17.687  13.595
33064W        W98049  40.905  34.032  11.146
33065W        W98050  39.618  40.353   2.201
33066W        W98051   2.908  42.724   2.147
33067W        W98052  23.702  14.881   1.145
33068W        W98053   3.767  19.995   2.823
33069W        W98054  16.033   0.290  12.984
33070W        W98055  21.653  34.084   1.888
33071W        W98056  20.282  18.529  12.788
33072W        W98057  24.036  12.152   0.898
33073W        W98058  15.546  28.309  14.840
33074W        W98059  40.125  21.476  11.179
33075W        W98060  27.127  32.303   1.325
33076W        W98061  44.914  32.004  12.409
33077W        W98062  13.297  17.786   2.466
33078W        W98063  22.052  28.824  13.904
33079W        W98064  44.230  29.578  14.734
33080W        W98065   3.751  17.572  12.039
33081W        W98066   4.459  25.900  12.164
33082W        W98067  14.866  18.308   3.762
33083W        W98068   1.308  39.540   3.233
33084W        W98069  36.129   5.131  14.362
33085W        W98070  21.961  34.071  10.707
33086W        W98071   0.986  23.981   1.747
33087W        W98072  24.460  19.003   1.984
33088W        W98073  17.400  19.724   3.684
33089W        W98074  35.610   7.272   1.071
33090W        W98075  36.169   4.248   2.675
33091W        W98076  11.118  31.860   0.311
33092W        W98077  26.212  28.051   1.303
33093W        W98078   8.141  18.508  12.570
33094W        W98079  23.692  19.085  12.491
33095W        W98080  14.293  14.919  11.089
33096W        W98081  41.707  19.744   3.194
33097W        W98082  25.560  13.575  13.027
33098W        W98083  42.813  11.848  14.737
33099W        W98084  18.322  17.350   3.760
33100W        W98085   8.748  26.824   0.301
33101W        W98086  21.845   2.064  11.441
33102W        W98087  24.267  28.286   4.610
33103W        W98088  21.179  13.045   1.844
33104W        W98089   4.702  18.106  12.646
33105W        W98090   5.409  19.258  14.753
33106W        W98091  38.823  11.590  12.492
33107W        W98092  10.424  33.646  13.544
33108W        W98093  15.233  30.788   1.417
33109W        W98094   5.787  20.726   2.930
33110W        W98095  27.640  41.861   1.431
33111W        W98096  32.902  24.776  14.836
33112W        W98097   5.227  34.894   4.480
33113W        W98098  39.976  12.328  12.905
33114W        W98099   9.409  12.342   4.786
33115W        W98100  27.549  10.295   3.643
33116W        W98101  15.477  18.789  10.517
33117W        W98102  14.034  11.168  12.512
33118W        W98103  35.509   5.649  14.096
33119W        W98104   6.653  42.117   0.422
33120W        W98105  14.673   5.395   1.511
33121W        W98106  15.151   3.877  11.889
33122W        W98107  30.981  22.771   4.017
33123W        W98108  38.188  30.635  13.524
33124W        W98109  40.496  24.959   3.673
33125W        W98110  42.968   3.689   2.729
33126W        W98111  35.950  10.378  12.257
33127W        W98112  44.904  23.610   2.219
33128W        W98113  43.000   0.097   0.341
33129W        W98114  11.978  25.187  11.931
33130W        W98115  12.724  35.805  14.195
33131W        W98116  17.314  33.665  11.098
33132W        W98117  12.577  14.706  10.704
33133W        W98118  16.104  15.576  13.925
33134W        W98119  36.295  14.807  13.124
33135W        W98120  12.432  33.932   4.175
33136W        W98121  31.316  35.353   0.727
33137W        W98122  14.626  39.294   4.285
33138W        W98123  40.479  44.103   2.357
33139W        W98124  16.156  41.554   1.294
33140W        W98125  35.582  44.856   1.852
33141W        W98126  37.585  43.055   4.574
33142W        W98127   8.969  43.962  14.267
33143W        W98128  36.865  41.405   4.940
33144W        W98129  37.479  36.342  12.184
33145W        W98130   5.643   3.405  13.375
33146W        W98131   0.906  32.649  10.391
33147W        W98132  15.617  33.364   0.499
33148W        W98133  10.181   5.383   0.688
33149W        W98134  32.477  22.641   4.573
33150W        W98135  43.549  28.496   1.212
33151W        W98136  39.510   9.098  14.401
33152W        W98137   8.210  22.656   3.660
33153W        W98138  17.841  26.859  11.023
33154W        W98139  21.385  27.207   0.855
33155W        W98140  14.076  44.480  12.464
33156W        W98141   1.521  20.281  13.808
33157W        W98142   8.752   6.463   0.526
33158W        W98143  35.610  29.418  14.680
33159W        W98144  44.075  19.984  14.432
33160W        W98145  42.462  37.579  12.084
33161W        W98146  18.307  34.225   3.168
33162W        W98147  29.158  19.802   4.604
33163W        W98148  18.867  22.153   1.856
33164W        W98149  36.618   7.882  14.235
33165W        W98150  17.776  44.691  14.572
33166W        W98151  32.282   3.757   0.317
33167W        W98152  29.441  34.890   4.099
33168W        W98153  30.039  27.539   1.670
33169W        W98154  26.263  24.190   1.809
33170W        W98155  29.917  11.034   2.087
33171W        W98156   6.808  24.045   4.798
33172W        W98157  32.189  16.435   0.019
33173W        W98158  36.585  13.620   3.222
33174W        W98159   0.020  12.266  14.872
33175W        W98160   8.433  43.470   4.451
33176W        W98161  13.634  22.143  14.645
33177W        W98162  20.867  23.843   3.232
33178W        W98163  36.565   5.683   3.232
33179W        W98164   7.906   1.382  13.336
33180W        W98165   4.873  31.174   1.777
33181W        W98166  21.599  20.281   0.314
33182W        W98167  40.564  23.909   2.839
33183W        W98168  36.746  34.960   1.918
33184W        W98169  29.344   5.944  12.826
33185W        W98170  10.646  26.120   1.502
33186W        W98171  29.069  23.488   0.944
33187W        W98172   5.856  26.081  11.968
33188W        W98173  18.716   8.680  12.013
33189W        W98174  10.215  19.047   2.671
33190W        W98175  14.056   5.196   4.120
33191W        W98176  22.039  31.624   3.111
33192W        W98177  42.434  19.925   2.455
33193W        W98178   0.549  11.256   1.748
33194W        W98179  11.207  40.508   1.358
33195W        W98180  28.828  19.500  12.539
33196W        W98181  40.143  20.953  11.169
33197W        W98182  40.728  44.171  12.513
33198W        W98183  28.997  17.979   4.325
33199W        W98184  11.233  41.151   2.841
33200W        W98185   2.761   5.704   3.737
33201W        W98186   9.224   2.301  11.189
33202W        W98187  40.996  34.625   0.557
33203W        W98188   7.316  12.926   0.903
33204W        W98189  11.397   9.832   4.116
33205W        W98190  39.128  15.578  11.505
33206W        W98191  18.878  32.218  12.432
33207W        W98192  29.632  29.014   1.826
33208W        W98193  17.404  14.745   2.893
33209W        W98194  41.071  39.048   3.532
33210W        W98195  32.180  30.053   3.610
33211W        W98196  11.430  27.112   0.937
33212W        W98197  11.876  17.937   1.739
33213W        W98198  32.880   9.281   0.878
33214W        W98199  13.979  41.355   4.276
33215W        W98200  13.684   8.801  13.147
33216W        W98201  34.022  40.912   4.115
33217W        W98202   3.498  23.667   3.534
33218W        W98203  10.848  35.794  12.839
33219W        W98204  11.265   8.473   2.625
33220W        W98205   1.679  13.606  11.561
33221W        W98206   5.867  14.058  11.476
33222W        W98207  38.293  44.865  11.663
33223W        W98208  37.428   8.950  11.756
33224W        W98209   0.755  18.323   3.694
33225W        W98210   2.359  21.496   4.518
33226W        W98211   2.504  14.597  13.426
33227W        W98212   3.647  31.947   1.942
33228W        W98213  20.132   2.708  10.639
33229W        W98214   0.008  30.087   4.571
33230W        W98215  41.353  27.725  10.024
33231W        W98216  19.955   5.401  12.929
33232W        W98217  40.561  17.552   1.379
33233W        W98218  20.051  19.805   0.112
33234W        W98219  21.708  40.477  13.799
33235W        W98220  16.117  15.087  12.380
33236W        W98221  34.073  11.564   0.808
33237W        W98222   4.346  40.290  10.995
33238W        W98223  40.453  29.212   3.516
33239W        W98224  24.151  40.552   1.908
33240W        W98225  31.815   3.475  10.570
33241W        W98226  16.671   0.000   2.780
33242W        W98227  30.017   8.870   4.072
33243W        W98228   2.345   2.212  13.028
33244W        W98229  25.545  37.909   1.339
33245W        W98230  44.090  22.751  11.917
33246W        W98231  36.112  40.621   4.195
33247W        W98232  16.404  20.047   0.469
33248W        W98233  21.769  21.128  13.295
33249W        W98234   5.861   1.787   2.291
33250W        W98235  42.836  32.366  12.935
33251W        W98236  43.922  35.015   0.248
33252W        W98237   3.085  32.713   2.911
33253W        W98238  11.670  14.219   2.281
33254W        W98239  10.158  32.231   4.157
33255W        W98240   4.428  17.548   1.801
33256W        W98241  30.444  13.614   2.752
33257W        W98242   6.665   3.369   3.250
33258W        W98243   5.347   9.262  11.252
33259W        W98244  21.611  36.370  10.788
33260W        W98245   1.208  29.740  11.337
33261W        W98246  28.451  38.242   2.215
33262W        W98247  36.322  38.301  14.829
33263W        W98248  22.029  36.220   1.787
33264W        W98249  17.870  43.670  14.478
33265W        W98250  39.990  13.116  11.149
33266W        W98251  23.618  39.957   3.877
33267W        W98252  20.541  39.491  10.751
33268W        W98253  44.910  12.389  11.046
33269W        W98254  35.556   6.785   2.301
33270W        W98255  26.585  29.392   2.316
33271W        W98256  34.533  29.881   3.850
33272W        W98257  34.150  27.098   1.681
33273W        W98258  30.675  37.400  14.519
33274W        W98259  21.114   4.235  12.100
33275W        W98260   9.237   5.969   2.564
33276W        W98261  35.477  19.259   0.688
33277W        W98262  27.181   2.769  11.150
33278W        W98263  21.563   5.769   2.857
33279W        W98264  34.860   0.346  12.959
33280W        W98265   0.912  15.734   1.227
33281W        W98266   2.966  41.240   3.315
33282W        W98267  32.687   1.563   3.916
33283W        W98268  24.740  36.960  14.014
33284W        W98269  36.147  41.997  13.019
33285W        W98270   8.151  38.335   0.848
33286W        W98271  10.681  11.111  12.095
33287W        W98272  14.917  24.907   5.032
33288W        W98273  16.591  44.456   3.633
33289W        W98274  27.317  38.886  10.309
33290W        W98275  35.321  14.019  10.607
33291W        W98276  10.786  21.982   4.083
33292W        W98277  21.862  25.315  14.156
33293W        W98278   4.268   6.575  13.433
33294W        W98279  15.772  36.845   4.266
33295W        W98280  11.969  39.343  11.653
33296W        W98281  10.930  40.024  13.469
33297W        W98282  27.469  32.972   2.007
33298W        W98283  25.090  23.981   0.299
33299W        W98284  16.757  44.383   4.115
33300W        W98285  34.058  11.809  14.407
33301W        W98286  17.576  22.783  10.075
33302W        W98287  21.110   4.423   1.778
33303W        W98288  18.478  12.515   2.126
33304W        W98289  35.422  32.299   0.918
33305W        W98290  41.533   6.499   3.834
33306W        W98291   2.309  11.172   3.592
33307W        W98292  28.442  20.492   0.833
33308W        W98293  36.331  15.157   2.679
33309W        W98294  38.378  20.786   4.068
33310W        W98295  39.677  27.299  14.273
33311W        W98296  21.524  34.978  10.646
33312W        W98297  34.669   9.846  12.126
33313W        W98298  10.761  11.788   0.640
33314W        W98299  16.463  35.550  14.343
33315W        W98300   8.392  21.258   3.085
33316W        W98301  41.033  13.098   1.761
33317W        W98302  36.961   0.413   3.803
33318W        W98303  34.495  11.574  14.548
33319W        W98304  37.657  43.385   4.187
33320W        W98305   7.413  41.257  12.398
33321W        W98306   5.033  32.382   0.626
33322W        W98307   0.789  37.884   0.724
33323W        W98308  13.082  24.474  11.409
33324W        W98309  37.844   9.182  14.867
33325W        W98310  13.892  19.996  12.582
33326W        W98311  22.608   9.876  11.468
33327W        W98312  44.798  29.520   1.057
33328W        W98313   7.699  32.503  12.625
33329W        W98314  42.298  40.287  10.733
33330W        W98315   2.835  26.003  12.464
33331W        W98316  27.417   8.932  11.945
33332W        W98317  37.945  38.553   4.073
33333W        W98318  13.766  41.854   0.961
33334W        W98319   3.032  40.959   1.839
33335W        W98320  15.456  40.937  12.991
33336W        W98321  29.181  40.068  14.933
33337W        W98322  30.490  11.060  11.910
33338W        W98323  25.177  14.884   3.174
33339W        W98324  41.613  36.653  14.895
33340W        W98325  17.624  28.989   3.472
33341W        W98326   8.483  14.692  13.826
33342W        W98327  36.383   6.225   0.913
33343W        W98328   3.734  15.213   0.465
33344W        W98329  36.419  33.911   0.704
33345W        W98330  24.438  28.691   0.122
33346W        W98331  33.093  21.786  13.659
33347W        W98332  12.805   1.907  14.019
33348W        W98333  43.491  26.677   4.533
33349W        W98334   0.290  41.054   2.291
33350W        W98335  21.659  21.538   3.269
33351W        W98336  33.906  40.583  13.966
33352W        W98337  10.831  32.993   0.929
33353W        W98338  20.299  29.519   2.889
33354W        W98339  15.350  38.047  11.985
33355W        W98340   2.252  43.922  10.739
33356W        W98341  38.504  39.517   2.751
33357W        W98342  38.682  42.740   4.143
33358W        W98343   8.622  27.158  14.923
33359W        W98344  35.392   6.717   3.265
33360W        W98345  16.919  36.617  13.967
33361W        W98346  14.160  33.205   4.740
33362W        W98347  40.934  27.312  10.494
33363W        W98348  34.324   9.879  13.743
33364W        W98349  27.181  18.340  13.954
33365W        W98350  14.280  20.770   3.494
33366W        W98351  31.765  12.343   0.534
33367W        W98352  43.228  17.022   2.913
33368W        W98353  39.544  14.336  13.518
33369W        W98354   6.455  44.234   2.351
33370W        W98355  33.901  41.556   0.535
33371W        W98356  43.906   0.982   4.724
33372W        W98357  13.621  36.009   0.745
33373W        W98358  44.604   4.995   2.759
33374W        W98359  39.963  43.523  12.611
33375W        W98360  29.026  35.599  13.579
33376W        W98361   5.799  44.155   1.761
33377W        W98362  16.156  26.643   2.320
33378W        W98363  20.056  16.975  12.881
33379W        W98364  19.612  35.578   4.115
33380W        W98365   8.566  39.187   5.044
33381W        W98366  39.071  44.711   3.333
33382W        W98367  18.479  26.921  11.559
33383W        W98368  19.940  29.876   4.874
33384W        W98369  40.847  18.956  12.401
33385W        W98370  20.614  24.037   4.627
33386W        W98371  25.261  35.563  12.594
33387W        W98372  35.271   5.016   3.275
33388W        W98373  37.097  29.216   4.125
33389W        W98374   9.131  39.956   0.866
33390W        W98375   4.818  44.575  13.710
33391W        W98376  38.447  37.091  11.124
33392W        W98377  43.522  29.412   0.245
33393W        W98378  14.674  21.103   4.629
33394W        W98379  25.084   0.324   4.445
33395W        W98380   5.911  15.816   0.558
33396W        W98381   1.900  19.748   3.391
33397W        W98382   2.617  13.295  13.789
33398W        W98383  37.382  40.239  11.559
33399W        W98384  43.924  11.192   0.707
33400W        W98385   4.840  39.802  12.470
33401W        W98386  24.239  14.889   4.108
33402W        W98387  24.060   2.267   2.794
33403W        W98388  42.309   6.328  13.115
33404W        W98389   7.642  11.157   4.790
33405W        W98390  36.940  26.896   4.626
33406W        W98391  13.888   3.917  11.089
33407W        W98392  34.586  33.195  14.712
33408W        W98393   7.610  30.642   4.064
33409W        W98394   1.323   3.833  11.599
33410W        W98395  24.607   2.050  10.201
33411W        W98396  28.949  37.761   3.145
33412W        W98397  20.267   9.821  10.840
33413W        W98398   0.939  43.734   3.606
33414W        W98399   2.504  11.631   3.720
33415W        W98400  18.256  24.993   2.725
33416W        W98401  41.675  12.230  14.626
33417W        W98402  25.608  17.081  12.080
33418W        W98403  22.666   0.382   2.187
33419W        W98404  36.800  32.543  11.169
33420W        W98405  20.206  30.439  14.030
33421W        W98406  40.909  22.128   0.963
33422W        W98407  35.907   6.766  14.415
33423W        W98408  30.080  30.241   0.630
33424W        W98409  21.669  38.598   4.130
33425W        W98410  38.112  44.330   4.436
33426W        W98411  33.357  10.758   1.818
33427W        W98412  27.204  39.034  14.008
33428W        W98413  37.809  10.746  14.289
33429W        W98414  15.801  14.628  13.503
33430W        W98415  41.027  21.269   2.718
33431W        W98416   8.704  32.826   4.098
33432W        W98417  31.356  35.407  14.203
33433W        W98418  19.085  38.946  10.503
33434W        W98419  27.959  16.044   3.251
33435W        W98420  31.828  35.640  12.416
33436W        W98421  36.992   9.247  11.736
33437W        W98422   4.221  34.161   3.276
33438W        W98423  30.411  21.133   4.596
33439W        W98424   9.076  41.580   4.116
33440W        W98425  17.359  34.016   1.464
33441W        W98426   8.425   5.944   2.283
33442W        W98427  39.731   1.952  12.318
33443W        W98428  19.046  28.022  12.233
33444W        W98429  31.909   8.160   1.258
33445W        W98430  23.655  42.402  11.743
33446W        W98431   7.805   9.568  13.457
33447W        W98432  21.661  42.450   1.265
33448W        W98433  16.053  20.250  13.673
33449W        W98434  44.495   2.972  10.475
33450W        W98435  23.333  44.712  11.535
33451W        W98436  10.866  36.083  12.420
33452W        W98437  18.465  13.833  11.000
33453W        W98438  44.312  12.810  12.593
33454W        W98439  41.663   5.354  13.225
33455W        W98440  30.678  24.146   0.225
33456W        W98441  24.126  22.043  13.056
33457W        W98442  29.017  43.872   0.831
33458W        W98443  36.119  27.104   1.882
33459W        W98444  17.099  24.467  13.042
33460W        W98445  18.646   6.513  13.000
33461W        W98446  36.264  22.651   3.261
33462W        W98447  30.434  38.822  11.323
33463W        W98448  25.706  38.985   4.892
33464W        W98449  14.469   1.171  14.845
33465W        W98450   1.049  17.509   2.822
33466W        W98451  22.246  22.854   3.262
33467W        W98452  42.863  13.277   0.883
33468W        W98453   0.068  34.860  13.444
33469W        W98454  37.120  25.261   1.376
33470W        W98455  10.832  36.988  12.409
33471W        W98456  31.109   7.998   1.833
33472W        W98457  38.383  17.121   0.531
33473W        W98458   3.942   6.150  11.136
33474W        W98459  25.400   6.979   0.978
33475W        W98460  25.825  31.744  12.761
33476W        W98461  44.706   7.942   4.795
33477W        W98462  18.674  19.301  13.789
33478W        W98463  10.756  19.279   1.877
33479W        W98464  35.342  31.409   0.722
33480W        W98465  44.941  16.627  11.615
33481W        W98466  29.202  23.211   2.820
33482W        W98467   3.413  25.190  14.791
33483W        W98468  34.512  12.887  10.640
33484W        W98469   7.329  26.876  12.186
33485W        W98470  22.985  25.782   1.647
33486W        W98471  44.426  34.063  13.521
33487W        W98472  13.653   6.037  10.313
33488W        W98473  35.228  32.749  12.220
33489W        W98474  36.926  30.320   5.142
33490W        W98475  43.405  22.460  11.469
33491W        W98476  37.958  14.344  13.088
33492W        W98477   9.033   7.400   0.922
33493W        W98478  44.764  40.465   1.965
33494W        W98479  26.513  39.613  13.061
33495W        W98480   8.822  37.427   1.436
33496W        W98481  38.970  32.440   4.531
33497W        W98482  42.248  13.935   0.274
33498W        W98483  23.025  44.899   3.333
33499W        W98484   2.008  12.337   4.095
33500W        W98485   2.147   6.593  11.141
33501W        W98486   7.732   3.842  10.057
33502W        W98487  39.029  29.390   0.997
33503W        W98488  11.357  27.122  13.065
33504W        W98489  22.201  23.847   3.137
33505W        W98490  10.731  42.964   4.108
33506W        W98491   2.195  44.005   4.136
33507W        W98492  34.877  42.564   0.349
33508W        W98493  26.036   0.896   0.577
33509W        W98494   6.446  36.042  12.991
33510W        W98495  11.347  14.616   4.008
33511W        W98496  17.845  32.298   2.373
33512W        W98497   6.510  11.593  11.661
33513W        W98498   7.654   3.933   2.367
33514W        W98499   7.622   6.719   2.249
33515W        W98500  33.992  33.594   0.837
33516W        W98501  37.073  29.189   1.395
33517W        W98502  26.812  25.245   4.192
33518W        W98503  18.675   0.648  13.559
33519W        W98504  21.932  24.405  12.112
33520W        W98505   1.814  37.039  14.289
33521W        W98506   9.270   5.380  14.452
33522W        W98507  22.173   1.883  11.782
33523W        W98508   4.869  44.092   5.102
33524W        W98509   4.973  39.579  14.887
33525W        W98510  20.447   7.006   2.304
33526W        W98511  42.868  42.033  10.764
33527W        W98512  15.097  35.892  12.985
33528W        W98513  39.811  12.830  12.943
33529W        W98514  10.428  41.264   2.912
33530W        W98515  37.672  24.979  12.919
33531W        W98516  35.042  20.945  11.987
33532W        W98517  15.737  36.190  12.018
33533W        W98518  16.320  44.736  14.416
33534W        W98519  38.386  28.493  12.052
33535W        W98520   6.190  30.459  14.887
33536W        W98521   5.260  30.878  13.443
33537W        W98522  25.629  19.804  11.936
33538W        W98523  22.982  27.684   4.457
33539W        W98524   3.431  36.781  14.982
33540W        W98525  19.590  10.289  14.304
33541W        W98526  11.181  23.684   1.609
33542W        W98527  44.660  31.027   5.076
33543W        W98528  38.816  16.932  12.919
33544W        W98529  28.380  18.266  12.482
33545W        W98530  18.983  15.223  11.037
33546W        W98531  17.281  14.544   0.864
33547W        W98532  29.572  30.546   0.755
33548W        W98533   5.371  31.803   1.222
33549W        W98534  40.916  11.169   1.086
33550W        W98535  33.096  15.575   2.336
33551W        W98536  27.510  12.382  13.978
33552W        W98537  10.187  23.325   3.227
33553W        W98538  11.926  34.868  13.740
33554W        W98539  37.485  16.463  11.598
33555W        W98540  44.371  17.249   1.510
33556W        W98541  39.757  18.830   2.574
33557W        W98542  43.846  13.118   0.357
33558W        W98543  16.173  25.633   1.186
33559W        W98544  39.114   5.373   3.768
33560W        W98545   1.638  18.174   0.258
33561W        W98546  31.903  36.279  14.415
33562W        W98547   5.715  11.094  12.583
33563W        W98548  31.766   0.899   4.201
33564W        W98549   6.251   1.050  14.387
33565W        W98550  35.400  13.765   2.325
33566W        W98551  10.099  24.187   0.829
33567W        W98552   8.746  17.088   2.200
33568W        W98553  42.829  42.856  12.861
33569W        W98554  23.489  23.739  12.620
33570W        W98555  37.805  15.271  13.883
33571W        W98556  27.084  33.026  13.246
33572W        W98557  24.623  40.911   0.862
33573W        W98558  21.451   5.375  14.306
33574W        W98559  20.457  33.957  11.886
33575W        W98560  29.195  27.016   1.170
33576W        W98561  29.182  23.258   1.924
33577W        W98562  28.110  38.805   4.997
33578W        W98563  13.411  29.464  13.012
33579W        W98564  34.767  31.041  11.382
33580W        W98565  41.077  19.462   1.159
33581W        W98566  29.900  21.150   4.706
33582W        W98567  40.899   9.747  12.531
33583W        W98568  22.280  36.275  14.033
33584W        W98569  12.839  27.759  13.707
33585W        W98570  23.337  40.764  14.775
33586W        W98571  30.131  22.720  10.795
33587W        W98572  44.921   6.443   4.581
33588W        W98573  38.669   1.931  14.997
33589W        W98574  25.964  25.161   1.759
33590W        W98575  14.243  40.071  12.074
33591W        W98576   5.644  14.067   2.878
33592W        W98577   4.345  32.446  14.413
33593W        W98578  22.367  23.467  11.275
33594W        W98579  15.691  27.096   3.473
33595W        W98580   0.379  40.481  12.590
33596W        W98581  12.585  33.606   3.769
33597W        W98582   5.742   5.988  12.102
33598W        W98583   0.790  39.510   2.003
33599W        W98584  22.652  27.138   2.013
33600W        W98585  21.002  38.186  10.124
33601W        W98586  13.426  32.317  14.584
33602W        W98587  21.552  39.245  11.115
33603W        W98588  28.788  35.499   2.545
33604W        W98589   7.550  10.221   2.334
33605W        W98590  24.526  31.320  14.366
33606W        W98591  36.018  25.390   0.768
33607W        W98592  36.992  14.151   3.948
33608W        W98593  30.617  18.612   2.856
33609W        W98594  18.170  18.900  13.386
33610W        W98595  36.623  24.639   0.745
33611W        W98596  11.841  31.756  13.456
33612W        W98597  23.567  31.818  11.513
33613W        W98598  20.126  22.960   2.746
33614W        W98599   1.867  14.544   2.594
33615W        W98600  16.345   6.476  14.365
33616W        W98601  38.852  19.645   4.067
33617W        W98602  15.761  44.158  10.852
33618W        W98603   0.950  39.186   1.652
33619W        W98604   7.688   8.570   0.036
33620W        W98605  42.367   8.685   5.005
33621W        W98606  26.089  14.803  12.000
33622W        W98607  44.697   8.338  14.733
33623W        W98608  13.315  23.666   0.424
33624W        W98609  32.837  21.646  11.497
33625W        W98610  33.572  44.056  11.334
33626W        W98611  40.072  12.245  13.773
33627W        W98612  19.579   9.498   4.078
33628W        W98613   7.361   4.744   2.161
33629W        W98614  12.418  22.481  12.594
33630W        W98615  10.380   1.024  12.779
33631W        W98616   5.428   0.332  10.649
33632W        W98617  31.500  11.525   2.364
33633W        W98618   1.247   5.714   2.654
33634W        W98619  13.806  43.932  12.032
33635W        W98620   9.583  23.825   2.546
33636W        W98621  42.849  32.162   4.586
33637W        W98622  24.367   7.863  13.950
33638W        W98623  42.967  32.660   4.547
33639W        W98624  33.444  43.273   2.396
33640W        W98625  28.234  34.840  14.856
33641W        W98626  20.343  25.925  14.837
33642W        W98627  16.023  43.820  14.011
33643W        W98628  38.110   3.915  13.121
33644W        W98629   9.736  15.298   1.789
33645W        W98630  26.284  11.169   1.487
33646W        W98631   5.926  33.549   0.726
33647W        W98632  15.107  21.073  10.536
33648W        W98633   7.900  17.674   1.888
33649W        W98634  18.993  28.420  13.864
33650W        W98635  38.815  42.387   0.214
33651W        W98636  43.823  44.984  14.544
33652W        W98637  31.636  40.334   4.573
33653W        W98638  29.501  26.413  11.155
33654W        W98639  42.834  16.616   2.857
33655W        W98640   5.890   2.401  11.722
33656W        W98641  11.717  18.082  13.672
33657W        W98642   7.596  15.776   0.282
33658W        W98643  11.758  24.238  12.025
33659W        W98644  10.907   4.352   4.057
33660W        W98645  38.184  26.460   0.335
33661W        W98646  24.225  13.647   2.497
33662W        W98647  16.890  34.557  13.330
33663W        W98648  23.473   1.373  12.919
33664W        W98649   7.404   2.224   5.388
33665W        W98650  11.183  28.098   3.163
33666W        W98651  35.896  35.100  13.251
33667W        W98652  12.862  27.593  11.123
33668W        W98653  11.981  17.135   3.744
33669W        W98654   5.243  34.467   0.191
33670W        W98655   1.974  12.682  14.915
33671W        W98656  10.664   4.832   0.366
33672W        W98657   1.336  31.554   1.994
33673W        W98658   9.676  17.729  14.268
33674W        W98659  32.379  12.885  12.806
33675W        W98660  31.434   5.864  14.263
33676W        W98661  25.451  19.210  10.763
33677W        W98662  26.043  14.826  10.424
33678W        W98663   8.348  14.061   3.863
33679W        W98664   9.121  27.542   2.252
33680W        W98665  10.896  37.976   0.474
33681W        W98666  44.814   7.129  13.072
33682W        W98667  20.339   1.456  12.555
33683W        W98668   7.384  43.955   4.412
33684W        W98669  32.286  36.503   4.515
33685W        W98670  34.693   7.145   4.937
33686W        W98671   7.848  30.426   3.647
33687W        W98672  36.636   4.411   0.933
33688W        W98673  12.951  35.409  12.564
33689W        W98674  32.353  29.574  13.733
33690W        W98675  21.345  44.899  12.109
33691W        W98676  21.057  12.917   3.220
33692W        W98677  27.533  30.415  11.996
33693W        W98678  26.156   7.700   3.578
33694W        W98679  23.204   6.512   4.550
33695W        W98680  31.024  24.228  13.090
33696W        W98681  31.518   1.534  13.499
33697W        W98682   0.610  34.382  11.965
33698W        W98683  16.120  16.106  14.729
33699W        W98684  32.623  35.003  14.770
33700W        W98685   0.487   8.194   2.785
33701W        W98686  43.753   0.046   0.938
33702W        W98687   8.428   9.830  14.832
33703W        W98688  21.645  16.677   1.302
33704W        W98689  38.388   7.657  11.116
33705W        W98690  16.064  43.974   1.060
33706W        W98691  36.065  12.331  10.999
33707W        W98692  39.554   8.020   3.867
33708W        W98693  44.425   8.137   1.904
33709W        W98694  22.417   7.246  11.644
33710W        W98695  19.608  22.459  10.789
33711W        W98696  28.425   4.397   4.384
33712W        W98697  14.837  11.299   3.320
33713W        W98698   1.003  24.279  11.051
33714W        W98699  23.598  20.074  11.155
33715W        W98700  16.327  25.105   0.061
33716W        W98701  26.214  11.929  14.958
33717W        W98702  17.561  33.943  11.857
33718W        W98703  21.160  27.253   4.251
33719W        W98704  41.728  21.198  14.910
33720W        W98705  22.226   7.362  11.191
33721W        W98706  23.985  18.616  13.462
33722W        W98707  11.810   5.862   4.153
33723W        W98708  21.728  28.865  12.735
33724W        W98709  34.699  12.282  10.642
33725W        W98710  43.801  14.277   3.247
33726W        W98711  35.397  44.452  10.935
33727W        W98712   1.001  14.882   2.430
33728W        W98713   6.339  18.583  10.466
33729W        W98714  22.650  35.460   4.802
33730W        W98715   3.661  30.456   1.846
33731W        W98716  38.652   4.708  13.529
33732W        W98717   6.726  39.143   1.909
33733W        W98718  15.529   8.945  13.842
33734W        W98719  30.120   2.206  13.070
33735W        W98720  41.239  30.423  11.560
33736W        W98721   9.174  24.054  14.770
33737W        W98722  44.476  40.751  13.019
33738W        W98723  38.900  32.455  12.119
33739W        W98724  19.136  34.436  13.982
33740W        W98725  27.331  16.609   2.249
33741W        W98726  23.209  15.829  12.493
33742W        W98727  18.156  24.088  12.478
33743W        W98728  10.585  27.153  12.349
33744W        W98729   8.233   0.323   3.292
33745W        W98730  11.213  32.646  14.060
33746W        W98731  29.087  37.335   3.425
33747W        W98732   5.680  19.048  13.459
33748W        W98733  36.322  39.476  14.460
33749W        W98734   5.737   9.060  10.561
33750W        W98735  33.899  40.643   0.477
33751W        W98736  42.936  15.014   0.419
33752W        W98737  39.607  43.834   3.852
33753W        W98738  33.237   2.961   1.235
33754W        W98739  30.386  41.297  12.826
33755W        W98740  12.817  36.095   4.686
33756W        W98741   2.928  12.856   0.048
33757W        W98742  36.625  41.413  13.060
33758W        W98743  15.563  23.014   4.095
33759W        W98744   1.273   6.173   3.756
33760W        W98745  19.744  28.997   4.930
33761W        W98746  37.309  23.509  11.677
33762W        W98747   1.266  43.482  13.336
33763W        W98748   3.491  25.506   1.330
33764W        W98749  42.226  31.851  12.477
33765W        W98750  18.230  36.658   3.894
33766W        W98751  29.105   0.277  14.811
33767W        W98752  17.127  10.015   0.766
33768W        W98753   8.358  41.428  14.293
33769W        W98754  44.500  34.324  11.204
33770W        W98755  14.194  27.670   1.027
33771W        W98756  22.805  14.344   0.906
33772W        W98757  13.881  15.052   0.332
33773W        W98758  20.083  43.782   1.889
33774W        W98759   1.700  41.507  12.346
33775W        W98760   9.340  11.837  14.275
33776W        W98761  21.132  28.129  11.206
33777W        W98762  42.368   2.735   3.614
33778W        W98763   8.491  38.971   3.358
33779W        W98764  34.306  34.616   1.773
33780W        W98765  38.858  18.166   5.315
33781W        W98766   5.175  22.707  14.904
33782W        W98767  15.129  23.519  12.973
33783W        W98768  28.986   6.208  12.336
33784W        W98769  25.124  17.850  14.200
33785W        W98770   3.404  17.758  11.697
33786W        W98771  10.384  14.247  11.185
33787W        W98772  27.086  31.106  10.873
33788W        W98773  26.545  37.310   3.390
33789W        W98774  12.881  28.624  13.436
33790W        W98775  38.391  31.902  11.181
33791W        W98776  44.985  27.681   4.417
33792W        W98777  28.712  37.935  13.809
33793W        W98778  36.429  27.697  12.436
33794W        W98779  11.462  33.203  14.931
33795W        W98780  17.280  39.848  13.088
33796W        W98781  10.190  28.971  13.638
33797W        W98782  43.328  17.300  12.108
33798W        W98783   6.473  24.623   3.897
33799W        W98784  16.905  23.057  11.829
33800W        W98785   9.912   6.690  13.562
33801W        W98786  39.976   2.011   4.535
33802W        W98787  42.397  38.785   3.745
33803W        W98788   1.513  32.428  13.439
33804W        W98789  27.920  15.990   1.884
33805W        W98790  38.567  22.155  13.847
33806W        W98791  10.320  19.225   0.669
33807W        W98792  15.322   8.744  14.283
33808W        W98793  39.376  14.584  13.096
33809W        W98794  38.435  25.679   0.892
33810W        W98795  10.206  14.769   4.659
33811W        W98796  14.297  11.795  10.471
33812W        W98797  33.737  11.354   4.610
33813W        W98798  36.578   0.826   2.648
33814W        W98799   7.322  34.146  11.164
33815W        W98800   8.813  20.254  14.262
33816W        W98801  25.067  11.255   4.052
33817W        W98802  27.595  41.933   2.353
33818W        W98803   2.822  25.387   1.171
33819W        W98804  14.133  10.350  14.586
33820W        W98805  35.358  31.162   2.803
33821W        W98806  30.442  28.348   0.825
33822W        W98807  26.462  44.203  14.511
33823W        W98808  42.027  24.662  14.707
33824W        W98809  18.255   6.480  13.361
33825W        W98810  43.371  34.283   1.149
33826W        W98811  38.413   9.320  13.868
33827W        W98812  23.308   8.706   0.826
33828W        W98813   1.165  18.790  11.181
33829W        W98814  38.046  40.408   2.369
33830W        W98815  13.423  44.692  13.650
33831W        W98816   0.263  27.870   0.923
33832W        W98817  30.451  30.592  14.968
33833W        W98818  41.027   8.737   0.820
33834W        W98819  18.103  12.168   4.661
33835W        W98820   8.633  33.529   4.580
33836W        W98821  20.690  24.335  13.949
33837W        W98822  37.539  12.629  11.617
33838W        W98823  26.916  33.319   5.065
33839W        W98824  41.116  37.831   0.270
33840W        W98825  26.957   5.906   3.636
33841W        W98826  13.704  34.529   1.661
33842W        W98827  33.949  17.694  11.997
33843W        W98828   8.463   6.140  10.603
33844W        W98829  28.052  22.053   2.324
33845W        W98830  38.624   5.231   3.711
33846W        W98831  11.802   7.443  11.384
33847W        W98832  30.111  17.757  10.780
33848W        W98833  30.946  18.917   3.229
33849W        W98834   6.264  11.628  12.527
33850W        W98835  12.281   2.892   3.013
33851W        W98836  17.417  18.855   9.814
33852W        W98837  19.612  17.347  14.559
33853W        W98838  23.663  41.133  13.862
33854W        W98839   4.890  34.136   1.518
33855W        W98840  27.607  13.181  14.363
33856W        W98841  36.363  37.058   2.928
33857W        W98842  39.249  35.600   2.246
33858W        W98843  26.201   2.334  12.448
33859W        W98844  19.187  36.493   2.415
33860W        W98845  14.339  23.978   4.161
33861W        W98846   1.026   5.171  11.569
33862W        W98847  31.622  33.404   3.365
33863W        W98848   8.807  15.332   2.685
33864W        W98849  13.633   3.985   4.536
33865W        W98850  34.050  31.579  14.535
33866W        W98851  32.100  40.869   1.403
33867W        W98852  11.637  36.289   2.742
33868W        W98853   3.526  37.151  13.892
33869W        W98854  11.269  37.045  10.982
33870W        W98855  19.713   4.900   2.244
33871W        W98856  37.879   6.515  10.983
33872W        W98857   0.906  21.543  11.904
33873W        W98858  43.796  21.050   1.368
33874W        W98859  11.938   5.889   2.210
33875W        W98860  41.318  37.640   5.543
33876W        W98861   4.922  11.496   3.706
33877W        W98862  29.528  16.336  13.977
33878W        W98863  33.477  30.000   3.297
33879W        W98864   0.401   2.431   3.851
33880W        W98865   3.244  27.095   3.567
33881W        W98866  28.433  33.253  13.111
33882W        W98867  37.556  18.608  11.214
33883W        W98868  35.642  37.968   1.330
33884W        W98869  19.119  14.389   3.247
33885W        W98870  20.595   9.300   1.202
33886W        W98871  36.191  40.320  13.166
33887W        W98872  12.859  10.165   2.766
33888W        W98873  44.004  17.847  14.940
33889W        W98874   4.398  14.456  10.754
33890W        W98875  23.028  34.132   9.641
33891W        W98876  13.657  13.741   0.402
33892W        W98877  24.705  14.246   0.437
33893W        W98878  15.856  19.595   2.691
33894W        W98879   2.774   6.803   1.122
33895W        W98880   5.960  16.219   3.699
33896W        W98881  15.177  37.266  13.879
33897W        W98882   3.955   9.377   4.130
33898W        W98883  26.142   8.727   4.390
33899W        W98884  41.008  33.506   1.218
33900W        W98885  39.227  42.258  13.976
33901W        W98886  44.970   3.282   4.606
33902W        W98887   7.929  44.222   0.588
33903W        W98888  25.620  43.514   2.454
33904W        W98889  11.954  11.240  12.798
33905W        W98890   5.233   9.174   0.905
33906W        W98891  43.345   7.797   0.975
33907W        W98892  14.327  40.606   3.783
33908W        W98893   0.501  25.926   0.540
33909W        W98894   3.505  38.478  13.044
33910W        W98895  39.674  37.917   3.874
33911W        W98896   8.454  17.771   4.500
33912W        W98897   5.746   3.382   3.609
33913W        W98898   6.211  30.827   1.881
33914W        W98899  36.295  41.102  12.801
33915W        W98900   6.361  19.435   3.243
33916W        W98901  29.183  34.742  11.928
33917W        W98902  20.706  42.580  11.186
33918W        W98903  30.706   7.270   0.720
33919W        W98904   2.999  12.220  12.347
33920W        W98905   4.278   0.987   9.931
33921W        W98906   2.364  20.334  11.269
33922W        W98907  35.442   1.308  12.515
33923W        W98908  42.846  14.639  11.041
33924W        W98909  37.997  15.311  14.379
33925W        W98910  20.114  15.687  10.672
33926W        W98911  34.071   5.305  12.177
33927W        W98912  19.885  19.622  14.559
33928W        W98913  11.404   4.910  14.769
33929W        W98914  36.274  36.779  14.722
33930W        W98915  38.778  27.265  12.594
33931W        W98916  12.761   9.154   2.659
33932W        W98917  13.342  27.492  10.236
33933W        W98918  31.991  19.626   3.368
33934W        W98919  36.949  23.833  12.573
33935W        W98920  18.519   4.300   2.713
33936W        W98921  26.108  12.458  12.477
33937W        W98922  23.194  19.578  14.798
33938W        W98923  37.800  32.112  10.905
33939W        W98924  21.676  32.209  14.889
33940W        W98925  13.213   9.717   1.713
33941W        W98926  16.829  14.799   3.791
33942W        W98927  33.303  14.223  13.115
33943W        W98928  30.456  39.225   2.148
33944W        W98929   1.507  41.907  11.627
33945W        W98930   3.951  12.639   1.445
33946W        W98931   2.843  15.067   1.137
33947W        W98932   3.043  15.422  14.928
33948W        W98933  30.972  40.350  13.285
33949W        W98934  35.802  19.539   0.195
33950W        W98935  13.444  20.521   1.988
33951W        W98936  21.317  29.105  11.500
33952W        W98937  21.177  14.165   2.617
33953W        W98938  16.990  17.563   0.271
33954W        W98939  25.866  43.226  11.772
33955W        W98940  31.173  28.303  13.487
33956W        W98941  15.243  31.906  12.449
33957W        W98942   6.681  43.364  12.415
33958W        W98943  22.567  35.042  13.370
33959W        W98944  37.765  28.642   4.133
33960W        W98945  21.201   5.838   1.779
33961W        W98946  22.707  10.907  10.663
33962W        W98947   1.667  28.949   1.348
33963W        W98948  22.310  22.826  13.748
33964W        W98949  27.660  36.051   0.759
33965W        W98950   1.235  34.061   4.771
33966W        W98951   4.304  44.453  12.095
33967W        W98952  21.272  14.665   4.549
33968W        W98953   2.838  44.384   2.746
33969W        W98954  28.046  30.672  13.747
33970W        W98955  10.326  17.681   1.011
33971W        W98956  38.332  26.082   2.265
33972W        W98957  42.715  14.102   0.437
33973W        W98958  36.447  13.297   4.581
33974W        W98959  15.576  38.805   1.294
33975W        W98960  35.641  39.253   1.006
33976W        W98961   6.946   9.875  14.324
33977W        W98962  29.422  15.229   1.896
33978W        W98963  22.752  34.276  10.074
33979W        W98964  26.955   8.626  14.994
33980W        W98965  36.585  27.469   2.718
33981W        W98966  15.522  18.043  14.370
33982W        W98967  38.418  16.666  11.925
33983W        W98968   7.881  16.774  11.104
33984W        W98969  21.631  17.621   1.423
33985W        W98970  23.291  20.805   2.245
33986W        W98971  41.404   1.850  14.939
33987W        W98972  26.023   1.068  13.030
33988W        W98973  40.405  21.066   1.419
33989W        W98974  24.948   5.420   3.669
33990W        W98975  34.540  22.317   1.912
33991W        W98976  41.618   1.318   2.695
33992W        W98977  20.925  27.009   2.123
33993W        W98978   3.574  39.627   4.640
33994W        W98979  13.187  20.535   3.383
33995W        W98980  17.768  24.931   2.937
33996W        W98981  34.181   2.963   2.896
33997W        W98982  12.878  14.709  13.433
33998W        W98983   8.348   6.245  14.283
33999W        W98984  11.464  43.276  13.432
34000W        W98985  11.875  14.382  10.341
34001W        W98986  29.304  14.953   3.048
34002W        W98987  22.592  39.395   1.702
34003W        W98988   3.353  44.344  11.872
34004W        W98989  37.503  37.811   2.489
34005W        W98990   7.472  31.943   1.341
34006W        W98991  31.159   9.415  12.131
34007W        W98992  31.047  30.471  10.658
34008W        W98993  33.378  14.764   1.173
34009W        W98994   7.751   7.591  14.762
34010W        W98995   7.207  17.685   1.274
34011W        W98996   6.085  39.341   1.334
34012W        W98997   7.211   7.577   3.832
34013W        W98998  42.142  15.494   9.555
34014W        W98999  24.863  19.645   1.892
34015W        W99000  28.376  13.080  12.854
34016W        W99001  25.734  17.303   1.815
34017W        W99002  24.526  28.411   2.748
34018W        W99003  40.417  24.410  13.014
34019W        W99004  20.798  23.282   9.951
34020W        W99005   6.210  22.218   4.966
34021W        W99006  15.385  26.974   0.748
34022W        W99007  31.470  24.166  13.357
34023W        W99008  25.195  29.513  13.448
34024W        W99009  42.023  42.012   3.684
34025W        W99010  14.624  26.461  11.198
34026W        W99011   1.753  32.659  14.102
34027W        W99012  25.475   1.752   1.849
34028W        W99013  21.698   1.208  14.235
34029W        W99014  37.483  32.555  10.730
34030W        W99015   4.464  32.469  12.887
34031W        W99016  23.883   6.642   1.919
34032W        W99017  30.302  33.457   1.882
34033W        W99018  32.888   5.809   1.567
34034W        W99019  19.764   9.088   2.594
34035W        W99020  15.722  10.505   4.019
34036W        W99021  20.419  38.008  12.613
34037W        W99022  42.319  22.030  11.114
34038W        W99023  41.981  10.239  12.939
34039W        W99024  43.864  36.969  14.972
34040W        W99025  38.461  20.499   2.676
34041W        W99026  25.701  30.672  12.057
34042W        W99027  43.765  24.467   4.597
34043W        W99028  16.794  22.983  14.016
34044W        W99029  12.508  35.133  13.392
34045W        W99030  25.634   3.671  13.268
34046W        W99031  42.382   2.803  14.640
34047W        W99032  17.786   5.451  13.966
34048W        W99033   3.297  44.290  14.737
34049W        W99034   4.974  43.845  10.540
34050W        W99035  11.866  20.717   4.566
34051W        W99036  11.840  17.321  14.269
34052W        W99037  24.757  15.794   2.727
34053W        W99038  37.915  17.089   2.736
34054W        W99039   4.282   0.810  13.281
34055W        W99040  17.717  36.300   0.274
34056W        W99041  13.642  15.859   0.217
34057W        W99042   4.953  33.576   3.742
34058W        W99043  23.927  29.454   5.074
34059W        W99044   2.499  18.477   3.458
34060W        W99045  14.584   6.423  12.427
34061W        W99046  44.237  10.769  12.570
34062W        W99047   2.368  20.588   3.609
34063W        W99048   7.318   4.364   1.304
34064W        W99049  42.974   3.091   3.443
34065W        W99050  27.634  17.766  11.849
34066W        W99051   4.182  37.613  11.040
34067W        W99052  20.991  19.562  12.620
34068W        W99053   3.285  25.078  12.589
34069W        W99054  30.718  12.312   2.362
34070W        W99055  26.418  42.795  13.022
34071W        W99056   1.479   1.044   4.223
34072W        W99057  19.190  19.773   0.915
34073W        W99058  42.844  11.286   2.281
34074W        W99059  41.983   3.667   0.277
34075W        W99060  18.093  26.280   4.282
34076W        W99061  36.876  41.771  12.440
34077W        W99062  23.243   6.939   0.772
34078W        W99063  37.777  19.975   3.314
34079W        W99064  18.706  39.042   1.481
34080W        W99065   3.247  35.260   4.214
34081W        W99066  21.205  34.407  10.990
34082W        W99067  44.534  30.981   4.096
34083W        W99068   1.317   2.156  14.754
34084W        W99069   7.848  25.990   0.115
34085W        W99070   6.485  33.799  12.613
34086W        W99071   7.614   2.154  11.164
34087W        W99072  29.578   5.222   4.479
34088W        W99073   5.307  19.792  10.498
34089W        W99074  18.737  19.030   0.145
34090W        W99075  32.068   3.001  11.689
34091W        W99076   1.800  17.691  11.781
34092W        W99077  38.333  12.243   3.829
34093W        W99078  14.187  37.679  12.314
34094W        W99079  21.915  11.485   0.040
34095W        W99080  21.074  42.305   2.373
34096W        W99081  41.307  31.831  13.440
34097W        W99082  14.630   5.897   2.822
34098W        W99083  28.246  38.430  14.470
34099W        W99084  36.903  44.806  13.615
34100W        W99085  35.111  43.996  14.485
34101W        W99086  27.028  33.197  13.709
34102W        W99087  35.352  44.908   4.317
34103W        W99088   1.015   4.223  11.618
34104W        W99089  20.597  14.310  12.962
34105W        W99090  39.534  31.966   3.656
34106W        W99091  14.089  25.926   0.421
34107W        W99092  36.585  32.297  12.530
34108W        W99093   2.652  20.827  11.094
34109W        W99094  24.651  36.059  11.952
34110W        W99095  21.785   1.013   0.830
34111W        W99096   5.321  12.206   1.238
34112W        W99097  21.486   9.192  14.864
34113W        W99098   4.026   5.750   3.112
34114W        W99099   8.398  24.122   4.845
34115W        W99100  17.819  42.337   1.954
34116W        W99101  10.754  32.564  10.947
34117W        W99102   6.919  26.117  13.873
34118W        W99103   5.246  16.716   1.724
34119W        W99104  32.690   6.316   1.945
34120W        W99105  13.267  31.369  12.372
34121W        W99106  36.519  36.279   0.707
34122W        W99107  25.533  18.118   2.465
34123W        W99108  38.553  36.544   2.623
34124W        W99109  35.789   9.358   2.052
34125W        W99110   7.366  16.361   2.423
34126W        W99111  14.526   3.033  13.986
34127W        W99112  30.694  36.549  11.238
34128W        W99113  40.063  32.543  13.322
34129W        W99114  28.529  43.484   4.846
34130W        W99115   3.184  25.698   0.862
34131W        W99116  11.386  44.013  12.924
34132W        W99117  39.321   5.932  12.994
34133W        W99118   9.597  14.748  11.919
34134W        W99119  37.317   5.927   0.066
34135W        W99120   9.286  34.604   0.366
34136W        W99121  12.353  41.998   1.719
34137W        W99122   4.210  38.807   2.688
34138W        W99123  23.180  35.637  13.795
34139W        W99124  27.133  20.463   3.061
34140W        W99125  43.483  29.824  13.399
34141W        W99126  12.791  16.317  12.967
34142W        W99127   6.442  13.397   3.860
34143W        W99128   8.175   8.147  13.473
34144W        W99129  23.291  28.623  11.065
34145W        W99130  16.106   3.706   2.661
34146W        W99131  39.427  23.641  12.433
34147W        W99132  39.514  15.585  14.968
34148W        W99133  25.717  27.606  12.441
34149W        W99134  26.883  23.470  12.980
34150W        W99135  23.551  14.591   3.176
34151W        W99136  34.278  28.996  11.617
34152W        W99137   9.647  30.360   3.492
34153W        W99138   5.979  19.702   2.261
34154W        W99139   0.772  32.673   4.098
34155W        W99140  28.626  42.554   3.649
34156W        W99141   1.543  21.644  11.011
34157W        W99142  26.979  27.440  12.237
34158W        W99143   1.956  24.067   0.810
34159W        W99144  22.621  40.714  11.270
34160W        W99145   7.677   3.308  13.332
34161W        W99146  18.976  26.675   0.177
34162W        W99147  20.218  33.170   0.451
34163W        W99148  33.404   7.345  12.725
34164W        W99149   8.684   6.382   0.024
34165W        W99150  14.637  37.624   2.250
34166W        W99151   3.357   9.436   1.116
34167W        W99152   3.447  22.586  12.454
34168W        W99153  16.468  33.293   1.926
34169W        W99154  38.304  34.265   3.552
34170W        W99155  21.651   3.629   1.471
34171W        W99156  41.899  31.632   2.847
34172W        W99157  22.265   9.871   1.815
34173W        W99158  15.624  30.935   2.391
34174W        W99159  12.220   6.139  11.178
34175W        W99160  22.090   0.963   1.867
34176W        W99161  15.602   1.245   0.844
34177W        W99162  22.482  25.092   0.441
34178W        W99163   5.186  10.740  13.439
34179W        W99164   1.728  16.964   0.893
34180W        W99165  33.570  41.049  11.212
34181W        W99166   3.236  17.539   1.505
34182W        W99167   0.067  10.788   4.017
34183W        W99168   9.767   4.738  14.083
34184W        W99169  25.058  34.862   2.589
34185W        W99170  36.898  38.367   2.628
34186W        W99171  10.195   2.108   3.071
34187W        W99172  30.172  22.022  12.078
34188W        W99173  15.585  17.117   3.437
34189W        W99174  31.698  24.018   4.745
34190W        W99175   5.184   7.284   4.541
34191W        W99176  30.956  14.286   4.612
34192W        W99177  31.737  31.188  11.102
34193W        W99178  28.713  27.024   1.334
34194W        W99179   5.467  36.325   5.042
34195W        W99180  44.835  44.750   3.095
34196W        W99181  27.386   0.985   0.078
34197W        W99182  12.279  42.920  10.364
34198W        W99183  15.708  22.923   3.601
34199W        W99184   5.299  17.631   2.127
34200W        W99185  38.373   0.338  13.937
34201W        W99186  12.702  20.780  12.934
34202W        W99187   7.894  27.943  11.461
34203W        W99188  16.753  24.069  10.593
34204W        W99189   0.903  17.643  11.833
34205W        W99190   0.446  11.183   3.318
34206W        W99191   7.854  15.578   2.398
34207W        W99192  40.065   8.565  11.301
34208W        W99193  35.900  44.434   0.247
34209W        W99194  41.700   3.224   0.233
34210W        W99195  26.544  40.286  14.439
34211W        W99196  36.487  17.040   1.175
34212W        W99197  43.432  36.075   4.303
34213W        W99198  23.575  41.880   3.897
34214W        W99199  23.018  42.475  13.826
34215W        W99200  13.867  24.583  10.894
34216W        W99201   6.967  41.522  12.763
34217W        W99202  30.630   2.741  10.473
34218W        W99203  20.608  13.209   3.344
34219W        W99204  19.610   5.274  13.334
34220W        W99205  30.552  43.662   3.778
34221W        W99206  30.655  10.585   1.080
34222W        W99207  33.335  34.121  12.750
34223W        W99208  38.334  37.650  13.389
34224W        W99209  41.791  33.945   4.081
34225W        W99210   1.456  16.561   2.322
34226W        W99211  10.570  12.823  13.548
34227W        W99212  21.323  35.758  12.069
34228W        W99213  28.544  25.808   4.085
34229W        W99214  17.803   4.984   3.215
34230W        W99215   5.320   1.569  11.655
34231W        W99216   9.592  19.553  14.552
34232W        W99217  44.913  23.640  10.644
34233W        W99218  21.692  42.961   4.221
34234W        W99219  34.102  26.132  12.015
34235W        W99220  29.056   4.167   2.667
34236W        W99221  17.713  10.909  13.992
34237W        W99222   1.719  23.327   2.437
34238W        W99223  35.741  38.764   1.602
34239W        W99224  23.540   3.806  11.062
34240W        W99225  25.691  22.091   3.211
34241W        W99226  11.675   9.110   4.878
34242W        W99227  35.791  13.531   3.677
34243W        W99228  12.144  39.123  11.209
34244W        W99229  37.125  21.450   2.271
34245W        W99230  31.045  27.524  11.488
34246W        W99231   0.673  36.865  12.967
34247W        W99232  15.157  40.856   3.741
34248W        W99233  25.503   8.390   2.715
34249W        W99234  27.906  36.524  10.689
34250W        W99235   7.195  22.374  12.903
34251W        W99236   7.719  19.835  14.458
34252W        W99237  12.891   6.772   3.046
34253W        W99238  14.643  17.519   2.576
34254W        W99239  24.824   1.415   1.786
34255W        W99240  29.941   9.404   1.407
34256W        W99241  24.197  38.935  10.740
34257W        W99242  42.032  42.354   2.887
34258W        W99243  25.885   4.921  10.062
34259W        W99244  24.890  39.210  14.513
34260W        W99245  26.640  15.472   2.418
34261W        W99246  13.362  19.940   4.254
34262W        W99247  45.000   5.924  13.596
34263W        W99248  21.110  37.235   2.260
34264W        W99249  16.344   3.722  14.321
34265W        W99250  40.882  38.090  11.495
34266W        W99251  11.054  10.614   3.122
34267W        W99252  43.502  31.564   4.756
34268W        W99253   8.600  40.283  11.132
34269W        W99254  29.759   6.395   4.176
34270W        W99255  13.724  14.840   1.665
34271W        W99256  31.701  15.873   3.072
34272W        W99257  23.707  37.130  11.213
34273W        W99258  24.161  17.041  14.743
34274W        W99259  29.446  10.792  12.598
34275W        W99260  26.572   0.094  14.887
34276W        W99261  26.046  21.497   0.270
34277W        W99262  27.690  10.147   2.085
34278W        W99263   6.712  15.111   2.725
34279W        W99264  25.270   7.792  14.949
34280W        W99265  14.191  36.530   0.294
34281W        W99266   1.003   0.732  12.348
34282W        W99267  37.352  30.933  14.423
34283W        W99268  43.766  31.519   2.369
34284W        W99269  13.259  36.398   3.202
34285W        W99270  43.758  33.133   1.193
34286W        W99271  23.841  29.850   1.326
34287W        W99272  16.098  11.771   0.356
34288W        W99273  40.924   5.764   4.867
34289W        W99274   1.835  19.480   2.419
34290W        W99275  44.273   5.262  12.970
34291W        W99276  42.329  12.768  11.777
34292W        W99277  17.381  28.791   0.504
34293W        W99278  13.109  30.390   2.718
34294W        W99279  18.182   0.066  13.389
34295W        W99280  39.519  26.789   4.432
34296W        W99281  21.307   7.378   2.744
34297W        W99282   5.422  44.742   3.159
34298W        W99283  16.222   1.677   1.231
34299W        W99284  38.501  12.359   1.212
34300W        W99285   7.386  44.268  11.084
34301W        W99286  20.111  29.419   0.309
34302W        W99287  19.439  41.535   2.822
34303W        W99288  35.367  31.057  13.313
34304W        W99289  31.648   7.830  12.666
34305W        W99290  31.901  14.524  11.059
34306W        W99291   7.408  39.775   3.205
34307W        W99292  23.739   9.333  11.004
34308W        W99293  22.756   1.577   5.550
34309W        W99294  16.674  15.101  11.225
34310W        W99295  37.300  19.054   0.015
34311W        W99296   6.689  16.500   2.786
34312W        W99297  10.153  31.838  13.860
34313W        W99298  21.939  13.368   0.307
34314W        W99299  24.704   3.876   0.845
34315W        W99300  11.587   5.831  10.604
34316W        W99301   1.256  41.003  13.932
34317W        W99302   8.245   4.828   0.261
34318W        W99303  36.805   2.144   2.193
34319W        W99304  42.555  31.901   0.967
34320W        W99305  17.209  16.797  13.355
34321W        W99306  20.028  29.959  10.431
34322W        W99307  27.429   3.819   4.140
34323W        W99308  40.777  31.627   4.083
34324W        W99309   5.009  32.944   2.012
34325W        W99310  14.311  36.860   3.226
34326W        W99311  26.489  11.036   2.322
34327W        W99312  21.643  41.296   1.610
34328W        W99313  31.215   0.005   1.413
34329W        W99314  42.925  18.654  14.053
34330W        W99315   4.785   7.421  14.913
34331W        W99316  21.465  23.159   1.178
34332W        W99317   4.653  26.816   9.980
34333W        W99318  42.216  11.130   0.794
34334W        W99319  37.994  36.618   0.834
34335W        W99320  18.223  27.556  12.608
34336W        W99321   4.398  18.635  10.722
34337W        W99322  41.386  29.302   0.957
34338W        W99323   2.209   6.550   0.084
34339W        W99324  26.135  20.276   2.868
34340W        W99325  36.384  25.580   3.620
34341W        W99326   7.656  28.381  11.604
34342W        W99327  17.736  14.722  12.957
34343W        W99328   2.977  19.212  14.968
34344W        W99329  28.551  27.503  13.343
34345W        W99330  35.386   2.751  11.704
34346W        W99331  38.539   5.455  11.338
34347W        W99332  12.082  15.844  13.863
34348W        W99333  26.056  23.444   3.483
34349W        W99334  26.735  38.360  10.185
34350W        W99335  40.023  22.483  11.194
34351W        W99336  33.556  39.849   0.315
34352W        W99337  22.200  17.203  10.968
34353W        W99338  25.669  44.381  14.944
34354W        W99339  30.151  42.530  12.535
34355W        W99340  13.839  42.521  11.115
34356W        W99341  28.000  24.077   0.257
34357W        W99342  27.738   1.022  12.072
34358W        W99343   7.679  32.050   1.814
34359W        W99344  20.642   4.444   4.528
34360W        W99345  31.975  33.257   2.230
34361W        W99346  38.868  31.170   2.148
34362W        W99347   4.379  15.304  13.806
34363W        W99348  34.447  17.627  11.429
34364W        W99349  32.001   3.412   2.010
34365W        W99350  41.419  22.572  13.583
34366W        W99351  27.924   6.510   5.460
34367W        W99352  32.452  26.203  12.633
34368W        W99353   2.915  11.370   4.659
34369W        W99354  15.833   3.767  11.197
34370W        W99355  11.096  20.820  11.707
34371W        W99356   5.407  28.406  14.978
34372W        W99357  23.496   2.860   3.682
34373W        W99358  24.572  34.120   4.906
34374W        W99359  22.134  35.141   0.382
34375W        W99360  35.469   2.218  12.122
34376W        W99361  39.478  28.134   2.630
34377W        W99362  31.063   3.414   2.093
34378W        W99363  17.201   7.782  12.455
34379W        W99364  38.359  42.341   0.467
34380W        W99365  24.312  22.137  13.548
34381W        W99366  10.671   4.238  13.977
34382W        W99367   2.281   0.749  14.287
34383W        W99368  37.301  24.785   1.328
34384W        W99369  24.936  37.770  14.309
34385W        W99370  29.100  18.674  14.063
34386W        W99371  20.103  18.394  13.384
34387W        W99372  33.646  22.595  11.091
34388W        W99373  43.721   6.376   2.831
34389W        W99374  17.095  24.099   2.134
34390W        W99375  27.783  29.908   1.407
34391W        W99376   4.316  36.360  14.697
34392W        W99377  36.475  24.077  12.573
34393W        W99378   7.374  18.201   0.339
34394W        W99379  23.054  16.892  12.106
34395W        W99380  28.618  39.602   4.111
34396W        W99381  20.028  27.305  11.327
34397W        W99382   4.254  44.960   4.468
34398W        W99383  39.148  22.946  13.894
34399W        W99384  35.952  40.753  13.020
34400W        W99385  43.069  38.540  14.021
34401W        W99386  42.505  32.801  14.327
34402W        W99387  38.908   1.697  13.550
34403W        W99388   5.930  15.338   4.904
34404W        W99389  21.151  13.665   0.438
34405W        W99390  11.058  12.076  12.095
34406W        W99391  21.089  20.583  13.458
34407W        W99392  29.967  27.016   0.961
34408W        W99393  15.795  27.623   3.492
34409W        W99394  11.445  21.565  12.459
34410W        W99395  15.837  15.655   1.885
34411W        W99396   6.588  29.807   4.304
34412W        W99397  21.499  34.537  14.697
34413W        W99398  28.462  31.583   1.842
34414W        W99399  36.010  34.746  11.005
34415W        W99400  35.047  36.890  13.815
34416W        W99401  42.484  11.618   4.025
34417W        W99402  31.525   7.259   1.297
34418W        W99403  32.500  40.614   2.764
34419W        W99404   4.034  35.053   3.148
34420W        W99405  12.811  44.857  10.737
34421W        W99406   0.460  32.494  13.487
34422W        W99407  28.765  10.140  11.888
34423W        W99408  17.110  22.781   4.094
34424W        W99409  36.175  16.879  14.900
34425W        W99410   0.763  43.547  11.382
34426W        W99411   1.267   3.988  12.911
34427W        W99412  13.103  15.250   4.178
34428W        W99413   4.408   8.394   2.428
34429W        W99414  18.550  44.308   4.134
34430W        W99415  19.731  38.040  10.993
34431W        W99416  28.150  19.775   0.161
34432W        W99417   8.357   9.483  10.197
34433W        W99418  11.122   3.844   3.376
34434W        W99419  20.720  26.062   0.923
34435W        W99420   5.988  10.824   4.539
34436W        W99421  27.557  41.833   0.831
34437W        W99422  37.327   6.655   3.841
34438W        W99423  40.410  15.010   2.374
34439W        W99424  26.629  43.304   4.798
34440W        W99425  28.587  29.427  14.972
34441W        W99426  23.955  20.458  13.523
34442W        W99427  31.395  33.921   3.195
34443W        W99428  23.191   8.479  10.690
34444W        W99429  16.107  30.348   3.574
34445W        W99430  10.684  32.819   0.464
34446W        W99431  34.229  24.695  13.316
34447W        W99432  16.584   2.549   1.929
34448W        W99433  26.963  26.911   1.875
34449W        W99434  18.704  32.632   0.919
34450W        W99435   8.133  22.180   0.019
34451W        W99436  18.788  18.022   1.623
34452W        W99437  26.528  36.439   4.439
34453W        W99438  34.029  31.495   3.889
34454W        W99439   9.334   3.119  14.394
34455W        W99440  43.065  37.059   3.794
34456W        W99441  39.516  30.485   2.886
34457W        W99442  36.931  38.098  12.940
34458W        W99443  32.061  27.656   0.603
34459W        W99444  40.816  34.520   1.440
34460W        W99445  39.456  17.084  13.617
34461W        W99446   0.433  21.250  10.290
34462W        W99447  35.476  19.275   3.615
34463W        W99448  44.471  17.952   9.827
34464W        W99449  24.573  31.696   3.480
34465W        W99450  29.433  35.003  12.385
34466W        W99451  12.166  37.985   1.298
34467W        W99452  26.995  38.021  10.515
34468W        W99453  21.820  20.587  12.637
34469W        W99454  20.254  16.694  10.674
34470W        W99455   0.267  32.813   4.201
34471W        W99456  11.292   7.127   0.173
34472W        W99457   0.550  11.235  13.079
34473W        W99458  18.700  20.630  13.861
34474W        W99459  27.980  15.316   3.724
34475W        W99460  13.096  39.215   1.915
34476W        W99461   7.324   4.630  13.333
34477W        W99462   0.462  20.495  11.315
34478W        W99463  44.377  13.250   0.124
34479W        W99464  17.882  15.086   1.795
34480W        W99465  41.455  12.429  12.984
34481W        W99466   8.273  26.454  14.506
34482W        W99467  27.170   6.187  10.733
34483W        W99468   6.833  33.886  11.849
34484W        W99469  15.324  16.232   2.346
34485W        W99470  29.029  36.340   4.147
34486W        W99471  29.618  42.761   4.710
34487W        W99472  19.541   8.265   4.182
34488W        W99473  44.161  40.305  12.987
34489W        W99474  34.034  44.872  10.390
34490W        W99475  24.654  15.841   0.925
34491W        W99476  28.542   2.272  14.506
34492W        W99477   0.544  21.711  10.025
34493W        W99478   4.449   8.114  14.898
34494W        W99479   5.394   7.776  13.022
34495W        W99480   3.225  34.751   4.266
34496W        W99481  36.641  38.090  11.967
34497W        W99482  36.569   9.379  14.518
34498W        W99483   5.370  15.583  10.600
34499W        W99484   8.761  10.441   1.705
34500W        W99485  18.252   4.657  12.989
34501W        W99486   5.511  11.900   0.755
34502W        W99487  32.489   1.770  13.815
34503W        W99488  19.866  30.059   4.108
34504W        W99489  33.004  23.289  12.020
34505W        W99490  43.094  18.853  12.051
34506W        W99491   1.034  10.354   3.231
34507W        W99492   6.791  34.670  13.320
34508W        W99493   7.412   0.659  13.887
34509W        W99494  41.358  19.291  10.586
34510W        W99495  25.515   8.319   0.789
34511W        W99496   2.454  16.769   0.675
34512W        W99497  15.019  39.435  12.438
34513W        W99498  15.157  43.943   0.860
34514W        W99499  39.476  43.008   0.813
34515W        W99500  21.752  15.822   4.257
34516W        W99501  35.634  31.589   3.691
34517W        W99502   1.231  34.380  14.436
34518W        W99503  34.491   7.701  13.310
34519W        W99504  25.034  17.030   1.331
34520W        W99505  34.951  42.590   3.672
34521W        W99506  24.634  26.171  10.804
34522W        W99507  40.829  40.269   2.296
34523W        W99508  32.936  29.637  11.247
34524W        W99509   5.280  30.284  12.133
34525W        W99510  41.362   5.926   1.643
34526W        W99511   6.481  17.708  14.563
34527W        W99512  11.109   5.092  13.549
34528W        W99513  22.551  11.235   3.195
34529W        W99514   1.898  31.382  10.590
34530W        W99515  31.304  11.779   3.998
34531W        W99516  22.511  28.248  11.932
34532W        W99517  20.801  33.228   5.282
34533W        W99518   9.522  14.170  14.496
34534W        W99519  22.318  23.594   4.192
34535W        W99520   7.119   4.176  13.606
34536W        W99521   2.548  25.030  11.362
34537W        W99522   7.077  13.751  12.174
34538W        W99523  16.308  11.541   1.360
34539W        W99524  31.338  28.069  12.135
34540W        W99525  32.477  28.032   3.532
34541W        W99526   8.394  38.014  14.731
34542W        W99527  37.791   2.973  13.565
34543W        W99528   4.286  17.290   1.339
34544W        W99529  31.694   5.441   4.080
34545W        W99530  16.350   0.292   1.443
34546W        W99531  41.049   6.645  13.925
34547W        W99532  14.219  36.656  13.851
34548W        W99533  16.157   1.361   1.655
34549W        W99534  31.967  30.945   3.755
34550W        W99535  40.077   6.624  13.354
34551W        W99536   5.887  21.219   4.220
34552W        W99537  13.223  27.049  13.335
34553W        W99538  30.453   2.162  12.536
34554W        W99539  25.664  17.153   3.610
34555W        W99540  42.445   2.919  10.810
34556W        W99541  19.096  16.551   1.302
34557W        W99542  28.728  33.875   2.768
34558W        W99543  32.990  41.123   0.402
34559W        W99544  28.229   0.826   2.627
34560W        W99545  16.213  21.199   1.847
34561W        W99546   2.220  44.429   0.346
34562W        W99547   8.902  21.229   1.345
34563W        W99548  39.315  15.045   1.403
34564W        W99549   7.425  10.908   0.676
34565W        W99550  26.707  31.506  10.237
34566W        W99551  37.508  19.315  13.901
34567W        W99552  12.247  22.507  12.093
34568W        W99553  41.829   5.420  11.071
34569W        W99554  19.696  27.007  11.069
34570W        W99555  30.083  43.807   3.937
34571W        W99556   8.215  40.567  14.223
34572W        W99557  30.246  18.608   0.354
34573W        W99558  22.233   2.430  12.552
34574W        W99559  38.597  40.053  11.448
34575W        W99560  28.831  26.242  11.760
34576W        W99561   0.932  22.453  11.897
34577W        W99562  13.542  40.062   4.104
34578W        W99563  29.633  21.629  11.985
34579W        W99564  16.974  36.486   4.161
34580W        W99565   8.323   2.256   2.700
34581W        W99566  21.260  44.182  14.086
34582W        W99567  38.528  19.275  12.897
34583W        W99568  44.665  43.805   1.737
34584W        W99569   1.725   7.487  11.214
34585W        W99570  36.242  44.240   0.963
34586W        W99571  24.479   0.382  14.097
34587W        W99572  27.051  24.645  11.913
34588W        W99573  14.596  16.174  13.555
34589W        W99574  31.338  12.300   4.028
34590W        W99575   7.817  31.232  10.488
34591W        W99576  17.658  35.250   0.363
34592W        W99577  33.501  17.370  12.121
34593W        W99578  40.841  34.297  13.526
34594W        W99579  18.614  13.672  14.255
34595W        W99580  35.545  24.437   1.901
34596W        W99581  10.937   0.178  14.285
34597W        W99582  15.387   7.618  12.281
34598W        W99583   4.365   4.754   3.432
34599W        W99584  40.886  25.939   1.772
34600W        W99585  16.528  21.209  13.416
34601W        W99586  21.051  30.649  12.608
34602W        W99587   1.296  33.395   0.871
34603W        W99588  24.101   0.278   1.869
34604W        W99589  13.800  40.903   4.060
34605W        W99590  38.054  37.275  10.859
34606W        W99591  22.259   9.407  11.909
34607W        W99592  18.844  44.928   0.222
34608W        W99593  21.931  30.961  14.325
34609W        W99594   5.169  27.003  13.410
34610W        W99595  27.599  19.190   0.389
34611W        W99596  16.758  17.355   1.197
34612W        W99597  14.384   7.352  13.159
34613W        W99598  27.496  24.660  13.941
34614W        W99599  36.941   0.375  11.114
34615W        W99600   0.697  26.012  11.178
34616W        W99601  10.436  10.542   3.131
34617W        W99602  10.359  37.181  11.205
34618W        W99603  12.543   1.793  11.845
34619W        W99604  30.699   4.889  14.505
34620W        W99605   4.834  30.959   4.799
34621W        W99606  36.052  12.195  13.619
34622W        W99607  18.601  39.274  11.401
34623W        W99608  32.560  43.303  14.911
34624W        W99609  23.657   4.861   2.725
34625W        W99610  27.090  31.178  10.360
34626W        W99611  12.894  30.974  10.727
34627W        W99612  11.951   7.785  14.014
34628W        W99613  41.716  21.074   4.598
34629W        W99614  26.073  26.165  13.338
34630W        W99615  38.065   8.461  11.286
34631W        W99616  13.306  30.900  13.276
34632W        W99617   9.778  24.662  14.075
34633W        W99618  44.433  40.314   2.812
34634W        W99619   0.237  13.740  10.819
34635W        W99620  17.830   6.845   2.115
34636W        W99621  19.175   0.417  11.542
34637W        W99622  35.768  34.882   2.184
34638W        W99623  25.544  29.135   2.313
34639W        W99624   7.949  40.103   3.758
34640W        W99625   0.861  36.356   0.499
34641W        W99626  34.563   5.774  12.608
34642W        W99627  33.474   8.127   2.272
34643W        W99628  27.860   6.828   0.710
34644W        W99629  14.419  36.637  11.180
34645W        W99630  22.615  41.806   3.373
34646W        W99631   5.649  30.548   3.624
34647W        W99632   5.936  17.139  14.020
34648W        W99633  44.284   5.852  11.607
34649W        W99634  10.224  44.045   2.895
34650W        W99635  25.442  21.703  13.026
34651W        W99636  15.787  30.966   3.266
34652W        W99637  15.209  43.022   2.382
34653W        W99638  18.531  21.392  13.451
34654W        W99639  30.630  40.286  12.366
34655W        W99640  34.113  28.482  12.978
34656W        W99641  39.886  32.076  10.399
34657W        W99642  32.885  19.279   2.761
34658W        W99643  32.366   1.101  11.208
34659W        W99644  29.994  26.397  13.379
34660W        W99645  40.626  22.071   1.393
34661W        W99646   0.049  25.768  13.102
34662W        W99647  20.165   0.698   1.258
34663W        W99648  41.259  18.088   2.301
34664W        W99649  44.565  15.000  12.971
34665W        W99650  16.885  20.264   2.445
34666W        W99651   4.084  32.732  14.840
34667W        W99652  18.308  43.368  14.051
34668W        W99653  19.528   2.913  14.838
34669W        W99654   0.372  42.722   1.170
34670W        W99655  33.088  23.780  14.869
34671W        W99656   1.920   0.199   1.490
34672W        W99657   5.423   4.208   0.250
34673W        W99658  35.531  25.431  11.132
34674W        W99659  31.127   3.171   9.673
34675W        W99660  29.287  24.033  14.943
34676W        W99661  26.437  10.516   4.120
34677W        W99662  22.442  10.214   1.369
34678W        W99663  41.118  35.071   3.640
34679W        W99664  33.531  21.990  13.789
34680W        W99665  30.981   0.323  13.547
34681W        W99666  23.819  16.092   2.726
34682W        W99667  20.933  30.165  13.870
34683W        W99668  14.204  34.053   4.595
34684W        W99669   3.438   2.957  13.444
34685W        W99670  23.172  23.653   4.169
34686W        W99671  18.296  17.551  11.025
34687W        W99672  37.714  12.439  12.467
34688W        W99673   5.974  32.607  12.951
34689W        W99674  28.054  17.503   0.052
34690W        W99675   9.339  32.834   1.808
34691W        W99676  39.403  33.046   1.828
34692W        W99677  43.577  26.661   2.564
34693W        W99678   7.648  31.202  14.105
34694W        W99679   8.831  43.319   4.750
34695W        W99680  13.314  41.933   1.239
34696W        W99681  36.726  39.446   0.177
34697W        W99682  27.948  14.795  10.067
34698W        W99683  14.336  28.052  12.031
34699W        W99684  37.584  11.372  12.024
34700W        W99685  25.295  40.223   0.902
34701W        W99686  24.776   2.766   9.966
34702W        W99687  40.511  30.073   5.128
34703W        W99688  13.490   1.223  11.952
34704W        W99689  28.944  22.996   0.989
34705W        W99690  41.800  24.585  13.859
34706W        W99691  11.117  28.350   1.492
34707W        W99692   1.030  35.385  12.048
34708W        W99693  38.242  42.281  12.865
34709W        W99694  30.422   9.827  13.455
34710W        W99695   7.462   8.707  13.474
34711W        W99696  21.143  38.059   0.427
34712W        W99697  44.468  36.771  12.513
34713W        W99698  11.098  42.832  12.361
34714W        W99699   9.192  13.616  11.984
34715W        W99700   7.152   3.314  13.361
34716W        W99701   3.210  28.186  13.454
34717W        W99702  34.888   1.206   4.318
34718W        W99703  27.757   8.283   3.076
34719W        W99704  31.458   8.923  14.018
34720W        W99705  17.310  38.893   1.920
34721W        W99706  22.166   0.723   4.266
34722W        W99707  36.507   8.788   3.145
34723W        W99708  29.530  34.419  14.965
34724W        W99709  13.198  18.254   4.637
34725W        W99710  44.390  31.736  11.716
34726W        W99711  12.134   5.173   3.231
34727W        W99712   0.866   0.338   1.786
34728W        W99713  31.140  17.390  13.573
34729W        W99714  13.333  26.007   4.404
34730W        W99715   7.742  41.995  12.699
34731W        W99716   1.999  37.516   0.940
34732W        W99717  15.166   0.397   2.940
34733W        W99718   7.736  33.501  14.034
34734W        W99719   8.755  24.733   2.782
34735W        W99720  40.751  11.736  13.882
34736W        W99721   7.724  21.239  12.194
34737W        W99722  23.964   7.890  13.405
34738W        W99723   3.778  41.239  11.144
34739W        W99724  32.338  27.688  10.495
34740W        W99725  14.792  14.415   0.720
34741W        W99726  22.788   6.287  12.158
34742W        W99727  11.755  33.633   4.972
34743W        W99728  36.926  18.043  11.068
34744W        W99729  24.646  40.170   4.587
34745W        W99730  34.759  10.806  10.306
34746W        W99731  23.101   9.172   0.692
34747W        W99732  19.272  34.074  11.542
34748W        W99733  31.305  15.562   1.794
34749W        W99734  36.505   0.407  11.438
34750W        W99735  44.749   7.713  13.948
34751W        W99736  15.473  34.732   0.787
34752W        W99737   2.964  21.904   4.030
34753W        W99738  44.875  35.901  14.727
34754W        W99739  39.479  16.691  12.153
34755W        W99740  37.748  22.528  11.625
34756W        W99741  28.084  31.994  12.047
34757W        W99742   6.038  17.234  12.040
34758W        W99743   5.479  13.750  13.882
34759W        W99744  42.058  25.745  14.817
34760W        W99745  23.795   5.123  11.317
34761W        W99746   7.497  44.740  11.267
34762W        W99747  38.563  25.603   2.223
34763W        W99748  34.187  25.514  11.531
34764W        W99749  11.141  44.273   0.333
34765W        W99750  11.845  23.738  12.116
34766W        W99751  30.512   6.101  13.987
34767W        W99752  43.882  35.923   4.528
34768W        W99753  13.420  39.905  12.113
34769W        W99754  43.513  33.152  13.809
34770W        W99755  11.260  30.889   1.233
34771W        W99756  42.969  32.570  14.065
34772W        W99757   3.417  27.079  11.901
34773W        W99758  39.984  11.089   1.738
34774W        W99759  10.157  37.172   3.105
34775W        W99760  15.522  11.872  14.377
34776W        W99761  41.415  29.848   2.148
34777W        W99762  18.317  25.777   0.897
34778W        W99763  39.077   8.130   1.718
34779W        W99764  27.393  36.644   3.994
34780W        W99765  17.335  19.398   3.284
34781W        W99766  33.319  29.132   4.963
34782W        W99767  22.700  35.472   4.295
34783W        W99768  44.021  16.295  13.138
34784W        W99769  19.564   9.259   3.111
34785W        W99770  18.543  17.677   3.121
34786W        W99771  17.734   7.406   1.641
34787W        W99772  42.553  37.419   3.882
34788W        W99773  10.935  32.953   4.153
34789W        W99774  17.139   0.731  11.910
34790W        W99775  14.695  23.211   3.048
34791W        W99776  38.250   5.362   1.439
34792W        W99777  30.032   9.007  13.054
34793W        W99778  25.982  14.686   2.787
34794W        W99779  42.134  30.386  11.254
34795W        W99780  40.353  14.713   0.925
34796W        W99781  20.736  31.855  10.807
34797W        W99782  37.138  28.045  11.192
34798W        W99783  12.610  16.075  12.520
34799W        W99784  20.683  31.342   0.064
34800W        W99785  16.466  32.146  11.195
34801W        W99786  11.396  28.697  14.324
34802W        W99787   9.609   6.197  14.143
34803W        W99788   9.598  38.364   1.267
34804W        W99789  10.259  36.260  14.056
34805W        W99790   2.231  16.820   1.158
34806W        W99791  39.278  12.201  11.142
34807W        W99792  35.646  27.907   2.077
34808W        W99793  10.402  12.899   5.078
34809W        W99794  41.033  14.210  10.048
34810W        W99795  25.400   5.918   0.433
34811W        W99796  12.930  25.152   2.563
34812W        W99797  26.949  23.967   3.740
34813W        W99798  31.064  29.513  13.772
34814W        W99799  14.809  29.606  11.313
34815W        W99800  18.117  24.245  10.754
34816W        W99801  28.177  34.098  13.332
34817W        W99802  30.416   7.324  13.275
34818W        W99803  17.936   8.720  10.467
34819W        W99804  19.360  29.685   0.865
34820W        W99805  43.455   8.316   1.747
34821W        W99806  27.706  23.610  14.307
34822W        W99807  36.576  27.585   1.263
34823W        W99808  27.746  41.646   1.909
34824W        W99809  38.456  24.582   3.077
34825W        W99810  38.456  19.773  12.972
34826W        W99811  14.250   1.400   0.831
34827W        W99812  17.199  17.119   4.239
34828W        W99813  26.946  21.769  12.468
34829W        W99814  26.984  15.425  14.342
34830W        W99815  31.048   4.510  14.633
34831W        W99816  29.635  15.223   3.364
34832W        W99817  10.917  23.557  13.944
34833W        W99818  14.893  36.584  12.079
34834W        W99819  24.608  37.330  13.460
34835W        W99820  35.535  16.724  12.587
34836W        W99821   7.115  20.265  10.808
34837W        W99822   8.771  19.366  13.542
34838W        W99823  41.104  13.593   5.555
34839W        W99824  16.997   9.885   1.257
34840W        W99825  26.159  31.435   4.196
34841W        W99826  28.401   9.834   0.259
34842W        W99827   6.793  30.289   4.203
34843W        W99828  11.673  42.549   2.664
34844W        W99829  19.155  37.615  13.030
34845W        W99830  43.590   3.309   1.766
34846W        W99831  38.123  10.947   4.036
34847W        W99832  41.445  34.419   3.132
34848W        W99833  44.957  33.377  13.379
34849W        W99834  39.104  34.854  10.649
34850W        W99835  30.594  37.012  12.926
34851W        W99836  28.342   8.574   0.018
34852W        W99837  38.530  35.715   0.499
34853W        W99838  18.459  36.804  11.020
34854W        W99839  41.411  13.829   0.561
34855W        W99840  12.758  23.086   4.553
34856W        W99841  27.177   1.325  13.570
34857W        W99842  27.966  30.148  12.123
34858W        W99843  42.145  18.482   5.021
34859W        W99844   9.834  34.846  12.115
34860W        W99845  36.391  14.588  11.004
34861W        W99846  33.688  13.653  13.260
34862W        W99847   0.820  33.998   3.553
34863W        W99848   0.461  14.399   1.410
34864W        W99849  38.476  10.721   4.715
34865W        W99850  19.160  13.071  10.530
34866W        W99851  31.751  33.338   3.860
34867W        W99852  16.929  33.517   1.685
34868W        W99853   3.758   8.834   1.838
34869W        W99854  29.078  42.975   3.588
34870W        W99855  14.363   9.635  11.081
34871W        W99856  26.412  14.548  12.580
34872W        W99857  43.616  20.809  10.202
34873W        W99858  15.197  17.887   3.165
34874W        W99859  19.578  23.462  13.392
34875W        W99860  43.057  33.029   4.218
34876W        W99861   2.136  13.124  13.687
34877W        W99862   4.783   8.960   0.856
34878W        W99863  40.561  12.590   1.304
34879W        W99864   0.319  10.146  13.181
34880W        W99865  31.173  24.550  14.052
34881W        W99866  37.510  35.604   3.575
34882W        W99867  28.839  29.113  11.940
34883W        W99868  27.135  27.053  11.539
34884W        W99869  34.466  22.234  11.015
34885W        W99870  37.594  28.545   2.254
34886W        W99871  28.235  10.814   2.993
34887W        W99872  42.552   1.611   2.450
34888W        W99873  31.608  13.556   0.510
34889W        W99874  10.933   5.830   2.313
34890W        W99875  19.190  24.009   2.291
34891W        W99876  35.105   0.578   1.176
34892W        W99877   8.874  24.074   4.577
34893W        W99878  19.246  28.471   1.667
34894W        W99879  42.584   9.332  12.863
34895W        W99880   5.276  24.165   3.745
34896W        W99881   1.690  22.134  14.269
34897W        W99882  12.614  25.759  13.973
34898W        W99883  22.204  12.211  12.318
34899W        W99884  24.252  15.621   3.680
34900W        W99885  30.642  15.994   1.266
34901W        W99886  37.581  13.394  13.829
34902W        W99887  28.519  21.122  13.006
34903W        W99888   4.657  19.991  12.815
34904W        W99889  26.077  13.073   1.311
34905W        W99890  14.068  15.724   4.577
34906W        W99891  26.740   6.088   2.381
34907W        W99892   8.232   3.900   1.306
34908W        W99893  37.483  12.109   0.053
34909W        W99894  18.601   2.045  13.434
34910W        W99895  22.441  21.026   2.754
34911W        W99896  33.621   0.815  12.133
34912W        W99897  44.799  42.431   1.432
34913W        W99898  44.396  15.094  14.936
34914W        W99899  42.000  15.165   0.241
34915W        W99900  14.172  23.003   2.246
34916W        W99901  16.231  20.492  11.054
34917W        W99902  25.143  28.995   3.241
34918W        W99903  19.251  21.272  12.036
34919W        W99904  35.998  38.927  12.347
34920W        W99905  15.089  38.486   2.973
34921W        W99906  24.369  25.776  14.472
34922W        W99907  14.257  20.277  14.474
34923W        W99908   6.720  11.882   4.058
34924W        W99909  36.380   7.382   0.521
34925W        W99910  27.680   6.924  13.896
34926W        W99911  12.234  38.381   3.747
34927W        W99912  16.211  43.786  12.043
34928W        W99913  26.203   9.254  14.957
34929W        W99914  15.251  28.466   0.783
34930W        W99915   5.423  41.282   3.642
34931W        W99916   7.999  25.056  13.016
34932W        W99917  19.105   3.823  14.581
34933W        W99918  17.641  12.587  11.128
34934W        W99919  31.132  10.395   1.273
34935W        W99920  35.422  35.055   1.372
34936W        W99921  33.856  26.055  14.826
34937W        W99922  40.161  16.793  14.547
34938W        W99923   9.283  15.097  14.536
34939W        W99924   0.826  39.441   3.069
34940W        W99925   1.059  32.385   1.788
34941W        W99926  36.682  24.076  11.589
34942W        W99927   0.016  20.769  12.125
34943W        W99928  32.265  33.990   2.857
34944W        W99929  29.905  24.210  11.474
34945W        W99930   4.893  11.215  11.670
34946W        W99931  11.163  27.192  11.849
34947W        W99932   9.783  35.177   0.810
34948W        W99933   5.376  33.979   2.917
34949W        W99934  20.699  33.199   3.384
34950W        W99935  22.975   0.908  14.109
34951W        W99936   2.889  25.584  11.974
34952W        W99937   6.098  23.008  14.912
34953W        W99938  40.339  35.738   0.017
34954W        W99939  14.841  26.259  12.036
34955W        W99940   0.350  16.584  13.351
34956W        W99941   1.740  14.251   1.772
34957W        W99942   4.571  27.766   1.724
34958W        W99943  23.135  32.645   1.493
34959W        W99944  11.713  11.779   2.403
34960W        W99945  25.434  36.497  11.014
34961W        W99946   4.681  20.785   1.686
34962W        W99947  36.515  15.682   3.349
34963W        W99948  17.321  11.269  14.878
34964W        W99949   0.711  29.551   0.210
34965W        W99950  10.547  18.069  11.619
34966W        W99951  42.273  12.002  12.208
34967W        W99952  36.430  33.741  12.109
34968W        W99953  41.619  36.042   0.355
34969W        W99954  21.218  15.040  13.218
34970W        W99955  33.557  19.756  12.826
34971W        W99956  17.873   6.433  11.767
34972W        W99957   9.091  36.630   1.264
34973W        W99958  23.571  13.681   0.453
34974W        W99959  20.327   3.949   2.905
34975W        W99960  21.370   9.779   3.620
34976W        W99961  10.181  40.598  13.559
34977W        W99962  31.404   6.862  10.676
34978W        W99963  11.172  10.728   0.899
34979W        W99964  17.935  13.094  12.630
34980W        W99965   4.918   6.018  13.941
34981W        W99966  31.592  43.349   2.321
34982W        W99967  12.542  30.811   1.820
34983W        W99968   5.162   4.064  10.616
34984W        W99969  34.134  42.422  14.450
34985W        W99970  36.724  19.922   4.992
34986W        W99971  33.149  42.084   1.385
34987W        W99972  40.470   8.528  14.938
34988W        W99973  31.144  10.886  11.956
34989W        W99974  11.332  25.681  13.073
34990W        W99975  36.499  28.581   1.349
34991W        W99976  44.305  22.091   0.679
34992W        W99977  12.263   5.680   0.403
34993W        W99978   1.611  17.600  14.910
34994W        W99979  28.164  11.347   2.301
34995W        W99980  35.948   3.839   2.935
34996W        W99981  24.983   0.721  10.277
34997W        W99982  28.648  32.084  10.486
34998W        W99983  42.295  34.030  11.150
34999W        W99984  37.760  21.723  13.828
35000W        W99985  13.813  39.602  10.504
35001W        W99986  22.512  30.210  11.916
35002W        W99987   6.650  18.669   2.401
35003W        W99988  26.336  19.490  11.504
35004W        W99989   2.626  14.487   4.537
35005W        W99990  20.742   6.989   0.958
35006W        W99991  31.943  42.382   4.390
35007W        W99992  10.693  16.776  14.333
35008W        W99993  22.948  18.694   4.560
35009W        W99994  14.176  36.114  13.958
35010W        W99995  11.642  21.759   1.380
35011W        W99996  16.084   7.942  10.800
35012W        W99997  44.342  26.611  11.138
35013W        W99998  32.647  24.954   2.877
35014W        W99999  30.470  30.339  13.927
35015W        W    0  30.888  37.409  12.114
35016W        W    1  14.585   3.053  10.687
35017W        W    2  39.237  43.326  13.047
35018W        W    3  36.121  27.434   4.324
35019W        W    4   5.048  38.259   4.684
35020W        W    5  19.570  34.515  14.998
35021W        W    6  19.012  35.153  12.116
35022W        W    7  43.804  30.790  13.558
35023W        W    8   0.748   1.015  11.996
35024W        W    9  25.613  37.553  11.326
35025W        W   10  37.923  31.211   1.719
35026W        W   11   6.425  20.490   2.152
35027W        W   12  16.722  17.059   4.455
35028W        W   13  44.174  34.536  13.400
35029W        W   14  30.665  26.918  14.871
35030W        W   15  39.326  23.815   2.175
35031W        W   16  43.854  33.316   4.349
35032W        W   17  16.217  13.093   3.611
35033W        W   18  15.680  24.415  14.366
35034W        W   19  33.554   5.122  11.451
35035W        W   20  30.890  10.508  14.849
35036W        W   21  13.185   9.420   4.658
35037W        W   22   9.942   4.942  12.080
35038W        W   23  18.766   7.292  14.274
35039W        W   24  10.762  43.757  12.402
35040W        W   25  16.272  23.599   4.563
35041W        W   26  17.683  15.767  11.642
35042W        W   27  26.207   4.408  12.809
35043W        W   28  38.592  43.577   0.829
35044W        W   29   0.870  26.135   3.685
35045W        W   30  26.557  44.108   1.769
35046W        W   31  38.244  30.125  12.766
35047W        W   32  29.014  35.044   3.765
35048W        W   33   0.971  12.349   0.821
35049W        W   34  44.310  21.412  13.793
35050W        W   35  13.731  41.340   1.702
35051W        W   36  37.215  39.165  13.809
35052W        W   37  25.384  40.069   4.201
35053W        W   38  33.554  13.117  12.614
35054W        W   39  14.668  42.117  10.769
35055W        W   40   7.714   3.026  12.029
35056W        W   41   4.197  42.530   3.744
35057W        W   42   4.300  38.080  10.847
35058W        W   43  11.866  25.108   4.037
35059W        W   44  42.279   6.026  14.804
35060W        W   45  38.387  26.636   4.493
35061W        W   46   3.453  37.666   3.642
35062W        W   47  11.890  29.995   2.724
35063W        W   48   2.038  44.934  14.421
35064W        W   49   9.763  29.615  14.478
35065W        W   50  18.742  24.052   1.184
35066W        W   51   3.725  38.364  12.583
35067W        W   52   1.421  12.291   1.817
35068W        W   53  23.570  39.196   2.736
35069W        W   54  20.211   8.786  14.878
35070W        W   55  11.378  31.218  11.144
35071W        W   56   8.653   0.464  12.023
35072W        W   57   5.764  43.742  12.484
35073W        W   58   3.548  19.378   3.323
35074W        W   59  30.311  20.525   1.175
35075W        W   60  32.674  41.577  11.186
35076W        W   61   2.369  30.767   4.527
35077W        W   62  28.209   8.886  12.549
35078W        W   63  13.848  17.788  12.090
35079W        W   64   5.080  16.577  13.088
35080W        W   65  33.615  37.619   4.059
35081W        W   66  40.319  24.593   1.725
35082W        W   67   5.142  31.979  13.298
35083W        W   68   6.682  15.336   4.651
35084W        W   69  43.891  30.532  11.922
35085W        W   70  35.171  27.823  11.197
35086W        W   71  12.658  37.010   1.917
35087W        W   72  23.609  27.869  14.342
35088W        W   73  27.220  40.070  10.831
35089W        W   74   0.860  21.239  11.054
35090W        W   75  44.581  34.618  12.925
35091W        W   76  19.096  27.638   4.671
35092W        W   77   4.345   4.880  14.051
35093W        W   78   8.791  32.671   2.805
35094W        W   79  37.571   4.687   0.452
35095W        W   80  30.114  30.503  12.636
35096W        W   81  19.765  40.915  14.057
35097W        W   82  32.595  22.607  12.945
35098W        W   83  27.410  22.241  11.174
35099W        W   84  35.451  40.820  13.026
35100W        W   85  43.984  20.726  11.833
35101W        W   86   2.929  43.629  11.217
35102W        W   87  41.963  20.818  13.518
35103W        W   88  22.474  12.734   4.085
35104W        W   89  28.757   4.327  11.193
35105W        W   90   0.829  17.926  10.357
35106W        W   91  15.281  42.982   3.411
35107W        W   92  28.453  36.480   4.775
35108W        W   93  44.480  13.143   3.432
35109W        W   94  34.070   1.740  12.459
35110W        W   95  41.834  29.932   2.747
35111W        W   96  43.337   9.423   4.333
35112W        W   97  28.540  13.108  14.415
35113W        W   98   7.647   4.212  14.890
35114W        W   99  37.879  24.797  10.421
35115W        W  100  21.148   1.410   2.254
35116W        W  101  28.461   1.145   4.033
35117W        W  102  26.465  18.219  10.730
35118W        W  103  28.684  13.962   4.937
35119W        W  104  30.223   8.790   2.197
35120W        W  105  23.807  30.841  14.864
35121W        W  106  16.539  14.401   2.207
35122W        W  107  39.409  26.951   0.534
35123W        W  108  21.149  25.099  13.949
35124W        W  109  28.695  43.696  13.392
35125W        W  110  38.821  41.878  12.481
35126W        W  111  43.922  26.730   9.723
35127W        W  112  13.797  14.546   4.220
35128W        W  113  24.657  40.608  12.630
35129W        W  114  11.336   9.474   0.325
35130W        W  115  11.881  24.490   0.647
35131W        W  116  36.419  25.648   3.109
35132W        W  117  32.501  33.469  14.861
35133W        W  118  31.108  19.046   1.427
35134W        W  119  38.128  44.298  10.707
35135W        W  120  36.811  15.545   3.742
35136W        W  121   3.494  39.956   2.083
35137W        W  122  11.429  20.335   3.161
35138W        W  123  36.430  26.215   0.810
35139W        W  124  30.589  27.529   4.807
35140W        W  125  13.103  29.431   4.147
35141W        W  126  29.397   8.792  11.845
35142W        W  127  39.195  27.171  13.393
35143W        W  128  39.237  27.609  14.390
35144W        W  129  13.742  30.432  12.603
35145W        W  130  31.279   9.452   9.565
35146W        W  131  31.564  32.642   0.417
35147W        W  132  35.872  16.641  10.553
35148W        W  133  37.228  11.837  10.536
35149W        W  134  24.036  40.843  10.533
35150W        W  135  44.876  31.579  14.039
35151W        W  136   7.407   3.146   4.160
35152W        W  137  39.273   8.573  10.725
35153W        W  138  41.302  12.850  12.681
35154W        W  139  42.891   2.805   0.918
35155W        W  140   9.522   9.975  11.267
35156W        W  141  42.597  30.580  11.378
35157W        W  142  10.101  31.454   0.459
35158W        W  143  21.303  44.484   1.699
35159W        W  144  26.169   8.899   0.978
35160W        W  145  31.424   7.337  12.581
35161W        W  146  15.298   4.292   2.839
35162W        W  147   8.124  29.892  12.877
35163W        W  148  29.753  41.760  14.734
35164W        W  149  22.669   2.707   3.349
35165W        W  150  37.421   4.490   1.499
35166W        W  151   5.015  36.494   2.683
35167W        W  152  34.868  39.348  13.497
35168W        W  153  44.087  38.448  12.125
35169W        W  154  32.230  11.256  11.152
35170W        W  155  23.710  14.919   1.671
35171W        W  156  27.404  35.799  12.470
35172W        W  157  44.789  19.413  13.538
35173W        W  158  23.739  38.857  10.470
35174W        W  159  32.906   3.513  14.440
35175W        W  160  39.350   9.702   0.930
35176W        W  161   2.461  28.730   4.592
35177W        W  162  18.796  36.928  11.969
35178W        W  163   7.737  19.459   4.589
35179W        W  164  16.098  38.426  12.384
35180W        W  165  25.223  34.014  11.274
35181W        W  166  42.971  40.754   4.118
35182W        W  167  37.296  19.573  14.524
35183W        W  168  41.984  31.434  11.103
35184W        W  169   0.918   3.315  11.763
35185W        W  170  10.321  35.980   0.884
35186W        W  171  39.627  17.628  12.244
35187W        W  172  35.852  39.321   0.536
35188W        W  173   5.218   7.390   1.345
35189W        W  174   1.598   4.886   3.685
35190W        W  175  33.909  40.430   0.972
35191W        W  176  35.466  41.989  14.854
35192W        W  177  10.108  31.964   0.382
35193W        W  178  30.631  25.144   2.739
35194W        W  179   7.570  28.490   4.487
35195W        W  180  26.575  43.285  14.500
35196W        W  181   9.115  12.607  12.056
35197W        W  182   6.138  18.602   2.236
35198W        W  183  41.388  38.784  14.192
35199W        W  184   5.360  24.952   0.191
35200W        W  185   4.904  11.882   2.688
35201W        W  186   3.625   5.868  10.816
35202W        W  187  21.741  25.892   0.531
35203W        W  188  39.312  41.106  11.035
35204W        W  189   2.449   0.705   2.806
35205W        W  190  26.693   8.422  12.087
35206W        W  191  20.534  20.820  12.395
35207W        W  192  39.356  15.444  12.757
35208W        W  193   2.987  32.891  14.774
35209W        W  194  31.471  44.389   3.301
35210W        W  195  37.119  43.175  13.759
35211W        W  196  22.088  25.939   1.162
35212W        W  197  18.475  38.437  13.432
35213W        W  198   5.672  22.747  13.743
35214W        W  199  20.478  15.730  12.970
35215W        W  200  20.072   5.785   1.296
35216W        W  201  30.949  38.925   4.798
35217W        W  202  43.836   8.356   4.371
35218W        W  203  41.552  17.188   0.787
35219W        W  204  22.965  33.044   4.479
35220W        W  205   9.424  18.081   4.265
35221W        W  206  27.157  28.199  10.748
35222W        W  207   0.828  25.972   3.209
35223W        W  208  10.371  21.622  13.085
35224W        W  209  44.873  12.904  10.432
35225W        W  210  39.638  15.309  13.787
35226W        W  211   3.981  26.285   1.285
35227W        W  212   3.930  29.164   1.533
35228W        W  213  16.375   2.236   2.282
35229W        W  214  37.735  41.818  11.647
35230W        W  215  40.822  31.915   0.489
35231W        W  216   2.903  31.536   4.649
35232W        W  217  10.595  36.923   1.837
35233W        W  218  15.099  11.023  10.879
35234W        W  219   5.256  14.587  12.980
35235W        W  220  26.051  34.330   1.655
35236W        W  221  17.530  17.680  12.911
35237W        W  222  26.197   5.260   3.754
35238W        W  223  32.724  11.093   4.010
35239W        W  224  11.334   9.809  14.070
35240W        W  225  12.581   0.824  14.681
35241W        W  226  39.693   0.061  11.947
35242W        W  227   6.934  12.790   2.373
35243W        W  228  19.227   6.463   2.783
35244W        W  229  42.731   3.727   5.228
35245W        W  230  30.354   5.422   2.831
35246W        W  231  27.093  33.349  12.048
35247W        W  232   0.587  26.990   4.281
35248W        W  233   8.795   1.614  11.160
35249W        W  234   8.976  37.120   1.047
35250W        W  235  36.645   5.388  14.974
35251W        W  236  37.504  35.109  11.695
35252W        W  237   8.106  14.745  10.483
35253W        W  238   4.289   5.221   3.218
35254W        W  239  21.760  41.043   2.158
35255W        W  240  14.286  42.162   4.602
35256W        W  241  13.605   7.859   2.257
35257W        W  242  37.878  11.419   1.395
35258W        W  243   1.780  18.782  10.739
35259W        W  244  19.185   1.797   1.399
35260W        W  245   9.754   2.069   1.083
35261W        W  246  25.109   2.384   1.382
35262W        W  247  13.408  32.105   4.191
35263W        W  248  40.355  32.417  11.138
35264W        W  249  33.414  41.625  12.388
35265W        W  250  31.606  19.662  11.079
35266W        W  251  29.127  44.083   0.367
35267W        W  252  20.251  32.119  14.952
35268W        W  253  19.567  44.522  13.358
35269W        W  254   3.922   2.207  13.451
35270W        W  255  22.153   4.106  13.982
35271W        W  256  13.592  41.961   4.798
35272W        W  257  14.228  21.306  11.909
35273W        W  258  17.630   7.846   0.275
35274W        W  259  33.738  26.049  14.031
35275W        W  260  29.203   9.232   1.741
35276W        W  261  41.700  15.934   4.422
35277W        W  262  28.409  39.296  13.008
35278W        W  263  39.147  25.230   1.833
35279W        W  264  42.486  38.537   5.680
35280W        W  265  19.605  26.070   1.295
35281W        W  266  38.376  32.833  13.086
35282W        W  267  36.462  27.282   3.610
35283W        W  268   5.043  35.093  12.225
35284W        W  269  12.806  38.880   0.756
35285W        W  270  38.713  11.256   4.734
35286W        W  271   9.686  35.992  12.900
35287W        W  272  43.647  40.314  11.540
35288W        W  273  16.810  15.561  13.409
35289W        W  274  10.347   0.375   4.237
35290W        W  275  31.368  10.694   3.680
35291W        W  276  27.693  17.996   1.034
35292W        W  277   4.473  12.498   2.274
35293W        W  278   5.338  11.074  11.395
35294W        W  279  26.524   4.372   0.446
35295W        W  280  35.532   7.244  10.766
35296W        W  281  36.005  33.468  11.487
35297W        W  282  28.530  15.798   2.810
35298W        W  283  14.663  20.476  11.999
35299W        W  284   0.976  21.474   2.752
35300W        W  285  13.295  41.550   3.358
35301W        W  286   7.666  43.748   2.733
35302W        W  287  10.072   9.775  11.203
35303W        W  288  36.891  28.611  11.165
35304W        W  289   1.975  26.139   3.741
35305W        W  290  30.324  13.402  14.283
35306W        W  291  32.789   4.731   2.859
35307W        W  292   5.533   8.408  10.950
35308W        W  293  12.110  42.422  10.415
35309W        W  294   4.930  20.134  14.537
35310W        W  295  24.011   3.180  13.452
35311W        W  296  24.911  33.331  12.465
35312W        W  297  29.854  40.799   1.978
35313W        W  298  31.530  35.621   3.349
35314W        W  299   6.821  31.494  14.428
35315W        W  300  19.526  25.508  12.563
35316W        W  301  29.685  11.230  12.914
35317W        W  302  40.240  21.546  10.672
35318W        W  303  32.884  37.709   1.731
35319W        W  304  24.271  10.705  13.371
35320W        W  305  33.531  21.550  13.532
35321W        W  306  42.612  39.095  11.437
35322W        W  307  10.913  15.567   3.677
35323W        W  308  23.441  39.316  10.666
35324W        W  309  35.482  42.364   3.592
35325W        W  310  29.338  30.285   5.520
35326W        W  311   2.070  39.306   1.346
35327W        W  312  33.029   9.827   1.511
35328W        W  313   5.303  18.859   1.404
35329W        W  314  11.096  42.422  13.909
35330W        W  315  33.418  40.558  10.311
35331W        W  316   9.644  35.648  11.697
35332W        W  317  23.986  14.599  13.933
35333W        W  318   0.259  24.236   4.172
35334W        W  319   8.187   9.753   1.166
35335W        W  320  44.923  36.295   4.174
35336W        W  321  31.987   2.456   3.224
35337W        W  322  43.368  40.399   4.250
35338W        W  323  15.276   5.379  14.292
35339W        W  324  31.319  38.757   3.220
35340W        W  325   0.066  42.878  12.483
35341W        W  326  26.132  44.760   9.962
35342W        W  327  17.267  28.271   0.461
35343W        W  328   5.842  33.133   2.478
35344W        W  329  24.623   2.580  10.846
35345W        W  330  18.544  21.294   3.801
35346W        W  331   6.771  13.084  11.734
35347W        W  332  41.661   2.202   3.210
35348W        W  333   3.369  18.626   2.326
35349W        W  334  39.113  32.409  13.496
35350W        W  335  17.873  22.215  14.037
35351W        W  336   8.430  21.705   1.837
35352W        W  337  20.864  43.547   2.664
35353W        W  338  34.497  24.770   3.591
35354W        W  339   4.864  35.521  12.478
35355W        W  340  34.121  14.834   0.871
35356W        W  341   1.001   7.065   2.679
35357W        W  342   6.495  29.624   0.931
35358W        W  343  15.554  35.056   3.079
35359W        W  344  21.330  25.192   4.300
35360W        W  345  34.924  11.409   2.510
35361W        W  346  27.500  15.344   4.740
35362W        W  347  18.973   5.579  11.064
35363W        W  348  33.929  22.296   4.410
35364W        W  349  18.700   0.761  10.792
35365W        W  350  13.070  12.257   4.372
35366W        W  351  22.357  25.220  11.096
35367W        W  352  21.918   6.426   3.310
35368W        W  353  32.707  19.238   4.059
35369W        W  354  38.966  28.927  14.766
35370W        W  355  12.705  10.362   2.324
35371W        W  356   4.268   6.198   1.043
35372W        W  357  23.501  23.433   0.894
35373W        W  358   4.883   8.382  12.051
35374W        W  359  44.906  39.935  14.278
35375W        W  360  25.380   4.827  14.570
35376W        W  361  15.292  41.844  14.266
35377W        W  362  44.727  25.652  12.244
35378W        W  363  32.312  30.579   3.674
35379W        W  364  22.669  37.046  10.795
35380W        W  365  42.480   6.373  10.633
35381W        W  366  31.227  12.777  11.070
35382W        W  367   4.738  24.308   0.463
35383W        W  368  39.088  26.639  10.566
35384W        W  369   2.907  10.598   4.036
35385W        W  370  23.526  21.625   2.453
35386W        W  371   1.731   2.426   0.894
35387W        W  372   4.682  28.307   4.139
35388W        W  373  20.137  40.357  12.411
35389W        W  374  28.119  10.432   2.277
35390W        W  375  33.555  13.087   4.652
35391W        W  376  14.852  16.812   1.275
35392W        W  377  26.231  42.395  11.945
35393W        W  378  34.636  25.651  11.278
35394W        W  379   6.352   1.563   2.227
35395W        W  380   6.390  35.674  11.148
35396W        W  381   3.611  24.979   1.294
35397W        W  382  20.777   5.987  11.628
35398W        W  383  27.766  40.814  12.985
35399W        W  384  33.571   4.677  11.158
35400W        W  385  39.120   3.813   2.742
35401W        W  386  19.279  22.776  12.969
35402W        W  387  19.162  37.863   4.450
35403W        W  388  39.341  19.532   1.358
35404W        W  389  37.055  11.713   2.768
35405W        W  390  25.884   1.160  11.944
35406W        W  391  12.183  28.309   1.176
35407W        W  392   2.962   7.694  13.055
35408W        W  393  36.812  20.168  11.163
35409W        W  394  43.303  10.899  14.093
35410W        W  395  26.217  43.904   3.600
35411W        W  396  33.894  19.363   0.401
35412W        W  397  18.995  17.912   3.665
35413W        W  398  21.286  19.099  13.493
35414W        W  399  41.973  19.730   4.591
35415W        W  400  25.979  21.660   1.444
35416W        W  401  10.577  26.705  11.486
35417W        W  402  18.624  30.153   3.611
35418W        W  403  13.126  12.219  11.269
35419W        W  404   0.489  34.462  14.755
35420W        W  405  36.555  40.348   4.195
35421W        W  406  42.846  32.219   2.743
35422W        W  407  40.825  39.855  12.119
35423W        W  408  34.548  23.929   3.115
35424W        W  409  10.207  16.262  12.063
35425W        W  410  12.378   7.852  14.304
35426W        W  411  22.788  28.993   4.544
35427W        W  412  31.635  43.484  11.550
35428W        W  413  34.459  15.478  12.971
35429W        W  414  23.157  26.523  13.844
35430W        W  415   6.194   9.718   1.278
35431W        W  416   6.529  37.451  14.430
35432W        W  417   7.764  32.587  11.201
35433W        W  418   5.472  27.953  12.937
35434W        W  419  11.745  44.551   4.585
35435W        W  420  34.962   8.228   1.675
35436W        W  421  39.801  16.199  13.818
35437W        W  422   7.405  42.250  11.674
35438W        W  423  29.617  39.464   4.418
35439W        W  424  27.139  34.504  11.445
35440W        W  425   2.033   9.788  10.604
35441W        W  426   1.327  26.755   0.470
35442W        W  427  33.971  18.263   1.848
35443W        W  428  36.995  25.847   0.029
35444W        W  429  34.425   5.349   5.064
35445W        W  430  40.284  27.513   1.786
35446W        W  431  13.719   7.607  10.571
35447W        W  432   6.750  32.250  14.956
35448W        W  433   7.729  18.015  12.087
35449W        W  434  20.498  27.956   3.160
35450W        W  435  27.385  14.672  12.160
35451W        W  436  21.839  12.859   0.462
35452W        W  437  19.781  15.557   3.017
35453W        W  438  42.238  27.992   3.467
35454W        W  439  44.513  11.801  13.423
35455W        W  440  21.620  44.047   2.501
35456W        W  441  23.008  24.458   4.579
35457W        W  442  16.244  17.371  14.419
35458W        W  443   8.168  18.170  11.610
35459W        W  444   4.805   7.121  12.640
35460W        W  445  12.158   9.654  11.911
35461W        W  446   9.685   6.344   4.562
35462W        W  447  32.137  18.402  13.910
35463W        W  448  11.262  14.096   0.249
35464W        W  449  40.766   2.784  11.519
35465W        W  450   2.197   7.848   1.377
35466W        W  451  18.574  13.813   4.526
35467W        W  452  18.086   5.206   2.850
35468W        W  453  15.848  31.483   3.268
35469W        W  454  21.961   1.448   1.096
35470W        W  455  43.182  23.648  14.841
35471W        W  456  27.157  15.761  11.488
35472W        W  457  25.273  41.395  12.052
35473W        W  458  24.721  21.001  14.734
35474W        W  459  12.365  43.048  12.903
35475W        W  460  36.690  34.977   2.428
35476W        W  461   7.593  18.656   0.441
35477W        W  462  22.887  30.640  12.493
35478W        W  463  16.634  43.058  14.913
35479W        W  464   4.447  16.087   3.828
35480W        W  465  32.112  36.619  12.439
35481W        W  466  39.035  42.942  11.878
35482W        W  467   1.756  12.297  11.030
35483W        W  468  35.590  26.569   1.292
35484W        W  469  34.148   4.224   4.883
35485W        W  470  10.778  15.366   0.479
35486W        W  471   1.637  26.011   4.136
35487W        W  472  28.296   4.207  11.428
35488W        W  473  24.767  17.626   2.617
35489W        W  474   6.235  35.753  14.289
35490W        W  475   2.542  32.606   2.658
35491W        W  476  29.853  23.000   1.296
35492W        W  477  35.135   0.418  13.430
35493W        W  478  41.783   2.254  10.624
35494W        W  479  10.202  20.192  10.540
35495W        W  480   4.576   6.210   0.262
35496W        W  481  44.769  19.667   2.729
35497W        W  482  17.683  15.260   0.764
35498W        W  483   3.171  11.597   0.249
35499W        W  484   1.838  42.210  11.004
35500W        W  485  41.474  15.866   3.628
35501W        W  486  13.195  24.459   0.786
35502W        W  487   6.759  34.972  11.074
35503W        W  488  14.055  42.009  13.327
35504W        W  489  20.677  26.269   0.012
35505W        W  490  37.435   7.361   4.318
35506W        W  491  32.109   5.947  14.966
35507W        W  492  35.382   6.654   0.363
35508W        W  493  33.790  43.630   9.871
35509W        W  494  13.524  30.230   4.100
35510W        W  495  10.255  26.560   4.247
35511W        W  496  27.630  38.495   2.430
35512W        W  497  19.021  41.515   0.820
35513W        W  498  39.530  14.629   4.303
35514W        W  499  19.249  26.196   0.681
35515W        W  500  41.444  11.932  14.268
35516W        W  501  40.819  22.107  13.468
35517W        W  502  27.083  40.120  13.640
35518W        W  503  33.793  40.136   2.401
35519W        W  504  42.298  27.153   0.956
35520W        W  505   2.645  36.548  14.672
35521W        W  506  41.335   7.406  10.752
35522W        W  507  18.328  38.794   2.180
35523W        W  508  24.419  34.027  14.035
35524W        W  509  28.493  39.299  11.022
35525W        W  510  26.854  23.434   3.628
35526W        W  511   8.565  20.509   3.296
35527W        W  512   9.300  39.244   1.468
35528W        W  513  16.315   6.706  12.124
35529W        W  514  16.662  19.791   2.363
35530W        W  515  21.834  35.977   2.391
35531W        W  516  33.147  16.508  11.762
35532W        W  517  12.780  43.811  14.764
35533W        W  518  17.681  17.239  14.971
35534W        W  519   0.281  14.565   0.954
35535W        W  520   3.344  10.460  14.397
35536W        W  521  16.325  15.737  13.445
35537W        W  522  19.478  16.050  12.573
35538W        W  523   2.218  37.446  13.858
35539W        W  524  35.797  20.060  13.807
35540W        W  525  41.346   3.406  11.699
35541W        W  526  28.083  34.635   1.746
35542W        W  527  44.827  12.292  13.048
35543W        W  528  24.679  20.491   2.157
35544W        W  529  42.021  29.140   5.008
35545W        W  530  26.986   3.304   5.250
35546W        W  531   8.523  18.969   3.795
35547W        W  532  35.683  44.824   4.694
35548W        W  533   7.148  32.842  13.613
35549W        W  534  10.388   3.358  13.014
35550W        W  535  21.687  36.509   2.639
35551W        W  536   1.912  36.001   3.258
35552W        W  537  20.907  14.533  14.986
35553W        W  538  25.274  39.378   2.360
35554W        W  539  43.931  19.779  11.674
35555W        W  540  29.450  34.991   1.219
35556W        W  541  43.211  10.142  10.248
35557W        W  542  13.614   4.710  12.501
35558W        W  543   9.277  41.360  10.710
35559W        W  544   8.672   2.193   4.139
35560W        W  545  41.834  21.973   0.751
35561W        W  546  39.029  31.952   0.468
35562W        W  547   9.455   7.635  12.460
35563W        W  548  25.579  43.779   2.946
35564W        W  549  33.951  13.443   1.036
35565W        W  550  27.922  27.752   5.186
35566W        W  551   8.193   9.124   0.767
35567W        W  552  26.612  23.688   4.087
35568W        W  553  13.187  15.219  14.241
35569W        W  554  40.609  31.457  11.449
35570W        W  555  25.543  30.184   3.216
35571W        W  556  39.614  24.601   1.037
35572W        W  557  16.277  28.708  13.983
35573W        W  558  30.116  43.169  11.371
35574W        W  559  16.764  15.079  13.573
35575W        W  560  43.011  44.820   2.154
35576W        W  561   3.781   7.913  11.012
35577W        W  562  22.689  40.222  12.573
35578W        W  563  39.520   4.788   4.477
35579W        W  564  12.400  36.194   0.296
35580W        W  565   0.615  12.250  14.018
35581W        W  566  39.382   3.980   3.186
35582W        W  567  15.060  16.425   3.585
35583W        W  568  38.485   6.824  13.521
35584W        W  569  19.726  16.533  14.085
35585W        W  570  31.652  41.867  14.934
35586W        W  571  22.672  32.636   3.203
35587W        W  572  18.485  43.538  11.696
35588W        W  573  24.533   6.709   3.654
35589W        W  574  18.502  16.605  14.069
35590W        W  575   4.654  44.114  14.588
35591W        W  576  38.753   3.468   2.653
35592W        W  577  30.402  34.631  10.489
35593W        W  578  10.876  14.676   1.261
35594W        W  579   7.720  34.102  12.349
35595W        W  580  27.405   0.204   4.323
35596W        W  581  21.499   0.337   0.804
35597W        W  582  30.874   6.151   0.269
35598W        W  583  16.350  10.875  13.839
35599W        W  584  17.389  13.095  11.941
35600W        W  585  39.885  21.199  10.811
35601W        W  586   4.467  22.963  11.111
35602W        W  587  39.014  38.856  13.460
35603W        W  588   2.810  40.869  10.675
35604W        W  589   2.690  18.268   1.370
35605W        W  590  36.805  28.336   0.659
35606W        W  591   3.344  13.344  12.584
35607W        W  592  34.007  39.370   1.018
35608W        W  593   6.187   0.916   3.052
35609W        W  594  35.403  35.949  12.603
35610W        W  595  43.516   3.744  12.488
35611W        W  596   2.483  11.677  12.116
35612W        W  597  32.709  37.361   0.457
35613W        W  598  42.921  36.348  14.911
35614W        W  599  22.253  37.803   4.489
35615W        W  600  13.190  34.467  12.011
35616W        W  601   4.200  22.151   1.395
35617W        W  602   6.719   4.706   1.743
35618W        W  603   5.381  21.192  13.579
35619W        W  604  15.061   2.693   3.188
35620W        W  605  13.284  32.069   3.690
35621W        W  606   4.499   0.851  13.757
35622W        W  607  16.116  42.918   2.164
35623W        W  608  44.857  19.868   9.750
35624W        W  609  31.863  32.315  10.819
35625W        W  610  30.114   1.823   4.500
35626W        W  611  19.802   5.353  14.060
35627W        W  612  15.076  31.488   2.841
35628W        W  613  23.190  35.074  11.732
35629W        W  614  38.145  25.603   3.220
35630W        W  615  16.338  41.077   5.031
35631W        W  616  34.138  40.389  13.040
35632W        W  617   6.643  40.077  14.396
35633W        W  618  18.263  29.577   3.541
35634W        W  619  20.244  33.841   2.135
35635W        W  620  31.151  38.304  14.282
35636W        W  621   9.887  22.790  11.514
35637W        W  622  26.065  43.392  14.499
35638W        W  623  18.065  32.120   1.092
35639W        W  624  31.781  37.284   1.130
35640W        W  625  32.123  41.348  13.427
35641W        W  626   0.757  33.673  10.645
35642W        W  627  21.555  18.490   3.592
35643W        W  628  41.815  23.541   3.608
35644W        W  629  41.339  23.582   3.776
35645W        W  630  37.950  14.111  10.719
35646W        W  631  19.031  21.815   0.704
35647W        W  632   6.439  32.105   1.360
35648W        W  633  14.897   1.171   1.660
35649W        W  634  32.950  30.144   1.264
35650W        W  635  31.386  38.494  13.144
35651W        W  636  39.916  39.949   3.126
35652W        W  637  18.045  39.832  14.041
35653W        W  638   9.879  40.686  14.787
35654W        W  639  25.652   9.187  12.648
35655W        W  640  17.604  13.405  13.604
35656W        W  641  36.534  23.251  14.208
35657W        W  642  22.475  39.441  13.330
35658W        W  643  38.988  35.281  14.706
35659W        W  644   7.284   4.291   4.176
35660W        W  645  44.852  20.307   5.069
35661W        W  646  26.380  18.501  12.391
35662W        W  647  12.515  12.096   2.594
35663W        W  648  37.929  20.857  11.335
35664W        W  649  27.583  35.324  12.454
35665W        W  650   3.764  10.977   1.867
35666W        W  651   1.433  39.956  14.227
35667W        W  652  21.164  36.176  11.802
35668W        W  653  18.807  11.492  12.939
35669W        W  654  42.501  30.193  13.401
35670W        W  655  28.446  44.705   3.648
35671W        W  656  14.546  38.060  13.501
35672W        W  657  39.773  23.792  14.815
35673W        W  658  40.622  10.922   3.395
35674W        W  659  18.502  38.713  11.631
35675W        W  660   6.522  33.076   1.365
35676W        W  661  16.945  12.892  10.761
35677W        W  662  16.691  32.154   0.353
35678W        W  663   3.920   4.786   3.155
35679W        W  664  18.695  37.097  14.886
35680W        W  665  34.684  39.046   3.198
35681W        W  666  27.279   3.434   3.348
35682W        W  667   1.083   0.988  11.602
35683W        W  668  43.615  31.031   2.376
35684W        W  669  42.544  34.589  14.841
35685W        W  670  43.440  25.934  10.050
35686W        W  671   4.985  35.958  12.775
35687W        W  672  32.910  25.095  14.347
35688W        W  673   0.796  41.711  13.808
35689W        W  674  38.594  17.613  14.006
35690W        W  675   4.463   6.530   1.995
35691W        W  676   8.712  15.210   3.721
35692W        W  677   5.057   0.352   1.471
35693W        W  678  32.505   2.890  12.452
35694W        W  679   3.031  44.383  14.071
35695W        W  680  15.335   1.415   4.428
35696W        W  681  44.290   7.081   1.697
35697W        W  682  42.756   3.353  10.382
35698W        W  683  44.502  28.998  11.272
35699W        W  684  15.545  19.652   3.861
35700W        W  685  32.625   5.077  13.313
35701W        W  686   6.479  39.338  11.783
35702W        W  687  23.624  12.150  14.076
35703W        W  688   6.324  25.414  11.963
35704W        W  689  14.534   6.637   4.637
35705W        W  690  15.142  43.187   4.689
35706W        W  691  20.928   4.031   4.035
35707W        W  692  39.775  29.457  10.693
35708W        W  693   3.392  40.027   3.516
35709W        W  694  30.483  14.023  12.076
35710W        W  695  14.178   2.762  11.912
35711W        W  696  34.498  33.074   4.625
35712W        W  697  10.453   8.170  13.057
35713W        W  698  31.074  32.415   2.756
35714W        W  699  31.735  11.433   0.316
35715W        W  700  14.783   7.485   3.684
35716W        W  701   5.880  18.294   0.961
35717W        W  702  19.700  18.163   0.344
35718W        W  703   3.709   1.522   1.227
35719W        W  704  37.817  28.424   4.640
35720W        W  705   9.884  34.412   0.855
35721W        W  706   6.881  24.491  12.588
35722W        W  707   2.799  44.493   1.847
35723W        W  708  21.461  34.317  13.238
35724W        W  709  42.031  42.464  14.804
35725W        W  710  22.267  44.014   4.705
35726W        W  711  17.409   4.916   1.983
35727W        W  712  12.320   7.361  13.372
35728W        W  713  27.257   6.832   4.135
35729W        W  714  29.674   4.622   3.623
35730W        W  715  23.244   3.649   5.132
35731W        W  716  43.488   3.319   4.573
35732W        W  717  41.771   1.371  10.676
35733W        W  718  35.106   8.462  13.527
35734W        W  719  42.750  11.778   0.654
35735W        W  720  11.039  43.595  14.782
35736W        W  721  31.483  31.872  13.082
35737W        W  722  24.957   2.876   1.251
35738W        W  723  44.826  33.170  11.117
35739W        W  724  35.304  34.250   1.112
35740W        W  725  40.961  11.723   4.604
35741W        W  726  11.588  44.553   0.338
35742W        W  727  21.025  35.128  10.797
35743W        W  728  17.222   2.977   2.903
35744W        W  729   2.171  40.341  14.314
35745W        W  730  10.347  14.148   0.544
35746W        W  731   1.457  22.828  14.797
35747W        W  732  21.043  12.752  13.811
35748W        W  733   9.947  23.097   4.062
35749W        W  734  10.572  35.924  11.644
35750W        W  735  17.193   8.808  12.616
35751W        W  736  36.001  42.802   2.075
35752W        W  737  12.270  28.865   2.093
35753W        W  738  12.362  32.177   3.512
35754W        W  739   5.247   4.698   0.697
35755W        W  740  43.358   7.350   0.650
35756W        W  741   5.681  37.688  11.558
35757W        W  742   1.724   1.525   0.742
35758W        W  743  41.462  17.362   2.723
35759W        W  744  16.345  26.481   9.821
35760W        W  745  37.099   4.722  11.657
35761W        W  746  33.074   2.469   4.211
35762W        W  747  33.949  27.587  13.014
35763W        W  748  24.025  14.256  13.344
35764W        W  749  34.056  12.208  11.829
35765W        W  750  10.921   9.707   3.302
35766W        W  751  42.704   3.921  13.500
35767W        W  752  23.723   5.220   1.399
35768W        W  753  25.644  41.519  12.436
35769W        W  754   9.097  13.076   2.646
35770W        W  755   7.375  40.030  13.037
35771W        W  756  41.012  12.452   1.100
35772W        W  757  39.392   8.277   1.317
35773W        W  758   5.668  22.780   2.005
35774W        W  759   8.869  19.775  13.951
35775W        W  760  42.019  36.482  12.624
35776W        W  761   0.881  43.296   1.019
35777W        W  762  28.993   6.310  11.517
35778W        W  763  25.689  11.291   4.694
35779W        W  764  17.143  22.239   4.088
35780W        W  765   6.633  20.119  10.930
35781W        W  766   1.478   8.600   3.688
35782W        W  767  23.088  19.813   2.239
35783W        W  768   1.738  19.431  11.440
35784W        W  769  20.357  29.230  13.337
35785W        W  770  25.090  34.502   3.263
35786W        W  771  12.742  14.644   2.883
35787W        W  772  25.091  10.402   1.065
35788W        W  773  15.921  21.173   1.422
35789W        W  774  43.836  11.622   3.667
35790W        W  775  21.682  37.792  13.197
35791W        W  776  43.008  29.894   0.484
35792W        W  777  11.637  38.822   3.504
35793W        W  778  30.673   8.201   0.625
35794W        W  779  14.201  31.748   1.825
35795W        W  780  14.057  23.943   3.664
35796W        W  781  40.798  21.513  10.634
35797W        W  782   6.463  41.545   4.197
35798W        W  783  22.243  37.242   1.743
35799W        W  784  36.499  32.358  14.805
35800W        W  785  38.441   1.252  10.542
35801W        W  786   0.962   3.534  14.095
35802W        W  787  14.799  16.960   4.580
35803W        W  788  26.711   5.260  14.336
35804W        W  789  21.732  21.589  12.996
35805W        W  790  33.091   4.855  12.045
35806W        W  791  25.905   8.670   2.902
35807W        W  792  23.024  26.062   1.160
35808W        W  793  16.640  13.140  13.446
35809W        W  794  25.960  37.561  12.435
35810W        W  795  35.002  19.579  12.414
35811W        W  796  20.079  29.665   2.239
35812W        W  797   9.949  42.535   3.328
35813W        W  798  31.836  29.887   4.217
35814W        W  799  40.876  14.584   2.137
35815W        W  800  26.399   7.764  11.590
35816W        W  801  25.963  24.728   0.362
35817W        W  802  39.472  28.554   1.875
35818W        W  803  26.619  10.327   5.157
35819W        W  804  29.468  33.820  12.056
35820W        W  805  11.619  15.342   0.319
35821W        W  806  38.020  23.438  13.351
35822W        W  807  14.265  37.174  13.957
35823W        W  808   0.272   1.718   1.684
35824W        W  809  29.163  37.919  12.857
35825W        W  810  29.053  32.845   3.653
35826W        W  811  20.525  28.448   2.360
35827W        W  812  26.137  31.189   0.218
35828W        W  813  28.713  37.819  14.845
35829W        W  814  42.857   8.386  12.549
35830W        W  815  21.625  26.186  10.468
35831W        W  816   8.501  29.237  11.088
35832W        W  817  43.101  42.292  13.978
35833W        W  818  30.660  39.722   2.219
35834W        W  819  18.000  31.441  11.692
35835W        W  820   7.509  44.287   3.071
35836W        W  821  44.176  24.377   4.298
35837W        W  822  27.687  43.800   2.560
35838W        W  823   1.157  35.522   1.358
35839W        W  824  27.391  42.437   2.769
35840W        W  825  21.208  13.342   2.269
35841W        W  826  14.818  23.822   1.216
35842W        W  827  31.914  23.705   2.234
35843W        W  828  25.076  21.723   1.705
35844W        W  829   1.030  24.818   4.179
35845W        W  830  25.444   2.563   2.215
35846W        W  831  15.200  30.598   3.101
35847W        W  832   9.344  24.524  13.839
35848W        W  833  23.823  43.927   2.392
35849W        W  834   7.818  30.658   3.133
35850W        W  835   1.793  31.038  13.033
35851W        W  836  23.660  27.091   0.460
35852W        W  837  13.553  34.267   1.171
35853W        W  838  38.520  13.365  12.542
35854W        W  839  34.577  15.766   0.834
35855W        W  840  28.310  41.082  12.151
35856W        W  841  26.473  42.529   2.747
35857W        W  842  21.283  12.292  10.684
35858W        W  843  18.049  18.024   1.332
35859W        W  844   3.869  38.813  13.552
35860W        W  845   9.062  19.649  11.610
35861W        W  846  38.695   9.177   3.861
35862W        W  847   3.936   6.991  13.099
35863W        W  848  24.146   7.213   0.879
35864W        W  849  40.399  14.504   2.335
35865W        W  850  43.737  30.412  10.228
35866W        W  851  23.961  28.186  13.553
35867W        W  852   8.350  28.135   4.393
35868W        W  853  39.254  36.561  13.798
35869W        W  854   8.392  42.450   0.685
35870W        W  855   7.983  32.144  12.876
35871W        W  856  11.323  32.084  12.130
35872W        W  857   7.886   9.310   1.693
35873W        W  858  31.889  36.949  11.442
35874W        W  859  31.463   5.188   1.892
35875W        W  860   5.807  34.425  14.419
35876W        W  861   8.377  16.785   0.107
35877W        W  862  42.215  33.084   4.184
35878W        W  863  18.806  38.409   0.388
35879W        W  864  30.319  28.500   1.316
35880W        W  865  16.065  20.238   3.830
35881W        W  866  34.376  24.970   3.126
35882W        W  867  44.799  40.064  10.331
35883W        W  868  31.495   1.727   4.587
35884W        W  869   0.518   5.345  12.462
35885W        W  870  31.576  17.143   1.270
35886W        W  871  11.610  20.689   1.465
35887W        W  872  31.400  24.517  11.887
35888W        W  873  11.724  44.399  12.106
35889W        W  874  32.522  29.995   4.550
35890W        W  875  15.162  21.458  12.665
35891W        W  876  36.034  17.333   2.955
35892W        W  877  33.987  24.630   3.318
35893W        W  878  20.197  30.225  11.207
35894W        W  879  22.002  39.783   0.850
35895W        W  880  43.926  33.001  14.091
35896W        W  881  34.759  36.994   2.734
35897W        W  882  38.390  39.654  14.521
35898W        W  883  41.855   9.334  13.416
35899W        W  884  44.543  21.109  13.370
35900W        W  885  43.922  25.702   0.258
35901W        W  886  11.753  18.758  12.696
35902W        W  887  25.194  39.747   1.870
35903W        W  888   6.695  28.144  12.180
35904W        W  889  10.639  16.552  13.425
35905W        W  890  25.140  21.274   1.209
35906W        W  891  12.685  34.879   3.242
35907W        W  892  40.524  12.201  11.935
35908W        W  893  38.398  35.189  10.849
35909W        W  894  43.635  36.906  13.598
35910W        W  895  35.285   3.912   4.166
35911W        W  896  30.362  19.174   1.853
35912W        W  897  10.622  40.621  14.531
35913W        W  898  29.243  28.092   1.142
35914W        W  899   4.200   4.420  13.846
35915W        W  900  37.879  35.063  12.928
35916W        W  901   9.614  40.991  10.542
35917W        W  902   8.168  42.853   4.347
35918W        W  903  30.233   1.463   1.430
35919W        W  904   3.783  21.631   1.928
35920W        W  905  38.871  13.130   1.858
35921W        W  906  34.909  20.219   2.948
35922W        W  907  12.274   8.611  11.462
35923W        W  908  26.987  15.261  11.626
35924W        W  909   0.261  27.201   3.708
35925W        W  910  37.306  20.261   4.576
35926W        W  911  36.619  25.199   2.883
35927W        W  912  28.128  16.484  11.062
35928W        W  913  27.206  24.587   1.847
35929W        W  914  21.272  27.697  14.824
35930W        W  915   0.269  38.162  13.057
35931W        W  916  38.462  31.229   1.003
35932W        W  917   2.986  41.214  11.931
35933W        W  918  28.103   1.964   1.030
35934W        W  919  13.088  39.921   1.246
35935W        W  920  41.778   2.277   2.711
35936W        W  921   8.338  36.139   4.161
35937W        W  922  11.269   8.124  12.485
35938W        W  923  41.508  43.829  10.927
35939W        W  924  21.211  36.427  10.455
35940W        W  925  30.443  27.221  11.121
35941W        W  926  31.601  32.716  14.008
35942W        W  927  43.714  34.444  11.618
35943W        W  928  10.269  38.689  14.527
35944W        W  929  19.657  22.194   0.285
35945W        W  930  18.740  34.424  12.096
35946W        W  931  25.995  25.881   3.414
35947W        W  932  43.036  17.980   2.809
35948W        W  933  42.046  13.170   2.331
35949W        W  934  39.709  22.593  12.906
35950W        W  935   8.744  13.394   4.209
35951W        W  936   0.697  12.565  12.061
35952W        W  937  43.371  43.051   1.888
35953W        W  938  12.755   6.441  13.017
35954W        W  939  44.459  20.558   0.997
35955W        W  940  28.509   5.835  14.529
35956W        W  941   5.343  10.185   3.510
35957W        W  942  34.753  34.343   3.637
35958W        W  943  32.582  28.582  13.310
35959W        W  944  31.201  42.846   3.161
35960W        W  945  22.034  36.555  13.696
35961W        W  946   2.095  11.175   0.754
35962W        W  947  43.038  35.562   0.371
35963W        W  948   0.877  42.243   3.671
35964W        W  949  31.575   6.271  10.996
35965W        W  950  33.509   7.510  14.239
35966W        W  951   9.769  23.513  11.092
35967W        W  952   3.791  38.307  13.464
35968W        W  953  29.474  11.258   4.505
35969W        W  954  43.370  11.841   2.814
35970W        W  955   1.514  24.501  13.479
35971W        W  956  29.548  32.444  12.421
35972W        W  957  27.993  14.548  14.968
35973W        W  958  39.535   6.264   4.536
35974W        W  959  27.259  33.516  13.344
35975W        W  960  24.636  22.034   4.096
35976W        W  961  21.512   6.849  13.525
35977W        W  962   2.285  26.611  12.069
35978W        W  963  11.583   5.369   1.879
35979W        W  964  21.227  16.617  12.183
35980W        W  965  36.416   1.482  11.156
35981W        W  966  11.254  34.847  14.298
35982W        W  967  18.070  40.520   2.885
35983W        W  968  17.332   3.305   4.150
35984W        W  969   2.827   2.454  14.036
35985W        W  970  10.609  40.481   4.162
35986W        W  971   1.308   2.415   0.237
35987W        W  972  31.102  31.471  11.582
35988W        W  973  43.109  27.936   0.355
35989W        W  974  17.866  27.423   1.370
35990W        W  975  26.539  43.798   4.847
35991W        W  976  39.354  25.643  14.882
35992W        W  977  33.984  25.751  14.399
35993W        W  978   2.002  28.248   0.250
35994W        W  979  36.420   6.102   4.371
35995W        W  980  38.223  17.226  10.554
35996W        W  981  37.770  22.796  14.632
35997W        W  982  29.013  13.299   0.707
35998W        W  983  25.607   6.414   1.728
35999W        W  984   5.236   9.332   5.091
36000W        W  985  11.109  24.244   2.146
36001W        W  986   2.879  24.267   2.993
36002W        W  987  28.961   7.179   2.573
36003W        W  988  14.288   3.654  14.823
36004W        W  989  10.474  31.407   3.787
36005W        W  990  18.335  22.009  12.805
36006W        W  991  11.144   7.129  11.577
36007W        W  992  23.331   3.502   9.818
36008W        W  993  29.848  33.935   3.370
36009W        W  994  20.896  23.995  11.954
36010W        W  995  38.092  31.919   4.573
36011W        W  996   8.451  32.840  11.403
36012W        W  997   9.572  43.244   0.791
36013W        W  998   0.246   7.381   4.705
36014W        W  999  43.358   4.958  11.982
36015W        W 1000   5.755  31.886  14.431
36016W        W 1001  13.183   6.187  13.153
36017W        W 1002   2.458  13.187  13.295
36018W        W 1003  36.905  34.090   3.568
36019W        W 1004  20.049   8.519   1.122
36020W        W 1005  29.100   7.848   4.160
36021W        W 1006  15.101  16.723  13.920
36022W        W 1007  38.968  12.935  14.302
36023W        W 1008  44.441  42.315   4.712
36024W        W 1009  17.813  29.887   1.363
36025W        W 1010  28.231   9.312   3.067
36026W        W 1011   4.387  25.531   2.616
36027W        W 1012  11.349  15.302   4.530
36028W        W 1013  25.975  26.562  11.019
36029W        W 1014  43.796  20.162  14.837
36030W        W 1015  21.623  38.847   3.675
36031W        W 1016   9.367  10.630  12.093
36032W        W 1017  15.687  10.829   3.588
36033W        W 1018  41.221   4.042  14.762
36034W        W 1019  44.815  38.410  10.555
36035W        W 1020  36.775  21.055   2.277
36036W        W 1021  31.985  12.755   3.433
36037W        W 1022  16.538  14.236  14.629
36038W        W 1023  28.753  11.869  12.562
36039W        W 1024   8.451  19.193  14.718
36040W        W 1025  13.700  23.903   2.741
36041W        W 1026   4.163   2.755   3.727
36042W        W 1027  23.906  27.333   5.045
36043W        W 1028   0.557   0.997  12.489
36044W        W 1029  28.374  31.688  10.687
36045W        W 1030  11.687   2.322   2.668
36046W        W 1031  36.102  36.957  12.428
36047W        W 1032  20.261  26.023  10.613
36048W        W 1033  22.260  24.116   4.184
36049W        W 1034  11.739  28.936  12.073
36050W        W 1035   1.738  22.770   1.314
36051W        W 1036  17.648   3.894  14.050
36052W        W 1037   4.002  18.011  14.016
36053W        W 1038  23.798  36.075   4.121
36054W        W 1039  36.463   2.240  14.209
36055W        W 1040   3.270  26.778   4.324
36056W        W 1041   2.833  33.122   0.255
36057W        W 1042  40.939  39.852   3.307
36058W        W 1043   5.783  27.407  11.373
36059W        W 1044  36.462   7.277   1.435
36060W        W 1045   4.281   6.807   0.656
36061W        W 1046  19.189   2.505   0.704
36062W        W 1047  40.692  27.599   1.392
36063W        W 1048   6.619  26.444  12.294
36064W        W 1049  40.314   3.132  12.535
36065W        W 1050  15.526  27.508   1.392
36066W        W 1051  17.049  30.251   4.170
36067W        W 1052  13.331  44.097  10.603
36068W        W 1053   2.916  34.976  12.936
36069W        W 1054  32.674  14.243  13.842
36070W        W 1055   6.400  32.548  14.299
36071W        W 1056  27.446  21.665  12.475
36072W        W 1057  28.499  22.272   4.206
36073W        W 1058  28.982  40.264  14.300
36074W        W 1059  12.854  38.480  13.047
36075W        W 1060  11.426   8.164   3.536
36076W        W 1061  41.849  39.439   1.285
36077W        W 1062  11.564  19.558   0.116
36078W        W 1063  39.688  42.663  10.579
36079W        W 1064   8.868  12.892   4.224
36080W        W 1065  41.806  15.057   0.734
36081W        W 1066  16.574  30.618   1.167
36082W        W 1067   5.256   9.632   0.700
36083W        W 1068   6.914  26.559   4.264
36084W        W 1069  11.442  42.345   2.147
36085W        W 1070  15.154  21.753   0.030
36086W        W 1071  36.774  26.999   4.138
36087W        W 1072  15.921  22.058   1.494
36088W        W 1073  38.282  33.456   4.594
36089W        W 1074  33.230  33.449  13.111
36090W        W 1075  44.984   2.192  13.338
36091W        W 1076  35.464  25.731   3.545
36092W        W 1077  39.029  11.160  14.877
36093W        W 1078  21.898  42.917   3.186
36094W        W 1079  19.573   4.995   0.728
36095W        W 1080  19.086  36.527  13.982
36096W        W 1081   9.335   8.187   3.509
36097W        W 1082  32.680  38.077  14.939
36098W        W 1083  24.714   9.285   2.292
36099W        W 1084  28.812   3.096   1.813
36100W        W 1085  25.195  16.286  12.051
36101W        W 1086  21.434   4.095   0.349
36102W        W 1087  25.260  27.681  10.283
36103W        W 1088  44.999  17.728  12.514
36104W        W 1089   3.324  34.477  14.474
36105W        W 1090  34.789  16.027   4.445
36106W        W 1091  38.793  42.303   2.918
36107W        W 1092  39.302   4.925   5.239
36108W        W 1093  27.025  30.911  14.909
36109W        W 1094  38.214  18.867  11.932
36110W        W 1095   0.770  23.228   0.345
36111W        W 1096  39.454  25.762  13.910
36112W        W 1097   6.873  34.387   3.419
36113W        W 1098   5.679  40.586   1.308
36114W        W 1099  24.874  20.811   1.291
36115W        W 1100  18.755  39.833   3.143
36116W        W 1101  23.087  19.731   4.568
36117W        W 1102  36.289  28.008  13.005
36118W        W 1103  18.552  39.040  14.941
36119W        W 1104   5.404  11.123   3.726
36120W        W 1105  25.158  36.064  10.841
36121W        W 1106  14.761  27.453   1.877
36122W        W 1107   7.836  33.038  13.327
36123W        W 1108  19.162   0.965  10.665
36124W        W 1109  44.086  29.522   5.041
36125W        W 1110   8.868   0.938   0.241
36126W        W 1111  38.336   6.794   4.316
36127W        W 1112  21.210  38.460   2.799
36128W        W 1113  36.301  37.481   4.094
36129W        W 1114  41.499  19.807   4.406
36130W        W 1115  19.500  40.218  11.588
36131W        W 1116   5.842   0.443  14.674
36132W        W 1117  11.918  26.119   1.816
36133W        W 1118  38.544   0.342   2.260
36134W        W 1119  39.300  19.802  14.338
36135W        W 1120  38.786  28.441  14.810
36136W        W 1121   6.232  28.903   3.339
36137W        W 1122  33.014   6.173  10.685
36138W        W 1123  36.441   7.140  13.578
36139W        W 1124  11.805  19.121  10.581
36140W        W 1125  22.737   9.193  13.066
36141W        W 1126  44.224   7.417   2.085
36142W        W 1127  17.141  30.119   5.062
36143W        W 1128  26.410  27.106  14.899
36144W        W 1129  38.822  17.758   0.807
36145W        W 1130  43.877   1.229  10.673
36146W        W 1131   8.192   0.184  11.954
36147W        W 1132  19.314   1.181  11.100
36148W        W 1133  40.811  37.996   2.429
36149W        W 1134  38.334  16.570   9.732
36150W        W 1135  43.873   1.973  13.323
36151W        W 1136  27.363  44.901   0.442
36152W        W 1137  26.743  38.577  11.544
36153W        W 1138  12.952  17.295  12.804
36154W        W 1139  35.512  20.272  12.759
36155W        W 1140  32.456   1.844  11.911
36156W        W 1141  12.784  14.380   1.811
36157W        W 1142  26.207  30.347  13.658
36158W        W 1143  11.399  29.024   1.773
36159W        W 1144   2.101  24.472   2.283
36160W        W 1145  27.660  28.052   2.708
36161W        W 1146  19.774  16.324  13.587
36162W        W 1147  44.691  42.215   0.951
36163W        W 1148   3.047  25.421   4.165
36164W        W 1149  41.905   0.373  11.483
36165W        W 1150  38.083  33.463  12.120
36166W        W 1151   0.228   1.326   2.205
36167W        W 1152  34.426  24.227  13.716
36168W        W 1153  22.015   3.860   1.185
36169W        W 1154  42.877  12.391   4.219
36170W        W 1155  41.423  21.970  14.364
36171W        W 1156  18.937  24.157  11.578
36172W        W 1157  11.840  44.842   3.281
36173W        W 1158   7.567  23.054   4.279
36174W        W 1159  20.699  13.034  11.069
36175W        W 1160  43.354  42.290   0.419
36176W        W 1161  25.038  15.689   5.253
36177W        W 1162  31.526  21.032  13.314
36178W        W 1163   6.925  15.840   3.831
36179W        W 1164   9.479   0.680  11.050
36180W        W 1165  27.235  31.582   2.304
36181W        W 1166   1.170  38.927  11.661
36182W        W 1167   0.964  44.380   3.119
36183W        W 1168  43.031  21.554   0.933
36184W        W 1169  10.824   6.470  10.875
36185W        W 1170  27.068  37.106  12.458
36186W        W 1171  37.253  17.406  14.052
36187W        W 1172  23.456  17.233  12.957
36188W        W 1173   9.012  14.093  14.444
36189W        W 1174   6.685  17.670  13.093
36190W        W 1175  19.711  43.697   3.222
36191W        W 1176  38.936  37.893  14.919
36192W        W 1177  31.145  12.603   3.476
36193W        W 1178  26.524   1.618  11.778
36194W        W 1179  10.700   0.009   1.419
36195W        W 1180   0.899  13.128   4.142
36196W        W 1181  10.030  32.550  13.612
36197W        W 1182  43.441   8.283   3.688
36198W        W 1183  26.742  25.648  13.226
36199W        W 1184  38.749   7.355  10.905
36200W        W 1185  35.266  24.931   3.192
36201W        W 1186  14.655   2.715   4.532
36202W        W 1187  25.149  24.616  11.405
36203W        W 1188  21.681  17.327   1.850
36204W        W 1189  44.769  18.213  13.480
36205W        W 1190  38.079   3.858  11.142
36206W        W 1191  44.665  27.970  10.008
36207W        W 1192  16.699  14.090  13.616
36208W        W 1193  31.043   1.694   3.561
36209W        W 1194  20.716  24.463   0.287
36210W        W 1195  15.916  24.271  11.937
36211W        W 1196   3.748   8.336   4.140
36212W        W 1197  38.955  13.787   1.278
36213W        W 1198  20.281  35.534   1.795
36214W        W 1199   3.426   2.224  12.533
36215W        W 1200   1.463  43.249   0.396
36216W        W 1201  38.305  21.560   3.579
36217W        W 1202   4.850   7.458   2.073
36218W        W 1203   7.659   2.736  14.929
36219W        W 1204  16.538  44.817   4.276
36220W        W 1205  34.361  11.591  14.021
36221W        W 1206   0.425  36.365  11.974
36222W        W 1207  30.136   5.403  11.860
36223W        W 1208   6.869  33.084   2.389
36224W        W 1209  25.822   2.393   0.299
36225W        W 1210  36.415  38.587  11.151
36226W        W 1211  25.908  24.812   2.381
36227W        W 1212   0.391  23.093   1.610
36228W        W 1213  11.820  11.127  13.769
36229W        W 1214  10.796  25.062   0.318
36230W        W 1215   8.075  39.199   1.429
36231W        W 1216  23.026  24.994   4.574
36232W        W 1217  20.311  15.096  13.636
36233W        W 1218  35.163  31.436   3.748
36234W        W 1219  25.985  42.930  14.729
36235W        W 1220  12.356   5.275   2.755
36236W        W 1221   5.155  13.400  14.906
36237W        W 1222  31.419  15.149  11.175
36238W        W 1223  22.762  35.910   4.039
36239W        W 1224  21.077  24.873  14.468
36240W        W 1225   5.413  10.869  12.980
36241W        W 1226   0.514  35.670  13.442
36242W        W 1227  43.816  36.339  14.900
36243W        W 1228  31.506   8.625   0.880
36244W        W 1229  13.374   7.495  10.208
36245W        W 1230  13.775  42.082  14.573
36246W        W 1231  43.011  26.735  12.578
36247W        W 1232   4.801  29.900  12.771
36248W        W 1233   7.103   5.243   3.284
36249W        W 1234  15.311  39.349  11.113
36250W        W 1235  32.125  33.586   3.593
36251W        W 1236  34.704  10.625   4.958
36252W        W 1237   6.574  26.089   4.902
36253W        W 1238   7.870  44.018   2.283
36254W        W 1239  42.254  22.019  10.200
36255W        W 1240   5.411   0.586   2.726
36256W        W 1241  40.017  32.405   4.555
36257W        W 1242   3.308  42.485  14.503
36258W        W 1243  14.511  40.437   2.247
36259W        W 1244  38.608  17.640  14.787
36260W        W 1245  37.301   6.678   2.733
36261W        W 1246  14.678  36.409   1.878
36262W        W 1247  13.886  22.520  13.478
36263W        W 1248  26.511  31.827  13.969
36264W        W 1249  20.176  12.056   0.130
36265W        W 1250  25.263   1.457  13.721
36266W        W 1251  31.107  41.992  13.103
36267W        W 1252  21.370  20.749   0.310
36268W        W 1253  24.885  28.183   1.443
36269W        W 1254  33.399  40.115  13.421
36270W        W 1255  27.598  13.592  14.711
36271W        W 1256   2.954  42.244  11.687
36272W        W 1257  17.032  19.414  13.002
36273W        W 1258  28.605  39.780   2.306
36274W        W 1259  21.304  29.928  11.093
36275W        W 1260  34.684  15.701   0.287
36276W        W 1261  23.748  25.132  14.822
36277W        W 1262  44.901  30.792   2.546
36278W        W 1263   2.617  38.179   2.490
36279W        W 1264  42.373  18.331  12.191
36280W        W 1265  43.376  22.101  13.442
36281W        W 1266  21.468  22.269   0.988
36282W        W 1267  20.340  25.312   4.053
36283W        W 1268  34.807  20.867  14.413
36284W        W 1269  19.745  30.043  11.097
36285W        W 1270   3.206  39.920  12.962
36286W        W 1271  13.317  25.903  11.453
36287W        W 1272  29.409  14.070  11.737
36288W        W 1273  19.669   0.812  14.088
36289W        W 1274  44.932  33.434   4.583
36290W        W 1275  13.290  12.368  14.393
36291W        W 1276  39.736  26.502  13.956
36292W        W 1277  27.624   3.271   0.896
36293W        W 1278  38.363  10.744   1.240
36294W        W 1279  36.984   1.392   4.592
36295W        W 1280  20.444  42.358  10.798
36296W        W 1281  30.402  15.887  12.817
36297W        W 1282  28.568  42.055   3.528
36298W        W 1283  15.277   1.363  14.573
36299W        W 1284  29.595  10.823  14.936
36300W        W 1285  13.699  37.926  12.998
36301W        W 1286  37.012  36.557   2.827
36302W        W 1287  31.978  30.069   1.435
36303W        W 1288  16.452  17.470  11.949
36304W        W 1289   4.694  40.879  10.414
36305W        W 1290  30.324  15.796  11.729
36306W        W 1291  31.849   6.446   2.145
36307W        W 1292  34.429   7.080   1.260
36308W        W 1293  16.596  21.983   2.871
36309W        W 1294  12.886   6.330  14.433
36310W        W 1295   6.241  11.403  14.483
36311W        W 1296  12.422  17.708   2.361
36312W        W 1297  25.194  26.121  12.463
36313W        W 1298  18.572  41.793   0.735
36314W        W 1299   3.995  31.608   3.328
36315W        W 1300  16.998  20.321  13.295
36316W        W 1301   6.676   7.003  13.884
36317W        W 1302  23.840  16.684   2.383
36318W        W 1303  29.987  17.603   4.417
36319W        W 1304  10.191  38.372  13.549
36320W        W 1305   0.755   9.837   3.655
36321W        W 1306  19.506  44.909  14.460
36322W        W 1307  23.341  30.944   2.370
36323W        W 1308   9.791   7.674   2.378
36324W        W 1309  41.504  42.835  10.896
36325W        W 1310  13.151  13.120  13.862
36326W        W 1311  21.480  24.334   0.902
36327W        W 1312  23.175  19.650  12.848
36328W        W 1313  28.831  22.098   0.852
36329W        W 1314  37.509  43.196   1.729
36330W        W 1315  23.001  29.400   1.379
36331W        W 1316   3.564  38.572   2.248
36332W        W 1317  29.241  39.330  14.307
36333W        W 1318  33.119   2.983  14.314
36334W        W 1319  15.700  32.443   5.230
36335W        W 1320  30.561  35.954   5.055
36336W        W 1321  30.465  25.466  11.781
36337W        W 1322  31.753  15.377  11.481
36338W        W 1323  28.714  40.555  10.609
36339W        W 1324  35.914  10.731  14.880
36340W        W 1325  30.213  15.780   3.285
36341W        W 1326  31.101  41.442  11.478
36342W        W 1327  21.932  39.919  14.479
36343W        W 1328  43.471  10.829   4.617
36344W        W 1329  24.835  34.879   1.381
36345W        W 1330   5.839  23.565   2.339
36346W        W 1331  11.285   5.819   4.055
36347W        W 1332  21.334  12.870  11.866
36348W        W 1333  37.982  34.403   3.169
36349W        W 1334   2.968   3.750   2.309
36350W        W 1335  18.288  20.206   1.978
36351W        W 1336  34.485  10.766   4.529
36352W        W 1337   1.193  27.927  10.732
36353W        W 1338  19.277   0.856   0.183
36354W        W 1339   3.955  25.967  12.726
36355W        W 1340   8.355  21.787  11.297
36356W        W 1341   7.387  29.437   4.535
36357W        W 1342  17.604  18.161   3.700
36358W        W 1343  39.791  33.680   4.161
36359W        W 1344  22.222  40.466  11.039
36360W        W 1345  44.536  25.364  11.169
36361W        W 1346  12.195  13.291  12.333
36362W        W 1347  39.682  42.364   1.723
36363W        W 1348  25.181   5.909  11.850
36364W        W 1349  11.146  41.093  12.981
36365W        W 1350  12.443  10.634  12.427
36366W        W 1351   5.655  28.136   3.762
36367W        W 1352   4.446  41.904  11.399
36368W        W 1353   1.738  20.263   4.620
36369W        W 1354   9.358  24.235  13.378
36370W        W 1355  39.532  13.825  13.417
36371W        W 1356  43.679  12.615  10.884
36372W        W 1357  19.991  16.808   3.690
36373W        W 1358  32.042   4.291   2.411
36374W        W 1359  27.024  41.556   3.265
36375W        W 1360  38.440  31.702  11.932
36376W        W 1361   2.382  29.004   0.081
36377W        W 1362  34.128   4.004  14.945
36378W        W 1363  28.387  27.593   3.600
36379W        W 1364  44.169  32.084   3.783
36380W        W 1365   3.636   8.863  13.487
36381W        W 1366  19.478   3.257   5.082
36382W        W 1367  41.703  22.204   3.729
36383W        W 1368  34.489  23.418   3.165
36384W        W 1369  11.851   8.109   3.237
36385W        W 1370   1.928  15.709   2.859
36386W        W 1371   6.934   2.350  13.605
36387W        W 1372  19.801  32.869  13.347
36388W        W 1373  17.501   1.223   4.734
36389W        W 1374  23.453  40.361   3.599
36390W        W 1375  34.024  10.664  11.365
36391W        W 1376  22.021  30.593   1.466
36392W        W 1377  40.088   2.549   4.615
36393W        W 1378  43.084  41.551  10.289
36394W        W 1379  37.855  16.074   3.667
36395W        W 1380  21.950   9.025  12.127
36396W        W 1381  19.063  10.905   1.680
36397W        W 1382  24.673  16.288  11.036
36398W        W 1383  15.845  16.237   2.361
36399W        W 1384   0.940  22.272   4.252
36400W        W 1385  13.844  37.513   4.133
36401W        W 1386  19.135   6.176  14.037
36402W        W 1387  20.802   3.161   2.334
36403W        W 1388   1.561  25.694  12.525
36404W        W 1389   5.746  11.336   4.234
36405W        W 1390  40.186  12.844   0.974
36406W        W 1391  37.808  35.376   9.684
36407W        W 1392  34.296   1.830  14.319
36408W        W 1393  35.634  16.126   2.935
36409W        W 1394   7.826  22.861   4.676
36410W        W 1395   4.082  32.606   3.204
36411W        W 1396  21.756  14.848   1.834
36412W        W 1397   2.455  32.011  10.782
36413W        W 1398  13.885   9.774   1.348
36414W        W 1399  20.332  14.213  10.327
36415W        W 1400  11.725  43.483   1.214
36416W        W 1401  40.252  33.400   2.186
36417W        W 1402  38.447  13.653   2.031
36418W        W 1403  31.093  31.813   0.438
36419W        W 1404  23.551  24.993  11.948
36420W        W 1405  23.925   7.327  10.464
36421W        W 1406  29.637  31.176   2.235
36422W        W 1407  32.639  32.958   4.223
36423W        W 1408  22.531   8.204   0.782
36424W        W 1409   0.218  13.266   0.363
36425W        W 1410  20.452   2.958  11.510
36426W        W 1411  23.141  30.472  13.461
36427W        W 1412  21.550  39.863   3.540
36428W        W 1413  14.223   4.773   0.424
36429W        W 1414   6.734   9.197  13.213
36430W        W 1415  28.381  33.108   3.146
36431W        W 1416  20.530  35.141   0.580
36432W        W 1417  27.662  39.024   1.449
36433W        W 1418  23.505   6.783   1.180
36434W        W 1419   7.752  35.591  12.334
36435W        W 1420  23.861  28.859  14.449
36436W        W 1421  42.912  25.177  12.390
36437W        W 1422  30.577  16.766  14.222
36438W        W 1423  34.831  38.337   2.706
36439W        W 1424  34.532  17.313  12.378
36440W        W 1425   1.494  25.507   4.256
36441W        W 1426  13.099  30.391   3.745
36442W        W 1427  25.023  42.685   4.359
36443W        W 1428   8.179  17.805   0.423
36444W        W 1429  17.174  42.505  10.683
36445W        W 1430  22.105  33.424   3.813
36446W        W 1431   4.466  40.454  14.914
36447W        W 1432   3.704  35.840   3.709
36448W        W 1433  29.637  13.189  11.558
36449W        W 1434   3.818  32.889   0.946
36450W        W 1435  39.646  19.949   1.295
36451W        W 1436  26.616  24.193   4.941
36452W        W 1437  32.769  25.841  10.705
36453W        W 1438  39.742  16.293   2.978
36454W        W 1439  29.057  18.946  11.599
36455W        W 1440  19.644   7.282   4.345
36456W        W 1441  32.745  17.019  11.182
36457W        W 1442  11.642  26.798  14.398
36458W        W 1443  21.020  12.680  10.896
36459W        W 1444  31.999  41.746  12.570
36460W        W 1445  36.471  15.798  13.425
36461W        W 1446  40.905  24.701   0.472
36462W        W 1447   8.680   9.416   5.166
36463W        W 1448   9.799  40.553   4.480
36464W        W 1449  11.407  10.247  11.537
36465W        W 1450   6.688  11.170  13.547
36466W        W 1451  17.732  37.592   3.754
36467W        W 1452  25.043  16.705  10.582
36468W        W 1453  27.575  18.610   3.386
36469W        W 1454   2.017  40.054   3.249
36470W        W 1455  23.407  43.547  12.059
36471W        W 1456  32.304  40.879  11.632
36472W        W 1457   8.802   1.011  11.999
36473W        W 1458  40.401  36.865   0.862
36474W        W 1459  16.063   8.338  14.604
36475W        W 1460  38.539  31.230  15.000
36476W        W 1461  17.103  39.956  12.124
36477W        W 1462  19.173  31.227  13.503
36478W        W 1463  35.561  26.226  10.707
36479W        W 1464  21.938  42.567   0.834
36480W        W 1465  42.867  11.223  11.575
36481W        W 1466  44.342  15.445   0.775
36482W        W 1467  34.970   4.453   2.154
36483W        W 1468  39.072  25.831  12.240
36484W        W 1469   1.756  40.232   2.786
36485W        W 1470  21.059   1.493  11.150
36486W        W 1471  22.535   5.751  13.600
36487W        W 1472  24.558  43.482  12.845
36488W        W 1473   8.331  31.483   2.886
36489W        W 1474   6.766  39.977  12.924
36490W        W 1475  40.881  37.586  12.343
36491W        W 1476  39.894  43.584   2.123
36492W        W 1477  16.953  42.585   1.794
36493W        W 1478   7.528  25.514  11.651
36494W        W 1479  34.086  12.220  12.889
36495W        W 1480  17.540   9.898   0.431
36496W        W 1481   5.712  13.859  13.422
36497W        W 1482  39.053   3.938  13.674
36498W        W 1483  35.134   6.824  12.336
36499W        W 1484  36.976  37.559   0.301
36500W        W 1485   8.857  10.792  13.943
36501W        W 1486  15.597  13.890   5.027
36502W        W 1487  20.676  16.091   4.428
36503W        W 1488  11.243   3.890   0.954
36504W        W 1489  31.539  12.816  10.643
36505W        W 1490  44.305  32.654  14.464
36506W        W 1491  24.065  20.100   1.220
36507W        W 1492  31.931  31.133   0.984
36508W        W 1493  20.340  40.163  11.952
36509W        W 1494  43.936  40.368   0.523
36510W        W 1495  40.204   0.251  12.042
36511W        W 1496  10.325  13.283   4.316
36512W        W 1497  24.376  10.300   1.514
36513W        W 1498   4.500  27.191  12.857
36514W        W 1499  28.977  41.474  14.295
36515W        W 1500  12.204  21.701   2.158
36516W        W 1501  36.272   9.512  11.139
36517W        W 1502  17.106  13.881  12.977
36518W        W 1503  42.739  10.866   1.330
36519W        W 1504   0.004  19.049  10.451
36520W        W 1505   8.236  33.338  13.376
36521W        W 1506  30.386   5.636   4.121
36522W        W 1507  37.808  27.143  14.303
36523W        W 1508  38.272  44.275   0.030
36524W        W 1509  32.840  33.557  10.625
36525W        W 1510  24.775   6.421   1.126
36526W        W 1511  29.093  21.296  14.579
36527W        W 1512  10.098  30.583  11.868
36528W        W 1513   8.612   4.777  14.252
36529W        W 1514  44.877  33.417   0.929
36530W        W 1515  31.737   0.697   3.282
36531W        W 1516  17.379   0.583  10.203
36532W        W 1517   9.076   7.236   4.145
36533W        W 1518  26.123  30.602   2.665
36534W        W 1519  28.959  23.734  12.522
36535W        W 1520  24.955  32.420  12.382
36536W        W 1521  44.311  41.709   5.273
36537W        W 1522  15.358   2.480   4.909
36538W        W 1523  24.810  44.114   1.313
36539W        W 1524  34.406  39.422  13.890
36540W        W 1525   8.901   5.055  14.568
36541W        W 1526  34.083  15.762  10.424
36542W        W 1527  39.417  33.177  12.067
36543W        W 1528  29.574   4.791   5.065
36544W        W 1529  31.602  44.049  14.471
36545W        W 1530  42.391  32.429   3.747
36546W        W 1531  44.327  44.963  14.854
36547W        W 1532   4.579  13.282  11.417
36548W        W 1533   9.666  16.167   2.402
36549W        W 1534   4.850   6.401   4.650
36550W        W 1535  40.749  16.670  13.369
36551W        W 1536  30.421  34.720  11.000
36552W        W 1537   4.813  32.237  14.491
36553W        W 1538   3.421  11.598   3.729
36554W        W 1539  40.592   6.740  10.403
36555W        W 1540  43.773  15.026   1.730
36556W        W 1541  25.686  14.548   2.400
36557W        W 1542  14.123  22.240   0.923
36558W        W 1543  25.956  15.159  11.615
36559W        W 1544  28.231  37.113   0.371
36560W        W 1545  42.906   7.452   3.742
36561W        W 1546  26.390  15.192   1.090
36562W        W 1547  23.976  44.750   4.015
36563W        W 1548   5.214  15.108  14.136
36564W        W 1549  21.116   7.893   0.902
36565W        W 1550  25.641  19.176   2.199
36566W        W 1551  22.925  11.783  11.952
36567W        W 1552  41.600  22.392  14.054
36568W        W 1553  36.223  28.029  12.066
36569W        W 1554  13.087  18.187   3.283
36570W        W 1555  17.678   4.139  14.499
36571W        W 1556  39.360  37.065  14.293
36572W        W 1557  27.430  37.864   3.139
36573W        W 1558  10.946   9.188   1.251
36574W        W 1559  20.490   7.912   1.240
36575W        W 1560  43.945   5.981  12.001
36576W        W 1561  38.902  29.023   0.654
36577W        W 1562  21.425  28.475   4.593
36578W        W 1563  36.177  16.600   4.599
36579W        W 1564  24.119  14.255  14.319
36580W        W 1565  11.422   0.693  14.496
36581W        W 1566  11.051   0.227   3.705
36582W        W 1567  21.218  33.011  14.815
36583W        W 1568  24.123   5.434  11.617
36584W        W 1569  19.279  39.771  11.025
36585W        W 1570  32.072  33.002   2.692
36586W        W 1571  33.693  34.761  10.403
36587W        W 1572  31.556  44.720  13.026
36588W        W 1573   6.373  23.259  12.901
36589W        W 1574  10.144  14.712   3.290
36590W        W 1575  33.146   3.893  11.648
36591W        W 1576   3.034  17.865   4.879
36592W        W 1577   5.672  26.569  12.514
36593W        W 1578  28.952  12.830   4.099
36594W        W 1579  31.012  24.212   2.402
36595W        W 1580  15.472  30.427  10.707
36596W        W 1581  37.561  22.253   2.255
36597W        W 1582  42.947  28.482   1.014
36598W        W 1583  39.422  40.448  12.487
36599W        W 1584  19.000  31.767   4.126
36600W        W 1585  10.109  44.775   5.033
36601W        W 1586  40.327  22.570   4.789
36602W        W 1587   4.404   5.284  12.377
36603W        W 1588   8.150  24.658   1.676
36604W        W 1589  38.502   0.393   3.177
36605W        W 1590  10.870  25.817   0.849
36606W        W 1591  20.024  25.553  14.649
36607W        W 1592  44.205   9.063   1.780
36608W        W 1593   1.022  38.741   4.152
36609W        W 1594   0.123   5.115   2.735
36610W        W 1595  23.163  20.266   5.321
36611W        W 1596  22.161  10.694   4.543
36612W        W 1597  36.966  32.060  12.958
36613W        W 1598  13.666  24.775   0.582
36614W        W 1599  17.651  31.621  12.214
36615W        W 1600  41.904  33.414   1.270
36616W        W 1601   7.221  33.163   0.569
36617W        W 1602   8.905  19.076  12.211
36618W        W 1603  19.239  33.367  11.118
36619W        W 1604  23.193   6.002   4.606
36620W        W 1605  23.036  43.810  14.749
36621W        W 1606   6.450   9.686  10.744
36622W        W 1607  31.037  27.205   0.925
36623W        W 1608  37.137   0.879  12.785
36624W        W 1609  33.349  17.577  12.601
36625W        W 1610   7.629  11.087  13.398
36626W        W 1611   4.907  34.830  13.360
36627W        W 1612  17.829  32.100   3.820
36628W        W 1613  40.818  14.261   3.365
36629W        W 1614   8.420  35.134  12.857
36630W        W 1615  22.839  14.110  11.193
36631W        W 1616  28.625  24.259   4.087
36632W        W 1617   5.885  20.638  12.380
36633W        W 1618  38.733  33.369  12.557
36634W        W 1619  27.732  37.142   0.248
36635W        W 1620  24.914  23.197  11.673
36636W        W 1621   1.402   9.104  13.151
36637W        W 1622  31.863   4.352  10.674
36638W        W 1623  15.175   1.810  12.321
36639W        W 1624  40.382  19.862  11.472
36640W        W 1625  26.894  31.188  12.536
36641W        W 1626  32.326  40.361  13.405
36642W        W 1627  29.564  24.639   1.851
36643W        W 1628  39.718  23.059   9.876
36644W        W 1629   2.273   7.575  11.187
36645W        W 1630  25.277   7.842   0.858
36646W        W 1631  18.404  25.615   3.419
36647W        W 1632   0.939  14.466   4.528
36648W        W 1633  14.536   8.623  12.129
36649W        W 1634  43.567  19.792  12.038
36650W        W 1635  19.558  31.605   2.885
36651W        W 1636  20.599  20.075  12.177
36652W        W 1637  11.559   0.712   3.136
36653W        W 1638  28.459  40.928   4.168
36654W        W 1639  28.533  10.878  14.305
36655W        W 1640  10.313  34.961   0.408
36656W        W 1641  14.623  39.779  12.316
36657W        W 1642  18.585  11.715  12.475
36658W        W 1643  27.319  27.702   2.075
36659W        W 1644  18.595   6.507  13.827
36660W        W 1645  39.745  11.153  13.594
36661W        W 1646  41.707  36.109  14.386
36662W        W 1647  14.577  35.078   1.155
36663W        W 1648  29.664  19.534  12.216
36664W        W 1649   8.976  12.194  10.642
36665W        W 1650  40.278  15.810   3.473
36666W        W 1651  35.918  30.262  12.365
36667W        W 1652  29.057  34.385   4.377
36668W        W 1653  41.246  37.594  12.691
36669W        W 1654  36.081  16.304   1.018
36670W        W 1655  40.027  19.776   2.100
36671W        W 1656   6.966   4.546  14.417
36672W        W 1657  34.515   4.761   3.382
36673W        W 1658  33.646   1.238   3.728
36674W        W 1659   7.219  43.913   3.366
36675W        W 1660  24.831  10.218   4.803
36676W        W 1661  11.851  27.761   3.230
36677W        W 1662  10.332   3.889  14.519
36678W        W 1663  28.543  26.087  13.760
36679W        W 1664  32.627  21.765  13.484
36680W        W 1665  29.621  39.157   3.042
36681W        W 1666  40.549  41.558  14.871
36682W        W 1667  23.461   4.605  13.411
36683W        W 1668  37.393   6.225   0.820
36684W        W 1669   1.965   3.451   4.804
36685W        W 1670  40.833  22.354  10.400
36686W        W 1671  14.242  34.790  12.013
36687W        W 1672   7.860  30.734  12.840
36688W        W 1673  23.640  12.126   0.544
36689W        W 1674  13.931  15.377  10.575
36690W        W 1675  18.576  10.468   4.989
36691W        W 1676  13.091  31.192   9.698
36692W        W 1677   6.795  11.618   3.609
36693W        W 1678  43.925  27.437   1.173
36694W        W 1679  25.608  38.734  10.162
36695W        W 1680  35.822  21.476  13.850
36696W        W 1681  11.824  35.882  12.570
36697W        W 1682  25.715  22.640   2.194
36698W        W 1683   7.426   2.452   0.347
36699W        W 1684   7.622   1.008   2.957
36700W        W 1685  23.648  18.262   4.251
36701W        W 1686  38.103   6.157   0.270
36702W        W 1687  26.803  15.440   0.931
36703W        W 1688  35.386   7.460   3.707
36704W        W 1689  11.670  27.599   1.376
36705W        W 1690  24.993   7.088   4.552
36706W        W 1691  38.800  28.912  13.828
36707W        W 1692  18.276  14.019  13.309
36708W        W 1693  15.068  23.142   0.741
36709W        W 1694   0.902   4.821   1.543
36710W        W 1695  21.094   8.838   3.641
36711W        W 1696  42.854  19.175   3.326
36712W        W 1697  11.753   9.216   2.778
36713W        W 1698  19.119  38.973   1.179
36714W        W 1699  39.988  22.681   1.545
36715W        W 1700  29.577  10.903  10.314
36716W        W 1701  14.741  24.317   1.332
36717W        W 1702  14.637   7.723   2.356
36718W        W 1703   0.005  35.503   2.440
36719W        W 1704  33.049  20.282  11.228
36720W        W 1705  32.720  14.330   0.288
36721W        W 1706  15.784  32.495  14.452
36722W        W 1707   2.623  27.722  14.734
36723W        W 1708   2.498  42.728   3.801
36724W        W 1709  21.409   0.821  13.240
36725W        W 1710  36.098  20.005   0.993
36726W        W 1711  43.526   4.673  11.542
36727W        W 1712  32.198  27.750   2.541
36728W        W 1713  36.054  35.437  11.984
36729W        W 1714  42.430  28.370  11.632
36730W        W 1715  17.569   3.324  10.731
36731W        W 1716   5.355  21.088  13.071
36732W        W 1717  38.507  29.841   3.253
36733W        W 1718   0.173   6.719  14.582
36734W        W 1719   0.139  10.948  13.979
36735W        W 1720  17.963  30.887   1.386
36736W        W 1721  21.448  18.430   0.744
36737W        W 1722  38.904  21.227  14.494
36738W        W 1723  12.758   0.050   4.291
36739W        W 1724  23.609   6.460   3.788
36740W        W 1725  20.624  14.918  14.782
36741W        W 1726  28.382  23.611   4.565
36742W        W 1727  10.312   3.372  14.409
36743W        W 1728   9.732  16.208  11.159
36744W        W 1729  27.575  20.388  12.397
36745W        W 1730  35.716  11.241   1.905
36746W        W 1731  14.637  18.828   0.289
36747W        W 1732  29.390  27.466   1.720
36748W        W 1733  32.179  29.553   1.310
36749W        W 1734  34.946  34.543   4.244
36750W        W 1735  22.405  26.318   5.024
36751W        W 1736  39.664   1.436  11.136
36752W        W 1737  20.318  32.723  12.387
36753W        W 1738  27.927  41.961   0.449
36754W        W 1739   2.992  14.061  14.815
36755W        W 1740   1.085  19.753   0.838
36756W        W 1741  11.410   0.938   2.692
36757W        W 1742  28.218  24.063   4.323
36758W        W 1743  26.445  43.294   0.471
36759W        W 1744   7.818  20.827  12.464
36760W        W 1745  18.055  25.001  12.120
36761W        W 1746   7.312  18.153   3.356
36762W        W 1747  22.011   8.273  13.909
36763W        W 1748  26.567  13.864   4.229
36764W        W 1749  21.954   8.751  11.387
36765W        W 1750   9.207  14.835  11.497
36766W        W 1751  42.889  30.172   3.632
36767W        W 1752   6.729  42.732   4.615
36768W        W 1753  42.036  29.096  12.159
36769W        W 1754  14.793  44.000   0.512
36770W        W 1755   6.418  44.195  13.245
36771W        W 1756  40.793   0.498   3.640
36772W        W 1757  40.098  33.055  14.997
36773W        W 1758   1.034  27.982   2.184
36774W        W 1759   4.367  23.290  14.105
36775W        W 1760  14.151   7.334  14.046
36776W        W 1761  20.182  32.600   2.884
36777W        W 1762  15.491  41.434  14.016
36778W        W 1763   5.789  38.480  12.543
36779W        W 1764  29.027  15.260   1.525
36780W        W 1765  30.027   0.434   2.310
36781W        W 1766  17.141   9.437   2.808
36782W        W 1767  32.955   7.882  13.981
36783W        W 1768   0.670   7.943   1.861
36784W        W 1769  19.513  25.750   2.451
36785W        W 1770  39.354  20.561  12.337
36786W        W 1771  10.506  39.678  14.361
36787W        W 1772  26.127   0.595  12.913
36788W        W 1773  19.371  19.789   1.394
36789W        W 1774  29.374   4.039  12.664
36790W        W 1775  24.483  35.288  11.414
36791W        W 1776  20.763  10.288   2.014
36792W        W 1777  40.856  31.535  11.947
36793W        W 1778   9.075  10.484   4.272
36794W        W 1779   8.448  34.171  13.504
36795W        W 1780  39.903  34.082  12.406
36796W        W 1781  40.171  22.618   3.759
36797W        W 1782  39.589  26.155   1.915
36798W        W 1783  42.270  44.742   3.336
36799W        W 1784  27.153  29.666   1.215
36800W        W 1785  25.589  35.315  12.297
36801W        W 1786   5.183  10.400  10.664
36802W        W 1787  15.708  33.203   3.341
36803W        W 1788  35.486  27.370   3.539
36804W        W 1789  19.244  40.926  13.984
36805W        W 1790   8.269  42.246  10.748
36806W        W 1791  12.281  41.826  11.125
36807W        W 1792  22.091  23.252   1.798
36808W        W 1793  19.017   5.598  12.588
36809W        W 1794   5.247  16.169  11.421
36810W        W 1795  29.911  21.893  10.705
36811W        W 1796  32.696   1.054  14.368
36812W        W 1797  32.471   6.757   0.599
36813W        W 1798  33.437  43.599  11.143
36814W        W 1799  15.149   1.711   3.216
36815W        W 1800   7.854  42.303  10.456
36816W        W 1801  31.283  23.083   4.840
36817W        W 1802   9.976  43.735  13.438
36818W        W 1803  44.380  17.466   0.682
36819W        W 1804  22.039  32.129   4.235
36820W        W 1805  15.761  17.004   1.336
36821W        W 1806  31.327   8.612  14.496
36822W        W 1807  32.885  19.700   0.265
36823W        W 1808   6.648   4.928   0.435
36824W        W 1809  39.899  25.678  14.947
36825W        W 1810   8.444  21.423  10.728
36826W        W 1811  32.038  13.131  13.620
36827W        W 1812  24.264   6.982   1.840
36828W        W 1813  20.833  39.309   3.857
36829W        W 1814   9.489  23.990  11.105
36830W        W 1815  24.131   2.233   1.475
36831W        W 1816  32.302   5.050   2.852
36832W        W 1817  40.986   6.948  11.078
36833W        W 1818  14.754  17.995   0.454
36834W        W 1819  12.776  31.631   2.245
36835W        W 1820   9.013  21.335  12.572
36836W        W 1821   7.844  12.190   0.861
36837W        W 1822  18.967  41.489   2.981
36838W        W 1823   4.281  35.631  14.040
36839W        W 1824  44.599  34.632   3.230
36840W        W 1825  21.533  40.999  12.470
36841W        W 1826  18.872  39.296   0.256
36842W        W 1827   0.502  37.348  11.913
36843W        W 1828  18.610  18.639  12.023
36844W        W 1829  43.070   8.756  11.215
36845W        W 1830  35.465  24.949   4.057
36846W        W 1831   3.877   6.859  10.551
36847W        W 1832  17.249  44.299   1.208
36848W        W 1833   5.992  14.936   1.758
36849W        W 1834  41.248  12.421  14.393
36850W        W 1835  26.672  10.292   4.545
36851W        W 1836  32.776  10.040   3.608
36852W        W 1837  29.524  21.251  14.854
36853W        W 1838  19.041  34.725  12.433
36854W        W 1839  12.290   9.312  13.611
36855W        W 1840  40.932  21.243   4.064
36856W        W 1841  12.386  23.806   4.090
36857W        W 1842  24.461  43.095   2.206
36858W        W 1843  20.139   3.897  14.738
36859W        W 1844  11.728  31.023   1.463
36860W        W 1845  22.622  41.784   4.942
36861W        W 1846   9.246  23.186   1.797
36862W        W 1847  17.727  10.397  10.113
36863W        W 1848  14.890  16.139  12.428
36864W        W 1849  30.156  32.331  13.930
36865W        W 1850   8.034  12.617  13.908
36866W        W 1851  23.656  16.613  12.389
36867W        W 1852   2.727  17.565  12.894
36868W        W 1853  14.626  17.154  14.974
36869W        W 1854  17.130  21.620  14.746
36870W        W 1855  39.127  18.045  13.496
36871W        W 1856  31.096  42.749  12.627
36872W        W 1857   6.229  16.837   2.079
36873W        W 1858  19.637  10.906  12.943
36874W        W 1859  39.835  38.873   3.409
36875W        W 1860   0.702  26.678  12.741
36876W        W 1861  16.390   8.482  11.605
36877W        W 1862  38.661  42.687  11.615
36878W        W 1863  20.124  30.111   0.039
36879W        W 1864  18.958  30.157  10.681
36880W        W 1865  14.111  36.905  13.025
36881W        W 1866  24.530  25.475  13.222
36882W        W 1867  29.661  21.918   2.767
36883W        W 1868  37.552  15.707   1.713
36884W        W 1869  22.464  32.436  11.882
36885W        W 1870   6.286  16.410  12.197
36886W        W 1871  29.816   0.778  13.018
36887W        W 1872  15.863  38.783  10.352
36888W        W 1873   4.253  33.875  10.671
36889W        W 1874  44.955   1.729   2.487
36890W        W 1875  26.198  33.628   5.446
36891W        W 1876  24.310   9.429  12.520
36892W        W 1877   3.435  18.145   1.684
36893W        W 1878  17.542  23.484   3.908
36894W        W 1879  11.280  31.591  10.249
36895W        W 1880  39.611  23.237  12.994
36896W        W 1881  32.894   3.313   1.824
36897W        W 1882   7.473  25.644   1.699
36898W        W 1883   8.661  40.791   0.512
36899W        W 1884  40.257  15.949   3.985
36900W        W 1885  15.227   5.129  13.850
36901W        W 1886  34.721   0.240   1.073
36902W        W 1887  40.448  26.221   0.484
36903W        W 1888  38.911  32.152  14.986
36904W        W 1889  12.117  32.183  11.712
36905W        W 1890  34.331   2.399   3.256
36906W        W 1891  18.598  42.461   2.929
36907W        W 1892  16.698   9.724   0.845
36908W        W 1893  12.832  21.689  13.495
36909W        W 1894  42.763  39.009  13.298
36910W        W 1895  31.343  43.806  13.819
36911W        W 1896   7.621   2.528   2.497
36912W        W 1897  16.339  21.229  11.985
36913W        W 1898   2.880  24.472  11.877
36914W        W 1899  16.465  32.488   3.788
36915W        W 1900  39.549   2.972  13.075
36916W        W 1901  37.401  29.171  11.425
36917W        W 1902  39.798  24.035   2.191
36918W        W 1903  37.368  30.986   2.616
36919W        W 1904  44.675  22.887  10.112
36920W        W 1905  12.353  43.718  14.467
36921W        W 1906  34.108   5.252  11.637
36922W        W 1907  26.047  10.178  10.666
36923W        W 1908  18.426  32.236   0.721
36924W        W 1909   6.979  41.616   4.145
36925W        W 1910  27.816  36.794  11.123
36926W        W 1911  43.379   2.301  12.584
36927W        W 1912   9.280   4.752   4.163
36928W        W 1913  20.226   6.610  13.801
36929W        W 1914  17.130   2.388   4.242
36930W        W 1915  34.023  32.845   4.670
36931W        W 1916  37.362   8.774   1.906
36932W        W 1917  24.502  41.344   1.756
36933W        W 1918  42.719   6.391  11.335
36934W        W 1919  12.702  27.379   4.424
36935W        W 1920  10.214  32.017  11.391
36936W        W 1921  33.407  37.885  14.291
36937W        W 1922  13.966  22.053  13.665
36938W        W 1923  12.545  21.048   0.364
36939W        W 1924  29.052  15.003  11.398
36940W        W 1925  20.768  37.517  14.285
36941W        W 1926  26.025  25.626   2.972
36942W        W 1927  12.106  44.065   1.866
36943W        W 1928  21.819  21.036   0.914
36944W        W 1929  44.794   4.858   4.333
36945W        W 1930  19.110  39.919  10.532
36946W        W 1931  34.411  11.843  10.696
36947W        W 1932  17.070  22.019   1.420
36948W        W 1933  19.097  33.664   4.671
36949W        W 1934  23.094  29.592  14.869
36950W        W 1935  13.826   0.526   4.190
36951W        W 1936   0.041  10.471  11.231
36952W        W 1937   8.066  16.166  10.910
36953W        W 1938  34.088   8.106  10.712
36954W        W 1939  16.717  42.036   4.083
36955W        W 1940  41.040  15.242  11.167
36956W        W 1941  13.610   4.746  14.330
36957W        W 1942   0.410  19.810   2.935
36958W        W 1943   2.407  39.321   4.108
36959W        W 1944   4.438  13.267  13.654
36960W        W 1945  33.417   0.814   0.997
36961W        W 1946   0.993  36.138   0.044
36962W        W 1947  19.157  17.614  14.595
36963W        W 1948  16.071  14.388   1.463
36964W        W 1949   8.348  28.744   1.429
36965W        W 1950  14.009  35.326   3.798
36966W        W 1951  10.445  39.849   9.979
36967W        W 1952  34.345   0.466  11.513
36968W        W 1953  35.872  34.213  14.759
36969W        W 1954  32.599  13.828   1.396
36970W        W 1955  34.109  12.442   2.851
36971W        W 1956  30.043  15.282  14.305
36972W        W 1957  41.999  29.663   4.981
36973W        W 1958   4.002  43.082   0.423
36974W        W 1959  21.425  15.766   3.399
36975W        W 1960  44.413  24.881   5.676
36976W        W 1961   8.244  44.376   3.084
36977W        W 1962  32.013  43.071   3.771
36978W        W 1963  15.540   0.599  11.526
36979W        W 1964   4.603  39.976  14.261
36980W        W 1965  31.917  40.983   0.873
36981W        W 1966  41.609  41.957   1.377
36982W        W 1967  30.029  10.157  12.560
36983W        W 1968  17.357  14.869   3.694
36984W        W 1969  17.012   6.018   2.735
36985W        W 1970  37.834  37.936   0.316
36986W        W 1971  17.784  35.293   4.160
36987W        W 1972  20.697  29.160  10.653
36988W        W 1973  22.102  33.467   1.423
36989W        W 1974  14.266  10.433  10.770
36990W        W 1975  30.504   1.500   4.202
36991W        W 1976  21.298  30.873  12.994
36992W        W 1977  32.662  17.744  10.712
36993W        W 1978  15.465   9.413  12.456
36994W        W 1979  32.363  36.378   2.754
36995W        W 1980  12.623  39.931   0.484
36996W        W 1981  10.558   6.725   3.680
36997W        W 1982   9.916  35.784  11.252
36998W        W 1983  27.480  37.408   1.379
36999W        W 1984  35.807   8.886   2.360
37000W        W 1985  21.150  41.833   0.221
37001W        W 1986   9.330   5.148   3.818
37002W        W 1987  12.532  38.490   0.086
37003W        W 1988  23.766  39.851  13.783
37004W        W 1989  40.925  28.308   1.890
37005W        W 1990   0.260  44.273   1.319
37006W        W 1991  37.590  15.134  13.065
37007W        W 1992  34.447   3.401   3.598
37008W        W 1993   6.945  40.271   1.712
37009W        W 1994  42.406   5.062  13.771
37010W        W 1995  32.990  24.939  12.417
37011W        W 1996  16.770   5.725  14.873
37012W        W 1997  41.895  24.020   1.599
37013W        W 1998   8.050  24.461   2.842
37014W        W 1999   8.146  37.487  14.062
37015W        W 2000  21.486   9.639   4.103
37016W        W 2001   2.424  37.691   2.538
37017W        W 2002  30.096  28.963   0.571
37018W        W 2003  36.455  35.784  14.299
37019W        W 2004  20.271  17.753  12.473
37020W        W 2005  42.431  13.858  10.176
37021W        W 2006   0.831   5.352   1.351
37022W        W 2007  44.475  40.965   2.047
37023W        W 2008  29.327  20.229  13.852
37024W        W 2009  14.775   9.349   5.029
37025W        W 2010  33.104  35.174   3.218
37026W        W 2011  37.063  20.076  11.599
37027W        W 2012  37.794  29.521   3.613
37028W        W 2013  37.408   0.979  11.557
37029W        W 2014  26.020  20.320  14.509
37030W        W 2015   6.911  14.791  11.163
37031W        W 2016  22.570  27.540   3.241
37032W        W 2017  17.421  10.780  14.414
37033W        W 2018  38.495  40.912   3.524
37034W        W 2019  29.122  35.010  12.856
37035W        W 2020   9.148  44.986   2.281
37036W        W 2021   6.889  26.969   0.820
37037W        W 2022  32.492   9.467   1.153
37038W        W 2023   6.248   9.555   0.767
37039W        W 2024  36.097  34.469   1.385
37040W        W 2025  34.319  17.400  10.997
37041W        W 2026  24.013  27.116   1.666
37042W        W 2027  18.352  16.065  12.609
37043W        W 2028  27.672   8.824  14.260
37044W        W 2029  41.559   2.543   0.722
37045W        W 2030  12.818  40.568  13.353
37046W        W 2031  44.859   8.650  10.717
37047W        W 2032  40.943  16.738  12.039
37048W        W 2033  33.983  21.101   1.657
37049W        W 2034   3.289  35.800  13.011
37050W        W 2035  31.190  24.951   1.139
37051W        W 2036  30.635  28.523   2.391
37052W        W 2037   2.517  27.248  12.894
37053W        W 2038  43.842  36.130   9.978
37054W        W 2039  22.744  37.922  11.581
37055W        W 2040  24.199  26.629  11.671
37056W        W 2041  41.447   5.622   0.758
37057W        W 2042  31.544  27.325   1.819
37058W        W 2043  19.618  16.544   0.019
37059W        W 2044   8.289  19.316  12.991
37060W        W 2045   8.353   8.682   5.570
37061W        W 2046   7.661  18.256  11.630
37062W        W 2047  26.065  20.268   1.979
37063W        W 2048  18.705  37.072   2.782
37064W        W 2049  32.377   7.610   1.177
37065W        W 2050  15.534   3.313  10.428
37066W        W 2051   9.252   9.284  14.541
37067W        W 2052   3.920   5.840   0.530
37068W        W 2053  43.935  42.727  14.472
37069W        W 2054  14.877  15.590   4.103
37070W        W 2055   2.684   2.440  14.538
37071W        W 2056  37.032  16.408   1.594
37072W        W 2057  30.043  36.354  12.923
37073W        W 2058  22.098  15.360  14.318
37074W        W 2059  18.716  37.556  13.312
37075W        W 2060  14.703  22.670  14.762
37076W        W 2061  33.096  28.866  12.039
37077W        W 2062  26.534  35.777   1.701
37078W        W 2063  38.165   1.571   1.417
37079W        W 2064  13.635  11.683   4.482
37080W        W 2065   4.352  30.656  13.290
37081W        W 2066  10.822  23.430   2.204
37082W        W 2067  24.930  28.727   1.405
37083W        W 2068   5.947   6.465   0.828
37084W        W 2069  19.495  44.547  10.631
37085W        W 2070  11.058  35.872  13.614
37086W        W 2071  14.850   8.158  12.949
37087W        W 2072  30.582   7.876  10.740
37088W        W 2073  24.781  39.907  13.947
37089W        W 2074  33.874  25.104  13.989
37090W        W 2075  14.395  19.702   4.716
37091W        W 2076  39.876  12.617  11.592
37092W        W 2077   5.068  39.900  14.488
37093W        W 2078  38.450  34.571   3.941
37094W        W 2079  38.184  34.548   0.804
37095W        W 2080  10.126  28.541  14.945
37096W        W 2081  14.907   3.017  12.380
37097W        W 2082  32.701  15.333  11.785
37098W        W 2083  23.776   3.713  13.985
37099W        W 2084  41.012  41.446   0.240
37100W        W 2085  14.213  27.885   2.764
37101W        W 2086  42.059   3.252   0.616
37102W        W 2087  15.799  31.994  12.356
37103W        W 2088  24.064  43.792   4.893
37104W        W 2089  16.567   8.909   2.174
37105W        W 2090   6.681  27.223  13.404
37106W        W 2091   7.283  24.768   2.249
37107W        W 2092  43.631   3.496  12.028
37108W        W 2093  13.150   7.841   2.862
37109W        W 2094  44.351  32.550   3.676
37110W        W 2095  44.616   6.835  10.153
37111W        W 2096   1.025  24.194  14.095
37112W        W 2097  34.042   5.334   2.884
37113W        W 2098  30.901  19.518   0.265
37114W        W 2099  16.437  33.096  14.409
37115W        W 2100   5.858   6.205  13.053
37116W        W 2101  20.519  12.239  13.456
37117W        W 2102  18.501  17.518  13.822
37118W        W 2103  36.130  29.083  11.189
37119W        W 2104  27.712  42.851   2.799
37120W        W 2105  21.741   9.140   4.102
37121W        W 2106  34.878  41.622  12.469
37122W        W 2107   2.653  21.114  11.522
37123W        W 2108  22.015  23.080   0.802
37124W        W 2109   0.715  24.719  14.074
37125W        W 2110  12.380  34.143  13.511
37126W        W 2111  36.876  25.399   4.804
37127W        W 2112  30.579  26.620   0.814
37128W        W 2113  19.213  27.138  11.176
37129W        W 2114  17.573  11.615  12.783
37130W        W 2115  28.804  27.670  11.393
37131W        W 2116  33.441  35.907   4.089
37132W        W 2117  38.120  15.137   3.672
37133W        W 2118  38.915  40.519   4.067
37134W        W 2119  19.575  16.969   0.943
37135W        W 2120  32.982  17.637   3.160
37136W        W 2121  33.457  23.049  11.230
37137W        W 2122   3.996  33.913  14.552
37138W        W 2123  11.809  19.198  12.050
37139W        W 2124  29.337   6.910   2.341
37140W        W 2125  41.753  43.400   4.100
37141W        W 2126  32.678  28.988  12.974
37142W        W 2127   0.361   5.941   2.235
37143W        W 2128  32.493   9.347   3.135
37144W        W 2129   8.861  30.209   2.231
37145W        W 2130  26.237  18.224   1.920
37146W        W 2131  23.607  22.053  11.406
37147W        W 2132  34.636  26.194   1.860
37148W        W 2133   0.737  33.162   3.314
37149W        W 2134  43.264  33.866   1.476
37150W        W 2135  14.814   2.373   4.148
37151W        W 2136  37.324   9.090  13.037
37152W        W 2137  20.665   9.880  11.146
37153W        W 2138  19.715  39.099  13.159
37154W        W 2139  12.757  21.098   2.102
37155W        W 2140  40.958   6.704   2.961
37156W        W 2141  36.886   4.297  10.710
37157W        W 2142  20.770   1.850   0.389
37158W        W 2143   1.531  22.662  11.013
37159W        W 2144   2.332  19.981  13.041
37160W        W 2145  21.696  27.605   3.021
37161W        W 2146  15.060  20.174  14.687
37162W        W 2147  11.249  25.048  14.382
37163W        W 2148   3.750  36.734   1.820
37164W        W 2149  36.076  11.806   3.688
37165W        W 2150  16.865  19.044  14.843
37166W        W 2151  42.530  26.736   0.755
37167W        W 2152  21.788  35.395  10.338
37168W        W 2153   0.329  14.188   1.917
37169W        W 2154  14.364   9.643  12.938
37170W        W 2155   9.682   5.191  11.667
37171W        W 2156  35.139   7.178   4.171
37172W        W 2157   8.875  15.241   0.253
37173W        W 2158  13.374  10.214   0.292
37174W        W 2159  14.373  41.452   3.943
37175W        W 2160  11.089  33.131   3.704
37176W        W 2161   9.812  20.458  14.540
37177W        W 2162  43.004  30.777   1.971
37178W        W 2163  31.301   9.215   4.948
37179W        W 2164  39.329  32.055   4.124
37180W        W 2165  32.508   2.774   4.627
37181W        W 2166  22.942  28.601   0.284
37182W        W 2167   9.654  11.712  13.354
37183W        W 2168  41.117  32.258  11.743
37184W        W 2169   5.777  19.248  12.966
37185W        W 2170  28.003  29.928   1.927
37186W        W 2171  28.921   7.751   1.886
37187W        W 2172  11.199  16.670   0.218
37188W        W 2173  40.395  17.899  11.662
37189W        W 2174  33.702  26.483   0.885
37190W        W 2175  30.607  42.844  13.804
37191W        W 2176   8.133  16.818   1.114
37192W        W 2177  36.048  17.253   1.373
37193W        W 2178  43.148  16.230  11.479
37194W        W 2179   9.144   0.565   9.955
37195W        W 2180  24.024   5.694   1.205
37196W        W 2181  35.802  43.165  11.660
37197W        W 2182  19.335   3.833   2.858
37198W        W 2183  17.332  19.058  12.545
37199W        W 2184  29.945  31.469  14.739
37200W        W 2185  30.476   2.954  12.826
37201W        W 2186  22.472  35.467   1.297
37202W        W 2187   4.296  22.522  13.595
37203W        W 2188  12.567  19.153   4.433
37204W        W 2189  16.605  31.618   2.657
37205W        W 2190  33.543  23.000  11.762
37206W        W 2191  43.804  19.680  13.313
37207W        W 2192   6.443  23.686  11.628
37208W        W 2193  14.173   9.401   1.609
37209W        W 2194  14.880  38.801   3.431
37210W        W 2195  42.392  27.858  11.616
37211W        W 2196  25.533  30.889   0.963
37212W        W 2197  18.556  17.095  10.714
37213W        W 2198  10.564  18.598  14.995
37214W        W 2199   7.402   9.738  11.002
37215W        W 2200  24.134  29.955   3.285
37216W        W 2201  29.045  43.510  10.584
37217W        W 2202  13.023  32.414   4.449
37218W        W 2203  44.951  23.568  14.298
37219W        W 2204  31.441  11.189   1.951
37220W        W 2205  19.239  42.414  13.800
37221W        W 2206  39.941  27.478  13.833
37222W        W 2207   5.290  30.164  14.570
37223W        W 2208  21.627  41.810  14.954
37224W        W 2209  40.628  42.060  14.780
37225W        W 2210  21.726   6.959   3.399
37226W        W 2211  11.554   2.912   0.698
37227W        W 2212  26.379  41.308  13.585
37228W        W 2213  18.557  11.231   3.719
37229W        W 2214  24.998  42.291   2.417
37230W        W 2215   8.716   3.222   3.839
37231W        W 2216   9.159  21.416  11.417
37232W        W 2217  26.452  17.717  13.875
37233W        W 2218   5.773  43.082  14.486
37234W        W 2219   6.380   4.700  13.644
37235W        W 2220  15.692  37.995  11.582
37236W        W 2221  34.189  34.625  11.193
37237W        W 2222  42.517  12.481  12.163
37238W        W 2223  27.315  21.260  10.748
37239W        W 2224  27.378   1.456  11.984
37240W        W 2225  43.072  26.636   4.114
37241W        W 2226  40.170  11.393  10.472
37242W        W 2227   7.857  13.806  10.687
37243W        W 2228  42.602   3.273  12.066
37244W        W 2229  34.115  36.496   3.602
37245W        W 2230   8.309  43.325  14.152
37246W        W 2231  12.699  25.014   3.564
37247W        W 2232   8.130   0.172  11.145
37248W        W 2233  38.886   5.886   1.033
37249W        W 2234   5.791  42.319  14.332
37250W        W 2235  34.653   5.459  14.300
37251W        W 2236   3.582  14.276   9.893
37252W        W 2237   3.435  41.457  11.929
37253W        W 2238   2.460  35.551   0.813
37254W        W 2239  16.217  11.880   3.166
37255W        W 2240  24.538   1.012  11.514
37256W        W 2241  25.693  10.374   2.591
37257W        W 2242  18.200  29.984  14.915
37258W        W 2243   5.525  25.155   3.429
37259W        W 2244  28.604  24.693   0.724
37260W        W 2245  38.334  36.059  11.214
37261W        W 2246  24.317   4.439  10.484
37262W        W 2247  16.588  28.549   0.914
37263W        W 2248  35.271  31.449  13.002
37264W        W 2249  21.017  34.257  12.339
37265W        W 2250  13.686  26.426   1.125
37266W        W 2251   7.265   0.702   0.885
37267W        W 2252  24.558  21.302  12.494
37268W        W 2253  25.142  27.943  10.729
37269W        W 2254  34.203   8.661   3.257
37270W        W 2255  41.017  44.334  11.649
37271W        W 2256  29.051  31.555  12.179
37272W        W 2257  36.817  27.630  11.084
37273W        W 2258   3.543  15.677  11.381
37274W        W 2259  30.408  43.776  10.634
37275W        W 2260  33.676  40.888  14.798
37276W        W 2261  23.252   8.100  11.608
37277W        W 2262  37.054  19.255  11.603
37278W        W 2263   1.250  42.946   2.315
37279W        W 2264  20.527  26.741  12.308
37280W        W 2265  22.408  36.017   3.196
37281W        W 2266  22.979  28.716  13.768
37282W        W 2267  25.967  34.396  13.998
37283W        W 2268  18.993  28.905   1.893
37284W        W 2269  36.488   8.820  14.941
37285W        W 2270  27.304  23.349   1.411
37286W        W 2271   7.654  17.763   0.388
37287W        W 2272  12.257  22.982   4.635
37288W        W 2273   5.757  34.491   1.456
37289W        W 2274   7.231   7.794   0.528
37290W        W 2275  21.731  19.723   3.363
37291W        W 2276  15.293  22.208  13.427
37292W        W 2277  30.458  39.801   4.220
37293W        W 2278  10.127  10.679   4.065
37294W        W 2279  29.632   4.701   4.518
37295W        W 2280  18.584  26.386   0.792
37296W        W 2281  36.985  41.026   4.599
37297W        W 2282  42.519   5.689  14.495
37298W        W 2283   6.149  13.151  13.918
37299W        W 2284  25.659  29.505  11.545
37300W        W 2285  36.469  38.394   3.922
37301W        W 2286  42.468  38.317  12.983
37302W        W 2287  34.616   2.911   2.001
37303W        W 2288  15.485   1.508  13.908
37304W        W 2289  37.678  40.805  12.516
37305W        W 2290  43.951  22.025  12.541
37306W        W 2291  17.659   3.963   1.308
37307W        W 2292  17.688  44.605  14.065
37308W        W 2293  21.419  22.855   2.739
37309W        W 2294  10.562  34.016  10.978
37310W        W 2295  20.059   4.906  12.896
37311W        W 2296  30.468   9.473  14.790
37312W        W 2297  20.624  35.335  13.416
37313W        W 2298  36.879  39.475  11.247
37314W        W 2299  43.992  21.293   1.847
37315W        W 2300  32.426   7.791  14.327
37316W        W 2301  29.456  11.318  11.178
37317W        W 2302  39.231  44.389   2.448
37318W        W 2303  31.556  21.308  11.474
37319W        W 2304  13.838  38.753   3.232
37320W        W 2305  10.164  34.449   4.549
37321W        W 2306  17.735  43.261   4.396
37322W        W 2307  42.486   4.558   2.400
37323W        W 2308  33.535  29.518  12.382
37324W        W 2309  22.860  13.822  13.021
37325W        W 2310  21.010  41.353   3.646
37326W        W 2311  15.090  17.337  14.860
37327W        W 2312  22.107  32.861   0.854
37328W        W 2313  29.367  18.685  13.589
37329W        W 2314  20.190  32.453   4.274
37330W        W 2315  32.561  23.293  14.179
37331W        W 2316  10.026   6.845   2.239
37332W        W 2317   7.153  20.710  13.553
37333W        W 2318   2.550  13.790  14.488
37334W        W 2319   2.285  19.781   4.264
37335W        W 2320  40.778   8.797  13.208
37336W        W 2321  23.943  35.118  13.425
37337W        W 2322   5.389  31.279  13.126
37338W        W 2323  28.547   8.794  12.169
37339W        W 2324   4.914  29.634   4.215
37340W        W 2325  34.384  15.820  14.870
37341W        W 2326  26.215  37.955  14.034
37342W        W 2327   6.830  26.894  14.394
37343W        W 2328   6.857   5.391  13.472
37344W        W 2329  12.393  21.656  12.564
37345W        W 2330  19.517  39.434   4.077
37346W        W 2331  24.240  32.890  10.884
37347W        W 2332  30.545  13.235   1.295
37348W        W 2333   9.603  44.492   0.749
37349W        W 2334  17.578  26.865   0.236
37350W        W 2335  12.175  21.652  13.581
37351W        W 2336  13.791  19.741   1.428
37352W        W 2337  24.622  42.746   3.067
37353W        W 2338  19.088  17.647  10.630
37354W        W 2339  36.893   9.883  11.001
37355W        W 2340  20.599  28.922   0.834
37356W        W 2341  21.167  29.736  13.720
37357W        W 2342  13.631  25.539  12.700
37358W        W 2343  10.759   2.926  11.071
37359W        W 2344  14.206  16.282   0.741
37360W        W 2345  31.663  13.896   2.437
37361W        W 2346  38.519   6.758  14.048
37362W        W 2347  30.551  36.519   2.328
37363W        W 2348   0.967  17.205   1.394
37364W        W 2349   0.250  22.858  11.516
37365W        W 2350  13.476  10.686   2.315
37366W        W 2351  41.895  10.682  12.657
37367W        W 2352   8.655  35.921  11.626
37368W        W 2353  13.292  38.741   3.226
37369W        W 2354  17.007  10.527   0.733
37370W        W 2355  30.211   0.293  12.140
37371W        W 2356   9.846  32.667  14.083
37372W        W 2357  33.115  15.567  12.529
37373W        W 2358  11.754  16.256  12.926
37374W        W 2359  35.615   1.226  11.018
37375W        W 2360   9.436  13.075  10.963
37376W        W 2361  15.236  20.659   3.574
37377W        W 2362  19.318  41.908  13.864
37378W        W 2363  22.664  21.873  13.057
37379W        W 2364  37.974  34.997   0.943
37380W        W 2365  21.172  12.103   2.889
37381W        W 2366  42.294   5.398  14.138
37382W        W 2367  23.426   5.192   0.531
37383W        W 2368  18.998  38.000   0.794
37384W        W 2369  18.754   2.408  12.064
37385W        W 2370  39.429   3.755   1.855
37386W        W 2371  37.839   8.893   0.466
37387W        W 2372  10.464  42.573   3.326
37388W        W 2373  43.507  30.714   4.106
37389W        W 2374  19.577  35.392   2.269
37390W        W 2375  13.231  24.680   0.281
37391W        W 2376  30.414  19.093  10.445
37392W        W 2377  35.984   9.653  12.952
37393W        W 2378  24.384  31.635  11.408
37394W        W 2379  32.928  25.723  13.529
37395W        W 2380  36.309   5.064  12.000
37396W        W 2381  22.106  22.023  13.816
37397W        W 2382  37.073  15.228  10.678
37398W        W 2383  16.701   5.152   2.694
37399W        W 2384  17.529  40.056  13.502
37400W        W 2385  31.870  38.906  14.828
37401W        W 2386  33.192  35.390   1.511
37402W        W 2387  37.412  20.745   4.198
37403W        W 2388  17.644   3.253   3.438
37404W        W 2389   9.849   5.407  13.038
37405W        W 2390  11.405  31.820  14.858
37406W        W 2391  42.085  44.477   1.155
37407W        W 2392  19.250  34.609  12.900
37408W        W 2393  32.996   8.772   0.910
37409W        W 2394   2.340   9.202  11.166
37410W        W 2395   4.519  26.915  14.459
37411W        W 2396  33.255  44.276   4.894
37412W        W 2397  22.844  11.561   1.125
37413W        W 2398   3.219   3.315   2.448
37414W        W 2399  18.550  19.169   1.155
37415W        W 2400   8.068  23.826  13.520
37416W        W 2401  35.863  13.541   1.082
37417W        W 2402  12.538  29.456  14.886
37418W        W 2403  13.316  14.190   1.114
37419W        W 2404  15.760  31.253  10.320
37420W        W 2405   9.380  44.300  14.783
37421W        W 2406  31.988   2.026   1.411
37422W        W 2407  13.777  24.440   0.200
37423W        W 2408  38.906  39.006   4.530
37424W        W 2409   0.306  18.205   1.260
37425W        W 2410  15.201   0.707  12.783
37426W        W 2411  28.579   7.354   2.911
37427W        W 2412  21.526  18.053  11.640
37428W        W 2413  22.468  28.059   3.215
37429W        W 2414  12.439  18.163   4.046
37430W        W 2415  18.108  32.966   3.281
37431W        W 2416  13.195   7.137  14.368
37432W        W 2417  38.620  15.662  11.446
37433W        W 2418  18.307  41.016  13.962
37434W        W 2419  26.249  21.663  13.301
37435W        W 2420  35.446  18.829   4.891
37436W        W 2421   6.786  33.959   2.712
37437W        W 2422   5.932  16.153   3.161
37438W        W 2423  17.365  18.246   4.162
37439W        W 2424  30.372  30.694  11.175
37440W        W 2425  35.739  36.506  11.521
37441W        W 2426  40.503  43.555   4.778
37442W        W 2427  34.151   7.681  14.360
37443W        W 2428  28.041  22.528  11.627
37444W        W 2429  15.112  32.913  14.784
37445W        W 2430  43.749  25.572   3.729
37446W        W 2431  14.593   9.422   1.906
37447W        W 2432  40.702  14.045  12.055
37448W        W 2433  12.392  26.357   2.881
37449W        W 2434  36.546  43.575  10.974
37450W        W 2435  12.364  28.366   2.071
37451W        W 2436  32.519  21.197   2.400
37452W        W 2437  17.515  25.105   2.029
37453W        W 2438  23.031  20.612   1.816
37454W        W 2439  20.259  21.717  12.855
37455W        W 2440  35.587  40.763  11.741
37456W        W 2441  13.315   4.295   4.846
37457W        W 2442  23.619  36.815  14.463
37458W        W 2443  20.304  43.053  14.497
37459W        W 2444  16.706   9.960  11.861
37460W        W 2445  12.228  29.334   4.615
37461W        W 2446   7.186   3.719   2.203
37462W        W 2447  41.479  12.703   1.258
37463W        W 2448  18.210  44.244  12.880
37464W        W 2449  27.083  24.236  13.928
37465W        W 2450  42.451  19.984   1.320
37466W        W 2451  11.134   8.636   3.353
37467W        W 2452  42.568  15.315   0.205
37468W        W 2453  42.028  40.559   3.637
37469W        W 2454  30.869  21.244  12.598
37470W        W 2455  41.664  33.575   3.730
37471W        W 2456   2.215  11.738   2.400
37472W        W 2457  25.240  33.678  13.919
37473W        W 2458   5.258  35.846  11.473
37474W        W 2459  32.960   0.867  13.975
37475W        W 2460  38.745  32.921   1.261
37476W        W 2461   7.792  37.210   3.673
37477W        W 2462  23.002  30.678   3.845
37478W        W 2463  13.842  12.757   4.863
37479W        W 2464  22.608  15.788   4.405
37480W        W 2465   7.649  37.428   0.885
37481W        W 2466  44.778  40.345   1.429
37482W        W 2467   0.183  39.026  11.959
37483W        W 2468  43.495  24.242   2.466
37484W        W 2469  44.942   8.631  12.915
37485W        W 2470   2.535  30.444  11.454
37486W        W 2471  39.571   1.205  11.581
37487W        W 2472   2.255  18.758  14.370
37488W        W 2473  23.537  36.503   2.240
37489W        W 2474  25.181  11.883   1.428
37490W        W 2475   7.783   2.764   4.629
37491W        W 2476   6.180  21.802   0.459
37492W        W 2477   4.545  33.348  12.073
37493W        W 2478  32.038  22.509   0.443
37494W        W 2479  19.567  18.339  14.194
37495W        W 2480  10.458   7.285   4.538
37496W        W 2481  30.105  31.300   3.543
37497W        W 2482  20.192   8.261  14.464
37498W        W 2483  31.955  43.494   0.917
37499W        W 2484  11.634  16.193  11.104
37500W        W 2485  31.064  30.698   4.242
37501W        W 2486   5.769   6.936  14.482
37502W        W 2487   4.267   1.748   1.946
37503W        W 2488   2.838  38.859  10.705
37504W        W 2489   6.171  21.066  11.537
37505W        W 2490  16.701  38.181  12.117
37506W        W 2491  21.477   4.639   3.127
37507W        W 2492  17.163  12.776   0.949
37508W        W 2493  27.162  25.158  14.860
37509W        W 2494  34.789  23.624   2.708
37510W        W 2495  14.142  13.019   2.555
37511W        W 2496  31.832  12.598  13.506
37512W        W 2497   0.870  14.709   1.483
37513W        W 2498  28.307  35.687  12.852
37514W        W 2499  11.808  18.500   3.777
37515W        W 2500  14.314  22.134   4.422
37516W        W 2501  20.106   1.356   4.678
37517W        W 2502   2.037   7.182  14.139
37518W        W 2503   6.229   7.995   0.475
37519W        W 2504  27.997  24.242  13.383
37520W        W 2505  15.681  34.182   3.321
37521W        W 2506  44.479  14.670  14.205
37522W        W 2507  23.971   7.780   4.068
37523W        W 2508   9.176  40.978   3.249
37524W        W 2509  26.239  36.368   1.888
37525W        W 2510  41.486  39.777   3.633
37526W        W 2511  14.284   4.178  14.857
37527W        W 2512  19.206  41.080  10.630
37528W        W 2513   3.957  19.183  14.862
37529W        W 2514  44.278  40.520   4.477
37530W        W 2515  13.144  24.023  11.663
37531W        W 2516  26.909   6.710   4.487
37532W        W 2517  17.670   2.348   1.892
37533W        W 2518  36.504   5.846   0.151
37534W        W 2519  15.164  18.280   0.358
37535W        W 2520  35.447   4.765  13.192
37536W        W 2521  22.568  42.620  14.501
37537W        W 2522  31.873  35.167  12.583
37538W        W 2523  22.766  37.626  14.366
37539W        W 2524   3.986  28.874  10.700
37540W        W 2525  11.314  26.264   4.646
37541W        W 2526  33.949   2.219   1.331
37542W        W 2527  36.366  13.933   2.883
37543W        W 2528   5.492  41.336  14.206
37544W        W 2529  39.314  29.694   1.364
37545W        W 2530  11.237  42.067  11.690
37546W        W 2531  19.709  19.436  12.102
37547W        W 2532  11.380   3.364  13.167
37548W        W 2533  10.733  19.478  13.910
37549W        W 2534  10.795  31.543  10.944
37550W        W 2535  23.161   9.079   3.073
37551W        W 2536  36.577   4.849  12.394
37552W        W 2537  26.607  31.641   1.805
37553W        W 2538   8.681   2.580   1.779
37554W        W 2539  26.891  15.179   1.943
37555W        W 2540  11.578  15.806  12.732
37556W        W 2541  15.278  32.701  10.684
37557W        W 2542  20.309   8.225   4.642
37558W        W 2543  27.901  24.982   3.732
37559W        W 2544  41.645  15.670   5.016
37560W        W 2545  33.844  20.997   0.728
37561W        W 2546  16.019  31.957   1.771
37562W        W 2547  37.525  10.142   1.326
37563W        W 2548  39.344  25.776   0.947
37564W        W 2549   7.716  11.587   4.524
37565W        W 2550   2.141  41.529   1.821
37566W        W 2551  24.769  29.893   2.669
37567W        W 2552  33.626  27.038   2.885
37568W        W 2553  19.701   6.186   1.879
37569W        W 2554   5.750  38.085   0.248
37570W        W 2555  23.027  15.139  12.421
37571W        W 2556  23.950  29.875  11.223
37572W        W 2557  31.976  22.072   0.057
37573W        W 2558   4.224  24.961  13.452
37574W        W 2559   0.102  40.048   3.568
37575W        W 2560  26.060  42.376   1.895
37576W        W 2561  16.340   1.383  12.495
37577W        W 2562   4.139  29.532  12.018
37578W        W 2563   9.428   5.293  13.966
37579W        W 2564  41.325  29.920   3.682
37580W        W 2565  13.408  30.872  12.496
37581W        W 2566  24.612  42.620   2.082
37582W        W 2567   1.881  28.161  14.510
37583W        W 2568  21.068  40.718  12.010
37584W        W 2569  19.299   1.494  10.698
37585W        W 2570   7.575  17.991  13.852
37586W        W 2571   7.163  21.237   1.644
37587W        W 2572  12.304  27.004   0.996
37588W        W 2573  12.731  23.444   2.724
37589W        W 2574  16.570  29.453  13.580
37590W        W 2575  15.574  30.970   4.151
37591W        W 2576  17.782  40.665  11.789
37592W        W 2577  17.927   8.862   2.761
37593W        W 2578   9.566  21.264  14.249
37594W        W 2579   8.218  37.966  14.251
37595W        W 2580   8.198  37.659   0.067
37596W        W 2581  28.099  28.661  14.331
37597W        W 2582  39.835  31.895   1.917
37598W        W 2583  35.016  16.632  12.409
37599W        W 2584  36.395   4.252   4.970
37600W        W 2585  24.009  36.369   2.066
37601W        W 2586  15.744   8.850   0.358
37602W        W 2587  19.520  38.518  14.981
37603W        W 2588   5.312  20.845  10.664
37604W        W 2589   8.972  14.847  14.007
37605W        W 2590  10.670  35.511  13.522
37606W        W 2591   7.302  25.041   4.581
37607W        W 2592  20.696  39.528  13.684
37608W        W 2593  34.090  12.856   0.271
37609W        W 2594  33.090  28.289   1.254
37610W        W 2595  44.810   9.348   0.089
37611W        W 2596  23.984   9.721  13.365
37612W        W 2597  32.286  39.075   4.800
37613W        W 2598  19.975  36.593  11.119
37614W        W 2599  24.920   2.537   0.662
37615W        W 2600   6.127   1.326  13.898
37616W        W 2601  33.602  12.364   1.197
37617W        W 2602  19.642   1.524   1.387
37618W        W 2603   2.417  38.272   0.285
37619W        W 2604  10.377  11.702   4.958
37620W        W 2605  12.527  18.476  14.055
37621W        W 2606  42.052  44.029   1.429
37622W        W 2607  38.332   1.274  13.883
37623W        W 2608   1.004  29.675   4.164
37624W        W 2609  16.845  33.187  11.890
37625W        W 2610  22.887  36.045  11.261
37626W        W 2611  16.755  11.530  14.754
37627W        W 2612  22.856   7.178   1.918
37628W        W 2613  42.182  15.053  11.943
37629W        W 2614  37.593   3.286   3.272
37630W        W 2615  24.123  43.831  10.711
37631W        W 2616  25.051  26.923   1.229
37632W        W 2617  29.896  32.079   9.844
37633W        W 2618   0.890   8.958   2.124
37634W        W 2619  21.011  16.265   1.571
37635W        W 2620  26.060  18.594  11.451
37636W        W 2621  18.499  39.942   3.554
37637W        W 2622  35.585  28.819   2.342
37638W        W 2623  39.449  30.417   2.375
37639W        W 2624  22.646  36.005   0.192
37640W        W 2625  41.262  10.993   3.955
37641W        W 2626  21.624  42.434   3.390
37642W        W 2627  32.700  17.314  14.427
37643W        W 2628  16.594  28.386  12.716
37644W        W 2629   1.736  12.134   1.396
37645W        W 2630   8.012  41.800  10.637
37646W        W 2631  32.984  40.813  12.377
37647W        W 2632  10.353   0.856   3.464
37648W        W 2633  42.858  43.185  11.020
37649W        W 2634  13.247  20.583  11.670
37650W        W 2635   8.755  13.956  10.301
37651W        W 2636  37.311   4.868   0.863
37652W        W 2637   1.393  21.154   3.365
37653W        W 2638   9.119  18.492   4.196
37654W        W 2639  34.290  44.785   4.258
37655W        W 2640   8.226   3.410   0.993
37656W        W 2641  23.319  39.044   0.128
37657W        W 2642   2.120  29.212   1.088
37658W        W 2643  14.115  13.403   4.217
37659W        W 2644  16.312   9.597   1.899
37660W        W 2645   8.789  39.934   3.737
37661W        W 2646  22.772   0.828  13.118
37662W        W 2647   4.865  36.521   3.827
37663W        W 2648  17.677  34.647  14.585
37664W        W 2649  29.414  12.149   1.939
37665W        W 2650  12.548  22.695   0.890
37666W        W 2651   9.024  20.139  11.342
37667W        W 2652  13.282  18.201   1.663
37668W        W 2653  33.886  39.266   3.539
37669W        W 2654  26.346  38.827  14.455
37670W        W 2655  10.165  28.060  13.988
37671W        W 2656  44.565  22.685  12.065
37672W        W 2657  38.482  27.411   4.176
37673W        W 2658  34.120  38.983  13.006
37674W        W 2659  14.267  25.543  10.963
37675W        W 2660  12.276   2.936  10.752
37676W        W 2661   2.874   0.422  12.072
37677W        W 2662  22.329  34.321   3.704
37678W        W 2663  18.536  10.866  11.889
37679W        W 2664  12.966  38.730  12.397
37680W        W 2665  40.067  41.928  13.402
37681W        W 2666  21.503  18.605  13.569
37682W        W 2667  25.717  11.673   0.819
37683W        W 2668  32.379  15.641   2.635
37684W        W 2669  27.476  14.329   4.443
37685W        W 2670  24.187  12.125   3.053
37686W        W 2671  35.821   3.480  12.436
37687W        W 2672  10.299  41.828   0.348
37688W        W 2673  39.938  38.847   2.477
37689W        W 2674  20.198  29.000  13.810
37690W        W 2675   1.734  43.231   4.139
37691W        W 2676  44.664   2.419  11.056
37692W        W 2677  37.047  29.958   2.457
37693W        W 2678  22.852  15.573  13.846
37694W        W 2679  25.638  28.114  13.961
37695W        W 2680  24.062   1.350   4.155
37696W        W 2681  25.206  43.841   4.711
37697W        W 2682   0.740  18.809   0.260
37698W        W 2683  37.740  31.226  12.947
37699W        W 2684  44.505  10.884  11.222
37700W        W 2685  34.497  28.172   3.161
37701W        W 2686  35.346  26.916   2.251
37702W        W 2687   6.014  29.403   0.829
37703W        W 2688  20.815  11.043  13.405
37704W        W 2689  20.562  35.288  14.844
37705W        W 2690   0.672  43.959   3.173
37706W        W 2691  30.990  40.265  14.318
37707W        W 2692  39.180  12.875   4.229
37708W        W 2693  14.362  38.925   3.298
37709W        W 2694  40.372   3.078  10.288
37710W        W 2695  41.296   8.620   0.358
37711W        W 2696  23.920  28.504   1.274
37712W        W 2697   5.635   4.579   4.878
37713W        W 2698   2.810  16.085  14.871
37714W        W 2699  11.660  19.062   0.246
37715W        W 2700  27.636  23.567   2.359
37716W        W 2701  25.932  42.586   3.866
37717W        W 2702  13.819  11.103   2.244
37718W        W 2703  31.657  25.074   0.954
37719W        W 2704  36.054  13.528  12.338
37720W        W 2705   9.773  30.658  10.458
37721W        W 2706  16.879  41.040  12.082
37722W        W 2707   5.616  29.150  11.038
37723W        W 2708   1.888  38.896   2.612
37724W        W 2709  13.334  14.823  10.899
37725W        W 2710  36.984  28.010   3.755
37726W        W 2711  31.407  35.134  11.676
37727W        W 2712   8.735  30.467  11.728
37728W        W 2713  19.850  15.897  10.257
37729W        W 2714  28.686  19.652   3.122
37730W        W 2715  25.479  21.762  10.717
37731W        W 2716  38.092  17.555  14.884
37732W        W 2717  25.545  21.572   1.891
37733W        W 2718  43.245  30.431  12.584
37734W        W 2719   3.947  25.778   1.323
37735W        W 2720  36.586  38.108   2.047
37736W        W 2721   7.575  22.196   4.036
37737W        W 2722   9.430   9.142  11.027
37738W        W 2723  32.080  16.730  14.620
37739W        W 2724  39.468  23.472   1.821
37740W        W 2725   5.660   3.395  14.700
37741W        W 2726  21.785   7.132  10.499
37742W        W 2727  39.110  24.735  14.358
37743W        W 2728   0.826  42.416  12.610
37744W        W 2729  37.594  23.090   3.097
37745W        W 2730  25.076  16.953  10.099
37746W        W 2731  16.212   6.771   3.734
37747W        W 2732  17.845  14.739   0.852
37748W        W 2733  24.053   1.509   0.729
37749W        W 2734  39.363  12.366  12.506
37750W        W 2735  42.925  21.151  10.524
37751W        W 2736   3.970  22.778  11.097
37752W        W 2737   1.040   9.079   4.104
37753W        W 2738  33.611  25.587  14.732
37754W        W 2739  35.009  11.578   2.977
37755W        W 2740   3.436  35.661   2.382
37756W        W 2741  24.205  43.365   0.948
37757W        W 2742  39.805   7.874   4.284
37758W        W 2743  36.164  24.470  12.824
37759W        W 2744   5.193   8.862   0.109
37760W        W 2745  43.291   6.427  13.159
37761W        W 2746  35.093  20.683   2.788
37762W        W 2747  26.943  13.156  13.931
37763W        W 2748  22.507  25.574  12.342
37764W        W 2749  14.018  19.317   1.739
37765W        W 2750   3.045  28.279   3.324
37766W        W 2751   8.887  43.971  12.013
37767W        W 2752  26.098   6.041  10.292
37768W        W 2753  32.870  16.543  14.318
37769W        W 2754  37.779  24.924  11.175
37770W        W 2755   1.287  33.898   0.947
37771W        W 2756  37.073  20.941  13.125
37772W        W 2757  34.308  37.004   3.646
37773W        W 2758  20.161  23.504   2.748
37774W        W 2759   2.023  33.156  12.627
37775W        W 2760  22.991  39.487   0.905
37776W        W 2761  19.560  21.732  12.438
37777W        W 2762  35.812  28.956   3.502
37778W        W 2763  36.828  33.336  10.540
37779W        W 2764   1.436  29.183   0.447
37780W        W 2765  21.664  12.605   3.776
37781W        W 2766  28.532  33.113   2.286
37782W        W 2767  11.795  10.752  14.138
37783W        W 2768   4.431  28.909  14.401
37784W        W 2769  39.798  36.893   0.539
37785W        W 2770  14.738  27.579   0.987
37786W        W 2771   7.873   0.100   4.041
37787W        W 2772   7.099   1.471  12.151
37788W        W 2773  11.531  32.640  12.893
37789W        W 2774  38.071  41.411  11.986
37790W        W 2775  33.907  16.267   1.805
37791W        W 2776  13.177  13.923   0.255
37792W        W 2777  17.313  41.719   0.325
37793W        W 2778  20.971   1.939   2.325
37794W        W 2779  34.548  15.106   0.241
37795W        W 2780   1.972  22.244  12.478
37796W        W 2781  36.650  20.618  13.036
37797W        W 2782  34.615  24.212   2.695
37798W        W 2783   4.382  14.697   0.871
37799W        W 2784  36.443  26.002   1.291
37800W        W 2785   7.620  26.072  11.134
37801W        W 2786   0.029  27.943  13.546
37802W        W 2787  33.388  10.657  12.451
37803W        W 2788  14.652  29.110  11.287
37804W        W 2789  28.537  17.859   4.572
37805W        W 2790  11.154  22.199  13.178
37806W        W 2791  28.523  10.541   2.649
37807W        W 2792  19.754  40.268   3.770
37808W        W 2793  24.443  21.127  12.025
37809W        W 2794  28.658   3.225   4.009
37810W        W 2795   8.528  19.445   4.010
37811W        W 2796   6.701   9.790   1.329
37812W        W 2797  23.115  12.143  13.894
37813W        W 2798  41.733  38.448  12.433
37814W        W 2799   0.792   0.893   4.613
37815W        W 2800  41.709  10.161   4.799
37816W        W 2801  33.952  42.456  14.956
37817W        W 2802  20.776  20.567   1.867
37818W        W 2803   5.677  34.442  12.005
37819W        W 2804  43.509  39.515  10.882
37820W        W 2805  16.885  14.056   4.057
37821W        W 2806   6.831  14.334   2.767
37822W        W 2807  13.625   6.990  14.979
37823W        W 2808  24.954   2.422  12.940
37824W        W 2809  27.760  39.630  13.362
37825W        W 2810  29.151  33.420   1.168
37826W        W 2811  18.173  42.523  13.980
37827W        W 2812  24.766   1.455  12.944
37828W        W 2813  37.466  40.498  11.130
37829W        W 2814  33.667  41.298   3.664
37830W        W 2815  11.736  43.484   4.537
37831W        W 2816  11.276  17.854   3.448
37832W        W 2817  31.275   1.912  10.356
37833W        W 2818  12.315  31.385   2.257
37834W        W 2819   4.024  27.574  10.905
37835W        W 2820  24.289   3.659  11.553
37836W        W 2821   2.522  14.584   0.281
37837W        W 2822  11.664  40.331   2.716
37838W        W 2823  19.166  18.281   1.875
37839W        W 2824   2.605  33.981  14.535
37840W        W 2825  15.206  43.241  11.530
37841W        W 2826  38.296  30.428   4.276
37842W        W 2827  12.319  17.321   1.689
37843W        W 2828  19.904   5.611  13.634
37844W        W 2829  17.271  44.746  14.377
37845W        W 2830  19.616  13.775  14.380
37846W        W 2831   5.376  14.338  12.568
37847W        W 2832  31.019  11.406   1.758
37848W        W 2833  30.432  15.501   1.162
37849W        W 2834  27.547  16.845  12.006
37850W        W 2835  17.747  37.849  11.147
37851W        W 2836  10.599   4.302  12.106
37852W        W 2837  10.226  20.685  13.991
37853W        W 2838  19.537  26.524   4.222
37854W        W 2839  26.740   4.717   3.700
37855W        W 2840   3.033  15.471   3.140
37856W        W 2841  44.606   3.083  13.447
37857W        W 2842   3.918   0.890  13.909
37858W        W 2843   2.998  19.564  10.229
37859W        W 2844   4.751  19.667   4.350
37860W        W 2845  42.298  34.864   2.708
37861W        W 2846  39.286  13.128  14.985
37862W        W 2847  27.527  20.273   3.631
37863W        W 2848  22.868   2.562  12.096
37864W        W 2849  27.919  16.310   2.268
37865W        W 2850  18.787  42.813   3.264
37866W        W 2851   9.772   2.627   4.747
37867W        W 2852  41.528  17.174  11.035
37868W        W 2853  42.250  37.918   1.936
37869W        W 2854  23.728   0.908   4.908
37870W        W 2855  32.131  38.765   5.212
37871W        W 2856   1.271  21.165  10.178
37872W        W 2857  25.988  17.748   1.910
37873W        W 2858  33.968  21.951   1.088
37874W        W 2859  38.820   2.343   3.360
37875W        W 2860  41.080   6.965  10.557
37876W        W 2861  27.018  28.231  13.923
37877W        W 2862  12.120  16.477   2.743
37878W        W 2863  28.029  30.172  11.608
37879W        W 2864  44.082  25.603  11.450
37880W        W 2865   7.471  37.450   0.340
37881W        W 2866  20.595  12.567   1.184
37882W        W 2867   1.480  17.223   3.634
37883W        W 2868  36.531   6.124   2.979
37884W        W 2869  15.678  30.674   1.185
37885W        W 2870  15.875  13.812  11.648
37886W        W 2871  38.608   6.306   4.110
37887W        W 2872  43.520   0.922   3.852
37888W        W 2873   4.515   1.788  13.890
37889W        W 2874  31.485  35.298  13.440
37890W        W 2875  21.908  28.725   0.988
37891W        W 2876   9.358  30.934   3.236
37892W        W 2877  30.220   3.243   3.676
37893W        W 2878  42.830  20.344  10.579
37894W        W 2879  43.915  26.151   5.583
37895W        W 2880   4.320  15.556   2.228
37896W        W 2881  25.572   8.518   3.751
37897W        W 2882  18.529  17.118  12.683
37898W        W 2883   7.229  15.266   1.456
37899W        W 2884  23.192  25.373  12.999
37900W        W 2885  20.355  17.288   0.741
37901W        W 2886  22.856  33.427  12.856
37902W        W 2887  36.452   9.279   4.591
37903W        W 2888   9.913  40.866   2.198
37904W        W 2889  38.190  15.623  13.976
37905W        W 2890   4.819  13.852   3.893
37906W        W 2891   5.225  20.489   2.206
37907W        W 2892  31.213   0.406   4.832
37908W        W 2893  17.234   2.726  12.471
37909W        W 2894  28.261  13.365   2.307
37910W        W 2895  14.273  26.669   3.948
37911W        W 2896  17.323  22.338  10.207
37912W        W 2897   5.208  14.501   0.873
37913W        W 2898  33.767  16.754   1.716
37914W        W 2899  22.047   4.157   2.228
37915W        W 2900  10.846  28.646  14.252
37916W        W 2901  34.759  39.401   1.867
37917W        W 2902  30.142  29.221  14.599
37918W        W 2903  23.002   7.150  14.775
37919W        W 2904  16.960  40.532  14.283
37920W        W 2905  27.665  42.523   3.654
37921W        W 2906  25.506  44.967  10.923
37922W        W 2907  37.438  41.743  14.147
37923W        W 2908  23.481   2.708  13.927
37924W        W 2909  28.686  15.642   1.542
37925W        W 2910  42.948  41.766  11.183
37926W        W 2911   4.800   2.573   2.670
37927W        W 2912  34.159  14.964   2.247
37928W        W 2913  31.086  43.798   0.299
37929W        W 2914  15.670  42.623   3.565
37930W        W 2915  25.741  25.261  14.044
37931W        W 2916  12.582  15.709   4.666
37932W        W 2917  39.924  15.944  14.851
37933W        W 2918  13.259  34.079   3.306
37934W        W 2919  14.965  21.560  10.747
37935W        W 2920  16.111  37.514  14.887
37936W        W 2921  29.655  32.821   4.326
37937W        W 2922  23.395  15.270   0.434
37938W        W 2923  44.512  25.695   3.101
37939W        W 2924  16.834   3.164  14.947
37940W        W 2925  14.557  39.097  13.430
37941W        W 2926  17.580  32.536   2.755
37942W        W 2927   2.480  13.403   4.118
37943W        W 2928  23.536  44.000  11.221
37944W        W 2929  41.245  35.967  10.958
37945W        W 2930  42.940   8.336   0.966
37946W        W 2931  16.772  30.673   3.741
37947W        W 2932  41.763   5.938   3.760
37948W        W 2933  15.277  18.824  11.137
37949W        W 2934  27.479  38.886  14.412
37950W        W 2935   0.392  11.624  13.447
37951W        W 2936  16.102   5.915   0.883
37952W        W 2937  18.274  29.107  12.443
37953W        W 2938  42.096  42.945   4.185
37954W        W 2939  28.227  34.559  14.403
37955W        W 2940  44.879  32.061   2.603
37956W        W 2941  20.065   0.402  11.120
37957W        W 2942  36.293  15.841  12.113
37958W        W 2943  41.994  22.721   1.259
37959W        W 2944  40.802  38.393   3.988
37960W        W 2945  24.949  38.738   1.738
37961W        W 2946  11.205  19.243  13.888
37962W        W 2947  29.107  30.333  10.655
37963W        W 2948  24.758  27.696  13.136
37964W        W 2949  30.964  19.267   0.975
37965W        W 2950  40.542  43.781   4.284
37966W        W 2951  16.854  22.700   2.383
37967W        W 2952  42.849  28.247   0.016
37968W        W 2953  13.172   5.607   0.026
37969W        W 2954  37.524  34.430   4.582
37970W        W 2955   3.379  18.714  12.863
37971W        W 2956   8.680  26.439  11.614
37972W        W 2957   0.034  24.132  11.324
37973W        W 2958   1.004  36.002   3.123
37974W        W 2959   9.673  41.262  11.005
37975W        W 2960  37.837  41.516  12.449
37976W        W 2961  32.973  39.833   1.349
37977W        W 2962  18.970  32.751  12.445
37978W        W 2963  42.990   8.139  12.972
37979W        W 2964   3.391   3.570   5.334
37980W        W 2965  28.499  35.925  11.061
37981W        W 2966  24.388   6.263  14.671
37982W        W 2967  44.744  23.950  12.374
37983W        W 2968  41.700  22.080   0.268
37984W        W 2969  16.089  44.986  13.483
37985W        W 2970  10.852   1.789  11.165
37986W        W 2971  36.866  14.094   2.971
37987W        W 2972  12.034   4.662   0.424
37988W        W 2973  31.670  36.797   0.931
37989W        W 2974   9.221   7.202  12.704
37990W        W 2975  28.995  22.737   2.796
37991W        W 2976   4.310   0.825  14.250
37992W        W 2977  16.707  41.756   2.658
37993W        W 2978  42.608  19.098  14.890
37994W        W 2979  35.385  13.017   1.865
37995W        W 2980  35.034  22.418   0.083
37996W        W 2981  26.520  15.151  13.285
37997W        W 2982  26.570  33.530  10.479
37998W        W 2983  16.038   4.589  10.768
37999W        W 2984  28.205  31.559   4.538
38000W        W 2985  33.973   3.321  10.259
38001W        W 2986  11.730  10.823   1.762
38002W        W 2987  34.398  39.093  13.465
38003W        W 2988  11.085  36.070   2.015
38004W        W 2989  26.430  34.032  13.684
38005W        W 2990  14.328  40.096   3.709
38006W        W 2991  37.434  10.447  11.900
38007W        W 2992  14.972  37.024  10.532
38008W        W 2993  43.572  24.170   0.361
38009W        W 2994  25.454  30.186  12.121
38010W        W 2995  31.481  12.656   0.827
38011W        W 2996  30.752   8.828   0.369
38012W        W 2997  26.747  26.705  14.860
38013W        W 2998  42.646   7.530   5.006
38014W        W 2999  12.195  27.462   2.291
38015W        W 3000  21.196  43.214  12.688
38016W        W 3001  44.516   3.486  13.154
38017W        W 3002  17.642  11.259   4.693
38018W        W 3003  17.183  34.850   2.761
38019W        W 3004   4.484  37.950  12.343
38020W        W 3005   8.886  44.971  12.925
38021W        W 3006  39.920  18.544   2.983
38022W        W 3007  29.590   1.793   0.466
38023W        W 3008   3.763  16.074   0.696
38024W        W 3009  30.235  35.446   0.695
38025W        W 3010  37.417  16.583  14.453
38026W        W 3011  24.390   7.371  13.799
38027W        W 3012  31.522  26.924   1.037
38028W        W 3013  38.086  23.602   4.591
38029W        W 3014  18.334  30.216   0.368
38030W        W 3015  37.018  31.971   4.559
38031W        W 3016  20.358   6.242  11.247
38032W        W 3017  14.750  41.591   2.722
38033W        W 3018   4.876  29.131   0.066
38034W        W 3019   0.214  22.452   2.222
38035W        W 3020   9.573   5.515   5.341
38036W        W 3021  40.995  23.297   4.988
38037W        W 3022   8.094   5.192  14.836
38038W        W 3023  11.663  21.701   4.554
38039W        W 3024  40.782  41.331   2.272
38040W        W 3025  37.367  22.317  13.330
38041W        W 3026  40.293  40.558  11.874
38042W        W 3027  32.077  30.037  12.549
38043W        W 3028   3.861  15.664   3.816
38044W        W 3029  32.152  26.425   3.780
38045W        W 3030  23.553  25.816   4.580
38046W        W 3031  20.141  17.567   1.248
38047W        W 3032   5.830   2.285   2.581
38048W        W 3033  14.237  37.249  14.485
38049W        W 3034  26.734   0.521  13.554
38050W        W 3035  41.816   1.778   3.441
38051W        W 3036   8.676  39.310   4.498
38052W        W 3037  37.119  30.684  11.563
38053W        W 3038  19.348  33.944  13.929
38054W        W 3039   5.816  17.872  12.831
38055W        W 3040  11.039   1.528   2.892
38056W        W 3041  32.382  44.449   1.186
38057W        W 3042  44.540   1.803   4.670
38058W        W 3043   8.411  28.712  14.939
38059W        W 3044   7.652  43.424  11.376
38060W        W 3045  25.079  19.060   1.217
38061W        W 3046   7.676  44.692   2.767
38062W        W 3047   4.501  25.247   1.696
38063W        W 3048  44.859  44.293   3.383
38064W        W 3049  41.081  22.802  14.025
38065W        W 3050  28.475  21.721  12.588
38066W        W 3051   1.481  37.390   2.390
38067W        W 3052  22.689   3.622  12.028
38068W        W 3053   8.368  39.891  12.885
38069W        W 3054   6.418   2.010   1.149
38070W        W 3055  15.614  26.108   1.822
38071W        W 3056  15.841  40.312   4.891
38072W        W 3057  42.285  28.090   2.127
38073W        W 3058   6.834  19.534  11.673
38074W        W 3059  29.482  22.154  13.322
38075W        W 3060  33.263  22.278   4.198
38076W        W 3061   3.679   4.083   0.707
38077W        W 3062  28.361   0.206   3.727
38078W        W 3063  35.728  12.167   0.076
38079W        W 3064  19.362  35.278  13.997
38080W        W 3065  37.029   5.725  10.848
38081W        W 3066  44.601   4.697   1.054
38082W        W 3067   3.924  29.123   2.040
38083W        W 3068  27.016   6.046  14.079
38084W        W 3069   5.400  42.484   4.362
38085W        W 3070  17.848  15.818  14.991
38086W        W 3071  23.786   6.923  13.569
38087W        W 3072  12.802   8.432  14.779
38088W        W 3073  31.305  34.872   3.288
38089W        W 3074   4.419  14.442  12.609
38090W        W 3075   9.279  37.389   0.720
38091W        W 3076  32.885   8.423   3.153
38092W        W 3077  10.599  33.964   3.316
38093W        W 3078   8.409  44.424   0.528
38094W        W 3079  15.869  19.282   3.627
38095W        W 3080  44.390  25.199   3.158
38096W        W 3081  30.655  28.929  13.082
38097W        W 3082  14.135  41.850  13.809
38098W        W 3083   5.316   2.414   2.716
38099W        W 3084  30.220  31.058  11.981
38100W        W 3085   8.782  14.043   2.108
38101W        W 3086  14.058   5.478  13.297
38102W        W 3087  27.170  14.758   1.296
38103W        W 3088   6.807  19.037  14.576
38104W        W 3089  38.691  44.037   9.997
38105W        W 3090  33.590   0.785  13.053
38106W        W 3091  38.901  39.133  11.914
38107W        W 3092  11.060  10.104  13.779
38108W        W 3093  44.109  22.671  10.947
38109W        W 3094  23.027  20.260  14.273
38110W        W 3095  21.066  37.013  11.208
38111W        W 3096   0.759  18.627   9.996
38112W        W 3097  10.158  20.702   3.257
38113W        W 3098   6.309  32.391  11.330
38114W        W 3099  35.617  43.258   0.433
38115W        W 3100  21.195  34.453   4.478
38116W        W 3101   5.018   1.931  11.441
38117W        W 3102  32.041  43.621   3.722
38118W        W 3103  43.521  37.143  12.879
38119W        W 3104  31.181   9.707   2.886
38120W        W 3105  16.079   3.137   4.407
38121W        W 3106  40.274  10.309  13.497
38122W        W 3107  32.673  19.930  11.261
38123W        W 3108  29.185  35.861  11.917
38124W        W 3109  43.371  25.331  13.986
38125W        W 3110  20.520  41.311  13.075
38126W        W 3111  17.177  28.133  12.577
38127W        W 3112  40.806  14.435  13.819
38128W        W 3113   7.132  18.563  10.608
38129W        W 3114  31.645   5.090  14.109
38130W        W 3115  22.948   4.085   2.093
38131W        W 3116  18.143  15.625   4.183
38132W        W 3117  19.622  36.572  13.975
38133W        W 3118  28.158   7.205  10.744
38134W        W 3119  36.946  17.815   2.320
38135W        W 3120  10.151  41.435   1.915
38136W        W 3121   0.231  18.346   0.448
38137W        W 3122  30.483  36.845   1.011
38138W        W 3123  34.312   0.854   1.773
38139W        W 3124  27.570  43.371   4.622
38140W        W 3125  40.809  27.997   1.035
38141W        W 3126  31.457  31.529   4.389
38142W        W 3127  14.876  26.524   1.895
38143W        W 3128  32.383  43.192   0.817
38144W        W 3129   8.670  17.244  13.850
38145W        W 3130   4.548   5.157   3.687
38146W        W 3131  39.088   6.633   1.433
38147W        W 3132  35.308  36.008   3.504
38148W        W 3133   6.746  38.249   2.202
38149W        W 3134  42.139  17.741  11.377
38150W        W 3135  26.746  40.764  14.421
38151W        W 3136  30.479  21.649  14.754
38152W        W 3137   6.842  42.390   0.867
38153W        W 3138  32.019   8.925  11.892
38154W        W 3139  29.290   3.807  12.090
38155W        W 3140  31.726  19.625  13.334
38156W        W 3141  21.707  20.091  13.884
38157W        W 3142  24.926   6.600   3.275
38158W        W 3143  31.817  33.961  14.488
38159W        W 3144  37.774  36.429   0.408
38160W        W 3145  39.815  31.027  14.353
38161W        W 3146  39.329  13.077   2.397
38162W        W 3147   2.019  16.091   3.674
38163W        W 3148   4.881  22.452  12.478
38164W        W 3149   9.964   8.631   4.141
38165W        W 3150  10.234  20.049   3.654
38166W        W 3151  22.144   6.545  11.557
38167W        W 3152  28.023  10.856   0.978
38168W        W 3153  38.262  10.715  14.026
38169W        W 3154   5.448  29.972  13.578
38170W        W 3155   1.632  40.859  13.021
38171W        W 3156   3.664  13.178   3.854
38172W        W 3157  27.785  18.755   2.472
38173W        W 3158   8.202   3.850  10.678
38174W        W 3159  18.807  15.659  10.233
38175W        W 3160  26.962   0.830   0.342
38176W        W 3161  21.474  38.911  14.898
38177W        W 3162  38.937  29.701   4.193
38178W        W 3163  43.000  32.149   0.864
38179W        W 3164  44.939   3.781   3.221
38180W        W 3165   4.233  16.345  14.886
38181W        W 3166  33.467  43.442  13.950
38182W        W 3167  24.547  22.461   3.825
38183W        W 3168  22.230  14.662   0.057
38184W        W 3169  21.364  35.346  14.216
38185W        W 3170  11.190  24.240   0.009
38186W        W 3171  17.389   3.807   1.719
38187W        W 3172  31.973   5.253   1.340
38188W        W 3173  36.918   5.939  13.486
38189W        W 3174  14.479  27.473   1.439
38190W        W 3175  42.459   1.914  11.670
38191W        W 3176   5.807  14.734   2.212
38192W        W 3177  10.848  37.144  14.989
38193W        W 3178  21.614   2.011  10.646
38194W        W 3179  33.259  41.211   1.775
38195W        W 3180  20.775  28.865  13.375
38196W        W 3181  44.319  23.248   9.888
38197W        W 3182  18.151  44.865  11.162
38198W        W 3183  17.794  42.873  11.850
38199W        W 3184  13.561  17.039  11.234
38200W        W 3185  24.730  23.963  14.926
38201W        W 3186  19.519  39.822   3.643
38202W        W 3187  34.885   9.150  11.287
38203W        W 3188  22.452  36.050   0.670
38204W        W 3189  21.764  41.830  12.842
38205W        W 3190  24.050   5.837   0.159
38206W        W 3191  28.497  23.877   0.313
38207W        W 3192  40.679  42.559   2.146
38208W        W 3193  11.830  11.783   0.368
38209W        W 3194  33.293  13.030  13.948
38210W        W 3195  25.711  12.861  13.370
38211W        W 3196   2.099  13.892   1.526
38212W        W 3197  13.700  22.899   2.912
38213W        W 3198   2.742  24.945   3.596
38214W        W 3199  41.013  11.056  14.345
38215W        W 3200  42.268  33.219  13.051
38216W        W 3201  40.131  40.251   2.157
38217W        W 3202  20.638  23.527  12.989
38218W        W 3203  31.450   4.465  12.742
38219W        W 3204  43.997   6.280  11.585
38220W        W 3205  37.641   7.369  13.990
38221W        W 3206  21.642  42.965  10.588
38222W        W 3207  10.326   0.832   1.930
38223W        W 3208  25.274  27.152  10.277
38224W        W 3209  44.953  39.340  13.062
38225W        W 3210  23.318  37.007  14.093
38226W        W 3211  22.606  26.288   4.535
38227W        W 3212  15.230  44.298   3.443
38228W        W 3213  43.054  27.691   1.731
38229W        W 3214  13.143   9.904  14.337
38230W        W 3215  20.583  24.153   0.672
38231W        W 3216  18.784  34.632  14.519
38232W        W 3217   0.747  34.528   1.502
38233W        W 3218  11.613  16.295   4.565
38234W        W 3219  41.832  25.304  13.334
38235W        W 3220  44.093  44.850   3.922
38236W        W 3221  38.803  38.891  10.139
38237W        W 3222  34.642  17.772   3.770
38238W        W 3223   6.822  23.583   2.830
38239W        W 3224  15.414   5.798   2.906
38240W        W 3225   8.646   4.284   3.124
38241W        W 3226  16.058  26.935   1.494
38242W        W 3227  36.348  10.673  14.454
38243W        W 3228   7.581  36.134  10.768
38244W        W 3229  41.191  34.484  13.846
38245W        W 3230  11.807  21.433   0.065
38246W        W 3231  39.378   7.825  13.859
38247W        W 3232  35.306  14.762  14.945
38248W        W 3233  36.938  27.159  14.686
38249W        W 3234  10.004   6.201   4.146
38250W        W 3235   9.121  35.068   3.201
38251W        W 3236  41.391   2.891   3.839
38252W        W 3237  17.415  22.552  11.455
38253W        W 3238   7.106  21.134  10.537
38254W        W 3239   2.350  29.413  12.929
38255W        W 3240  23.804  18.453  14.853
38256W        W 3241  15.351  12.375  14.255
38257W        W 3242  33.940  35.185  14.351
38258W        W 3243  25.184  29.678   3.725
38259W        W 3244  37.080  11.121   1.893
38260W        W 3245   0.828  16.601  13.072
38261W        W 3246  34.580  23.087  11.792
38262W        W 3247   0.529  11.956  14.419
38263W        W 3248  44.061   0.202  10.808
38264W        W 3249  44.292  14.604   3.205
38265W        W 3250  26.244  21.605   0.747
38266W        W 3251  25.317  43.412   0.024
38267W        W 3252   6.448  19.685  13.875
38268W        W 3253  37.891   5.730  10.510
38269W        W 3254   0.764  44.731  11.050
38270W        W 3255  43.400  32.602   4.222
38271W        W 3256   1.176  21.556  11.446
38272W        W 3257  34.843  11.308  13.325
38273W        W 3258  25.173   0.399  10.922
38274W        W 3259  39.555  42.893  13.747
38275W        W 3260   5.171  17.257  14.293
38276W        W 3261  33.097  20.681   4.126
38277W        W 3262  33.793  13.753   4.224
38278W        W 3263  24.712   3.915   1.899
38279W        W 3264  44.758  11.769   0.719
38280W        W 3265  33.394  15.307   2.846
38281W        W 3266  30.947  41.939  10.721
38282W        W 3267  29.939   3.194   1.716
38283W        W 3268  41.639  38.610   0.387
38284W        W 3269  42.906  33.476   4.415
38285W        W 3270  15.093  29.149  12.550
38286W        W 3271  41.346  16.635   1.394
38287W        W 3272   4.507  28.831  10.662
38288W        W 3273  19.535  41.819  13.394
38289W        W 3274   6.269  15.040  12.877
38290W        W 3275  20.170   0.078  11.565
38291W        W 3276  31.652  31.521  11.472
38292W        W 3277  23.468  16.351  13.896
38293W        W 3278  19.773  26.190  12.344
38294W        W 3279  35.348  38.035  13.997
38295W        W 3280  32.258  40.610   4.011
38296W        W 3281  33.521  19.573   1.388
38297W        W 3282   7.554  40.928  14.927
38298W        W 3283   9.897  26.465  13.442
38299W        W 3284  17.592  34.170  14.779
38300W        W 3285  30.012   6.164   3.067
38301W        W 3286   4.800  13.840  11.459
38302W        W 3287   8.909  26.443  13.306
38303W        W 3288  27.471  18.684   3.906
38304W        W 3289  20.494  21.673  13.610
38305W        W 3290  29.681  25.995   3.356
38306W        W 3291  14.321   7.286   2.247
38307W        W 3292  43.931   0.737  12.063
38308W        W 3293  14.905   4.182  11.531
38309W        W 3294   7.289   7.836   4.904
38310W        W 3295  41.296  18.288  12.891
38311W        W 3296   3.795   4.360   4.434
38312W        W 3297   4.182  37.951   1.700
38313W        W 3298  14.750  37.635   0.464
38314W        W 3299   0.560  17.659  13.362
38315W        W 3300   8.803  28.317   4.202
38316W        W 3301  29.480  16.194  10.645
38317W        W 3302  10.943  15.597   0.947
38318W        W 3303  17.198  11.120  11.166
38319W        W 3304  12.414   6.559  14.523
38320W        W 3305   1.444   3.453   1.735
38321W        W 3306   9.653  41.056  13.073
38322W        W 3307   6.880  12.607   0.892
38323W        W 3308  39.803   0.773  10.759
38324W        W 3309  41.461  41.286   0.021
38325W        W 3310  31.399  40.420  12.943
38326W        W 3311  17.332  33.883   0.123
38327W        W 3312  16.174  41.643   2.408
38328W        W 3313  40.887  28.343  13.979
38329W        W 3314  44.899  27.752  12.800
38330W        W 3315  19.741  21.865  11.625
38331W        W 3316  40.094  34.089  10.475
38332W        W 3317  39.464  29.653   0.867
38333W        W 3318  37.937  35.575   2.284
38334W        W 3319  41.341  23.057   0.380
38335W        W 3320  27.287  17.137  14.806
38336W        W 3321  25.847  15.044   2.320
38337W        W 3322  12.043  30.641   1.765
38338W        W 3323   5.200  44.595  12.378
38339W        W 3324  14.817  26.497  14.602
38340W        W 3325  28.093  38.888  12.358
38341W        W 3326  35.353  26.251  14.862
38342W        W 3327   2.547  25.642   4.313
38343W        W 3328  29.879   2.857   3.807
38344W        W 3329  41.367  15.175   4.185
38345W        W 3330  18.099  25.486   3.826
38346W        W 3331  27.937   7.367  11.641
38347W        W 3332  44.460   0.601   0.821
38348W        W 3333  15.119  20.311   0.790
38349W        W 3334  16.645   6.799   4.959
38350W        W 3335  14.208   8.118   1.486
38351W        W 3336   3.065  16.662   4.160
38352W        W 3337   9.501  36.187   4.116
38353W        W 3338   5.254  13.304  10.638
38354W        W 3339   6.666  20.164  13.900
38355W        W 3340  33.047   7.690   2.739
38356W        W 3341  17.663  14.939   2.270
38357W        W 3342  38.464   9.941  11.553
38358W        W 3343  14.417  18.516   1.590
38359W        W 3344   7.095  27.722  12.613
38360W        W 3345  23.352   7.950   1.955
38361W        W 3346  39.861  10.711   3.046
38362W        W 3347  24.096  17.122  12.013
38363W        W 3348  19.742   7.213   1.943
38364W        W 3349   7.524  15.103  10.927
38365W        W 3350  25.671  18.264   4.490
38366W        W 3351  29.485  33.061   1.362
38367W        W 3352  34.377  29.077   2.292
38368W        W 3353   3.264  43.253  14.812
38369W        W 3354  40.611  34.005  11.667
38370W        W 3355  40.780  15.972  11.551
38371W        W 3356   8.752  23.616   3.934
38372W        W 3357  26.690  31.356  13.839
38373W        W 3358  36.361   6.159  13.407
38374W        W 3359  10.864  21.781  13.027
38375W        W 3360  13.512   6.697   2.189
38376W        W 3361  17.320  26.695   4.875
38377W        W 3362  27.254   2.687   3.492
38378W        W 3363  13.784  17.701   2.289
38379W        W 3364  33.433   8.483  13.846
38380W        W 3365  16.775  43.075   1.722
38381W        W 3366  36.324   1.741  12.008
38382W        W 3367  40.317  37.627  13.920
38383W        W 3368  13.635  31.444   3.695
38384W        W 3369  19.946  18.534   3.308
38385W        W 3370  40.745  40.360  12.021
38386W        W 3371  40.977  20.183   2.362
38387W        W 3372  38.035  22.172  13.891
38388W        W 3373  35.848   8.022  11.614
38389W        W 3374   4.670  31.145  13.786
38390W        W 3375  12.026   8.760   4.039
38391W        W 3376   4.855  33.894   2.992
38392W        W 3377  24.564  23.562  12.913
38393W        W 3378  31.865  23.903  11.162
38394W        W 3379  31.372  31.132   1.703
38395W        W 3380  35.479  35.846   1.747
38396W        W 3381   9.437  18.744   3.611
38397W        W 3382  28.330  42.217   3.058
38398W        W 3383  27.843   2.427   0.289
38399W        W 3384  43.500  18.095  14.428
38400W        W 3385   9.668   3.727  12.862
38401W        W 3386   4.200  32.314   1.882
38402W        W 3387  19.021  21.375   4.008
38403W        W 3388   4.226  42.767   3.264
38404W        W 3389  25.945  11.774  10.485
38405W        W 3390  13.289  36.907  11.468
38406W        W 3391  32.592   3.724   1.791
38407W        W 3392   9.154  41.761   1.755
38408W        W 3393  33.709  34.966  11.742
38409W        W 3394   5.790  11.405  12.161
38410W        W 3395  30.737   4.685  13.971
38411W        W 3396  29.068  22.792  13.105
38412W        W 3397  21.763   2.277   3.209
38413W        W 3398   9.242  39.853   4.088
38414W        W 3399  12.340   8.142  13.867
38415W        W 3400  43.290  20.361   0.381
38416W        W 3401  26.598  15.776  10.115
38417W        W 3402  26.617   8.137  13.991
38418W        W 3403  29.477   7.938   3.189
38419W        W 3404  24.474   9.220   3.667
38420W        W 3405  20.193  16.188  10.540
38421W        W 3406  39.570  21.033  13.082
38422W        W 3407  30.717   3.176  10.975
38423W        W 3408  44.427   5.351   3.344
38424W        W 3409   8.367  19.239   2.005
38425W        W 3410  40.528  21.830   3.168
38426W        W 3411  39.000  32.573  14.561
38427W        W 3412  28.731  35.080  13.968
38428W        W 3413  31.578  25.934  13.104
38429W        W 3414   1.367  21.144  11.728
38430W        W 3415   8.329  25.608   0.752
38431W        W 3416  30.699  38.175   1.209
38432W        W 3417  20.148   2.913   4.326
38433W        W 3418  25.796  41.443   3.958
38434W        W 3419   3.363   3.186   1.699
38435W        W 3420  14.108  33.489  14.349
38436W        W 3421  31.898  40.714  14.216
38437W        W 3422  39.031  15.917  12.078
38438W        W 3423  24.626  28.006  14.791
38439W        W 3424   8.604  16.663  11.597
38440W        W 3425  34.804  30.576   3.672
38441W        W 3426  18.351  25.004  12.543
38442W        W 3427  21.127  33.145  10.482
38443W        W 3428  37.098  34.076  10.883
38444W        W 3429   7.852  18.194   4.114
38445W        W 3430  15.314  40.517  11.478
38446W        W 3431  11.047  33.666   0.256
38447W        W 3432  26.821   0.300  12.147
38448W        W 3433   0.273  14.687  10.731
38449W        W 3434  22.938  36.438  14.996
38450W        W 3435  14.077  25.666  12.958
38451W        W 3436  27.899  20.179   1.391
38452W        W 3437  30.558  25.602   0.320
38453W        W 3438  33.628  40.752   2.237
38454W        W 3439  33.590  11.446   3.124
38455W        W 3440  42.940  40.458   4.537
38456W        W 3441  19.268  32.941  14.372
38457W        W 3442  28.621  21.781  13.454
38458W        W 3443   6.681  25.943   3.927
38459W        W 3444   7.885  12.199  14.440
38460W        W 3445  10.978  42.849  11.677
38461W        W 3446  12.227  28.181  12.087
38462W        W 3447  37.841  21.287  10.367
38463W        W 3448  14.355  42.082   1.815
38464W        W 3449  30.044  36.409   4.882
38465W        W 3450  41.448   2.071   0.900
38466W        W 3451   0.532  18.379  12.478
38467W        W 3452  21.547  23.883   1.856
38468W        W 3453   8.236  35.842  12.391
38469W        W 3454  27.964  34.632   3.669
38470W        W 3455  37.502  25.570   2.681
38471W        W 3456   6.164  24.030   3.528
38472W        W 3457  39.463  25.952   1.431
38473W        W 3458  43.616   3.424  10.967
38474W        W 3459  36.189  38.734  12.775
38475W        W 3460  38.329  22.481  12.474
38476W        W 3461  20.244  40.051   2.433
38477W        W 3462  42.461  11.692  13.425
38478W        W 3463  10.910  43.367  13.469
38479W        W 3464  42.428  43.046   1.767
38480W        W 3465   7.252  29.231   0.252
38481W        W 3466   3.661   3.628  14.210
38482W        W 3467   5.987  11.865   2.931
38483W        W 3468   9.797   7.350   0.399
38484W        W 3469  17.202  38.395  13.893
38485W        W 3470  34.994  22.607  11.552
38486W        W 3471  12.831  32.951  14.476
38487W        W 3472   6.303  29.880  13.022
38488W        W 3473  25.979  29.500   0.805
38489W        W 3474  39.010  23.065   0.810
38490W        W 3475  26.789  16.379  11.806
38491W        W 3476  38.879  19.561   0.332
38492W        W 3477  14.974  41.354   2.322
38493W        W 3478  14.797  44.684  13.476
38494W        W 3479  10.096  29.063   2.624
38495W        W 3480  28.902  15.770  11.119
38496W        W 3481  17.685  35.531   0.819
38497W        W 3482  27.870   8.928  11.063
38498W        W 3483  10.857  18.131  14.775
38499W        W 3484  12.160   2.984   1.350
38500W        W 3485  10.380  28.133   4.658
38501W        W 3486   4.780  42.659   1.981
38502W        W 3487  35.964  27.231   0.495
38503W        W 3488  34.579  43.648   4.880
38504W        W 3489  35.580  21.844   0.473
38505W        W 3490  24.267  19.047  13.409
38506W        W 3491   2.483  18.606  13.343
38507W        W 3492  19.598   1.252  12.004
38508W        W 3493  22.324  37.450  13.233
38509W        W 3494  34.543  18.600  12.299
38510W        W 3495   2.485  20.601  14.069
38511W        W 3496  28.604  15.281  11.747
38512W        W 3497   0.957  40.771   3.546
38513W        W 3498  34.162  34.949  13.885
38514W        W 3499  42.066  30.926   2.118
38515W        W 3500  32.185  12.102   0.327
38516W        W 3501  39.589   0.343  12.913
38517W        W 3502  41.415  30.915  10.690
38518W        W 3503  22.120   2.997   3.076
38519W        W 3504  22.032   5.899  14.370
38520W        W 3505  20.297  32.888  13.491
38521W        W 3506  14.129  30.484   3.745
38522W        W 3507  19.268  33.489  14.911
38523W        W 3508  23.528  16.928   3.655
38524W        W 3509   1.010  11.199  10.587
38525W        W 3510  11.476  15.842   2.313
38526W        W 3511  30.615  31.892   0.160
38527W        W 3512  41.505   1.683  12.050
38528W        W 3513  22.642   5.509  14.036
38529W        W 3514  26.716  10.792  11.079
38530W        W 3515  41.826  40.911   4.545
38531W        W 3516  44.995   6.480  13.827
38532W        W 3517  13.260  17.125  14.115
38533W        W 3518  38.438  16.432  11.053
38534W        W 3519  33.002  42.469  14.797
38535W        W 3520   9.282  33.886  12.476
38536W        W 3521  37.523  37.619  12.182
38537W        W 3522  24.209  26.652  12.943
38538W        W 3523  41.982  43.570   1.668
38539W        W 3524  16.216  24.420  12.554
38540W        W 3525  36.910  26.600  12.983
38541W        W 3526  21.426  13.963  10.834
38542W        W 3527  28.178   0.352   2.847
38543W        W 3528  41.521  21.296   3.615
38544W        W 3529  19.259  17.078  11.012
38545W        W 3530   2.531  27.280  11.547
38546W        W 3531  13.140   6.708   2.564
38547W        W 3532   9.780  42.389  14.602
38548W        W 3533  28.090  13.346  14.449
38549W        W 3534   1.626  13.355   0.366
38550W        W 3535  17.317   5.711  13.252
38551W        W 3536   0.663  16.128   4.127
38552W        W 3537   8.740  23.815  10.846
38553W        W 3538  35.569  10.167  11.957
38554W        W 3539  20.147  42.902  13.827
38555W        W 3540   2.227  37.078  10.570
38556W        W 3541  41.091   8.212  12.491
38557W        W 3542   6.712  16.182   0.664
38558W        W 3543   6.922  24.843  12.197
38559W        W 3544   9.309  43.109   4.697
38560W        W 3545  21.042  36.951  12.841
38561W        W 3546  22.002  11.645   1.736
38562W        W 3547  43.435  10.627   2.361
38563W        W 3548  23.202  16.559   0.961
38564W        W 3549  42.192  31.084  11.973
38565W        W 3550  44.063  18.147  10.624
38566W        W 3551  33.413  22.771   4.581
38567W        W 3552  17.619  44.245   4.214
38568W        W 3553  42.771  41.532   2.329
38569W        W 3554  11.459  26.326  14.395
38570W        W 3555  20.099  20.003  12.337
38571W        W 3556   4.246  32.087   3.674
38572W        W 3557  24.403  27.049  11.479
38573W        W 3558  35.081  26.959   2.681
38574W        W 3559  23.052   9.684   1.908
38575W        W 3560   1.747  14.666  12.983
38576W        W 3561   7.274  17.677   2.646
38577W        W 3562  36.026  44.973   3.606
38578W        W 3563  10.985  30.106  13.370
38579W        W 3564  36.086  38.682   4.653
38580W        W 3565  15.002   3.272  14.035
38581W        W 3566  17.267  19.129   4.247
38582W        W 3567  36.679  37.348  14.928
38583W        W 3568  10.693  10.866  11.643
38584W        W 3569   5.801  35.661   2.827
38585W        W 3570  24.239  32.465   0.752
38586W        W 3571  15.091  13.235  13.339
38587W        W 3572  42.113   3.941  10.650
38588W        W 3573  33.202  36.515   0.327
38589W        W 3574  37.703  38.589   3.212
38590W        W 3575  15.598  21.986  14.371
38591W        W 3576  29.170   9.712   2.863
38592W        W 3577  13.717   5.414  12.002
38593W        W 3578  18.678   9.158  11.087
38594W        W 3579  44.979  13.845  14.568
38595W        W 3580  13.572  14.750   3.170
38596W        W 3581  21.512  31.462   2.929
38597W        W 3582   7.425   2.380  12.670
38598W        W 3583  27.686  28.445   0.992
38599W        W 3584  12.186  42.586   2.668
38600W        W 3585  10.617  33.032  11.132
38601W        W 3586  18.786   4.417  14.823
38602W        W 3587  26.210   9.685  10.752
38603W        W 3588  34.131  31.039   3.252
38604W        W 3589  21.979   3.430   0.457
38605W        W 3590  14.194  12.812   3.574
38606W        W 3591   5.946   8.835  13.016
38607W        W 3592  43.351  36.838  14.199
38608W        W 3593  43.997  36.561   2.600
38609W        W 3594  41.654  42.026   0.497
38610W        W 3595  22.277  19.540  13.454
38611W        W 3596  15.687  37.370   3.108
38612W        W 3597  27.686  31.919  13.353
38613W        W 3598  37.454  28.543  14.293
38614W        W 3599   7.128   6.435  11.221
38615W        W 3600  22.113   0.418  12.549
38616W        W 3601  10.892  16.769  11.454
38617W        W 3602  38.808   7.910  12.952
38618W        W 3603  10.645  41.191   1.604
38619W        W 3604  25.194  13.029   2.834
38620W        W 3605   5.931   1.599   1.311
38621W        W 3606  23.766   4.833  13.043
38622W        W 3607  38.101  25.089  10.785
38623W        W 3608  19.760  24.097  13.022
38624W        W 3609  26.112  30.669   1.355
38625W        W 3610  20.812  41.447  13.481
38626W        W 3611  40.818  20.959  10.609
38627W        W 3612  34.545   0.781   2.234
38628W        W 3613  26.087  23.584   4.002
38629W        W 3614  14.690   5.958  13.945
38630W        W 3615  25.493  44.781   4.466
38631W        W 3616  39.757  23.430   4.783
38632W        W 3617  35.845  22.587  12.046
38633W        W 3618  25.689   8.086   2.294
38634W        W 3619  22.075  18.483  12.107
38635W        W 3620  42.890  12.599  13.359
38636W        W 3621  20.078   7.110  13.799
38637W        W 3622  22.977   2.999  14.024
38638W        W 3623  41.546  40.314   4.512
38639W        W 3624  23.780  25.989  14.471
38640W        W 3625   6.588  26.464   3.736
38641W        W 3626  31.097   0.976  11.189
38642W        W 3627  33.082  15.062   1.468
38643W        W 3628  24.774   5.389  13.940
38644W        W 3629   8.080  33.168  13.863
38645W        W 3630  25.188  19.671  10.783
38646W        W 3631  36.384  30.325   0.945
38647W        W 3632   5.404  39.771  13.162
38648W        W 3633   0.504  20.447   4.428
38649W        W 3634   4.225  24.633  13.963
38650W        W 3635  33.516  10.431   4.094
38651W        W 3636   1.409  34.465  14.945
38652W        W 3637  14.123   5.571  11.620
38653W        W 3638  26.804  41.814  13.010
38654W        W 3639  37.364  14.267   2.827
38655W        W 3640  25.505  42.518   4.145
38656W        W 3641  28.093  21.434   0.711
38657W        W 3642  16.798  28.625  13.115
38658W        W 3643  38.623  15.192   3.695
38659W        W 3644  21.023  34.496   3.419
38660W        W 3645  25.104  16.760  14.293
38661W        W 3646   7.833   1.013   3.423
38662W        W 3647  32.662  19.136  13.813
38663W        W 3648   3.312  39.447  11.773
38664W        W 3649  31.861  19.634   3.862
38665W        W 3650  11.933  22.931  10.275
38666W        W 3651  43.912  23.149  11.115
38667W        W 3652  43.225  21.232  14.545
38668W        W 3653   9.437   1.646  14.321
38669W        W 3654  29.036  37.736  12.262
38670W        W 3655   5.994  10.812   2.027
38671W        W 3656  44.393  42.370  13.722
38672W        W 3657  22.922  33.485   0.651
38673W        W 3658  37.427   7.513  12.633
38674W        W 3659  39.569  34.023  13.178
38675W        W 3660  12.819  36.296  14.376
38676W        W 3661  37.797  34.108  12.881
38677W        W 3662   4.780  36.600  10.211
38678W        W 3663  32.297   7.367  10.855
38679W        W 3664   3.065  25.410   0.164
38680W        W 3665  39.352  43.291   0.379
38681W        W 3666   3.406  25.676  12.073
38682W        W 3667   2.319   8.520  12.380
38683W        W 3668  11.978  27.075   3.796
38684W        W 3669   4.452  22.555  12.721
38685W        W 3670  38.515  32.167   3.707
38686W        W 3671  31.572   3.925  10.596
38687W        W 3672  34.823  44.331   0.755
38688W        W 3673  11.690  20.331  12.878
38689W        W 3674  42.184  34.412  13.708
38690W        W 3675  11.748   0.485  10.794
38691W        W 3676  36.291  12.834  14.380
38692W        W 3677  32.856   1.037  11.070
38693W        W 3678  41.179  32.626  14.767
38694W        W 3679  31.595   7.317   2.305
38695W        W 3680  22.708  27.010   0.983
38696W        W 3681   8.420   2.340  10.626
38697W        W 3682  29.550  19.530   5.030
38698W        W 3683  35.028   6.149  11.246
38699W        W 3684  29.067   3.001   3.135
38700W        W 3685   7.433  24.521  14.406
38701W        W 3686  30.020  25.551  11.519
38702W        W 3687  42.082  30.680  13.898
38703W        W 3688  41.123  28.986   1.293
38704W        W 3689  43.821  25.497   2.443
38705W        W 3690  23.677   7.275  12.644
38706W        W 3691  44.569  35.988  12.948
38707W        W 3692  38.785  32.379  11.046
38708W        W 3693  43.009   0.806  12.490
38709W        W 3694   2.898  10.182  14.416
38710W        W 3695  15.748  37.580  14.506
38711W        W 3696  35.644   3.154   3.636
38712W        W 3697   8.100  43.748  12.155
38713W        W 3698  30.363  25.292   1.015
38714W        W 3699  25.129  18.358   2.685
38715W        W 3700  31.838  23.974  13.866
38716W        W 3701   6.386  28.517   4.706
38717W        W 3702  39.482   7.692  14.584
38718W        W 3703  24.654  44.803  11.991
38719W        W 3704   4.361  11.303   0.716
38720W        W 3705  32.837  12.533   4.187
38721W        W 3706  25.953  32.621  10.799
38722W        W 3707  26.965   2.285  13.830
38723W        W 3708  38.403  38.326   0.903
38724W        W 3709  12.938  15.018  13.840
38725W        W 3710  19.306  36.657  14.435
38726W        W 3711  33.111  33.431  13.976
38727W        W 3712   3.509   5.163   4.807
38728W        W 3713   5.446   9.739  11.070
38729W        W 3714  42.661  12.315   2.297
38730W        W 3715  40.349  40.490  12.372
38731W        W 3716  37.454  24.109   0.730
38732W        W 3717  39.898   3.843  11.527
38733W        W 3718  33.595  41.397   3.171
38734W        W 3719  11.800  19.720  12.117
38735W        W 3720  35.437  28.127  11.650
38736W        W 3721  14.941  43.152  14.953
38737W        W 3722  14.746  40.184  11.999
38738W        W 3723  37.046  24.436   3.268
38739W        W 3724   0.427  34.006   0.955
38740W        W 3725  20.084  22.232   3.408
38741W        W 3726  24.437  10.290   3.820
38742W        W 3727  37.084  44.375  10.559
38743W        W 3728  41.882  34.594   2.912
38744W        W 3729  25.206  44.492   0.153
38745W        W 3730  15.404  27.949   0.859
38746W        W 3731  29.878  31.517   0.831
38747W        W 3732  32.634   8.061   3.592
38748W        W 3733  20.273  16.981  12.040
38749W        W 3734  12.581   3.670   3.728
38750W        W 3735  17.637  43.163   0.291
38751W        W 3736  44.936   9.177  13.941
38752W        W 3737  16.857  42.424  13.301
38753W        W 3738  27.619   8.816   4.734
38754W        W 3739  40.738  20.647   0.603
38755W        W 3740  12.350  32.161   2.777
38756W        W 3741  43.904  37.364   0.787
38757W        W 3742  22.078   9.801  10.993
38758W        W 3743  22.950  34.556  12.537
38759W        W 3744   4.334  19.060  13.436
38760W        W 3745  38.512  16.299  10.163
38761W        W 3746  10.740  17.783   0.453
38762W        W 3747  32.381  30.709  12.922
38763W        W 3748  36.961  10.262  12.623
38764W        W 3749  44.754  22.711   2.143
38765W        W 3750  15.023  38.855  13.357
38766W        W 3751  35.092  38.369   1.789
38767W        W 3752  39.989  36.342  14.102
38768W        W 3753  37.782  24.354  12.345
38769W        W 3754   3.470  36.671   4.491
38770W        W 3755  43.700  13.719  14.769
38771W        W 3756  13.785  21.543   3.413
38772W        W 3757   9.779  44.796   0.372
38773W        W 3758  30.417   6.515   1.413
38774W        W 3759   9.965  28.452  13.689
38775W        W 3760  14.260  37.479   0.502
38776W        W 3761  36.965  16.537   4.011
38777W        W 3762  21.223  21.332  12.933
38778W        W 3763   7.548  19.428  14.813
38779W        W 3764  33.994  42.309   1.324
38780W        W 3765  24.916  43.122  12.918
38781W        W 3766   9.301  30.739  14.804
38782W        W 3767  38.347  39.974   3.529
38783W        W 3768  39.344  30.329  12.743
38784W        W 3769  36.495   6.254  10.848
38785W        W 3770  35.628  26.390  14.419
38786W        W 3771  41.824  23.730   2.649
38787W        W 3772  19.551  29.086  13.074
38788W        W 3773  16.112   2.514  11.895
38789W        W 3774  33.621  29.126  12.003
38790W        W 3775  20.073   1.543   0.823
38791W        W 3776  34.095  24.341   2.793
38792W        W 3777  19.645  20.006  14.816
38793W        W 3778  37.782  25.296  12.509
38794W        W 3779   1.013  34.778   1.903
38795W        W 3780  16.628  25.703  13.408
38796W        W 3781  41.618  39.063   2.457
38797W        W 3782  23.521   9.642  14.893
38798W        W 3783   8.440  37.802   1.490
38799W        W 3784  25.156  36.899   3.210
38800W        W 3785  38.626  38.079   9.760
38801W        W 3786  18.677  41.659   2.591
38802W        W 3787  20.571  20.710   0.948
38803W        W 3788  31.892  32.703   0.860
38804W        W 3789   0.915  34.684   1.002
38805W        W 3790  25.120  37.259   3.855
38806W        W 3791   3.147  23.956   3.779
38807W        W 3792  34.404   8.579   4.540
38808W        W 3793  38.819  16.629  13.377
38809W        W 3794   0.068   4.286  14.903
38810W        W 3795  34.963  20.136  11.569
38811W        W 3796   2.470  13.172   4.578
38812W        W 3797   4.708   4.791  10.237
38813W        W 3798  44.844  22.506  10.642
38814W        W 3799   2.767  26.657   0.429
38815W        W 3800  14.087  43.569  11.132
38816W        W 3801  21.289  33.318  14.371
38817W        W 3802  34.117  35.699  14.269
38818W        W 3803  28.966  10.084  14.036
38819W        W 3804  23.288  37.861   3.214
38820W        W 3805   9.223  37.018  12.361
38821W        W 3806  32.930   0.484   1.129
38822W        W 3807   6.683  42.901  12.614
38823W        W 3808  34.629  30.152   4.842
38824W        W 3809  12.714  10.596   1.875
38825W        W 3810  21.252  35.017   2.605
38826W        W 3811  10.174  22.660   2.664
38827W        W 3812  11.615  16.757  13.044
38828W        W 3813  12.216  20.723   2.940
38829W        W 3814  11.442  19.346  13.428
38830W        W 3815  35.911  35.285   2.943
38831W        W 3816  38.801  37.809   3.645
38832W        W 3817  41.438  20.836  12.382
38833W        W 3818   2.424  44.118  13.413
38834W        W 3819  42.531  43.761  14.372
38835W        W 3820  35.049   5.929  12.122
38836W        W 3821  36.125  32.199   1.647
38837W        W 3822  28.636  24.200  11.980
38838W        W 3823   9.020  18.609  12.030
38839W        W 3824   2.340  20.542  13.056
38840W        W 3825   0.783   7.777   2.932
38841W        W 3826  11.732  23.732   3.751
38842W        W 3827  23.023   2.757   0.570
38843W        W 3828  37.614  38.965   4.062
38844W        W 3829   1.155  21.070   0.435
38845W        W 3830  20.771  25.705   2.460
38846W        W 3831  18.160  33.456   2.508
38847W        W 3832  18.180  43.798   2.119
38848W        W 3833  20.099  30.745  11.169
38849W        W 3834   9.317  18.616   2.603
38850W        W 3835  35.731  14.478  12.083
38851W        W 3836  40.251  31.523   2.371
38852W        W 3837  31.996  25.420   5.032
38853W        W 3838  30.567  44.493  13.661
38854W        W 3839  26.717  20.871  10.868
38855W        W 3840   9.342  33.844   4.648
38856W        W 3841  26.371   4.547   4.038
38857W        W 3842  11.887  41.735  11.501
38858W        W 3843  13.073  44.441   1.868
38859W        W 3844  33.559   4.438   2.103
38860W        W 3845   8.602  22.750  13.573
38861W        W 3846  38.119  19.211   0.354
38862W        W 3847  42.916  21.195  11.532
38863W        W 3848  22.019  27.416  13.334
38864W        W 3849  18.283   6.652   1.962
38865W        W 3850   8.370  41.588   2.970
38866W        W 3851  37.424  10.642   1.351
38867W        W 3852  16.516  20.018   3.763
38868W        W 3853  39.223   8.447  12.002
38869W        W 3854  24.186  16.668   0.176
38870W        W 3855  40.478  43.725  11.122
38871W        W 3856  31.693  18.362   0.142
38872W        W 3857   2.774  35.667  13.568
38873W        W 3858   8.822  41.756   4.583
38874W        W 3859   7.768   2.007   0.999
38875W        W 3860   4.509  38.060  13.626
38876W        W 3861  11.799  41.820   4.182
38877W        W 3862  26.052  28.565   4.838
38878W        W 3863  35.494  41.425   4.095
38879W        W 3864   3.531  17.172   1.777
38880W        W 3865   4.788  42.257  14.712
38881W        W 3866   2.170   3.478   0.382
38882W        W 3867  33.945  10.658   3.241
38883W        W 3868  33.940  19.434   2.691
38884W        W 3869   8.765  32.062   4.590
38885W        W 3870  35.586  18.258  11.607
38886W        W 3871  32.037  16.580  10.333
38887W        W 3872  32.024  21.273   3.217
38888W        W 3873   1.104   4.845  11.980
38889W        W 3874  15.398  19.152   3.807
38890W        W 3875   9.678   3.114   4.624
38891W        W 3876  12.452  11.386  14.978
38892W        W 3877  21.038   2.014  11.109
38893W        W 3878   5.694  36.968  12.566
38894W        W 3879  42.678  17.165  12.961
38895W        W 3880  26.514   2.957   0.536
38896W        W 3881  12.477  27.227  11.053
38897W        W 3882   5.526  32.565  14.933
38898W        W 3883  31.591  32.063   1.772
38899W        W 3884  18.609   0.265  13.188
38900W        W 3885  34.923  43.765  10.638
38901W        W 3886  35.113  42.339   2.260
38902W        W 3887  11.304  34.065  11.616
38903W        W 3888   0.976   2.426  13.503
38904W        W 3889  41.349  37.125   5.621
38905W        W 3890  42.411  17.370   2.720
38906W        W 3891  34.122  39.552  10.820
38907W        W 3892  14.265  35.855   4.556
38908W        W 3893   6.124  33.602   2.437
38909W        W 3894  23.387   8.417   3.704
38910W        W 3895  40.954  39.581   9.801
38911W        W 3896  39.310  21.504   1.938
38912W        W 3897  17.968   9.038   0.170
38913W        W 3898   7.672  19.583   1.415
38914W        W 3899  17.243  43.533   4.154
38915W        W 3900  19.036  10.261  14.201
38916W        W 3901  31.111  24.411   2.915
38917W        W 3902   2.519   3.337  11.465
38918W        W 3903  41.554   5.321   1.817
38919W        W 3904  11.320  37.349   1.412
38920W        W 3905   9.441  41.652  13.115
38921W        W 3906  43.792  24.048   0.848
38922W        W 3907   9.462  12.795  12.480
38923W        W 3908  12.382   4.373   4.243
38924W        W 3909  10.324   6.247   0.446
38925W        W 3910  28.732  30.916   1.168
38926W        W 3911  39.857   2.211   1.464
38927W        W 3912  30.452  41.526  14.495
38928W        W 3913   5.177  14.392  13.443
38929W        W 3914  39.381  32.963  11.616
38930W        W 3915  36.879  37.606   4.928
38931W        W 3916  22.033  19.615  13.915
38932W        W 3917  19.398  30.040   3.210
38933W        W 3918  26.966  18.818   4.561
38934W        W 3919  40.299  23.674  14.756
38935W        W 3920  41.475  33.695   1.308
38936W        W 3921  43.268  43.310   0.369
38937W        W 3922   3.911  35.414  13.728
38938W        W 3923  20.480  33.990  12.895
38939W        W 3924  14.761  34.522   2.332
38940W        W 3925  15.611  15.614  11.128
38941W        W 3926   1.672  36.941  10.611
38942W        W 3927  44.454  41.891  13.483
38943W        W 3928  36.559  18.305   0.743
38944W        W 3929  10.695  32.979   2.406
38945W        W 3930  34.327  44.354  10.556
38946W        W 3931  11.723  27.745  13.455
38947W        W 3932  23.410  20.042  13.110
38948W        W 3933  16.147  11.779  10.523
38949W        W 3934  39.092  29.660   3.278
38950W        W 3935   0.515  28.428  10.664
38951W        W 3936  43.577  35.965   3.813
38952W        W 3937   4.826  36.736   4.876
38953W        W 3938  39.873   3.949   1.680
38954W        W 3939  44.771  25.407   2.244
38955W        W 3940   0.887  41.022  13.483
38956W        W 3941  33.974  44.970   0.427
38957W        W 3942  36.378  13.654   1.902
38958W        W 3943   5.074  26.203   2.283
38959W        W 3944  15.416  31.407   2.440
38960W        W 3945  27.600  22.496  13.990
38961W        W 3946  44.803  35.002   2.222
38962W        W 3947  32.883  44.359   0.380
38963W        W 3948   7.718  29.277   4.176
38964W        W 3949  25.836  12.333   2.395
38965W        W 3950  33.299  30.162  12.001
38966W        W 3951  22.577   7.198  12.864
38967W        W 3952  16.884  18.641   4.934
38968W        W 3953  39.788  13.914  12.113
38969W        W 3954  11.661   8.042  14.471
38970W        W 3955   2.192  40.299   1.428
38971W        W 3956  15.285  23.278   3.764
38972W        W 3957  36.971  41.579  14.377
38973W        W 3958  35.581  38.078  11.986
38974W        W 3959  34.865   5.426   0.428
38975W        W 3960   0.934   7.308   1.243
38976W        W 3961   0.247  33.599  14.320
38977W        W 3962  29.881  43.263  12.902
38978W        W 3963  25.789  30.089  13.808
38979W        W 3964  22.200  38.972  11.036
38980W        W 3965  40.970  10.158  12.950
38981W        W 3966  42.789  24.564   0.420
38982W        W 3967   5.291   3.299  14.341
38983W        W 3968  43.776  41.054  14.254
38984W        W 3969   4.666  10.274  10.670
38985W        W 3970  38.040  11.339   3.262
38986W        W 3971  35.100  35.948   2.371
38987W        W 3972  14.673  11.238   0.234
38988W        W 3973  11.288  29.141   0.923
38989W        W 3974  39.404  29.054  12.613
38990W        W 3975  30.235  19.217   4.533
38991W        W 3976  18.152  44.362   1.855
38992W        W 3977  13.602   9.829  10.777
38993W        W 3978  16.687  17.886   1.231
38994W        W 3979  36.035  12.923   4.508
38995W        W 3980  28.700   4.713   3.820
38996W        W 3981  43.035  15.772  14.879
38997W        W 3982  34.037  19.082   3.089
38998W        W 3983   1.186  41.940   3.275
38999W        W 3984  12.331  15.499  11.474
39000W        W 3985   1.529  44.911  13.416
39001W        W 3986  22.281  13.617  13.333
39002W        W 3987   4.862  28.666   4.555
39003W        W 3988  12.252  42.768  14.358
39004W        W 3989  15.852  42.104   4.186
39005W        W 3990  17.399  11.345   0.393
39006W        W 3991  12.103   4.062  14.541
39007W        W 3992  36.273  43.299  11.483
39008W        W 3993   5.297  19.165  12.724
39009W        W 3994   9.904   3.756  14.261
39010W        W 3995  32.954  18.920  13.370
39011W        W 3996  26.970  39.544   2.820
39012W        W 3997  23.667  29.448   1.046
39013W        W 3998   4.813  29.947   3.807
39014W        W 3999  40.468  11.222   4.217
39015W        W 4000  43.048  13.457   1.428
39016W        W 4001  28.994  30.882   3.455
39017W        W 4002  13.010  44.024   4.738
39018W        W 4003  22.235  43.681  14.634
39019W        W 4004  33.117   4.736  10.674
39020W        W 4005  38.339  11.141  10.941
39021W        W 4006  20.853  41.765  10.665
39022W        W 4007  25.517  33.541   3.139
39023W        W 4008  28.248   7.711   2.311
39024W        W 4009  23.062  12.242  12.778
39025W        W 4010  35.430  12.885   1.036
39026W        W 4011   6.551  44.923  13.804
39027W        W 4012  26.142  10.552   5.121
39028W        W 4013  34.317   4.235   1.562
39029W        W 4014  44.551  22.055   4.074
39030W        W 4015   4.810  31.823  12.614
39031W        W 4016  30.670  34.684  11.875
39032W        W 4017  40.721  12.796  14.071
39033W        W 4018  39.368   2.754   1.734
39034W        W 4019  41.608  37.066   3.559
39035W        W 4020  17.989   4.811   2.278
39036W        W 4021  43.139  21.364  10.068
39037W        W 4022  12.761  37.520   0.680
39038W        W 4023  28.727  25.064   1.702
39039W        W 4024  43.922   9.711   0.915
39040W        W 4025  26.644  17.113   1.982
39041W        W 4026  21.474  34.441   1.193
39042W        W 4027   0.738  42.426  13.644
39043W        W 4028   1.314  38.062   3.477
39044W        W 4029  12.546  14.930  14.779
39045W        W 4030   3.327  28.563   4.099
39046W        W 4031  43.903  17.803  11.650
39047W        W 4032   2.988  30.552  11.220
39048W        W 4033  35.337   8.346  13.044
39049W        W 4034  14.659  38.003  11.084
39050W        W 4035  31.193  29.401  10.815
39051W        W 4036  44.802  23.645   4.654
39052W        W 4037  17.504  41.680   3.106
39053W        W 4038  25.529  11.940  11.963
39054W        W 4039  37.845   3.948   0.081
39055W        W 4040   4.200  39.783   3.726
39056W        W 4041  30.572  10.732  13.310
39057W        W 4042  28.192   9.222  12.163
39058W        W 4043  39.434  39.041  11.610
39059W        W 4044  18.508  37.559   0.010
39060W        W 4045  16.704  31.200   3.580
39061W        W 4046  28.691   8.265  12.991
39062W        W 4047  10.755  12.382   3.202
39063W        W 4048  42.850  28.315  10.839
39064W        W 4049  23.232  43.321   3.628
39065W        W 4050  32.890  24.555   3.105
39066W        W 4051  24.990   9.898  10.678
39067W        W 4052  38.114   4.213  11.522
39068W        W 4053   2.962  36.440  10.715
39069W        W 4054  12.427   2.842  12.007
39070W        W 4055  29.719   9.746  14.242
39071W        W 4056  28.122  31.043  12.130
39072W        W 4057  13.117  30.540   1.313
39073W        W 4058  18.891  42.456   3.793
39074W        W 4059  24.727  16.610   1.286
39075W        W 4060  13.634  23.623  13.995
39076W        W 4061  12.121  14.232   4.143
39077W        W 4062  10.472  24.707  12.803
39078W        W 4063   9.249   8.140  12.407
39079W        W 4064  31.453  28.234   4.143
39080W        W 4065  31.294  18.086   1.716
39081W        W 4066  22.195   3.818   1.672
39082W        W 4067  12.359  17.801   1.863
39083W        W 4068  17.740   1.648   1.219
39084W        W 4069  18.746  20.512   1.340
39085W        W 4070  29.891  15.753   4.713
39086W        W 4071  37.055   7.035   3.076
39087W        W 4072   5.651  39.639   1.293
39088W        W 4073  15.379  12.396   1.978
39089W        W 4074  38.388   8.003  11.525
39090W        W 4075  30.560  20.320  12.923
39091W        W 4076   0.026   0.214   2.897
39092W        W 4077   1.922  28.210   3.860
39093W        W 4078  36.936  16.658  12.214
39094W        W 4079  28.411   7.642   3.687
39095W        W 4080  10.141  27.889  11.573
39096W        W 4081   4.691  38.871  11.016
39097W        W 4082  44.300   0.266  13.792
39098W        W 4083  11.752   5.030   2.231
39099W        W 4084  14.824   4.299   1.213
39100W        W 4085  10.147   2.437   5.035
39101W        W 4086  15.724  23.646  11.457
39102W        W 4087   4.205  34.414   3.739
39103W        W 4088  37.839   6.643   4.083
39104W        W 4089  30.020  24.498   0.728
39105W        W 4090   3.346  40.380  12.667
39106W        W 4091  33.886  16.002   4.475
39107W        W 4092  25.433   1.217   1.887
39108W        W 4093   8.140   3.706   3.776
39109W        W 4094  42.599  36.396  14.482
39110W        W 4095  38.420   5.147  13.777
39111W        W 4096   1.620   4.866  12.023
39112W        W 4097  25.686  24.853   4.969
39113W        W 4098  29.398  37.076   3.771
39114W        W 4099  24.886   5.864   4.781
39115W        W 4100  28.165  42.128   2.419
39116W        W 4101   8.395  29.037   3.078
39117W        W 4102  12.244   7.632  11.494
39118W        W 4103  41.222  18.625  11.213
39119W        W 4104  41.899  29.705   3.244
39120W        W 4105  32.141  24.629   1.715
39121W        W 4106  18.191   8.320   4.025
39122W        W 4107  25.626  17.572  11.936
39123W        W 4108  32.848   8.903  14.031
39124W        W 4109  40.014  29.174  11.963
39125W        W 4110  16.438  37.002   1.539
39126W        W 4111   0.814   2.803   4.687
39127W        W 4112  24.528   5.476   0.870
39128W        W 4113  35.133  31.530  14.315
39129W        W 4114  23.561  41.938  12.484
39130W        W 4115  42.393  41.419  13.029
39131W        W 4116   2.718  36.977   1.350
39132W        W 4117  33.318  10.164  11.560
39133W        W 4118  25.499  36.874  14.601
39134W        W 4119  27.079  30.483  13.843
39135W        W 4120   6.087  40.061  12.454
39136W        W 4121  39.347  33.066  12.930
39137W        W 4122  43.802  20.631  13.356
39138W        W 4123  26.020  35.910   1.801
39139W        W 4124  25.470  15.147  13.372
39140W        W 4125  33.543  33.190  12.790
39141W        W 4126  44.944  21.000  12.627
39142W        W 4127  10.715  25.776  14.483
39143W        W 4128  37.633  34.557   9.890
39144W        W 4129  32.609  19.765   1.957
39145W        W 4130   0.298  34.914  14.597
39146W        W 4131  15.196  14.651   0.483
39147W        W 4132  31.929  32.607  13.591
39148W        W 4133  32.913  21.732   1.328
39149W        W 4134  44.010  42.365   3.090
39150W        W 4135  42.942  37.860   3.140
39151W        W 4136  36.923  21.678  12.600
39152W        W 4137  10.925  43.497   3.283
39153W        W 4138  37.848  22.006   0.301
39154W        W 4139  15.262  27.125   3.141
39155W        W 4140  15.679  39.085   3.166
39156W        W 4141  21.963   1.757   2.379
39157W        W 4142  43.464  35.409   2.579
39158W        W 4143  34.558  20.619  14.003
39159W        W 4144  24.610  30.699   1.493
39160W        W 4145  42.843  14.723   2.692
39161W        W 4146   5.898   1.830   2.830
39162W        W 4147  36.309  14.748  10.527
39163W        W 4148  30.700   0.739   3.310
39164W        W 4149  24.607  36.307  10.991
39165W        W 4150   7.241  44.249  13.813
39166W        W 4151  27.769  44.304   3.334
39167W        W 4152  35.907  30.618  12.742
39168W        W 4153  28.890  12.971   0.311
39169W        W 4154  10.276   9.046  12.607
39170W        W 4155  28.756  15.221  12.789
39171W        W 4156  18.076   6.425   3.211
39172W        W 4157  40.437  38.435   2.844
39173W        W 4158  43.807  25.620  13.443
39174W        W 4159  43.871   3.014  13.872
39175W        W 4160  44.370  43.678   2.694
39176W        W 4161  31.112  10.039  14.897
39177W        W 4162   9.652  31.653  13.934
39178W        W 4163  32.500  12.065  12.466
39179W        W 4164  20.147  28.130  11.696
39180W        W 4165  13.679  17.610  11.211
39181W        W 4166  29.442  30.406  14.784
39182W        W 4167  44.030  38.066  14.471
39183W        W 4168   3.215  24.671  13.896
39184W        W 4169   3.897   8.127  11.889
39185W        W 4170  29.060  22.256   3.543
39186W        W 4171  31.519   1.994  11.070
39187W        W 4172  22.135  35.308  14.752
39188W        W 4173   5.738  43.991  11.184
39189W        W 4174  24.901   1.983   3.380
39190W        W 4175  32.423   6.119  13.514
39191W        W 4176  39.966  40.492  14.769
39192W        W 4177  35.036  14.774   1.719
39193W        W 4178  15.343  15.224   3.341
39194W        W 4179  16.070  41.278  12.078
39195W        W 4180  10.019  17.646  13.854
39196W        W 4181   7.478   6.073   0.935
39197W        W 4182  26.103  38.803  12.877
39198W        W 4183  34.699  40.374  11.645
39199W        W 4184  26.645  16.304  14.004
39200W        W 4185  21.648  11.006  11.099
39201W        W 4186  30.633  14.511  12.009
39202W        W 4187   2.155  24.771   3.406
39203W        W 4188   3.681  38.838   4.473
39204W        W 4189  44.322  11.782   3.609
39205W        W 4190  12.196   6.006   0.816
39206W        W 4191  11.154  25.699   2.966
39207W        W 4192  21.361   4.216   4.222
39208W        W 4193  23.831  18.433  11.136
39209W        W 4194  24.381  27.759   4.593
39210W        W 4195  16.573  35.821  13.016
39211W        W 4196  41.260  20.741  11.530
39212W        W 4197  28.397   0.725  14.904
39213W        W 4198  17.508   1.000   0.250
39214W        W 4199  20.968  12.770   2.682
39215W        W 4200  16.224   3.320   3.941
39216W        W 4201  24.761  33.973   2.341
39217W        W 4202   9.662  43.962   4.581
39218W        W 4203   4.901  16.297   3.695
39219W        W 4204  23.046  34.192   1.895
39220W        W 4205  28.094  36.031   4.611
39221W        W 4206   4.660  11.768   0.302
39222W        W 4207  11.177  35.242   4.008
39223W        W 4208  29.603  24.628   2.387
39224W        W 4209   5.708   7.200   2.188
39225W        W 4210  16.101  36.068   3.699
39226W        W 4211  27.733  15.553   3.288
39227W        W 4212   6.986   0.370  13.198
39228W        W 4213  39.042   8.885   3.087
39229W        W 4214  41.092   5.265   4.136
39230W        W 4215  14.175  21.716  11.130
39231W        W 4216  37.447  36.911   2.170
39232W        W 4217  15.897   0.226   2.331
39233W        W 4218  41.367  22.172   0.741
39234W        W 4219  14.661   8.359  10.879
39235W        W 4220   7.108  21.319  11.492
39236W        W 4221   2.537  22.621  11.376
39237W        W 4222  17.164  33.927  13.121
39238W        W 4223  33.990  36.328  14.858
39239W        W 4224   5.361   3.076   3.819
39240W        W 4225  13.282  28.564   2.141
39241W        W 4226  37.753  32.527   3.545
39242W        W 4227  44.486  23.300   2.840
39243W        W 4228   3.456  25.167   1.753
39244W        W 4229  25.631  30.421   2.747
39245W        W 4230  44.950  22.383  13.969
39246W        W 4231  36.949  24.276  12.301
39247W        W 4232  25.775   6.657  13.292
39248W        W 4233  10.115  43.393  13.890
39249W        W 4234  23.022  30.798   4.356
39250W        W 4235  13.187  24.978   0.722
39251W        W 4236  38.436   1.828   0.454
39252W        W 4237  40.542  32.372   4.526
39253W        W 4238   8.679   3.966  13.041
39254W        W 4239  17.067  37.779  14.614
39255W        W 4240  15.799   2.969  12.620
39256W        W 4241  40.611  42.239   2.573
39257W        W 4242  30.555  19.512   4.834
39258W        W 4243  39.424  40.389  14.645
39259W        W 4244  30.168  20.685  12.441
39260W        W 4245   7.434  12.313   0.447
39261W        W 4246  15.526  42.506   4.073
39262W        W 4247  21.040  22.146  11.758
39263W        W 4248   4.256  27.239  14.988
39264W        W 4249  33.675  11.231  12.423
39265W        W 4250   2.527  39.532  12.493
39266W        W 4251  39.387   7.757   1.433
39267W        W 4252  19.076  37.849  11.584
39268W        W 4253  29.143  22.828  12.607
39269W        W 4254  34.191   6.857   2.561
39270W        W 4255  19.200  34.044   4.187
39271W        W 4256  18.609  13.512  11.400
39272W        W 4257   1.344  15.072   3.151
39273W        W 4258  30.727  15.923  12.046
39274W        W 4259  17.899  22.103   3.775
39275W        W 4260  37.170  16.292  10.673
39276W        W 4261  41.872   8.214   2.050
39277W        W 4262   4.734  40.026  14.867
39278W        W 4263  17.147  26.971  12.155
39279W        W 4264   4.954  28.173  14.831
39280W        W 4265  40.893  26.633   0.615
39281W        W 4266  21.691  23.496  14.334
39282W        W 4267  20.379  20.664   0.121
39283W        W 4268  34.803  43.308  10.879
39284W        W 4269  28.129  18.117   0.764
39285W        W 4270  26.217  12.207   3.802
39286W        W 4271   0.297  11.129  13.517
39287W        W 4272  15.808  11.424  12.866
39288W        W 4273  42.293  12.860   3.604
39289W        W 4274  38.775  27.876   1.186
39290W        W 4275  13.367  16.401  13.517
39291W        W 4276   9.906  11.935   2.934
39292W        W 4277  12.316  18.801  10.385
39293W        W 4278  20.563  19.258   3.419
39294W        W 4279  33.873   9.493  14.965
39295W        W 4280  37.982  27.194   0.893
39296W        W 4281  21.204   8.424  14.404
39297W        W 4282  11.864  31.653   2.240
39298W        W 4283  27.111  10.819   0.731
39299W        W 4284  36.495  35.334  12.789
39300W        W 4285  28.536   3.693   3.808
39301W        W 4286  30.011   3.337  12.121
39302W        W 4287  16.114  42.870  13.995
39303W        W 4288   8.874  22.214   1.425
39304W        W 4289  23.491  31.152  11.076
39305W        W 4290  32.670  15.501  12.290
39306W        W 4291  17.275  13.636   0.541
39307W        W 4292  41.485   2.004  14.027
39308W        W 4293   0.445  24.701   0.668
39309W        W 4294   9.143  12.623  14.940
39310W        W 4295  15.891  12.831   4.010
39311W        W 4296  14.033  12.143  12.491
39312W        W 4297  21.197  16.186  13.450
39313W        W 4298  38.892  33.506  14.724
39314W        W 4299  33.111   7.361  14.986
39315W        W 4300   4.303   7.296   0.420
39316W        W 4301  28.929   8.947  13.424
39317W        W 4302  14.704  13.296   0.027
39318W        W 4303  21.159  44.838   0.825
39319W        W 4304  12.194  25.531  13.248
39320W        W 4305  22.600  39.282   1.182
39321W        W 4306  20.639  41.659  12.152
39322W        W 4307  34.923  43.870  13.544
39323W        W 4308   8.630  31.908   5.091
39324W        W 4309  10.118   5.227   3.154
39325W        W 4310   5.459  24.934  14.297
39326W        W 4311  11.871  20.546   3.279
39327W        W 4312  25.303  13.204   5.124
39328W        W 4313  42.957  11.906   4.013
39329W        W 4314  37.479   0.764  10.669
39330W        W 4315   3.001  31.553  12.066
39331W        W 4316   4.339  37.039  12.343
39332W        W 4317   7.818   5.448   0.284
39333W        W 4318  35.175  15.173   3.647
39334W        W 4319  30.463   5.119  14.095
39335W        W 4320  19.488   8.925  14.451
39336W        W 4321   2.242  31.572   3.281
39337W        W 4322  24.195  23.527   1.370
39338W        W 4323  22.539   0.849   1.640
39339W        W 4324   5.732  17.539  13.225
39340W        W 4325  11.644  24.015  14.855
39341W        W 4326  20.499  30.581  12.922
39342W        W 4327  36.259  11.580   3.250
39343W        W 4328  22.172  40.982  11.151
39344W        W 4329  15.741  44.365   5.104
39345W        W 4330  15.260  18.633   3.818
39346W        W 4331  26.694  16.770   4.138
39347W        W 4332   2.954  14.858  11.557
39348W        W 4333  38.859  18.335   2.204
39349W        W 4334  10.326  34.628  13.066
39350W        W 4335   2.697  40.375   1.367
39351W        W 4336  35.901   7.420   0.247
39352W        W 4337  27.609  30.014  12.761
39353W        W 4338   2.515   8.116  14.925
39354W        W 4339  25.157  22.171  13.165
39355W        W 4340   8.940  31.092   2.296
39356W        W 4341  16.012  21.189  13.523
39357W        W 4342  44.676   8.144  14.238
39358W        W 4343   8.747  13.470  13.933
39359W        W 4344  23.512   0.888  10.764
39360W        W 4345  39.536   9.472   0.337
39361W        W 4346  38.848  19.592  13.391
39362W        W 4347  22.881  39.105   4.188
39363W        W 4348  23.038   2.983   2.882
39364W        W 4349  19.974   5.376   0.456
39365W        W 4350   4.781  15.082   1.405
39366W        W 4351   4.881  14.808  11.911
39367W        W 4352  32.408  43.035  12.429
39368W        W 4353  14.331  22.494   1.324
39369W        W 4354  29.093  29.716  11.594
39370W        W 4355  20.972  21.725  11.090
39371W        W 4356  40.851  41.165  10.717
39372W        W 4357  27.453  32.494   2.692
39373W        W 4358  29.020   3.001  14.469
39374W        W 4359  14.004   8.032   1.964
39375W        W 4360   0.261   2.676   1.733
39376W        W 4361  14.488  40.666  11.953
39377W        W 4362  24.628  10.248   3.315
39378W        W 4363   5.747  24.290  12.396
39379W        W 4364   3.982  18.595  11.073
39380W        W 4365  33.250  35.657   3.259
39381W        W 4366  44.838  13.587  11.200
39382W        W 4367  44.311  30.029  13.256
39383W        W 4368   8.639   1.794  12.426
39384W        W 4369  14.256  28.995   2.713
39385W        W 4370  44.048  23.545  11.564
39386W        W 4371  13.637  41.532  12.336
39387W        W 4372  19.042  43.252   3.506
39388W        W 4373  18.331  19.512   3.094
39389W        W 4374  43.767  30.967  12.170
39390W        W 4375  24.266  12.983  10.976
39391W        W 4376  24.541  10.041  12.627
39392W        W 4377  20.727   3.047   3.637
39393W        W 4378   5.729  19.002   0.218
39394W        W 4379  40.534  18.684  12.059
39395W        W 4380  10.690  37.331   2.312
39396W        W 4381  39.540   1.775   0.367
39397W        W 4382  12.657  22.656  10.783
39398W        W 4383  28.647  33.810  11.700
39399W        W 4384  16.680  29.907  13.857
39400W        W 4385  42.218  17.815  10.870
39401W        W 4386  18.191  30.425  13.275
39402W        W 4387  32.337  44.822   1.807
39403W        W 4388  20.483  29.460  11.096
39404W        W 4389  44.257   7.678   3.781
39405W        W 4390   9.443  20.834  14.503
39406W        W 4391   4.319  19.286   1.275
39407W        W 4392  41.115  38.560   1.703
39408W        W 4393  21.008  22.150   3.117
39409W        W 4394  11.277   4.674  12.555
39410W        W 4395   5.902  24.986   2.288
39411W        W 4396  31.646  24.092   3.279
39412W        W 4397   3.286   3.709   2.790
39413W        W 4398   6.579   2.862   0.804
39414W        W 4399   1.140  44.383  11.089
39415W        W 4400  10.412  39.453  11.243
39416W        W 4401  39.827   9.209  12.890
39417W        W 4402  15.266  44.685   2.004
39418W        W 4403  15.691  41.592  14.466
39419W        W 4404   4.317  15.851  14.954
39420W        W 4405  39.154   2.283   3.720
39421W        W 4406  16.907  27.048  14.938
39422W        W 4407  18.172  14.195   3.806
39423W        W 4408  18.069  11.259   2.733
39424W        W 4409  14.116  12.455  12.089
39425W        W 4410  16.059  38.896   1.485
39426W        W 4411  20.182  21.124   5.383
39427W        W 4412  33.544   6.137  14.345
39428W        W 4413   0.536  17.570   2.748
39429W        W 4414  37.225   3.305  13.998
39430W        W 4415  42.095  17.637   1.395
39431W        W 4416   1.727  33.433   1.851
39432W        W 4417   0.011  35.119   5.002
39433W        W 4418   0.842  43.258   2.379
39434W        W 4419  41.872  16.740   1.388
39435W        W 4420  34.027  14.297  13.498
39436W        W 4421  11.146  15.781   1.906
39437W        W 4422  39.942  31.117   4.847
39438W        W 4423  38.077  30.862   4.028
39439W        W 4424  10.255  34.713   2.785
39440W        W 4425  35.805  29.941   2.224
39441W        W 4426  25.446  41.241   2.179
39442W        W 4427  40.904  10.273  11.647
39443W        W 4428   8.626  34.200  11.142
39444W        W 4429  44.930  26.759  13.026
39445W        W 4430  24.381  33.756   0.967
39446W        W 4431  12.731  43.424   3.590
39447W        W 4432  27.548  10.618   0.931
39448W        W 4433   8.006  20.096   4.114
39449W        W 4434   3.316  35.416  12.038
39450W        W 4435  33.474  23.826  12.069
39451W        W 4436  14.791   7.783  14.407
39452W        W 4437  11.593   8.281   2.247
39453W        W 4438  18.818  17.005  13.075
39454W        W 4439  16.117  25.201   5.132
39455W        W 4440  35.362  37.093   3.216
39456W        W 4441  42.990  37.315  13.755
39457W        W 4442  43.317  32.555  11.988
39458W        W 4443  28.398  21.989  10.515
39459W        W 4444  17.845  32.702   1.858
39460W        W 4445  33.505  42.816   4.579
39461W        W 4446  28.392  32.245  13.013
39462W        W 4447  38.495  32.482  10.609
39463W        W 4448   0.293  17.471   0.834
39464W        W 4449  25.704  39.861  13.555
39465W        W 4450  34.249  12.472  10.468
39466W        W 4451  29.339   5.508  13.155
39467W        W 4452  25.007  17.737   1.715
39468W        W 4453  24.228  27.074   3.613
39469W        W 4454  22.271   9.185   1.257
39470W        W 4455  16.158   8.699   0.097
39471W        W 4456  16.010  14.348   3.383
39472W        W 4457   0.531   5.262  14.831
39473W        W 4458  23.527  25.545   2.251
39474W        W 4459  32.188  33.443   0.332
39475W        W 4460  10.177  17.631  10.778
39476W        W 4461  19.754  29.639  14.421
39477W        W 4462  12.783  12.624   3.862
39478W        W 4463  40.074  38.432  13.099
39479W        W 4464   9.609  23.077   1.140
39480W        W 4465  21.534  42.042   4.537
39481W        W 4466   9.084  34.028  11.034
39482W        W 4467  27.193  42.951   2.822
39483W        W 4468  42.441  24.690  12.733
39484W        W 4469  20.440  44.883   3.483
39485W        W 4470  16.969  14.206  14.998
39486W        W 4471  35.398  44.018  10.684
39487W        W 4472  36.747  27.614  14.927
39488W        W 4473   3.181  25.041  14.331
39489W        W 4474  37.479   0.492  11.108
39490W        W 4475   6.666  27.034   4.347
39491W        W 4476  34.360  12.870   2.739
39492W        W 4477  30.694  35.088  12.165
39493W        W 4478  31.111  33.358   1.716
39494W        W 4479  28.999  36.416   1.357
39495W        W 4480  28.438  20.324   4.055
39496W        W 4481  42.881  20.736  14.361
39497W        W 4482  13.267   2.289  12.385
39498W        W 4483  13.776  13.773  10.577
39499W        W 4484  38.799  29.190  10.814
39500W        W 4485  26.969  20.115   0.982
39501W        W 4486   4.472  30.538   0.464
39502W        W 4487  33.980  21.040   3.718
39503W        W 4488  10.225  23.571  10.824
39504W        W 4489  41.434  34.030   2.787
39505W        W 4490   8.925  22.559  12.510
39506W        W 4491  41.507  27.533  14.127
39507W        W 4492  13.080  32.139   3.222
39508W        W 4493  44.787  20.186   1.133
39509W        W 4494  38.331  37.054  13.007
39510W        W 4495   4.636  33.198  11.211
39511W        W 4496  16.130   2.743  10.791
39512W        W 4497  14.541  22.964  11.656
39513W        W 4498  23.218   1.681   9.762
39514W        W 4499  21.088  39.406  13.368
39515W        W 4500   7.876  23.663   3.542
39516W        W 4501  32.004  27.605   1.610
39517W        W 4502  12.688   6.880   3.511
39518W        W 4503  32.463  12.626   2.627
39519W        W 4504   1.512  11.855  11.141
39520W        W 4505  40.031  36.158  12.286
39521W        W 4506  38.985  12.634   0.526
39522W        W 4507  30.200  11.818   0.467
39523W        W 4508  17.867  38.755   2.638
39524W        W 4509  15.189  39.457   4.647
39525W        W 4510  10.341  20.700   4.101
39526W        W 4511  44.512   6.309  11.569
39527W        W 4512  42.727  14.584   0.687
39528W        W 4513  23.354  37.757   4.132
39529W        W 4514   0.809   3.732   2.163
39530W        W 4515  41.847  38.625   3.273
39531W        W 4516  19.189  13.415   0.479
39532W        W 4517  43.441  38.318   2.787
39533W        W 4518  38.804  25.698  11.829
39534W        W 4519  27.651  11.847   0.443
39535W        W 4520  25.229  15.756   1.209
39536W        W 4521  21.057  15.185  14.730
39537W        W 4522  10.578  21.678   2.750
39538W        W 4523   4.730  24.290  11.707
39539W        W 4524  30.156  41.988  13.991
39540W        W 4525  38.798  29.075   1.467
39541W        W 4526  11.682  34.870   2.673
39542W        W 4527  19.740  13.648  12.949
39543W        W 4528  13.772  11.225   0.389
39544W        W 4529  30.986   5.264  10.343
39545W        W 4530   1.721   7.435   3.835
39546W        W 4531  10.728  43.054  12.062
39547W        W 4532  14.579  20.748   0.363
39548W        W 4533  16.726  40.443   2.256
39549W        W 4534  13.305  10.450   2.754
39550W        W 4535  11.634   7.723   0.953
39551W        W 4536  41.017  25.965  11.647
39552W        W 4537  10.089   9.385  14.814
39553W        W 4538  23.689  33.773  10.870
39554W        W 4539  27.981  20.724   2.898
39555W        W 4540   9.418   9.759  10.453
39556W        W 4541  12.642  41.333   3.887
39557W        W 4542  12.585  33.563   4.533
39558W        W 4543  42.591  19.061   1.204
39559W        W 4544  23.366   4.979   3.668
39560W        W 4545  32.340  28.092  11.982
39561W        W 4546  43.450  29.663  14.356
39562W        W 4547  21.616   5.868  14.052
39563W        W 4548  42.544  42.485  14.818
39564W        W 4549  40.953   5.454   0.891
39565W        W 4550  20.759  14.037   1.874
39566W        W 4551  10.717  36.604  10.572
39567W        W 4552   7.298  44.337   4.086
39568W        W 4553   8.200  42.800  11.978
39569W        W 4554  21.972   2.836   1.706
39570W        W 4555  20.030  23.989   3.447
39571W        W 4556  32.802   0.831  13.479
39572W        W 4557  44.864   3.159  14.774
39573W        W 4558  14.547  11.219  11.575
39574W        W 4559  37.946  29.004  14.256
39575W        W 4560  31.963  41.854  13.551
39576W        W 4561  14.436   7.784  11.206
39577W        W 4562  28.850  32.724   0.555
39578W        W 4563  15.320   5.872  13.526
39579W        W 4564  16.206  43.703   1.977
39580W        W 4565  39.532   9.162   1.805
39581W        W 4566  35.107  17.212  14.963
39582W        W 4567   5.204   6.632  14.538
39583W        W 4568  25.617  36.769   2.636
39584W        W 4569   1.819   8.834   1.394
39585W        W 4570  37.458  23.538  13.953
39586W        W 4571   3.703  13.201  11.745
39587W        W 4572  13.901  32.109   4.277
39588W        W 4573  18.833  30.400  11.974
39589W        W 4574  22.809   6.728   2.191
39590W        W 4575   6.712   1.983  13.315
39591W        W 4576  28.218  25.155  14.450
39592W        W 4577   0.919   3.545   0.786
39593W        W 4578  24.390  32.465   4.489
39594W        W 4579  11.353  23.215  13.911
39595W        W 4580  33.958  41.436  14.040
39596W        W 4581  21.745  30.638  11.503
39597W        W 4582  38.825  10.373  14.388
39598W        W 4583   6.336  15.499   0.695
39599W        W 4584  29.061  39.929  11.301
39600W        W 4585  32.156   5.451   0.887
39601W        W 4586   9.185  30.883   1.785
39602W        W 4587   3.192  40.478   3.620
39603W        W 4588   8.363  10.628   0.772
39604W        W 4589  13.314  42.388  11.150
39605W        W 4590  10.716  10.358  11.639
39606W        W 4591  28.711   3.422  12.551
39607W        W 4592   4.314  28.538   4.413
39608W        W 4593  28.398  25.111  13.895
39609W        W 4594  43.022   1.118  10.504
39610W        W 4595  15.971  27.722  11.632
39611W        W 4596  34.870   5.627   5.086
39612W        W 4597  27.955  20.123   0.577
39613W        W 4598  44.104  18.154   4.109
39614W        W 4599  22.549  35.071  10.551
39615W        W 4600   9.201  32.351   2.816
39616W        W 4601  26.526   3.964   0.748
39617W        W 4602   4.543  16.839  12.086
39618W        W 4603  33.554   0.147   3.665
39619W        W 4604  14.687   2.006  13.961
39620W        W 4605  30.150  33.520  14.848
39621W        W 4606  43.677  16.332   1.815
39622W        W 4607  41.603  32.546  10.320
39623W        W 4608   2.449  24.506  14.420
39624W        W 4609  38.736  43.013  13.434
39625W        W 4610  28.707  24.032   4.541
39626W        W 4611  40.915  11.225  13.763
39627W        W 4612  35.986  15.885   0.735
39628W        W 4613  25.687   2.257   1.263
39629W        W 4614  21.539  15.727   4.727
39630W        W 4615  42.828  37.379  11.366
39631W        W 4616  20.637  22.221   3.665
39632W        W 4617   1.012   0.451   2.590
39633W        W 4618  28.609  13.346  14.928
39634W        W 4619  33.447  34.865   4.899
39635W        W 4620  35.388  30.613   1.700
39636W        W 4621  14.085  39.502   3.945
39637W        W 4622  38.579   3.907   4.058
39638W        W 4623   9.791  19.241   0.924
39639W        W 4624   1.435  33.094   2.308
39640W        W 4625   0.807  29.834   2.357
39641W        W 4626  17.822  13.897  13.540
39642W        W 4627  21.243  40.297   4.524
39643W        W 4628  34.011  42.524  11.744
39644W        W 4629  44.192  20.670  10.515
39645W        W 4630  36.985   1.222  10.651
39646W        W 4631  32.907  15.891   3.874
39647W        W 4632  32.159   5.955   0.966
39648W        W 4633  19.303  22.444  14.988
39649W        W 4634  35.202  18.785  11.730
39650W        W 4635  29.005  13.299   2.826
39651W        W 4636  42.382  32.067   4.774
39652W        W 4637  16.028  33.083   2.124
39653W        W 4638   9.405   9.187   2.724
39654W        W 4639  31.239  27.988   2.743
39655W        W 4640  21.161  13.614   4.571
39656W        W 4641  33.628  18.439  12.408
39657W        W 4642   8.901   2.230  13.915
39658W        W 4643  44.787   8.682   4.230
39659W        W 4644   0.552  28.695   0.516
39660W        W 4645   6.023  32.178   2.169
39661W        W 4646  30.311  20.212   3.267
39662W        W 4647  23.369  37.248  12.003
39663W        W 4648   8.644  20.197  12.810
39664W        W 4649  17.614   5.743  12.833
39665W        W 4650   6.648  43.367   2.898
39666W        W 4651  24.170   8.825   1.182
39667W        W 4652  30.872  39.757   3.343
39668W        W 4653  19.107  26.319  13.365
39669W        W 4654  37.339  24.012   3.129
39670W        W 4655  14.322  31.924   1.247
39671W        W 4656   4.042  14.715  12.401
39672W        W 4657  28.584  44.129   1.061
39673W        W 4658   0.513  38.054  12.599
39674W        W 4659  27.822  13.582   2.489
39675W        W 4660  40.075  32.535  11.570
39676W        W 4661  21.060  32.177   2.303
39677W        W 4662  14.826  21.488  11.661
39678W        W 4663  16.315   0.924   2.750
39679W        W 4664  10.031  39.810  11.932
39680W        W 4665  30.253  27.088   3.729
39681W        W 4666  37.348  14.283   0.982
39682W        W 4667  43.721  16.216   2.685
39683W        W 4668  19.571  36.245  11.077
39684W        W 4669  43.348   9.906  10.698
39685W        W 4670  31.955  16.408   2.625
39686W        W 4671   0.477  38.433   3.196
39687W        W 4672  32.595  11.614   2.337
39688W        W 4673  42.517   1.403   0.344
39689W        W 4674  16.397  36.649  13.977
39690W        W 4675  42.396  38.646  14.204
39691W        W 4676  10.194  11.556  14.256
39692W        W 4677  27.588   9.172   2.012
39693W        W 4678  34.495   9.549   1.064
39694W        W 4679  44.469  12.103  11.694
39695W        W 4680  31.060   2.915   1.954
39696W        W 4681   5.167  22.063   0.419
39697W        W 4682  23.851  40.731  14.181
39698W        W 4683  18.542  19.206  12.128
39699W        W 4684   8.290  16.956   2.429
39700W        W 4685   5.684  19.000  10.487
39701W        W 4686  27.963  32.338   3.337
39702W        W 4687  39.020  34.035   1.192
39703W        W 4688  28.508   9.831   1.837
39704W        W 4689  19.246   6.467   1.851
39705W        W 4690  37.550  11.650   4.501
39706W        W 4691   3.911   4.253  14.517
39707W        W 4692   2.239  32.739   3.905
39708W        W 4693  40.050  36.286  10.386
39709W        W 4694  17.309   4.656   1.528
39710W        W 4695   4.920  41.867  13.587
39711W        W 4696  27.026  19.159   1.045
39712W        W 4697  38.816   8.267   3.759
39713W        W 4698   7.654  38.914  12.928
39714W        W 4699   9.327  23.253   3.415
39715W        W 4700  23.973  41.943  11.117
39716W        W 4701  15.584  29.461  10.747
39717W        W 4702  21.670   6.185  10.845
39718W        W 4703  27.472  11.347   0.491
39719W        W 4704  28.872   2.929  10.309
39720W        W 4705  28.206   6.956   2.793
39721W        W 4706  17.988  44.056  10.766
39722W        W 4707   7.922  34.630  11.594
39723W        W 4708  15.514  20.756  12.136
39724W        W 4709  29.874  40.791   0.344
39725W        W 4710  21.536  38.880   0.870
39726W        W 4711   2.251  17.678  13.088
39727W        W 4712   7.266  29.104  11.377
39728W        W 4713  16.702  27.915  13.957
39729W        W 4714  28.233  20.970  13.396
39730W        W 4715  35.406   2.433  11.237
39731W        W 4716  35.835  13.554  10.876
39732W        W 4717  26.383  22.108  10.126
39733W        W 4718  14.513   5.739   3.302
39734W        W 4719  32.599  35.954  14.757
39735W        W 4720  33.957  10.829   4.637
39736W        W 4721  35.927  13.032   0.928
39737W        W 4722  32.629  22.684   2.568
39738W        W 4723   8.102  28.620   3.705
39739W        W 4724   1.687  24.695   3.609
39740W        W 4725  39.343  41.827   3.296
39741W        W 4726  41.199  36.077  14.471
39742W        W 4727  36.298  40.407  12.304
39743W        W 4728  15.596  39.328  14.834
39744W        W 4729  24.738  14.259   3.923
39745W        W 4730  21.688  20.670   3.047
39746W        W 4731   3.229  31.850  13.861
39747W        W 4732  10.266  43.014  14.855
39748W        W 4733  27.569  19.954   4.021
39749W        W 4734  14.970   1.792   4.511
39750W        W 4735   6.292  10.838   3.714
39751W        W 4736  34.985  26.544  10.113
39752W        W 4737  41.488  14.278   3.677
39753W        W 4738  19.244  11.929  11.828
39754W        W 4739  43.435  32.651  14.318
39755W        W 4740  27.856   0.642  12.869
39756W        W 4741  44.871  27.238   5.468
39757W        W 4742  30.583   5.428  14.473
39758W        W 4743  27.688  26.974  14.040
39759W        W 4744  14.608  37.351   3.713
39760W        W 4745   1.913  39.271   3.660
39761W        W 4746  36.924  26.222  14.682
39762W        W 4747  29.462  15.487  12.112
39763W        W 4748   1.416  25.508  11.646
39764W        W 4749  17.228  10.741  13.422
39765W        W 4750  17.265  42.842  13.502
39766W        W 4751  32.864   6.552   4.229
39767W        W 4752  43.595   9.421  12.886
39768W        W 4753  17.883  33.746   0.341
39769W        W 4754  19.504   7.415  11.062
39770W        W 4755  25.607  31.587  14.673
39771W        W 4756  16.539  38.576  12.993
39772W        W 4757  21.340  13.905   4.982
39773W        W 4758  31.477   1.439   3.652
39774W        W 4759  41.816   5.423   3.717
39775W        W 4760  27.409  24.918   3.657
39776W        W 4761  20.621  19.941   1.535
39777W        W 4762   7.914  41.976   3.631
39778W        W 4763  10.082  36.024  14.501
39779W        W 4764  26.968  39.912   3.198
39780W        W 4765   1.357  18.059  14.816
39781W        W 4766  15.795  16.614  14.223
39782W        W 4767   8.884  34.688  10.210
39783W        W 4768  35.566  39.793   1.713
39784W        W 4769  43.956  30.116   1.151
39785W        W 4770  26.930  16.072   3.444
39786W        W 4771   1.944   2.941   2.719
39787W        W 4772  16.669  38.438   2.232
39788W        W 4773  41.364  31.224   3.706
39789W        W 4774  29.760  34.497   4.932
39790W        W 4775   0.250  34.128   4.605
39791W        W 4776  23.255  22.996  13.851
39792W        W 4777   5.286  42.718  12.008
39793W        W 4778  23.879  20.980   5.056
39794W        W 4779  18.081   0.493   1.812
39795W        W 4780  17.420  35.450  13.032
39796W        W 4781  12.101  39.859   3.350
39797W        W 4782  20.683  39.780  12.115
39798W        W 4783  42.807   6.450  14.033
39799W        W 4784  21.517  14.790  14.322
39800W        W 4785  41.833  35.556   3.201
39801W        W 4786  38.442  36.831  11.581
39802W        W 4787  23.415   6.276   3.309
39803W        W 4788  35.925  41.872   2.051
39804W        W 4789  14.263   9.101   1.190
39805W        W 4790  33.474  40.358   0.325
39806W        W 4791  35.572  16.305   0.865
39807W        W 4792  29.101   9.947  13.538
39808W        W 4793   7.285  30.366  14.296
39809W        W 4794  37.423  28.972   1.047
39810W        W 4795  38.108   4.665   4.204
39811W        W 4796  37.697  27.117  11.530
39812W        W 4797  23.265  38.862  13.478
39813W        W 4798  13.740  25.158   1.470
39814W        W 4799  36.215  42.216  10.870
39815W        W 4800  13.151  14.041  13.812
39816W        W 4801   3.849   2.394   4.771
39817W        W 4802  31.407  20.779   3.701
39818W        W 4803  36.465  37.404   0.406
39819W        W 4804  24.778  23.490   3.256
39820W        W 4805  10.130   3.516   2.689
39821W        W 4806   3.369  11.650  13.032
39822W        W 4807   7.893  23.602  13.969
39823W        W 4808  21.025  30.126  11.477
39824W        W 4809  18.991  34.766  11.055
39825W        W 4810  12.906  42.413  14.742
39826W        W 4811  31.154   0.568  12.037
39827W        W 4812  11.641  34.358   2.629
39828W        W 4813   7.465  36.403   2.229
39829W        W 4814  14.668   6.771   1.775
39830W        W 4815  25.501   7.779   4.497
39831W        W 4816  41.867  19.628  14.937
39832W        W 4817   4.879  13.334   2.707
39833W        W 4818  34.196   3.251   2.212
39834W        W 4819  35.278  20.120  13.700
39835W        W 4820   0.341  23.155   3.097
39836W        W 4821  41.237  22.475  14.401
39837W        W 4822  19.164  20.948   3.670
39838W        W 4823  27.650  18.082   0.053
39839W        W 4824  38.451  25.280  10.327
39840W        W 4825   3.208   6.397  11.579
39841W        W 4826  33.167  26.941   2.105
39842W        W 4827  21.997  14.980  13.394
39843W        W 4828  22.207  39.535  13.755
39844W        W 4829  13.878   2.232   0.291
39845W        W 4830  33.222  36.551   2.214
39846W        W 4831  11.942  43.747   3.188
39847W        W 4832   9.852  34.391  13.029
39848W        W 4833  34.384  29.047  13.494
39849W        W 4834  13.280   5.732   1.610
39850W        W 4835  39.025  40.383   5.052
39851W        W 4836  27.562  37.148   2.853
39852W        W 4837  30.672  39.451   2.983
39853W        W 4838  15.030  32.792   3.257
39854W        W 4839  39.254  39.545   3.225
39855W        W 4840   1.110  29.577   2.841
39856W        W 4841   2.428  37.490  11.501
39857W        W 4842   2.922  32.622   0.446
39858W        W 4843   9.776  14.230  13.113
39859W        W 4844  22.845   5.870   2.092
39860W        W 4845  25.031  21.659   4.083
39861W        W 4846  43.517  25.242  11.084
39862W        W 4847   5.719  29.080  14.037
39863W        W 4848  30.109  11.270   1.638
39864W        W 4849  17.290   0.960  11.093
39865W        W 4850  22.136  42.556  11.051
39866W        W 4851  26.452   2.346  13.803
39867W        W 4852  17.147  24.729  11.658
39868W        W 4853  10.778  24.723   4.059
39869W        W 4854  42.839   7.876  12.463
39870W        W 4855  16.661  26.454  10.236
39871W        W 4856  27.466  37.348  13.939
39872W        W 4857  17.844   7.204  12.507
39873W        W 4858  42.034  13.858  14.756
39874W        W 4859  36.785  36.952  14.620
39875W        W 4860  37.371  28.635   0.305
39876W        W 4861  24.752  11.111   1.235
39877W        W 4862  43.267  20.596   9.877
39878W        W 4863  20.611  28.707  12.506
39879W        W 4864  44.832  10.944  13.383
39880W        W 4865  20.149  29.702  13.431
39881W        W 4866  15.295  35.794   3.280
39882W        W 4867   3.280  41.860  13.701
39883W        W 4868   7.435  13.310   1.342
39884W        W 4869   4.514   6.793  11.187
39885W        W 4870  19.027  26.485  12.452
39886W        W 4871  22.896   9.793   3.765
39887W        W 4872   1.537  28.453   4.843
39888W        W 4873  10.831  39.352  10.984
39889W        W 4874  31.672  27.671  12.997
39890W        W 4875   2.010   3.185  10.603
39891W        W 4876   3.722  29.004   0.170
39892W        W 4877  33.888  27.587  11.968
39893W        W 4878  17.770  31.238  10.415
39894W        W 4879  17.170  43.406   1.677
39895W        W 4880  23.102   1.315   3.639
39896W        W 4881   8.096  18.629   0.451
39897W        W 4882  40.299  12.146  14.336
39898W        W 4883  31.841  40.142   0.285
39899W        W 4884  28.705  40.737   4.582
39900W        W 4885  22.979   3.726   4.678
39901W        W 4886  30.889  26.354  14.848
39902W        W 4887  30.722  15.912  14.324
39903W        W 4888  39.779  28.530  10.623
39904W        W 4889   3.971  39.421   1.047
39905W        W 4890  23.128  19.255  14.382
39906W        W 4891  37.622   2.037   2.453
39907W        W 4892  16.398   0.914   3.608
39908W        W 4893   8.774  24.505   3.647
39909W        W 4894  18.346   8.853  10.778
39910W        W 4895  10.135   7.870  14.868
39911W        W 4896   4.801  26.046   4.620
39912W        W 4897  41.771  32.479  14.082
39913W        W 4898  44.291   9.696   1.832
39914W        W 4899   5.521  28.701   0.400
39915W        W 4900  31.987  15.344   0.789
39916W        W 4901  36.489  22.478   4.551
39917W        W 4902  20.217  18.129   9.984
39918W        W 4903  21.439  31.390   0.127
39919W        W 4904   3.347  29.885   2.548
39920W        W 4905  40.440  10.132  11.474
39921W        W 4906  19.777  32.058  13.633
39922W        W 4907   7.466   4.551  14.535
39923W        W 4908   4.829  11.476  14.052
39924W        W 4909  41.075  28.556  14.433
39925W        W 4910   2.054  23.090  13.337
39926W        W 4911  38.310   6.499  11.283
39927W        W 4912  37.775  26.117  10.201
39928W        W 4913  35.112  19.221   2.021
39929W        W 4914  33.479   7.172   1.418
39930W        W 4915  10.847  12.708  11.556
39931W        W 4916  19.636  30.575  11.000
39932W        W 4917  10.766  21.044   2.215
39933W        W 4918  29.579  36.951  11.887
39934W        W 4919  34.891  37.312   0.215
39935W        W 4920  30.928  18.202   3.796
39936W        W 4921   3.474   4.295   1.227
39937W        W 4922   9.660   1.269   2.944
39938W        W 4923  37.879   2.102   1.970
39939W        W 4924   7.855  23.438   4.443
39940W        W 4925  24.687  37.589   3.757
39941W        W 4926  26.401  24.171   3.996
39942W        W 4927  44.107  36.046  11.231
39943W        W 4928  13.203   7.367   1.722
39944W        W 4929  35.676  23.469  14.385
39945W        W 4930  13.366  31.568  12.856
39946W        W 4931  40.143  30.496  13.909
39947W        W 4932   5.405  38.981   3.161
39948W        W 4933  17.805  40.459   2.138
39949W        W 4934  14.292  44.924  12.627
39950W        W 4935  30.468  10.694  11.530
39951W        W 4936   2.402  28.858  13.584
39952W        W 4937  12.759  23.076   1.578
39953W        W 4938  25.948  42.342   2.895
39954W        W 4939  14.376   1.479   1.667
39955W        W 4940  27.416  33.392  14.467
39956W        W 4941  12.416  21.752   1.696
39957W        W 4942  24.124  27.221   0.767
39958W        W 4943  20.654   4.423  11.347
39959W        W 4944  12.198  37.257   1.238
39960W        W 4945  14.801  39.309  11.007
39961W        W 4946  19.550  22.599   0.911
39962W        W 4947  40.511  13.683  14.958
39963W        W 4948  31.587  33.259   2.873
39964W        W 4949  20.726  44.955   4.028
39965W        W 4950  42.719  24.400   4.103
39966W        W 4951  12.767  29.897   1.722
39967W        W 4952  15.000   9.282  10.617
39968W        W 4953  22.897  41.336  11.656
39969W        W 4954  26.676   5.789   1.639
39970W        W 4955  44.285  12.068  14.380
39971W        W 4956  17.707  10.848   1.929
39972W        W 4957  17.669   9.904   9.979
39973W        W 4958  41.341  28.582  14.912
39974W        W 4959  27.347   2.469   9.710
39975W        W 4960  29.608  32.795  12.004
39976W        W 4961  21.493  11.626   3.739
39977W        W 4962  24.470  39.525  13.778
39978W        W 4963  23.959  17.514  14.708
39979W        W 4964  18.266  39.152  11.796
39980W        W 4965  17.603  17.669   3.565
39981W        W 4966   8.551  15.988  10.985
39982W        W 4967  26.065  11.253   4.269
39983W        W 4968  15.539  42.604  14.410
39984W        W 4969  42.030   6.678   1.753
39985W        W 4970  37.770  24.429  11.396
39986W        W 4971   2.870   6.687   3.855
39987W        W 4972   0.336   5.418   2.251
39988W        W 4973  24.685   4.430  14.034
39989W        W 4974  39.271  14.962   3.967
39990W        W 4975  20.214  17.229  10.664
39991W        W 4976  40.513  42.056   2.106
39992W        W 4977  44.158   5.204   0.892
39993W        W 4978  13.398  36.338   1.786
39994W        W 4979   7.101   6.663  14.700
39995W        W 4980  35.872  20.816   0.829
39996W        W 4981  21.667  24.784  12.895
39997W        W 4982  18.209   8.830  14.710
39998W        W 4983  26.399  26.324  14.965
39999W        W 4984  34.771  10.290  12.428
40000W        W 4985  15.652  15.318   0.156
40001W        W 4986  12.737  16.991   0.413
40002W        W 4987  28.034   4.894   3.568
40003W        W 4988  31.385  35.456   1.887
40004W        W 4989  38.431  30.324   3.391
40005W        W 4990  15.158  17.316  13.020
40006W        W 4991  35.994   2.296  10.651
40007W        W 4992  41.893  12.762  13.462
40008W        W 4993  38.334  31.843   3.352
40009W        W 4994   6.128  25.570  12.917
40010W        W 4995  19.824  41.677  10.881
40011W        W 4996  13.575  22.176  13.236
40012W        W 4997   3.976  11.927  14.852
40013W        W 4998   9.174  13.653  12.892
40014W        W 4999  16.608   6.894  11.233
40015W        W 5000  10.804  14.689  12.363
40016W        W 5001   0.543  29.629   1.919
40017W        W 5002  31.111  16.274   4.285
40018W        W 5003  22.888   4.013   5.110
40019W        W 5004   8.787  32.547   1.423
40020W        W 5005  30.511  43.571  11.157
40021W        W 5006  16.225  15.595  14.768
40022W        W 5007  17.741  12.145  12.757
40023W        W 5008  23.242  10.245  12.480
40024W        W 5009  26.936  38.059   1.928
40025W        W 5010  42.891  19.605   5.212
40026W        W 5011   8.293  12.308   1.701
40027W        W 5012   0.691  19.171  14.478
40028W        W 5013  17.265  19.153   1.680
40029W        W 5014  11.581  15.773  11.788
40030W        W 5015   8.918   2.795  12.537
40031W        W 5016  12.646  33.098   4.810
40032W        W 5017  32.167   8.877  14.880
40033W        W 5018  35.658  34.074   0.234
40034W        W 5019  36.857  28.048   0.229
40035W        W 5020  29.697   9.045   1.743
40036W        W 5021  19.856  17.654   0.368
40037W        W 5022  22.330  21.906   1.356
40038W        W 5023  41.040  20.054  14.537
40039W        W 5024  35.096  12.685  11.510
40040W        W 5025   9.358  18.714   1.381
40041W        W 5026  27.972  22.618   2.741
40042W        W 5027   0.341  15.575  14.832
40043W        W 5028  31.265  14.731  12.739
40044W        W 5029   7.651   6.439   3.526
40045W        W 5030   7.612  16.173  11.134
40046W        W 5031  11.349  30.087   4.042
40047W        W 5032  22.080  19.618   0.782
40048W        W 5033  25.771  28.637  10.631
40049W        W 5034  24.706  10.462  10.360
40050W        W 5035  10.826  25.093   1.229
40051W        W 5036  26.678  16.527   3.198
40052W        W 5037  15.980   3.357   1.929
40053W        W 5038  17.801  35.040   3.672
40054W        W 5039  13.823   2.249   1.272
40055W        W 5040   7.633  38.042  12.482
40056W        W 5041   0.932  11.944  11.523
40057W        W 5042  43.509  27.443  12.852
40058W        W 5043  33.516  33.644  11.861
40059W        W 5044  36.463  37.837   0.707
40060W        W 5045  37.661  24.799   4.616
40061W        W 5046  20.761  35.305  12.437
40062W        W 5047  26.777  30.874   3.792
40063W        W 5048  29.150  15.083   3.523
40064W        W 5049  22.255  43.491   2.415
40065W        W 5050   9.364  34.557  13.007
40066W        W 5051  40.300  42.845   0.368
40067W        W 5052   3.414  12.371  14.274
40068W        W 5053   4.621  35.591  12.952
40069W        W 5054  40.515   9.923   9.829
40070W        W 5055  20.645   9.343  11.854
40071W        W 5056  12.970  13.349   0.955
40072W        W 5057   5.921  21.655  13.788
40073W        W 5058  18.224  14.331   1.023
40074W        W 5059   3.166   5.842   4.700
40075W        W 5060   4.843  23.103   0.740
40076W        W 5061   6.402  11.826   2.293
40077W        W 5062  25.908  16.311   0.389
40078W        W 5063   2.972  36.176  14.790
40079W        W 5064  15.967   5.972  12.567
40080W        W 5065  27.557   1.229   3.174
40081W        W 5066  29.971  13.800   2.771
40082W        W 5067   9.256  21.511   3.591
40083W        W 5068   3.147  15.242   2.683
40084W        W 5069  11.188   8.196   0.702
40085W        W 5070   3.726  34.670  12.316
40086W        W 5071  22.142  21.382   4.503
40087W        W 5072  22.070  42.499  12.710
40088W        W 5073  36.071  21.049   0.396
40089W        W 5074  44.438  38.493   1.256
40090W        W 5075  42.176   0.278   0.780
40091W        W 5076   1.567  26.649  14.043
40092W        W 5077  41.421  16.306  12.097
40093W        W 5078  21.124  42.500   0.370
40094W        W 5079  41.488  29.028   1.678
40095W        W 5080  34.484  19.981   2.190
40096W        W 5081   1.723  19.211   0.284
40097W        W 5082  21.233  18.238  10.993
40098W        W 5083  23.324  40.770  13.942
40099W        W 5084  13.544  38.011   2.133
40100W        W 5085  18.766   9.174   0.423
40101W        W 5086   1.332   2.666  14.770
40102W        W 5087   8.190  16.294   3.990
40103W        W 5088  34.037  10.643   4.164
40104W        W 5089   6.694   5.987  13.000
40105W        W 5090  29.869  22.414   2.761
40106W        W 5091  23.254  32.063  12.702
40107W        W 5092  18.281  27.074   3.697
40108W        W 5093  26.186  36.020  10.717
40109W        W 5094   9.325  34.877   3.679
40110W        W 5095  18.945  37.994   4.003
40111W        W 5096  16.646  41.910   4.585
40112W        W 5097  41.839  44.355  11.457
40113W        W 5098  25.662  41.965  13.859
40114W        W 5099   6.781  14.016   1.233
40115W        W 5100  13.679  36.477   0.501
40116W        W 5101   4.964   1.231  13.103
40117W        W 5102  14.127   3.743   2.233
40118W        W 5103  35.593   3.441  14.904
40119W        W 5104   7.412   1.147   3.752
40120W        W 5105   6.159  15.061  13.795
40121W        W 5106  25.482   7.849  13.082
40122W        W 5107  11.973   0.769   4.468
40123W        W 5108   4.607  15.613  10.128
40124W        W 5109  10.808   9.839   1.951
40125W        W 5110  30.334  38.440  12.584
40126W        W 5111   0.409  35.600   0.742
40127W        W 5112  29.533  13.555   4.554
40128W        W 5113  38.301  20.078  13.973
40129W        W 5114  35.776  33.568   0.885
40130W        W 5115  16.488   2.004   0.811
40131W        W 5116  41.935  30.974   4.501
40132W        W 5117  13.119  16.299   2.809
40133W        W 5118  21.258  31.210  11.990
40134W        W 5119   6.304  39.085   4.652
40135W        W 5120  24.591  11.864   2.858
40136W        W 5121  39.103  13.365  11.650
40137W        W 5122  30.883  31.839   1.907
40138W        W 5123  38.398  30.622  14.008
40139W        W 5124  30.594   3.580   2.335
40140W        W 5125  16.339  38.433  14.301
40141W        W 5126  40.277  30.101   2.615
40142W        W 5127   9.895  27.306   4.133
40143W        W 5128  10.843  12.410  12.492
40144W        W 5129  20.624  18.004   2.730
40145W        W 5130  33.568  28.424   3.232
40146W        W 5131  19.106  29.975   3.702
40147W        W 5132  37.676  25.352   3.166
40148W        W 5133  13.758  41.904   0.427
40149W        W 5134  32.921  42.459   3.708
40150W        W 5135   9.997  37.131  12.041
40151W        W 5136  37.406  21.996   1.821
40152W        W 5137  25.734  27.192  13.549
40153W        W 5138   5.306  40.391  14.537
40154W        W 5139   0.538   6.856  11.238
40155W        W 5140  33.259  12.595  14.956
40156W        W 5141  39.509  17.190   0.979
40157W        W 5142   2.188  38.601   4.617
40158W        W 5143  43.753  24.656   0.146
40159W        W 5144   8.210   9.232  11.566
40160W        W 5145   0.133  30.766  13.586
40161W        W 5146   2.899  33.871   3.152
40162W        W 5147   2.479  10.655  13.035
40163W        W 5148  28.030   2.188   3.153
40164W        W 5149  20.528   1.612  13.414
40165W        W 5150   5.737  44.977  14.941
40166W        W 5151  18.086  33.318   0.531
40167W        W 5152   6.583  33.163  11.066
40168W        W 5153  34.608  17.120  13.406
40169W        W 5154  32.823  24.442  12.534
40170W        W 5155  31.870  40.850   4.356
40171W        W 5156  42.319  32.638   2.242
40172W        W 5157  30.588  16.838   0.680
40173W        W 5158  20.395   8.172  10.241
40174W        W 5159  28.796   6.953   0.172
40175W        W 5160  37.021  11.968   3.677
40176W        W 5161  16.198  22.779  12.881
40177W        W 5162  17.107  28.555   0.867
40178W        W 5163  28.657  21.263  13.521
40179W        W 5164  24.490   9.140  14.996
40180W        W 5165  30.430  23.716   0.349
40181W        W 5166  20.543   3.418   0.718
40182W        W 5167   9.807  19.554   2.284
40183W        W 5168   7.378  10.359   1.840
40184W        W 5169  42.448   4.886   2.786
40185W        W 5170  22.694  19.665  14.961
40186W        W 5171  32.463  38.988   1.804
40187W        W 5172  40.107  37.961  11.789
40188W        W 5173  26.241   2.773   1.935
40189W        W 5174  23.919  14.934   3.203
40190W        W 5175  41.263   9.662   4.150
40191W        W 5176  35.788  24.307   0.689
40192W        W 5177  17.546   8.534   2.701
40193W        W 5178  32.058  43.286  13.751
40194W        W 5179   2.974  19.485  14.495
40195W        W 5180  42.959  28.896  14.337
40196W        W 5181  10.698  11.126  14.934
40197W        W 5182  22.175  27.041  11.611
40198W        W 5183   9.009   9.370  12.385
40199W        W 5184  28.033  11.179   0.293
40200W        W 5185  37.079  13.857   0.013
40201W        W 5186  25.711  32.700   4.703
40202W        W 5187  32.948  16.322   0.800
40203W        W 5188  26.228  27.481   2.847
40204W        W 5189  12.203   0.038  14.923
40205W        W 5190  39.848  24.528  14.087
40206W        W 5191  11.228  11.116   0.284
40207W        W 5192  15.305  38.950  11.479
40208W        W 5193  13.249  23.579   1.754
40209W        W 5194  18.219  10.207   2.252
40210W        W 5195  34.055  31.888   5.002
40211W        W 5196   9.584  20.071  12.969
40212W        W 5197  12.706  31.138   4.530
40213W        W 5198  34.920  40.440  13.854
40214W        W 5199  44.792   9.733   0.457
40215W        W 5200  31.861  13.221   3.736
40216W        W 5201  24.288  36.810  12.908
40217W        W 5202  24.127  43.873   4.381
40218W        W 5203  38.457  30.018  10.783
40219W        W 5204   7.802  43.038   0.479
40220W        W 5205  40.584   2.342   4.643
40221W        W 5206   2.978  16.872  11.021
40222W        W 5207   5.392   4.791   3.592
40223W        W 5208  14.545  43.243   3.868
40224W        W 5209  24.607  11.401   1.729
40225W        W 5210  37.420   9.544   9.714
40226W        W 5211  33.804  28.155   0.761
40227W        W 5212  17.403  28.768   3.882
40228W        W 5213  35.332  39.924   2.173
40229W        W 5214  17.120   3.474   2.887
40230W        W 5215  27.478  39.318   1.050
40231W        W 5216  12.283  16.736   1.206
40232W        W 5217  40.017   3.272  12.946
40233W        W 5218  21.639  34.628  12.844
40234W        W 5219  18.784  25.463   4.917
40235W        W 5220  39.233  42.415  13.060
40236W        W 5221   4.260  43.949  10.724
40237W        W 5222  16.472  12.173  12.603
40238W        W 5223   5.930   3.831  13.537
40239W        W 5224   5.846  42.772  13.548
40240W        W 5225   9.198  14.858   3.749
40241W        W 5226  20.680  21.811   3.342
40242W        W 5227   7.972  23.272  11.973
40243W        W 5228  36.541  44.438  13.532
40244W        W 5229   6.944  20.016   0.441
40245W        W 5230  22.034  12.056   0.729
40246W        W 5231  18.045  27.616   3.701
40247W        W 5232  30.217   1.939  10.335
40248W        W 5233  27.196   4.785   1.535
40249W        W 5234  42.524  16.697  11.803
40250W        W 5235   3.237   7.492   5.182
40251W        W 5236   4.395  39.350   2.358
40252W        W 5237   5.475  38.975  13.668
40253W        W 5238  42.978  38.056   2.676
40254W        W 5239  36.974  25.186  11.452
40255W        W 5240   0.992  22.093   1.965
40256W        W 5241  18.625  42.204  11.207
40257W        W 5242  16.073  28.022  14.749
40258W        W 5243   5.571   4.864   5.319
40259W        W 5244  31.563  13.181  10.990
40260W        W 5245  36.584  21.121  12.903
40261W        W 5246  39.805  37.567   3.136
40262W        W 5247  15.760  20.614   0.860
40263W        W 5248  31.834  41.845  10.749
40264W        W 5249  26.492  31.045   4.185
40265W        W 5250  33.252  16.041  12.724
40266W        W 5251  11.320   0.831   4.490
40267W        W 5252   0.891  29.801   3.248
40268W        W 5253  29.559   8.958   3.201
40269W        W 5254  24.554  12.292   4.378
40270W        W 5255  27.229  35.955  13.822
40271W        W 5256  40.292  15.231  14.995
40272W        W 5257  32.667  36.701   4.192
40273W        W 5258  17.865  10.779   2.894
40274W        W 5259  21.443   0.364  10.765
40275W        W 5260  34.894  31.919   2.253
40276W        W 5261  31.533  41.354  10.661
40277W        W 5262  20.823  11.803  12.861
40278W        W 5263  41.260  33.448  10.510
40279W        W 5264   2.672  10.493   3.199
40280W        W 5265  40.777  19.095   1.410
40281W        W 5266  14.056   5.562  14.770
40282W        W 5267  15.828   1.514  12.505
40283W        W 5268   2.663  26.461   2.706
40284W        W 5269  27.381  22.514   0.270
40285W        W 5270  36.001   5.359   0.741
40286W        W 5271  10.580  32.826   3.747
40287W        W 5272  27.095  39.888   4.150
40288W        W 5273  10.100  15.663   3.177
40289W        W 5274   1.916  44.364   1.653
40290W        W 5275   8.161  11.286   4.677
40291W        W 5276   4.862  41.887  11.705
40292W        W 5277  34.864   6.227  14.952
40293W        W 5278   6.481  22.198   0.808
40294W        W 5279  27.608  38.548   4.400
40295W        W 5280   9.350  31.253  14.836
40296W        W 5281  13.128  35.923   0.904
40297W        W 5282  13.378  37.119  13.316
40298W        W 5283  43.797  16.258   4.598
40299W        W 5284  33.631  16.542   0.912
40300W        W 5285  33.673   6.650  12.532
40301W        W 5286  36.415  42.311   3.231
40302W        W 5287   9.572   0.325   1.668
40303W        W 5288   7.274  18.565  13.388
40304W        W 5289   2.487   1.207   0.460
40305W        W 5290  32.607  34.339   3.089
40306W        W 5291  30.401  24.527   1.316
40307W        W 5292   8.263  29.863   0.491
40308W        W 5293  10.397  15.119   1.967
40309W        W 5294   2.897  25.418   1.693
40310W        W 5295   0.582  13.718   1.803
40311W        W 5296  35.377  10.144   3.556
40312W        W 5297  23.207   5.553   0.826
40313W        W 5298   9.100  34.574  11.007
40314W        W 5299  18.489  22.741  12.563
40315W        W 5300  43.724  26.488  12.005
40316W        W 5301  33.545   0.790  13.913
40317W        W 5302   5.215  38.970   4.346
40318W        W 5303  21.259  16.231   3.586
40319W        W 5304  11.741  42.222  11.505
40320W        W 5305  37.078  26.700  13.973
40321W        W 5306   9.622  29.524   4.980
40322W        W 5307  14.574  29.149  12.575
40323W        W 5308  43.112  33.966   0.755
40324W        W 5309  21.952  36.020   2.894
40325W        W 5310   6.378  14.416  12.056
40326W        W 5311  41.952  42.482   3.898
40327W        W 5312  11.096  11.251   1.785
40328W        W 5313   1.313  21.202   4.949
40329W        W 5314  10.646   1.923  11.599
40330W        W 5315  30.446  36.289   3.697
40331W        W 5316  34.698  13.960   4.410
40332W        W 5317   4.476  22.967   4.259
40333W        W 5318  36.289   9.310  14.952
40334W        W 5319  31.965  33.406  10.732
40335W        W 5320   9.081  12.561   2.656
40336W        W 5321  44.457  16.803   3.648
40337W        W 5322  19.767  10.279   1.632
40338W        W 5323  35.928  25.642   3.299
40339W        W 5324  31.950  35.620  14.928
40340W        W 5325  34.476  43.238   4.056
40341W        W 5326   0.533  26.045  12.233
40342W        W 5327   6.637  32.091  14.193
40343W        W 5328  25.903   1.980  13.547
40344W        W 5329  36.072  27.632  14.298
40345W        W 5330  11.737  18.268   4.231
40346W        W 5331  15.395  26.126   3.596
40347W        W 5332   5.344  10.728   3.276
40348W        W 5333  23.101  11.214  14.148
40349W        W 5334  21.232  29.645   0.606
40350W        W 5335   2.365  30.040   1.915
40351W        W 5336  43.282  32.004   4.896
40352W        W 5337  36.419  42.053  14.845
40353W        W 5338   7.190  22.376  14.629
40354W        W 5339  15.321  16.135  13.868
40355W        W 5340  39.820  23.728  10.694
40356W        W 5341  10.036  20.450   1.359
40357W        W 5342  16.333  19.536  11.044
40358W        W 5343  31.698  34.126   2.824
40359W        W 5344  26.118  15.567  10.154
40360W        W 5345  29.616  38.601   3.189
40361W        W 5346  26.624  10.118  14.364
40362W        W 5347  26.142  29.867  14.965
40363W        W 5348  18.251   6.562   5.391
40364W        W 5349  21.508   0.799   2.616
40365W        W 5350   7.586  25.533   0.213
40366W        W 5351  30.864  14.197   3.297
40367W        W 5352  12.559  14.285   0.998
40368W        W 5353   1.809  11.201   2.589
40369W        W 5354  19.206  37.986  14.419
40370W        W 5355  10.942  28.568  11.138
40371W        W 5356  35.426  30.343  11.569
40372W        W 5357   6.815  32.579  12.470
40373W        W 5358  43.084   7.535   1.505
40374W        W 5359  36.811  18.640  14.360
40375W        W 5360  37.300  32.309  11.145
40376W        W 5361  36.396  28.959  10.728
40377W        W 5362  13.830  13.723   4.886
40378W        W 5363   1.774   5.931  13.904
40379W        W 5364   8.198  12.251   2.210
40380W        W 5365  32.079  42.547   2.381
40381W        W 5366  36.859  41.565  10.776
40382W        W 5367  43.971  29.938   0.643
40383W        W 5368  20.556   7.879   4.327
40384W        W 5369  11.255  33.629   2.829
40385W        W 5370  29.794   2.882  12.818
40386W        W 5371  25.423  27.595  11.522
40387W        W 5372  43.885  31.980   0.491
40388W        W 5373  42.358   3.287  11.204
40389W        W 5374  36.952  17.988   4.712
40390W        W 5375   3.740  12.132   3.135
40391W        W 5376  33.732  20.104   1.297
40392W        W 5377  20.948  40.620   1.887
40393W        W 5378   2.303  20.753  11.598
40394W        W 5379  27.123  14.261   3.774
40395W        W 5380  34.565  20.223   0.962
40396W        W 5381  17.949  36.907  10.907
40397W        W 5382  17.564  34.658   0.085
40398W        W 5383  24.449  28.662   2.228
40399W        W 5384  28.083   9.642  13.920
40400W        W 5385   6.919   4.444   2.627
40401W        W 5386   6.778  31.154   1.345
40402W        W 5387  42.472  29.963   0.350
40403W        W 5388  17.642   3.653   2.638
40404W        W 5389  42.235  43.926   1.932
40405W        W 5390  10.311   0.219  11.824
40406W        W 5391  42.124  14.248   4.563
40407W        W 5392   1.215  13.092   2.360
40408W        W 5393  27.042  10.720   4.598
40409W        W 5394  29.216  31.725  14.048
40410W        W 5395   9.326  33.763   3.832
40411W        W 5396  14.612  31.431   1.873
40412W        W 5397  20.193  41.974   0.299
40413W        W 5398  28.500  34.600   3.165
40414W        W 5399   2.870  27.968  11.621
40415W        W 5400  15.361  35.873  11.245
40416W        W 5401  39.893  18.340  13.802
40417W        W 5402  38.320  18.028  12.480
40418W        W 5403  37.544   0.956  13.102
40419W        W 5404  13.153  37.839   4.300
40420W        W 5405  19.290  13.156  11.014
40421W        W 5406   0.867  44.852   3.285
40422W        W 5407  18.171  29.244   1.872
40423W        W 5408  11.749  34.318  12.069
40424W        W 5409  21.461  34.130  10.625
40425W        W 5410  33.980   8.726   3.725
40426W        W 5411   3.118  27.946   4.800
40427W        W 5412  38.722  14.058   2.248
40428W        W 5413   1.454  38.317  14.681
40429W        W 5414  34.797  44.903   4.374
40430W        W 5415  10.682  17.747  12.034
40431W        W 5416  24.917  38.555  13.177
40432W        W 5417  30.642  42.889   0.896
40433W        W 5418   7.864   3.796   0.945
40434W        W 5419  11.270   4.256  13.212
40435W        W 5420  25.127  40.400   4.511
40436W        W 5421   2.112   5.863  11.190
40437W        W 5422  13.386  16.266   4.485
40438W        W 5423  19.509  25.572  14.764
40439W        W 5424   8.592   0.056  13.805
40440W        W 5425  25.915  31.609   2.899
40441W        W 5426  30.957  18.087  12.462
40442W        W 5427   7.123  37.035  10.627
40443W        W 5428  21.125   2.195   2.769
40444W        W 5429  32.569   5.260  13.808
40445W        W 5430  44.966   1.189  13.906
40446W        W 5431  16.318  12.953  13.982
40447W        W 5432  22.109  24.313   5.003
40448W        W 5433  39.402  38.374   2.658
40449W        W 5434  21.970  28.056   3.392
40450W        W 5435   9.733  39.893  11.213
40451W        W 5436  27.369   4.129  14.765
40452W        W 5437  44.796  25.215   3.953
40453W        W 5438  20.427  23.753   4.109
40454W        W 5439  13.696  44.978   1.376
40455W        W 5440   1.069  29.316   3.297
40456W        W 5441  14.126  35.014  13.972
40457W        W 5442  42.991  40.240  12.363
40458W        W 5443  20.254  28.716  13.386
40459W        W 5444  32.985  41.391   2.216
40460W        W 5445   8.859  42.512  14.437
40461W        W 5446  20.138  12.681   4.355
40462W        W 5447   7.183   6.260  12.062
40463W        W 5448  24.217   5.834  10.275
40464W        W 5449  19.093  21.998  12.384
40465W        W 5450   0.679  22.824   3.323
40466W        W 5451  31.843   7.121  10.745
40467W        W 5452  26.418   1.673   3.886
40468W        W 5453  15.926  33.460  13.107
40469W        W 5454  31.015   8.626  14.098
40470W        W 5455  41.913  24.617   3.702
40471W        W 5456  15.800  36.688  11.116
40472W        W 5457  38.093   4.951   3.425
40473W        W 5458   5.316   9.406  12.624
40474W        W 5459  13.875  37.523  11.152
40475W        W 5460  22.975   8.823  14.396
40476W        W 5461  24.450  36.593   3.900
40477W        W 5462  35.824   3.856  14.594
40478W        W 5463  32.000  18.649  12.036
40479W        W 5464   1.945  37.953  14.755
40480W        W 5465  34.511   7.982  11.979
40481W        W 5466  11.338   6.688   1.792
40482W        W 5467  30.560  38.464  14.985
40483W        W 5468  29.841   7.218  11.044
40484W        W 5469  17.987   9.039  12.475
40485W        W 5470  35.589  43.788  14.779
40486W        W 5471   0.872  13.861   3.678
40487W        W 5472  27.022   6.970   3.693
40488W        W 5473  23.981  41.582   0.289
40489W        W 5474  27.092  13.578   4.905
40490W        W 5475   9.974  15.199  14.369
40491W        W 5476  23.241  21.993   1.418
40492W        W 5477  37.319  10.744  13.976
40493W        W 5478  35.921   3.730  12.888
40494W        W 5479  32.596   6.944   0.141
40495W        W 5480   3.026  41.420   4.336
40496W        W 5481   3.369  33.102   2.673
40497W        W 5482  18.302   1.878   0.511
40498W        W 5483  36.354  15.635   0.475
40499W        W 5484  28.247  27.822  13.642
40500W        W 5485  40.364  25.734   3.037
40501W        W 5486  30.787  18.332   1.788
40502W        W 5487   5.414  12.263  12.147
40503W        W 5488  31.280  27.748   4.040
40504W        W 5489  25.176  15.470  12.465
40505W        W 5490  24.119  17.182  11.124
40506W        W 5491  42.966   7.459  11.519
40507W        W 5492  12.759   2.765   4.585
40508W        W 5493   1.680  12.111  12.835
40509W        W 5494   6.722   4.098  13.949
40510W        W 5495   4.963  24.084  13.846
40511W        W 5496  29.075  10.440  12.749
40512W        W 5497  18.135  22.493  12.872
40513W        W 5498   8.381  35.982  11.170
40514W        W 5499  23.100  21.454  11.104
40515W        W 5500   0.963  39.036   2.174
40516W        W 5501  36.602  33.365  12.920
40517W        W 5502  18.658  18.312   3.577
40518W        W 5503   6.338  39.844   1.449
40519W        W 5504  20.083  17.538  12.936
40520W        W 5505  16.325  27.093  12.493
40521W        W 5506   9.104  19.623   4.922
40522W        W 5507  36.503  25.698  14.967
40523W        W 5508  12.382  36.994   4.682
40524W        W 5509  26.463  18.731   1.700
40525W        W 5510  29.141  32.043   4.260
40526W        W 5511  17.715  33.374   1.299
40527W        W 5512   7.193  14.884  14.837
40528W        W 5513  30.303   4.669  14.258
40529W        W 5514  39.026  37.433   4.080
40530W        W 5515   9.396  21.238  10.961
40531W        W 5516   6.840  42.385  12.838
40532W        W 5517  44.237  17.206   2.485
40533W        W 5518   8.190  33.305  14.923
40534W        W 5519  42.413  38.944   9.701
40535W        W 5520  34.354  30.878  12.214
40536W        W 5521   1.913  43.610  14.441
40537W        W 5522  32.816  32.227   0.770
40538W        W 5523  19.667  40.097  13.973
40539W        W 5524   4.213  17.213  12.573
40540W        W 5525  42.943   1.420   0.638
40541W        W 5526   5.187  26.506  12.950
40542W        W 5527  33.039  41.448  14.510
40543W        W 5528  35.696  42.318   1.888
40544W        W 5529   5.674   4.643   4.374
40545W        W 5530  16.283  39.143  12.040
40546W        W 5531   5.982  16.391  14.835
40547W        W 5532  44.880  40.889   1.194
40548W        W 5533  42.102   7.243   2.221
40549W        W 5534   9.972  29.592   2.464
40550W        W 5535  28.661  11.412  11.755
40551W        W 5536   3.904  18.506   0.495
40552W        W 5537  17.565  18.599   4.489
40553W        W 5538  33.755  26.569   2.648
40554W        W 5539  24.671  38.070  13.952
40555W        W 5540  33.077  40.975  10.587
40556W        W 5541  23.404  23.651  14.961
40557W        W 5542  24.044  10.841  12.182
40558W        W 5543   4.207  44.848   1.678
40559W        W 5544  30.049  37.908  11.994
40560W        W 5545  23.698  30.202   3.125
40561W        W 5546  29.147  21.447  13.582
40562W        W 5547  44.611  38.359  12.228
40563W        W 5548  31.366  33.461   0.744
40564W        W 5549   0.508  13.244   2.863
40565W        W 5550  20.607  11.317  13.801
40566W        W 5551  38.474  27.528  11.138
40567W        W 5552  35.079  38.364  13.562
40568W        W 5553  13.626  32.332   3.152
40569W        W 5554  10.906  20.745  14.332
40570W        W 5555  44.391  33.127   2.019
40571W        W 5556  24.709  21.507   4.950
40572W        W 5557  18.655   7.908  14.943
40573W        W 5558  27.305  24.150  14.801
40574W        W 5559  35.091   9.829   1.432
40575W        W 5560   3.923  33.122   4.404
40576W        W 5561  38.746   6.204   1.460
40577W        W 5562  43.059  28.669  11.136
40578W        W 5563  11.220   5.297  14.499
40579W        W 5564  13.124   4.915   3.984
40580W        W 5565  24.095  28.891   3.891
40581W        W 5566   0.771   6.184   3.663
40582W        W 5567  23.697  22.326   1.336
40583W        W 5568  37.337  24.987   3.317
40584W        W 5569  12.336  39.371   2.294
40585W        W 5570  44.190  33.997   3.207
40586W        W 5571   3.843  18.557   1.302
40587W        W 5572   6.895  42.549  14.810
40588W        W 5573  36.007  23.421   1.227
40589W        W 5574  22.253  21.573  13.059
40590W        W 5575   5.304  36.066  14.347
40591W        W 5576  18.296  10.777  10.849
40592W        W 5577  39.514  24.468   2.942
40593W        W 5578  36.381  35.960  11.603
40594W        W 5579  30.431  16.661  12.519
40595W        W 5580   2.873  19.476   1.938
40596W        W 5581  44.387  21.212   3.604
40597W        W 5582  18.205   0.876   4.532
40598W        W 5583  12.684   3.426  14.456
40599W        W 5584  35.634  42.909   2.743
40600W        W 5585   0.467  26.080   2.843
40601W        W 5586  22.939  36.525  11.017
40602W        W 5587   3.819  31.961  12.818
40603W        W 5588  26.530  16.125  12.742
40604W        W 5589  27.810  25.396   5.090
40605W        W 5590  20.715  31.793   4.707
40606W        W 5591   1.763   7.083  13.325
40607W        W 5592  41.835  23.891  14.363
40608W        W 5593   7.211  33.359  13.591
40609W        W 5594   2.351  24.188   3.159
40610W        W 5595  30.806   3.316  10.495
40611W        W 5596  33.866   4.218  13.488
40612W        W 5597  16.524   0.541  13.923
40613W        W 5598  28.628   5.257   1.662
40614W        W 5599  42.760  31.216  12.003
40615W        W 5600  36.900  30.383  12.606
40616W        W 5601  20.229  23.682   1.722
40617W        W 5602  37.459   6.193   2.764
40618W        W 5603  23.710  28.241   0.329
40619W        W 5604   1.514   6.632   3.672
40620W        W 5605  26.048  38.582  12.337
40621W        W 5606  19.467   0.426  14.390
40622W        W 5607  42.989  43.364  12.885
40623W        W 5608   2.514   7.168  10.072
40624W        W 5609  12.936  40.016  11.959
40625W        W 5610   3.329  10.705  11.045
40626W        W 5611   3.429  19.291   0.225
40627W        W 5612  23.710  35.814  13.045
40628W        W 5613  42.890  29.182  12.409
40629W        W 5614  33.017  19.984  13.466
40630W        W 5615  22.189   1.232   0.591
40631W        W 5616  34.903  27.159   4.053
40632W        W 5617  44.891  34.414   3.658
40633W        W 5618  16.242  20.177   1.935
40634W        W 5619  33.229  11.630   1.309
40635W        W 5620  28.440  14.341  11.530
40636W        W 5621  24.193   5.649  14.357
40637W        W 5622  25.995  38.812   2.570
40638W        W 5623  23.599  38.534  11.294
40639W        W 5624   7.243  22.343   3.676
40640W        W 5625  21.051  34.002   3.676
40641W        W 5626  31.388  15.140  11.957
40642W        W 5627  16.070  34.063   1.716
40643W        W 5628  13.512  29.044   3.305
40644W        W 5629  22.518  40.852  10.265
40645W        W 5630  34.174  21.625   2.397
40646W        W 5631  26.688  36.824  13.893
40647W        W 5632   1.951  12.798   0.445
40648W        W 5633  39.763  14.088   0.900
40649W        W 5634  35.203  24.628   2.687
40650W        W 5635  19.083  27.123  10.665
40651W        W 5636  13.088   9.353  12.706
40652W        W 5637  29.196  39.452   0.370
40653W        W 5638  11.098  34.074   3.434
40654W        W 5639  37.841   1.589  13.014
40655W        W 5640  32.919  33.480   1.891
40656W        W 5641  26.807   8.735  10.259
40657W        W 5642  25.750   9.147  13.178
40658W        W 5643  36.473  19.068   2.184
40659W        W 5644  22.824  40.469   2.005
40660W        W 5645   6.944  28.104  11.058
40661W        W 5646  42.997  14.614  11.556
40662W        W 5647  21.532  16.299   4.100
40663W        W 5648  32.642  18.398  11.243
40664W        W 5649   2.365  36.458   3.565
40665W        W 5650  30.541   2.714   5.634
40666W        W 5651  11.613  11.386  13.358
40667W        W 5652  31.187  39.505   2.112
40668W        W 5653  21.006  42.827   2.286
40669W        W 5654  23.175  39.614  10.995
40670W        W 5655  16.530   1.250  13.158
40671W        W 5656  27.328  21.655  14.007
40672W        W 5657  15.336  15.266  13.743
40673W        W 5658  21.965   1.405  11.189
40674W        W 5659  36.246  29.588  13.441
40675W        W 5660  18.549  10.111  13.429
40676W        W 5661   0.690  19.650   5.026
40677W        W 5662  30.887  37.411   3.325
40678W        W 5663  18.582  11.196  13.324
40679W        W 5664  31.101  36.506   0.369
40680W        W 5665  29.576  27.989  12.366
40681W        W 5666  29.374  42.316   3.150
40682W        W 5667  25.044  25.156   3.088
40683W        W 5668  22.415  11.662  14.432
40684W        W 5669  28.925  42.636   0.340
40685W        W 5670  37.383  39.371  12.756
40686W        W 5671  16.219   0.759  14.340
40687W        W 5672   6.917   6.939  11.199
40688W        W 5673  19.258  19.206  12.210
40689W        W 5674  44.212   5.238  12.046
40690W        W 5675  22.514  27.827   2.750
40691W        W 5676  18.482  40.858   4.041
40692W        W 5677  30.900  44.871  13.761
40693W        W 5678  22.563  17.299   2.281
40694W        W 5679  10.594  25.178   2.661
40695W        W 5680  30.149  26.218   3.345
40696W        W 5681  19.134  42.767   1.795
40697W        W 5682   1.350  41.162  14.410
40698W        W 5683   4.767  19.201  10.590
40699W        W 5684  10.729  24.886  13.524
40700W        W 5685   6.916  26.821  10.617
40701W        W 5686  43.362   1.196  13.430
40702W        W 5687  31.865  36.311   2.606
40703W        W 5688  11.206   0.726   2.273
40704W        W 5689  38.577  29.601  11.188
40705W        W 5690  31.952   9.374  10.276
40706W        W 5691  31.530  16.350   2.150
40707W        W 5692  40.841  29.997  13.983
40708W        W 5693  43.571   7.275   2.432
40709W        W 5694  37.582  18.561   1.905
40710W        W 5695  29.904  38.188  12.474
40711W        W 5696  14.308  33.566   1.392
40712W        W 5697   8.145  29.155   1.734
40713W        W 5698   6.272  41.974   4.515
40714W        W 5699  16.279  11.599  10.997
40715W        W 5700   6.212  33.060   3.268
40716W        W 5701  36.801  35.342  12.321
40717W        W 5702  29.143  12.861   2.093
40718W        W 5703  30.283  26.555  12.529
40719W        W 5704  29.148  44.796   4.069
40720W        W 5705  42.360   7.440  14.894
40721W        W 5706   7.488  14.843  13.964
40722W        W 5707  22.729  10.485  13.885
40723W        W 5708   9.902  27.057  13.019
40724W        W 5709  39.614  21.594  11.373
40725W        W 5710   5.488  40.759   4.619
40726W        W 5711  21.689  32.953  12.375
40727W        W 5712  26.764  43.342  11.574
40728W        W 5713  36.329  10.611   3.232
40729W        W 5714  33.405  20.493   1.313
40730W        W 5715  43.948  19.308  11.412
40731W        W 5716  22.628  37.996   0.205
40732W        W 5717  15.249  31.867  14.858
40733W        W 5718  15.205  35.292   3.379
40734W        W 5719   2.722  42.385   2.788
40735W        W 5720  43.861  17.581   2.975
40736W        W 5721  26.951   7.821  14.385
40737W        W 5722  37.056  29.890  12.520
40738W        W 5723  40.497  42.755   1.194
40739W        W 5724  19.644   1.352   4.457
40740W        W 5725  36.381  36.758  13.925
40741W        W 5726  16.238   2.221  10.883
40742W        W 5727  39.469   4.973   0.861
40743W        W 5728  16.807   4.655   0.799
40744W        W 5729  15.629  44.801   1.464
40745W        W 5730  31.363  13.308   1.864
40746W        W 5731  35.440  22.398  14.189
40747W        W 5732  44.690  15.752   0.986
40748W        W 5733  26.994  11.222   2.326
40749W        W 5734  16.690  19.313   2.164
40750W        W 5735  15.794  26.658  12.068
40751W        W 5736   0.289  18.468  14.038
40752W        W 5737   2.815  37.817  10.669
40753W        W 5738  28.680  42.037  10.584
40754W        W 5739  39.919   1.720  14.989
40755W        W 5740  40.260  29.920   1.372
40756W        W 5741  31.636  35.892  10.546
40757W        W 5742  13.222  37.796  11.582
40758W        W 5743  28.999  40.858   0.490
40759W        W 5744  15.315  17.238  11.428
40760W        W 5745  13.384   1.365   4.577
40761W        W 5746   1.344  25.331  13.579
40762W        W 5747  12.934   3.883  11.550
40763W        W 5748  14.805  41.926  14.427
40764W        W 5749   2.169   6.233   3.290
40765W        W 5750  21.169  43.863   9.908
40766W        W 5751  39.992  33.532   3.212
40767W        W 5752  32.624   3.833  11.540
40768W        W 5753   1.646  43.725   0.470
40769W        W 5754  40.883  22.306   3.250
40770W        W 5755   6.786   5.102  13.938
40771W        W 5756  43.875   1.067   1.479
40772W        W 5757  34.906  14.184  14.101
40773W        W 5758  34.337  17.559  14.451
40774W        W 5759  14.855   3.090  14.943
40775W        W 5760   4.847  37.122  11.623
40776W        W 5761   3.299  44.704   2.821
40777W        W 5762  42.537  23.541   2.109
40778W        W 5763  23.212  32.969  11.856
40779W        W 5764  18.192  24.644  11.695
40780W        W 5765  39.815  35.880  14.986
40781W        W 5766  39.839  14.335  13.076
40782W        W 5767   9.209  15.963   4.882
40783W        W 5768  26.950  43.724  12.948
40784W        W 5769   3.423   8.582  13.097
40785W        W 5770  25.857  31.131   3.528
40786W        W 5771   8.982  39.932   0.249
40787W        W 5772  32.388  23.100   0.222
40788W        W 5773   5.789   4.181   4.105
40789W        W 5774   5.497  41.831  14.462
40790W        W 5775  23.056  28.139  11.250
40791W        W 5776  28.960   1.156   4.176
40792W        W 5777   2.576  18.350  10.807
40793W        W 5778  21.516  40.016  13.974
40794W        W 5779  34.893  23.394  13.824
40795W        W 5780   4.587  39.989   4.623
40796W        W 5781  42.241  41.757  14.023
40797W        W 5782   2.362   6.686   3.133
40798W        W 5783  44.030  21.582   3.591
40799W        W 5784  16.650  43.597  14.936
40800W        W 5785  38.842  13.759  11.414
40801W        W 5786  17.165  39.987  12.621
40802W        W 5787  15.189   2.314   0.029
40803W        W 5788   3.992  41.386  13.969
40804W        W 5789  44.081  30.069  14.781
40805W        W 5790  38.045  27.600   3.245
40806W        W 5791  35.899  20.520  13.005
40807W        W 5792  18.158  25.700   2.961
40808W        W 5793  17.188  15.088  11.506
40809W        W 5794  12.888  37.328  14.322
40810W        W 5795  31.328   7.742   2.223
40811W        W 5796  30.024  35.297   3.567
40812W        W 5797  29.384  22.315   1.907
40813W        W 5798  28.976  20.586   3.098
40814W        W 5799  39.904  31.816  12.082
40815W        W 5800  34.439  27.660   0.966
40816W        W 5801  10.267   4.331  11.720
40817W        W 5802  10.131  37.418   4.945
40818W        W 5803  42.346  40.341   2.878
40819W        W 5804  20.787  43.585   0.696
40820W        W 5805  29.120   3.825   3.671
40821W        W 5806  10.753  14.002   0.015
40822W        W 5807  11.208  43.483  10.534
40823W        W 5808  10.665  12.746   1.249
40824W        W 5809  42.948  10.777   2.207
40825W        W 5810  12.279  20.130   1.646
40826W        W 5811   2.441  18.064   1.785
40827W        W 5812  32.248  33.449   9.870
40828W        W 5813  41.815  20.681   0.034
40829W        W 5814  12.523  12.258  14.021
40830W        W 5815  29.514  21.626  10.499
40831W        W 5816  19.972  41.615   0.718
40832W        W 5817  26.813  13.613  12.686
40833W        W 5818   1.841  16.782  11.644
40834W        W 5819  30.901  36.585   4.710
40835W        W 5820   8.636  32.124  14.067
40836W        W 5821  36.492  26.638  11.915
40837W        W 5822  10.480  25.103  10.179
40838W        W 5823  15.658  30.152   2.909
40839W        W 5824  24.041  23.985  12.029
40840W        W 5825  25.892  23.828  13.124
40841W        W 5826  36.626   7.705   1.161
40842W        W 5827  30.500   2.228   1.861
40843W        W 5828  35.511  25.056   2.759
40844W        W 5829  11.726   6.669  14.484
40845W        W 5830  15.585  38.078   1.845
40846W        W 5831  38.951  34.351  13.349
40847W        W 5832   6.272  15.682   1.386
40848W        W 5833  43.288  23.149  13.373
40849W        W 5834   7.206  13.437   0.895
40850W        W 5835   8.352  28.653   2.327
40851W        W 5836  10.902  12.656   1.714
40852W        W 5837  36.949   7.949   0.762
40853W        W 5838  33.727  39.409   1.919
40854W        W 5839  26.913  33.922   4.209
40855W        W 5840  43.285  21.836  12.093
40856W        W 5841  31.716  33.563  13.102
40857W        W 5842   8.926  34.056  11.535
40858W        W 5843  37.883  28.989   4.647
40859W        W 5844  23.649  17.250   1.767
40860W        W 5845   9.331  16.924  14.864
40861W        W 5846   6.515  38.407   1.176
40862W        W 5847  40.703  31.653  10.546
40863W        W 5848   8.309  34.565   4.280
40864W        W 5849  13.136  28.147   2.429
40865W        W 5850   0.448  16.262   4.587
40866W        W 5851  17.235  20.598   2.748
40867W        W 5852  22.408   2.242  14.828
40868W        W 5853   4.308   1.714  12.513
40869W        W 5854  23.242   5.817   4.130
40870W        W 5855   2.391  44.442  10.752
40871W        W 5856  39.728   9.278  11.165
40872W        W 5857  20.060  15.652  11.573
40873W        W 5858   4.514  13.155   4.271
40874W        W 5859  33.823  19.810   1.724
40875W        W 5860  19.628   7.462  10.168
40876W        W 5861  31.368  29.096   1.385
40877W        W 5862  32.509  17.858  12.119
40878W        W 5863   5.901  33.950  13.348
40879W        W 5864  32.001  23.417  11.223
40880W        W 5865  38.393   0.310   4.527
40881W        W 5866  36.055  21.843  11.513
40882W        W 5867   8.139  12.864  11.871
40883W        W 5868  19.612  19.801   0.448
40884W        W 5869   2.320  28.775   1.875
40885W        W 5870   4.831  31.678   1.881
40886W        W 5871  17.685   5.855   3.178
40887W        W 5872  34.670  34.016  10.663
40888W        W 5873  43.856  37.940  12.924
40889W        W 5874  27.154  39.358   3.310
40890W        W 5875  16.788   8.678  14.483
40891W        W 5876  27.831   4.358  11.161
40892W        W 5877  36.615  21.023  13.407
40893W        W 5878   0.816  21.088   3.157
40894W        W 5879  21.687  26.496  14.814
40895W        W 5880  16.866  35.291   0.207
40896W        W 5881  29.654  17.698   2.783
40897W        W 5882  32.369  32.416  10.830
40898W        W 5883   1.685  38.882  11.630
40899W        W 5884  37.542  31.034   1.194
40900W        W 5885  28.605   0.248  14.732
40901W        W 5886   8.366  29.204  12.288
40902W        W 5887  44.463  21.519  11.499
40903W        W 5888  17.321   5.403  14.998
40904W        W 5889  22.786  22.535  11.369
40905W        W 5890  41.001  43.463   0.770
40906W        W 5891  30.448  19.966  14.265
40907W        W 5892  39.279  39.999   2.416
40908W        W 5893  23.916  22.621   2.836
40909W        W 5894  34.646  28.170   0.469
40910W        W 5895  11.516  42.662   4.500
40911W        W 5896  19.959  24.885   0.247
40912W        W 5897  17.616  42.265   2.974
40913W        W 5898   3.509  11.593  12.124
40914W        W 5899   7.856  44.448   4.885
40915W        W 5900  14.830  37.058  12.587
40916W        W 5901  18.776  41.539   0.334
40917W        W 5902  23.228   9.273  14.457
40918W        W 5903   2.749   9.499  11.227
40919W        W 5904   3.419  15.617  14.515
40920W        W 5905  20.438   4.594  13.047
40921W        W 5906  17.794  15.085   2.935
40922W        W 5907  37.990  44.548   0.371
40923W        W 5908  44.831   1.399   4.499
40924W        W 5909  28.061  18.613  13.743
40925W        W 5910  21.710  43.955  14.035
40926W        W 5911  26.761   3.405  14.432
40927W        W 5912   0.734   3.797   0.357
40928W        W 5913  10.206  15.989   0.765
40929W        W 5914  38.074  26.226   1.847
40930W        W 5915  27.218   4.806   4.332
40931W        W 5916   9.696  21.998   2.319
40932W        W 5917   4.699  43.643  13.476
40933W        W 5918  30.947   2.287   0.448
40934W        W 5919  18.204   0.110  11.636
40935W        W 5920   4.166  14.277   3.777
40936W        W 5921  13.574  12.446  14.836
40937W        W 5922  37.075  19.630  12.997
40938W        W 5923  14.746  34.947   3.655
40939W        W 5924   2.270  22.095   3.249
40940W        W 5925  33.397  41.102  12.528
40941W        W 5926   3.429  40.552   0.852
40942W        W 5927  36.492  12.219   0.381
40943W        W 5928  40.550  12.722   2.434
40944W        W 5929  27.515  17.267   1.406
40945W        W 5930  31.615  38.986  13.022
40946W        W 5931   6.929   9.800   0.840
40947W        W 5932  43.994  41.497   1.317
40948W        W 5933  10.659  34.023   0.258
40949W        W 5934  13.174  24.745  13.516
40950W        W 5935  39.379  32.635   5.259
40951W        W 5936   9.271   1.918   4.170
40952W        W 5937  28.484  28.594  13.245
40953W        W 5938  10.158  17.732   1.491
40954W        W 5939  19.119  16.589   1.831
40955W        W 5940  43.551  40.336   0.870
40956W        W 5941  28.125  25.546  13.541
40957W        W 5942   1.531   6.741   2.098
40958W        W 5943  14.548  12.037  12.555
40959W        W 5944  34.506   7.764  14.737
40960W        W 5945  22.230  21.667   0.881
40961W        W 5946  19.050  38.588   1.819
40962W        W 5947  20.644   9.146  12.368
40963W        W 5948   6.849  23.923  14.698
40964W        W 5949  30.919   2.668   5.194
40965W        W 5950  14.878  13.272  10.849
40966W        W 5951  26.244  40.165   2.700
40967W        W 5952  37.435  44.213   2.778
40968W        W 5953  20.321  29.511   0.819
40969W        W 5954  31.580  10.708   2.746
40970W        W 5955  28.491  14.753  14.906
40971W        W 5956  10.937   0.406   0.365
40972W        W 5957  36.884  34.537  12.491
40973W        W 5958  43.335  43.979   3.662
40974W        W 5959  35.473  21.044  13.789
40975W        W 5960  21.169   4.523   4.607
40976W        W 5961  29.795  26.716  12.486
40977W        W 5962  26.647   7.474   1.806
40978W        W 5963   9.946  17.902  11.719
40979W        W 5964  12.680   1.786   4.506
40980W        W 5965  25.453  29.031  11.577
40981W        W 5966   2.708  13.323  11.570
40982W        W 5967   3.257  30.651  14.422
40983W        W 5968  24.965  38.540   2.731
40984W        W 5969  32.555  20.407   1.258
40985W        W 5970  35.725  15.539   0.464
40986W        W 5971  33.464   8.655   1.111
40987W        W 5972  38.851  36.904   0.772
40988W        W 5973  37.813  26.093   2.329
40989W        W 5974  28.493  27.163   0.871
40990W        W 5975  10.247  24.030  12.781
40991W        W 5976  15.755  25.930  13.485
40992W        W 5977  26.138  13.268  13.577
40993W        W 5978  32.606  27.465  10.869
40994W        W 5979   4.472  42.354  11.624
40995W        W 5980   6.647  43.005   3.286
40996W        W 5981  23.741  44.972  13.013
40997W        W 5982   8.727  25.918  12.420
40998W        W 5983  18.986  31.161   1.443
40999W        W 5984  37.332  10.600  14.964
41000W        W 5985  44.531   5.128  13.924
41001W        W 5986  24.509   2.224   0.609
41002W        W 5987  37.603  34.146  14.372
41003W        W 5988  35.874  38.426  13.074
41004W        W 5989  38.864  11.142   2.826
41005W        W 5990  41.154  22.146   0.258
41006W        W 5991  21.246  38.056   1.470
41007W        W 5992  16.748  10.230   2.811
41008W        W 5993  35.606  44.896  10.806
41009W        W 5994  13.186  39.735  14.837
41010W        W 5995   6.788  21.569  13.093
41011W        W 5996  10.725  25.686   2.608
41012W        W 5997   1.156  23.992  14.580
41013W        W 5998  31.968   6.384  13.474
41014W        W 5999  31.676  22.719   0.864
41015W        W 6000  25.058  33.331   2.944
41016W        W 6001  15.352  27.923  14.052
41017W        W 6002  38.169  41.211   1.223
41018W        W 6003  33.314   6.349  12.044
41019W        W 6004  42.017   8.412  13.907
41020W        W 6005  32.153  14.693  14.204
41021W        W 6006   3.475   0.341   0.543
41022W        W 6007  19.347   4.442  10.431
41023W        W 6008   6.274  17.110   0.309
41024W        W 6009   1.753  25.583  13.418
41025W        W 6010  38.756  12.581   1.950
41026W        W 6011  19.018  18.045   5.216
41027W        W 6012   2.215  27.383   0.442
41028W        W 6013   2.724  15.586   1.237
41029W        W 6014  39.546  35.882   1.306
41030W        W 6015  39.786  20.148  10.867
41031W        W 6016  35.726   6.673   4.072
41032W        W 6017  22.412  30.073  14.417
41033W        W 6018  23.300  26.663  10.500
41034W        W 6019   3.725  24.540   4.342
41035W        W 6020  25.924  37.996  14.569
41036W        W 6021   0.071  17.099  11.501
41037W        W 6022   6.496  27.017   3.809
41038W        W 6023  25.295  20.732  12.608
41039W        W 6024  34.848  35.025  12.496
41040W        W 6025  21.593   1.855  14.954
41041W        W 6026  32.938  13.350   2.683
41042W        W 6027  10.928   5.938  13.016
41043W        W 6028   5.685  38.969   3.589
41044W        W 6029  19.761  44.825   0.368
41045W        W 6030  34.572   8.185   0.875
41046W        W 6031   9.187  44.171   2.614
41047W        W 6032  11.091  14.856   4.385
41048W        W 6033   3.802   2.287   2.386
41049W        W 6034  24.046  33.574  10.564
41050W        W 6035  11.828  44.235  14.894
41051W        W 6036  10.818   6.142   3.817
41052W        W 6037  33.717  13.023   2.052
41053W        W 6038   5.061  33.269  12.129
41054W        W 6039   1.004  20.684  11.840
41055W        W 6040  33.312  14.180   0.820
41056W        W 6041   7.811  10.343  10.176
41057W        W 6042  34.934  21.631   0.901
41058W        W 6043   3.228  10.064  13.098
41059W        W 6044  15.540  37.071  11.878
41060W        W 6045  26.911  14.709  12.417
41061W        W 6046   1.102  26.674   2.485
41062W        W 6047   8.210  23.762   1.727
41063W        W 6048  23.252   0.764  11.583
41064W        W 6049   9.779   2.921  14.199
41065W        W 6050  12.206  39.301  12.557
41066W        W 6051  18.592  44.472   1.585
41067W        W 6052  14.503  31.527  14.046
41068W        W 6053  35.441  33.797   1.391
41069W        W 6054   7.568  26.038   3.334
41070W        W 6055   6.352   5.624   0.183
41071W        W 6056   9.814   0.990   1.247
41072W        W 6057  44.940  23.243   1.364
41073W        W 6058  18.830  26.972   1.639
41074W        W 6059  14.989   5.623   3.142
41075W        W 6060  24.976   4.464  12.213
41076W        W 6061  29.018  37.889   4.227
41077W        W 6062  41.934  19.379  11.143
41078W        W 6063  10.310  26.431   1.291
41079W        W 6064  20.599  42.312   3.319
41080W        W 6065   0.776   5.620  11.618
41081W        W 6066  21.013  35.734  14.225
41082W        W 6067  37.795   6.679  14.531
41083W        W 6068  14.200   7.378   4.403
41084W        W 6069  43.080  35.440  13.425
41085W        W 6070  16.138  27.005   0.374
41086W        W 6071  38.066  22.234   3.131
41087W        W 6072  43.920   4.011  14.198
41088W        W 6073  34.695  24.642   4.698
41089W        W 6074  27.140  20.740  13.898
41090W        W 6075  29.532   6.537  13.551
41091W        W 6076  20.206  37.044   0.212
41092W        W 6077  21.068  27.061  12.184
41093W        W 6078   1.186   3.377   2.206
41094W        W 6079   2.501  35.588   3.760
41095W        W 6080  15.719  44.283   3.278
41096W        W 6081  40.129   7.005  14.952
41097W        W 6082  36.915   6.693   4.255
41098W        W 6083  37.408  36.071  13.455
41099W        W 6084  14.196   5.236  12.089
41100W        W 6085   9.400  16.769   2.829
41101W        W 6086  34.933  23.134  14.580
41102W        W 6087   0.478  20.927   4.238
41103W        W 6088  27.242  19.570  14.275
41104W        W 6089  17.068  20.478   1.820
41105W        W 6090  27.524  25.610   1.339
41106W        W 6091  29.526   0.357  12.357
41107W        W 6092  40.789  29.460  14.742
41108W        W 6093  28.898   3.977  14.889
41109W        W 6094  35.173  35.246  11.546
41110W        W 6095   4.910   2.465  10.734
41111W        W 6096  16.473  26.856   1.200
41112W        W 6097  25.936   2.774  12.524
41113W        W 6098   2.444  44.320   2.403
41114W        W 6099  33.506  40.101   0.774
41115W        W 6100   1.406  30.681   0.419
41116W        W 6101  28.985  44.374   2.785
41117W        W 6102  10.981  14.734  10.483
41118W        W 6103  41.466   4.669  11.154
41119W        W 6104   5.364  35.406   2.721
41120W        W 6105  43.014  26.390   4.563
41121W        W 6106  43.370  14.826   3.813
41122W        W 6107  19.466  42.918  12.081
41123W        W 6108  32.106  35.915  12.066
41124W        W 6109  34.044  33.445  10.778
41125W        W 6110  32.050  35.788  11.168
41126W        W 6111  29.609   7.768   4.175
41127W        W 6112  28.067  35.362   0.007
41128W        W 6113   6.830  37.765   2.487
41129W        W 6114   1.549  38.017   4.246
41130W        W 6115  31.505  11.348  13.967
41131W        W 6116  41.031  42.154   0.110
41132W        W 6117   7.176  33.526  14.907
41133W        W 6118  35.400  15.224   2.714
41134W        W 6119  15.064  34.003   0.765
41135W        W 6120  21.831  36.868   3.207
41136W        W 6121  20.147  14.632   0.997
41137W        W 6122  26.989   9.209  14.470
41138W        W 6123  41.433  12.588   4.504
41139W        W 6124  44.180  40.340  11.570
41140W        W 6125  31.021  28.906  14.348
41141W        W 6126  28.252   0.906   1.240
41142W        W 6127  15.225  30.670   2.585
41143W        W 6128  21.610  37.164   2.387
41144W        W 6129  20.705  40.927   3.557
41145W        W 6130  34.130  21.330  13.373
41146W        W 6131   9.237   2.777  10.609
41147W        W 6132  11.529  16.358  13.388
41148W        W 6133  23.062  30.364  11.687
41149W        W 6134  14.463  34.960  12.441
41150W        W 6135  24.970   3.880   2.345
41151W        W 6136  32.420  44.060  12.600
41152W        W 6137  14.220  43.060  11.097
41153W        W 6138   4.274  40.330  11.990
41154W        W 6139   7.859  16.143  12.575
41155W        W 6140   7.858  44.182   4.332
41156W        W 6141  15.340   1.234   3.910
41157W        W 6142   5.745  12.829  12.639
41158W        W 6143   8.776  21.092  11.661
41159W        W 6144   4.736  30.146  14.534
41160W        W 6145  37.414  44.806   1.680
41161W        W 6146  33.056  28.951  13.909
41162W        W 6147  24.336   8.644   4.581
41163W        W 6148  13.280   9.403   2.610
41164W        W 6149  22.736  34.921  14.002
41165W        W 6150  12.210  12.077  12.991
41166W        W 6151  18.788  39.600  11.053
41167W        W 6152  42.628  21.187  12.955
41168W        W 6153  22.924   5.054   2.037
41169W        W 6154   9.506  33.051  12.921
41170W        W 6155   1.007  36.433  12.526
41171W        W 6156  32.084  40.639   2.396
41172W        W 6157  15.824  33.854   2.690
41173W        W 6158  21.310  42.407  12.035
41174W        W 6159  18.526  13.998   5.002
41175W        W 6160  41.740  23.326  11.398
41176W        W 6161   5.375   7.805   4.091
41177W        W 6162  41.311  26.414   0.839
41178W        W 6163  32.173   9.208  13.601
41179W        W 6164  33.095  10.625  11.469
41180W        W 6165   3.133  30.825   3.589
41181W        W 6166  38.009   4.903   2.897
41182W        W 6167  20.611  15.515   2.011
41183W        W 6168   6.692  34.379  12.906
41184W        W 6169  15.683  26.748   4.503
41185W        W 6170   1.002  37.956   4.366
41186W        W 6171  20.871  20.720   0.189
41187W        W 6172   3.323  38.636  10.719
41188W        W 6173  32.926  14.340   4.583
41189W        W 6174   7.404   5.104  11.531
41190W        W 6175  44.140  10.385  12.189
41191W        W 6176  27.730  16.140  11.951
41192W        W 6177  38.313  42.766   0.768
41193W        W 6178   0.887   2.323  10.669
41194W        W 6179  23.780  20.572   2.283
41195W        W 6180   8.676  16.321  12.176
41196W        W 6181   3.858  15.583   0.835
41197W        W 6182  42.533  24.117  13.924
41198W        W 6183  24.965   9.374   3.607
41199W        W 6184  31.079  30.251  11.236
41200W        W 6185  29.671  30.844   1.377
41201W        W 6186  36.649  41.930  13.134
41202W        W 6187  18.866   7.453  14.864
41203W        W 6188   7.081  43.430  14.618
41204W        W 6189  15.285  36.951  10.924
41205W        W 6190  30.173  19.843   0.726
41206W        W 6191  10.289   8.353  14.772
41207W        W 6192   4.980  19.135   1.767
41208W        W 6193   0.828  17.170  11.657
41209W        W 6194  31.882   4.269  10.178
41210W        W 6195   5.777  43.406   0.940
41211W        W 6196  16.120   8.398   3.732
41212W        W 6197  27.873  43.324   4.204
41213W        W 6198  20.523  25.486  14.591
41214W        W 6199   9.986   8.314   1.491
41215W        W 6200  40.003  38.901   0.934
41216W        W 6201   0.289  22.492   0.831
41217W        W 6202  22.440  34.877   5.009
41218W        W 6203   8.685  28.760   0.632
41219W        W 6204  27.693  22.460  10.442
41220W        W 6205  11.728  21.924   0.046
41221W        W 6206  41.561  42.274   2.676
41222W        W 6207  16.134  26.075   5.402
41223W        W 6208  31.181   3.949  11.888
41224W        W 6209  15.122  26.523   1.441
41225W        W 6210  13.843  31.902   0.284
41226W        W 6211   3.450  40.390   4.057
41227W        W 6212   3.396  37.813  14.823
41228W        W 6213  12.999  44.896  12.955
41229W        W 6214  18.580  32.968  12.956
41230W        W 6215  15.102  27.442  13.978
41231W        W 6216  29.692  35.072  11.114
41232W        W 6217  34.625   7.817   1.633
41233W        W 6218  31.499  23.696  13.556
41234W        W 6219  30.016  35.538   2.244
41235W        W 6220  39.090   2.121   4.506
41236W        W 6221  11.372   1.946   1.265
41237W        W 6222  25.453  40.811   1.295
41238W        W 6223   1.374  20.268  12.276
41239W        W 6224  11.361  11.180  12.947
41240W        W 6225  28.550   5.211  11.309
41241W        W 6226   9.808  37.883   3.026
41242W        W 6227  15.671  40.042   3.043
41243W        W 6228  26.201  17.592   3.833
41244W        W 6229  43.753  28.509  14.802
41245W        W 6230   3.913   2.933   4.177
41246W        W 6231  13.846  43.741   0.558
41247W        W 6232  34.632   9.901   2.337
41248W        W 6233   8.775  15.982  14.113
41249W        W 6234  29.498  31.509   0.386
41250W        W 6235  33.289  20.878  10.782
41251W        W 6236  34.639   2.683  12.903
41252W        W 6237   8.788  38.831  11.543
41253W        W 6238  14.796  12.641   1.270
41254W        W 6239  42.473  20.181   0.425
41255W        W 6240   9.660  39.431   3.610
41256W        W 6241  12.557   4.467  11.106
41257W        W 6242   4.243   8.785   2.742
41258W        W 6243   1.464   4.767   0.970
41259W        W 6244  34.959  11.783  14.752
41260W        W 6245  44.785  20.750  13.066
41261W        W 6246  40.376  42.320  11.112
41262W        W 6247   9.426  38.473   4.064
41263W        W 6248  14.814  26.170  13.848
41264W        W 6249   7.856  28.098   4.588
41265W        W 6250   8.867  20.582  11.632
41266W        W 6251  43.348  23.874  12.067
41267W        W 6252  36.293   5.671   2.748
41268W        W 6253   2.837  22.437   3.707
41269W        W 6254  41.860  13.860  10.377
41270W        W 6255  22.111  23.892  11.103
41271W        W 6256   6.533   0.299  13.441
41272W        W 6257  27.485  29.210  10.702
41273W        W 6258  18.670  12.549   0.371
41274W        W 6259   7.205  30.398  12.046
41275W        W 6260  14.605   0.788   0.193
41276W        W 6261   5.899  40.494  12.645
41277W        W 6262  41.140  44.659   0.244
41278W        W 6263  21.104  29.615  11.495
41279W        W 6264  16.617  43.909   4.305
41280W        W 6265  27.096  40.518  13.992
41281W        W 6266  24.431  19.465   1.696
41282W        W 6267   0.021  32.523  13.760
41283W        W 6268  11.741  41.075   4.696
41284W        W 6269  17.855   7.041   1.271
41285W        W 6270  40.314  22.652   2.839
41286W        W 6271   7.904  39.707   1.282
41287W        W 6272  28.865  25.679   3.091
41288W        W 6273  16.574  30.387   3.339
41289W        W 6274  31.501   1.705   2.305
41290W        W 6275  41.034   0.172  12.563
41291W        W 6276  24.892   2.973  12.055
41292W        W 6277  34.132   2.710   0.957
41293W        W 6278   7.751  11.699  14.752
41294W        W 6279  16.805   6.842   4.099
41295W        W 6280   6.201  41.817  11.961
41296W        W 6281   1.730  16.618   1.886
41297W        W 6282  21.367  27.442  14.379
41298W        W 6283  30.129  27.691  14.682
41299W        W 6284  29.748  34.840  14.721
41300W        W 6285  30.170   1.421  11.997
41301W        W 6286   0.834  20.170  14.036
41302W        W 6287  32.381  29.163  14.600
41303W        W 6288  28.878  27.537   1.797
41304W        W 6289   3.445  18.681   1.818
41305W        W 6290   7.378  44.319  12.011
41306W        W 6291  34.448  20.583   4.546
41307W        W 6292  37.373  12.886   2.456
41308W        W 6293  32.371  13.997  13.506
41309W        W 6294  25.424  20.016   4.303
41310W        W 6295  28.868   2.648  12.660
41311W        W 6296  34.923  10.107   4.087
41312W        W 6297  27.670   7.262  10.940
41313W        W 6298  40.388  41.665  10.314
41314W        W 6299  37.815   9.884   0.298
41315W        W 6300  36.054  40.423  10.555
41316W        W 6301  40.005  12.878   4.581
41317W        W 6302   2.768  27.087   4.285
41318W        W 6303   4.581  40.507   3.184
41319W        W 6304   0.976  27.316   4.153
41320W        W 6305  42.940   0.973   3.127
41321W        W 6306  41.562  22.906   4.498
41322W        W 6307  16.390   5.373   0.045
41323W        W 6308  23.947  26.474   0.243
41324W        W 6309  31.173  26.395  12.489
41325W        W 6310   4.638   2.396   1.041
41326W        W 6311  12.056  10.465   3.130
41327W        W 6312  28.286  16.721  11.516
41328W        W 6313  31.984  23.054   3.054
41329W        W 6314   5.177   9.494  13.113
41330W        W 6315   8.730   4.667   2.786
41331W        W 6316  30.393  38.295  12.033
41332W        W 6317  44.651  35.598  10.300
41333W        W 6318  33.493  28.129  13.933
41334W        W 6319  18.819  24.033   2.670
41335W        W 6320  24.062  30.855   2.708
41336W        W 6321  21.831  44.935   2.551
41337W        W 6322  11.284  36.816   3.184
41338W        W 6323  42.786   2.403  10.516
41339W        W 6324  40.142  38.231  13.579
41340W        W 6325  18.472  31.244  11.498
41341W        W 6326  28.115   1.487   0.683
41342W        W 6327  14.189  15.668   1.337
41343W        W 6328  11.149  22.710  10.653
41344W        W 6329  17.019  40.037  13.481
41345W        W 6330  17.232   7.667   4.951
41346W        W 6331  27.692  25.456   2.217
41347W        W 6332  35.513  24.737  13.860
41348W        W 6333   3.307  19.511  11.946
41349W        W 6334  22.669  13.564   1.282
41350W        W 6335   7.516   1.714  14.927
41351W        W 6336   6.387  42.307  13.101
41352W        W 6337   9.861   9.395   2.705
41353W        W 6338  27.091  20.248  11.339
41354W        W 6339  20.707  24.248   1.160
41355W        W 6340   1.078  42.998   4.053
41356W        W 6341  25.593  26.918   4.348
41357W        W 6342   1.291  28.706  12.031
41358W        W 6343  24.167  16.605  12.921
41359W        W 6344  28.977  32.881  11.430
41360W        W 6345  17.555  29.704   4.300
41361W        W 6346  16.141   3.272  11.138
41362W        W 6347  23.401  39.013   3.188
41363W        W 6348  43.310  32.481   3.721
41364W        W 6349  11.161  21.759   0.761
41365W        W 6350  34.830  27.938   3.481
41366W        W 6351   8.978  20.077   4.664
41367W        W 6352  44.405  12.277   3.284
41368W        W 6353  16.777  25.024   4.423
41369W        W 6354  28.993  30.435   0.747
41370W        W 6355   2.697  10.320  11.724
41371W        W 6356  30.194  16.706  11.440
41372W        W 6357   8.075  11.780  12.395
41373W        W 6358  30.100   4.447   2.240
41374W        W 6359  43.355  23.879  11.093
41375W        W 6360  16.633   9.437   1.277
41376W        W 6361   5.360   2.934   1.964
41377W        W 6362  37.774  28.723   2.718
41378W        W 6363  36.744  14.528  10.329
41379W        W 6364  41.371  33.365   4.097
41380W        W 6365   3.004  29.207   1.205
41381W        W 6366  12.839   5.830   1.936
41382W        W 6367  39.037  26.806  12.563
41383W        W 6368  26.896  14.248   1.789
41384W        W 6369  28.821  10.948   3.741
41385W        W 6370  43.749  11.619  11.255
41386W        W 6371  20.655   3.274  11.157
41387W        W 6372   0.024  30.969   3.920
41388W        W 6373  18.554  35.804   2.223
41389W        W 6374  26.841  17.874   0.468
41390W        W 6375  26.254  36.395   3.863
41391W        W 6376   1.319  44.274  11.572
41392W        W 6377  23.474   2.534  10.276
41393W        W 6378   2.317   5.381  13.352
41394W        W 6379   2.415  17.207  13.439
41395W        W 6380  43.810   3.877   2.209
41396W        W 6381  31.463  24.156  10.965
41397W        W 6382  10.190   9.598   1.224
41398W        W 6383  25.715  23.930  14.286
41399W        W 6384  14.161  23.624  13.899
41400W        W 6385   1.182   2.872   2.363
41401W        W 6386  16.939  19.069  11.610
41402W        W 6387  13.585  37.434  12.924
41403W        W 6388   7.362  43.439  14.168
41404W        W 6389  41.836  23.386   4.140
41405W        W 6390   9.166   5.489   2.371
41406W        W 6391  18.783  27.243  13.469
41407W        W 6392  17.389  30.248   0.278
41408W        W 6393  30.844  13.814  10.999
41409W        W 6394   6.891  40.655   2.403
41410W        W 6395  30.583  10.215   3.738
41411W        W 6396  36.240  42.785  12.774
41412W        W 6397  36.582  34.574  13.449
41413W        W 6398  41.799  10.661  13.162
41414W        W 6399   9.700   0.801  14.026
41415W        W 6400  24.154  19.161  14.408
41416W        W 6401  34.393  28.068  12.538
41417W        W 6402   6.817   4.438   4.000
41418W        W 6403  40.283  43.110   2.154
41419W        W 6404  17.676   7.359   3.234
41420W        W 6405  34.857  17.534   3.315
41421W        W 6406   7.098   4.044   3.789
41422W        W 6407  31.929  12.364   1.031
41423W        W 6408   1.906   7.236  12.001
41424W        W 6409  42.053  19.161  14.774
41425W        W 6410  38.302  13.700   3.845
41426W        W 6411  19.543  43.910   0.085
41427W        W 6412  12.288   1.453   3.368
41428W        W 6413  29.887  31.408  10.663
41429W        W 6414  40.014  20.621  10.794
41430W        W 6415  24.572  40.399  14.052
41431W        W 6416  38.062  23.947  11.466
41432W        W 6417  28.197  34.104   1.608
41433W        W 6418  14.698   3.937  13.025
41434W        W 6419  16.174  17.882  14.482
41435W        W 6420  20.999   4.147  12.621
41436W        W 6421  25.877  35.823   4.464
41437W        W 6422  18.134  34.644   3.769
41438W        W 6423  44.964  24.999   4.588
41439W        W 6424  21.020  38.936   0.906
41440W        W 6425  28.091  34.371   4.093
41441W        W 6426  11.918   1.445   4.186
41442W        W 6427   9.876  40.086   3.207
41443W        W 6428   0.899  12.650  10.318
41444W        W 6429  35.628  33.564   0.363
41445W        W 6430  22.137   5.301  14.053
41446W        W 6431  25.555  21.044   1.901
41447W        W 6432   6.469  41.959   0.886
41448W        W 6433   7.335  37.832   2.298
41449W        W 6434  27.625  18.347  13.529
41450W        W 6435  14.608  17.640  10.912
41451W        W 6436  30.471  36.563  10.777
41452W        W 6437  25.105  10.354  14.751
41453W        W 6438  35.731  21.257  13.342
41454W        W 6439  16.926  25.200  13.961
41455W        W 6440  37.312  38.002  14.389
41456W        W 6441   9.023   2.904   1.980
41457W        W 6442  30.609  31.658   3.410
41458W        W 6443  28.507  23.131   0.743
41459W        W 6444  17.763  37.023  11.788
41460W        W 6445  39.880  38.054   0.769
41461W        W 6446  25.890   9.737  11.563
41462W        W 6447  22.980  28.001   0.877
41463W        W 6448  12.301  43.447  11.655
41464W        W 6449  35.015  21.299  10.329
41465W        W 6450  19.097  41.845   0.032
41466W        W 6451   0.901  34.577   2.847
41467W        W 6452  39.854  35.881   1.742
41468W        W 6453   6.166  21.227   0.764
41469W        W 6454  42.793  40.038   0.714
41470W        W 6455  17.355  11.163   1.718
41471W        W 6456  10.140  39.988  14.163
41472W        W 6457  13.742  20.151   2.251
41473W        W 6458  38.326  39.346   1.678
41474W        W 6459  27.214  24.035   0.701
41475W        W 6460  18.538  31.152   3.628
41476W        W 6461  41.914   0.271  10.116
41477W        W 6462   6.139  27.670  14.333
41478W        W 6463  21.595  25.751   1.046
41479W        W 6464   8.433  26.119  13.884
41480W        W 6465  28.238  39.817  14.174
41481W        W 6466  19.603  26.669   5.041
41482W        W 6467  18.054  18.778   3.636
41483W        W 6468   7.312  23.773   2.822
41484W        W 6469   5.416   6.920   4.228
41485W        W 6470  40.202   2.651   2.122
41486W        W 6471  19.129   6.750   3.225
41487W        W 6472  10.625  12.980  14.983
41488W        W 6473  23.452   2.465  12.896
41489W        W 6474  27.038  28.502   3.730
41490W        W 6475  37.923  34.347  11.708
41491W        W 6476  43.792   5.158   0.515
41492W        W 6477  35.495  27.642  14.055
41493W        W 6478   9.457  21.065   0.789
41494W        W 6479   1.016  37.315  11.161
41495W        W 6480  19.148  30.715  13.372
41496W        W 6481  23.293  40.310   0.974
41497W        W 6482  22.718  25.993  12.558
41498W        W 6483  24.162  38.343  11.609
41499W        W 6484  19.322   7.303  13.132
41500W        W 6485  26.343  31.111   1.242
41501W        W 6486  38.034   3.862   3.280
41502W        W 6487   8.381  13.243  12.119
41503W        W 6488  10.227  26.413  14.430
41504W        W 6489  44.461  30.493   1.245
41505W        W 6490  30.933   7.500  13.143
41506W        W 6491  31.914  28.657   3.649
41507W        W 6492  15.093  43.004   2.920
41508W        W 6493  25.559  24.189   0.337
41509W        W 6494   1.296  43.003  11.991
41510W        W 6495  14.255  29.483   0.701
41511W        W 6496  35.524   5.484   4.612
41512W        W 6497   3.698  35.019   4.085
41513W        W 6498  21.071  21.188   1.878
41514W        W 6499  42.200  26.315   0.796
41515W        W 6500   5.084  35.594  11.061
41516W        W 6501   3.426  22.771  11.177
41517W        W 6502  41.456   1.836  13.103
41518W        W 6503   7.509  23.506   3.222
41519W        W 6504   6.238  19.163  13.822
41520W        W 6505   6.331  42.565  12.668
41521W        W 6506  36.668  34.975  11.376
41522W        W 6507  26.093  24.552  11.527
41523W        W 6508  11.696   3.831  10.636
41524W        W 6509  26.373  26.530   4.473
41525W        W 6510  27.902  36.887   2.335
41526W        W 6511   0.636  16.334   1.928
41527W        W 6512   7.676  28.896   0.507
41528W        W 6513  28.622  29.156   0.890
41529W        W 6514  40.575  17.070  14.394
41530W        W 6515  20.355  22.644   5.206
41531W        W 6516  37.659  28.454   0.663
41532W        W 6517  31.363  27.568   3.467
41533W        W 6518  17.161   9.797   0.044
41534W        W 6519  34.026  20.818  13.945
41535W        W 6520  39.472   4.480  11.198
41536W        W 6521  39.631  20.234  11.673
41537W        W 6522  40.279   9.976   4.270
41538W        W 6523  24.500  16.136   1.317
41539W        W 6524  23.922  43.589  12.113
41540W        W 6525   4.098  18.181   2.244
41541W        W 6526  44.676  12.883  10.991
41542W        W 6527   9.267  15.189   2.921
41543W        W 6528   4.926  17.553  12.774
41544W        W 6529  29.977   7.386   2.910
41545W        W 6530  30.640  20.144   1.420
41546W        W 6531   6.137  21.108  10.987
41547W        W 6532  22.566   9.024   1.900
41548W        W 6533  24.996  37.749  12.085
41549W        W 6534  26.641  21.030   0.778
41550W        W 6535   2.967   2.692  13.456
41551W        W 6536  10.214  21.515   3.676
41552W        W 6537  12.082  39.376  14.904
41553W        W 6538  35.309  35.632  14.857
41554W        W 6539  11.321  15.571  14.374
41555W        W 6540  23.943  19.336   1.820
41556W        W 6541  43.934  33.546  10.741
41557W        W 6542  26.143  44.369   5.391
41558W        W 6543  26.174  31.429   1.604
41559W        W 6544  28.447   1.745   2.369
41560W        W 6545  41.823   5.550  11.984
41561W        W 6546  12.237  34.181  10.615
41562W        W 6547  29.535  17.243  12.617
41563W        W 6548  18.638   4.271  11.573
41564W        W 6549  28.455  42.286   4.069
41565W        W 6550  31.655  33.501   4.819
41566W        W 6551  17.594  10.237   0.841
41567W        W 6552  19.321  24.743  10.870
41568W        W 6553   4.651  34.878  12.474
41569W        W 6554  44.483   4.714   3.165
41570W        W 6555  43.577   0.267   0.450
41571W        W 6556  14.459  40.602   2.760
41572W        W 6557   1.399   5.783   1.679
41573W        W 6558  32.339  24.084  11.073
41574W        W 6559  15.820  36.481  10.657
41575W        W 6560   5.876  23.556   4.669
41576W        W 6561   1.831  27.395   2.295
41577W        W 6562  14.761   4.421  12.917
41578W        W 6563  11.065   0.053  12.030
41579W        W 6564  16.162   9.719   1.060
41580W        W 6565   0.981   7.996   5.224
41581W        W 6566  39.564  23.248  12.140
41582W        W 6567   4.747   5.024  12.094
41583W        W 6568  40.766   2.768  12.603
41584W        W 6569  18.650   5.239   0.190
41585W        W 6570  34.598  31.533   4.603
41586W        W 6571  41.888  39.149  12.872
41587W        W 6572  25.849  36.538   3.124
41588W        W 6573  30.144  28.467  11.557
41589W        W 6574  42.070  40.030   3.751
41590W        W 6575  12.820   9.334   0.315
41591W        W 6576  19.704   8.898  12.176
41592W        W 6577  21.496  34.489  12.354
41593W        W 6578   1.977  26.887   2.218
41594W        W 6579  44.240  37.831  13.881
41595W        W 6580  40.795   9.771  11.616
41596W        W 6581  33.082  20.623   2.178
41597W        W 6582  28.033  39.575   3.317
41598W        W 6583   7.881  34.849   4.776
41599W        W 6584  25.552  43.723  13.478
41600W        W 6585  23.285  13.301   2.627
41601W        W 6586   1.501  22.539   3.050
41602W        W 6587  19.499  22.682   0.409
41603W        W 6588  14.835  16.558  14.379
41604W        W 6589   9.182   3.272   0.119
41605W        W 6590  25.963  36.871  14.359
41606W        W 6591   3.821   8.908  12.126
41607W        W 6592  44.755  32.437  10.603
41608W        W 6593  14.666  35.024  14.670
41609W        W 6594   4.138   0.193   2.468
41610W        W 6595   9.409   0.792   1.826
41611W        W 6596  12.659  13.136  13.070
41612W        W 6597   7.422  17.081  14.784
41613W        W 6598  33.579  15.802   1.302
41614W        W 6599  11.464  25.188  11.954
41615W        W 6600  34.772   1.989  10.289
41616W        W 6601  44.795  37.304   4.022
41617W        W 6602  35.321   2.284   4.168
41618W        W 6603  33.993  14.269  14.007
41619W        W 6604  43.568  35.505   2.094
41620W        W 6605   4.209  42.982   0.997
41621W        W 6606  34.131   0.326  11.947
41622W        W 6607   2.279  23.634   3.158
41623W        W 6608   2.768  39.489  13.366
41624W        W 6609  14.257  15.297   0.566
41625W        W 6610   8.225  29.777  13.765
41626W        W 6611   1.897  32.925   2.121
41627W        W 6612   9.668  18.634  13.388
41628W        W 6613  24.249  24.687   4.177
41629W        W 6614  11.290  24.905   1.152
41630W        W 6615  23.906  37.634  13.944
41631W        W 6616  12.653   0.259   4.791
41632W        W 6617  20.878  44.605   3.233
41633W        W 6618  26.941  43.880  14.760
41634W        W 6619  21.695  10.285  10.339
41635W        W 6620   6.715  20.574  10.649
41636W        W 6621  13.357  16.302   1.450
41637W        W 6622  19.439  32.110  11.639
41638W        W 6623  37.533   7.926   5.169
41639W        W 6624  13.280   3.789   1.727
41640W        W 6625   8.561   9.914  11.657
41641W        W 6626  35.268  20.622  13.506
41642W        W 6627   5.363  21.685  14.532
41643W        W 6628  19.124  14.359  11.035
41644W        W 6629  21.635   7.955   3.674
41645W        W 6630  43.761  38.424   0.316
41646W        W 6631  20.612  10.925   3.893
41647W        W 6632  42.437   7.199  14.405
41648W        W 6633   1.798  33.577   0.879
41649W        W 6634  43.923   9.793  13.041
41650W        W 6635  14.035  34.496  11.621
41651W        W 6636  12.614  37.517  14.769
41652W        W 6637  13.198  28.867   2.965
41653W        W 6638  43.280  18.205   2.378
41654W        W 6639  35.516  27.393   2.158
41655W        W 6640  35.896  37.161   2.749
41656W        W 6641  24.652  28.318  14.364
41657W        W 6642   4.467  38.420  11.181
41658W        W 6643  14.981  23.463  11.929
41659W        W 6644   5.838  11.680   4.874
41660W        W 6645  18.161  17.643  13.470
41661W        W 6646  29.536  13.866  13.578
41662W        W 6647  39.378  19.357  14.582
41663W        W 6648  24.038  15.380  13.400
41664W        W 6649  26.201  37.420  10.595
41665W        W 6650  29.456  40.105   4.140
41666W        W 6651  21.513  41.707   0.617
41667W        W 6652   5.330   1.146   4.493
41668W        W 6653   9.160  43.421  11.559
41669W        W 6654   6.582  19.651   0.259
41670W        W 6655   7.816  26.876  10.746
41671W        W 6656  29.342  44.979   4.510
41672W        W 6657  17.298   3.187  13.398
41673W        W 6658  11.169  10.462   0.468
41674W        W 6659  40.883  38.865   0.798
41675W        W 6660  36.804  38.941   0.376
41676W        W 6661   2.258   1.007  13.248
41677W        W 6662  26.166  22.152   3.398
41678W        W 6663   8.055  35.447   0.425
41679W        W 6664  19.794   3.183   4.050
41680W        W 6665  40.752   7.378   0.807
41681W        W 6666  31.039  44.368  13.420
41682W        W 6667   8.672  36.666   3.839
41683W        W 6668   1.664  28.611  12.952
41684W        W 6669  24.135  40.287   2.357
41685W        W 6670  40.906  40.186  10.765
41686W        W 6671  13.256  36.541  14.057
41687W        W 6672   4.743   3.459   0.945
41688W        W 6673   7.354  40.568  10.687
41689W        W 6674  13.045  13.829  10.983
41690W        W 6675  30.005  22.185   4.301
41691W        W 6676   2.372  16.282  11.851
41692W        W 6677  36.316  28.428   0.806
41693W        W 6678  13.609  30.735   1.162
41694W        W 6679   9.289  26.137  13.144
41695W        W 6680  11.794  26.516  10.268
41696W        W 6681   2.245  12.808   0.933
41697W        W 6682  17.848  16.744  11.416
41698W        W 6683  16.503   6.233   1.731
41699W        W 6684  22.215  10.274  14.016
41700W        W 6685  38.352  43.467  10.650
41701W        W 6686  35.281  19.707  11.551
41702W        W 6687  30.840   1.116  10.260
41703W        W 6688  13.617  24.212  14.396
41704W        W 6689  10.090   5.207   1.826
41705W        W 6690   8.352   2.184   3.723
41706W        W 6691   0.390   5.115  13.487
41707W        W 6692  24.027  12.733   0.067
41708W        W 6693  10.353   5.242   0.213
41709W        W 6694  38.807  43.933   4.848
41710W        W 6695  29.973   3.770  13.990
41711W        W 6696   2.236  40.528   1.891
41712W        W 6697   7.306  37.971   4.776
41713W        W 6698  34.620  35.390  12.821
41714W        W 6699  16.728   3.531   1.205
41715W        W 6700  15.882  15.357  10.730
41716W        W 6701  34.781  40.419  13.367
41717W        W 6702   3.808  31.634   4.170
41718W        W 6703  15.910  26.046  11.261
41719W        W 6704  11.694  27.425   0.489
41720W        W 6705  43.025  34.478   2.362
41721W        W 6706   1.641  33.048   0.688
41722W        W 6707  16.070  41.320  14.286
41723W        W 6708   8.902  25.414   3.223
41724W        W 6709  21.164  26.881   1.179
41725W        W 6710  28.191  20.694  14.168
41726W        W 6711  27.128  26.450   4.627
41727W        W 6712  33.042  30.988   2.276
41728W        W 6713  10.902  23.645  12.083
41729W        W 6714  24.967  43.776  11.157
41730W        W 6715  10.306  17.565  11.643
41731W        W 6716  10.727  11.947   0.145
41732W        W 6717   8.364  19.713   2.248
41733W        W 6718  26.293  20.218   4.570
41734W        W 6719   0.327  12.716   2.181
41735W        W 6720   6.657  20.050  11.925
41736W        W 6721  37.104  36.590  11.463
41737W        W 6722  29.580  30.317  11.013
41738W        W 6723   1.721  17.684  10.772
41739W        W 6724  29.582  10.800   3.330
41740W        W 6725  30.829   0.923  12.890
41741W        W 6726  30.577   3.155  14.960
41742W        W 6727  10.139  11.318  12.576
41743W        W 6728  11.432   5.211  13.956
41744W        W 6729  16.809  29.148   2.829
41745W        W 6730  25.732  30.584   2.262
41746W        W 6731  26.602  44.231  13.010
41747W        W 6732   6.829  12.812  14.951
41748W        W 6733  18.172   8.147   0.488
41749W        W 6734  21.424  32.549   2.236
41750W        W 6735  24.487  30.357   1.883
41751W        W 6736  15.102  17.280   0.655
41752W        W 6737  24.569   0.485  13.606
41753W        W 6738  33.630  41.580   1.855
41754W        W 6739   2.010  42.487  12.494
41755W        W 6740  39.292   6.798   1.873
41756W        W 6741  33.952  44.857   4.651
41757W        W 6742  30.182  30.781   3.310
41758W        W 6743  15.758  24.111  10.638
41759W        W 6744  33.639  25.398   3.679
41760W        W 6745  36.521   2.286  14.718
41761W        W 6746  30.723  23.011  12.014
41762W        W 6747  23.065  37.693   0.858
41763W        W 6748  25.690  38.913   3.880
41764W        W 6749  42.406  10.700   1.744
41765W        W 6750  17.778   0.365  13.408
41766W        W 6751  22.122  41.432  14.034
41767W        W 6752  31.466  44.975   0.869
41768W        W 6753   9.629   1.188   3.456
41769W        W 6754  19.533  32.928   1.297
41770W        W 6755  38.967  38.082   2.616
41771W        W 6756   8.556  39.035   1.572
41772W        W 6757  18.294  36.763  10.536
41773W        W 6758  26.739  26.568  14.345
41774W        W 6759  18.837  13.893  10.088
41775W        W 6760  41.603  25.925   2.362
41776W        W 6761  33.883  35.299   4.650
41777W        W 6762   3.218  37.451  10.734
41778W        W 6763  25.715  15.789   2.593
41779W        W 6764  20.217  34.545  13.954
41780W        W 6765   7.683  39.787  14.463
41781W        W 6766  25.654  25.592   0.309
41782W        W 6767   5.747  25.917  10.952
41783W        W 6768  25.598  28.606  12.792
41784W        W 6769  36.434  24.496  10.844
41785W        W 6770  11.596  30.921  10.787
41786W        W 6771  35.716   6.310  11.744
41787W        W 6772  25.608  24.142  14.783
41788W        W 6773   2.796   4.294   4.123
41789W        W 6774   0.523   2.170  13.418
41790W        W 6775  22.023  13.643  13.813
41791W        W 6776   3.460  38.297  11.219
41792W        W 6777  32.584  11.195   1.987
41793W        W 6778  20.546  25.083   2.869
41794W        W 6779   2.787  29.105   3.351
41795W        W 6780  21.946   2.873  11.828
41796W        W 6781  40.483  16.643   3.171
41797W        W 6782  26.141  10.319   2.835
41798W        W 6783  15.580  34.626  13.993
41799W        W 6784  28.862  25.123  11.064
41800W        W 6785  26.456  29.688   3.298
41801W        W 6786   4.116  33.710   1.421
41802W        W 6787  31.423   7.084   1.801
41803W        W 6788  24.361  24.721  13.990
41804W        W 6789   3.941  17.036  11.155
41805W        W 6790   7.191   8.721  12.529
41806W        W 6791  27.120  25.281   3.405
41807W        W 6792  24.023   3.250   4.348
41808W        W 6793  34.049   7.708  13.020
41809W        W 6794  23.007  26.552   3.640
41810W        W 6795  40.776  27.065   3.509
41811W        W 6796   6.728  36.522   1.098
41812W        W 6797  17.282  35.166  11.633
41813W        W 6798  38.337  27.066  10.901
41814W        W 6799   3.379  12.153   3.813
41815W        W 6800   6.630  40.861  12.046
41816W        W 6801   8.135  42.943  12.501
41817W        W 6802  22.822  44.721  12.984
41818W        W 6803  16.133  11.403  10.111
41819W        W 6804  32.334  36.578  13.962
41820W        W 6805  12.890  41.557   0.751
41821W        W 6806  19.809   4.683   2.696
41822W        W 6807  33.345  36.393  11.141
41823W        W 6808  30.761  32.327  13.905
41824W        W 6809  16.651  42.425  12.392
41825W        W 6810  35.146  44.483   1.813
41826W        W 6811   8.134  39.928   4.277
41827W        W 6812  21.499  40.706  11.165
41828W        W 6813   1.939  31.048   1.767
41829W        W 6814  28.047  24.461  14.469
41830W        W 6815  30.465  31.490   3.878
41831W        W 6816  34.405  22.979   4.760
41832W        W 6817  26.480  37.645  12.491
41833W        W 6818   7.310  11.165   3.089
41834W        W 6819  22.748  43.534  11.132
41835W        W 6820  29.836  37.383  11.991
41836W        W 6821  13.748  13.668  12.168
41837W        W 6822  13.248  30.060  13.819
41838W        W 6823  16.480  30.012   2.715
41839W        W 6824  34.303  13.220  13.111
41840W        W 6825   2.581  32.099   2.392
41841W        W 6826  33.025   6.594  12.913
41842W        W 6827  23.820   8.609   0.739
41843W        W 6828  36.487  10.199  10.931
41844W        W 6829  43.050   4.784  11.608
41845W        W 6830  19.563  36.869   1.985
41846W        W 6831  24.139  35.616  13.421
41847W        W 6832  18.051  21.275  14.971
41848W        W 6833  35.869  34.631   0.066
41849W        W 6834  17.167  22.120  11.596
41850W        W 6835  21.242  43.744   3.622
41851W        W 6836  37.101  21.994   2.268
41852W        W 6837  29.859  16.369   1.777
41853W        W 6838  14.594  20.260  13.104
41854W        W 6839  36.031  15.965  14.679
41855W        W 6840  20.451   2.731  14.444
41856W        W 6841   0.385  23.650   3.439
41857W        W 6842  10.603  11.189   2.011
41858W        W 6843  34.582  21.702   2.737
41859W        W 6844   8.516  15.547   0.453
41860W        W 6845  13.316  16.806  14.951
41861W        W 6846  10.104  39.853   1.171
41862W        W 6847  24.697  35.291  10.952
41863W        W 6848  28.890  39.162  14.639
41864W        W 6849   9.928  36.749  11.035
41865W        W 6850   5.414  38.080   1.033
41866W        W 6851  33.156  44.054  12.929
41867W        W 6852  23.938  39.399  10.766
41868W        W 6853  36.931  17.713  13.764
41869W        W 6854  39.892   5.166  13.094
41870W        W 6855  43.458   6.460  14.900
41871W        W 6856  29.457   1.994   3.714
41872W        W 6857  17.903   8.199   2.516
41873W        W 6858  38.956  44.710   0.499
41874W        W 6859  10.217  42.783   4.176
41875W        W 6860  44.691  19.930  13.490
41876W        W 6861  18.311   1.332  14.763
41877W        W 6862  33.973   9.628  10.753
41878W        W 6863   1.907   6.096  13.297
41879W        W 6864  21.057  25.019   2.756
41880W        W 6865  41.524   1.534  11.537
41881W        W 6866  13.797  31.232   1.209
41882W        W 6867  13.012  20.281   2.719
41883W        W 6868  17.486  40.090  11.191
41884W        W 6869  18.119  25.468  10.304
41885W        W 6870  43.676  21.621   2.656
41886W        W 6871  19.727  41.262   2.100
41887W        W 6872   1.974  38.493  14.631
41888W        W 6873   9.170  29.880   0.286
41889W        W 6874  44.874   6.875  12.132
41890W        W 6875  37.560  15.569  14.455
41891W        W 6876  10.776  37.652   0.048
41892W        W 6877  14.046  10.321   3.445
41893W        W 6878  44.162  40.455  12.496
41894W        W 6879  11.574  28.353  13.074
41895W        W 6880  38.825  29.933  11.983
41896W        W 6881   5.480  37.555  12.050
41897W        W 6882  37.082  20.438  12.011
41898W        W 6883  27.713   6.703   1.407
41899W        W 6884  36.553  13.131  11.264
41900W        W 6885  23.218  13.082   1.861
41901W        W 6886  27.895  26.651   1.315
41902W        W 6887  20.296  21.960   1.887
41903W        W 6888  27.657  28.316  10.851
41904W        W 6889  35.538  25.715  13.137
41905W        W 6890  13.329  40.432  11.218
41906W        W 6891  41.011  23.942   5.115
41907W        W 6892  42.491  43.549   1.651
41908W        W 6893  30.976   0.472   2.883
41909W        W 6894  23.742  26.437  10.730
41910W        W 6895   1.245  20.990  14.466
41911W        W 6896  36.473  26.472   2.762
41912W        W 6897  43.302   2.191   4.298
41913W        W 6898  19.621  32.154  12.143
41914W        W 6899  33.964   8.136   2.050
41915W        W 6900  22.316  35.199  12.621
41916W        W 6901  43.007  39.326  11.102
41917W        W 6902  21.666  24.581   2.284
41918W        W 6903   7.648  31.051  13.449
41919W        W 6904  13.943   3.146  11.629
41920W        W 6905  25.653  13.391  10.464
41921W        W 6906  41.049  41.659  14.765
41922W        W 6907  23.090   9.431  12.144
41923W        W 6908   6.971  40.055  11.583
41924W        W 6909  37.036  42.721   2.349
41925W        W 6910  43.821  26.854  13.758
41926W        W 6911  20.651  13.119   1.835
41927W        W 6912  25.993  37.951   3.168
41928W        W 6913  34.125   2.050   1.829
41929W        W 6914  24.637  10.205  13.087
41930W        W 6915  16.112  20.303  13.161
41931W        W 6916  21.075  31.817   3.156
41932W        W 6917   9.619  43.435  13.889
41933W        W 6918  44.838   9.668  11.589
41934W        W 6919  38.957  31.889   2.733
41935W        W 6920  36.843  23.951   3.272
41936W        W 6921  32.242   1.896   1.861
41937W        W 6922  23.668   0.240  14.042
41938W        W 6923  26.494  22.110   4.360
41939W        W 6924  11.151  13.881   4.149
41940W        W 6925  18.987   3.340   1.283
41941W        W 6926   6.717  22.723   2.509
41942W        W 6927  36.980   5.762  12.726
41943W        W 6928  22.857  28.191   2.885
41944W        W 6929  21.046  42.264  13.814
41945W        W 6930  39.804  32.030  10.898
41946W        W 6931  42.055  13.398   2.790
41947W        W 6932   8.800  34.324   4.198
41948W        W 6933  11.022  42.264  11.088
41949W        W 6934  13.253   7.013   4.977
41950W        W 6935  11.556  13.144  10.208
41951W        W 6936  41.517  35.572  10.766
41952W        W 6937  41.450   9.031  12.360
41953W        W 6938  15.817  20.157  10.624
41954W        W 6939  43.592  37.254  11.178
41955W        W 6940  27.503  36.897   2.002
41956W        W 6941  31.110  17.192   0.356
41957W        W 6942  11.191  14.116   2.380
41958W        W 6943  28.297  18.096   1.855
41959W        W 6944  22.434  28.567   4.675
41960W        W 6945  42.092   3.652  14.332
41961W        W 6946  30.347  28.127  11.886
41962W        W 6947  22.330  33.121   4.963
41963W        W 6948  20.321  14.817  11.063
41964W        W 6949  21.606  13.369   1.851
41965W        W 6950  32.956   5.352  10.298
41966W        W 6951   0.749  15.322  13.564
41967W        W 6952  13.878  32.161  14.813
41968W        W 6953  20.978  18.548  13.603
41969W        W 6954  33.374  29.251   2.177
41970W        W 6955   5.873  40.793   3.295
41971W        W 6956  15.713  27.887   2.797
41972W        W 6957  44.226  18.180   1.290
41973W        W 6958   1.270  34.607   1.503
41974W        W 6959   8.290  21.229   3.588
41975W        W 6960  44.275  28.857  12.276
41976W        W 6961  28.651  41.521   2.670
41977W        W 6962  38.615   2.509  13.331
41978W        W 6963  41.304  33.884  12.886
41979W        W 6964  20.433   9.422   0.681
41980W        W 6965   7.862  24.603  11.631
41981W        W 6966  44.311  20.323   5.060
41982W        W 6967  29.988  16.220  14.430
41983W        W 6968   7.947  17.854  13.362
41984W        W 6969  41.961  25.747   3.177
41985W        W 6970  40.264  34.531  14.073
41986W        W 6971  20.252   5.342   4.630
41987W        W 6972  38.990  24.703   9.850
41988W        W 6973  23.181  23.970   3.702
41989W        W 6974  17.784  28.588   2.468
41990W        W 6975  32.216  10.223   2.362
41991W        W 6976   5.527  38.202  13.841
41992W        W 6977  18.013  40.320  14.356
41993W        W 6978  18.855   1.327   1.922
41994W        W 6979  30.463  23.420   4.141
41995W        W 6980  31.050  44.912   4.900
41996W        W 6981  19.696  35.537  12.588
41997W        W 6982  38.006  20.846  12.587
41998W        W 6983  23.484  15.839   4.584
41999W        W 6984  39.328  21.235  14.186
42000W        W 6985  17.230  24.886   1.657
42001W        W 6986  26.966  10.499   1.159
42002W        W 6987   1.033  22.452   3.283
42003W        W 6988  43.505  31.131   3.320
42004W        W 6989  20.370  36.382  10.849
42005W        W 6990   4.753  30.401   3.587
42006W        W 6991  26.446  18.029  11.200
42007W        W 6992  26.270  24.967  14.996
42008W        W 6993  40.106  35.281  14.236
42009W        W 6994  18.083  24.587   0.331
42010W        W 6995  37.887  33.274   4.300
42011W        W 6996  26.278  27.200   0.690
42012W        W 6997   4.470  33.879   1.759
42013W        W 6998  31.059   6.255  10.811
42014W        W 6999  39.143   1.038   1.885
42015W        W 7000  24.950  29.176  13.818
42016W        W 7001  11.288  40.844   4.590
42017W        W 7002  13.672   5.680  10.715
42018W        W 7003  26.963  23.209  13.861
42019W        W 7004   9.313  40.449  11.604
42020W        W 7005  16.164   8.926  13.438
42021W        W 7006  33.668  25.672   1.110
42022W        W 7007  15.854  39.416   0.258
42023W        W 7008  34.077  18.362  13.984
42024W        W 7009   4.814  16.654   4.832
42025W        W 7010   8.766   4.588   4.210
42026W        W 7011   8.782  27.869   4.511
42027W        W 7012  25.706  10.712   4.869
42028W        W 7013  31.863  18.724  10.804
42029W        W 7014   2.458  25.632   1.463
42030W        W 7015  29.380  19.090   3.384
42031W        W 7016  38.819  34.853   4.560
42032W        W 7017  33.986  28.170  13.417
42033W        W 7018  43.260  27.451  12.371
42034W        W 7019  10.319  25.482  14.277
42035W        W 7020  35.225  11.251  14.352
42036W        W 7021  19.071   9.575   0.510
42037W        W 7022  11.331  26.148  12.865
42038W        W 7023  26.041  14.399   0.783
42039W        W 7024  20.151  36.141  14.642
42040W        W 7025  26.950  42.709  12.970
42041W        W 7026   4.809   0.472   1.932
42042W        W 7027  26.780  16.189   0.496
42043W        W 7028  10.477   2.915  11.749
42044W        W 7029   0.962  30.032   3.696
42045W        W 7030   7.952  36.098  14.442
42046W        W 7031  12.287  27.891  13.485
42047W        W 7032   7.666  23.077   3.493
42048W        W 7033   2.025   4.406  11.198
42049W        W 7034  12.347   4.174  14.092
42050W        W 7035  37.421  20.658   0.967
42051W        W 7036  40.064  23.785  13.465
42052W        W 7037  29.554  10.742   4.238
42053W        W 7038   1.391  19.348   0.760
42054W        W 7039   0.771  44.766  10.521
42055W        W 7040  14.651  10.771  10.696
42056W        W 7041  40.345  31.437  11.980
42057W        W 7042  23.072  20.771  13.528
42058W        W 7043   0.332  39.013  12.452
42059W        W 7044  24.466  17.796  12.503
42060W        W 7045  27.578  44.199  13.667
42061W        W 7046  28.405  16.122   1.698
42062W        W 7047  28.905  18.482   4.146
42063W        W 7048  22.129   5.809  11.906
42064W        W 7049  19.585  30.962  13.268
42065W        W 7050  12.811  33.537   0.774
42066W        W 7051  40.710  20.278  14.915
42067W        W 7052  28.567  27.115   1.837
42068W        W 7053  32.159  24.983   0.954
42069W        W 7054  10.273  22.491  14.423
42070W        W 7055   2.189   1.845  13.931
42071W        W 7056  29.951  44.238  14.947
42072W        W 7057  21.407  41.881   2.369
42073W        W 7058  37.671  13.997   2.475
42074W        W 7059  41.921  24.049   4.445
42075W        W 7060  27.665  24.621  11.204
42076W        W 7061  24.706  42.258  12.988
42077W        W 7062  40.288  19.674   2.929
42078W        W 7063  44.059   6.280   2.438
42079W        W 7064   0.006  31.308   2.467
42080W        W 7065  20.134  11.823   4.918
42081W        W 7066  41.102  36.448  10.964
42082W        W 7067  25.572   5.808  14.406
42083W        W 7068  42.836  13.813   5.118
42084W        W 7069  28.481   2.977   1.185
42085W        W 7070   4.753   7.813   2.422
42086W        W 7071  31.591  17.144  13.556
42087W        W 7072  42.462  42.998  14.849
42088W        W 7073   6.691   7.900  12.862
42089W        W 7074  30.682  37.902  14.838
42090W        W 7075   7.219  16.641   3.827
42091W        W 7076  11.245  41.361   2.363
42092W        W 7077   0.844  21.086  10.567
42093W        W 7078  24.543   3.736  12.001
42094W        W 7079  10.795  32.053   2.542
42095W        W 7080   0.265  38.887   3.115
42096W        W 7081  12.037  11.148  14.368
42097W        W 7082   2.947  36.948   3.375
42098W        W 7083  23.617   3.208  13.825
42099W        W 7084   2.718  15.775   1.730
42100W        W 7085  33.402  17.724   0.366
42101W        W 7086  22.083   8.188  11.543
42102W        W 7087  21.991  21.264  11.670
42103W        W 7088   7.315  37.291  12.209
42104W        W 7089  18.124  31.460  11.179
42105W        W 7090  21.870  32.578  10.162
42106W        W 7091  14.884  31.223   0.927
42107W        W 7092  14.402   7.950   2.813
42108W        W 7093  11.379   5.048   3.800
42109W        W 7094  10.804   2.029   0.640
42110W        W 7095  44.484   6.336   3.368
42111W        W 7096   1.533  23.071  13.033
42112W        W 7097  17.623  44.844  11.156
42113W        W 7098  17.825  30.180  14.339
42114W        W 7099  22.395  39.346  12.124
42115W        W 7100  21.205  39.715   2.120
42116W        W 7101  39.804  17.601   2.635
42117W        W 7102  31.566  33.627   1.720
42118W        W 7103  41.580  20.134  14.475
42119W        W 7104  13.776  12.528   3.363
42120W        W 7105  41.408   5.283   0.348
42121W        W 7106   6.474   4.274  12.801
42122W        W 7107  26.923   3.687   1.285
42123W        W 7108  28.218   2.170  12.495
42124W        W 7109   7.198  31.842   1.780
42125W        W 7110  26.496  32.124   1.914
42126W        W 7111  42.955  40.084  14.806
42127W        W 7112  22.932  13.115  12.952
42128W        W 7113   1.342   3.833   4.687
42129W        W 7114   5.864  39.809  13.917
42130W        W 7115   0.741  12.233   0.350
42131W        W 7116   5.414  19.117   4.417
42132W        W 7117  12.192  19.610  11.523
42133W        W 7118  22.659  30.591  14.568
42134W        W 7119  44.329   2.435   0.869
42135W        W 7120  16.323  13.567  13.608
42136W        W 7121   4.494   0.010  13.732
42137W        W 7122   7.478  44.718  12.893
42138W        W 7123  29.724   8.956   0.483
42139W        W 7124  13.622  28.181  12.446
42140W        W 7125  15.825  20.379   3.238
42141W        W 7126  16.239  44.205   3.353
42142W        W 7127  32.376  27.423   3.377
42143W        W 7128  14.650  16.634   4.215
42144W        W 7129   9.107  26.006  14.989
42145W        W 7130   1.003  39.282  13.085
42146W        W 7131  31.909  26.639   4.614
42147W        W 7132  29.100  34.216  13.445
42148W        W 7133  42.137  41.010  14.319
42149W        W 7134  24.704  43.056  12.438
42150W        W 7135   5.809   9.163  11.469
42151W        W 7136  35.656  30.549   2.151
42152W        W 7137  44.905  25.782   4.045
42153W        W 7138  26.344  29.715   4.786
42154W        W 7139  11.903  17.271  12.725
42155W        W 7140   9.906  12.732  11.635
42156W        W 7141  28.995  32.554   4.097
42157W        W 7142   6.665  21.555  12.092
42158W        W 7143  34.455   3.352   0.362
42159W        W 7144  36.454  13.359  13.468
42160W        W 7145  14.656  29.581  14.827
42161W        W 7146  22.928  38.113  11.115
42162W        W 7147  35.817  42.913  14.008
42163W        W 7148  35.823  35.530  14.872
42164W        W 7149   0.839  16.516   3.823
42165W        W 7150  10.626   1.351   2.605
42166W        W 7151  39.444  38.592  13.542
42167W        W 7152  22.959  26.613  10.896
42168W        W 7153   8.180  44.731  13.815
42169W        W 7154  40.542   0.415   2.269
42170W        W 7155   4.944   0.741   2.404
42171W        W 7156  36.459  12.893   0.245
42172W        W 7157  11.293   8.965   0.329
42173W        W 7158  38.510  14.338  11.280
42174W        W 7159  13.678  19.935  11.320
42175W        W 7160  27.660   4.463   0.284
42176W        W 7161  39.745  40.079   1.769
42177W        W 7162  39.247  21.400  13.301
42178W        W 7163  36.301  37.924   0.229
42179W        W 7164  20.645   4.426  10.835
42180W        W 7165  10.796  18.651   4.848
42181W        W 7166  42.111  35.190  12.125
42182W        W 7167   6.724  24.141  11.710
42183W        W 7168  42.014   6.250  13.540
42184W        W 7169   1.330  20.084  10.777
42185W        W 7170  19.957  18.177   5.255
42186W        W 7171  18.737  24.601  14.510
42187W        W 7172  20.314  30.957   1.789
42188W        W 7173  36.521  27.663   2.212
42189W        W 7174  40.317  10.859  13.926
42190W        W 7175  22.691  31.090   0.709
42191W        W 7176  17.680  22.140  11.648
42192W        W 7177   1.769  31.021  11.227
42193W        W 7178  42.527  29.980   4.549
42194W        W 7179  23.406   7.866   0.129
42195W        W 7180   0.743  20.632  13.831
42196W        W 7181  30.416  37.964   0.275
42197W        W 7182  13.333  27.581   3.152
42198W        W 7183  33.689  37.929   3.419
42199W        W 7184  27.936   8.760  12.949
42200W        W 7185  18.600  33.833   2.966
42201W        W 7186  24.613  30.478  12.142
42202W        W 7187   0.242  40.363  10.754
42203W        W 7188  13.540   8.674   4.177
42204W        W 7189   3.948   5.813  14.831
42205W        W 7190   3.582   3.803   0.213
42206W        W 7191   6.935  31.588  13.402
42207W        W 7192   3.479   6.426  12.023
42208W        W 7193  14.068  26.989   3.130
42209W        W 7194  43.785  38.799   2.079
42210W        W 7195   4.588  43.168   1.834
42211W        W 7196  28.658   9.789  12.353
42212W        W 7197  35.121  20.106   1.840
42213W        W 7198   3.492  31.350   0.959
42214W        W 7199  14.199  33.953   4.081
42215W        W 7200  15.441  21.391   0.308
42216W        W 7201  10.818   6.206   0.320
42217W        W 7202  22.221  16.296   0.897
42218W        W 7203  13.800  31.609  11.166
42219W        W 7204   0.834   6.223   4.558
42220W        W 7205  15.333  11.374   3.182
42221W        W 7206  27.501  31.867  14.287
42222W        W 7207  27.729  38.980   4.086
42223W        W 7208  16.118  25.530  10.721
42224W        W 7209  39.286  18.550   4.629
42225W        W 7210  31.787   5.768  13.881
42226W        W 7211   4.378  34.101  14.885
42227W        W 7212  39.058   9.551   2.307
42228W        W 7213  20.326  43.534   2.673
42229W        W 7214  14.142   3.418  11.218
42230W        W 7215  13.252  18.275  12.581
42231W        W 7216  16.315  11.831   2.665
42232W        W 7217  19.188  23.706  12.668
42233W        W 7218  23.397   0.406  13.035
42234W        W 7219   4.939  29.900   3.293
42235W        W 7220  36.000   4.225  12.975
42236W        W 7221  39.402  20.808   3.808
42237W        W 7222  15.280  24.697  13.503
42238W        W 7223  35.468  13.847   0.891
42239W        W 7224  15.206  28.171  12.940
42240W        W 7225  17.935  44.243  12.450
42241W        W 7226  22.618  43.031  14.149
42242W        W 7227   0.990  26.093  14.875
42243W        W 7228  35.912  32.072   3.682
42244W        W 7229  41.999   0.707  12.341
42245W        W 7230  34.531  22.010   0.474
42246W        W 7231  40.985  31.658   0.928
42247W        W 7232  21.166  41.738  12.171
42248W        W 7233   0.465  39.258   3.408
42249W        W 7234  31.896  35.027  11.692
42250W        W 7235  35.405   5.655   3.732
42251W        W 7236  26.586  40.453   3.818
42252W        W 7237  12.269   5.199  10.641
42253W        W 7238  16.301  41.875  13.827
42254W        W 7239  25.145   1.015  13.506
42255W        W 7240  26.255  14.643  14.061
42256W        W 7241  15.092  20.257   3.845
42257W        W 7242  14.026  21.619   4.079
42258W        W 7243  24.129  31.364   2.590
42259W        W 7244  24.540  32.457  12.053
42260W        W 7245  10.415  25.997  14.121
42261W        W 7246  24.514  23.029   4.468
42262W        W 7247  25.541  34.996   4.674
42263W        W 7248  20.407   9.964  14.480
42264W        W 7249  44.492  42.185  12.821
42265W        W 7250  43.521  34.149  10.297
42266W        W 7251  34.066  35.076   1.784
42267W        W 7252  10.866  17.124  14.723
42268W        W 7253  38.017  15.051  14.853
42269W        W 7254  30.708  21.202  14.825
42270W        W 7255   3.490  13.910   3.382
42271W        W 7256  31.158  20.304  12.357
42272W        W 7257  34.896  14.950  14.702
42273W        W 7258  17.611  13.759   4.105
42274W        W 7259  35.185  14.790   3.254
42275W        W 7260  29.117  11.162   1.900
42276W        W 7261  15.078   4.764  12.296
42277W        W 7262   7.352   8.399  13.887
42278W        W 7263  10.207  36.096   0.027
42279W        W 7264  14.592   6.412   5.091
42280W        W 7265  17.180  12.512  14.532
42281W        W 7266  16.239   4.245  11.092
42282W        W 7267   3.763   7.171  14.362
42283W        W 7268  38.593   1.216  11.937
42284W        W 7269   0.827  10.281  12.505
42285W        W 7270  38.843  27.417   2.103
42286W        W 7271  12.557  18.217   2.489
42287W        W 7272  15.646  17.565   3.132
42288W        W 7273   9.694  20.785  14.962
42289W        W 7274  19.292  35.092  13.080
42290W        W 7275  35.841  35.345   2.432
42291W        W 7276  41.274  34.908  12.410
42292W        W 7277  40.825  17.653  13.567
42293W        W 7278  40.936   8.872   4.423
42294W        W 7279  41.349  21.800   3.726
42295W        W 7280  40.461  17.572   3.142
42296W        W 7281  27.338  17.815   0.408
42297W        W 7282   7.145   4.412  14.918
42298W        W 7283  33.310  12.816   2.675
42299W        W 7284  20.455  10.083   2.870
42300W        W 7285  33.697  21.579   2.227
42301W        W 7286  42.503  26.060  10.307
42302W        W 7287   4.195  36.327   0.226
42303W        W 7288   8.707  14.169  12.337
42304W        W 7289  43.051  44.269   2.790
42305W        W 7290  27.587  39.774   0.781
42306W        W 7291  18.298  17.041  13.819
42307W        W 7292  38.409  30.716   4.696
42308W        W 7293  36.673   7.544  12.083
42309W        W 7294  15.692  12.808   4.492
42310W        W 7295  21.137  20.048  12.061
42311W        W 7296  42.327  37.103  14.115
42312W        W 7297  15.547  30.069  14.555
42313W        W 7298   6.169   7.827   3.399
42314W        W 7299  17.168  14.877  14.497
42315W        W 7300  24.791  29.847  11.514
42316W        W 7301   2.142  40.781  13.012
42317W        W 7302  41.796  28.870   4.622
42318W        W 7303  32.027   7.794  10.711
42319W        W 7304  37.979   0.049   0.478
42320W        W 7305   9.640  20.679   3.394
42321W        W 7306   2.719   0.522  13.954
42322W        W 7307   5.463  38.421  11.101
42323W        W 7308  31.349  23.506  14.453
42324W        W 7309   7.727   3.348  10.241
42325W        W 7310  31.694  39.184  11.526
42326W        W 7311  32.635  32.878   2.726
42327W        W 7312  25.449  21.966   0.892
42328W        W 7313  35.996   8.955   1.723
42329W        W 7314  41.419  12.871   3.448
42330W        W 7315  44.122  17.335  13.095
42331W        W 7316  30.462  26.069  12.441
42332W        W 7317   9.189  41.300  14.993
42333W        W 7318   0.777  16.593  10.444
42334W        W 7319  43.929  26.269   4.193
42335W        W 7320   1.426  26.052   3.674
42336W        W 7321   6.086   9.861  12.104
42337W        W 7322  12.371  10.911  14.710
42338W        W 7323  37.910   5.681  11.459
42339W        W 7324  33.531  18.993  12.473
42340W        W 7325  13.490   5.900  12.852
42341W        W 7326  12.563  44.200   0.395
42342W        W 7327  26.556  27.154  12.123
42343W        W 7328  38.382  37.099   0.225
42344W        W 7329  44.992  24.139   1.860
42345W        W 7330   4.705  42.059  12.163
42346W        W 7331  23.203  39.870   1.258
42347W        W 7332   6.537   7.761  11.567
42348W        W 7333  44.899   7.960   1.960
42349W        W 7334  14.875  40.950   1.193
42350W        W 7335  12.410  41.771   1.266
42351W        W 7336   4.385   4.321   1.136
42352W        W 7337  29.632  35.045  13.901
42353W        W 7338   6.144   2.432   0.818
42354W        W 7339   7.792  41.365   1.293
42355W        W 7340  28.538   0.184   1.698
42356W        W 7341  28.475   5.474  13.311
42357W        W 7342  33.837  40.388   1.943
42358W        W 7343  34.341  25.493   0.446
42359W        W 7344  14.792  11.252   2.302
42360W        W 7345  16.164  37.163   1.088
42361W        W 7346   7.173  40.897   3.770
42362W        W 7347  18.117  39.832  12.244
42363W        W 7348  12.311  34.579   3.420
42364W        W 7349  25.224  14.259   3.689
42365W        W 7350  10.808  37.556  12.390
42366W        W 7351  18.182  35.132  12.095
42367W        W 7352  25.142  44.324  13.806
42368W        W 7353  36.561  40.371  13.580
42369W        W 7354   5.423  24.735   3.112
42370W        W 7355  28.071  21.585  10.439
42371W        W 7356   9.688  44.332   3.578
42372W        W 7357  40.973  38.353  11.934
42373W        W 7358  34.272  29.900  13.002
42374W        W 7359  19.645  21.530   1.500
42375W        W 7360  42.305   7.695   0.368
42376W        W 7361  17.027  18.655   4.404
42377W        W 7362  11.710  39.981   4.562
42378W        W 7363  18.548  38.061  12.450
42379W        W 7364  33.136  21.702  11.063
42380W        W 7365  19.610  13.691  11.697
42381W        W 7366  23.409  36.719  11.135
42382W        W 7367  42.077   3.020   2.000
42383W        W 7368  38.079  12.611   0.397
42384W        W 7369  41.266  26.944   0.919
42385W        W 7370  31.864  22.130   3.080
42386W        W 7371  44.438   9.748   2.323
42387W        W 7372  16.932  28.575  10.457
42388W        W 7373   9.387   4.181   2.181
42389W        W 7374  21.011  43.765  11.413
42390W        W 7375  15.834  37.957  14.849
42391W        W 7376   4.725  40.520  11.669
42392W        W 7377   8.510  18.767  12.020
42393W        W 7378  44.534  24.902   4.282
42394W        W 7379   9.676  29.917  14.909
42395W        W 7380   5.966  26.980  12.095
42396W        W 7381   9.427  13.856   0.356
42397W        W 7382   8.318   9.865   3.325
42398W        W 7383  31.009   7.305   4.184
42399W        W 7384  29.641  22.155  14.149
42400W        W 7385  22.021   7.830   2.319
42401W        W 7386  26.635  16.109   4.479
42402W        W 7387   1.778  13.207  12.448
42403W        W 7388   7.830   0.997  11.632
42404W        W 7389  31.573  41.288   0.012
42405W        W 7390  14.261  33.297  11.966
42406W        W 7391  34.481  14.360  12.457
42407W        W 7392  35.441  36.167  11.742
42408W        W 7393  37.891   6.324   1.879
42409W        W 7394  41.133   0.904  13.516
42410W        W 7395  15.332  24.418  11.983
42411W        W 7396   5.903   5.696  14.936
42412W        W 7397  39.589  25.259  13.837
42413W        W 7398   4.754  44.539   0.874
42414W        W 7399  38.840   0.027   1.941
42415W        W 7400   9.697  29.306   1.317
42416W        W 7401  41.326   9.207   3.250
42417W        W 7402  17.179  29.087   5.075
42418W        W 7403  18.139  17.069   3.345
42419W        W 7404   8.707  23.260   1.006
42420W        W 7405  18.774  18.670   1.872
42421W        W 7406  12.267  15.705   0.192
42422W        W 7407  29.007  15.645  12.934
42423W        W 7408  36.906   8.821   5.360
42424W        W 7409  21.476  29.444  11.159
42425W        W 7410  18.863   8.140  11.111
42426W        W 7411  13.247  30.908  13.797
42427W        W 7412  33.017   7.729  12.040
42428W        W 7413   9.081  38.881  13.194
42429W        W 7414  41.507  19.041   4.135
42430W        W 7415  17.632  31.502   1.906
42431W        W 7416  17.858  11.514   1.310
42432W        W 7417  38.130  11.712  12.942
42433W        W 7418  26.024  39.761   2.454
42434W        W 7419  39.540  30.877   0.689
42435W        W 7420  25.737  15.996  13.943
42436W        W 7421  21.938  14.376   2.038
42437W        W 7422  39.353  18.517  10.266
42438W        W 7423  27.483  26.636  12.450
42439W        W 7424  32.736  33.989  11.534
42440W        W 7425  36.444  22.064   0.865
42441W        W 7426  34.647   8.163  14.363
42442W        W 7427  37.069  34.858  11.648
42443W        W 7428  10.362  17.824   3.378
42444W        W 7429  24.418   7.417  11.144
42445W        W 7430  25.090  26.142   3.468
42446W        W 7431   9.816  39.854   2.696
42447W        W 7432  16.664   4.124   4.470
42448W        W 7433  40.299  35.096  12.122
42449W        W 7434  30.381  44.312   4.583
42450W        W 7435  29.722  21.044   3.044
42451W        W 7436   9.825  23.957  13.484
42452W        W 7437  24.680  32.100  13.923
42453W        W 7438  28.205  15.590   4.069
42454W        W 7439  23.080  37.613  11.156
42455W        W 7440  32.270  34.783   3.211
42456W        W 7441  41.005  39.987   4.331
42457W        W 7442  36.982  27.670   2.445
42458W        W 7443  14.693  30.539   3.841
42459W        W 7444   1.889  36.038  10.747
42460W        W 7445  15.730  22.927   4.627
42461W        W 7446  33.295   2.409  12.579
42462W        W 7447   0.591  13.581  12.819
42463W        W 7448  32.969  39.019  10.458
42464W        W 7449   0.839  32.457  11.739
42465W        W 7450  13.334   1.452  11.523
42466W        W 7451  24.596  21.203   2.350
42467W        W 7452  21.703  19.978   1.805
42468W        W 7453  31.618  13.319  10.499
42469W        W 7454   6.984  44.865   1.270
42470W        W 7455  38.241  20.666   3.582
42471W        W 7456  29.921  33.624  12.220
42472W        W 7457  39.271  11.866  12.492
42473W        W 7458   4.600  15.204   2.761
42474W        W 7459  16.783  12.580  13.312
42475W        W 7460  44.740  36.854  14.875
42476W        W 7461   0.103  10.421  11.859
42477W        W 7462  30.808  19.223  14.137
42478W        W 7463   0.491  18.192   3.079
42479W        W 7464   9.735  31.001   0.067
42480W        W 7465  16.439  29.590   5.056
42481W        W 7466  42.534  34.281   4.948
42482W        W 7467   8.576  25.880   4.530
42483W        W 7468  43.982   5.434  13.493
42484W        W 7469  35.182  22.945   2.421
42485W        W 7470  15.810  39.903  12.547
42486W        W 7471  27.525   5.832   4.834
42487W        W 7472   1.303  27.354  14.486
42488W        W 7473  43.020   2.991  12.169
42489W        W 7474  41.799   9.203   0.630
42490W        W 7475   9.409  37.844   3.353
42491W        W 7476  12.362  41.401  12.379
42492W        W 7477   8.407  35.198   1.157
42493W        W 7478  38.514   0.722   3.594
42494W        W 7479   5.418  16.225   2.581
42495W        W 7480  36.451   4.450   2.284
42496W        W 7481   2.851  44.772  10.762
42497W        W 7482   2.295  21.067  13.033
42498W        W 7483  28.617  33.163  11.194
42499W        W 7484  31.606  27.953  13.443
42500W        W 7485  12.890  18.026  12.344
42501W        W 7486   1.266   8.640   1.759
42502W        W 7487  36.465   1.323   1.359
42503W        W 7488   7.420  15.365   4.188
42504W        W 7489  13.104  42.975  11.313
42505W        W 7490   0.420   8.775  13.764
42506W        W 7491  36.407   7.858  10.737
42507W        W 7492  35.745  32.566  11.602
42508W        W 7493   3.918   5.363  13.852
42509W        W 7494  37.927   5.744  13.363
42510W        W 7495  31.216   3.340   3.764
42511W        W 7496   9.594  30.535  11.803
42512W        W 7497   7.772  29.413   4.895
42513W        W 7498  22.216  18.581   2.132
42514W        W 7499  42.867  21.921  13.306
42515W        W 7500   2.848  23.265  13.845
42516W        W 7501  34.977  10.994   3.637
42517W        W 7502  40.081  22.528   2.393
42518W        W 7503  21.788  38.275  13.018
42519W        W 7504  34.378   7.262  13.010
42520W        W 7505  38.873  13.588  10.655
42521W        W 7506  34.431  38.537   4.381
42522W        W 7507  42.203  25.981   1.678
42523W        W 7508  17.858  25.663   3.411
42524W        W 7509  40.909  13.464   1.411
42525W        W 7510   3.892  24.281   2.927
42526W        W 7511  41.900  25.656  12.088
42527W        W 7512   3.368  28.683  13.504
42528W        W 7513   1.302   0.922   4.706
42529W        W 7514   7.907   9.284  11.108
42530W        W 7515  17.756  18.228  14.517
42531W        W 7516  24.096  23.484   3.778
42532W        W 7517  11.594   7.117   1.654
42533W        W 7518  20.725  42.973   1.869
42534W        W 7519   7.261  26.006  11.505
42535W        W 7520  19.178  25.215  12.916
42536W        W 7521  21.768  14.218  13.164
42537W        W 7522   4.962  20.592   0.314
42538W        W 7523  24.254   7.925  12.414
42539W        W 7524  19.490  19.370   0.758
42540W        W 7525  14.405  30.959   2.848
42541W        W 7526  34.133   0.294  14.791
42542W        W 7527  30.512  24.967  11.993
42543W        W 7528  15.299   9.912   3.532
42544W        W 7529  33.363  27.584  12.040
42545W        W 7530  40.789  41.051   3.614
42546W        W 7531   1.322   0.996  13.127
42547W        W 7532  31.812  19.409  11.555
42548W        W 7533  29.573  43.234   3.689
42549W        W 7534  12.907  26.706  11.557
42550W        W 7535   9.295  21.792   1.327
42551W        W 7536  17.179   9.376  11.394
42552W        W 7537   0.498  18.887  12.356
42553W        W 7538  34.152  41.850   4.093
42554W        W 7539  22.275  10.747  13.847
42555W        W 7540   4.212  21.029   0.754
42556W        W 7541  25.845  18.540  12.357
42557W        W 7542  38.115  32.149   1.436
42558W        W 7543  12.716  13.163  12.549
42559W        W 7544  25.000  16.548  14.756
42560W        W 7545  20.501  31.354  12.063
42561W        W 7546  43.490   3.443   1.255
42562W        W 7547  35.931  10.723   0.997
42563W        W 7548  35.858   1.272   2.656
42564W        W 7549   7.255  13.217  12.870
42565W        W 7550  32.795  26.012   2.328
42566W        W 7551  42.961  30.964  14.022
42567W        W 7552  22.515  40.774   1.757
42568W        W 7553  31.052  25.611   0.603
42569W        W 7554   4.845   5.939   4.945
42570W        W 7555  29.517  30.982   2.747
42571W        W 7556  10.831  41.742   0.377
42572W        W 7557  44.431  23.425   4.116
42573W        W 7558  34.943   1.493   2.370
42574W        W 7559  13.219  29.541  12.539
42575W        W 7560  42.829   0.646   0.217
42576W        W 7561  28.163  28.178   2.880
42577W        W 7562  20.455  29.931   3.177
42578W        W 7563   9.154  18.102  13.942
42579W        W 7564  32.353  12.859  11.541
42580W        W 7565  28.049   2.960  14.504
42581W        W 7566  20.937   0.381  10.170
42582W        W 7567   2.697  39.475  14.255
42583W        W 7568  38.349  19.969   3.779
42584W        W 7569  14.065  33.224  13.557
42585W        W 7570  17.202   2.001   2.749
42586W        W 7571  37.990  35.921  10.856
42587W        W 7572  27.760   3.763  13.286
42588W        W 7573  17.435  28.391   2.831
42589W        W 7574  31.114  43.499  12.068
42590W        W 7575  10.652  19.222  11.795
42591W        W 7576  28.523  31.390  14.921
42592W        W 7577   0.354  21.135  10.819
42593W        W 7578  44.456  29.184  12.619
42594W        W 7579  26.032   7.441  14.302
42595W        W 7580  41.906  25.978  10.287
42596W        W 7581  41.940  10.908  14.972
42597W        W 7582   8.056   1.890  14.992
42598W        W 7583  29.658  42.345   3.593
42599W        W 7584  27.442  14.321   2.797
42600W        W 7585  43.970  18.163   4.601
42601W        W 7586  33.585  22.708   0.825
42602W        W 7587   4.845  37.578   2.756
42603W        W 7588  36.028   7.839  12.501
42604W        W 7589  38.353  31.018   1.480
42605W        W 7590  10.647  42.430  14.822
42606W        W 7591  23.833  44.522   3.201
42607W        W 7592  36.384  30.233  13.849
42608W        W 7593  21.759  19.740   3.880
42609W        W 7594  25.578   4.607   4.070
42610W        W 7595  20.729   9.714   4.522
42611W        W 7596  41.765  39.812  13.486
42612W        W 7597  40.719  31.374   2.645
42613W        W 7598   4.363  36.467   3.635
42614W        W 7599  17.300  40.927   4.218
42615W        W 7600  28.056  39.352   1.606
42616W        W 7601  23.348  15.691  13.978
42617W        W 7602  13.400  19.905  12.666
42618W        W 7603  10.117  23.018   1.238
42619W        W 7604  14.344   9.920  14.426
42620W        W 7605  12.431  15.784  12.933
42621W        W 7606  29.449  28.038  10.665
42622W        W 7607  37.014  12.823  14.956
42623W        W 7608  43.302   8.653   5.043
42624W        W 7609  33.481   3.195  10.113
42625W        W 7610   5.743  19.189  10.965
42626W        W 7611  40.032  14.054   1.909
42627W        W 7612  44.215  10.452  13.895
42628W        W 7613  17.231   9.470   4.657
42629W        W 7614  25.006   6.876  11.995
42630W        W 7615  35.394   3.263   4.063
42631W        W 7616  33.091  36.796  13.957
42632W        W 7617  16.865  39.338  14.233
42633W        W 7618  23.060  12.923   2.333
42634W        W 7619   6.809   8.826  12.859
42635W        W 7620  40.376  22.259  11.517
42636W        W 7621  16.854  22.998   2.798
42637W        W 7622  17.876  25.011   3.565
42638W        W 7623  18.686   3.067   2.280
42639W        W 7624  36.542  17.063   4.077
42640W        W 7625  18.523  36.340   4.183
42641W        W 7626  35.272  29.033  11.533
42642W        W 7627  27.092   1.239   1.365
42643W        W 7628  20.657   3.802  11.109
42644W        W 7629  28.204  13.679  11.147
42645W        W 7630  25.819  44.740   5.044
42646W        W 7631  34.355  28.832   3.585
42647W        W 7632  41.233  15.077   9.808
42648W        W 7633  27.876  28.842   0.002
42649W        W 7634  22.621  32.704  13.476
42650W        W 7635  15.103  33.094   2.793
42651W        W 7636  18.538  23.620   2.476
42652W        W 7637  14.892  37.154   1.385
42653W        W 7638   8.245  30.143   0.913
42654W        W 7639  14.168   5.294   0.611
42655W        W 7640  17.695   6.736   1.639
42656W        W 7641   0.479  43.996  12.847
42657W        W 7642  22.461  29.489   4.688
42658W        W 7643  27.392  33.311  11.161
42659W        W 7644  24.731   6.115  12.019
42660W        W 7645  28.490  11.429  11.283
42661W        W 7646  20.756  44.403   1.669
42662W        W 7647  30.120  28.536  14.222
42663W        W 7648   9.668   6.406   0.035
42664W        W 7649  29.377  43.901  13.135
42665W        W 7650  42.742   5.744   3.622
42666W        W 7651  16.084  21.733  10.634
42667W        W 7652  39.756   3.343  13.398
42668W        W 7653  21.537  13.217   3.210
42669W        W 7654  24.440  36.103   1.923
42670W        W 7655  12.361  38.613   0.565
42671W        W 7656   3.927  44.302   2.322
42672W        W 7657  29.658  16.740   2.875
42673W        W 7658   3.726  42.089  12.999
42674W        W 7659   8.798   7.635   1.785
42675W        W 7660   2.358  11.898   4.159
42676W        W 7661  43.817  12.716   0.036
42677W        W 7662  38.324   3.772  14.949
42678W        W 7663  23.644  29.387   2.416
42679W        W 7664   8.648  12.796  11.973
42680W        W 7665   3.827  16.731   3.731
42681W        W 7666  25.193  17.803  11.986
42682W        W 7667   2.477  12.909   2.725
42683W        W 7668  23.881   9.811   3.105
42684W        W 7669   1.455  37.597   1.799
42685W        W 7670  32.928   8.258   0.772
42686W        W 7671  27.107  42.506  11.517
42687W        W 7672   2.530  39.249  12.938
42688W        W 7673  10.180  16.669  10.826
42689W        W 7674  29.163  37.572  10.717
42690W        W 7675  32.179  13.724  12.551
42691W        W 7676  11.047  34.886  12.449
42692W        W 7677  20.556   1.633   2.249
42693W        W 7678  27.535  28.021   1.725
42694W        W 7679  44.391  43.465  14.787
42695W        W 7680   1.234  18.035  13.475
42696W        W 7681  15.046  14.842  13.906
42697W        W 7682   4.042   2.316  12.935
42698W        W 7683  20.620  36.432   2.656
42699W        W 7684  32.016  40.129   2.281
42700W        W 7685  27.651  15.567   1.485
42701W        W 7686  11.787  23.737   1.347
42702W        W 7687  27.552  17.330   2.895
42703W        W 7688  16.806  14.131   1.827
42704W        W 7689   0.939  16.718   0.117
42705W        W 7690  29.171  41.017  14.486
42706W        W 7691  35.570   1.436   0.850
42707W        W 7692   2.829  40.253  12.858
42708W        W 7693  25.089  37.340  11.301
42709W        W 7694  36.406   6.551   4.099
42710W        W 7695  33.539  20.277  12.910
42711W        W 7696   9.857  39.146   3.225
42712W        W 7697  43.257  12.188  13.406
42713W        W 7698  37.432  42.091  14.967
42714W        W 7699  26.483  26.580  12.519
42715W        W 7700   4.813  21.722   1.696
42716W        W 7701  26.721  44.664   0.684
42717W        W 7702  22.431  35.223   0.807
42718W        W 7703  43.912  20.760   0.393
42719W        W 7704  17.671   5.968  13.953
42720W        W 7705  18.163  26.095   3.306
42721W        W 7706  14.912  28.104   0.937
42722W        W 7707  34.150  33.543   0.265
42723W        W 7708  30.611  21.472   0.251
42724W        W 7709   9.210  43.286   2.107
42725W        W 7710  33.910   6.167  10.607
42726W        W 7711  18.679  38.557  12.477
42727W        W 7712  44.422  40.887  14.528
42728W        W 7713   5.946  19.239   0.905
42729W        W 7714   1.468  17.488  12.413
42730W        W 7715  21.479  24.457  11.484
42731W        W 7716  25.885   8.647  11.994
42732W        W 7717  37.603  32.468   3.063
42733W        W 7718  25.685   2.586  14.338
42734W        W 7719  36.862   1.379  14.973
42735W        W 7720   9.838   2.451  14.668
42736W        W 7721  42.106  18.714   2.432
42737W        W 7722  11.907  25.751   0.942
42738W        W 7723  13.114  36.776  13.012
42739W        W 7724   8.207  23.477  13.173
42740W        W 7725  32.516  27.458  11.848
42741W        W 7726  17.087  31.260   2.736
42742W        W 7727  37.960  21.402  13.452
42743W        W 7728  15.956  10.101   1.425
42744W        W 7729  12.381  38.116   3.344
42745W        W 7730  32.113  24.583   2.578
42746W        W 7731   1.249  16.754   1.367
42747W        W 7732  40.861   8.538   4.813
42748W        W 7733  22.077  24.040  12.903
42749W        W 7734  11.690   5.438  14.763
42750W        W 7735  44.071  32.499   3.135
42751W        W 7736  24.352  39.827   0.841
42752W        W 7737  23.260   7.035  13.441
42753W        W 7738  24.525  19.222   2.849
42754W        W 7739   0.150  35.029   2.645
42755W        W 7740  12.561  25.267  14.850
42756W        W 7741   2.483  18.710  11.170
42757W        W 7742  36.830  25.412   3.308
42758W        W 7743  20.155   9.957   1.483
42759W        W 7744  32.177  25.013   4.263
42760W        W 7745  42.981   2.451  14.614
42761W        W 7746  20.692   4.890  11.607
42762W        W 7747   4.412  35.816  14.509
42763W        W 7748  21.024  35.204  12.894
42764W        W 7749  23.895  28.980  11.610
42765W        W 7750  37.350  32.983  12.592
42766W        W 7751  19.840  21.137  13.347
42767W        W 7752  24.010  42.766  12.367
42768W        W 7753  22.400  16.005   3.192
42769W        W 7754  31.362  38.269   3.806
42770W        W 7755  31.460  18.225   0.624
42771W        W 7756  22.768  21.564   1.417
42772W        W 7757  20.305  20.253   0.892
42773W        W 7758  17.699   3.621   0.924
42774W        W 7759  25.477  17.910   1.372
42775W        W 7760   4.803  29.582  10.153
42776W        W 7761  42.479  20.252  10.953
42777W        W 7762  37.406   5.404   2.255
42778W        W 7763  37.316  12.172  11.497
42779W        W 7764  36.844  37.861  11.550
42780W        W 7765  21.454  39.442  10.633
42781W        W 7766  19.100  29.523  11.329
42782W        W 7767  15.543  36.569  14.803
42783W        W 7768   4.017  20.094  14.341
42784W        W 7769  10.704   0.723   3.125
42785W        W 7770   9.303  37.910   0.878
42786W        W 7771  24.605  26.774   1.419
42787W        W 7772  14.083  30.132   1.819
42788W        W 7773  15.659  12.900   3.543
42789W        W 7774  38.535  28.489  12.926
42790W        W 7775   6.567  19.639   2.810
42791W        W 7776  24.322  30.190   9.828
42792W        W 7777  32.037  40.019  14.810
42793W        W 7778  24.376  23.192  11.643
42794W        W 7779  36.849  30.073   0.821
42795W        W 7780  40.253   5.496   3.270
42796W        W 7781   7.718  21.777  10.890
42797W        W 7782   3.000  13.781  11.505
42798W        W 7783  33.722   5.397   0.065
42799W        W 7784  31.511  14.352  14.725
42800W        W 7785   0.276  26.476  13.570
42801W        W 7786  25.691   5.904   0.853
42802W        W 7787  44.998   4.292  11.619
42803W        W 7788  37.426  17.590   2.402
42804W        W 7789  32.613  21.010   4.728
42805W        W 7790  41.089  36.557   2.665
42806W        W 7791  42.653  42.891   4.936
42807W        W 7792   0.217   6.617   4.097
42808W        W 7793  37.608  31.032   2.132
42809W        W 7794  19.490  21.562   4.802
42810W        W 7795  37.327  44.829  11.647
42811W        W 7796  30.517  21.038   1.902
42812W        W 7797   1.256  27.677  11.174
42813W        W 7798   1.953  11.613   2.847
42814W        W 7799   5.450   5.737   1.983
42815W        W 7800  33.925  43.011  11.891
42816W        W 7801  27.968  17.816   2.206
42817W        W 7802  41.136  18.456  10.235
42818W        W 7803   5.451  40.767   4.084
42819W        W 7804  25.418  17.353  10.270
42820W        W 7805  11.402  40.528  12.410
42821W        W 7806  25.113   7.750  12.726
42822W        W 7807  43.366  42.282   3.352
42823W        W 7808  10.348  43.313   1.548
42824W        W 7809  37.634  17.890  13.235
42825W        W 7810  10.762  36.289  10.983
42826W        W 7811  20.714   4.900   2.246
42827W        W 7812   9.807  19.117  11.259
42828W        W 7813  28.537  14.090  12.517
42829W        W 7814  41.849  33.708  14.975
42830W        W 7815  35.804  10.630   3.297
42831W        W 7816   8.469  38.397   2.663
42832W        W 7817  27.855   8.302   4.832
42833W        W 7818  42.436  13.835   4.699
42834W        W 7819  10.197   0.581  11.460
42835W        W 7820   2.760  44.474  12.697
42836W        W 7821   7.268  39.441  14.448
42837W        W 7822   4.951  17.518  13.874
42838W        W 7823  18.461  20.737   2.142
42839W        W 7824   9.660  36.974   3.157
42840W        W 7825  20.091  42.861   2.468
42841W        W 7826  11.348  17.601   2.385
42842W        W 7827  29.902  26.004   0.793
42843W        W 7828  12.719  32.053  14.430
42844W        W 7829  10.671  34.190  13.972
42845W        W 7830   3.511  42.551  14.014
42846W        W 7831  14.048   1.922  10.471
42847W        W 7832  35.479  36.024  14.547
42848W        W 7833  35.024   0.445   3.275
42849W        W 7834  40.765  16.851   0.638
42850W        W 7835  24.077  39.463  12.551
42851W        W 7836  35.993  35.886  14.503
42852W        W 7837  24.560   8.689   0.295
42853W        W 7838  25.276  35.510  14.922
42854W        W 7839  23.270  18.096   2.832
42855W        W 7840  24.946  22.013  12.175
42856W        W 7841  27.603  34.472  11.247
42857W        W 7842   4.739  20.565   2.400
42858W        W 7843   3.452  34.062   2.775
42859W        W 7844   3.461  17.035  10.980
42860W        W 7845  22.148  30.075   2.264
42861W        W 7846  37.880  40.308  11.548
42862W        W 7847  17.364   4.335  12.887
42863W        W 7848  35.987  30.170  14.178
42864W        W 7849  35.994  14.782   2.645
42865W        W 7850   0.971  36.468   0.989
42866W        W 7851   9.811  38.987  11.501
42867W        W 7852  29.464  36.830   2.856
42868W        W 7853  30.011  42.595   4.410
42869W        W 7854  14.360   6.892  12.544
42870W        W 7855  16.629  20.856  14.832
42871W        W 7856  30.198  23.587   3.314
42872W        W 7857  25.974  34.670  14.842
42873W        W 7858  20.400   2.343   4.958
42874W        W 7859  10.774  11.665   1.828
42875W        W 7860  38.480  19.454   3.732
42876W        W 7861  23.845  18.471  12.066
42877W        W 7862   3.144  25.167  12.106
42878W        W 7863   5.686  15.182  13.944
42879W        W 7864  18.074  20.392   4.755
42880W        W 7865  31.805   9.282   4.890
42881W        W 7866  42.180  32.896   3.704
42882W        W 7867   5.250  29.060  13.811
42883W        W 7868  33.619  35.596  14.434
42884W        W 7869  30.345  20.574  11.987
42885W        W 7870  40.506  18.849  13.767
42886W        W 7871   8.290  29.484  14.522
42887W        W 7872  17.742  24.043  13.471
42888W        W 7873  33.892  12.165  12.340
42889W        W 7874  25.557  10.240  12.498
42890W        W 7875  41.368   6.000  12.718
42891W        W 7876  40.997  14.142   0.434
42892W        W 7877  10.349  26.731  13.546
42893W        W 7878  26.394  38.491   4.259
42894W        W 7879  30.018  17.848   4.895
42895W        W 7880  31.969  21.605   0.944
42896W        W 7881   3.295   2.121   0.295
42897W        W 7882   9.739  38.635   1.758
42898W        W 7883  12.312  33.067   0.866
42899W        W 7884  42.091  18.816   4.602
42900W        W 7885  27.180  24.895  13.152
42901W        W 7886  18.151  41.371   0.624
42902W        W 7887  30.986   6.452  12.324
42903W        W 7888  17.831  15.780   2.296
42904W        W 7889   5.333   8.237  13.581
42905W        W 7890  33.114  19.253  10.870
42906W        W 7891  31.596  36.059  12.914
42907W        W 7892  43.706   2.952   3.124
42908W        W 7893  36.991  44.040   1.950
42909W        W 7894  24.036  29.786  10.710
42910W        W 7895   1.493   8.603  13.123
42911W        W 7896  31.030  28.291  12.587
42912W        W 7897  43.057  19.765  12.084
42913W        W 7898  39.928  36.140   9.892
42914W        W 7899  14.925  34.238  12.565
42915W        W 7900  24.966   2.084   0.391
42916W        W 7901  34.319   9.003  14.011
42917W        W 7902   8.290  10.214  14.485
42918W        W 7903   2.037   1.948   2.737
42919W        W 7904  44.525  24.410  12.386
42920W        W 7905  11.201  16.081  14.321
42921W        W 7906  12.589  29.467   2.660
42922W        W 7907  29.888  42.515   1.591
42923W        W 7908  41.380  22.162   3.331
42924W        W 7909  33.470  26.984   1.671
42925W        W 7910  32.191  24.223   4.803
42926W        W 7911   5.854  44.737   3.936
42927W        W 7912  21.425  12.714  13.329
42928W        W 7913  37.909  17.657   4.609
42929W        W 7914  12.769  40.463  12.839
42930W        W 7915  18.186   0.048   3.203
42931W        W 7916   7.221  29.097   3.420
42932W        W 7917   0.812  28.935  13.152
42933W        W 7918   2.908  29.618  12.498
42934W        W 7919  28.898   9.764   0.322
42935W        W 7920  17.115   7.718   0.272
42936W        W 7921  40.431  24.870   2.495
42937W        W 7922  27.027   0.232  12.608
42938W        W 7923  35.663   9.316   5.077
42939W        W 7924  16.338  42.397   0.043
42940W        W 7925   8.304   0.849  11.487
42941W        W 7926  37.932   1.775   2.772
42942W        W 7927  32.063  21.529  11.096
42943W        W 7928  10.519  20.129  11.668
42944W        W 7929  38.881   2.443   2.491
42945W        W 7930   4.282  10.583   2.792
42946W        W 7931  36.619   0.784   3.752
42947W        W 7932  40.799  38.239   0.259
42948W        W 7933  17.287  27.602   3.132
42949W        W 7934  32.077  12.236   3.301
42950W        W 7935   6.632  39.427   3.193
42951W        W 7936  22.588  28.395   1.655
42952W        W 7937  10.803   9.799  14.484
42953W        W 7938  38.299  18.303   2.213
42954W        W 7939  10.764  18.141  10.710
42955W        W 7940  18.653   4.287  10.669
42956W        W 7941   0.902   1.673   0.281
42957W        W 7942  14.684  38.437   2.649
42958W        W 7943  41.873  34.424   1.510
42959W        W 7944  13.348  41.002   1.649
42960W        W 7945  19.608  42.846   1.596
42961W        W 7946  19.553  39.613  14.031
42962W        W 7947  13.327  17.583   3.869
42963W        W 7948   2.876  14.625   2.070
42964W        W 7949   0.356  44.234  14.733
42965W        W 7950   4.747  43.040   2.313
42966W        W 7951   6.065  33.213  11.161
42967W        W 7952  10.353  19.119  14.794
42968W        W 7953  15.179   3.873   1.664
42969W        W 7954  20.171   4.828   4.550
42970W        W 7955   6.176  35.810   1.152
42971W        W 7956  29.550  24.173  13.536
42972W        W 7957  37.286   2.374   2.188
42973W        W 7958  40.126  31.589  11.555
42974W        W 7959  14.867  20.641  10.733
42975W        W 7960  43.307  16.328  12.352
42976W        W 7961  30.659  36.559  12.178
42977W        W 7962   4.540  29.551   3.238
42978W        W 7963  20.704  11.253   1.972
42979W        W 7964  23.132   2.845  13.068
42980W        W 7965  20.757   7.006   4.905
42981W        W 7966  15.743  29.658  13.320
42982W        W 7967  30.127  11.531  12.956
42983W        W 7968  42.746  17.719  12.995
42984W        W 7969  31.075  40.501   3.750
42985W        W 7970  37.079  20.358   4.107
42986W        W 7971  19.999   6.194   2.327
42987W        W 7972   8.253  26.694  11.357
42988W        W 7973  37.889  27.962  10.810
42989W        W 7974  12.753  18.941   3.696
42990W        W 7975  10.291  18.061   0.470
42991W        W 7976  34.927  38.958  14.376
42992W        W 7977  14.626  32.585   3.549
42993W        W 7978   7.825  28.046   2.287
42994W        W 7979  37.604  37.478   1.233
42995W        W 7980  26.566  28.464   4.772
42996W        W 7981  26.613  19.718   3.331
42997W        W 7982  21.068   4.498  10.544
42998W        W 7983  43.341  20.861  14.093
42999W        W 7984   3.463  31.563   3.383
43000W        W 7985  36.292  38.928  13.706
43001W        W 7986  34.383  12.238   2.165
43002W        W 7987  32.059  16.371   2.141
43003W        W 7988  24.834   1.195  13.903
43004W        W 7989   4.165  31.617   4.903
43005W        W 7990  43.791  40.282   4.530
43006W        W 7991  30.648  26.738   1.841
43007W        W 7992   2.198   5.635   1.069
43008W        W 7993  27.458   2.283  14.957
43009W        W 7994  20.578  44.342  12.941
43010W        W 7995  28.828   0.579   5.070
43011W        W 7996  19.130   1.375   4.418
43012W        W 7997  14.214   1.097   2.602
43013W        W 7998   0.232  29.668  11.121
43014W        W 7999  34.547  12.023  13.803
43015W        W 8000  17.827  22.988  11.990
43016W        W 8001  17.683  11.897  14.037
43017W        W 8002  24.342   2.193  13.353
43018W        W 8003  21.800   6.228  11.863
43019W        W 8004  25.846  20.070  12.928
43020W        W 8005  27.501  15.133   4.145
43021W        W 8006  25.276  28.955   1.855
43022W        W 8007  43.557   9.657   1.251
43023W        W 8008  34.481  33.943   0.863
43024W        W 8009   1.027  17.357   3.412
43025W        W 8010   9.747  33.477   3.768
43026W        W 8011   9.081  24.122   0.733
43027W        W 8012  16.413   6.952  10.758
43028W        W 8013   6.408  11.591   3.262
43029W        W 8014   7.690  27.877   3.655
43030W        W 8015  22.468  29.448  11.409
43031W        W 8016  27.920  22.163  11.264
43032W        W 8017  40.546  18.672  14.268
43033W        W 8018   3.295   4.823  14.311
43034W        W 8019  10.530  42.239  11.131
43035W        W 8020   0.402   0.394  11.189
43036W        W 8021  31.840  25.164   3.348
43037W        W 8022   1.579  16.843   2.730
43038W        W 8023   3.401  42.806   1.956
43039W        W 8024  13.174  30.156  11.860
43040W        W 8025  36.271   8.433  12.968
43041W        W 8026  11.509  14.877   3.572
43042W        W 8027   6.225   6.547   0.262
43043W        W 8028  20.267  18.264  14.719
43044W        W 8029  22.030  10.159   3.294
43045W        W 8030  43.338  17.225   1.392
43046W        W 8031  18.588   7.043  11.124
43047W        W 8032   2.759  32.076  14.757
43048W        W 8033  21.793  38.009   2.223
43049W        W 8034  30.119  28.599  12.058
43050W        W 8035  23.204   9.445  13.025
43051W        W 8036   5.905  40.457   5.234
43052W        W 8037  16.718   3.840   5.409
43053W        W 8038  36.112  44.301   2.809
43054W        W 8039  19.139  15.701  14.301
43055W        W 8040  30.536  28.724  14.478
43056W        W 8041  43.278  19.753  13.339
43057W        W 8042   6.973  17.250   4.887
43058W        W 8043  21.553  36.360   4.121
43059W        W 8044   4.537  24.197   4.148
43060W        W 8045  23.290  41.915   0.919
43061W        W 8046  22.238  15.837   3.670
43062W        W 8047  20.983  18.595  10.174
43063W        W 8048  43.901   3.294   0.934
43064W        W 8049  24.912  16.108  11.657
43065W        W 8050  19.000  42.343   3.289
43066W        W 8051  27.970   8.099   2.048
43067W        W 8052  19.216  27.601  10.462
43068W        W 8053  41.196  13.448   5.067
43069W        W 8054  11.659   9.795  13.107
43070W        W 8055  37.060   2.515  12.503
43071W        W 8056  27.908  24.583   0.948
43072W        W 8057  43.397  18.309   5.268
43073W        W 8058  27.760   7.304  14.346
43074W        W 8059  39.337  10.197   9.978
43075W        W 8060  29.330  30.873  14.535
43076W        W 8061   3.251  18.554  12.009
43077W        W 8062  13.871  29.543   1.255
43078W        W 8063  17.498  22.625   0.146
43079W        W 8064  30.016  20.682  10.644
43080W        W 8065  44.503  28.742  13.967
43081W        W 8066   0.427  20.269  10.810
43082W        W 8067  35.234  38.792  12.414
43083W        W 8068   2.246  11.396   4.099
43084W        W 8069  11.376  12.074   0.447
43085W        W 8070  36.310  33.636   2.312
43086W        W 8071  15.412  26.110   1.324
43087W        W 8072  14.779   9.332  11.096
43088W        W 8073  15.416  36.500   3.158
43089W        W 8074  24.575   0.771   2.342
43090W        W 8075  11.818  28.644   0.245
43091W        W 8076   9.167  36.055   4.496
43092W        W 8077  14.025   6.891  10.274
43093W        W 8078  42.109  25.061   0.657
43094W        W 8079  30.955   8.179   3.192
43095W        W 8080   6.970   6.208   0.919
43096W        W 8081  14.013  42.752  14.766
43097W        W 8082  44.644   9.217   0.575
43098W        W 8083   2.401  32.497  14.527
43099W        W 8084  27.160  25.792  14.063
43100W        W 8085  27.044  39.803   1.458
43101W        W 8086  21.105  31.987  12.457
43102W        W 8087  13.633  24.752  14.312
43103W        W 8088  23.812  10.311   0.342
43104W        W 8089  13.010  32.471  14.303
43105W        W 8090  18.252  28.222   1.625
43106W        W 8091  24.264  12.761  14.595
43107W        W 8092  31.849  31.800   2.154
43108W        W 8093  44.944   4.414  13.086
43109W        W 8094   9.202  11.010   0.184
43110W        W 8095  38.420  17.351   4.344
43111W        W 8096  18.240   5.893   3.169
43112W        W 8097   8.102  36.074  10.733
43113W        W 8098  44.019   9.656   4.848
43114W        W 8099  30.019  21.482  14.584
43115W        W 8100   8.294   6.631  13.425
43116W        W 8101  29.835   4.681  14.439
43117W        W 8102  28.638  28.702   0.635
43118W        W 8103   9.569   9.431   2.265
43119W        W 8104  38.735  37.876   4.171
43120W        W 8105  28.382  30.933  14.110
43121W        W 8106  39.542   9.913  12.278
43122W        W 8107  42.287  26.631  12.141
43123W        W 8108  26.517  32.431  13.099
43124W        W 8109   7.930  13.842   0.310
43125W        W 8110  27.010  15.311  14.873
43126W        W 8111  42.161   7.815   3.908
43127W        W 8112  22.527  42.771   3.719
43128W        W 8113  17.790  33.986   3.628
43129W        W 8114  37.395  12.417   3.812
43130W        W 8115  41.991  32.055   3.160
43131W        W 8116  38.591  20.636   3.160
43132W        W 8117  18.141  25.130   0.131
43133W        W 8118  26.735  14.508   2.234
43134W        W 8119  14.204  20.782  14.395
43135W        W 8120  23.137  21.513  14.744
43136W        W 8121   9.424   6.298   5.057
43137W        W 8122  36.249   7.814   0.236
43138W        W 8123  21.187  34.112  13.679
43139W        W 8124  37.858   4.975  12.053
43140W        W 8125  15.751   9.838   0.324
43141W        W 8126  24.270  25.566   1.292
43142W        W 8127  19.609  40.714  11.738
43143W        W 8128  12.123  14.674   2.498
43144W        W 8129  35.393  33.020   4.676
43145W        W 8130  20.601  31.994   3.310
43146W        W 8131  37.823  26.377   4.579
43147W        W 8132   2.928   9.160   1.299
43148W        W 8133  32.882  30.090   4.181
43149W        W 8134   3.853   4.467  12.075
43150W        W 8135   0.332  12.435  14.426
43151W        W 8136  34.039  38.400  11.153
43152W        W 8137  40.864  32.912  14.474
43153W        W 8138  29.719  26.438   0.460
43154W        W 8139  26.490   0.972   2.208
43155W        W 8140  20.537  19.057   0.265
43156W        W 8141  22.561   5.023  13.882
43157W        W 8142  42.200  21.048   3.150
43158W        W 8143  19.620  34.452   0.537
43159W        W 8144  17.054  21.291  14.333
43160W        W 8145  38.548  30.702   0.063
43161W        W 8146  13.038  38.025   2.190
43162W        W 8147  38.004  13.327   0.799
43163W        W 8148  28.464  33.397  14.376
43164W        W 8149  38.479  35.081   1.161
43165W        W 8150  15.002   1.637   1.494
43166W        W 8151   6.032  18.996   1.715
43167W        W 8152   5.759   7.715  11.133
43168W        W 8153   9.698  23.287   3.052
43169W        W 8154  22.273   2.718  14.989
43170W        W 8155   2.082  29.122  14.670
43171W        W 8156  23.068  39.920  11.376
43172W        W 8157  22.740  42.334   3.207
43173W        W 8158  20.864  14.768  12.951
43174W        W 8159   7.894  19.247   2.211
43175W        W 8160  38.692  37.680  12.083
43176W        W 8161  19.723  15.309   3.682
43177W        W 8162   2.414  43.014   4.235
43178W        W 8163  20.390  27.172   3.610
43179W        W 8164  13.312  34.658  13.390
43180W        W 8165  41.277   9.680  11.634
43181W        W 8166  17.517  40.915  14.410
43182W        W 8167  39.396  15.836  12.422
43183W        W 8168  44.360  16.032  14.431
43184W        W 8169   1.314  15.646  14.372
43185W        W 8170  31.477   0.508   0.788
43186W        W 8171  36.821  17.729   3.236
43187W        W 8172  37.058  15.367   1.229
43188W        W 8173  17.003   6.463  12.074
43189W        W 8174  15.692  44.499   0.036
43190W        W 8175  27.950   7.814   2.881
43191W        W 8176  10.936  12.121  12.939
43192W        W 8177   0.336  24.117  11.992
43193W        W 8178   1.718  22.023   2.327
43194W        W 8179  37.957  23.095   1.374
43195W        W 8180  20.029  35.954   1.638
43196W        W 8181   5.904   9.544  10.415
43197W        W 8182  18.212  21.703   2.192
43198W        W 8183  12.881   7.641  10.250
43199W        W 8184  12.742  26.015  14.915
43200W        W 8185  33.225  12.705  12.667
43201W        W 8186  11.299  41.741   4.240
43202W        W 8187  34.531  11.677   2.712
43203W        W 8188  27.069  34.052   2.227
43204W        W 8189  39.830  22.639  12.415
43205W        W 8190   2.958  28.582  11.394
43206W        W 8191  42.918  31.695   2.710
43207W        W 8192  40.157   1.948  14.135
43208W        W 8193   0.406  25.232   3.257
43209W        W 8194   2.351  10.753   4.869
43210W        W 8195  17.337   3.546  11.628
43211W        W 8196  35.590  12.203  13.861
43212W        W 8197   9.681  29.944   0.847
43213W        W 8198  35.834  21.820  10.660
43214W        W 8199  16.474   3.913   0.238
43215W        W 8200  24.743  25.786   0.321
43216W        W 8201  25.708  12.410  14.592
43217W        W 8202  21.257  38.988   2.699
43218W        W 8203  30.914  41.905  11.244
43219W        W 8204  25.715  34.947   3.778
43220W        W 8205  15.084  11.191  13.955
43221W        W 8206  12.872   4.342   2.345
43222W        W 8207   6.469  30.875   0.011
43223W        W 8208  21.155   3.217  14.132
43224W        W 8209  44.462  33.832  13.967
43225W        W 8210  30.496   1.496   0.678
43226W        W 8211  26.211  14.840   0.346
43227W        W 8212  17.341   6.710   2.223
43228W        W 8213  32.399   4.928   3.830
43229W        W 8214  13.588  28.949  13.101
43230W        W 8215   5.941   8.273  11.896
43231W        W 8216  28.727  32.490  14.889
43232W        W 8217  21.100  30.162   3.660
43233W        W 8218  32.121  15.308   1.311
43234W        W 8219  44.005   9.259   0.544
43235W        W 8220  32.648  35.410  11.629
43236W        W 8221  18.669   9.677  10.967
43237W        W 8222   7.225  40.013   2.741
43238W        W 8223  32.692  44.174   2.200
43239W        W 8224  19.495  40.949   1.741
43240W        W 8225  42.697  30.509   1.038
43241W        W 8226   6.937   7.135   3.753
43242W        W 8227  39.032  34.107  12.908
43243W        W 8228   6.396  19.227   4.547
43244W        W 8229  34.314   5.597   2.524
43245W        W 8230  41.121  32.577   3.185
43246W        W 8231  37.996  36.498  13.093
43247W        W 8232  30.718   1.706   1.679
43248W        W 8233  33.856  35.246  10.437
43249W        W 8234   1.789  23.222   3.813
43250W        W 8235  41.860   5.632   2.792
43251W        W 8236  21.027   3.289  13.629
43252W        W 8237  11.325  21.083  12.085
43253W        W 8238  34.344  32.112   0.303
43254W        W 8239   5.203   1.616  12.316
43255W        W 8240   0.246  15.680  13.281
43256W        W 8241  22.262  33.963  14.763
43257W        W 8242  15.599   0.170  12.119
43258W        W 8243  42.316  42.852   0.820
43259W        W 8244  32.631  15.777   3.058
43260W        W 8245   0.075  35.378  13.376
43261W        W 8246  44.697   9.371  12.411
43262W        W 8247  29.456   0.220   1.655
43263W        W 8248   4.176  21.375  13.774
43264W        W 8249  34.834   0.239   4.797
43265W        W 8250  24.626   8.111  12.700
43266W        W 8251   4.392  10.186  11.116
43267W        W 8252  40.012  42.219  11.487
43268W        W 8253  41.811  40.092  12.050
43269W        W 8254  28.942   7.456   0.231
43270W        W 8255  15.422  40.399  12.800
43271W        W 8256   3.038   4.272   2.312
43272W        W 8257  18.013  20.879  11.536
43273W        W 8258  22.206  17.620  11.689
43274W        W 8259  23.882  13.691  12.111
43275W        W 8260  15.826   4.893   2.703
43276W        W 8261  42.512  37.056   3.265
43277W        W 8262   3.749  44.724  11.703
43278W        W 8263  10.102  26.539  11.603
43279W        W 8264  17.563  33.505  13.830
43280W        W 8265  28.118   6.788  12.462
43281W        W 8266  29.077  42.342  14.563
43282W        W 8267  35.892  41.578   4.405
43283W        W 8268  30.060  40.564  11.160
43284W        W 8269  42.524  29.032   2.034
43285W        W 8270  13.037   5.883   0.987
43286W        W 8271  22.605  44.490  14.689
43287W        W 8272  10.549  21.568  14.543
43288W        W 8273  37.564  23.976  11.586
43289W        W 8274  39.220  15.490   2.278
43290W        W 8275  30.910  24.768  14.431
43291W        W 8276  27.551  42.555  11.239
43292W        W 8277  16.321  12.647  13.558
43293W        W 8278  20.781  20.345  10.557
43294W        W 8279   8.290  35.573  11.477
43295W        W 8280  33.101  25.351   3.725
43296W        W 8281  41.268  31.117   1.338
43297W        W 8282  22.098   8.134  12.625
43298W        W 8283   8.821  42.034   4.147
43299W        W 8284  35.629  44.994   0.818
43300W        W 8285  33.651  12.950  14.754
43301W        W 8286  28.667  37.903  10.970
43302W        W 8287  43.231  28.856   4.939
43303W        W 8288  21.829  21.802  12.193
43304W        W 8289  27.749   6.283   2.199
43305W        W 8290  28.930  16.986  14.836
43306W        W 8291  43.738  16.128  12.127
43307W        W 8292  32.458  44.218   0.724
43308W        W 8293   4.805  44.287   4.141
43309W        W 8294  22.299  38.395   0.816
43310W        W 8295  21.638   2.525  13.463
43311W        W 8296  34.118  41.379   3.886
43312W        W 8297  15.577   2.713   2.258
43313W        W 8298  14.307  43.337   3.269
43314W        W 8299  10.449   9.697   3.497
43315W        W 8300   1.382  18.884   0.491
43316W        W 8301  16.572  10.677  11.166
43317W        W 8302   2.875   3.558   0.850
43318W        W 8303  31.052  14.252   4.125
43319W        W 8304  23.335  29.572  11.053
43320W        W 8305  35.889   5.320  11.879
43321W        W 8306  43.125  36.025  12.330
43322W        W 8307   1.180  28.049   5.201
43323W        W 8308  39.382  31.644   1.865
43324W        W 8309  14.146  38.705   2.030
43325W        W 8310  25.966  18.689   1.902
43326W        W 8311  33.620  38.565   0.731
43327W        W 8312   0.735  10.748  10.637
43328W        W 8313  11.177  31.438   1.746
43329W        W 8314   2.674   6.011   4.654
43330W        W 8315  26.516  39.074  13.008
43331W        W 8316  44.969   4.848   0.700
43332W        W 8317  29.568  38.790  11.990
43333W        W 8318  22.937   2.040  12.117
43334W        W 8319  32.342  18.976   2.149
43335W        W 8320  26.879   0.411  14.019
43336W        W 8321   6.933   8.349   1.405
43337W        W 8322  29.639  24.838  11.996
43338W        W 8323  16.561  29.095  14.405
43339W        W 8324   6.234  13.697   0.649
43340W        W 8325   7.769  28.279   2.838
43341W        W 8326   7.953  44.747  12.083
43342W        W 8327  35.292   8.817  11.326
43343W        W 8328   9.972  37.558   4.359
43344W        W 8329  16.097  30.963  10.645
43345W        W 8330  30.041   4.637   0.434
43346W        W 8331  35.107  41.327  10.652
43347W        W 8332   3.276  34.243   2.285
43348W        W 8333   9.822  14.333  14.067
43349W        W 8334  15.670  15.115  13.283
43350W        W 8335  24.181  38.035  13.758
43351W        W 8336   4.799  22.037  10.741
43352W        W 8337  37.916  19.375  11.089
43353W        W 8338  13.070  33.717  10.471
43354W        W 8339   1.373  41.238   0.344
43355W        W 8340   5.325  20.462   4.038
43356W        W 8341  15.776   7.917   3.257
43357W        W 8342  39.446  39.112  13.626
43358W        W 8343  40.533   7.022  14.009
43359W        W 8344  26.950  30.200  14.278
43360W        W 8345  19.032  10.169   1.162
43361W        W 8346   3.657  24.009   3.898
43362W        W 8347   8.950  20.512   2.923
43363W        W 8348  33.446  35.375   4.948
43364W        W 8349  29.454   1.872  14.446
43365W        W 8350  44.273  43.264   0.272
43366W        W 8351  25.423  22.559  10.659
43367W        W 8352   1.488  36.072   1.715
43368W        W 8353  37.265   2.834  14.455
43369W        W 8354  21.265  34.801   1.494
43370W        W 8355  17.142  25.389   4.633
43371W        W 8356  14.673  36.155   1.390
43372W        W 8357   7.384  32.943   4.160
43373W        W 8358  29.415  40.009   3.183
43374W        W 8359   8.305  14.128  12.931
43375W        W 8360  10.141  31.026  14.015
43376W        W 8361  14.262  42.518   0.907
43377W        W 8362   1.262  11.334  12.107
43378W        W 8363  39.092   9.422  10.652
43379W        W 8364  30.587  40.474   1.817
43380W        W 8365  20.617  27.356   4.371
43381W        W 8366   6.290  18.999   4.105
43382W        W 8367   7.878  40.959   2.385
43383W        W 8368  29.497  32.394   4.056
43384W        W 8369  40.720  24.947   2.056
43385W        W 8370  13.737  15.176  13.489
43386W        W 8371  40.961   7.857  10.906
43387W        W 8372  10.211  44.722  13.432
43388W        W 8373  15.587  13.167   2.897
43389W        W 8374  18.811   9.878  13.042
43390W        W 8375  22.700  43.302  12.491
43391W        W 8376  14.595  26.881   3.154
43392W        W 8377  31.821   6.244  14.435
43393W        W 8378  26.142  25.800   0.337
43394W        W 8379  39.772   7.439  14.966
43395W        W 8380  20.274   2.359  13.886
43396W        W 8381  14.883  24.578   2.769
43397W        W 8382  40.223  41.930   0.082
43398W        W 8383   5.205  24.095  13.376
43399W        W 8384  34.843  37.134   3.252
43400W        W 8385  22.721  25.546  12.835
43401W        W 8386  37.387   9.439   3.244
43402W        W 8387  15.553  26.705  10.246
43403W        W 8388   9.164  10.415   0.127
43404W        W 8389  10.084   8.849  14.809
43405W        W 8390  10.304  37.455  14.950
43406W        W 8391  32.107  14.759  11.539
43407W        W 8392  36.434   3.038  12.514
43408W        W 8393  18.169   1.340  12.907
43409W        W 8394  34.859   3.950   2.158
43410W        W 8395   9.335  30.940  12.097
43411W        W 8396  42.884  14.619   3.712
43412W        W 8397   5.072  13.397  11.518
43413W        W 8398  34.112  35.604   4.293
43414W        W 8399  11.125  11.422  12.551
43415W        W 8400  41.729  36.661   1.408
43416W        W 8401  30.240  20.162  12.554
43417W        W 8402  33.522  12.896  11.873
43418W        W 8403   3.964   0.974   0.550
43419W        W 8404  22.766  39.556  12.922
43420W        W 8405  20.543  16.734  13.848
43421W        W 8406  37.859  17.629   2.733
43422W        W 8407  14.709  12.100  11.014
43423W        W 8408  29.584   3.458   1.437
43424W        W 8409   5.438  38.607   4.646
43425W        W 8410  18.231  21.697   3.728
43426W        W 8411  17.375  25.897  14.345
43427W        W 8412  10.137  24.213  13.827
43428W        W 8413  18.656   0.293  10.567
43429W        W 8414  16.733  34.081  13.493
43430W        W 8415  10.239   0.003   4.576
43431W        W 8416  27.560   6.396   2.680
43432W        W 8417  42.543  24.929  13.739
43433W        W 8418  21.129  18.198   2.692
43434W        W 8419  42.148  29.538  11.110
43435W        W 8420  31.145  12.829   1.939
43436W        W 8421   4.229  42.899  14.941
43437W        W 8422   8.390  32.555  13.981
43438W        W 8423  29.489  36.622   2.312
43439W        W 8424  42.522   6.708   0.671
43440W        W 8425  10.350  17.727   0.078
43441W        W 8426  33.196  12.981  12.232
43442W        W 8427  27.080  36.056   1.361
43443W        W 8428  22.698  30.135  12.447
43444W        W 8429  23.971  18.806   5.236
43445W        W 8430   9.622   4.198  13.066
43446W        W 8431  25.711  25.139  12.857
43447W        W 8432  26.106  33.614   9.753
43448W        W 8433   4.954  22.226   0.883
43449W        W 8434  22.530   5.317  11.587
43450W        W 8435  26.057  37.676   1.256
43451W        W 8436  39.049   5.711  12.615
43452W        W 8437  34.083  13.274  14.968
43453W        W 8438   4.434  18.244   4.935
43454W        W 8439  17.971  36.953  14.410
43455W        W 8440  37.720  20.269   0.767
43456W        W 8441  43.520   9.265  14.710
43457W        W 8442  39.086   8.949  11.237
43458W        W 8443  26.074  29.382  14.238
43459W        W 8444  29.043  30.996  12.212
43460W        W 8445  32.598  26.328   2.692
43461W        W 8446   5.365  18.319   5.001
43462W        W 8447  19.544  36.977   4.639
43463W        W 8448   3.895  25.704   2.797
43464W        W 8449  43.956  14.600  14.408
43465W        W 8450   8.171   1.681   0.817
43466W        W 8451  26.552  11.863  14.567
43467W        W 8452  22.511  15.179   1.919
43468W        W 8453  41.921  13.650  10.875
43469W        W 8454  18.220  15.283   1.428
43470W        W 8455  21.328  16.816  14.800
43471W        W 8456   3.137  29.611   2.140
43472W        W 8457   8.615   5.435   1.288
43473W        W 8458  37.987  35.439  10.695
43474W        W 8459  16.050  23.573  13.577
43475W        W 8460  38.917  33.366   0.238
43476W        W 8461   7.963  14.891   2.610
43477W        W 8462  25.168  12.690  10.900
43478W        W 8463  32.090  32.872  12.465
43479W        W 8464  15.134  24.652  14.017
43480W        W 8465  20.162  37.114   0.723
43481W        W 8466  23.369  39.592  12.150
43482W        W 8467  36.587   5.801  10.622
43483W        W 8468  23.585  31.424   2.248
43484W        W 8469   0.077  34.146  14.693
43485W        W 8470  39.608  38.453  14.409
43486W        W 8471   3.973  24.719   1.016
43487W        W 8472  30.013  24.065  11.007
43488W        W 8473  21.181  11.994   4.205
43489W        W 8474  42.018  16.573  14.114
43490W        W 8475  37.551  12.881   4.446
43491W        W 8476  37.128  30.504  14.601
43492W        W 8477   7.265  22.012  14.021
43493W        W 8478   9.742  25.459   3.737
43494W        W 8479  36.321  23.996   3.257
43495W        W 8480  37.938  23.095   4.496
43496W        W 8481   3.654  20.487  12.006
43497W        W 8482   1.933  44.333   2.175
43498W        W 8483  14.154   7.879  13.996
43499W        W 8484  14.010  26.883  12.633
43500W        W 8485  44.503  34.170  10.553
43501W        W 8486   5.845  23.031   2.894
43502W        W 8487  42.776  10.074   1.265
43503W        W 8488  32.706  16.722   1.703
43504W        W 8489  33.680  21.743  11.148
43505W        W 8490  20.433  36.411   0.855
43506W        W 8491  43.926  21.263  11.410
43507W        W 8492  14.309   9.645  14.879
43508W        W 8493  19.941   8.370  14.995
43509W        W 8494  17.367  35.922  11.147
43510W        W 8495  43.818  36.304   0.801
43511W        W 8496  18.073  14.899  14.504
43512W        W 8497  12.873   8.849  13.839
43513W        W 8498  10.307   6.295   3.742
43514W        W 8499  12.380   3.963   0.000
43515W        W 8500  32.363  12.219  11.994
43516W        W 8501  34.648  21.745  14.571
43517W        W 8502  22.040   9.176   2.216
43518W        W 8503  41.060  32.058  14.134
43519W        W 8504   2.454  34.034   1.898
43520W        W 8505  29.835   9.157   2.246
43521W        W 8506  33.073   6.036  14.521
43522W        W 8507   0.041  40.551   3.396
43523W        W 8508  24.271  17.633  13.843
43524W        W 8509  32.555  19.080   3.602
43525W        W 8510  22.137  20.499  10.467
43526W        W 8511  36.439  37.951   4.210
43527W        W 8512  24.586   9.664   0.313
43528W        W 8513  39.479  13.171  11.177
43529W        W 8514  21.113  36.142  13.336
43530W        W 8515  34.427  31.902   3.639
43531W        W 8516  23.216   1.240   2.292
43532W        W 8517  23.124  34.601   2.813
43533W        W 8518  14.577  31.067   4.634
43534W        W 8519  22.991   6.975   0.314
43535W        W 8520  25.691  17.648   2.343
43536W        W 8521   9.632  44.370  13.989
43537W        W 8522  15.690  19.320  12.594
43538W        W 8523  32.284  23.179  12.220
43539W        W 8524   7.179  37.796  13.737
43540W        W 8525   7.235  25.030  11.644
43541W        W 8526  21.253  10.236   4.803
43542W        W 8527  30.858  40.995   0.944
43543W        W 8528  42.333  21.125  13.359
43544W        W 8529   0.232  24.531   3.752
43545W        W 8530  11.545  40.108  11.196
43546W        W 8531  41.089  43.842  10.608
43547W        W 8532  31.954   2.763   3.747
43548W        W 8533   7.840  19.783   2.374
43549W        W 8534   5.172  17.016   2.147
43550W        W 8535  38.051  44.371  10.207
43551W        W 8536   8.312   3.806   2.894
43552W        W 8537  13.245  27.262  12.020
43553W        W 8538  33.648  28.050  11.973
43554W        W 8539   0.884  44.414   0.423
43555W        W 8540  36.133  40.745   3.359
43556W        W 8541  31.965  18.220  12.392
43557W        W 8542  22.786   8.685   0.912
43558W        W 8543  32.129  29.073  12.048
43559W        W 8544  15.031  14.688   4.744
43560W        W 8545  23.141  40.876   4.189
43561W        W 8546  11.261  37.233   4.220
43562W        W 8547  25.492  34.928  11.792
43563W        W 8548  10.451   6.219   3.248
43564W        W 8549   1.350  21.533   0.323
43565W        W 8550  38.431   9.147  11.962
43566W        W 8551  35.427  31.706   3.211
43567W        W 8552  36.798   4.314   1.787
43568W        W 8553  40.586  28.020  14.998
43569W        W 8554  37.773   2.730  12.250
43570W        W 8555  39.421  37.412   1.656
43571W        W 8556   8.803  44.318   4.852
43572W        W 8557   9.422   4.698  10.907
43573W        W 8558  20.604  15.800   4.008
43574W        W 8559  39.342  20.751  14.366
43575W        W 8560   5.949  32.595  13.998
43576W        W 8561  19.853  35.718  13.353
43577W        W 8562  14.889  30.183   0.313
43578W        W 8563  20.198  38.971  12.407
43579W        W 8564  33.925  34.186  12.824
43580W        W 8565   3.949  26.740  11.312
43581W        W 8566  13.440  25.099  10.104
43582W        W 8567  19.446  35.903  13.584
43583W        W 8568   5.741  25.572   2.689
43584W        W 8569  23.700  35.960   2.246
43585W        W 8570   2.437  11.164  13.848
43586W        W 8571  16.632  41.471   2.239
43587W        W 8572  10.172  33.569  14.478
43588W        W 8573  21.790   9.542  12.062
43589W        W 8574   5.339  39.090   4.840
43590W        W 8575   7.868   9.779   2.742
43591W        W 8576   3.567  15.387  14.990
43592W        W 8577  27.567  26.770  14.493
43593W        W 8578   0.717  22.963  14.362
43594W        W 8579  17.019  42.969   4.970
43595W        W 8580  26.513  41.066   2.739
43596W        W 8581  16.741  28.851   3.252
43597W        W 8582  30.089  38.944   0.754
43598W        W 8583  41.346  36.169  11.995
43599W        W 8584   9.601   5.296  12.575
43600W        W 8585  15.788  30.152   4.693
43601W        W 8586  39.977  42.660   1.367
43602W        W 8587  18.653   4.682  13.352
43603W        W 8588   4.001  22.512  12.468
43604W        W 8589  16.341  30.849  14.835
43605W        W 8590   4.419  23.610   4.972
43606W        W 8591  43.632   1.899   0.463
43607W        W 8592   3.400  18.901   3.148
43608W        W 8593  10.205  28.402  11.530
43609W        W 8594  30.597  35.449   4.130
43610W        W 8595  10.091  20.647  13.486
43611W        W 8596   0.794  23.896   3.147
43612W        W 8597  24.772   4.682  14.506
43613W        W 8598  40.334  11.624   3.935
43614W        W 8599   4.964   9.736   0.283
43615W        W 8600  16.768   1.615   3.626
43616W        W 8601  15.012  40.483  14.419
43617W        W 8602  30.234  33.942  12.494
43618W        W 8603  38.532  33.176   0.872
43619W        W 8604  26.487  13.847  10.767
43620W        W 8605   6.860  26.431  11.452
43621W        W 8606  25.105   4.180  13.780
43622W        W 8607  12.197  29.177  12.221
43623W        W 8608   9.800   8.951   3.758
43624W        W 8609   3.749  32.590   1.723
43625W        W 8610  13.068  25.648   1.234
43626W        W 8611   7.422   5.569   0.848
43627W        W 8612  34.509  18.495  14.241
43628W        W 8613  36.170  24.452  13.336
43629W        W 8614  18.188  28.091  12.305
43630W        W 8615   8.359  38.539  11.623
43631W        W 8616  12.644   7.384  12.464
43632W        W 8617  27.743  14.128   3.224
43633W        W 8618  21.953  12.652  12.459
43634W        W 8619  34.341   8.743  13.039
43635W        W 8620  37.263  37.061  14.448
43636W        W 8621  28.615  16.127  10.893
43637W        W 8622  42.437   1.012  11.123
43638W        W 8623   9.697  25.010  12.068
43639W        W 8624  32.029  23.641  12.102
43640W        W 8625   5.968  20.908   2.067
43641W        W 8626   0.657  39.447  12.394
43642W        W 8627  39.770  34.435   4.503
43643W        W 8628  35.697  22.741   4.132
43644W        W 8629   2.298  36.514  11.407
43645W        W 8630  10.758  10.607  12.106
43646W        W 8631  25.856   5.584  10.291
43647W        W 8632  14.694  33.417   2.700
43648W        W 8633   9.095   6.192   0.800
43649W        W 8634  14.722  43.466   4.853
43650W        W 8635  40.171  11.099   3.149
43651W        W 8636  34.865  18.125   0.937
43652W        W 8637  44.383  26.218   4.642
43653W        W 8638  29.124  27.855   4.011
43654W        W 8639  22.226  35.835   4.807
43655W        W 8640  32.071  34.085   3.700
43656W        W 8641  29.754   0.924  11.126
43657W        W 8642  30.056  25.685  12.019
43658W        W 8643  36.504  21.981   1.851
43659W        W 8644   1.795  11.121  14.562
43660W        W 8645   2.850  36.913  10.351
43661W        W 8646  12.825  44.829  11.547
43662W        W 8647  42.493   0.782   1.485
43663W        W 8648   4.760  32.745  14.300
43664W        W 8649  38.571  23.479   0.424
43665W        W 8650  33.839  36.060   1.996
43666W        W 8651  19.958  41.442  10.451
43667W        W 8652  25.965   3.284  13.341
43668W        W 8653   5.236  17.641   2.644
43669W        W 8654  44.030  16.550  14.487
43670W        W 8655  14.797  14.799  11.204
43671W        W 8656  16.568  22.694  12.096
43672W        W 8657  26.195  29.845  13.989
43673W        W 8658   5.272   6.120  14.384
43674W        W 8659  40.758  34.567  12.588
43675W        W 8660  22.559  36.491   0.436
43676W        W 8661  27.045  33.609  10.279
43677W        W 8662  17.791  26.307  10.936
43678W        W 8663  33.014  32.922  13.974
43679W        W 8664   1.248   4.442   3.261
43680W        W 8665   0.044  20.668  11.604
43681W        W 8666   5.656  37.124   1.522
43682W        W 8667  39.774  33.539   0.715
43683W        W 8668  43.916  40.705   0.890
43684W        W 8669  42.417   0.887  14.043
43685W        W 8670  41.459  40.255  13.444
43686W        W 8671  16.667  32.519   4.805
43687W        W 8672  33.023  32.414  12.089
43688W        W 8673  34.041  25.299   1.904
43689W        W 8674   4.224  42.267   2.287
43690W        W 8675  17.642  22.351   9.785
43691W        W 8676   9.618  19.222  13.145
43692W        W 8677  37.712   4.994   4.140
43693W        W 8678  14.274  18.162   4.592
43694W        W 8679  34.480   4.279   3.631
43695W        W 8680  19.343  17.538  14.120
43696W        W 8681  31.688  29.187  12.957
43697W        W 8682   6.466   4.457  14.245
43698W        W 8683   0.041  13.148  13.036
43699W        W 8684   2.735   0.770   0.281
43700W        W 8685   2.190  36.600  14.922
43701W        W 8686  24.045  44.492  14.343
43702W        W 8687  36.070  37.597  13.013
43703W        W 8688  36.360  19.321   0.792
43704W        W 8689   6.946  17.288  13.980
43705W        W 8690  44.966  41.006   3.657
43706W        W 8691  30.547  20.729   0.755
43707W        W 8692   8.827  44.968  14.846
43708W        W 8693   9.811  18.106  10.515
43709W        W 8694  28.899  25.274   0.270
43710W        W 8695   3.962   1.926   1.466
43711W        W 8696  34.617  39.997  13.905
43712W        W 8697  22.095  42.308   0.403
43713W        W 8698  16.599  31.498  14.025
43714W        W 8699  18.620   3.746  14.460
43715W        W 8700  30.985  27.235  10.534
43716W        W 8701   5.038  42.397  12.412
43717W        W 8702  10.061   3.554   0.320
43718W        W 8703  28.043   9.189   0.826
43719W        W 8704  16.651   0.547   2.674
43720W        W 8705  15.804   9.274   3.074
43721W        W 8706  34.575  17.433   4.155
43722W        W 8707  21.324  26.987   0.355
43723W        W 8708   4.831  25.967  14.011
43724W        W 8709  11.698  11.281   0.373
43725W        W 8710  32.931  36.894  11.475
43726W        W 8711   8.719   1.907   2.817
43727W        W 8712  29.514   0.793  12.611
43728W        W 8713  26.245  27.462  13.824
43729W        W 8714  15.314  18.075   2.335
43730W        W 8715   8.903  15.768  12.857
43731W        W 8716  16.656   2.852   2.332
43732W        W 8717  36.527  39.099  11.167
43733W        W 8718   9.168  30.046   0.870
43734W        W 8719   6.833  17.942  12.125
43735W        W 8720  36.622  43.016  12.462
43736W        W 8721   7.700  31.226  14.663
43737W        W 8722  27.494  11.998  14.972
43738W        W 8723  37.991  10.208  10.703
43739W        W 8724  21.486  22.717   3.674
43740W        W 8725  41.112   0.444  14.875
43741W        W 8726  36.661  23.790  12.160
43742W        W 8727  26.704  23.572   0.133
43743W        W 8728  27.543  30.905   2.602
43744W        W 8729  41.769  14.093   3.234
43745W        W 8730  38.805  19.518   2.305
43746W        W 8731  44.276  37.596   2.751
43747W        W 8732  28.538  10.948   4.849
43748W        W 8733  44.950  37.432   0.268
43749W        W 8734  38.049   4.604  14.368
43750W        W 8735   2.432  32.960  14.862
43751W        W 8736  25.088  13.532  13.446
43752W        W 8737  12.078  31.901   3.158
43753W        W 8738  44.343  31.427  12.567
43754W        W 8739  43.443  14.221  12.053
43755W        W 8740  40.160  23.320  10.714
43756W        W 8741  14.618  14.121  11.103
43757W        W 8742  19.760  27.626  11.654
43758W        W 8743  37.792  22.296  12.443
43759W        W 8744   9.546  32.032  12.020
43760W        W 8745  39.081  26.764   4.132
43761W        W 8746  19.968   2.244   2.223
43762W        W 8747  43.100  42.726  13.689
43763W        W 8748  20.016   4.620   4.106
43764W        W 8749   7.586   9.814  11.871
43765W        W 8750  33.967  10.297   1.348
43766W        W 8751  39.218  43.968  13.460
43767W        W 8752   3.912   3.807  14.789
43768W        W 8753  34.244  44.042   3.694
43769W        W 8754  34.561   1.425   1.132
43770W        W 8755  17.758  28.340  12.095
43771W        W 8756  42.561  13.426   2.758
43772W        W 8757  39.710   4.944  11.097
43773W        W 8758   8.838  40.608  14.667
43774W        W 8759   8.271  30.912  13.097
43775W        W 8760  27.931  37.546  14.046
43776W        W 8761  23.884   1.330   2.741
43777W        W 8762  42.576  26.568  10.211
43778W        W 8763  13.870  42.837   3.293
43779W        W 8764  25.178  35.015   5.065
43780W        W 8765   7.188   8.344  11.225
43781W        W 8766  43.523  13.256  12.960
43782W        W 8767  41.404  22.740  14.908
43783W        W 8768  44.192  35.475   3.366
43784W        W 8769  41.545  30.026   4.152
43785W        W 8770  36.323  12.187  10.508
43786W        W 8771  15.519  31.498  12.131
43787W        W 8772  22.281  20.635  13.874
43788W        W 8773   5.967  14.198   4.165
43789W        W 8774  12.213   2.241  14.234
43790W        W 8775   3.086  11.052   0.763
43791W        W 8776  23.694  34.094  13.599
43792W        W 8777   8.316  11.120  14.527
43793W        W 8778   5.002   9.215   0.445
43794W        W 8779  40.224   4.598   4.444
43795W        W 8780  11.186  13.376   4.273
43796W        W 8781  24.017   9.605  11.871
43797W        W 8782   2.768  25.474   3.729
43798W        W 8783  43.309   7.508  14.042
43799W        W 8784  30.895  25.210   3.189
43800W        W 8785  13.615  17.504   4.931
43801W        W 8786   4.668  32.572   0.925
43802W        W 8787   1.883  44.126  14.428
43803W        W 8788   6.401  35.871   5.109
43804W        W 8789   9.756  32.172  13.966
43805W        W 8790  26.768  31.300   3.474
43806W        W 8791  33.398  14.695  13.354
43807W        W 8792  14.840   8.435  12.484
43808W        W 8793   1.297   7.209   2.279
43809W        W 8794  38.954  40.856  11.330
43810W        W 8795  13.559   0.216   0.861
43811W        W 8796  13.591  33.677   1.253
43812W        W 8797  18.257  23.866   1.281
43813W        W 8798  29.002  44.079  10.804
43814W        W 8799  18.479  39.471   1.797
43815W        W 8800   4.977  14.176   2.088
43816W        W 8801  23.304  24.359   2.424
43817W        W 8802  14.151  12.573   0.142
43818W        W 8803  11.126  12.809  14.964
43819W        W 8804   8.186  10.221  13.941
43820W        W 8805  38.205  37.758   4.348
43821W        W 8806   1.282  32.538   4.230
43822W        W 8807  32.104  12.386  11.578
43823W        W 8808  29.094  14.277  14.773
43824W        W 8809  42.938  43.451  14.283
43825W        W 8810  18.807  24.060  13.237
43826W        W 8811  30.593  23.068  13.509
43827W        W 8812  42.931  22.627   4.631
43828W        W 8813   8.836  40.406   2.133
43829W        W 8814   6.051  39.116  13.714
43830W        W 8815  22.178  31.715  13.886
43831W        W 8816   1.775  30.432   2.259
43832W        W 8817  37.346  20.215  11.047
43833W        W 8818   6.139  13.958   3.705
43834W        W 8819  27.499  36.293   4.796
43835W        W 8820   0.288  10.627  13.415
43836W        W 8821   3.755   9.396   1.855
43837W        W 8822  39.418  11.808  11.595
43838W        W 8823   3.751  18.604  11.926
43839W        W 8824  36.628  41.885   3.432
43840W        W 8825  15.000   6.694   2.206
43841W        W 8826   6.366  14.513  12.980
43842W        W 8827  24.482  34.551  12.899
43843W        W 8828  41.273  40.915  14.341
43844W        W 8829  13.149  35.176   1.172
43845W        W 8830  26.384  28.700  11.973
43846W        W 8831  19.331  31.660  14.981
43847W        W 8832  14.116  35.867   0.735
43848W        W 8833  26.988  29.910  14.988
43849W        W 8834   2.489  37.033  14.794
43850W        W 8835   7.682   1.966   5.009
43851W        W 8836  10.127  11.835  10.729
43852W        W 8837   2.902  35.861  11.603
43853W        W 8838  23.402  38.607   1.284
43854W        W 8839   9.797  34.202  14.840
43855W        W 8840  35.891   4.406  13.449
43856W        W 8841  41.921   3.836   1.322
43857W        W 8842  35.300  12.846  13.587
43858W        W 8843  31.540   4.694  13.583
43859W        W 8844  19.576  20.665   0.537
43860W        W 8845  30.865  14.184  14.340
43861W        W 8846  44.193  31.104   3.680
43862W        W 8847   9.629  30.199  10.658
43863W        W 8848  16.206  40.339   2.149
43864W        W 8849  20.972   0.339   0.873
43865W        W 8850  38.904  30.594  13.892
43866W        W 8851   4.481  29.971  14.959
43867W        W 8852   5.186   4.864  11.133
43868W        W 8853  33.517  29.934  14.782
43869W        W 8854  38.187   5.442   3.537
43870W        W 8855  30.923   5.164   0.332
43871W        W 8856  44.775  21.554   4.061
43872W        W 8857  11.081  26.578   2.671
43873W        W 8858  31.994  34.193   4.197
43874W        W 8859   9.791  22.633   1.319
43875W        W 8860  39.403  30.571   0.186
43876W        W 8861  35.663  18.864  12.936
43877W        W 8862  35.616  27.723  13.423
43878W        W 8863   8.252  12.639  14.840
43879W        W 8864  35.678   1.099  12.119
43880W        W 8865  32.879  19.807   3.239
43881W        W 8866  31.545  42.520  11.147
43882W        W 8867  44.608  13.192  11.464
43883W        W 8868  13.287  24.887  11.630
43884W        W 8869  30.381  36.516   4.165
43885W        W 8870  31.843  34.838   5.015
43886W        W 8871  14.362  44.755   1.232
43887W        W 8872  18.184  20.123   3.772
43888W        W 8873   5.656  21.686   4.178
43889W        W 8874  23.613  40.976   4.006
43890W        W 8875  44.769  22.217  12.150
43891W        W 8876  31.426   6.343   3.108
43892W        W 8877  20.269   6.289  12.263
43893W        W 8878  11.256  14.705  10.909
43894W        W 8879  41.465   6.839  10.896
43895W        W 8880  33.827  38.418   1.230
43896W        W 8881  20.107  39.418  12.971
43897W        W 8882  26.545  27.737   1.770
43898W        W 8883  10.338  35.141  12.977
43899W        W 8884   8.297   6.517   4.718
43900W        W 8885  42.790   5.990  12.579
43901W        W 8886   9.742  17.816   3.052
43902W        W 8887  16.219  13.252   4.115
43903W        W 8888  22.031  20.006  12.057
43904W        W 8889   2.380  19.459  12.121
43905W        W 8890   3.515   5.242   3.671
43906W        W 8891  33.369  24.012   0.363
43907W        W 8892  37.383  10.109   2.314
43908W        W 8893  15.778  17.589  14.369
43909W        W 8894  28.600  21.644  11.127
43910W        W 8895  42.395  33.943   0.863
43911W        W 8896   2.955  18.283   0.928
43912W        W 8897  35.695  27.696   4.222
43913W        W 8898   0.283   3.338  14.419
43914W        W 8899  23.209  34.554   3.712
43915W        W 8900  43.671  22.701   4.120
43916W        W 8901  21.719  38.284   2.832
43917W        W 8902   1.315  18.518  10.764
43918W        W 8903  37.411  29.447  14.241
43919W        W 8904  15.772  23.972   0.266
43920W        W 8905   8.353  19.784   0.338
43921W        W 8906  29.527  17.459  10.702
43922W        W 8907   2.788   8.081   0.355
43923W        W 8908  23.664  37.099   3.426
43924W        W 8909  31.091  24.487  13.544
43925W        W 8910  38.330  21.627   1.684
43926W        W 8911  41.984  27.561   4.533
43927W        W 8912   5.303   9.608   1.205
43928W        W 8913  20.072  13.458  11.571
43929W        W 8914  10.076  22.816   2.177
43930W        W 8915  26.742  20.027  14.934
43931W        W 8916   2.740  10.970  14.843
43932W        W 8917  39.589  19.974  13.481
43933W        W 8918  25.554   1.053   0.698
43934W        W 8919   4.437   5.716   0.023
43935W        W 8920  24.118   7.482   1.809
43936W        W 8921  26.802  14.172  14.414
43937W        W 8922   6.419  10.373  11.206
43938W        W 8923  35.358  13.727   0.380
43939W        W 8924  38.964  39.221  11.419
43940W        W 8925   6.796   6.285   3.228
43941W        W 8926  22.134   1.208  13.939
43942W        W 8927   6.838  27.169  10.987
43943W        W 8928  43.412  29.149  14.456
43944W        W 8929  14.288  40.780  10.751
43945W        W 8930   5.084  14.687  14.516
43946W        W 8931  18.088   1.412   2.911
43947W        W 8932   5.418  31.979  10.988
43948W        W 8933  26.208   6.243  13.041
43949W        W 8934   3.299  11.853  12.543
43950W        W 8935  43.237  39.811   4.076
43951W        W 8936  33.548  14.087   2.146
43952W        W 8937  31.322   5.458  13.920
43953W        W 8938  37.501   1.275  12.716
43954W        W 8939   2.371  34.531   4.282
43955W        W 8940  22.987   5.282  11.836
43956W        W 8941  30.097  11.632  11.008
43957W        W 8942   2.009  41.866  11.420
43958W        W 8943  20.685   9.844  14.054
43959W        W 8944  31.615  10.770   1.705
43960W        W 8945  14.178  25.660   3.901
43961W        W 8946  28.755   4.827  10.979
43962W        W 8947   6.870  27.320  10.498
43963W        W 8948  22.111  17.770  13.115
43964W        W 8949  22.746  44.917  14.415
43965W        W 8950   0.504  40.584   3.185
43966W        W 8951   2.947  34.137   4.482
43967W        W 8952  14.775  31.359  14.475
43968W        W 8953   1.252  23.052   0.324
43969W        W 8954  35.543   7.920   2.748
43970W        W 8955  25.834  11.711   4.967
43971W        W 8956  25.634  26.612  10.635
43972W        W 8957   2.674  44.202   4.075
43973W        W 8958   3.110  16.291  11.525
43974W        W 8959  16.600  35.960   3.805
43975W        W 8960  23.275  43.039  11.979
43976W        W 8961  36.796  29.022   4.509
43977W        W 8962   7.805  16.738   2.421
43978W        W 8963  15.051  18.277   1.937
43979W        W 8964  14.644  20.703   1.696
43980W        W 8965  12.217  30.882   2.201
43981W        W 8966  39.849   8.768  13.143
43982W        W 8967   9.907  24.700  14.937
43983W        W 8968  35.472  27.399  11.179
43984W        W 8969  23.468   3.248  13.324
43985W        W 8970  36.365  27.155   2.353
43986W        W 8971  22.554  43.707   3.360
43987W        W 8972  42.275  24.596   0.446
43988W        W 8973  32.947  28.056   3.820
43989W        W 8974   7.899  13.313   0.317
43990W        W 8975  14.078   9.641   0.373
43991W        W 8976  12.776  28.740  12.575
43992W        W 8977  18.644  22.715   1.209
43993W        W 8978   8.856  36.754  11.459
43994W        W 8979   0.864   3.946  13.787
43995W        W 8980  38.391  41.796  14.738
43996W        W 8981  35.075  37.610   3.227
43997W        W 8982  30.618  24.758   1.750
43998W        W 8983   0.539  17.874  12.600
43999W        W 8984  36.931  22.770   2.765
44000W        W 8985  28.068  23.452   5.023
44001W        W 8986  26.608   9.828  11.730
44002W        W 8987  36.333  43.410   3.088
44003W        W 8988  43.160  17.854   0.405
44004W        W 8989  26.580   4.993   3.276
44005W        W 8990  44.865   0.065  11.400
44006W        W 8991   0.417  12.633   4.629
44007W        W 8992  19.073  13.143  13.366
44008W        W 8993  15.678  44.691   4.603
44009W        W 8994  31.430  13.055  11.456
44010W        W 8995  28.126  19.042  11.157
44011W        W 8996  18.251  18.850   0.245
44012W        W 8997  35.547  42.526   1.414
44013W        W 8998  15.679   6.151   2.659
44014W        W 8999  42.071   7.867  13.885
44015W        W 9000  15.638   1.863   3.209
44016W        W 9001   6.677   4.319   4.493
44017W        W 9002  19.545  43.423  11.971
44018W        W 9003  24.488  32.169   3.273
44019W        W 9004  16.777  39.594   3.374
44020W        W 9005  38.904  14.327  12.988
44021W        W 9006   8.215  21.882  10.808
44022W        W 9007  16.112   2.370   3.764
44023W        W 9008  28.729   2.919  11.740
44024W        W 9009  11.806   2.921   4.175
44025W        W 9010  18.118   5.449  14.359
44026W        W 9011  14.609  38.341   4.114
44027W        W 9012  31.584  32.887   3.664
44028W        W 9013  15.238   8.979   0.269
44029W        W 9014  32.227  10.220  14.845
44030W        W 9015  27.394   4.641  14.859
44031W        W 9016   8.575  13.608   3.782
44032W        W 9017  14.655  32.689  14.825
44033W        W 9018  28.949  30.115  14.779
44034W        W 9019  37.510   9.411   4.134
44035W        W 9020  13.852   5.148  11.568
44036W        W 9021  41.518  15.086   5.596
44037W        W 9022  10.709  17.387   4.167
44038W        W 9023  34.581  35.431  12.292
44039W        W 9024  28.052  22.911  11.990
44040W        W 9025   3.476   6.674  13.905
44041W        W 9026  32.929  12.665  14.037
44042W        W 9027   1.869  28.503   1.908
44043W        W 9028  34.059  43.889  10.539
44044W        W 9029  26.777  23.759   0.636
44045W        W 9030  34.155   7.184  11.563
44046W        W 9031  35.890  20.597   3.344
44047W        W 9032  28.123  14.299  10.175
44048W        W 9033  34.622  28.497   1.336
44049W        W 9034  44.781  26.450   2.366
44050W        W 9035   2.270   5.886   3.683
44051W        W 9036  44.674   8.109  12.472
44052W        W 9037  41.348  13.336   0.730
44053W        W 9038   2.468  30.066  10.666
44054W        W 9039  23.281  15.070   0.898
44055W        W 9040   5.784   7.001   1.709
44056W        W 9041   2.353  32.420   1.267
44057W        W 9042   5.214  32.504   2.425
44058W        W 9043  29.251  30.011  13.437
44059W        W 9044  37.308   7.580   2.292
44060W        W 9045  43.814  29.754  12.532
44061W        W 9046  40.440  11.409   1.783
44062W        W 9047  10.755  24.789  14.419
44063W        W 9048  44.543  32.914  10.762
44064W        W 9049   7.877   9.269   3.899
44065W        W 9050  22.546  18.250   0.159
44066W        W 9051  14.684  11.751   4.083
44067W        W 9052  21.209   9.188   2.581
44068W        W 9053  18.203  26.724   0.786
44069W        W 9054  16.585   0.304   3.641
44070W        W 9055  44.704  17.072   1.892
44071W        W 9056  43.358   2.922  13.913
44072W        W 9057  31.201  34.884  12.457
44073W        W 9058  25.539  26.935   2.766
44074W        W 9059   3.065  31.988   2.215
44075W        W 9060  32.434  24.175  14.401
44076W        W 9061  29.267  15.178  13.013
44077W        W 9062  37.014  11.828  11.010
44078W        W 9063   6.253  22.005  14.503
44079W        W 9064  28.113  34.706  12.448
44080W        W 9065   6.713  37.483  12.373
44081W        W 9066   0.870  38.444  12.484
44082W        W 9067  35.004   1.612   4.646
44083W        W 9068  26.546   3.431   4.937
44084W        W 9069  38.984  41.602   4.928
44085W        W 9070  25.711   9.532  10.726
44086W        W 9071   7.027  42.024   1.696
44087W        W 9072  25.541  14.114   9.892
44088W        W 9073  20.484  10.731   0.274
44089W        W 9074  30.989  24.970  13.802
44090W        W 9075  37.178   5.498  13.595
44091W        W 9076  38.501  25.050  14.470
44092W        W 9077  44.724  43.694   0.867
44093W        W 9078  12.798  15.997  11.562
44094W        W 9079  31.968  31.419  13.900
44095W        W 9080  44.238  33.443   4.032
44096W        W 9081  24.759  15.550   3.591
44097W        W 9082  13.339  42.504  12.529
44098W        W 9083  14.398   3.276  10.253
44099W        W 9084  30.795  39.020  11.620
44100W        W 9085  37.104  22.519   2.276
44101W        W 9086  22.448  11.276   0.874
44102W        W 9087  38.988  23.223   2.671
44103W        W 9088   4.579  41.005   2.915
44104W        W 9089   5.656  23.800  14.549
44105W        W 9090  20.304  35.021   3.107
44106W        W 9091  31.078  36.352   2.960
44107W        W 9092  35.123  16.884  13.883
44108W        W 9093  10.267   7.879   2.316
44109W        W 9094  38.839   9.272  14.904
44110W        W 9095  33.924  25.236  14.492
44111W        W 9096   4.220  23.067  14.545
44112W        W 9097   0.652  35.439   1.290
44113W        W 9098  24.181   0.231  13.357
44114W        W 9099  28.554  26.716   0.610
44115W        W 9100  35.123  43.414   0.452
44116W        W 9101  14.840  16.445   4.672
44117W        W 9102  34.403   0.364  14.345
44118W        W 9103  29.787   5.742  13.012
44119W        W 9104  28.515   6.439  12.451
44120W        W 9105  41.317  27.573   4.101
44121W        W 9106  28.417  38.463   0.799
44122W        W 9107  24.545  29.533  11.878
44123W        W 9108  31.919  30.899  12.191
44124W        W 9109  20.019  39.233  14.959
44125W        W 9110  19.477  18.247   2.290
44126W        W 9111  31.097  26.733  10.501
44127W        W 9112  40.948  10.360  14.935
44128W        W 9113  34.051  12.181   0.945
44129W        W 9114  13.109  41.117   4.805
44130W        W 9115  15.078  41.677   3.154
44131W        W 9116  33.329  40.949   2.633
44132W        W 9117  20.669  31.759   5.231
44133W        W 9118  43.240  28.156   3.205
44134W        W 9119   9.774   2.125   4.349
44135W        W 9120  11.222  15.700   0.385
44136W        W 9121  29.344  41.657  13.368
44137W        W 9122  23.574  14.382  11.530
44138W        W 9123  28.197  25.293   2.326
44139W        W 9124   4.727  16.220  11.644
44140W        W 9125   7.148   6.856   0.183
44141W        W 9126   0.974  37.653   1.621
44142W        W 9127  11.252  25.034   3.236
44143W        W 9128  16.694  16.290   1.844
44144W        W 9129  15.115  10.205   0.821
44145W        W 9130  29.717   1.259  10.563
44146W        W 9131  16.416  36.310   4.132
44147W        W 9132  26.430   3.703  10.299
44148W        W 9133  28.274  40.428  14.982
44149W        W 9134  17.973  19.851   1.691
44150W        W 9135  14.952  25.062  10.346
44151W        W 9136   2.165   6.159   1.843
44152W        W 9137   1.653  23.371   4.325
44153W        W 9138  30.461  13.217   2.354
44154W        W 9139   0.931   7.991  13.092
44155W        W 9140  25.159   1.784   0.744
44156W        W 9141  34.840  38.645   1.404
44157W        W 9142  21.518  20.248   2.216
44158W        W 9143  32.430  28.220   4.548
44159W        W 9144  22.979  33.048   3.128
44160W        W 9145  13.278  42.968   3.221
44161W        W 9146  40.312  30.516   3.358
44162W        W 9147   5.237  16.398  10.958
44163W        W 9148  20.171   1.967  13.525
44164W        W 9149  36.837  34.206   3.058
44165W        W 9150  13.379   0.819   0.950
44166W        W 9151  13.325   1.200  14.632
44167W        W 9152   9.401  26.051  10.800
44168W        W 9153  41.412  11.785   2.830
44169W        W 9154  25.653  20.792  13.864
44170W        W 9155  13.145   6.323   1.938
44171W        W 9156  26.770  34.803   2.710
44172W        W 9157  29.557  11.406  12.074
44173W        W 9158  44.434  12.333  12.727
44174W        W 9159  19.891  21.214   9.998
44175W        W 9160  22.554  38.463  11.097
44176W        W 9161  12.897  38.470  13.970
44177W        W 9162  35.870  39.312   0.017
44178W        W 9163   8.378  11.940  12.013
44179W        W 9164  43.535  20.487   4.856
44180W        W 9165  32.313  39.452  11.162
44181W        W 9166   1.974   9.529  12.449
44182W        W 9167  18.289   4.643  14.805
44183W        W 9168  25.684  24.057  10.395
44184W        W 9169  40.261  18.535  13.412
44185W        W 9170  33.560  37.808   0.408
44186W        W 9171  15.850   2.843  14.059
44187W        W 9172   5.943  26.122  12.477
44188W        W 9173  12.726  19.344  13.114
44189W        W 9174  13.678   9.364   2.262
44190W        W 9175   2.010  41.334   4.114
44191W        W 9176  44.778   6.064  14.057
44192W        W 9177  14.370   3.767   0.734
44193W        W 9178  39.979   9.899  10.649
44194W        W 9179  37.891  17.557   0.974
44195W        W 9180  21.232  38.495   0.133
44196W        W 9181  30.409  31.028  14.325
44197W        W 9182  18.137   9.294  11.539
44198W        W 9183  44.022  31.705   4.912
44199W        W 9184  21.961   6.271   2.243
44200W        W 9185  29.033  38.849  14.253
44201W        W 9186  41.396  21.720   1.027
44202W        W 9187  19.674   4.290   4.793
44203W        W 9188  27.468   9.309   4.652
44204W        W 9189   0.769  24.603   4.601
44205W        W 9190   2.242  19.700  12.560
44206W        W 9191  42.537  24.106   0.372
44207W        W 9192  19.678   7.097  14.535
44208W        W 9193  10.927  41.949   2.733
44209W        W 9194  42.032  43.938   0.910
44210W        W 9195   6.846  29.447   0.528
44211W        W 9196  29.900  25.468   0.888
44212W        W 9197  24.104  25.229   2.024
44213W        W 9198   5.225  13.640   3.685
44214W        W 9199   1.479  28.159   1.964
44215W        W 9200  43.927   0.429   4.579
44216W        W 9201  36.366  41.772   4.347
44217W        W 9202   4.764  17.535   5.027
44218W        W 9203  14.607  43.298  13.593
44219W        W 9204  22.858  27.179   4.423
44220W        W 9205  10.218  43.885  11.117
44221W        W 9206  14.852  24.949  13.633
44222W        W 9207  25.208  22.858   3.308
44223W        W 9208  40.839   5.554  12.933
44224W        W 9209  12.562  18.556  13.085
44225W        W 9210  25.769  37.056  13.847
44226W        W 9211  25.592  37.510   2.718
44227W        W 9212  27.135  43.954   2.575
44228W        W 9213  23.743  39.051  11.985
44229W        W 9214  26.909  41.001  13.983
44230W        W 9215  40.173  12.502   4.265
44231W        W 9216  14.356   6.834  13.940
44232W        W 9217   4.809  15.750  12.971
44233W        W 9218  32.805   4.984   3.532
44234W        W 9219  26.588  33.967  13.167
44235W        W 9220  31.421   3.462  11.993
44236W        W 9221   5.525   9.817  14.388
44237W        W 9222   7.813  26.637   1.836
44238W        W 9223  12.097   9.647  10.487
44239W        W 9224  22.634  44.929  14.952
44240W        W 9225  26.950  43.060   2.370
44241W        W 9226  30.985   2.861  12.623
44242W        W 9227  40.400  17.597  14.466
44243W        W 9228   2.715  29.775  12.994
44244W        W 9229  12.075  23.511   3.131
44245W        W 9230  24.080  25.689  11.430
44246W        W 9231  35.847  16.762  11.071
44247W        W 9232  27.929  32.344  13.568
44248W        W 9233  26.990   9.861   4.450
44249W        W 9234   4.263   4.279   4.254
44250W        W 9235  25.767  11.882  11.096
44251W        W 9236  33.655  17.717  10.734
44252W        W 9237  18.551  40.411   4.284
44253W        W 9238  26.476   5.629  14.651
44254W        W 9239   5.471   8.743  11.391
44255W        W 9240  22.070   8.867   1.785
44256W        W 9241  41.787  12.053  12.439
44257W        W 9242  38.246   0.761   2.101
44258W        W 9243  30.672  38.027  12.797
44259W        W 9244  20.621  41.647   1.946
44260W        W 9245  44.982  34.485   2.647
44261W        W 9246  16.095  43.734  11.546
44262W        W 9247  11.430   9.289  11.237
44263W        W 9248  19.028  23.965   5.480
44264W        W 9249  27.682  25.242  12.401
44265W        W 9250  41.566   1.048   3.284
44266W        W 9251  41.217  19.753   3.033
44267W        W 9252  22.451  20.257  13.306
44268W        W 9253   2.397  36.614  12.499
44269W        W 9254  15.269  40.360   3.636
44270W        W 9255  25.206  14.514   4.131
44271W        W 9256  28.208  39.530  10.336
44272W        W 9257  30.635  32.756  14.827
44273W        W 9258  37.486  14.795   0.852
44274W        W 9259  27.125  16.926   0.233
44275W        W 9260   0.925   4.372  12.960
44276W        W 9261  28.964  35.923   2.769
44277W        W 9262  22.280  37.464   5.015
44278W        W 9263  35.493  16.631   4.045
44279W        W 9264  25.409   2.355  11.983
44280W        W 9265   0.970  32.902   1.758
44281W        W 9266  26.231  15.697   1.138
44282W        W 9267   4.926  36.127   4.243
44283W        W 9268   9.939  44.844   3.418
44284W        W 9269  41.917  35.385  14.748
44285W        W 9270  32.862  35.073  13.435
44286W        W 9271   1.296  23.042   4.539
44287W        W 9272   9.872  18.934   4.369
44288W        W 9273  26.088   3.798   0.980
44289W        W 9274  33.319  32.213   2.707
44290W        W 9275  39.191  41.359   3.503
44291W        W 9276   7.852  34.100   0.792
44292W        W 9277  19.869  31.944   2.650
44293W        W 9278  36.594  14.271   4.356
44294W        W 9279  22.764  18.245  11.077
44295W        W 9280  14.710  42.513   2.821
44296W        W 9281  25.428  21.697   1.327
44297W        W 9282   4.510  41.054   3.763
44298W        W 9283  16.407  36.367  13.079
44299W        W 9284   4.035   3.267   3.082
44300W        W 9285   6.639   3.536   4.576
44301W        W 9286  14.723  22.499  11.514
44302W        W 9287  23.444  33.024   1.341
44303W        W 9288   2.480  19.008  14.897
44304W        W 9289  28.168  36.406  11.126
44305W        W 9290  27.417  39.508  14.785
44306W        W 9291  19.062  15.891  11.802
44307W        W 9292  35.457  28.142   1.622
44308W        W 9293   3.923   0.798   2.888
44309W        W 9294  17.826  24.200   1.732
44310W        W 9295   6.861  13.906   4.774
44311W        W 9296   3.389   7.970  13.226
44312W        W 9297   4.820  17.585  14.822
44313W        W 9298  42.031  40.635   3.141
44314W        W 9299  33.167  21.700   3.497
44315W        W 9300   2.743  32.410   0.899
44316W        W 9301   7.826  18.600  14.876
44317W        W 9302  44.228  43.268  12.187
44318W        W 9303   0.604  32.057  12.950
44319W        W 9304  21.941  28.653   2.309
44320W        W 9305  27.571   5.370  10.925
44321W        W 9306  22.090  40.807  12.001
44322W        W 9307  41.876  40.014  13.025
44323W        W 9308  21.253   2.545   3.163
44324W        W 9309  32.174  21.163   1.180
44325W        W 9310   8.570  26.024   0.930
44326W        W 9311  11.300   1.551   0.800
44327W        W 9312  29.740  32.356  14.245
44328W        W 9313  40.976  14.721   0.634
44329W        W 9314  36.485   4.393  13.060
44330W        W 9315  26.419  42.265   3.171
44331W        W 9316  37.964   1.480  12.529
44332W        W 9317  10.179  17.781  12.141
44333W        W 9318  19.202  12.892  12.373
44334W        W 9319  42.223   4.029  13.976
44335W        W 9320   7.835  29.260   0.845
44336W        W 9321  32.055  20.474   4.448
44337W        W 9322  21.184  21.510   0.759
44338W        W 9323  21.980   7.827   4.155
44339W        W 9324   4.821   1.971   0.790
44340W        W 9325  21.828  23.520   1.036
44341W        W 9326  27.895  23.613   1.891
44342W        W 9327  26.461  28.480   1.455
44343W        W 9328  21.547   5.593   1.231
44344W        W 9329  11.168   2.606  11.077
44345W        W 9330  29.724  39.461  14.360
44346W        W 9331  40.409  36.590  13.914
44347W        W 9332  40.886  13.324  14.801
44348W        W 9333  11.254  40.274   0.352
44349W        W 9334   4.168   7.467  13.042
44350W        W 9335  43.396   0.361   1.431
44351W        W 9336  39.760  43.214  13.007
44352W        W 9337  37.545   8.758  11.251
44353W        W 9338  12.288  34.844  12.786
44354W        W 9339  11.305  23.031   3.321
44355W        W 9340  13.588  19.550  10.584
44356W        W 9341   3.945  36.736   0.466
44357W        W 9342  37.771  26.054   4.176
44358W        W 9343   8.252   1.507  12.259
44359W        W 9344   1.789  37.478   3.597
44360W        W 9345  38.232  34.533  14.477
44361W        W 9346  12.298  10.100  11.688
44362W        W 9347  31.518   8.409  14.040
44363W        W 9348  35.224  33.032   4.183
44364W        W 9349  37.147   1.343   3.190
44365W        W 9350  23.004  42.569  11.101
44366W        W 9351  38.239  15.823   0.293
44367W        W 9352  21.130  34.959   4.723
44368W        W 9353  26.721   0.342   2.807
44369W        W 9354   2.183  42.419   5.018
44370W        W 9355  36.614  14.765  14.482
44371W        W 9356   9.604  12.112  13.883
44372W        W 9357  39.335  12.510   5.103
44373W        W 9358   8.354  30.499  11.411
44374W        W 9359  13.278  36.112  12.383
44375W        W 9360   2.739  18.641  12.042
44376W        W 9361  40.271   1.502  10.751
44377W        W 9362  44.415  30.412  14.947
44378W        W 9363  28.159  38.878   0.684
44379W        W 9364  15.579  41.690  11.198
44380W        W 9365   5.867  13.029   1.382
44381W        W 9366  10.613  34.530  14.900
44382W        W 9367  12.443   2.904  13.935
44383W        W 9368  30.488  20.568   1.686
44384W        W 9369  17.744  30.276   0.637
44385W        W 9370  10.497  31.525  14.084
44386W        W 9371   3.444  26.069   1.167
44387W        W 9372  18.613  14.260   2.278
44388W        W 9373  20.492   4.843  12.603
44389W        W 9374  15.407  26.607   1.853
44390W        W 9375  25.479  13.304  14.948
44391W        W 9376  42.904  18.137   1.830
44392W        W 9377   7.367  32.923   4.708
44393W        W 9378  22.766  35.065  11.434
44394W        W 9379  11.295  30.140   0.782
44395W        W 9380  27.765   9.415   4.233
44396W        W 9381  24.312  10.327   2.889
44397W        W 9382  43.783  13.553   0.653
44398W        W 9383  39.537   3.883  13.463
44399W        W 9384   4.001   6.956   5.531
44400W        W 9385  25.280  16.796   2.123
44401W        W 9386  32.009  32.940   0.396
44402W        W 9387  22.124  40.648  10.555
44403W        W 9388   6.848  19.659  12.687
44404W        W 9389   8.654   7.848  12.873
44405W        W 9390  11.843   5.937  14.603
44406W        W 9391  24.033   2.301  13.760
44407W        W 9392  13.153  32.102  12.024
44408W        W 9393  12.812  37.976  13.403
44409W        W 9394  27.309  44.520   1.790
44410W        W 9395   7.332  20.662  10.532
44411W        W 9396   0.589  31.474   0.674
44412W        W 9397  36.899   5.795  14.814
44413W        W 9398   5.209  27.641  14.108
44414W        W 9399  40.737  24.915   4.471
44415W        W 9400  22.242   0.075  12.138
44416W        W 9401   2.969  21.997  13.427
44417W        W 9402  33.880  14.774  14.799
44418W        W 9403  16.838   6.881   2.289
44419W        W 9404   4.254  37.455   1.962
44420W        W 9405  27.068   6.388   3.888
44421W        W 9406   8.377   8.674  11.673
44422W        W 9407   9.484  22.947   2.615
44423W        W 9408  40.496  11.371  11.529
44424W        W 9409  33.141  42.003   4.117
44425W        W 9410   7.332  34.009   0.738
44426W        W 9411   8.182  12.278  12.574
44427W        W 9412  19.116  35.176   2.290
44428W        W 9413  16.359  19.023  14.753
44429W        W 9414  40.840  38.900  11.125
44430W        W 9415   7.857   3.732   4.768
44431W        W 9416   3.908  35.013  14.053
44432W        W 9417  43.436  21.288  10.460
44433W        W 9418  14.022  10.845  10.582
44434W        W 9419   4.664   8.519   1.109
44435W        W 9420  30.124  42.946  14.025
44436W        W 9421   7.944  41.756   1.624
44437W        W 9422   8.810  44.762  11.583
44438W        W 9423  26.208  15.806   1.638
44439W        W 9424  18.831   6.976  13.848
44440W        W 9425  17.594  26.684   3.556
44441W        W 9426  38.921  16.054  11.593
44442W        W 9427  33.236  30.886  10.946
44443W        W 9428  33.749  21.112  13.637
44444W        W 9429  31.060  41.440  10.456
44445W        W 9430  27.933  17.075   4.481
44446W        W 9431  38.303  41.591  13.353
44447W        W 9432   2.577  18.983   1.928
44448W        W 9433   5.528  36.109  13.875
44449W        W 9434  32.395  29.832   0.662
44450W        W 9435   8.788  43.060   2.310
44451W        W 9436  16.604  10.377  13.990
44452W        W 9437  35.824   4.686  12.835
44453W        W 9438   3.205  19.880  11.074
44454W        W 9439  19.213  17.109  13.868
44455W        W 9440   9.719  44.882  10.805
44456W        W 9441  24.342  30.141  13.959
44457W        W 9442  12.002  26.701   2.844
44458W        W 9443  41.057  38.356  11.077
44459W        W 9444  28.930  20.267   4.780
44460W        W 9445  29.180  30.687  12.614
44461W        W 9446  18.330  35.663   3.543
44462W        W 9447  28.440  44.450   2.766
44463W        W 9448  17.769  26.464  11.832
44464W        W 9449  10.357  20.188   1.710
44465W        W 9450  31.977  15.561  14.828
44466W        W 9451  27.152   8.497  11.173
44467W        W 9452  40.004  34.428  14.799
44468W        W 9453  33.222  15.068  14.454
44469W        W 9454  34.569  22.327   3.726
44470W        W 9455  41.031  36.572  13.374
44471W        W 9456  31.179  27.888  11.131
44472W        W 9457   3.264   7.925  14.406
44473W        W 9458   2.146  14.871   4.569
44474W        W 9459   9.675  19.971   4.078
44475W        W 9460  41.809  27.102   3.693
44476W        W 9461  35.008  12.694  10.595
44477W        W 9462  15.049  24.582  11.592
44478W        W 9463  25.684  31.912   1.734
44479W        W 9464   5.747  31.626  12.941
44480W        W 9465   6.528  40.801  14.879
44481W        W 9466  18.191  27.165   2.777
44482W        W 9467   1.427  13.226   4.333
44483W        W 9468  32.094  22.651   3.356
44484W        W 9469  36.156  17.275  11.941
44485W        W 9470  12.864  21.593   3.373
44486W        W 9471  18.658  14.366   3.749
44487W        W 9472  31.885  10.654   3.650
44488W        W 9473  12.131   3.958  13.220
44489W        W 9474  36.508  29.399  10.422
44490W        W 9475  34.607  40.990   1.168
44491W        W 9476  17.380  36.792  13.118
44492W        W 9477  35.184  31.984  11.215
44493W        W 9478   3.659  38.088   1.589
44494W        W 9479   3.448  28.494   3.070
44495W        W 9480  10.723   3.336   0.348
44496W        W 9481  34.077   2.029  13.893
44497W        W 9482   3.021  37.932   3.742
44498W        W 9483  35.583   2.920   4.390
44499W        W 9484   9.722   7.237   2.125
44500W        W 9485  15.409  37.975  10.678
44501W        W 9486  38.540   1.351   0.681
44502W        W 9487  30.500  18.979  14.525
44503W        W 9488  10.228  13.115  14.074
44504W        W 9489   0.354  22.457   4.140
44505W        W 9490  17.713  21.652   1.399
44506W        W 9491  42.252  23.803   0.752
44507W        W 9492   4.848   6.057   3.292
44508W        W 9493   1.319   2.019  10.708
44509W        W 9494  35.590  10.250   2.600
44510W        W 9495  41.089  33.801   4.963
44511W        W 9496  43.943  32.971   2.202
44512W        W 9497  24.324  11.328  11.905
44513W        W 9498  42.404   1.253   3.757
44514W        W 9499  37.325  20.593   3.711
44515W        W 9500  43.771  25.968  14.020
44516W        W 9501  36.569  41.376   1.625
44517W        W 9502  35.117   2.860   0.771
44518W        W 9503   3.884  13.231  14.552
44519W        W 9504  23.888  40.488   3.838
44520W        W 9505   2.791  26.660   5.038
44521W        W 9506  20.439  26.640   2.738
44522W        W 9507   1.337  14.113   4.599
44523W        W 9508  27.708   7.016   2.864
44524W        W 9509  36.385   0.428   2.913
44525W        W 9510   6.610  28.668  12.506
44526W        W 9511  42.279  15.144   4.676
44527W        W 9512  37.534   6.906  14.921
44528W        W 9513  42.456  21.883   3.275
44529W        W 9514  31.980   0.403   4.291
44530W        W 9515  42.957  40.874   2.293
44531W        W 9516  15.864  19.588  14.855
44532W        W 9517  15.476  34.011  12.852
44533W        W 9518  13.753  39.603  13.502
44534W        W 9519  18.116  16.124   2.976
44535W        W 9520  26.004  18.235  11.009
44536W        W 9521   4.834  29.128   1.929
44537W        W 9522   7.924  38.764   2.292
44538W        W 9523   2.226   3.648  10.712
44539W        W 9524  22.560  21.264   4.178
44540W        W 9525   8.770  11.852   0.776
44541W        W 9526  29.392  38.540   2.212
44542W        W 9527  27.141  42.133  12.067
44543W        W 9528  20.628  12.828  14.121
44544W        W 9529  29.960  24.265   2.785
44545W        W 9530  10.883  34.025   1.607
44546W        W 9531  14.360  33.460  11.087
44547W        W 9532   9.358  27.101  10.689
44548W        W 9533  20.494  23.181  14.750
44549W        W 9534  16.740  10.744   0.243
44550W        W 9535   4.668  16.406   4.162
44551W        W 9536  27.265   5.342   3.214
44552W        W 9537  32.711   4.229   4.652
44553W        W 9538   8.411  43.306   0.817
44554W        W 9539  41.491  35.857   3.965
44555W        W 9540  40.868  24.402   3.668
44556W        W 9541   7.143  22.555  11.190
44557W        W 9542   7.044  32.032  10.354
44558W        W 9543  18.177  25.251   0.818
44559W        W 9544  38.896  27.119   1.697
44560W        W 9545  33.469  38.343   2.113
44561W        W 9546  22.657   3.406  14.295
44562W        W 9547  39.831  12.760   0.598
44563W        W 9548  14.240  32.609   0.113
44564W        W 9549  14.317  15.134   0.068
44565W        W 9550  10.789  31.462   0.923
44566W        W 9551  32.360  11.881   1.962
44567W        W 9552  33.171  27.312  13.769
44568W        W 9553  10.355  20.117   0.174
44569W        W 9554  29.625  28.711  13.087
44570W        W 9555  37.298  36.995  12.980
44571W        W 9556  28.945  36.131  13.442
44572W        W 9557  29.814  21.424  10.940
44573W        W 9558  20.490  19.435   0.621
44574W        W 9559  17.642   2.316   4.195
44575W        W 9560  28.495   4.224   3.894
44576W        W 9561  40.796   7.621  14.996
44577W        W 9562  23.199   4.731   0.269
44578W        W 9563  38.080  16.649   4.545
44579W        W 9564   2.815  37.830   2.856
44580W        W 9565   9.454  15.223   4.873
44581W        W 9566  37.017   0.748   2.352
44582W        W 9567  11.567   0.550   1.252
44583W        W 9568  13.338  34.857   1.519
44584W        W 9569  20.078  22.151   4.391
44585W        W 9570   0.361  10.334  12.706
44586W        W 9571   1.339  13.119   3.848
44587W        W 9572   6.683  12.414   4.077
44588W        W 9573  16.699  12.380   1.040
44589W        W 9574  22.251  20.704   1.311
44590W        W 9575   4.809   3.876  14.920
44591W        W 9576  43.954  23.775   0.416
44592W        W 9577  21.174  43.523   4.084
44593W        W 9578  29.680  27.074   3.410
44594W        W 9579   3.483  24.374  14.245
44595W        W 9580  31.878   0.717  10.617
44596W        W 9581  29.688   6.784  13.105
44597W        W 9582  20.337  10.021   4.535
44598W        W 9583  28.687  37.105   3.172
44599W        W 9584  12.199   3.070   1.849
44600W        W 9585  11.466   6.850   2.700
44601W        W 9586  44.809  44.565  12.368
44602W        W 9587  23.487  15.272  13.673
44603W        W 9588   3.321  34.111  11.203
44604W        W 9589  13.174   8.917   4.480
44605W        W 9590  33.775  35.776   0.717
44606W        W 9591  37.049  37.112   1.404
44607W        W 9592  24.550   7.675   1.608
44608W        W 9593   9.903  24.940   1.353
44609W        W 9594  34.943  29.480  10.688
44610W        W 9595  38.074  36.350   2.602
44611W        W 9596   5.354  29.783  12.097
44612W        W 9597  25.623  21.029   3.980
44613W        W 9598  33.863  41.114   0.229
44614W        W 9599   1.423   4.674   1.484
44615W        W 9600  23.153  13.353   1.387
44616W        W 9601   6.696  22.967   1.298
44617W        W 9602  26.228  37.314  12.861
44618W        W 9603  24.725  26.663  10.666
44619W        W 9604  41.312   1.785   3.561
44620W        W 9605  42.874  37.978   1.795
44621W        W 9606  17.128  14.326  14.515
44622W        W 9607   9.374  18.228   3.745
44623W        W 9608  38.513  42.803  13.923
44624W        W 9609   0.609  44.316  10.239
44625W        W 9610   2.860   4.851   1.347
44626W        W 9611  36.145  38.484  13.503
44627W        W 9612  40.988  18.743  13.978
44628W        W 9613  17.983  13.305   0.995
44629W        W 9614   4.278   2.700  12.136
44630W        W 9615  10.732  33.577   4.991
44631W        W 9616  38.869  39.728  14.703
44632W        W 9617  26.994  24.687  12.451
44633W        W 9618  19.992  43.754   4.896
44634W        W 9619  10.010  42.220  11.197
44635W        W 9620  26.993  26.910  12.012
44636W        W 9621   0.001  18.196   9.984
44637W        W 9622  20.085  40.838   4.351
44638W        W 9623  43.508  13.170   1.338
44639W        W 9624   9.912  30.126  12.531
44640W        W 9625  21.069  38.551   3.610
44641W        W 9626  28.891  18.050   3.809
44642W        W 9627  40.942  20.872   9.852
44643W        W 9628  24.770  33.077   3.784
44644W        W 9629  35.245  40.434   0.907
44645W        W 9630  26.474  33.985   1.001
44646W        W 9631  40.441  10.885   0.528
44647W        W 9632  16.928   6.013  12.339
44648W        W 9633  16.339   0.048   0.257
44649W        W 9634  14.798  30.082  13.940
44650W        W 9635  38.496  11.590  12.060
44651W        W 9636  25.188   2.208  12.434
44652W        W 9637   3.318  30.391  12.470
44653W        W 9638  15.049  19.100  11.555
44654W        W 9639  40.794  20.333  14.155
44655W        W 9640  15.227  34.951   3.818
44656W        W 9641  38.415  44.532   2.677
44657W        W 9642  11.101  30.925   3.792
44658W        W 9643  23.492  35.060   0.839
44659W        W 9644  41.205  20.162   4.719
44660W        W 9645  31.683  44.036  13.514
44661W        W 9646  18.911  15.347  14.002
44662W        W 9647  28.532   5.894  10.680
44663W        W 9648   3.967  41.310   3.170
44664W        W 9649  19.963  18.582   1.142
44665W        W 9650  25.500  26.210  12.074
44666W        W 9651  13.084  32.424   0.491
44667W        W 9652   1.228  40.346  11.596
44668W        W 9653  25.917  27.185   1.215
44669W        W 9654  30.876  39.464   1.226
44670W        W 9655  22.172  13.755   1.349
44671W        W 9656  21.979  33.204  11.801
44672W        W 9657  30.528  27.585   4.287
44673W        W 9658  20.696   3.849   2.582
44674W        W 9659  17.302  34.843   3.640
44675W        W 9660  31.590   3.917   1.452
44676W        W 9661  24.647  10.386   4.328
44677W        W 9662   3.584  18.145   2.165
44678W        W 9663  44.866   7.378   1.174
44679W        W 9664  26.197  17.564   0.995
44680W        W 9665   3.331  33.964   4.828
44681W        W 9666  28.324  40.874  11.042
44682W        W 9667  36.330  32.042   2.895
44683W        W 9668  17.045  23.242  14.669
44684W        W 9669   6.653  13.040  13.868
44685W        W 9670  40.875  39.781   0.477
44686W        W 9671  23.888   4.836   4.509
44687W        W 9672  11.141  22.591   2.829
44688W        W 9673  24.197  30.083  10.331
44689W        W 9674  31.750   8.962   0.323
44690W        W 9675   0.044  32.877  10.385
44691W        W 9676  42.366  15.780  11.396
44692W        W 9677  23.567  29.762  13.587
44693W        W 9678  25.691  38.325   0.903
44694W        W 9679  25.286   7.229  11.074
44695W        W 9680  37.175  10.416   0.941
44696W        W 9681  15.543  37.310   3.604
44697W        W 9682  23.888  26.721   2.910
44698W        W 9683  17.632  36.540  11.723
44699W        W 9684  14.321  37.653  14.145
44700W        W 9685  14.824   0.541   4.195
44701W        W 9686   6.410  30.784  10.431
44702W        W 9687  28.239  26.186  14.436
44703W        W 9688  36.605  36.349  10.727
44704W        W 9689  14.354  37.822  10.666
44705W        W 9690  17.817  12.387  11.582
44706W        W 9691  38.384   3.839   4.848
44707W        W 9692  35.381  35.158  13.343
44708W        W 9693  37.128  16.049  13.072
44709W        W 9694  29.791  15.824  10.849
44710W        W 9695  38.875  11.554   5.125
44711W        W 9696   0.472  22.070  12.728
44712W        W 9697  31.369  17.186  14.011
44713W        W 9698  20.354   7.849   1.762
44714W        W 9699  25.426   4.854   2.178
44715W        W 9700   9.073  42.638  13.024
44716W        W 9701  20.791  27.577   2.975
44717W        W 9702  14.529  36.181  12.202
44718W        W 9703  17.736  14.306  11.431
44719W        W 9704  31.366  15.274   0.043
44720W        W 9705  36.520  28.051  13.493
44721W        W 9706   5.325  17.737  10.581
44722W        W 9707  34.412  16.325  12.124
44723W        W 9708   4.817  43.411  12.998
44724W        W 9709  38.502  15.736   4.705
44725W        W 9710   9.786   4.020  10.569
44726W        W 9711  21.318  41.491  14.441
44727W        W 9712  39.652   3.369  11.939
44728W        W 9713  29.067   3.229   4.327
44729W        W 9714   7.310  30.449   1.730
44730W        W 9715  11.306   6.829   1.256
44731W        W 9716  24.717   7.712  10.776
44732W        W 9717   3.975  23.163   3.555
44733W        W 9718  18.707  33.550  12.152
44734W        W 9719  10.187  21.759  10.075
44735W        W 9720  18.625  31.934   3.380
44736W        W 9721  20.498  12.000  11.030
44737W        W 9722  36.671  10.654   4.407
44738W        W 9723   6.408   0.379  12.932
44739W        W 9724  19.737  43.028   0.234
44740W        W 9725  25.204  13.932   0.669
44741W        W 9726  38.457  42.657   4.593
44742W        W 9727  28.693  36.840   1.316
44743W        W 9728  17.130   1.814  12.728
44744W        W 9729  38.605   2.797   2.172
44745W        W 9730  32.454  35.416   1.869
44746W        W 9731  15.830  10.282   2.685
44747W        W 9732   9.814   7.912   1.890
44748W        W 9733  23.970  13.832  10.786
44749W        W 9734  14.299  18.571   3.671
44750W        W 9735  24.988  24.014  10.767
44751W        W 9736  23.024  38.625  12.008
44752W        W 9737  30.412  19.343  11.464
44753W        W 9738  13.142  23.637  14.924
44754W        W 9739  26.849  16.604  12.543
44755W        W 9740  32.617  21.634  11.023
44756W        W 9741  19.481  29.025   4.462
44757W        W 9742  13.935  18.228  12.919
44758W        W 9743  19.032  26.594   3.706
44759W        W 9744  32.631  16.696  12.975
44760W        W 9745   4.037  14.905   1.810
44761W        W 9746   4.909   9.528   4.624
44762W        W 9747  36.191   7.626  11.602
44763W        W 9748  33.565  19.272   0.965
44764W        W 9749   6.782   7.065  14.811
44765W        W 9750  44.200  23.887   1.671
44766W        W 9751   9.315  16.206   1.725
44767W        W 9752  37.233  31.464  13.784
44768W        W 9753   9.906  13.058  11.187
44769W        W 9754  16.543   2.776  12.171
44770W        W 9755  10.708  22.883   2.037
44771W        W 9756   5.324   0.323  11.151
44772W        W 9757  26.255   0.275   9.797
44773W        W 9758   9.152  16.854  12.476
44774W        W 9759   2.282  21.667  12.887
44775W        W 9760  16.627   8.366   0.780
44776W        W 9761  39.397  42.447  13.539
44777W        W 9762  23.503  37.778  12.015
44778W        W 9763  32.543  35.533  10.465
44779W        W 9764  41.499  17.023  12.826
44780W        W 9765  25.419  23.662  13.975
44781W        W 9766  16.593  42.262  12.884
44782W        W 9767  44.496  31.388  14.544
44783W        W 9768  11.572   2.373   1.470
44784W        W 9769   1.482  10.199  14.398
44785W        W 9770  28.913  42.057   3.895
44786W        W 9771   1.027  19.833   4.677
44787W        W 9772  34.070   3.423   2.693
44788W        W 9773  10.303  29.107   4.546
44789W        W 9774  14.297  33.792  13.418
44790W        W 9775   5.351  30.212   3.313
44791W        W 9776  22.245  42.253   2.620
44792W        W 9777  25.109  33.622   0.531
44793W        W 9778  22.275  44.390  10.897
44794W        W 9779   8.251  30.512  11.927
44795W        W 9780  28.000  35.659   2.806
44796W        W 9781  41.178  31.587  12.381
44797W        W 9782   5.666  34.892   4.167
44798W        W 9783  13.277  15.954   0.969
44799W        W 9784  43.870  43.371  13.781
44800W        W 9785  27.693  36.427   2.532
44801W        W 9786   5.676  17.586  11.893
44802W        W 9787  34.605  28.360   4.713
44803W        W 9788   8.979   0.331   2.617
44804W        W 9789   7.458  28.416  12.975
44805W        W 9790  37.562  31.969   4.534
44806W        W 9791  31.465  11.629   0.970
44807W        W 9792  17.598  14.211  14.756
44808W        W 9793   3.516   2.964   1.247
44809W        W 9794   3.357   6.090   0.761
44810W        W 9795  14.837  13.016   0.896
44811W        W 9796  11.075  30.417  14.789
44812W        W 9797   6.923   2.319   0.421
44813W        W 9798   6.397   9.118   1.192
44814W        W 9799  34.410  39.080   3.636
44815W        W 9800  20.929   4.135   0.316
44816W        W 9801  21.646  16.190  13.843
44817W        W 9802  24.447  30.170  13.053
44818W        W 9803  23.950  24.188  12.837
44819W        W 9804  21.315  15.355   1.293
44820W        W 9805   8.038  42.103   0.474
44821W        W 9806  31.934  26.088  13.467
44822W        W 9807  24.008  39.569   1.902
44823W        W 9808  16.833  10.074  13.045
44824W        W 9809  33.913  24.902  10.687
44825W        W 9810  43.987  23.705  14.481
44826W        W 9811  36.515  17.502   3.777
44827W        W 9812  29.901  31.945  14.509
44828W        W 9813  42.593  38.206  10.321
44829W        W 9814  26.484  21.098  12.057
44830W        W 9815  28.473  16.487   0.464
44831W        W 9816  23.591  38.111  13.517
44832W        W 9817  30.420  18.829   3.271
44833W        W 9818  20.711  24.880   1.927
44834W        W 9819  15.306  18.095  11.572
44835W        W 9820  43.425  13.027   4.534
44836W        W 9821  40.739  28.641  10.448
44837W        W 9822   5.750  14.649  12.368
44838W        W 9823  16.530  29.072   2.395
44839W        W 9824  38.397  37.474   1.690
44840W        W 9825   4.431  11.362   4.653
44841W        W 9826   1.271  14.111   1.990
44842W        W 9827   6.909   4.489  13.065
44843W        W 9828  24.011  19.085   3.796
44844W        W 9829   4.174  14.625  13.400
44845W        W 9830  43.900  41.934  14.923
44846W        W 9831  39.031  44.865   4.767
44847W        W 9832  33.064  44.724   4.648
44848W        W 9833  30.126   6.111  12.946
44849W        W 9834  22.561  28.846   1.396
44850W        W 9835  26.761  36.930   0.408
44851W        W 9836  18.664  31.355   4.156
44852W        W 9837  20.368  35.201   2.626
44853W        W 9838   4.222  29.982  11.193
44854W        W 9839  13.714  27.258  13.479
44855W        W 9840  33.925  38.994  12.510
44856W        W 9841  15.971  42.974   1.257
44857W        W 9842  22.451  26.511   0.423
44858W        W 9843  27.159   0.659   3.586
44859W        W 9844  29.051  36.028  10.941
44860W        W 9845  19.483  26.088  14.670
44861W        W 9846   9.563  26.536   2.278
44862W        W 9847   5.212   6.147   2.516
44863W        W 9848  20.523  43.336   0.350
44864W        W 9849  37.714  12.768  10.765
44865W        W 9850  30.478  19.911  11.560
44866W        W 9851  38.158   9.062   5.217
44867W        W 9852  30.122  41.419  10.948
44868W        W 9853  37.434  27.131   4.772
44869W        W 9854  37.367  42.589   4.495
44870W        W 9855  16.235  33.391   9.822
44871W        W 9856  29.207  13.308   2.331
44872W        W 9857   5.837  44.889   3.407
44873W        W 9858   1.818  27.162   3.742
44874W        W 9859  37.747   9.505   3.694
44875W        W 9860  23.644   7.629  13.037
44876W        W 9861   8.938  28.617  12.005
44877W        W 9862  13.089  31.655   3.037
44878W        W 9863  28.049  29.503  12.834
44879W        W 9864  33.600  21.465   1.703
44880W        W 9865   4.950  11.009   0.952
44881W        W 9866  27.605  10.331   0.406
44882W        W 9867   2.171  33.114   0.695
44883W        W 9868  38.560   8.359  12.924
44884W        W 9869  38.793   7.208  13.305
44885W        W 9870   6.399  34.980  13.408
44886W        W 9871  25.187  39.477   1.394
44887W        W 9872  25.604  32.080  14.507
44888W        W 9873  14.615   4.916   2.814
44889W        W 9874  25.640  32.747   4.192
44890W        W 9875  16.028  40.813  14.453
44891W        W 9876   9.072  23.485  13.034
44892W        W 9877  37.580  12.711  12.877
44893W        W 9878  30.496  32.508  11.831
44894W        W 9879  19.116  34.181   4.688
44895W        W 9880   6.992  14.177   4.317
44896W        W 9881   3.752  29.451   0.400
44897W        W 9882  14.898  14.340  11.472
44898W        W 9883   9.337   5.734   0.815
44899W        W 9884  41.782   4.031  13.519
44900W        W 9885  24.258  19.620   1.228
44901W        W 9886  32.786   9.466   5.051
44902W        W 9887   8.323   4.858   3.165
44903W        W 9888  29.469  22.002  12.798
44904W        W 9889   5.360  42.037   4.637
44905W        W 9890  10.287  17.609   4.381
44906W        W 9891  37.915   4.899   1.469
44907W        W 9892  29.711   2.797  11.501
44908W        W 9893  14.333  14.556   2.774
44909W        W 9894  30.532  35.849   1.292
44910W        W 9895  42.489  23.995   3.854
44911W        W 9896  18.981  31.008   4.489
44912W        W 9897   1.972  33.677  11.892
44913W        W 9898  28.454  24.502   4.515
44914W        W 9899  13.163  31.522   3.548
44915W        W 9900  23.416   4.149   5.152
44916W        W 9901  16.135  14.281   2.898
44917W        W 9902  38.541   0.342  11.709
44918W        W 9903  14.654  23.131  12.129
44919W        W 9904   9.772  30.543   4.503
44920W        W 9905  35.130  31.866  12.648
44921W        W 9906  41.517  35.490  13.460
44922W        W 9907  21.151  36.955  14.080
44923W        W 9908  31.781  12.417   1.526
44924W        W 9909  12.390  11.218   4.118
44925W        W 9910  37.067   3.254  12.084
44926W        W 9911   6.203  33.092  10.673
44927W        W 9912  16.646  22.088  14.378
44928W        W 9913  30.995  26.232   3.162
44929W        W 9914  21.285  44.317   0.744
44930W        W 9915  23.554   9.195  14.045
44931W        W 9916  32.368  15.692   1.109
44932W        W 9917  11.703  26.511  12.910
44933W        W 9918  20.226  19.324  14.846
44934W        W 9919  39.044  13.812  14.239
44935W        W 9920  18.687  24.596  12.561
44936W        W 9921   5.006  17.062  14.813
44937W        W 9922   1.582  31.508   0.832
44938W        W 9923  21.777  33.586  10.754
44939W        W 9924  19.089  24.413  13.532
44940W        W 9925  41.613   4.607  12.452
44941W        W 9926   9.134  16.193   4.381
44942W        W 9927  43.494   9.394  14.216
44943W        W 9928   7.393  38.450  10.568
44944W        W 9929  29.098  17.224  12.338
44945W        W 9930   3.696   9.755  11.185
44946W        W 9931  38.331   9.925  13.627
44947W        W 9932   2.533  29.914  11.519
44948W        W 9933  16.083  11.258  10.622
44949W        W 9934  37.860  19.380   2.179
44950W        W 9935   1.017  27.080   2.158
44951W        W 9936  23.158  14.457   4.719
44952W        W 9937   8.240  30.962  11.216
44953W        W 9938  25.487  21.679  11.613
44954W        W 9939  42.523  11.832   3.156
44955W        W 9940  41.874  15.123  13.391
44956W        W 9941  16.589  14.410   3.129
44957W        W 9942  38.097  27.397   5.417
44958W        W 9943   5.752  19.971   1.852
44959W        W 9944  32.792  13.266   3.724
44960W        W 9945  26.000   7.343  11.592
44961W        W 9946  42.320   2.267   2.764
44962W        W 9947  12.558  28.670  13.039
44963W        W 9948  39.013  30.094  14.825
44964W        W 9949  34.522  32.409  14.318
44965W        W 9950  18.839   8.385  12.415
44966W        W 9951  13.242  38.781   1.710
44967W        W 9952  25.538   6.812  11.998
44968W        W 9953  21.306   2.855  14.650
44969W        W 9954  11.892   3.061   3.346
44970W        W 9955   9.393  31.512   0.956
44971W        W 9956  37.581  40.488  11.958
44972W        W 9957   8.102  10.814  12.709
44973W        W 9958  19.174  13.662  14.997
44974W        W 9959  36.810  32.950  12.591
44975W        W 9960  34.487  43.811  11.794
44976W        W 9961  12.110  26.016   1.317
44977W        W 9962  19.042   7.897   0.302
44978W        W 9963  20.347  11.281  13.363
44979W        W 9964  22.838   0.306   3.670
44980W        W 9965   8.074  18.104  13.825
44981W        W 9966  30.676  22.214   2.819
44982W        W 9967  39.108  15.954  12.811
44983W        W 9968  26.108  12.369  13.029
44984W        W 9969  22.180  32.985   1.804
44985W        W 9970   9.984   0.759  11.040
44986W        W 9971   3.863  20.977  14.970
44987W        W 9972  44.018   7.910   0.156
44988W        W 9973  17.885  11.700  11.167
44989W        W 9974  13.573   2.984   1.422
44990W        W 9975  15.110  33.015   1.927
44991W        W 9976  12.208  14.703   4.328
44992W        W 9977   8.295   5.648   1.864
44993W        W 9978  26.975   3.378   3.760
44994W        W 9979  14.381  27.195   0.827
44995W        W 9980  30.440   8.951   4.628
44996W        W 9981  24.153  27.592   3.617
44997W        W 9982  22.643  39.799  13.949
44998W        W 9983  19.526  40.092  12.531
44999W        W 9984  35.048  10.835  14.991
45000W        W 9985  26.461  25.607  12.790
45001W        W 9986  40.299  28.332   3.193
45002W        W 9987  26.671  16.273   3.984
45003W        W 9988  37.910   6.231  12.448
45004W        W 9989   1.866  22.086  11.610
45005W        W 9990  10.696  35.652   0.759
45006W        W 9991  32.189  33.600  12.069
45007W        W 9992  33.393   5.641   1.449
45008W        W 9993  37.944   6.986   5.028
45009W        W 9994  26.528  21.597  14.502
45010W        W 9995  34.519  23.310   3.774
45011W        W 9996  12.643   7.906   9.849
45012W        W 9997  34.898  18.837  14.137
45013W        W 9998  43.617  12.174   0.665
45014W        W 9999   6.024  37.398  14.598
45015W        W10000   0.670  17.103  12.171
45016W        W10001  27.848   9.042  13.775
45017W        W10002   2.268  44.473  14.416
45018W        W10003  32.150  30.677  11.714
45019W        W10004   3.300  41.861  12.215
45020W        W10005  28.950  36.534   4.634
45021W        W10006  42.085  25.549   2.296
45022W        W10007  23.921   2.792   2.779
45023W        W10008  35.097  10.353  12.053
45024W        W10009  24.564  21.581   3.877
45025W        W10010  12.796  21.194  13.748
45026W        W10011  44.450   9.187  11.350
45027W        W10012  29.236  38.572  11.162
45028W        W10013  21.621  29.988  12.058
45029W        W10014  10.443  27.187   4.841
45030W        W10015  29.437   1.892  13.194
45031W        W10016  37.296  37.315  13.946
45032W        W10017  43.297  37.333  11.599
45033W        W10018   5.274  14.779  13.750
45034W        W10019  22.479  18.353  12.421
45035W        W10020  18.181  44.256   3.778
45036W        W10021   0.796  35.317   0.402
45037W        W10022  16.242  40.333  13.275
45038W        W10023  30.028  38.516   1.980
45039W        W10024  17.704  18.064   4.593
45040W        W10025  24.049  22.985   4.709
45041W        W10026  14.644  11.526   0.654
45042W        W10027   3.623  23.249   3.193
45043W        W10028   0.815  19.660   0.410
45044W        W10029  21.561  41.900  13.310
45045W        W10030  38.524   0.458   1.761
45046W        W10031  26.647  14.798   1.306
45047W        W10032  34.168  31.426   1.343
45048W        W10033   1.256  26.649  12.092
45049W        W10034  42.728  44.603   3.706
45050W        W10035  43.483  34.409   3.747
45051W        W10036  27.032  42.634  12.019
45052W        W10037  41.211  29.648  11.930
45053W        W10038  41.962  27.723  11.347
45054W        W10039  29.658  33.543   0.005
45055W        W10040  24.091  16.317  10.687
45056W        W10041  17.979  24.633  12.549
45057W        W10042  28.562   9.685   2.390
45058W        W10043  26.291  29.145   1.972
45059W        W10044  16.340   4.609   3.587
45060W        W10045  39.076  44.260   1.250
45061W        W10046  35.999   3.870  14.081
45062W        W10047  11.089  43.435   2.795
45063W        W10048  13.169  42.547   1.593
45064W        W10049  28.635  30.038  10.262
45065W        W10050  31.521  33.089  12.407
45066W        W10051  10.743  38.505   3.097
45067W        W10052   3.941  18.179   0.106
45068W        W10053  27.530  19.638   3.274
45069W        W10054  10.214  16.073  13.060
45070W        W10055  12.396  24.185   1.447
45071W        W10056   0.845   0.915  13.335
45072W        W10057  28.054  22.838  10.664
45073W        W10058  41.788   0.627   0.672
45074W        W10059  18.613  27.213  12.408
45075W        W10060  39.255  10.632   1.490
45076W        W10061  30.666  16.249   3.923
45077W        W10062  32.002  16.842  13.611
45078W        W10063   8.900   4.104  12.599
45079W        W10064  13.551  14.728  14.955
45080W        W10065  26.582  12.452   4.091
45081W        W10066  36.537  34.403   0.459
45082W        W10067  14.220  43.520   0.821
45083W        W10068  42.275  13.145  13.672
45084W        W10069   1.761  14.562  14.815
45085W        W10070  14.383   9.104  11.996
45086W        W10071  18.418  23.244  12.726
45087W        W10072  24.676  29.991   4.706
45088W        W10073  44.586  27.882   0.426
45089W        W10074  42.593  26.742   2.707
45090W        W10075  30.030  37.245   1.724
45091W        W10076  21.535  37.415  12.849
45092W        W10077  29.382  34.728   4.611
45093W        W10078  43.890  27.077   2.558
45094W        W10079  28.547  16.316   2.763
45095W        W10080  40.163  42.799  13.261
45096W        W10081  22.429  24.416  12.789
45097W        W10082  12.806  15.204   4.643
45098W        W10083  36.372  31.087  13.662
45099W        W10084  27.962  35.109  13.433
45100W        W10085  21.634  40.069  13.444
45101W        W10086  23.475  10.331  10.626
45102W        W10087  25.528   6.719   3.168
45103W        W10088  28.858  22.644  12.225
45104W        W10089  18.132  38.513  13.832
45105W        W10090   2.770  41.463   4.775
45106W        W10091  39.298  23.672   0.918
45107W        W10092   0.925   9.947  12.030
45108W        W10093  33.086  19.152  11.571
45109W        W10094  44.898  10.488   3.602
45110W        W10095  17.056  26.579  11.560
45111W        W10096  24.095  24.878  14.451
45112W        W10097   8.099   3.364  11.923
45113W        W10098  15.668   4.366  12.823
45114W        W10099   4.771  10.848   1.417
45115W        W10100  27.906   7.886  13.070
45116W        W10101  44.556  34.943  11.537
45117W        W10102  37.565  34.300  13.365
45118W        W10103  18.618  22.006   2.284
45119W        W10104  31.195  25.556   1.828
45120W        W10105  25.554   7.831   2.735
45121W        W10106   4.823   7.872  13.770
45122W        W10107  23.429  43.239  10.769
45123W        W10108  17.045  21.797  14.259
45124W        W10109  44.262  19.598  13.552
45125W        W10110   3.942  34.833  13.090
45126W        W10111  28.085  44.391  14.862
45127W        W10112  41.203  10.757   1.284
45128W        W10113  10.491   5.822   3.610
45129W        W10114   7.177  28.640   3.653
45130W        W10115  30.955  12.865   4.432
45131W        W10116  28.066  23.557  13.420
45132W        W10117  32.046  12.227  12.658
45133W        W10118  24.202  28.539   1.705
45134W        W10119  30.708   1.986  11.195
45135W        W10120  43.372  35.922   1.328
45136W        W10121  31.603  11.354   4.890
45137W        W10122   7.582  16.653  11.509
45138W        W10123   0.932  27.944  12.947
45139W        W10124  22.153  18.344   0.491
45140W        W10125  21.757  15.105  14.684
45141W        W10126  36.064  42.668  11.670
45142W        W10127  43.396  19.041   4.043
45143W        W10128  38.395  20.512  12.436
45144W        W10129  32.237  37.797  14.919
45145W        W10130  11.711  34.348   3.339
45146W        W10131  26.514  15.239  10.238
45147W        W10132  36.905  26.194   2.435
45148W        W10133   7.242  15.669  11.658
45149W        W10134  25.401   1.437   1.011
45150W        W10135  39.920  26.031  13.949
45151W        W10136  26.560  21.695  11.554
45152W        W10137  12.619  43.664   2.651
45153W        W10138   8.651  33.856  10.505
45154W        W10139  34.451  21.270   3.666
45155W        W10140  10.883  23.520   1.052
45156W        W10141  40.880   6.478   2.160
45157W        W10142  26.276  28.501   0.958
45158W        W10143  31.729  29.450   3.077
45159W        W10144  16.203  13.083   0.975
45160W        W10145  11.845  10.300   2.649
45161W        W10146  25.181   0.012   2.906
45162W        W10147   9.756  20.195   1.706
45163W        W10148   8.914  19.086  11.698
45164W        W10149  21.003  34.432  14.525
45165W        W10150  11.812  36.498   3.602
45166W        W10151  44.735  28.072  10.995
45167W        W10152  22.162  37.069  12.916
45168W        W10153  15.407  21.334   1.385
45169W        W10154  17.342  23.152   1.870
45170W        W10155  19.224  26.671  11.975
45171W        W10156  19.752  30.523   9.978
45172W        W10157  10.028  38.191  11.216
45173W        W10158   9.872  33.144  11.484
45174W        W10159  17.738   9.426   1.251
45175W        W10160  26.901  37.103  14.460
45176W        W10161  38.530  41.665   4.690
45177W        W10162  32.974  21.713   4.351
45178W        W10163  13.654  23.689  12.970
45179W        W10164  27.699   4.861  11.104
45180W        W10165  40.545   9.523   1.197
45181W        W10166  11.414   8.390  12.070
45182W        W10167   8.031   4.707  12.210
45183W        W10168  40.545  10.759  13.447
45184W        W10169  10.325  16.024   1.603
45185W        W10170   4.628  21.051   3.492
45186W        W10171   2.014  29.951  14.280
45187W        W10172  10.575  35.931   1.917
45188W        W10173  21.939  37.089   4.119
45189W        W10174   2.187  23.699  12.061
45190W        W10175  36.177  12.346   1.852
45191W        W10176  30.059  32.210  11.166
45192W        W10177   4.314  33.004   4.733
45193W        W10178  22.140   2.498   3.855
45194W        W10179  18.592  43.226   4.182
45195W        W10180  43.559  34.676   3.299
45196W        W10181  43.392   7.974  14.329
45197W        W10182   7.650  30.204   2.823
45198W        W10183  21.349  32.499  11.584
45199W        W10184  33.552  39.538   0.794
45200W        W10185  33.850   1.886   2.277
45201W        W10186  39.834  27.432   2.466
45202W        W10187  26.152  34.064   3.592
45203W        W10188   7.234  29.778   0.344
45204W        W10189  18.973  35.950   3.643
45205W        W10190   1.212  16.560  12.448
45206W        W10191  42.035  31.427  13.395
45207W        W10192  23.902  43.781   0.993
45208W        W10193  35.927  13.428   4.613
45209W        W10194  32.849  35.522  11.163
45210W        W10195  37.943  13.789  13.958
45211W        W10196  16.720  19.553   3.710
45212W        W10197  26.099  23.036  12.594
45213W        W10198  29.147  28.693   0.489
45214W        W10199  14.003  31.393  13.968
45215W        W10200  37.936  11.337   2.304
45216W        W10201  26.470   3.314   3.620
45217W        W10202   8.172  34.281  14.542
45218W        W10203  11.796  22.727  11.990
45219W        W10204  17.231  42.004  12.124
45220W        W10205  29.111   2.658   1.780
45221W        W10206   4.334   3.575   1.790
45222W        W10207  44.903   9.478   3.729
45223W        W10208  14.763  30.583   2.828
45224W        W10209  42.707  30.362   1.843
45225W        W10210   4.337  13.625   4.627
45226W        W10211  15.613  24.551   2.280
45227W        W10212   7.368  35.833   1.381
45228W        W10213  27.854  39.365  10.674
45229W        W10214   1.318  25.185   3.358
45230W        W10215  13.416  17.617  13.974
45231W        W10216  19.570   2.552   1.442
45232W        W10217   3.646   2.187   1.810
45233W        W10218  28.800  19.061  14.820
45234W        W10219  26.373   7.155  11.891
45235W        W10220  22.773  26.199  13.035
45236W        W10221  44.078  20.582  14.886
45237W        W10222  30.029   8.262   4.285
45238W        W10223  31.627  40.771   1.225
45239W        W10224   8.887   0.819   1.734
45240W        W10225  14.555  11.740   4.594
45241W        W10226  10.095  38.130   2.149
45242W        W10227  36.413  36.580  12.137
45243W        W10228  33.037  13.014   1.335
45244W        W10229  13.762  15.550   0.606
45245W        W10230  25.050   5.927  10.859
45246W        W10231  22.385   1.096  11.233
45247W        W10232  12.274  27.266   0.542
45248W        W10233  39.331  44.996  13.573
45249W        W10234   6.429   3.712   0.292
45250W        W10235  28.885  23.781  13.927
45251W        W10236  13.334  20.218   3.798
45252W        W10237   7.814  37.335  13.019
45253W        W10238   2.870  40.067   0.988
45254W        W10239  24.535   1.322   9.706
45255W        W10240  40.083  31.990  13.946
45256W        W10241  24.728   1.628   3.715
45257W        W10242  42.644  36.648  11.885
45258W        W10243  39.294  31.130  12.109
45259W        W10244  20.259   3.950  12.386
45260W        W10245  18.013  31.374  12.954
45261W        W10246  36.184  25.474  10.477
45262W        W10247  17.753   8.300   0.044
45263W        W10248  23.954   4.934  10.854
45264W        W10249  14.550  27.824  13.451
45265W        W10250   1.102  19.140   3.391
45266W        W10251  14.769  20.465  13.543
45267W        W10252  26.255  20.090  11.580
45268W        W10253  14.278  14.311   4.869
45269W        W10254  38.258   6.332  13.540
45270W        W10255  12.197  19.115  11.721
45271W        W10256  38.355  43.428  11.529
45272W        W10257   4.662  15.584   1.332
45273W        W10258   1.914  44.768   3.993
45274W        W10259  28.240   3.187  12.492
45275W        W10260   6.249  44.036   3.401
45276W        W10261  41.351  27.993  10.905
45277W        W10262   2.296  34.327   2.338
45278W        W10263  33.182  44.208   2.848
45279W        W10264  10.313  13.208   3.818
45280W        W10265  19.821  44.627  13.922
45281W        W10266  19.341   2.334   4.655
45282W        W10267  10.566  31.449   4.327
45283W        W10268   8.151  12.812  13.410
45284W        W10269   5.409  23.124   0.657
45285W        W10270   0.215   8.757  13.310
45286W        W10271  19.603  21.113  11.144
45287W        W10272  37.386  33.882   3.722
45288W        W10273   0.367  37.443   3.751
45289W        W10274  18.176   2.179  13.736
45290W        W10275  43.259   2.935   3.843
45291W        W10276  28.082  25.922  13.965
45292W        W10277   4.859  29.637   0.137
45293W        W10278  11.196  44.977   1.655
45294W        W10279  24.941   2.476   2.453
45295W        W10280  10.230  41.426   1.388
45296W        W10281  42.868  31.168   3.667
45297W        W10282  34.298  31.079   3.760
45298W        W10283  21.266   1.526   3.231
45299W        W10284  15.064  30.021  14.373
45300W        W10285   2.290  28.633  11.108
45301W        W10286  35.007  14.612  13.828
45302W        W10287  23.153  42.056   3.633
45303W        W10288  26.190  17.787  12.804
45304W        W10289  28.724   2.991  12.267
45305W        W10290   3.796  31.919   4.609
45306W        W10291   2.096  15.678   3.357
45307W        W10292  11.656  20.242  10.782
45308W        W10293  38.014  40.535   4.605
45309W        W10294  16.997   4.661   3.219
45310W        W10295  37.007  37.504  11.164
45311W        W10296  44.230  28.140  10.246
45312W        W10297  18.627  28.019   1.934
45313W        W10298  21.990  36.137  11.784
45314W        W10299   7.196  11.142  10.981
45315W        W10300  44.367  19.006   3.717
45316W        W10301  41.783  30.501   4.102
45317W        W10302  44.469  29.141   2.217
45318W        W10303  12.771   3.368   2.327
45319W        W10304  39.422  42.853   1.642
45320W        W10305  37.910  24.197   1.013
45321W        W10306  34.902  22.242   4.098
45322W        W10307  19.140  14.579  10.545
45323W        W10308   3.580   9.171  10.750
45324W        W10309  21.711  19.142   1.277
45325W        W10310  22.001   0.629  14.874
45326W        W10311  44.222  27.577  12.175
45327W        W10312  27.039  12.130   1.686
45328W        W10313  34.138  27.040   3.069
45329W        W10314  34.416   8.233  12.947
45330W        W10315  14.776   5.866   1.298
45331W        W10316   7.871  15.567   4.003
45332W        W10317  33.146  17.130  12.441
45333W        W10318  35.441   1.537  12.960
45334W        W10319  31.293  37.895  13.851
45335W        W10320  23.934  13.206   3.428
45336W        W10321  25.975  17.548  12.354
45337W        W10322  42.909  19.462   2.870
45338W        W10323  11.316   4.387   4.366
45339W        W10324  13.257   2.471  11.479
45340W        W10325  13.525  41.016   4.493
45341W        W10326  27.892  20.262  14.222
45342W        W10327   4.687  32.041  13.069
45343W        W10328  20.630  27.156  14.494
45344W        W10329  42.514   5.121  12.419
45345W        W10330   7.747  25.083  11.774
45346W        W10331  40.014  17.197   0.818
45347W        W10332   4.787  36.998   4.022
45348W        W10333  16.305  14.512  14.999
45349W        W10334  39.259  18.077  11.091
45350W        W10335  26.018  37.136  13.311
45351W        W10336   0.548  15.834  11.493
45352W        W10337   7.403  30.894  12.993
45353W        W10338  16.713  43.060   2.618
45354W        W10339  20.179  43.395   4.106
45355W        W10340   0.549  10.460  14.787
45356W        W10341   5.620  44.424  12.866
45357W        W10342  10.172   3.339   3.769
45358W        W10343   4.300   0.289   0.542
45359W        W10344  41.979   8.442  12.668
45360W        W10345  11.827  17.716  10.812
45361W        W10346  23.940  11.717   3.248
45362W        W10347  24.461  33.556  11.391
45363W        W10348  27.933  42.566   1.113
45364W        W10349  28.134  28.386   1.255
45365W        W10350   4.439  36.314  11.555
45366W        W10351  16.697  15.090  14.527
45367W        W10352  33.868  21.755  12.612
45368W        W10353  38.470  22.056  14.960
45369W        W10354   4.023  44.978  10.960
45370W        W10355  10.287  35.615  14.801
45371W        W10356  11.537  36.079  13.904
45372W        W10357   6.331  41.060   4.069
45373W        W10358  32.890  14.780  11.102
45374W        W10359  28.427  24.695  14.192
45375W        W10360  41.443  12.300   0.891
45376W        W10361  14.872  15.049  12.903
45377W        W10362  15.875  15.864  10.761
45378W        W10363   4.679  34.532  14.702
45379W        W10364   4.728  28.448  12.368
45380W        W10365  14.271  17.610   2.194
45381W        W10366  21.437   3.887  14.537
45382W        W10367  39.742  12.114   3.217
45383W        W10368   5.433  25.964  14.347
45384W        W10369  35.997   6.667   1.641
45385W        W10370  44.411  18.076   3.178
45386W        W10371  12.204   6.816  14.093
45387W        W10372  17.421   7.453   2.804
45388W        W10373  43.371  22.578  10.556
45389W        W10374  18.818  41.967  12.949
45390W        W10375  13.779  22.045   4.293
45391W        W10376  17.804   2.662   0.717
45392W        W10377  28.989  14.977  14.995
45393W        W10378  39.988  33.333  12.908
45394W        W10379  24.943  36.889   2.367
45395W        W10380  33.476   6.867  12.971
45396W        W10381  19.780   5.741  10.679
45397W        W10382  11.652  26.068  11.117
45398W        W10383  30.096  16.510  14.924
45399W        W10384   9.638  35.634  12.515
45400W        W10385  43.944   5.273  14.973
45401W        W10386  24.973   4.264   1.285
45402W        W10387  19.856  29.215  13.487
45403W        W10388  37.353  24.238   2.180
45404W        W10389   4.191  30.656   4.555
45405W        W10390  27.211   2.910  12.024
45406W        W10391  25.031  36.932   4.948
45407W        W10392  43.939   0.637  13.895
45408W        W10393  21.335  27.067   3.040
45409W        W10394  32.869  27.717   1.796
45410W        W10395  32.932  31.167   3.164
45411W        W10396   1.314  25.709   2.702
45412W        W10397   1.142   6.364   1.931
45413W        W10398  24.821  40.942  14.500
45414W        W10399  17.608  35.262   1.357
45415W        W10400   7.337  31.609   0.859
45416W        W10401   1.838  21.065  13.322
45417W        W10402  27.230   0.726  10.643
45418W        W10403  44.307   8.625  14.918
45419W        W10404  32.152   5.649  10.630
45420W        W10405  22.228   3.428   3.365
45421W        W10406  18.092  17.792   2.853
45422W        W10407  24.203  27.484   2.637
45423W        W10408  16.819   0.462  14.833
45424W        W10409  14.621   6.662  12.942
45425W        W10410  17.756   3.271  11.716
45426W        W10411  23.774  12.027   1.341
45427W        W10412  35.383  30.197  12.096
45428W        W10413  38.909  27.504   2.608
45429W        W10414  38.998  30.733  12.780
45430W        W10415  15.471  22.037  12.097
45431W        W10416  18.336  33.041   4.633
45432W        W10417  42.880  19.547  14.995
45433W        W10418   6.550  11.305   0.338
45434W        W10419  19.196  15.672   4.798
45435W        W10420  16.652  31.191  12.809
45436W        W10421  42.295  40.457   1.414
45437W        W10422  22.541  41.380  10.245
45438W        W10423  22.168  38.495   0.281
45439W        W10424  21.278  11.148  11.638
45440W        W10425  43.736  40.199  12.365
45441W        W10426  32.613  18.091  11.675
45442W        W10427   0.911  29.341   2.241
45443W        W10428   6.283   9.327   2.374
45444W        W10429  27.415  15.601   4.301
45445W        W10430  29.467   7.146  10.719
45446W        W10431  25.086  23.925   2.394
45447W        W10432  16.828  29.938  11.406
45448W        W10433   8.987  13.364  11.140
45449W        W10434  18.095   3.802  11.090
45450W        W10435  11.837   9.856  13.974
45451W        W10436  15.029  25.093  11.136
45452W        W10437  33.941  30.511   1.819
45453W        W10438  10.757   3.890   3.855
45454W        W10439   2.903  38.398  13.587
45455W        W10440  19.252  35.456  10.766
45456W        W10441  33.513  10.880  11.142
45457W        W10442  30.677   9.809   2.998
45458W        W10443   4.925  14.174   3.299
45459W        W10444  43.219  14.251  11.069
45460W        W10445  34.208  33.765  12.914
45461W        W10446  33.952  30.082  10.601
45462W        W10447   1.664  10.486  13.433
45463W        W10448  42.903  34.915  11.234
45464W        W10449   6.390  20.443   1.348
45465W        W10450  14.309  24.157   4.658
45466W        W10451  10.058  21.514   2.803
45467W        W10452  13.326   5.649  13.995
45468W        W10453  13.106  27.647  10.667
45469W        W10454  17.417  15.084  13.881
45470W        W10455  38.884  19.096   4.105
45471W        W10456  40.926  10.370  10.746
45472W        W10457  27.045   9.414  13.955
45473W        W10458  12.334  11.944   3.167
45474W        W10459  41.811  30.008   4.606
45475W        W10460  43.475  24.003   4.744
45476W        W10461  15.211  22.427  12.351
45477W        W10462   5.819  16.806   2.403
45478W        W10463  10.668  12.433  12.002
45479W        W10464  22.627  11.582  12.350
45480W        W10465  41.749   8.010   2.554
45481W        W10466  16.625  39.321  14.829
45482W        W10467  28.060  39.039   2.077
45483W        W10468  41.088  32.525   1.443
45484W        W10469   7.188  41.010  11.996
45485W        W10470   1.835   9.055   4.478
45486W        W10471  10.810  17.599   4.776
45487W        W10472  38.587   4.169  14.645
45488W        W10473  37.833  44.292   0.927
45489W        W10474  34.859   8.633  13.031
45490W        W10475  41.619  32.668   1.490
45491W        W10476  39.310  39.939  14.886
45492W        W10477  20.961   9.654   3.988
45493W        W10478   3.043   0.420   2.100
45494W        W10479  33.825   2.943   4.134
45495W        W10480  11.777  16.251   3.703
45496W        W10481  27.643   9.740  12.484
45497W        W10482  37.507  21.176  14.680
45498W        W10483  28.698  12.252   1.459
45499W        W10484  30.733  12.626  13.414
45500W        W10485  22.481  15.283   1.407
45501W        W10486  12.162  22.583   2.651
45502W        W10487  42.520  20.113  14.347
45503W        W10488   4.302   8.497  13.317
45504W        W10489  27.522   3.692  13.729
45505W        W10490  26.991  44.513   9.846
45506W        W10491  15.717   4.552   4.134
45507W        W10492   7.118  19.683   0.091
45508W        W10493   9.385  20.265   3.165
45509W        W10494  36.090  43.463   3.622
45510W        W10495  39.237  15.993   2.353
45511W        W10496   4.214  33.637   3.294
45512W        W10497  20.238  27.155  10.130
45513W        W10498  21.578   8.779  13.520
45514W        W10499  29.222  12.074   3.140
45515W        W10500   9.956  23.145   2.604
45516W        W10501  35.711  34.395   3.799
45517W        W10502   7.691  24.225  14.791
45518W        W10503  44.362  18.060  13.812
45519W        W10504  38.675  41.344  13.084
45520W        W10505  29.647  21.119   3.566
45521W        W10506  25.654  29.141  14.618
45522W        W10507  38.610  35.358  13.371
45523W        W10508  16.938  33.141  14.550
45524W        W10509  40.796  18.017   1.320
45525W        W10510  43.821  38.955  11.227
45526W        W10511  16.054  39.295  10.733
45527W        W10512  41.826  19.548   4.108
45528W        W10513  16.504   2.898  11.245
45529W        W10514  12.452  43.794   1.587
45530W        W10515  35.602   1.736  10.922
45531W        W10516  37.320  30.625   1.859
45532W        W10517  44.292  16.394   0.347
45533W        W10518  38.856  35.129  12.023
45534W        W10519  38.992  28.208   4.051
45535W        W10520  15.864  31.407  10.807
45536W        W10521  41.896  17.508  14.362
45537W        W10522  30.603  22.742  12.471
45538W        W10523   3.444  36.607  10.714
45539W        W10524  14.606  40.259   4.099
45540W        W10525  43.046  39.556  10.623
45541W        W10526  43.709   6.948   2.859
45542W        W10527  22.699  19.535  14.459
45543W        W10528  34.681  32.014  11.225
45544W        W10529  27.775  21.822   1.877
45545W        W10530  24.582   4.494  11.488
45546W        W10531   2.734   7.905  13.999
45547W        W10532  24.461   7.674  12.018
45548W        W10533  12.181  20.194   3.063
45549W        W10534  39.641  16.015  10.650
45550W        W10535   5.618  24.577   0.601
45551W        W10536  15.835  30.484   2.246
45552W        W10537  41.930  28.087   1.770
45553W        W10538   8.391  14.223   2.399
45554W        W10539  20.001  11.371   1.462
45555W        W10540  12.281  24.253  13.097
45556W        W10541  19.248  38.785  11.450
45557W        W10542  26.454  25.437  11.859
45558W        W10543  27.396   7.937   0.503
45559W        W10544  12.586  37.468  12.657
45560W        W10545  14.683   4.934  12.603
45561W        W10546  40.411  15.675   2.428
45562W        W10547  16.645  39.958   1.385
45563W        W10548  16.630  14.602  12.735
45564W        W10549  28.605  32.831  11.778
45565W        W10550  43.168   7.943  11.533
45566W        W10551  10.422  16.823  11.241
45567W        W10552  38.593  41.446   0.949
45568W        W10553  25.605  11.080   1.504
45569W        W10554  32.229  21.620   2.444
45570W        W10555  14.653  30.997  10.663
45571W        W10556   8.250  12.514   0.705
45572W        W10557  38.980  22.611   4.754
45573W        W10558  14.131  17.361   4.107
45574W        W10559  18.811  37.301  12.785
45575W        W10560  13.234  25.205   5.370
45576W        W10561  20.133  25.904  13.020
45577W        W10562  16.901   8.901  11.295
45578W        W10563   9.210  40.781   3.730
45579W        W10564  20.298  32.441  11.555
45580W        W10565  27.480   0.017   3.837
45581W        W10566  44.029  28.351  11.163
45582W        W10567  15.657  43.732   4.738
45583W        W10568  20.509  44.673   4.386
45584W        W10569  14.955  37.309  11.124
45585W        W10570  43.193   1.295  12.548
45586W        W10571  28.640  19.303  10.971
45587W        W10572   2.833  37.516  13.546
45588W        W10573  13.661   1.518  14.258
45589W        W10574  23.148  30.005   4.632
45590W        W10575  37.313  33.324  11.140
45591W        W10576   1.489  14.610   2.185
45592W        W10577   5.118  24.148   1.982
45593W        W10578  11.731  14.563   0.907
45594W        W10579  14.021  30.020  14.393
45595W        W10580   2.385   4.343  14.497
45596W        W10581  38.880  22.500   4.249
45597W        W10582  24.211   1.779   2.845
45598W        W10583  16.333  16.146   3.359
45599W        W10584  36.608   5.841  11.145
45600W        W10585   6.472  42.045  14.768
45601W        W10586  12.720  20.525   2.283
45602W        W10587   6.312  21.219   4.508
45603W        W10588  43.550  35.921  11.487
45604W        W10589   3.911  15.556  13.779
45605W        W10590   1.177  22.033  14.404
45606W        W10591  41.318  12.630   2.335
45607W        W10592  43.554  18.188  11.635
45608W        W10593  36.045  39.832  14.957
45609W        W10594   0.004  22.131   1.838
45610W        W10595  13.279  31.005   0.171
45611W        W10596   7.800  41.499   3.775
45612W        W10597  30.624  21.252  10.928
45613W        W10598  35.171  36.207   0.372
45614W        W10599  22.544  27.197  13.530
45615W        W10600  10.735  28.458  11.614
45616W        W10601  24.048   4.786   1.675
45617W        W10602  25.088  44.911   0.433
45618W        W10603  27.437   2.524   2.573
45619W        W10604  39.065  13.125  13.517
45620W        W10605   5.514  37.461   5.036
45621W        W10606  35.936  26.412   4.931
45622W        W10607   9.450   5.085   2.516
45623W        W10608  19.376  17.223  11.814
45624W        W10609  17.306  36.006   4.976
45625W        W10610   0.843  36.048  11.913
45626W        W10611  41.343  10.426   0.389
45627W        W10612   9.837  22.437  13.539
45628W        W10613  17.556  23.483  10.614
45629W        W10614  39.977   4.716   1.231
45630W        W10615  22.451   7.914  14.383
45631W        W10616  29.155  25.568   2.681
45632W        W10617   2.233   9.503  12.003
45633W        W10618  16.956   0.839  13.834
45634W        W10619  15.619  43.038  10.146
45635W        W10620   8.209  27.695  13.999
45636W        W10621  32.818  24.990   2.331
45637W        W10622  36.745  15.313   0.288
45638W        W10623  17.242  42.645   4.590
45639W        W10624  43.508   5.215  14.646
45640W        W10625  11.461  41.332  13.344
45641W        W10626  30.605   5.237   0.763
45642W        W10627   5.380   8.408   0.016
45643W        W10628  19.666  18.448   2.891
45644W        W10629  22.034  34.498   4.426
45645W        W10630  42.912   8.910   3.368
45646W        W10631  21.784  30.517  14.078
45647W        W10632  42.346   9.194   0.663
45648W        W10633   7.105  26.708   2.954
45649W        W10634  15.854  37.880   4.538
45650W        W10635   8.562  43.722   0.522
45651W        W10636  26.062  36.637  13.429
45652W        W10637   0.776   2.791  12.910
45653W        W10638  10.704  10.316   0.049
45654W        W10639  38.846  33.912   1.660
45655W        W10640  12.629   9.789  14.348
45656W        W10641  11.148   5.920   2.778
45657W        W10642   4.778  18.769   2.092
45658W        W10643   9.649   7.580   3.346
45659W        W10644  22.666  13.728  14.966
45660W        W10645  38.399  11.359  13.253
45661W        W10646   8.663  18.111  11.681
45662W        W10647  35.367  17.322  13.512
45663W        W10648  34.156  21.523   1.372
45664W        W10649  38.355  43.786  14.891
45665W        W10650  10.873  34.495   0.368
45666W        W10651  27.982  31.184   2.649
45667W        W10652  44.909  16.737   4.199
45668W        W10653  21.817  28.103   4.043
45669W        W10654  19.707   5.181   9.653
45670W        W10655  41.322  36.640   4.908
45671W        W10656  31.628  19.784  14.209
45672W        W10657  36.330  42.969  13.278
45673W        W10658  36.897  22.152   3.631
45674W        W10659  25.282  41.852   2.633
45675W        W10660  27.797  32.496   2.303
45676W        W10661   0.732  15.596   0.317
45677W        W10662  39.814  19.564  14.390
45678W        W10663  19.184  31.686   0.883
45679W        W10664  41.708  34.478   1.977
45680W        W10665  21.771  38.682   1.954
45681W        W10666  22.843  12.103   4.976
45682W        W10667   5.209  13.505   0.871
45683W        W10668  17.998   1.495   0.769
45684W        W10669  18.015  44.887   2.726
45685W        W10670  13.181  36.130   2.269
45686W        W10671  11.232   5.591  11.872
45687W        W10672  30.544  26.935  13.955
45688W        W10673  17.042  19.812   3.303
45689W        W10674   3.730   7.618  10.218
45690W        W10675   5.867  31.519   2.776
45691W        W10676   2.697  37.904   1.973
45692W        W10677   4.381  23.044  13.603
45693W        W10678  37.039   7.165  12.913
45694W        W10679   6.330   3.029  14.507
45695W        W10680  37.165  40.884  14.846
45696W        W10681  20.352   3.192   4.722
45697W        W10682  31.981   1.722  13.959
45698W        W10683   4.887  18.070  11.381
45699W        W10684  22.754   6.188   0.647
45700W        W10685  42.067  21.541   3.238
45701W        W10686  23.902  13.137  14.785
45702W        W10687  26.777  44.539   3.275
45703W        W10688   4.347  16.625   3.772
45704W        W10689  34.082  12.373   0.457
45705W        W10690  33.460   5.984   2.259
45706W        W10691  24.752  40.631   4.808
45707W        W10692  25.016  35.371   4.260
45708W        W10693  31.899   9.630   5.309
45709W        W10694  16.234  21.589   1.482
45710W        W10695  16.660  21.044   2.263
45711W        W10696  37.660  30.217   1.766
45712W        W10697  16.532   3.317  10.801
45713W        W10698  10.351  39.893   4.762
45714W        W10699  13.941  13.766  12.994
45715W        W10700   5.423  37.032  10.598
45716W        W10701  32.893  17.786   4.165
45717W        W10702  13.181   9.526  12.251
45718W        W10703  21.331   0.031   2.420
45719W        W10704  33.382  42.466   4.205
45720W        W10705  27.954  10.240   3.308
45721W        W10706   9.895  25.430  14.594
45722W        W10707   8.053  39.117   0.476
45723W        W10708  41.270  34.070   4.561
45724W        W10709  35.645  16.711   1.794
45725W        W10710  28.399  13.043  11.929
45726W        W10711  23.525   3.808  14.443
45727W        W10712  33.367  26.054   1.285
45728W        W10713  39.107  42.406  11.747
45729W        W10714   4.044  18.182   0.896
45730W        W10715  40.875  36.162   1.377
45731W        W10716  32.377  14.710  11.089
45732W        W10717  44.990  19.029  12.427
45733W        W10718   9.724  34.109  12.594
45734W        W10719  21.112  36.055   1.914
45735W        W10720  29.162   7.879  14.991
45736W        W10721  33.169  24.515  13.923
45737W        W10722  14.504  23.621   3.297
45738W        W10723   9.336  16.845   1.058
45739W        W10724  41.443  31.362   0.896
45740W        W10725  17.807  30.130   4.145
45741W        W10726   8.788  37.902  13.025
45742W        W10727  10.957  43.929  10.421
45743W        W10728  20.950  39.175   4.336
45744W        W10729  40.134   8.562   2.714
45745W        W10730  40.420  37.251  11.507
45746W        W10731  10.617  15.639   3.249
45747W        W10732  16.482  11.936   4.765
45748W        W10733  43.794  23.556  12.937
45749W        W10734   7.354  11.675   2.331
45750W        W10735  26.750  28.935   3.711
45751W        W10736   4.271  27.278   1.424
45752W        W10737   9.373  16.591  12.026
45753W        W10738  11.859   4.266  12.026
45754W        W10739  34.888  35.483  13.826
45755W        W10740  25.611  21.093  12.439
45756W        W10741   9.533  36.054  10.623
45757W        W10742   3.681  36.060   1.325
45758W        W10743  33.824  44.426  11.573
45759W        W10744  22.282   4.645   0.980
45760W        W10745   1.914  10.935   1.873
45761W        W10746  38.329  20.004   2.830
45762W        W10747  22.029  18.790  10.057
45763W        W10748  22.239  43.883  12.983
45764W        W10749   2.087  43.795   1.422
45765W        W10750  38.805  19.346  11.137
45766W        W10751  44.301   4.410   0.335
45767W        W10752   6.167  26.689  11.000
45768W        W10753   4.225   7.242  10.471
45769W        W10754  44.419  23.612  10.734
45770W        W10755  17.109  25.303  12.926
45771W        W10756  42.038  12.392  13.807
45772W        W10757   3.884  24.598  11.612
45773W        W10758  23.142   5.288   3.320
45774W        W10759  34.930  12.761   1.891
45775W        W10760   8.659  22.519   2.724
45776W        W10761  32.518   7.615  11.982
45777W        W10762  15.458  18.216  13.412
45778W        W10763  19.759  24.270   4.681
45779W        W10764   9.721   3.018  10.596
45780W        W10765  39.355  36.884  12.893
45781W        W10766   2.330  16.199  11.023
45782W        W10767  16.648   4.037  10.303
45783W        W10768  44.603  38.070  10.230
45784W        W10769  40.705  18.662  11.093
45785W        W10770  26.912   9.030   4.125
45786W        W10771   4.758  25.290   0.469
45787W        W10772  15.260  37.114   1.787
45788W        W10773  24.571  37.227  14.922
45789W        W10774  38.317  44.782   3.684
45790W        W10775  31.863  35.992   0.300
45791W        W10776  39.408  37.330   9.564
45792W        W10777  31.981   6.640  12.987
45793W        W10778  42.773  26.756  12.116
45794W        W10779  38.491  38.329   1.723
45795W        W10780   4.695   5.368  14.682
45796W        W10781  28.596  37.606   4.181
45797W        W10782  39.475  13.127  14.480
45798W        W10783  22.923  20.478  10.144
45799W        W10784  25.764   9.019   1.527
45800W        W10785  42.522  33.534   3.141
45801W        W10786  36.419  26.526  12.902
45802W        W10787   0.980  10.380   0.958
45803W        W10788  13.495   8.622   4.756
45804W        W10789  27.661   2.756  14.821
45805W        W10790  34.636   1.888  11.136
45806W        W10791  11.131  14.729  11.957
45807W        W10792  35.024   6.963  10.327
45808W        W10793  19.350  41.579  10.696
45809W        W10794   1.246  12.332  11.171
45810W        W10795  13.860  31.619  13.004
45811W        W10796  26.111   2.307   2.169
45812W        W10797  20.722  18.256  11.140
45813W        W10798  41.952   7.259  14.326
45814W        W10799  38.971  41.117   1.755
45815W        W10800  18.183  14.819   2.236
45816W        W10801  36.908   4.219  11.238
45817W        W10802  20.582  32.495  12.014
45818W        W10803  41.497   6.973  13.888
45819W        W10804  33.625  41.854  12.819
45820W        W10805  38.146  40.492   0.268
45821W        W10806  36.040  33.988   1.158
45822W        W10807   2.552  11.052   3.148
45823W        W10808   6.761  26.520   2.136
45824W        W10809  41.294  19.885   1.995
45825W        W10810  12.424  13.630   4.578
45826W        W10811  37.018  36.069   0.596
45827W        W10812  21.087  31.659  13.423
45828W        W10813  38.129  18.121  13.312
45829W        W10814  14.201  38.799  13.784
45830W        W10815   6.072  10.608  10.868
45831W        W10816  11.262  43.313   2.317
45832W        W10817  33.171  20.596   2.728
45833W        W10818  13.664  17.954  12.571
45834W        W10819  41.677  14.051  12.149
45835W        W10820  10.210  41.333  12.141
45836W        W10821  44.540  16.716   4.566
45837W        W10822  17.139  31.132   3.246
45838W        W10823  27.549  20.460   4.148
45839W        W10824  30.536   9.128  13.097
45840W        W10825  36.790  42.972   0.865
45841W        W10826  35.459   6.659  11.065
45842W        W10827  13.718  43.474   5.024
45843W        W10828  36.073  30.921   0.498
45844W        W10829   9.703  36.706  12.353
45845W        W10830  11.206  22.092   0.011
45846W        W10831  34.051   5.231   3.759
45847W        W10832   0.989   9.394  13.342
45848W        W10833  31.058   6.902   0.858
45849W        W10834  16.537  13.758  11.499
45850W        W10835  38.039   7.378  12.016
45851W        W10836  40.074  14.891  14.406
45852W        W10837  32.644  12.262  11.131
45853W        W10838  28.339  10.170  12.194
45854W        W10839   9.151  30.841   2.757
45855W        W10840  27.376   9.792   4.769
45856W        W10841  19.339  26.188   3.874
45857W        W10842  36.765  26.313  13.805
45858W        W10843  11.951  24.657  13.067
45859W        W10844   2.960   1.732  11.255
45860W        W10845  17.238  44.203   4.923
45861W        W10846  25.632  37.980   2.472
45862W        W10847  15.953  22.581   2.662
45863W        W10848   3.293  29.315   4.606
45864W        W10849  18.060  18.342  12.658
45865W        W10850  39.966  12.234   0.529
45866W        W10851  11.492   7.479  13.108
45867W        W10852  39.735  13.590   4.090
45868W        W10853  23.931  42.361  10.754
45869W        W10854  33.896  24.693  12.420
45870W        W10855  18.476   2.486  12.504
45871W        W10856  25.546  12.802  11.244
45872W        W10857  31.448  42.623   2.712
45873W        W10858  13.376   0.452   3.672
45874W        W10859   7.815   6.855   2.708
45875W        W10860  31.995   5.000   3.260
45876W        W10861   7.843  10.745  13.884
45877W        W10862  37.555  12.327   3.315
45878W        W10863  15.628  10.146   0.722
45879W        W10864   2.783  35.099   1.857
45880W        W10865  40.880  42.566  11.079
45881W        W10866  37.501  18.805   4.135
45882W        W10867   1.894  34.230  14.022
45883W        W10868  14.923  30.808   1.832
45884W        W10869  34.532  12.730   2.258
45885W        W10870  37.983  28.990   3.627
45886W        W10871   9.269  18.051   1.738
45887W        W10872  12.314  16.021   3.568
45888W        W10873  42.105  34.003  12.475
45889W        W10874  22.577  16.232  13.559
45890W        W10875   0.802  37.072  10.778
45891W        W10876   5.429  28.022  10.764
45892W        W10877  41.595  33.128   4.480
45893W        W10878   9.074  43.344   2.613
45894W        W10879  17.753   1.129   1.226
45895W        W10880  19.017  40.181  12.449
45896W        W10881  33.880  41.906  11.495
45897W        W10882  30.025  23.418   2.449
45898W        W10883  30.281  17.720   0.216
45899W        W10884  10.193  40.324  14.548
45900W        W10885  21.836   7.245   1.722
45901W        W10886  42.460   5.274  13.281
45902W        W10887  32.949  22.090   2.024
45903W        W10888  14.166  41.258   0.365
45904W        W10889  12.375  26.328   1.605
45905W        W10890  28.123  43.881   3.560
45906W        W10891  33.124  26.156   0.403
45907W        W10892  34.390  22.434  12.092
45908W        W10893  31.378  20.076  11.954
45909W        W10894  34.925   5.933   0.375
45910W        W10895  28.407   5.266   2.457
45911W        W10896  15.089  11.262   0.866
45912W        W10897   6.128  42.828   9.903
45913W        W10898  28.640  44.674   1.879
45914W        W10899  10.878   0.268  11.065
45915W        W10900  31.220  20.486   2.138
45916W        W10901  27.921   8.909   3.138
45917W        W10902  36.312  34.358   0.926
45918W        W10903  14.372   5.262   3.680
45919W        W10904   5.384  18.819  10.989
45920W        W10905  14.752   2.275   3.112
45921W        W10906  20.976  33.159  11.696
45922W        W10907   4.723  42.571   4.997
45923W        W10908  12.918  32.043   4.069
45924W        W10909   8.279  32.812  13.555
45925W        W10910   9.885  28.392  12.823
45926W        W10911  11.974   8.953   3.169
45927W        W10912   4.257  21.614  12.521
45928W        W10913   3.145  28.068   4.237
45929W        W10914  36.949  29.404   4.822
45930W        W10915  19.058  39.212   2.643
45931W        W10916   6.978  14.424  10.759
45932W        W10917  42.391  19.548  14.759
45933W        W10918  31.406  34.080   2.216
45934W        W10919  37.370  12.719   1.436
45935W        W10920   9.309   6.185  11.951
45936W        W10921  19.247  39.058   1.680
45937W        W10922  31.008  23.924  13.513
45938W        W10923  33.790  22.263  14.376
45939W        W10924  11.302  22.909  12.027
45940W        W10925  33.528  36.974   2.424
45941W        W10926  14.266  23.309  13.474
45942W        W10927  35.545  39.338   3.817
45943W        W10928   3.833  21.958  13.172
45944W        W10929   5.401  41.340   2.170
45945W        W10930  24.630  15.260  14.101
45946W        W10931   9.726  28.590   1.955
45947W        W10932  14.162   3.514   0.328
45948W        W10933  36.599   2.860  12.991
45949W        W10934  37.055  38.975  11.422
45950W        W10935  17.640  34.368  11.567
45951W        W10936   2.887   2.790   0.434
45952W        W10937  40.866  32.877   3.869
45953W        W10938  19.768   1.344  14.111
45954W        W10939  11.733  35.578   3.821
45955W        W10940  29.898   3.715   2.908
45956W        W10941  32.979  13.873   2.722
45957W        W10942   7.169  15.217  12.931
45958W        W10943  17.070  20.749   2.281
45959W        W10944   5.698  38.698  14.060
45960W        W10945  12.791  21.772   4.946
45961W        W10946  30.378  31.506  10.823
45962W        W10947   9.437   2.292  10.713
45963W        W10948  39.834  36.919  11.955
45964W        W10949  28.672   4.890   3.338
45965W        W10950  27.263   8.777   0.899
45966W        W10951  34.098  27.736  14.416
45967W        W10952  21.975  23.529   0.505
45968W        W10953   6.646  26.037   3.411
45969W        W10954  14.697  43.307   0.737
45970W        W10955  36.147  25.681  12.440
45971W        W10956  14.962  21.183  13.063
45972W        W10957  42.824  26.248   2.883
45973W        W10958   4.385  41.896   1.926
45974W        W10959  12.826  31.616  13.166
45975W        W10960  23.129  15.421   2.204
45976W        W10961   9.867   8.850  12.970
45977W        W10962  21.397  15.681  12.132
45978W        W10963   2.944   3.247   4.496
45979W        W10964  41.468   1.330  13.000
45980W        W10965  33.572   7.839   2.738
45981W        W10966  27.704  32.394  12.572
45982W        W10967  33.610  43.879   1.201
45983W        W10968  31.015  10.232  10.216
45984W        W10969  24.988  42.261  12.527
45985W        W10970  39.594  24.096  12.912
45986W        W10971  21.551  24.098   2.757
45987W        W10972   8.410  18.838   2.355
45988W        W10973  19.684   5.839   0.811
45989W        W10974  31.033  42.039   0.714
45990W        W10975  43.921  39.354   1.893
45991W        W10976  35.159  37.856   4.231
45992W        W10977  32.892  40.572  13.927
45993W        W10978  31.106  34.137   2.787
45994W        W10979   2.200  31.960   1.468
45995W        W10980   8.002  15.083  14.798
45996W        W10981  20.996   2.333   3.572
45997W        W10982  43.148  23.246   3.627
45998W        W10983  35.146  15.439   4.963
45999W        W10984  38.368  11.608   2.201
46000W        W10985   1.218  40.270   1.332
46001W        W10986  38.862   1.163  10.001
46002W        W10987   5.035   8.134  10.721
46003W        W10988  22.394  32.924  11.618
46004W        W10989  34.906  10.827  14.482
46005W        W10990  12.133  27.947  12.565
46006W        W10991  38.547  13.721  12.158
46007W        W10992  35.441  41.208   3.608
46008W        W10993  31.828  24.642   3.233
46009W        W10994  13.386   0.506   0.483
46010W        W10995   7.698  25.101   4.229
46011W        W10996  27.055   2.131  12.987
46012W        W10997  35.329  29.229   2.201
46013W        W10998   0.942  38.063  14.348
46014W        W10999  17.629  32.357   4.553
46015W        W11000  34.117  26.219   1.810
46016W        W11001  42.871  36.917  12.298
46017W        W11002  37.672  43.387   0.953
46018W        W11003  18.796  42.693  14.368
46019W        W11004  13.180  28.930   4.273
46020W        W11005   9.588  41.899   0.831
46021W        W11006  43.852   7.287   0.821
46022W        W11007   5.579  29.650  11.060
46023W        W11008  20.119  36.379   3.926
46024W        W11009  19.903   8.278  10.378
46025W        W11010  42.679  38.798  12.827
46026W        W11011  10.511   6.644  12.395
46027W        W11012  42.909  34.261  12.040
46028W        W11013  17.309  23.651  12.976
46029W        W11014  35.889  11.245  14.985
46030W        W11015  30.811  21.474   2.133
46031W        W11016  16.329  28.104   2.094
46032W        W11017  16.946  18.657  10.693
46033W        W11018   4.322  19.551  13.574
46034W        W11019  24.111  10.920  11.681
46035W        W11020  32.129  18.715  12.540
46036W        W11021  30.567   5.918  13.067
46037W        W11022  30.829  43.803   0.788
46038W        W11023  22.018  14.052   4.024
46039W        W11024  34.722  18.017  14.348
46040W        W11025  27.198  38.571   2.162
46041W        W11026  31.821   9.593  14.452
46042W        W11027  28.090  39.243  13.531
46043W        W11028  20.089   2.753   2.133
46044W        W11029   6.926  20.057   1.354
46045W        W11030  26.654   9.156  13.023
46046W        W11031  39.981   9.360  10.728
46047W        W11032  13.238   4.370  13.595
46048W        W11033  43.539  23.117   0.974
46049W        W11034   6.214   5.729  14.206
46050W        W11035  18.679  29.344  11.102
46051W        W11036  27.595  22.877  13.083
46052W        W11037  23.264   5.987  12.532
46053W        W11038  33.484  16.323  13.141
46054W        W11039   6.459  16.182   1.932
46055W        W11040  40.072   1.752   0.485
46056W        W11041  15.733  24.814   0.705
46057W        W11042  27.706  30.375   0.393
46058W        W11043  21.504  41.500   3.468
46059W        W11044  22.230  29.299  14.787
46060W        W11045  28.551  12.252  12.853
46061W        W11046  44.800  39.569  10.631
46062W        W11047  11.319   8.183  13.356
46063W        W11048  41.297  36.946   1.347
46064W        W11049  24.414   9.704   2.200
46065W        W11050  19.850  20.729   5.306
46066W        W11051  14.389  29.639  13.029
46067W        W11052  40.175   5.482   2.754
46068W        W11053  22.967  16.124   3.939
46069W        W11054  42.519  22.348   3.448
46070W        W11055  41.252  36.131  11.472
46071W        W11056  27.594   1.961   1.342
46072W        W11057  12.217   7.950  13.392
46073W        W11058   1.555  12.455   0.091
46074W        W11059  36.019  33.798  14.437
46075W        W11060  28.134  11.324   0.792
46076W        W11061  12.710  29.840   0.858
46077W        W11062   8.154  26.663   2.267
46078W        W11063  25.937  34.953  11.153
46079W        W11064  20.987  16.161  12.013
46080W        W11065   6.308  35.081   3.342
46081W        W11066  40.979  16.693   2.949
46082W        W11067   6.681  44.847   3.507
46083W        W11068   7.030  39.676  12.429
46084W        W11069   4.927  14.113   1.207
46085W        W11070  11.172  18.320   1.746
46086W        W11071  14.122   1.708  12.771
46087W        W11072  28.224  27.779  12.070
46088W        W11073   6.430   3.018  11.553
46089W        W11074  41.887   6.491  12.189
46090W        W11075   7.865  30.272   0.541
46091W        W11076   9.075  20.745   2.064
46092W        W11077  44.495  41.291   1.367
46093W        W11078  23.709  40.299  10.996
46094W        W11079  14.407  44.220  14.946
46095W        W11080  42.901  40.226   4.073
46096W        W11081   8.680  39.460  13.997
46097W        W11082  40.869  25.687   3.223
46098W        W11083   4.763  17.145   4.673
46099W        W11084   9.352  43.404  14.348
46100W        W11085  42.298  15.264  10.541
46101W        W11086  16.221  34.518  11.611
46102W        W11087  32.641  42.942   4.272
46103W        W11088  11.335  30.152  11.189
46104W        W11089  26.001  22.338   1.882
46105W        W11090  20.840   3.314   1.141
46106W        W11091  34.715  19.302  14.021
46107W        W11092  27.734  29.054   1.758
46108W        W11093  28.999   8.656   3.071
46109W        W11094  32.955  39.412   4.155
46110W        W11095  19.748  20.128  11.515
46111W        W11096  22.201  42.908   1.806
46112W        W11097  37.983  17.156   4.544
46113W        W11098  33.581  38.572  12.516
46114W        W11099  39.389  39.451  11.219
46115W        W11100  20.567  32.460  13.497
46116W        W11101   7.524  29.344  14.443
46117W        W11102  20.207  14.023   4.162
46118W        W11103  15.112  43.202  13.854
46119W        W11104  17.695   7.038   4.293
46120W        W11105  18.536  35.015  13.257
46121W        W11106  39.742  10.303   2.151
46122W        W11107  43.964   8.572  13.829
46123W        W11108  34.585   5.732   0.756
46124W        W11109  10.780  19.261   2.784
46125W        W11110  42.202  16.593   4.182
46126W        W11111  23.124   4.148  13.177
46127W        W11112   9.564  24.349  11.638
46128W        W11113  13.187   0.460  10.302
46129W        W11114  16.080   1.718   3.443
46130W        W11115  33.949   6.837   0.412
46131W        W11116   2.985  38.900  11.916
46132W        W11117  43.127   8.181  12.075
46133W        W11118  41.988  39.270   2.138
46134W        W11119  30.355  22.138  11.610
46135W        W11120  25.703  14.059  12.959
46136W        W11121  44.351  38.823   4.951
46137W        W11122  23.960  11.955  14.484
46138W        W11123   8.449  43.222  11.051
46139W        W11124  25.099  10.771   0.137
46140W        W11125  26.708   2.336  13.354
46141W        W11126  27.394   6.654   2.263
46142W        W11127   0.979  22.416  13.046
46143W        W11128  30.993  10.362   0.762
46144W        W11129  34.134  35.452   0.909
46145W        W11130   5.821   9.783  13.824
46146W        W11131  12.138  19.223  11.166
46147W        W11132  20.947   3.342  13.129
46148W        W11133  26.588   9.730  14.759
46149W        W11134  25.267   6.670  11.589
46150W        W11135   2.469  25.931   3.732
46151W        W11136  29.367  16.576   4.966
46152W        W11137  36.929  14.585   3.110
46153W        W11138  41.695  41.012   3.184
46154W        W11139   8.870  34.958   0.960
46155W        W11140  11.831  19.818  13.033
46156W        W11141   2.808  24.417  14.863
46157W        W11142   0.572  43.760  14.920
46158W        W11143  19.348   2.974   2.766
46159W        W11144   0.039  39.722   2.700
46160W        W11145   9.750   5.964  12.118
46161W        W11146  42.288  22.554  10.138
46162W        W11147  24.202  36.369   1.528
46163W        W11148  11.795  22.922  13.944
46164W        W11149   9.885  12.393   0.316
46165W        W11150   1.512   8.398  14.939
46166W        W11151  19.161  22.533  11.554
46167W        W11152  44.029   1.952   0.781
46168W        W11153  14.113  34.626  11.147
46169W        W11154  34.420  33.571   3.080
46170W        W11155  10.934  31.746  12.160
46171W        W11156  15.429  37.043  13.436
46172W        W11157  27.239  43.714  14.207
46173W        W11158  10.943  27.293   0.970
46174W        W11159  18.067  33.659  10.728
46175W        W11160  17.309  19.773  14.483
46176W        W11161  16.792  42.197   1.031
46177W        W11162  32.032  22.326  12.232
46178W        W11163  10.929  13.812   0.519
46179W        W11164  18.023  24.434   1.312
46180W        W11165   8.259  14.893   2.150
46181W        W11166  34.028  34.145   1.817
46182W        W11167  13.321  35.350   2.344
46183W        W11168  17.151  29.288   4.175
46184W        W11169  40.840  25.432   4.414
46185W        W11170  21.179   0.939   1.985
46186W        W11171  17.528  36.497  14.830
46187W        W11172  22.538   3.145  14.762
46188W        W11173  21.615  15.162   0.516
46189W        W11174   4.006  11.136  14.018
46190W        W11175   8.264  15.872   4.300
46191W        W11176  11.122   1.039   3.089
46192W        W11177  34.928   4.503  14.501
46193W        W11178  26.501  32.979   3.633
46194W        W11179  27.573  22.286  11.644
46195W        W11180  20.008  27.543   3.725
46196W        W11181   1.304  40.729   0.407
46197W        W11182  39.734  16.625  14.262
46198W        W11183   5.322   3.332   1.625
46199W        W11184  26.400  33.988   1.521
46200W        W11185  27.382  22.421   1.730
46201W        W11186  13.728   8.106  10.728
46202W        W11187  12.904  13.106   3.705
46203W        W11188  44.363  10.266  11.237
46204W        W11189  17.747   4.468   1.326
46205W        W11190  29.096  15.352  12.436
46206W        W11191   7.229  10.340   2.732
46207W        W11192   1.342  28.492  13.806
46208W        W11193  10.218  28.906  11.605
46209W        W11194  12.024  42.565  12.140
46210W        W11195  30.869  18.674   2.406
46211W        W11196  15.743  15.097   0.911
46212W        W11197  19.944  23.109  10.380
46213W        W11198   0.689   6.425   0.344
46214W        W11199  24.603  16.872   0.840
46215W        W11200   7.146  26.576  13.141
46216W        W11201  31.989  24.255   2.933
46217W        W11202  40.552   7.288   2.649
46218W        W11203  27.062  44.956   1.953
46219W        W11204  31.701  12.620   2.094
46220W        W11205   8.106  11.829   1.834
46221W        W11206  15.012  42.069   2.821
46222W        W11207  29.775   2.301  10.584
46223W        W11208   3.864  28.443  10.945
46224W        W11209  10.325  15.211   3.344
46225W        W11210  30.420  18.387   1.400
46226W        W11211   3.490   1.027   3.131
46227W        W11212  12.051  31.029  14.555
46228W        W11213   4.227  44.715   2.155
46229W        W11214  13.754  20.466   0.147
46230W        W11215  10.917  34.056  10.615
46231W        W11216  10.175  19.800   3.188
46232W        W11217  37.913  29.713  11.607
46233W        W11218  32.580   7.566  13.789
46234W        W11219  29.668  43.515  10.647
46235W        W11220  13.671  25.794   2.681
46236W        W11221  14.598  23.785  11.765
46237W        W11222  30.433  23.444   0.781
46238W        W11223  33.964  27.995   2.847
46239W        W11224  39.486  15.648   0.905
46240W        W11225  42.408  19.677   0.282
46241W        W11226   9.433  18.708   4.564
46242W        W11227  32.511  24.625   4.042
46243W        W11228  13.703   7.567   2.735
46244W        W11229  29.561  19.977  14.258
46245W        W11230  14.696  17.388  11.929
46246W        W11231  33.921   6.321   4.264
46247W        W11232  42.240  11.212  13.349
46248W        W11233  37.872  18.068  13.742
46249W        W11234  12.267  17.075  14.420
46250W        W11235  31.225  17.712  10.278
46251W        W11236  35.212  37.571   4.958
46252W        W11237  25.654  12.189  13.183
46253W        W11238  15.544  18.161   2.829
46254W        W11239  14.731  24.889   4.009
46255W        W11240  24.580  11.192   2.229
46256W        W11241  21.096   1.791  13.670
46257W        W11242  12.892  23.630  11.155
46258W        W11243  33.585  42.436   1.022
46259W        W11244  18.100  28.953   3.273
46260W        W11245   3.925  17.747  10.687
46261W        W11246  23.285  31.880  14.092
46262W        W11247  29.433  20.241   4.793
46263W        W11248  41.741   9.712  13.096
46264W        W11249  33.664  14.912   2.132
46265W        W11250  16.776  32.199   5.200
46266W        W11251  44.476  24.306   4.984
46267W        W11252   7.590  21.142   1.936
46268W        W11253  43.884  31.782  13.419
46269W        W11254   4.900   6.285  12.646
46270W        W11255   1.997  20.745   1.729
46271W        W11256  23.418  27.291  10.953
46272W        W11257  19.365  19.006  14.099
46273W        W11258   0.892  39.547   4.511
46274W        W11259  34.458   3.464  12.252
46275W        W11260  33.525  27.177   4.334
46276W        W11261   3.962  41.299   4.091
46277W        W11262  38.611  13.300  11.511
46278W        W11263  27.546  28.527   2.954
46279W        W11264   0.342  10.220   3.669
46280W        W11265  35.388   2.325  12.655
46281W        W11266  15.801  40.069  13.040
46282W        W11267  35.996  41.975  14.401
46283W        W11268  31.182  11.084   0.318
46284W        W11269  24.805  20.721   4.613
46285W        W11270  25.473  42.239   1.362
46286W        W11271  27.468  43.224  14.005
46287W        W11272  35.012  29.105   4.128
46288W        W11273   3.922  19.727   4.572
46289W        W11274   7.917  25.293   2.252
46290W        W11275   7.805  14.076   0.746
46291W        W11276   7.571  42.674   1.842
46292W        W11277  15.455  14.755   3.970
46293W        W11278  33.640  30.645  13.013
46294W        W11279  22.033   6.773  13.594
46295W        W11280  16.295   6.891   1.220
46296W        W11281  26.746  42.770  14.293
46297W        W11282   7.870   0.400  10.760
46298W        W11283   8.692   0.918   5.013
46299W        W11284  27.864   4.110  10.677
46300W        W11285   5.451  21.508  14.021
46301W        W11286   1.673  25.477   0.882
46302W        W11287  31.973  26.154  12.425
46303W        W11288  31.630  34.954  11.271
46304W        W11289  34.793  20.654   0.811
46305W        W11290  15.021  30.590  13.099
46306W        W11291  41.945  35.646  14.291
46307W        W11292  19.187   8.913  12.017
46308W        W11293  40.317  23.217   4.205
46309W        W11294  26.760   0.798  12.011
46310W        W11295  16.244  16.776   4.597
46311W        W11296   5.480  25.179  11.901
46312W        W11297  23.462  11.305   0.959
46313W        W11298  23.513  43.866   0.520
46314W        W11299  17.740  26.886   2.779
46315W        W11300  41.196  22.334   3.791
46316W        W11301   0.440   3.771   4.080
46317W        W11302  30.689   9.010   5.278
46318W        W11303  26.897  11.638   2.689
46319W        W11304  35.310  29.522   5.022
46320W        W11305  16.404   7.897   0.835
46321W        W11306  38.921   1.687  11.053
46322W        W11307   2.495  12.281  12.408
46323W        W11308  43.036  15.564   3.749
46324W        W11309  32.608  43.480   4.502
46325W        W11310  21.002  29.126   2.302
46326W        W11311  43.040  43.464   2.137
46327W        W11312  37.837  26.401   3.656
46328W        W11313  42.898  28.197   1.730
46329W        W11314  26.507  19.278   0.236
46330W        W11315  25.649  28.684  14.329
46331W        W11316  26.402   1.313   2.699
46332W        W11317  18.742  17.512   1.847
46333W        W11318   5.936  13.089   3.215
46334W        W11319  14.265  36.125  11.204
46335W        W11320  38.595  44.375  10.929
46336W        W11321  37.870  40.343  13.849
46337W        W11322  21.650   5.837  13.541
46338W        W11323  14.651  12.774   5.192
46339W        W11324  22.825  42.837   2.978
46340W        W11325  15.590   3.000  14.823
46341W        W11326  26.987  25.802  12.773
46342W        W11327  27.680  39.784  10.388
46343W        W11328   4.315  32.130   4.579
46344W        W11329   6.443  21.680  12.737
46345W        W11330  35.043  17.066   3.197
46346W        W11331   8.306  41.623   3.492
46347W        W11332  35.865  29.337   4.890
46348W        W11333   2.413   0.067  11.928
46349W        W11334  32.619   5.671   0.768
46350W        W11335  21.420  40.009  14.492
46351W        W11336  31.566   1.070  11.400
46352W        W11337   0.075  35.077   0.027
46353W        W11338  32.408  25.082  14.491
46354W        W11339  40.055  21.739  14.047
46355W        W11340  36.115  35.124   4.133
46356W        W11341  19.522  28.101  14.521
46357W        W11342  16.686  22.737   0.190
46358W        W11343  16.507  43.441  13.497
46359W        W11344  35.954  36.963  11.562
46360W        W11345  24.059  18.145   2.360
46361W        W11346  40.283  33.662   2.778
46362W        W11347   6.751  22.177  14.377
46363W        W11348  15.120  21.693  13.116
46364W        W11349  33.955  15.736  13.691
46365W        W11350  26.694   7.987   5.000
46366W        W11351   6.826   3.622  10.703
46367W        W11352  42.248   5.709   2.097
46368W        W11353  26.365  41.312  14.456
46369W        W11354  13.182  17.629  12.131
46370W        W11355  34.063  39.499  13.016
46371W        W11356  20.148  37.998  11.286
46372W        W11357  44.477  22.273  13.848
46373W        W11358  24.580  34.506   4.533
46374W        W11359   2.483  17.247   1.370
46375W        W11360  12.737  11.247  12.077
46376W        W11361  42.738  22.149  11.991
46377W        W11362  14.838  19.437   2.773
46378W        W11363   1.914  44.211   1.172
46379W        W11364  43.792   2.810   3.612
46380W        W11365  17.054  33.043   0.535
46381W        W11366   7.187  33.904   1.218
46382W        W11367  29.923   0.577   1.309
46383W        W11368   0.643   5.542  10.468
46384W        W11369  14.939  36.749   4.033
46385W        W11370  24.186  19.106  11.624
46386W        W11371   4.376  11.590   3.806
46387W        W11372   2.468  33.438   4.589
46388W        W11373  19.541  35.008   1.392
46389W        W11374  41.863  28.002  12.150
46390W        W11375  16.362  44.697  11.394
46391W        W11376  23.642   9.599   1.336
46392W        W11377  17.465  21.113   1.337
46393W        W11378  39.518  44.472   3.265
46394W        W11379  27.690  31.479   1.421
46395W        W11380  11.112  41.460   1.631
46396W        W11381  16.234  33.715   4.409
46397W        W11382  17.821  36.530   2.637
46398W        W11383  19.284   9.409  12.075
46399W        W11384  33.884  21.788   4.283
46400W        W11385  42.522   3.221   0.906
46401W        W11386  31.515  34.027  13.046
46402W        W11387  35.716  16.058  13.304
46403W        W11388  27.550  35.817   1.204
46404W        W11389  16.107  24.286  10.981
46405W        W11390  29.486  38.941  14.565
46406W        W11391  37.038  18.297   1.660
46407W        W11392   8.191   7.483   4.456
46408W        W11393  35.504  42.298  12.869
46409W        W11394   5.313  32.655   0.946
46410W        W11395  34.827  23.690  14.537
46411W        W11396  15.771  16.629   0.908
46412W        W11397  25.055  23.677  11.157
46413W        W11398  42.451  29.369  10.721
46414W        W11399   1.525  11.287  13.891
46415W        W11400  30.103  32.196   1.360
46416W        W11401  17.901  28.084  14.415
46417W        W11402  11.033   5.773   4.562
46418W        W11403  11.215  28.556   1.016
46419W        W11404   6.114  31.586  13.877
46420W        W11405   6.721   6.625  12.805
46421W        W11406  44.466   1.971  11.631
46422W        W11407  10.789  25.233   1.762
46423W        W11408  11.945  33.849  13.505
46424W        W11409   6.871  37.490  10.631
46425W        W11410   2.643  28.602   3.436
46426W        W11411  19.751   4.828   1.562
46427W        W11412  17.544  12.338  13.771
46428W        W11413  33.536  26.496   3.557
46429W        W11414   6.684   1.826   3.308
46430W        W11415  32.517  28.480   0.359
46431W        W11416  42.346  15.959  13.299
46432W        W11417  27.066   0.372   5.464
46433W        W11418  36.814  34.211   0.894
46434W        W11419  40.614   3.007   0.731
46435W        W11420  11.260  16.549   3.040
46436W        W11421  35.765  42.854   1.108
46437W        W11422   1.838  21.003  12.424
46438W        W11423  37.760  41.256  11.608
46439W        W11424   9.286  33.277   3.682
46440W        W11425   1.325  10.439  14.876
46441W        W11426  36.578  20.629  12.014
46442W        W11427   5.213  24.930  12.870
46443W        W11428  18.657  34.585  10.703
46444W        W11429   5.326  21.570  11.421
46445W        W11430   2.510  37.804   4.275
46446W        W11431  38.900  20.693  12.547
46447W        W11432  14.781  11.757   3.060
46448W        W11433  29.939   4.382   1.335
46449W        W11434  19.126  21.547  11.597
46450W        W11435  32.940  17.558  13.057
46451W        W11436  32.580  35.390   0.517
46452W        W11437  11.081   5.424  13.152
46453W        W11438   7.495   3.471  14.355
46454W        W11439  21.531  37.267  14.919
46455W        W11440  17.523  35.459  11.267
46456W        W11441   5.314   3.209   3.328
46457W        W11442  37.703  25.836  12.731
46458W        W11443  42.832  12.882  10.635
46459W        W11444  41.148  27.596   0.442
46460W        W11445  42.011   0.387   2.724
46461W        W11446  40.526  30.838  13.875
46462W        W11447  15.205  39.953   4.424
46463W        W11448  21.434  24.383   1.865
46464W        W11449   2.704   1.792  13.080
46465W        W11450  34.658  42.318   4.664
46466W        W11451  37.461  23.204  14.783
46467W        W11452  15.348  23.935   3.146
46468W        W11453  11.988  38.906   0.395
46469W        W11454  37.996   7.672   0.925
46470W        W11455  38.853  40.094   2.110
46471W        W11456  39.877   3.248   1.781
46472W        W11457  24.215  44.278  13.314
46473W        W11458  19.985   9.282  14.809
46474W        W11459  21.284   0.453  13.577
46475W        W11460  41.452  43.791   0.790
46476W        W11461  40.456  26.569   2.791
46477W        W11462   8.023  18.775   3.890
46478W        W11463  29.424  32.309  11.936
46479W        W11464   7.880   5.511   1.156
46480W        W11465  42.681  28.899   2.521
46481W        W11466  33.551  29.179  14.012
46482W        W11467  12.776  25.539   0.819
46483W        W11468  26.501  25.168   4.585
46484W        W11469  14.224  20.373   0.336
46485W        W11470   3.390  23.272  10.311
46486W        W11471  33.629  29.888   4.856
46487W        W11472   7.041  24.056  12.096
46488W        W11473  18.378  41.994   4.997
46489W        W11474  32.914  15.802   0.794
46490W        W11475  25.473  41.731  13.385
46491W        W11476   3.307  27.155  13.468
46492W        W11477  36.751  39.371  12.144
46493W        W11478  28.042  23.720  12.532
46494W        W11479  25.191  38.023  12.539
46495W        W11480  15.746  11.598  10.799
46496W        W11481  21.552  24.997   0.334
46497W        W11482  17.591  43.804  12.736
46498W        W11483   9.378  23.734  13.397
46499W        W11484  36.732   8.936   2.221
46500W        W11485   2.704  35.551   3.291
46501W        W11486  26.191  17.339  10.640
46502W        W11487  40.547  37.342   1.784
46503W        W11488  14.118   7.515   1.823
46504W        W11489   2.367  31.500  10.805
46505W        W11490  18.708   5.462  14.723
46506W        W11491  16.972  36.836  14.450
46507W        W11492   9.117   7.733   3.541
46508W        W11493  30.369  32.481  13.481
46509W        W11494   7.556  23.778  13.439
46510W        W11495  28.053  12.908   1.187
46511W        W11496  44.773  14.103  12.589
46512W        W11497  39.958  38.830  14.383
46513W        W11498  28.057  19.560  14.356
46514W        W11499  13.660  10.648   0.391
46515W        W11500  10.326   9.114   2.703
46516W        W11501   0.224   6.320  14.258
46517W        W11502  29.038  43.441  11.337
46518W        W11503  18.537  27.681   0.049
46519W        W11504  25.708   8.226  13.866
46520W        W11505  10.249  20.590  12.444
46521W        W11506  37.097  31.409   2.720
46522W        W11507   8.731  24.235  14.003
46523W        W11508  17.061  32.570   2.048
46524W        W11509  11.334  21.617   0.236
46525W        W11510   9.497  22.284   0.367
46526W        W11511   0.091  30.987  12.380
46527W        W11512   4.391  39.684   1.919
46528W        W11513  23.057   0.732   2.268
46529W        W11514  41.997  15.522  14.022
46530W        W11515  30.977  22.327   0.314
46531W        W11516  11.800  21.086  13.908
46532W        W11517  37.356  14.564  11.450
46533W        W11518  32.408  18.823  13.466
46534W        W11519  28.169   6.839  13.380
46535W        W11520  13.305  28.452   4.062
46536W        W11521   2.917  17.612  11.939
46537W        W11522  14.207  31.011  12.107
46538W        W11523   9.385  28.460   3.237
46539W        W11524  16.225  13.582   2.340
46540W        W11525  18.899  14.768  11.297
46541W        W11526  40.442  44.561   3.409
46542W        W11527  14.891   1.174  11.568
46543W        W11528   0.346  37.008  11.039
46544W        W11529  40.450   5.754  14.339
46545W        W11530   9.633  14.174  12.606
46546W        W11531  12.951  26.459   4.021
46547W        W11532  19.046  33.627  11.537
46548W        W11533   5.718  14.372   3.741
46549W        W11534   4.737  27.762  10.027
46550W        W11535  40.842  21.982   3.665
46551W        W11536  15.578  15.062   2.662
46552W        W11537  24.654   0.835   0.393
46553W        W11538  37.301  42.105  11.596
46554W        W11539  20.595  40.822  10.777
46555W        W11540  32.566  30.415  11.585
46556W        W11541   2.629   3.257   0.443
46557W        W11542  26.118  39.103   0.897
46558W        W11543  17.048   4.936  13.913
46559W        W11544  13.597  19.000   1.703
46560W        W11545   5.243  31.887  11.940
46561W        W11546  41.738  37.320  11.689
46562W        W11547  37.445  34.810  13.186
46563W        W11548  11.677  44.272  12.600
46564W        W11549  12.913  19.117   0.929
46565W        W11550   7.363  16.807   2.170
46566W        W11551  29.363   3.611   2.893
46567W        W11552  38.975   0.736   1.475
46568W        W11553   0.396   5.601   3.685
46569W        W11554  25.520  21.531   3.795
46570W        W11555   7.444  37.379   4.067
46571W        W11556  27.068  16.808   3.781
46572W        W11557  11.358  11.050   3.149
46573W        W11558  34.162  10.919   0.092
46574W        W11559  19.472  17.785   4.439
46575W        W11560  31.539  34.533   1.277
46576W        W11561  20.274   0.207   1.334
46577W        W11562   8.193  41.497   4.595
46578W        W11563  22.360   0.513   3.825
46579W        W11564   1.989  23.338  13.800
46580W        W11565  37.449  16.565   1.292
46581W        W11566  35.599  37.959   3.081
46582W        W11567  43.174  40.552  14.882
46583W        W11568  12.688  21.569   0.406
46584W        W11569  17.678  43.773   2.232
46585W        W11570  42.765  39.364   4.068
46586W        W11571  18.297  43.980  14.453
46587W        W11572   8.907  40.928  11.070
46588W        W11573  36.970   0.092  14.061
46589W        W11574  24.519  13.538   0.194
46590W        W11575   4.686   0.406   4.728
46591W        W11576  20.982  39.868   0.928
46592W        W11577  33.967  12.567  13.893
46593W        W11578  13.574  44.913  12.088
46594W        W11579   1.253  18.832  12.080
46595W        W11580  12.067  24.122   3.779
46596W        W11581  38.060  14.539   4.997
46597W        W11582  31.438  16.700   3.038
46598W        W11583  18.645   9.830   2.370
46599W        W11584   6.858  13.955  13.901
46600W        W11585  34.109  35.825  10.678
46601W        W11586   6.433  14.351  14.329
46602W        W11587  13.696  30.476   1.627
46603W        W11588  41.826  30.963  13.547
46604W        W11589  13.257   2.398   2.851
46605W        W11590  20.183  23.632  14.209
46606W        W11591   1.780  44.489  11.691
46607W        W11592  42.077  18.718  12.959
46608W        W11593  13.619   8.252   9.676
46609W        W11594  37.471   9.439   5.102
46610W        W11595  30.528  32.903   0.435
46611W        W11596   6.323   7.371  13.915
46612W        W11597  29.173  27.792   0.085
46613W        W11598  38.047   6.946  13.830
46614W        W11599  17.105  31.588  14.033
46615W        W11600  42.284  42.430   1.162
46616W        W11601   2.987   8.622  10.973
46617W        W11602  37.207  25.610  10.699
46618W        W11603  36.286   5.400  10.762
46619W        W11604  41.485  43.316  13.950
46620W        W11605  37.274  37.312  12.565
46621W        W11606  42.784  33.594  14.788
46622W        W11607  34.132  18.255  12.436
46623W        W11608   6.099  38.061  10.698
46624W        W11609   0.787   9.321   0.292
46625W        W11610  29.956  27.214  12.113
46626W        W11611  21.958  20.725  11.118
46627W        W11612   9.639  35.598  14.455
46628W        W11613  44.467  37.499   2.234
46629W        W11614  17.236  40.532  12.376
46630W        W11615  13.388  31.992  10.187
46631W        W11616  39.949  14.131  14.893
46632W        W11617  42.810  33.903  11.187
46633W        W11618  30.527   0.588  14.435
46634W        W11619  24.094  13.788  11.664
46635W        W11620  18.783  37.333   0.396
46636W        W11621   9.269  25.557   2.343
46637W        W11622  33.533  17.909   2.752
46638W        W11623  39.342  39.995   0.408
46639W        W11624   3.321  25.214   2.257
46640W        W11625  34.142  38.614   0.793
46641W        W11626   9.777  39.390   0.361
46642W        W11627  13.524  41.307  10.130
46643W        W11628  21.092  43.808  10.882
46644W        W11629  21.411   9.817  13.340
46645W        W11630  35.319  42.296  11.608
46646W        W11631  22.679  23.270   3.028
46647W        W11632  24.160   2.307   3.286
46648W        W11633  22.650   1.418  13.409
46649W        W11634  39.938   6.008   3.811
46650W        W11635  19.573  25.552   3.794
46651W        W11636  18.981  24.289  10.088
46652W        W11637   1.826   1.699   0.248
46653W        W11638  17.405  11.882  13.597
46654W        W11639  36.330  35.147   3.395
46655W        W11640  10.279  35.609   1.243
46656W        W11641  41.063  10.765   2.253
46657W        W11642  23.513  23.969   0.959
46658W        W11643  22.178  23.394   2.306
46659W        W11644  37.373  37.950  13.140
46660W        W11645  19.554  33.378   4.670
46661W        W11646  10.651   1.407   0.042
46662W        W11647  35.938  30.114   1.196
46663W        W11648  27.483  43.502  12.610
46664W        W11649  16.134  27.073  12.007
46665W        W11650   5.948  14.423   1.794
46666W        W11651  14.003  42.700  13.952
46667W        W11652  38.513   9.490  13.377
46668W        W11653  39.661   8.671  12.108
46669W        W11654   3.984  30.867   1.763
46670W        W11655   3.226  30.941  14.849
46671W        W11656  18.272   3.334   2.126
46672W        W11657  29.982  42.669  11.547
46673W        W11658  25.878  39.568   0.839
46674W        W11659   2.274  16.071   3.038
46675W        W11660  11.256   4.390  10.312
46676W        W11661  34.175  31.147  11.246
46677W        W11662   3.740  43.118  14.982
46678W        W11663  23.557   4.375   3.871
46679W        W11664  29.533  16.315  11.688
46680W        W11665  36.514   3.850  14.792
46681W        W11666   4.649  18.894  14.330
46682W        W11667  18.141   8.386  12.009
46683W        W11668  29.603  25.480   3.312
46684W        W11669  37.869   9.595   0.745
46685W        W11670  19.214   7.446   3.758
46686W        W11671  44.997  23.030   0.878
46687W        W11672  14.534  24.688  11.656
46688W        W11673   6.559  43.971   4.877
46689W        W11674  10.102   5.233  14.746
46690W        W11675  16.917  26.453  10.691
46691W        W11676   1.928  36.439  12.126
46692W        W11677  23.503  39.016  11.443
46693W        W11678   4.664  22.642   2.730
46694W        W11679  21.132  29.884   4.667
46695W        W11680  43.838  22.465  12.252
46696W        W11681   1.369   3.481  12.892
46697W        W11682  40.417  40.315   2.601
46698W        W11683  28.123  31.515  11.451
46699W        W11684  28.674  12.039   3.657
46700W        W11685   0.753  39.319   0.928
46701W        W11686  30.388  37.423  14.078
46702W        W11687  36.322  10.240   3.606
46703W        W11688   1.002  31.149  10.708
46704W        W11689  16.819  30.248   4.641
46705W        W11690  41.841  41.092   3.673
46706W        W11691   1.242  44.036   0.240
46707W        W11692  11.883   6.366  12.731
46708W        W11693  25.226   1.491   1.489
46709W        W11694   8.576  34.426  12.383
46710W        W11695  27.719  29.697  10.833
46711W        W11696  27.817  20.830   1.821
46712W        W11697  15.287  16.770   4.527
46713W        W11698  21.606  14.380   2.818
46714W        W11699  22.961  15.109   3.057
46715W        W11700  44.379   0.770   0.246
46716W        W11701   8.303  36.811   1.713
46717W        W11702  18.784  15.403   3.809
46718W        W11703  30.275  30.114   5.717
46719W        W11704  34.946   2.564   3.232
46720W        W11705  33.907  26.985  14.185
46721W        W11706  19.241  40.352   2.188
46722W        W11707  40.276   1.825   1.349
46723W        W11708  29.662  11.097  14.396
46724W        W11709  28.559  39.932   2.790
46725W        W11710  34.466  36.553  14.889
46726W        W11711  16.765   0.747   4.383
46727W        W11712  37.541  37.579   3.784
46728W        W11713  27.130  12.937  12.591
46729W        W11714  27.101   5.199   1.868
46730W        W11715  42.844   6.581   2.779
46731W        W11716  29.625  31.845   1.502
46732W        W11717   3.956   1.949   3.648
46733W        W11718  38.759  42.274   3.949
46734W        W11719  11.163  31.075   4.288
46735W        W11720  17.053  29.045  12.980
46736W        W11721   7.901  26.983  11.611
46737W        W11722  15.359  36.373   4.027
46738W        W11723  11.705   0.747  14.926
46739W        W11724  35.518  12.337  12.785
46740W        W11725  27.875  24.879   4.916
46741W        W11726  20.855  32.162   2.788
46742W        W11727   8.836  44.150   0.350
46743W        W11728  40.876  37.489   3.043
46744W        W11729   9.612   5.178   3.029
46745W        W11730  44.439  16.536   4.093
46746W        W11731  12.681  35.511  10.470
46747W        W11732  18.718  12.566   1.255
46748W        W11733  34.419  37.205  13.597
46749W        W11734  34.572   1.096  12.112
46750W        W11735   0.506  14.332  10.431
46751W        W11736  17.593  22.544   3.538
46752W        W11737  27.182  39.774   3.649
46753W        W11738  22.293  23.020   0.356
46754W        W11739   8.166  21.716   3.260
46755W        W11740   4.711   1.174   2.645
46756W        W11741  23.776  32.075  11.112
46757W        W11742  39.469  36.661   4.655
46758W        W11743   2.024  11.808  11.162
46759W        W11744  32.946   6.834   4.683
46760W        W11745  44.486  22.387  10.156
46761W        W11746  19.216  11.382   4.093
46762W        W11747   5.443  15.750   0.883
46763W        W11748  41.893   0.858  14.178
46764W        W11749   4.380  44.966  14.231
46765W        W11750   9.729   3.704   2.208
46766W        W11751   2.651  26.168  12.943
46767W        W11752  16.106  27.205   3.184
46768W        W11753  19.725  15.955   0.867
46769W        W11754  13.218  17.035   4.064
46770W        W11755  31.905  34.721   4.127
46771W        W11756   6.844  36.420   4.797
46772W        W11757  14.170  44.944   2.739
46773W        W11758  40.235  23.519   4.591
46774W        W11759  39.127  11.398   1.701
46775W        W11760   2.915   9.939  13.496
46776W        W11761   7.524   5.248   4.060
46777W        W11762  32.378  34.561  12.103
46778W        W11763  28.196  24.551   4.051
46779W        W11764   7.064  44.741   2.164
46780W        W11765   3.293  11.252   4.087
46781W        W11766  11.180  11.207  12.051
46782W        W11767  35.223  29.481   0.972
46783W        W11768  15.801  43.398   1.548
46784W        W11769  33.394  13.746   3.428
46785W        W11770  10.805  11.119  11.180
46786W        W11771   3.196  15.320  11.525
46787W        W11772  39.825  15.176  14.770
46788W        W11773  42.034   6.376   3.845
46789W        W11774  40.412  21.569   4.572
46790W        W11775  36.320  33.459   0.963
46791W        W11776  43.395  16.774  12.605
46792W        W11777  40.939  30.703  10.699
46793W        W11778   9.415   1.775  11.860
46794W        W11779  24.566  44.572  14.370
46795W        W11780  29.545  14.075   4.607
46796W        W11781  35.233   2.344   4.911
46797W        W11782  43.795  20.645  12.789
46798W        W11783   4.758   8.222   2.096
46799W        W11784   4.856  19.003  11.064
46800W        W11785  10.238   2.216   4.582
46801W        W11786  18.944  26.851   9.979
46802W        W11787  29.087   8.360   0.571
46803W        W11788  10.883  30.659   1.506
46804W        W11789  15.385  15.435   4.186
46805W        W11790  44.595  39.089  10.124
46806W        W11791   6.618  15.805  12.692
46807W        W11792   5.691  16.658   1.356
46808W        W11793  33.556   7.185   0.212
46809W        W11794   8.058  33.822  14.839
46810W        W11795  38.941  18.523  13.443
46811W        W11796  37.343  36.848  10.683
46812W        W11797  14.288   1.907  14.251
46813W        W11798  35.347  18.163   1.724
46814W        W11799  17.118  42.753  12.999
46815W        W11800   1.793   3.771   4.425
46816W        W11801  37.910  41.211   0.356
46817W        W11802  21.684  37.923   1.216
46818W        W11803   6.949  25.781  10.622
46819W        W11804  29.000  39.944  10.795
46820W        W11805   5.595  15.604   2.495
46821W        W11806  40.327  32.312   3.668
46822W        W11807  35.341  11.174   2.268
46823W        W11808  22.367  24.559  14.653
46824W        W11809  35.371  14.066  12.825
46825W        W11810   2.097  35.018   5.002
46826W        W11811  13.064  13.561  11.437
46827W        W11812  35.558   8.319   0.561
46828W        W11813  28.878  15.228   4.486
46829W        W11814  12.750  32.332  10.742
46830W        W11815  27.441   8.626  14.705
46831W        W11816  15.812  32.073   2.827
46832W        W11817  32.574   8.406  11.594
46833W        W11818  24.028  10.717   2.633
46834W        W11819   6.131  33.556  14.907
46835W        W11820  10.966  40.983   1.268
46836W        W11821  35.274  42.683   0.943
46837W        W11822  23.199  35.580  12.756
46838W        W11823  24.508  42.253  14.948
46839W        W11824  31.088   2.648   2.398
46840W        W11825  25.492  27.599   0.396
46841W        W11826  15.337  35.020   4.647
46842W        W11827  27.947   1.746  12.455
46843W        W11828  18.300  16.091  14.998
46844W        W11829  37.387  38.304  12.742
46845W        W11830  32.700  25.890   0.511
46846W        W11831  16.117  17.611  13.956
46847W        W11832  28.589   4.731  11.478
46848W        W11833   8.769  42.113   1.769
46849W        W11834  40.968  12.658   2.708
46850W        W11835  37.795   4.287  12.374
46851W        W11836  25.802  43.884   2.124
46852W        W11837  20.847   6.744  12.887
46853W        W11838  20.922   7.055   2.549
46854W        W11839  20.233  29.182  14.699
46855W        W11840  36.403  13.355  14.375
46856W        W11841   2.634  33.987  10.680
46857W        W11842  36.612   4.682  11.820
46858W        W11843  32.049  38.834  11.393
46859W        W11844  17.768  16.293  14.740
46860W        W11845  20.247  13.241  11.082
46861W        W11846  27.751  37.586   4.770
46862W        W11847  43.757  36.921   2.304
46863W        W11848  13.525   4.186   0.261
46864W        W11849  28.257  40.877  10.526
46865W        W11850  16.610   7.110   3.683
46866W        W11851   7.270  16.584  11.933
46867W        W11852  43.500  43.902   2.190
46868W        W11853   7.383  16.143   3.859
46869W        W11854  34.371   7.962  13.947
46870W        W11855   0.988  10.958  11.056
46871W        W11856  23.382   9.089  12.409
46872W        W11857  33.808  17.626   4.176
46873W        W11858  23.154  23.702   3.211
46874W        W11859  11.802  33.585  14.999
46875W        W11860   5.832  30.116   3.404
46876W        W11861   1.260   8.363   3.274
46877W        W11862  43.277  29.637   3.270
46878W        W11863  32.177   6.986   0.947
46879W        W11864  41.691  13.261  11.134
46880W        W11865  28.574  19.798  13.292
46881W        W11866  29.975  38.350  12.967
46882W        W11867  40.213  37.353  11.037
46883W        W11868  26.663  19.051   3.680
46884W        W11869  41.276  24.506  13.992
46885W        W11870  36.118  24.955   4.680
46886W        W11871  10.112  22.309  11.483
46887W        W11872   8.836  42.433   1.371
46888W        W11873  42.064   7.014  14.785
46889W        W11874  37.811  37.006  13.006
46890W        W11875  42.334  35.925  10.249
46891W        W11876  38.996   6.588  12.436
46892W        W11877  41.280   7.293   1.671
46893W        W11878  13.223  19.195   3.737
46894W        W11879   2.332  18.605   3.931
46895W        W11880  26.515  44.089  11.124
46896W        W11881  40.002  13.279   2.579
46897W        W11882  31.843  26.565   5.202
46898W        W11883  40.146  27.476   4.134
46899W        W11884  38.432  35.193  12.303
46900W        W11885  17.518  34.614   0.606
46901W        W11886  41.928   4.892  13.903
46902W        W11887  24.075  12.102   4.626
46903W        W11888  22.675   1.277  13.902
46904W        W11889  22.759  28.464  12.925
46905W        W11890  21.806  11.047   2.337
46906W        W11891  38.376  37.643  14.309
46907W        W11892  40.083  32.976  13.978
46908W        W11893  32.773  28.933   0.398
46909W        W11894  21.696  22.222   3.558
46910W        W11895  39.806   6.578  14.377
46911W        W11896  22.690  12.639   3.605
46912W        W11897  19.286  12.700   3.833
46913W        W11898  34.401  34.490  10.737
46914W        W11899  40.376  19.577   2.430
46915W        W11900  40.568   8.093  10.648
46916W        W11901   1.778  33.990   1.231
46917W        W11902  18.285  44.581  11.598
46918W        W11903  32.086  10.803   5.961
46919W        W11904   3.396  16.565  11.192
46920W        W11905  38.064  34.951   5.084
46921W        W11906  40.971  21.802  13.866
46922W        W11907  39.599  10.791  13.227
46923W        W11908  35.603  33.444  11.846
46924W        W11909  15.071   3.181  13.082
46925W        W11910  20.779   9.146   2.867
46926W        W11911  40.007  43.861   4.576
46927W        W11912   0.953   7.467   0.346
46928W        W11913  22.985  24.456  11.487
46929W        W11914  35.476   5.245   0.755
46930W        W11915  42.429  36.881  14.545
46931W        W11916  31.454  21.066  13.812
46932W        W11917  15.213  10.381   2.749
46933W        W11918  19.596  27.035  13.093
46934W        W11919  20.361  10.297  11.085
46935W        W11920  16.178  19.116   0.914
46936W        W11921  32.008   6.863   1.841
46937W        W11922  31.618  13.523  13.377
46938W        W11923  20.112  42.572  12.964
46939W        W11924   4.906  39.022  13.020
46940W        W11925   5.490  14.651  14.209
46941W        W11926  10.399  12.657  12.808
46942W        W11927   7.196  14.756  12.099
46943W        W11928  24.182   4.863   2.627
46944W        W11929  43.550   5.909   3.135
46945W        W11930   2.373  23.466  12.516
46946W        W11931  31.014  43.374  14.449
46947W        W11932  29.831   9.949   3.310
46948W        W11933   4.235  27.436  11.692
46949W        W11934   7.260  26.435  10.214
46950W        W11935  27.139  42.213  12.956
46951W        W11936   5.210  31.063  12.168
46952W        W11937  37.455  13.699  14.698
46953W        W11938  22.984  10.759   1.687
46954W        W11939  44.097  33.003  12.452
46955W        W11940  10.925  29.859  11.856
46956W        W11941   0.798  28.322  13.860
46957W        W11942  44.304  23.580  12.083
46958W        W11943   7.511   1.697  11.897
46959W        W11944  24.157   4.736   4.005
46960W        W11945   1.006  11.297  13.979
46961W        W11946  29.765   0.786   4.149
46962W        W11947  17.481   2.798   4.192
46963W        W11948  15.901  34.620  13.542
46964W        W11949  14.094  14.963   4.156
46965W        W11950  12.851  36.345   3.692
46966W        W11951  27.087  37.036   4.679
46967W        W11952  25.024  21.606   3.584
46968W        W11953  10.828  21.219  13.373
46969W        W11954  33.621  38.057  11.128
46970W        W11955   8.210   3.935   2.321
46971W        W11956  23.208  12.312   0.014
46972W        W11957   8.234   0.364   0.046
46973W        W11958  43.496  25.663  14.374
46974W        W11959  33.378  20.772   0.871
46975W        W11960  21.240  39.409   0.627
46976W        W11961  27.168  28.006   3.656
46977W        W11962  35.728  13.460  13.914
46978W        W11963  25.672   2.351  12.440
46979W        W11964  42.938  12.955   2.369
46980W        W11965  16.709   1.416   2.337
46981W        W11966  15.878  25.605   4.089
46982W        W11967  30.047  34.266   4.316
46983W        W11968  12.602  25.532   4.350
46984W        W11969  44.975  44.953   2.111
46985W        W11970   4.331  25.743   1.701
46986W        W11971  44.957  28.404  11.754
46987W        W11972   3.189  38.392  14.007
46988W        W11973  29.574  20.703   2.169
46989W        W11974  10.113  30.940  11.480
46990W        W11975  26.697  25.576  13.740
46991W        W11976  42.463  30.050  14.823
46992W        W11977  41.690  23.723  11.713
46993W        W11978  20.475  28.028   1.801
46994W        W11979  39.434   6.372  14.689
46995W        W11980  25.595  22.818   4.151
46996W        W11981  35.931  19.131   3.421
46997W        W11982  20.727  38.005  10.531
46998W        W11983  27.644  17.603  11.329
46999W        W11984  11.342  14.527   2.035
47000W        W11985  30.913  22.126   3.279
47001W        W11986   2.210  28.384  13.602
47002W        W11987  42.415  38.284   3.795
47003W        W11988  21.594   1.419   3.834
47004W        W11989  26.490   2.324  12.899
47005W        W11990  18.550   0.882  11.678
47006W        W11991  28.585  38.761   2.183
47007W        W11992  27.933  42.425   4.083
47008W        W11993  37.266  20.950   2.134
47009W        W11994  15.326   0.968   1.911
47010W        W11995  23.644  14.398  14.471
47011W        W11996  33.792   2.452   3.711
47012W        W11997  13.840   8.314  12.953
47013W        W11998  22.493   1.841  10.861
47014W        W11999  11.214   8.372  14.277
47015W        W12000  23.922  10.265   2.395
47016W        W12001  15.699  17.183  11.755
47017W        W12002  25.988  34.461  12.731
47018W        W12003  43.396  37.450   4.223
47019W        W12004  23.998  16.152   1.395
47020W        W12005  15.261  17.506   3.507
47021W        W12006  32.173  19.484   1.923
47022W        W12007   0.542  36.813   2.781
47023W        W12008   3.767  41.812   0.644
47024W        W12009  27.226  20.963   3.262
47025W        W12010  28.292  24.782   2.418
47026W        W12011  33.575  25.092   1.889
47027W        W12012   1.283  30.927  13.084
47028W        W12013   2.961  13.104  11.161
47029W        W12014  40.874   5.731  13.934
47030W        W12015  22.482  42.821  12.400
47031W        W12016   5.254  37.277   2.314
47032W        W12017  27.895  10.812   4.333
47033W        W12018  32.997  16.078   2.154
47034W        W12019  18.714  31.412  12.842
47035W        W12020  32.336   9.235  12.735
47036W        W12021  12.294  17.020   0.744
47037W        W12022  26.390  26.571  13.418
47038W        W12023   9.052  13.809   4.335
47039W        W12024  35.128   3.196  11.546
47040W        W12025   6.201   3.986  12.438
47041W        W12026  32.134  44.549  11.830
47042W        W12027   1.068   4.601  11.111
47043W        W12028  27.531  23.884   2.962
47044W        W12029   6.314  40.972  14.317
47045W        W12030  32.898  14.535   3.201
47046W        W12031  44.967  11.230   3.081
47047W        W12032  13.236  36.788  14.892
47048W        W12033  28.689  43.955   2.669
47049W        W12034  30.669  33.260   4.707
47050W        W12035  17.074  35.580   2.275
47051W        W12036  40.099   1.506  13.878
47052W        W12037  12.901   8.235   1.433
47053W        W12038  21.610  36.386   3.121
47054W        W12039   6.701  27.402  14.075
47055W        W12040  43.368  32.237  13.916
47056W        W12041  41.000  20.496  11.177
47057W        W12042  10.914   9.745   4.278
47058W        W12043  31.008  16.329   1.421
47059W        W12044  44.034  10.880  13.021
47060W        W12045  39.964  14.464   1.205
47061W        W12046   9.899  12.673   2.209
47062W        W12047   7.137   2.368   4.294
47063W        W12048  13.401  28.256  12.942
47064W        W12049  29.446  35.873   1.192
47065W        W12050   3.974  26.014   1.986
47066W        W12051  40.255   6.916  12.876
47067W        W12052  13.552   0.806  10.492
47068W        W12053  26.292  21.194  10.704
47069W        W12054   1.709   1.459   2.798
47070W        W12055  14.077  12.809  12.952
47071W        W12056  17.211  28.721  14.081
47072W        W12057  37.805   7.385  14.802
47073W        W12058  39.239  22.125   4.633
47074W        W12059  30.735  36.574   1.810
47075W        W12060   4.318   0.489  12.870
47076W        W12061  43.816  41.352  11.970
47077W        W12062  33.895  12.214   2.422
47078W        W12063   6.822   1.852   0.757
47079W        W12064  34.363  25.919  14.778
47080W        W12065   8.928  32.556  14.187
47081W        W12066   9.423  32.935  14.205
47082W        W12067  42.801  29.914   3.197
47083W        W12068  23.535   1.056   3.603
47084W        W12069   8.285  25.270   3.402
47085W        W12070  27.867  44.292   4.197
47086W        W12071  44.012  13.556  14.350
47087W        W12072  27.747   7.684  14.929
47088W        W12073  23.570  38.163   2.617
47089W        W12074  10.594  18.010   1.304
47090W        W12075  44.909   6.468   3.688
47091W        W12076  22.037  29.599   2.439
47092W        W12077  38.414  44.971  12.572
47093W        W12078  30.080   7.898   2.883
47094W        W12079  28.027   3.907  12.046
47095W        W12080  33.523  22.703   3.131
47096W        W12081  24.162  18.607   0.343
47097W        W12082   8.451  40.698   0.952
47098W        W12083  40.487  31.180   4.088
47099W        W12084  40.894   3.293   2.615
47100W        W12085  10.588  16.203   2.075
47101W        W12086  31.567  24.318  12.360
47102W        W12087   0.721   4.402   3.238
47103W        W12088  28.514  29.650   0.968
47104W        W12089  18.592  26.989   3.278
47105W        W12090  40.110  37.321   0.691
47106W        W12091  43.724   9.249   4.628
47107W        W12092  43.798  13.561  12.659
47108W        W12093   4.177  24.034  13.401
47109W        W12094  18.617  34.568  14.028
47110W        W12095  30.225   8.272   4.765
47111W        W12096   8.610  17.058  12.882
47112W        W12097   8.636  26.698   2.591
47113W        W12098  11.399   0.870  10.782
47114W        W12099  13.281  29.101   0.860
47115W        W12100  23.051   9.364  13.963
47116W        W12101  38.971  31.346   1.665
47117W        W12102   0.634  15.966  10.257
47118W        W12103  38.392  12.177  12.966
47119W        W12104   6.180  44.767   0.846
47120W        W12105  18.282  35.996  12.152
47121W        W12106  34.924  36.977  11.572
47122W        W12107  35.129  32.075   1.783
47123W        W12108   0.010  35.575  12.868
47124W        W12109  10.137  30.446   2.792
47125W        W12110  18.241  35.505  12.434
47126W        W12111  16.110   4.945   1.338
47127W        W12112  29.495   5.429  10.101
47128W        W12113  12.838  26.519  10.186
47129W        W12114  37.485  22.010  11.528
47130W        W12115  30.191  28.597   4.390
47131W        W12116  20.681  37.552  11.596
47132W        W12117  22.459   5.375  14.510
47133W        W12118  26.551  10.552   3.145
47134W        W12119  24.253  32.016  14.178
47135W        W12120  12.662  35.474  11.053
47136W        W12121  39.159  20.187   3.453
47137W        W12122  37.969  35.996  12.323
47138W        W12123  28.657  33.934   1.360
47139W        W12124  42.258  39.108   5.096
47140W        W12125   5.848  21.567   1.364
47141W        W12126  15.625  43.466  14.055
47142W        W12127   7.910  44.219   2.752
47143W        W12128  17.001  30.238  10.565
47144W        W12129  13.281  43.021  12.571
47145W        W12130  17.349  19.484   5.119
47146W        W12131  33.876  27.581   4.533
47147W        W12132  40.778   8.622   0.364
47148W        W12133  12.684  40.417   3.179
47149W        W12134  44.118  13.230   4.237
47150W        W12135   7.148   0.142   3.579
47151W        W12136  37.979   4.629   1.937
47152W        W12137  11.765  41.812  10.998
47153W        W12138  42.912  12.191  11.305
47154W        W12139  35.008   2.539  12.039
47155W        W12140   1.945  40.711   2.278
47156W        W12141   2.919  40.728  12.656
47157W        W12142  44.881  37.863  14.793
47158W        W12143   5.003  28.637   0.266
47159W        W12144  40.485  19.581   1.901
47160W        W12145  20.137  35.669   0.458
47161W        W12146  35.662  29.596   0.701
47162W        W12147  15.625  20.317  11.080
47163W        W12148  28.725  33.063   3.995
47164W        W12149  10.724  34.315   1.220
47165W        W12150  23.139  38.407   2.811
47166W        W12151  12.807  31.247   0.058
47167W        W12152  33.469  31.116   1.347
47168W        W12153  30.438  36.591  13.182
47169W        W12154  32.344  14.638   3.020
47170W        W12155  19.576  11.643   1.577
47171W        W12156  33.375   7.283   2.704
47172W        W12157   8.345  25.476   2.933
47173W        W12158  15.537  37.939  13.396
47174W        W12159   4.995   9.164   2.742
47175W        W12160  16.086   4.043  11.999
47176W        W12161  40.793   7.116  14.919
47177W        W12162  33.636  29.669  14.266
47178W        W12163  38.411  24.323   2.384
47179W        W12164  19.657  37.507  11.741
47180W        W12165  27.736  16.819  14.485
47181W        W12166  18.736  12.674  12.109
47182W        W12167  11.238  13.811  14.813
47183W        W12168   1.231  13.734  10.646
47184W        W12169  26.170  42.934  12.582
47185W        W12170   5.929  28.589   0.047
47186W        W12171  33.287  25.433  13.783
47187W        W12172  19.487  22.040   2.206
47188W        W12173  34.085  29.481  11.633
47189W        W12174  10.190  36.863  13.875
47190W        W12175  26.371  42.339   4.039
47191W        W12176  26.285  28.675  10.672
47192W        W12177   9.523  31.429  12.108
47193W        W12178  43.306  21.460  11.738
47194W        W12179  20.699  24.727  10.623
47195W        W12180   3.294  42.746  12.621
47196W        W12181  43.392  40.802   1.557
47197W        W12182   1.347  17.799  12.038
47198W        W12183  19.350  30.156  13.542
47199W        W12184  22.945  26.044  11.941
47200W        W12185  19.222  18.352  11.649
47201W        W12186  21.284   0.403  14.408
47202W        W12187   8.767  40.163   2.970
47203W        W12188  29.365  27.508  10.624
47204W        W12189  36.661  18.670   3.805
47205W        W12190  20.182   9.092  12.153
47206W        W12191  14.702   9.830  12.585
47207W        W12192  42.454  15.109  12.972
47208W        W12193  37.114  18.263   3.848
47209W        W12194  27.987  44.042  12.010
47210W        W12195  18.719  31.187  14.331
47211W        W12196  15.547  18.950  11.605
47212W        W12197  13.370  23.683  12.536
47213W        W12198  14.035  32.832   1.624
47214W        W12199  39.805  24.131   2.698
47215W        W12200  26.386  10.393  11.016
47216W        W12201  21.281  34.385  11.881
47217W        W12202  12.719  28.514  11.588
47218W        W12203  37.622   8.309   0.243
47219W        W12204  44.704  12.752   3.153
47220W        W12205   1.461  12.952   2.816
47221W        W12206   8.849  34.504   2.172
47222W        W12207  18.609  27.991   0.508
47223W        W12208   8.890  37.840   3.235
47224W        W12209  26.853   8.811   1.760
47225W        W12210  30.099   6.079  10.479
47226W        W12211  12.223  21.491  11.750
47227W        W12212   1.888  16.196  14.754
47228W        W12213  27.208  35.306  12.104
47229W        W12214  41.555  29.084  10.333
47230W        W12215  29.550  29.495   0.933
47231W        W12216  42.238  23.690  13.050
47232W        W12217  44.402  39.001  14.078
47233W        W12218  31.460   0.459   4.146
47234W        W12219   4.662  17.267   2.839
47235W        W12220  24.650  40.041   0.479
47236W        W12221   5.398  30.442   0.914
47237W        W12222  14.708  43.611   3.518
47238W        W12223  28.343   2.984   4.344
47239W        W12224  22.177  29.532  12.383
47240W        W12225  36.120  44.517   1.847
47241W        W12226  40.353  15.657   2.965
47242W        W12227  27.620  19.847  13.409
47243W        W12228  14.634  29.225   4.022
47244W        W12229  29.372   2.010   5.102
47245W        W12230  29.880  26.624   3.181
47246W        W12231  17.073  12.270   2.444
47247W        W12232  28.974   5.732   1.867
47248W        W12233   9.464  39.005  12.834
47249W        W12234  39.999  18.275   4.203
47250W        W12235  28.242   7.803   0.030
47251W        W12236  35.533   2.490  14.047
47252W        W12237  15.297  33.838  11.850
47253W        W12238  25.778   9.256   3.199
47254W        W12239  30.688  28.086  13.567
47255W        W12240   8.817  18.469   3.336
47256W        W12241   7.856  41.121  13.613
47257W        W12242  43.522  30.047   0.321
47258W        W12243  11.787  37.724   3.605
47259W        W12244  36.749  32.129   3.199
47260W        W12245  17.648  31.282  12.599
47261W        W12246  26.392  17.807   1.607
47262W        W12247   4.189  29.354  14.448
47263W        W12248  23.216   0.351   4.010
47264W        W12249  20.122   6.464   1.398
47265W        W12250  35.446  35.169  11.098
47266W        W12251  10.334  24.253   0.361
47267W        W12252   1.252  31.057  11.225
47268W        W12253  26.194  39.915  13.728
47269W        W12254  27.118  20.242  12.714
47270W        W12255  15.271  23.544   2.821
47271W        W12256  10.440  29.972  11.937
47272W        W12257  43.624  18.841  10.822
47273W        W12258  22.482   2.380   4.732
47274W        W12259  27.100  42.541  10.592
47275W        W12260  35.518   3.676   0.403
47276W        W12261   1.940  12.734   3.701
47277W        W12262  10.271  40.552  13.026
47278W        W12263   4.628   7.206  14.481
47279W        W12264   2.332  19.173  12.621
47280W        W12265  38.065   2.866  13.989
47281W        W12266   9.356  36.606  11.604
47282W        W12267  35.112  18.310   3.319
47283W        W12268  22.968  15.732   2.654
47284W        W12269   4.947  26.019  12.036
47285W        W12270   1.818   2.778  14.959
47286W        W12271  14.919  23.119  13.965
47287W        W12272  42.301  35.129  12.592
47288W        W12273  44.319  39.932   3.202
47289W        W12274  32.981   7.108  12.933
47290W        W12275  39.875  37.532  14.266
47291W        W12276  39.808  25.182   2.940
47292W        W12277   3.320   1.725   2.836
47293W        W12278  44.763  19.855  12.843
47294W        W12279  25.077  16.809  12.882
47295W        W12280   6.464  23.630  14.902
47296W        W12281   2.680   2.083  12.674
47297W        W12282  27.678  19.520  11.253
47298W        W12283  23.691  22.529   0.412
47299W        W12284   1.823  31.884  12.573
47300W        W12285  23.158   6.039   3.683
47301W        W12286   8.802  36.413  14.777
47302W        W12287   8.169  26.574  13.400
47303W        W12288  34.928  34.903  13.383
47304W        W12289  40.608   9.022  14.993
47305W        W12290  32.580  15.751  13.192
47306W        W12291   4.975  23.599   0.951
47307W        W12292   5.151  33.075  14.368
47308W        W12293  38.895  29.142   2.342
47309W        W12294   5.037  32.313  12.839
47310W        W12295  14.569  12.806  14.297
47311W        W12296   0.792  25.150  11.370
47312W        W12297   6.072  29.917   0.140
47313W        W12298  44.327  42.746   2.920
47314W        W12299  25.644  16.738  14.315
47315W        W12300  36.415  27.171  13.586
47316W        W12301  14.688  24.374   2.299
47317W        W12302  22.341  13.273   2.813
47318W        W12303  16.633  19.573  12.355
47319W        W12304   4.396   5.701   1.013
47320W        W12305  39.522  37.450   2.700
47321W        W12306   8.866  19.496   0.387
47322W        W12307   8.616  41.971  12.647
47323W        W12308  43.527  19.604   2.171
47324W        W12309  26.544  32.965   4.966
47325W        W12310  42.519  26.275  13.350
47326W        W12311   6.213  24.392   3.181
47327W        W12312  18.027  34.636   0.462
47328W        W12313  20.777  24.414   1.644
47329W        W12314  12.603  20.893  11.039
47330W        W12315  15.492  11.637  12.500
47331W        W12316  43.531  27.591   0.581
47332W        W12317  12.768  29.507  13.573
47333W        W12318  44.459  14.048  12.997
47334W        W12319  29.220  12.878  14.902
47335W        W12320  23.177  41.446   4.600
47336W        W12321  15.647  14.839   2.177
47337W        W12322  18.843  27.528   0.444
47338W        W12323  24.498   6.113   2.663
47339W        W12324   0.111  34.582  12.964
47340W        W12325   4.187  23.545  10.780
47341W        W12326  29.464   3.193   2.613
47342W        W12327  16.271  21.539  14.173
47343W        W12328  21.623   1.036   1.680
47344W        W12329   3.730   2.964  13.909
47345W        W12330  44.508  28.071  14.450
47346W        W12331  28.145   6.905   4.215
47347W        W12332  15.310   1.861  14.266
47348W        W12333   4.723  32.662  13.784
47349W        W12334  15.489  13.498   5.337
47350W        W12335  44.000  15.797   2.864
47351W        W12336  34.431  29.681   0.647
47352W        W12337   7.534  20.822  14.385
47353W        W12338  32.515  41.098  11.183
47354W        W12339  44.946  43.532  13.309
47355W        W12340  19.566  17.741   2.245
47356W        W12341  20.022   3.283  13.291
47357W        W12342  26.596  28.621   2.831
47358W        W12343  10.711  42.929  14.589
47359W        W12344  19.746  13.802   0.792
47360W        W12345  43.837  36.762  14.034
47361W        W12346  39.564  38.251  14.887
47362W        W12347  28.122   9.465   1.292
47363W        W12348  31.216  17.805  11.643
47364W        W12349  13.703   1.669   0.901
47365W        W12350  44.444  39.524   4.499
47366W        W12351   8.622  21.314   0.923
47367W        W12352  11.029   6.980  10.974
47368W        W12353  31.104  40.820   0.478
47369W        W12354  29.250  39.399  10.588
47370W        W12355  13.958  16.800   4.372
47371W        W12356  28.939  26.045   3.859
47372W        W12357   4.420  23.210   3.805
47373W        W12358   8.579  12.057   3.950
47374W        W12359   7.162  29.994  13.934
47375W        W12360  40.130  42.984  10.427
47376W        W12361  26.751  35.967   5.230
47377W        W12362  40.772  11.711   3.612
47378W        W12363   9.630  33.362  13.323
47379W        W12364   5.323  14.746   3.612
47380W        W12365   5.670  33.046   4.336
47381W        W12366  38.213  39.603   3.217
47382W        W12367  23.435  20.763   4.236
47383W        W12368  36.527  39.796  14.840
47384W        W12369   6.319  43.407  12.026
47385W        W12370  42.472  20.915  11.643
47386W        W12371  15.879  31.242   4.977
47387W        W12372  19.818   6.717   5.016
47388W        W12373  44.859  24.025  10.317
47389W        W12374   7.276  14.337  13.946
47390W        W12375  30.114   6.124   1.594
47391W        W12376   7.079  36.674   0.686
47392W        W12377   7.406  35.383  12.652
47393W        W12378  35.904  40.242  13.950
47394W        W12379  44.027  14.780   4.467
47395W        W12380  26.095  40.864   0.812
47396W        W12381   7.959   6.426   1.955
47397W        W12382  37.852  37.347   3.351
47398W        W12383  37.160  17.060   4.752
47399W        W12384  39.991  16.354  12.068
47400W        W12385  19.171  11.606  13.896
47401W        W12386  43.393  35.963   1.892
47402W        W12387  19.153  37.374   4.223
47403W        W12388  20.347  32.134   2.676
47404W        W12389  38.783   8.852  11.696
47405W        W12390  39.866  12.514  13.367
47406W        W12391  38.935   7.704   0.902
47407W        W12392  16.808  30.454   0.720
47408W        W12393  29.046  15.899   2.934
47409W        W12394  43.416  30.463  13.446
47410W        W12395  19.684  44.475   4.589
47411W        W12396  35.874   8.801  12.244
47412W        W12397  44.463   2.442   3.204
47413W        W12398  12.126  15.128   2.241
47414W        W12399  13.020   8.591   4.094
47415W        W12400   1.552  25.867  11.999
47416W        W12401   0.656   7.741  12.599
47417W        W12402   7.170  20.165   0.879
47418W        W12403  17.796  22.114   3.271
47419W        W12404  19.890  34.950  13.835
47420W        W12405  24.032  41.002   4.738
47421W        W12406   6.149   4.729  14.569
47422W        W12407  23.640   9.778  10.616
47423W        W12408  34.069  26.562  13.915
47424W        W12409  18.198  29.313   4.437
47425W        W12410   0.923  25.632  14.110
47426W        W12411   3.231  21.123  13.891
47427W        W12412   3.103  28.967   0.742
47428W        W12413  43.820  14.094   1.375
47429W        W12414  30.556   1.696   2.221
47430W        W12415   5.397  16.328   4.590
47431W        W12416  27.206  13.380  11.585
47432W        W12417  42.518  44.430   0.552
47433W        W12418   0.825  14.693  11.613
47434W        W12419  42.955   8.924  13.784
47435W        W12420  42.531   1.821  12.199
47436W        W12421  40.317   1.071   3.233
47437W        W12422  24.215  36.576   0.684
47438W        W12423  38.344  37.920   1.441
47439W        W12424  40.778  17.152   2.173
47440W        W12425  27.440  26.904  11.158
47441W        W12426  40.624  43.087   0.008
47442W        W12427  41.499  15.704   0.875
47443W        W12428  13.868   7.009  12.579
47444W        W12429  17.575  26.560  11.355
47445W        W12430  16.950  21.743  12.300
47446W        W12431  39.991  10.840  14.861
47447W        W12432  37.935   9.256  10.564
47448W        W12433  22.130   9.716   2.280
47449W        W12434   1.561   8.787  11.146
47450W        W12435  43.467  12.735   0.448
47451W        W12436  40.586  24.395   2.682
47452W        W12437  13.649   6.543  10.153
47453W        W12438  17.125   9.322  10.893
47454W        W12439  25.950  30.818  14.893
47455W        W12440  20.487  32.553   0.258
47456W        W12441  40.377  20.525   0.257
47457W        W12442  38.584   9.209  12.530
47458W        W12443  16.800   0.284  11.283
47459W        W12444  40.498  28.175  10.953
47460W        W12445   2.270  20.496  12.147
47461W        W12446  44.320  19.232   1.956
47462W        W12447  35.457  12.330  10.172
47463W        W12448  38.316  35.073   4.634
47464W        W12449  23.895  18.613   4.746
47465W        W12450  11.486   1.910   1.770
47466W        W12451  23.253  31.099   4.710
47467W        W12452  37.001  44.490   1.668
47468W        W12453  15.674  15.231  14.170
47469W        W12454  38.985   5.228   4.256
47470W        W12455   2.438  30.386  12.837
47471W        W12456  24.347  31.140   1.380
47472W        W12457  10.233  11.266   0.867
47473W        W12458   2.472  24.079   0.712
47474W        W12459   5.405  33.473   4.072
47475W        W12460  17.560  21.162   3.351
47476W        W12461  27.009  34.636   4.634
47477W        W12462  18.402  15.047   4.897
47478W        W12463  31.704   4.525   4.118
47479W        W12464  13.238  44.314   3.360
47480W        W12465  34.506  33.443  10.556
47481W        W12466  39.451  28.423   3.387
47482W        W12467  23.489  14.781   4.509
47483W        W12468  14.121  32.285   2.902
47484W        W12469  28.975  11.689  11.386
47485W        W12470  28.238  28.501   4.455
47486W        W12471  35.800  44.032   3.116
47487W        W12472  31.464   7.440   0.031
47488W        W12473  26.643   1.451   2.252
47489W        W12474  35.602  41.547  10.892
47490W        W12475  36.661  28.015   4.155
47491W        W12476   5.202  17.981   3.553
47492W        W12477  36.959  22.752   3.777
47493W        W12478  33.955  30.117   1.124
47494W        W12479   4.799   1.885  12.487
47495W        W12480  39.587   6.875   3.672
47496W        W12481   9.345  44.987  13.356
47497W        W12482   5.316   8.769   4.046
47498W        W12483  37.907  20.248   3.720
47499W        W12484  17.611   2.399  12.548
47500W        W12485  26.778   7.939  14.913
47501W        W12486  17.298  35.966   4.475
47502W        W12487  22.762   7.980  11.720
47503W        W12488   6.722  36.657  12.734
47504W        W12489  12.357  22.269   1.801
47505W        W12490   6.226  19.167  11.227
47506W        W12491  43.126   3.454   3.809
47507W        W12492  39.994   7.717   2.260
47508W        W12493  41.370  36.023  13.483
47509W        W12494  14.093  31.512  12.002
47510W        W12495  11.929  27.568   1.836
47511W        W12496   9.240   2.937   3.851
47512W        W12497   7.518  15.214  11.895
47513W        W12498  16.912  32.355  12.103
47514W        W12499  21.708   6.081   1.349
47515W        W12500  28.778  40.771  14.244
47516W        W12501  40.914  30.243  12.201
47517W        W12502  44.397  35.881   4.166
47518W        W12503  12.881  14.617   3.813
47519W        W12504  32.226  19.131  12.960
47520W        W12505  36.647  43.372  13.832
47521W        W12506  23.684   4.731  12.551
47522W        W12507  44.697   6.770  11.653
47523W        W12508  38.841   2.655  14.444
47524W        W12509  13.246   1.284   0.153
47525W        W12510  14.108  20.690   3.955
47526W        W12511  19.744  25.089   1.753
47527W        W12512  15.107   6.437   3.382
47528W        W12513  13.339  18.003   0.769
47529W        W12514  44.506  30.937  13.303
47530W        W12515  12.366   8.774   0.903
47531W        W12516   9.928   5.228  13.891
47532W        W12517  37.901   6.000  10.995
47533W        W12518   0.046  15.927  11.660
47534W        W12519  24.478  29.937   4.225
47535W        W12520  20.782  37.895   4.742
47536W        W12521  25.579  22.517   1.659
47537W        W12522  19.827  11.915  14.006
47538W        W12523  40.251  36.273   1.745
47539W        W12524   6.742  18.523   4.887
47540W        W12525  31.042  40.890   2.854
47541W        W12526  29.861  27.421   3.757
47542W        W12527  24.154  37.506   3.695
47543W        W12528  32.338  31.573   3.669
47544W        W12529  43.763  10.764   4.194
47545W        W12530  10.693   6.799   3.182
47546W        W12531   5.592  11.543  11.428
47547W        W12532  29.191   1.362  11.415
47548W        W12533  10.010  23.667   0.896
47549W        W12534  44.983  25.866   3.150
47550W        W12535   7.975  24.784  12.123
47551W        W12536  13.697  40.804  12.854
47552W        W12537  31.086  43.648   4.660
47553W        W12538  22.230  22.031  13.299
47554W        W12539  13.001  29.118   3.348
47555W        W12540  39.272  42.136  14.872
47556W        W12541  40.694  10.197   0.875
47557W        W12542  20.447  27.573   2.017
47558W        W12543   9.603  17.102   0.265
47559W        W12544  29.410  16.087   1.899
47560W        W12545  36.877   6.656   2.445
47561W        W12546  26.444  34.446   1.273
47562W        W12547  29.101  28.465  14.395
47563W        W12548  14.622  18.665   4.083
47564W        W12549  38.178  22.193   4.664
47565W        W12550   6.392   3.778   1.042
47566W        W12551  42.325   4.823   1.897
47567W        W12552   3.851   1.749  14.521
47568W        W12553   0.220   7.292   0.775
47569W        W12554  28.995  39.243  12.696
47570W        W12555  22.777   0.272  11.426
47571W        W12556  22.188  21.458   2.639
47572W        W12557  25.084  23.581  12.069
47573W        W12558   6.108  39.858  13.328
47574W        W12559  27.764  12.121   3.757
47575W        W12560  13.487  25.151  11.093
47576W        W12561   2.751  43.295  11.571
47577W        W12562   4.916  11.414   0.019
47578W        W12563  32.484  22.537  11.983
47579W        W12564  24.036   7.359  13.430
47580W        W12565  21.715   9.283   0.330
47581W        W12566  43.968  26.442   0.984
47582W        W12567  34.553  12.573   0.294
47583W        W12568  15.747  17.761  12.621
47584W        W12569   4.513  32.450   3.441
47585W        W12570  41.985  41.064   1.132
47586W        W12571  21.500  33.104   3.095
47587W        W12572  33.439  12.238   5.012
47588W        W12573  17.063  37.501  12.523
47589W        W12574  37.896  20.894  13.532
47590W        W12575  12.865  37.949   0.917
47591W        W12576  33.320  15.604   3.667
47592W        W12577  24.961   7.752   1.293
47593W        W12578  41.448  34.672  13.442
47594W        W12579  33.776  30.478   0.807
47595W        W12580   2.976  33.012   1.218
47596W        W12581  33.079   5.184  11.648
47597W        W12582  41.920  40.028   4.826
47598W        W12583  36.005   6.996  13.841
47599W        W12584   6.466  12.708  13.049
47600W        W12585  43.267   8.765   1.906
47601W        W12586  16.580  24.885   5.294
47602W        W12587   3.442  43.396   1.267
47603W        W12588  21.990  25.396  10.615
47604W        W12589  18.241  37.073  13.972
47605W        W12590  37.487  26.861   2.896
47606W        W12591   3.199  32.210   0.701
47607W        W12592  33.591  23.712   4.532
47608W        W12593  39.798  28.606  14.799
47609W        W12594  28.657  15.309  11.253
47610W        W12595  15.215  26.614  12.928
47611W        W12596  31.033  32.857   0.296
47612W        W12597  26.692  17.235   4.354
47613W        W12598  28.980  34.845   1.337
47614W        W12599   4.679   4.699  11.672
47615W        W12600  34.376  36.083   0.093
47616W        W12601  19.213  17.186  13.361
47617W        W12602  21.255  28.638  11.196
47618W        W12603  16.293  11.149   2.335
47619W        W12604  14.702  22.950  11.176
47620W        W12605  22.423  36.881  12.500
47621W        W12606  29.829  41.431   0.190
47622W        W12607   4.214   4.285  13.358
47623W        W12608  30.088  33.123  13.483
47624W        W12609  36.094  40.134   0.431
47625W        W12610  15.916  20.049  14.570
47626W        W12611  17.177  15.836  14.576
47627W        W12612  12.441  23.181   3.730
47628W        W12613  42.490   0.963  11.614
47629W        W12614  12.652  35.282   1.327
47630W        W12615   3.332  31.470   4.956
47631W        W12616  31.002  39.278   4.157
47632W        W12617  10.874  39.689  11.387
47633W        W12618   8.103   6.148   0.953
47634W        W12619  30.841  11.110  10.243
47635W        W12620   4.304  43.409   0.730
47636W        W12621  43.760  25.194  14.383
47637W        W12622  38.069  17.286  14.441
47638W        W12623  17.261   8.237  13.976
47639W        W12624  15.346  30.924  12.390
47640W        W12625  41.571  43.201   3.662
47641W        W12626  39.073  16.101  10.635
47642W        W12627  10.160   8.796  12.156
47643W        W12628  31.286  41.326   0.440
47644W        W12629  22.687  33.053  12.527
47645W        W12630  21.039  12.624  14.329
47646W        W12631  43.444  21.070  11.427
47647W        W12632  21.577  30.086   3.906
47648W        W12633  24.590  15.053   0.563
47649W        W12634  37.300  15.733   3.668
47650W        W12635  35.851  27.029   4.451
47651W        W12636  39.803  40.316  14.301
47652W        W12637  13.444  15.142  11.724
47653W        W12638  26.080  44.779   2.239
47654W        W12639  23.477  11.252   3.086
47655W        W12640   3.198   7.693  11.639
47656W        W12641  43.925  32.725   3.959
47657W        W12642  25.293  28.981   4.544
47658W        W12643  17.583   1.003   1.701
47659W        W12644  35.834  17.376  11.096
47660W        W12645  35.063  16.553  11.896
47661W        W12646   1.216  29.501  11.771
47662W        W12647   4.250  28.931   0.879
47663W        W12648  39.278  10.738  11.776
47664W        W12649  29.521  28.666   3.198
47665W        W12650  43.318  39.753  13.220
47666W        W12651  37.069   5.800   2.287
47667W        W12652  10.628   6.200   1.326
47668W        W12653  27.233  39.980   2.750
47669W        W12654   7.951  14.995  12.052
47670W        W12655  13.363  20.110   0.195
47671W        W12656  38.613  26.534   2.306
47672W        W12657  25.289  15.091   2.287
47673W        W12658  18.734   6.233  13.428
47674W        W12659  34.838  11.813   4.290
47675W        W12660  41.911  43.898   3.932
47676W        W12661   7.913  26.137   3.732
47677W        W12662  32.424   9.790   2.237
47678W        W12663  22.863  18.781  12.595
47679W        W12664   9.811  14.274   2.664
47680W        W12665   5.640  15.094  14.482
47681W        W12666   2.326  32.602  13.012
47682W        W12667  30.920   2.071   5.070
47683W        W12668  10.788  41.591   3.137
47684W        W12669  30.611   8.060  12.129
47685W        W12670  14.930   0.358  14.310
47686W        W12671  38.473  25.135   0.883
47687W        W12672  26.238  40.050  10.812
47688W        W12673   5.163   7.263   3.177
47689W        W12674  41.867  21.127  14.395
47690W        W12675  15.345   2.261  13.557
47691W        W12676  11.866  13.907   1.878
47692W        W12677  26.586  44.876   9.736
47693W        W12678  32.855  25.471   0.775
47694W        W12679  12.589  32.432   4.133
47695W        W12680  20.284  10.701  10.752
47696W        W12681  28.012   5.122  10.720
47697W        W12682   9.745   0.464   1.167
47698W        W12683  22.120  30.587   4.230
47699W        W12684  39.981   1.006  13.750
47700W        W12685  23.714  12.619  13.879
47701W        W12686  41.819  10.977  14.073
47702W        W12687  41.474  31.432  11.593
47703W        W12688   7.703   4.922  13.151
47704W        W12689  42.529  36.345  10.000
47705W        W12690  35.783  38.838   3.805
47706W        W12691  30.153   1.504  14.441
47707W        W12692  10.730  22.191   1.440
47708W        W12693  36.823  41.013  10.796
47709W        W12694  26.769   4.942  13.404
47710W        W12695  28.228  10.748  14.999
47711W        W12696  22.742   0.665  10.359
47712W        W12697   3.870  43.854  12.519
47713W        W12698  25.591  36.867  13.385
47714W        W12699  28.474   7.253   0.885
47715W        W12700   7.155  27.929  12.118
47716W        W12701  35.874  23.267  14.856
47717W        W12702  14.831  44.557   1.399
47718W        W12703  44.261  39.105  11.976
47719W        W12704  17.613  27.026   4.592
47720W        W12705  31.392   8.287  12.682
47721W        W12706   9.476  40.462   3.413
47722W        W12707  41.114  38.480  13.861
47723W        W12708  37.735   5.372   1.283
47724W        W12709  18.546  14.277   3.223
47725W        W12710  38.579  35.586   1.207
47726W        W12711  21.502  39.603  12.586
47727W        W12712  18.759  17.277  14.599
47728W        W12713   5.575  31.259  11.889
47729W        W12714  26.014  44.320   3.363
47730W        W12715   7.236   8.933   2.434
47731W        W12716   8.386  10.260   5.001
47732W        W12717   5.420  10.893   0.790
47733W        W12718  26.963  28.020   0.849
47734W        W12719  19.272   7.451  14.537
47735W        W12720  27.950   0.452   1.364
47736W        W12721  11.000  35.529   1.917
47737W        W12722  43.403  13.535   4.879
47738W        W12723   3.228  25.102  10.308
47739W        W12724  36.957  19.080  13.607
47740W        W12725  21.286  14.117  12.362
47741W        W12726  22.248  19.981  10.549
47742W        W12727  13.711   1.955   1.900
47743W        W12728  15.348  11.914   4.723
47744W        W12729  16.347  35.301   1.475
47745W        W12730   1.510  44.533   1.067
47746W        W12731   0.853  31.275   3.287
47747W        W12732  18.075  18.597   4.322
47748W        W12733  38.541  24.608   4.548
47749W        W12734   5.233  29.893  13.103
47750W        W12735  31.452  30.025   1.303
47751W        W12736  16.599  12.795  11.135
47752W        W12737  27.900   6.167   0.248
47753W        W12738  25.659  22.243   0.214
47754W        W12739   2.019   8.743  14.666
47755W        W12740  30.683   4.317  14.328
47756W        W12741  32.968   0.850   0.721
47757W        W12742  12.731  32.837   4.401
47758W        W12743  11.783  37.791   4.533
47759W        W12744  13.548  24.005   3.617
47760W        W12745  30.776  32.664  12.829
47761W        W12746  33.450   7.074  14.704
47762W        W12747  31.589   3.895  14.701
47763W        W12748  21.984  41.770  11.834
47764W        W12749  17.573   1.395   4.252
47765W        W12750  18.565   7.807   0.456
47766W        W12751   8.435   8.012  10.297
47767W        W12752  34.868  34.698  14.752
47768W        W12753  44.357  10.105   0.279
47769W        W12754  35.055  37.183  14.252
47770W        W12755  30.997  28.400  11.141
47771W        W12756  18.108   0.974   1.601
47772W        W12757  26.451  32.470   2.714
47773W        W12758  30.460  36.339   0.891
47774W        W12759   8.924  42.413  12.536
47775W        W12760  21.392   5.982   0.926
47776W        W12761  44.755  17.811  10.235
47777W        W12762   3.800   6.623   3.652
47778W        W12763  35.590  41.347   1.855
47779W        W12764   7.220  35.403  12.181
47780W        W12765   8.875  21.783  11.208
47781W        W12766  28.851   9.022   2.106
47782W        W12767  35.647  24.220  12.410
47783W        W12768  37.780  36.817   1.767
47784W        W12769  26.249   0.537  10.250
47785W        W12770  27.295  42.902  12.505
47786W        W12771  44.437  14.668  13.673
47787W        W12772  38.643   3.803   0.387
47788W        W12773  36.080  23.069   0.401
47789W        W12774  35.873   8.221   1.562
47790W        W12775   9.330   6.462   2.673
47791W        W12776   0.011  31.026   4.427
47792W        W12777  17.992   2.859   3.406
47793W        W12778  30.402   1.993  11.610
47794W        W12779  13.868  41.007  14.954
47795W        W12780  11.888  41.480   0.463
47796W        W12781  37.834  12.519   4.102
47797W        W12782   2.216  28.936   4.168
47798W        W12783  22.050  41.598   1.838
47799W        W12784   2.889  27.611   4.123
47800W        W12785  22.581  35.115   3.446
47801W        W12786  22.885  42.271  13.368
47802W        W12787   8.310   1.356  10.600
47803W        W12788  26.573  43.722   3.280
47804W        W12789  36.885  24.608   3.735
47805W        W12790  36.395  41.537   3.149
47806W        W12791  36.871  43.464   4.229
47807W        W12792  10.226  19.060  11.564
47808W        W12793  15.555  10.588   5.011
47809W        W12794  11.277   1.912   3.209
47810W        W12795  41.068  28.681  12.065
47811W        W12796  30.080  21.304   3.832
47812W        W12797   8.811  27.632  11.126
47813W        W12798  27.986   6.900   5.123
47814W        W12799  18.226  40.364  11.018
47815W        W12800  25.290  33.932   2.375
47816W        W12801  14.326  29.637   4.197
47817W        W12802  31.986  39.446  12.134
47818W        W12803  27.000  16.095   1.391
47819W        W12804  43.546  39.296  13.338
47820W        W12805  35.112  18.234  11.092
47821W        W12806  27.022   1.814   0.288
47822W        W12807   9.303  20.296   4.282
47823W        W12808  20.573   0.832  14.866
47824W        W12809  40.142  39.416   5.049
47825W        W12810  27.852   3.823   2.898
47826W        W12811  43.529  24.987  13.028
47827W        W12812   4.969  20.123   3.219
47828W        W12813  13.457   6.274   4.513
47829W        W12814  23.497   7.644   2.362
47830W        W12815  12.527  29.561  14.018
47831W        W12816   4.381  11.633  13.825
47832W        W12817  19.243  34.351   3.278
47833W        W12818  17.599  31.194  11.439
47834W        W12819  33.738  44.833  14.211
47835W        W12820  19.672  38.108  13.139
47836W        W12821  12.333  16.034   0.574
47837W        W12822  29.883  26.024  11.665
47838W        W12823   9.757  12.695  10.750
47839W        W12824  33.434   6.267  10.384
47840W        W12825  28.649  18.363   4.587
47841W        W12826  44.904  29.875   0.216
47842W        W12827  37.363   9.219   2.763
47843W        W12828  44.803  32.341   0.815
47844W        W12829  40.305  34.363   1.356
47845W        W12830  30.162  11.183   3.731
47846W        W12831  26.054  15.136   3.094
47847W        W12832  41.814  15.506   4.154
47848W        W12833  36.465  23.013   2.836
47849W        W12834  19.601  11.036   4.034
47850W        W12835  13.346   9.200   1.677
47851W        W12836  30.052   5.217  10.424
47852W        W12837  30.927  37.554   4.420
47853W        W12838   8.617  36.101  10.732
47854W        W12839  43.343  37.795  14.488
47855W        W12840  19.567   7.884  13.836
47856W        W12841  24.957  37.540  14.776
47857W        W12842  28.645  28.831  11.137
47858W        W12843   7.356  18.076   2.286
47859W        W12844   0.490  24.227  11.153
47860W        W12845  16.784  10.421  12.069
47861W        W12846  34.243   6.884  11.167
47862W        W12847  32.896   0.331  12.764
47863W        W12848  43.531  41.536  14.041
47864W        W12849  33.417  14.161  10.732
47865W        W12850  19.693  11.425  13.916
47866W        W12851   0.938  15.227  11.075
47867W        W12852  11.423  26.011   1.713
47868W        W12853  29.727  24.397  12.369
47869W        W12854  18.437  30.988   3.156
47870W        W12855   4.899  40.766  12.580
47871W        W12856  39.132  33.610  10.361
47872W        W12857   6.520  13.924   2.710
47873W        W12858  27.676  10.907   1.383
47874W        W12859  19.386  25.329   2.119
47875W        W12860  23.296   4.477   2.064
47876W        W12861  10.819  17.658   3.571
47877W        W12862  44.160  10.159   4.718
47878W        W12863  18.855  20.152  13.796
47879W        W12864   1.467  20.403   3.526
47880W        W12865  19.064  38.436   4.960
47881W        W12866  38.052  23.522   0.345
47882W        W12867  34.840  39.456   4.771
47883W        W12868  41.617   4.147   3.608
47884W        W12869  15.797  34.487   4.136
47885W        W12870  19.369  28.373  10.546
47886W        W12871  16.305  15.915   1.849
47887W        W12872   1.697  29.480  14.440
47888W        W12873  25.109  41.999   1.644
47889W        W12874  28.262  44.311   1.902
47890W        W12875  15.017  32.252   2.330
47891W        W12876  36.131  14.071   2.096
47892W        W12877  31.491  43.516  14.796
47893W        W12878  30.528   4.455  10.919
47894W        W12879  37.074  31.064   0.405
47895W        W12880   8.493  26.578   4.094
47896W        W12881  15.944  12.782  12.276
47897W        W12882  44.558  23.028  12.779
47898W        W12883  14.711  29.279   2.733
47899W        W12884  14.267  27.592   2.344
47900W        W12885  11.123  22.708  13.010
47901W        W12886  31.089  26.656  11.667
47902W        W12887  23.718  15.046  14.075
47903W        W12888   4.433  25.748  10.834
47904W        W12889  44.776   6.929   1.853
47905W        W12890  17.018  41.045  14.416
47906W        W12891  20.099  29.031   0.661
47907W        W12892  27.069  19.621   3.584
47908W        W12893  17.607  17.659  13.417
47909W        W12894   9.615  26.630  13.848
47910W        W12895   3.808  27.662  11.879
47911W        W12896  25.258  10.822  10.936
47912W        W12897  44.263  30.937   1.045
47913W        W12898  43.401  12.292  11.154
47914W        W12899  29.122  37.212  13.672
47915W        W12900  22.660  12.018   2.297
47916W        W12901   6.282   8.361  13.948
47917W        W12902   4.144   1.818   4.142
47918W        W12903  20.178  22.223  12.942
47919W        W12904  27.030  35.291   0.801
47920W        W12905  22.645   8.998  13.977
47921W        W12906   7.264  20.304   3.711
47922W        W12907  27.244  42.295   2.246
47923W        W12908  23.068  24.944  11.630
47924W        W12909   1.519  10.174   1.447
47925W        W12910   2.616  22.950   1.452
47926W        W12911   0.277  27.350   0.940
47927W        W12912   9.280  16.717   4.198
47928W        W12913   8.251  29.206  14.965
47929W        W12914  32.655  12.254   1.757
47930W        W12915   9.827  37.291  11.130
47931W        W12916  30.007   8.139   0.051
47932W        W12917  41.257  26.200   2.042
47933W        W12918   8.190  17.156  14.470
47934W        W12919  36.490   9.588   5.065
47935W        W12920  40.229  21.405   1.844
47936W        W12921   1.831  38.263   3.352
47937W        W12922  18.806  24.703   1.803
47938W        W12923  21.818   3.649  14.956
47939W        W12924  24.162   2.196  14.339
47940W        W12925  13.199  21.255  13.460
47941W        W12926  31.991  43.481  14.972
47942W        W12927  25.007  16.841   2.874
47943W        W12928  17.835  39.246  10.644
47944W        W12929   7.733   6.124   1.577
47945W        W12930   8.079  21.539   2.783
47946W        W12931  34.912  40.249  12.089
47947W        W12932   7.617   1.664   4.108
47948W        W12933  32.896  31.979   1.244
47949W        W12934  30.170  30.630  11.653
47950W        W12935  28.626   0.478  12.859
47951W        W12936   7.748  24.061  11.546
47952W        W12937  17.607   9.615  12.111
47953W        W12938  35.430  25.547   4.071
47954W        W12939   6.626  20.763   4.199
47955W        W12940  12.299  27.763  14.402
47956W        W12941  29.965  10.289   4.069
47957W        W12942   5.621  11.208   4.719
47958W        W12943  25.886  34.901  12.140
47959W        W12944  19.766  21.690   0.479
47960W        W12945  43.947  12.791   2.262
47961W        W12946  17.682  23.987  11.985
47962W        W12947   2.828  21.775   4.523
47963W        W12948  40.195  10.231   0.837
47964W        W12949  28.158  38.913  11.848
47965W        W12950   3.938  39.590  14.731
47966W        W12951  22.558  22.660  14.944
47967W        W12952  17.000  41.331  13.944
47968W        W12953  39.760  44.173  10.693
47969W        W12954  43.868  38.195  13.989
47970W        W12955  40.584  11.292  14.157
47971W        W12956  27.730   2.920  12.075
47972W        W12957  22.339  41.916   0.718
47973W        W12958   8.798  18.027   1.471
47974W        W12959   4.755   5.562  11.959
47975W        W12960  41.904  30.057   3.761
47976W        W12961  26.823   4.636  14.255
47977W        W12962   2.872  34.273  12.659
47978W        W12963  33.427  16.214  12.245
47979W        W12964  12.241   1.230   0.584
47980W        W12965  36.826  19.153   1.815
47981W        W12966  15.884  42.571   0.913
47982W        W12967  19.643  31.556   4.766
47983W        W12968   4.267  43.701  11.175
47984W        W12969   7.924   1.446   3.142
47985W        W12970  39.771  38.419  13.916
47986W        W12971  20.693  42.557   4.839
47987W        W12972  19.189  15.597  13.320
47988W        W12973  42.303   2.712  13.482
47989W        W12974   8.178  42.162  12.923
47990W        W12975  20.554   4.274   3.224
47991W        W12976  31.989  16.381   3.598
47992W        W12977  13.392  12.659  13.968
47993W        W12978  17.373   0.275  11.993
47994W        W12979  39.321  19.146   1.755
47995W        W12980   1.932   0.300   0.104
47996W        W12981  43.199  35.742   3.490
47997W        W12982  35.938  41.434  12.144
47998W        W12983  34.462  40.421   4.731
47999W        W12984  36.236  31.936  10.604
48000W        W12985  32.516  13.051  13.866
48001W        W12986  13.662  18.385  13.359
48002W        W12987  40.838  39.461  13.640
48003W        W12988  26.357  29.240   0.319
48004W        W12989  13.671   6.379  12.887
48005W        W12990   4.337  34.529   2.397
48006W        W12991  35.209  39.713   3.570
48007W        W12992   7.002  12.045  12.970
48008W        W12993  22.110  26.732  10.942
48009W        W12994  30.983  16.820   1.623
48010W        W12995  36.158   7.936   2.685
48011W        W12996  33.144   1.858  14.134
48012W        W12997  28.217  22.305  12.632
48013W        W12998  23.490  37.203   1.533
48014W        W12999   4.983  26.215  14.454
48015W        W13000  32.870  29.425  13.738
48016W        W13001  10.317  31.738   0.830
48017W        W13002  36.666  38.587  13.547
48018W        W13003  23.072   0.859   1.364
48019W        W13004   9.465  15.732   3.609
48020W        W13005  20.711  12.304   2.806
48021W        W13006  30.257  15.749  14.302
48022W        W13007  14.937   0.763   9.696
48023W        W13008  19.666   7.752   4.104
48024W        W13009  11.887  27.376   0.958
48025W        W13010   7.220  31.005  12.469
48026W        W13011  35.074  17.362  14.044
48027W        W13012  32.941   4.523   3.334
48028W        W13013  32.629  32.688  10.475
48029W        W13014  41.386   2.243  13.499
48030W        W13015  35.469  12.807  12.076
48031W        W13016  27.400  11.446   1.362
48032W        W13017   7.048  35.298   4.124
48033W        W13018  18.825  29.975   2.763
48034W        W13019  20.232  23.532   3.666
48035W        W13020  39.818  17.197   0.273
48036W        W13021  10.755  14.262  14.140
48037W        W13022  32.376  27.760   1.961
48038W        W13023  40.498  39.628   0.091
48039W        W13024  12.600  26.975  10.231
48040W        W13025  31.469   7.298  10.366
48041W        W13026  27.184  27.981  11.199
48042W        W13027  17.220   2.055  10.590
48043W        W13028   9.201  26.596   4.872
48044W        W13029  39.658  43.354  14.952
48045W        W13030  41.157  14.812   5.126
48046W        W13031   6.070  11.739   1.912
48047W        W13032  24.062  35.311   0.182
48048W        W13033   5.878  20.830   0.335
48049W        W13034   9.794  30.622  14.259
48050W        W13035  12.393  13.808   1.461
48051W        W13036  23.168  39.604   5.001
48052W        W13037  21.000  23.634   2.285
48053W        W13038   3.059   3.961   3.204
48054W        W13039  26.685   1.007  11.551
48055W        W13040  39.160  17.512   0.282
48056W        W13041  35.826  40.878  10.396
48057W        W13042  29.532  30.680   2.233
48058W        W13043  43.735  40.459   3.570
48059W        W13044  22.769   5.778  10.810
48060W        W13045   1.366  31.654  12.524
48061W        W13046  41.425  15.227   5.104
48062W        W13047  28.607  40.097   3.687
48063W        W13048  26.841  26.871  11.162
48064W        W13049   1.376   8.378  14.017
48065W        W13050  11.081  29.431   0.162
48066W        W13051  35.951   9.907   1.863
48067W        W13052  17.042  27.944  14.363
48068W        W13053  18.572  27.483  13.922
48069W        W13054  21.663  38.380   1.524
48070W        W13055  32.893   7.953   1.361
48071W        W13056  44.758  35.083  11.078
48072W        W13057   7.958  40.319  13.500
48073W        W13058  23.620  18.758   1.178
48074W        W13059  14.539   4.131   3.111
48075W        W13060   7.108  33.145  11.115
48076W        W13061  28.650  29.317  10.970
48077W        W13062  29.906  30.219   2.559
48078W        W13063   5.664  21.089  11.532
48079W        W13064  42.973  42.573   3.116
48080W        W13065  19.520  20.154   4.081
48081W        W13066   7.971   5.876  12.017
48082W        W13067  32.145  39.979   1.145
48083W        W13068  32.986   3.719  10.719
48084W        W13069  44.149  30.481  14.467
48085W        W13070   3.047  24.074   4.503
48086W        W13071  18.995  23.660   5.021
48087W        W13072  32.990  37.353  11.253
48088W        W13073  43.561  35.000   2.843
48089W        W13074   9.358  26.052  12.654
48090W        W13075  43.380  42.002   1.872
48091W        W13076  32.981  27.427   4.587
48092W        W13077  27.538  33.152   4.386
48093W        W13078  13.323   9.044  12.370
48094W        W13079  11.663   0.480   2.648
48095W        W13080  12.298  21.035  13.290
48096W        W13081  41.045  39.454  14.527
48097W        W13082   0.992   2.932  13.365
48098W        W13083  41.595  29.964  14.493
48099W        W13084  15.089   5.304  12.109
48100W        W13085  43.323   7.648  12.417
48101W        W13086  20.380  14.419   2.668
48102W        W13087  39.279  29.506   3.814
48103W        W13088  34.868  14.591   1.274
48104W        W13089   8.208   0.825  14.477
48105W        W13090  14.058  32.483  12.441
48106W        W13091  26.523  39.318   4.099
48107W        W13092  29.301  10.723   3.775
48108W        W13093   5.795   1.172   1.601
48109W        W13094  34.949  33.900  11.104
48110W        W13095  25.021  27.347   0.304
48111W        W13096  24.594  21.063   3.232
48112W        W13097  34.451  33.639   2.583
48113W        W13098  25.781   0.002  14.477
48114W        W13099  42.044   9.266   1.086
48115W        W13100  38.978  15.643   1.810
48116W        W13101   7.878  11.836   2.333
48117W        W13102   6.950  23.601   3.973
48118W        W13103  40.472  41.268  13.493
48119W        W13104  38.950  22.353  10.521
48120W        W13105   5.024  43.894   3.874
48121W        W13106  34.106  37.267   0.928
48122W        W13107  35.297  25.194   2.286
48123W        W13108   5.963  32.515  10.685
48124W        W13109  10.744  34.757  12.044
48125W        W13110  28.644  39.262  13.486
48126W        W13111  17.531   6.391   3.264
48127W        W13112  28.420  10.043   2.712
48128W        W13113   5.917  13.329  13.497
48129W        W13114  34.514  18.675   3.687
48130W        W13115  23.982  39.875   5.161
48131W        W13116  18.154  17.169   4.267
48132W        W13117  39.399  29.060   2.103
48133W        W13118  44.482   5.826   3.122
48134W        W13119  13.255  24.233  13.542
48135W        W13120  35.818  12.164  10.483
48136W        W13121  32.341  25.438   0.800
48137W        W13122   2.878  34.652  11.984
48138W        W13123   1.994  18.287  12.438
48139W        W13124  23.169  25.518  13.898
48140W        W13125  17.806  15.920   0.496
48141W        W13126  25.154  18.498   4.230
48142W        W13127   2.871  24.302  13.749
48143W        W13128   2.426  40.885  13.508
48144W        W13129   5.264   0.998  14.351
48145W        W13130  21.052  29.019  12.878
48146W        W13131  11.046   6.199   5.137
48147W        W13132  23.705  43.280   0.931
48148W        W13133  32.999  12.028   4.278
48149W        W13134  33.478   4.345  11.816
48150W        W13135   3.324  42.971   0.946
48151W        W13136  26.153   8.493   2.346
48152W        W13137  25.294  10.759   3.907
48153W        W13138  39.475   0.819   4.547
48154W        W13139  19.315  25.179   1.483
48155W        W13140  30.009   5.391  14.943
48156W        W13141  36.588  44.288  12.001
48157W        W13142  23.539  20.557   5.094
48158W        W13143  32.471  31.085   3.637
48159W        W13144  33.953  44.334  11.080
48160W        W13145  27.505  17.986  14.100
48161W        W13146   0.712  36.095  14.293
48162W        W13147  40.077  44.502   2.389
48163W        W13148   3.903  18.072   2.939
48164W        W13149  30.557  26.461  12.083
48165W        W13150  23.172  33.106  12.361
48166W        W13151  17.638   0.571   3.769
48167W        W13152  26.582  11.337   3.622
48168W        W13153   6.391  27.208  11.214
48169W        W13154  43.723  14.723  13.016
48170W        W13155   5.798   0.610   3.297
48171W        W13156   0.740  25.269   4.186
48172W        W13157  32.168  38.532  10.073
48173W        W13158  19.745  43.707   1.403
48174W        W13159  18.029  36.590  13.930
48175W        W13160  36.032  42.336   2.287
48176W        W13161   2.750  21.037  12.406
48177W        W13162  18.151  39.929  11.725
48178W        W13163  27.810  35.364  11.142
48179W        W13164  18.149  39.377   0.834
48180W        W13165   5.661  18.217  12.463
48181W        W13166  27.447  37.491   0.504
48182W        W13167  23.713  38.538   4.467
48183W        W13168  26.608  11.984   4.317
48184W        W13169  43.063  36.605   4.043
48185W        W13170  27.514  37.912  10.539
48186W        W13171  22.548   0.322   1.679
48187W        W13172  36.955  17.339   1.523
48188W        W13173  17.600  25.396   3.803
48189W        W13174  38.904  43.365   2.260
48190W        W13175   6.678  34.804   2.638
48191W        W13176  29.442  30.504   1.722
48192W        W13177  23.709  12.310   3.791
48193W        W13178  39.621   1.012   4.079
48194W        W13179   2.175  20.867  10.241
48195W        W13180  38.491  44.774   4.602
48196W        W13181  37.317   0.642   0.999
48197W        W13182  28.466  16.128  10.396
48198W        W13183  40.928  42.357   4.636
48199W        W13184  28.201   4.663   3.134
48200W        W13185  32.623  11.606   3.850
48201W        W13186  12.560  44.295   1.879
48202W        W13187   5.313  15.599  13.976
48203W        W13188  16.276  20.696  12.851
48204W        W13189   4.286  38.412  11.697
48205W        W13190  25.428   8.944  10.818
48206W        W13191  20.763  27.394  11.521
48207W        W13192  27.990  10.315  12.568
48208W        W13193   1.718  32.545  11.464
48209W        W13194  10.694  40.131  11.587
48210W        W13195  28.203  29.099  11.145
48211W        W13196  12.161   1.718   0.683
48212W        W13197  31.543  32.433   4.319
48213W        W13198  39.160  29.471  12.045
48214W        W13199   4.117  26.020   0.806
48215W        W13200   1.725  25.470   3.164
48216W        W13201  34.178   6.371   1.745
48217W        W13202  38.649  29.790  12.856
48218W        W13203  37.441  26.419  14.723
48219W        W13204  28.614  42.501  12.787
48220W        W13205   4.204  17.551  14.587
48221W        W13206   4.443  31.359   1.999
48222W        W13207  31.070  41.741  13.545
48223W        W13208  24.531  32.066   2.321
48224W        W13209  41.848  36.899  14.447
48225W        W13210  37.014   3.673   4.632
48226W        W13211  26.610  11.547   2.287
48227W        W13212   9.279  31.238  12.547
48228W        W13213  18.986  29.803   1.704
48229W        W13214  16.129  30.018   2.284
48230W        W13215   7.211  13.221   2.355
48231W        W13216  19.123  16.661   5.065
48232W        W13217  10.291  41.609   3.274
48233W        W13218  22.483  35.453   2.130
48234W        W13219  19.213  18.183   2.750
48235W        W13220  17.474  32.093  10.967
48236W        W13221  35.896  16.293  13.738
48237W        W13222   0.971  28.487   1.989
48238W        W13223  33.498   1.009   5.404
48239W        W13224  23.567  24.477   4.101
48240W        W13225  16.514  17.529   3.230
48241W        W13226  44.586  27.277  14.830
48242W        W13227  17.718  11.682   4.206
48243W        W13228  19.108   2.306   2.147
48244W        W13229  31.059  19.951   0.052
48245W        W13230  31.462  12.347  10.451
48246W        W13231  43.600  23.444   3.554
48247W        W13232  33.528  28.407   4.502
48248W        W13233  40.796  33.371  13.400
48249W        W13234  18.121  17.952  12.250
48250W        W13235  12.550  27.058  14.279
48251W        W13236   1.940  43.767   0.918
48252W        W13237   1.450  37.199   3.889
48253W        W13238  19.326  18.779  11.924
48254W        W13239  33.416  38.911   2.674
48255W        W13240  21.893  11.087   0.857
48256W        W13241  29.247  28.717  12.575
48257W        W13242  14.347  42.341   2.335
48258W        W13243  36.539  38.518   4.930
48259W        W13244  24.747   6.820  14.853
48260W        W13245   2.275  15.075   0.301
48261W        W13246  18.255  11.819   2.011
48262W        W13247  27.980   6.820  14.353
48263W        W13248  27.616  18.992  11.188
48264W        W13249   2.307   3.022   2.345
48265W        W13250   9.077  12.801   4.849
48266W        W13251  27.862  32.676   1.820
48267W        W13252  28.117   7.172  13.784
48268W        W13253   8.833  29.550   1.224
48269W        W13254  26.969   3.802  14.825
48270W        W13255   9.737  12.448   1.173
48271W        W13256  12.660  10.708  11.975
48272W        W13257  29.085  18.710  14.584
48273W        W13258  28.172  28.457  14.799
48274W        W13259  20.254  34.319   2.301
48275W        W13260  34.939  37.329  11.964
48276W        W13261  32.698  43.822  13.024
48277W        W13262  35.401  10.151   1.174
48278W        W13263  11.680  34.102  13.846
48279W        W13264  32.680  36.914  11.917
48280W        W13265  35.098  40.333  14.331
48281W        W13266   9.939   6.308  10.615
48282W        W13267  40.598  36.597  13.029
48283W        W13268  25.912   4.327  11.053
48284W        W13269  17.535  26.154  13.392
48285W        W13270   4.779  42.391   2.930
48286W        W13271  30.827  30.478   1.687
48287W        W13272  10.083  18.771   0.851
48288W        W13273   3.561  16.263   4.987
48289W        W13274   2.912  22.698  11.034
48290W        W13275  31.339   9.924   0.353
48291W        W13276  15.194  32.498   1.910
48292W        W13277  20.583   8.755   3.658
48293W        W13278  36.847  42.123  10.758
48294W        W13279  30.114  36.012  10.964
48295W        W13280  42.892  44.080  13.423
48296W        W13281  15.882  30.071   0.529
48297W        W13282  44.581  19.136  14.843
48298W        W13283  35.003  12.424   2.743
48299W        W13284  16.841   2.250   3.050
48300W        W13285  39.988  42.420   4.644
48301W        W13286  34.036  18.605   3.873
48302W        W13287  42.449  32.572   4.613
48303W        W13288  43.633   8.822   2.883
48304W        W13289  29.583  10.298  14.742
48305W        W13290  10.135  12.811   1.176
48306W        W13291  22.502  15.850   4.929
48307W        W13292  22.078  19.312   3.935
48308W        W13293   2.710  39.628   0.486
48309W        W13294  11.835   9.857  12.631
48310W        W13295  24.109  31.984   4.617
48311W        W13296  17.785  36.008  13.391
48312W        W13297  19.681  25.982  11.037
48313W        W13298  16.462  26.428  11.601
48314W        W13299  10.951   0.768   4.871
48315W        W13300  30.925   2.961   2.873
48316W        W13301  22.656  24.450   4.179
48317W        W13302  40.364  43.913   0.500
48318W        W13303  36.485  28.699   2.254
48319W        W13304   2.816  44.676   1.357
48320W        W13305  31.536  26.614  11.329
48321W        W13306  21.643  25.451  12.370
48322W        W13307  15.657  10.406  13.769
48323W        W13308  11.013  12.285  14.294
48324W        W13309   2.910  26.759  10.674
48325W        W13310  29.601  13.464  10.606
48326W        W13311  35.498  17.561  14.922
48327W        W13312  16.558  13.639  12.408
48328W        W13313  35.869   6.620  11.369
48329W        W13314  25.678  13.140   4.746
48330W        W13315  15.649  20.447  13.398
48331W        W13316  12.606  42.336  13.829
48332W        W13317  40.540  33.491   4.475
48333W        W13318   7.281  24.008   4.083
48334W        W13319   5.031  21.755   2.963
48335W        W13320  41.569  14.636  14.938
48336W        W13321  29.029  16.330  11.959
48337W        W13322  23.223  24.329   1.253
48338W        W13323  44.407   4.697   2.367
48339W        W13324   8.719  22.770   3.674
48340W        W13325  27.964  32.582   2.867
48341W        W13326   7.179   1.439  11.279
48342W        W13327  39.744  28.272  12.214
48343W        W13328   9.211  12.930  13.418
48344W        W13329  16.863   5.304  12.929
48345W        W13330  40.040  26.895   4.484
48346W        W13331  15.807   1.786   2.506
48347W        W13332   3.143   6.188   0.285
48348W        W13333  12.136  19.126   1.220
48349W        W13334  12.694  33.401  10.634
48350W        W13335  22.441  14.658  14.078
48351W        W13336  11.870  23.322   4.527
48352W        W13337  33.112  26.034  13.067
48353W        W13338  11.702  28.392   0.929
48354W        W13339  43.297  16.530  14.295
48355W        W13340  38.755  38.887   0.900
48356W        W13341  20.864  39.578   0.302
48357W        W13342  36.865  20.671   0.758
48358W        W13343  34.674   6.335  13.328
48359W        W13344  19.278  39.188  12.369
48360W        W13345  20.150  44.673   2.205
48361W        W13346  17.073  10.097  14.071
48362W        W13347   6.958  27.857   2.821
48363W        W13348  27.158  20.558   4.543
48364W        W13349   8.872  44.695   1.289
48365W        W13350  24.477   8.337   0.770
48366W        W13351  16.248  16.765   0.008
48367W        W13352   2.928  24.664   0.880
48368W        W13353  40.884   2.940   0.304
48369W        W13354  44.789  42.053  11.655
48370W        W13355   7.358  33.362  11.637
48371W        W13356   3.803   1.533   1.773
48372W        W13357   8.806  14.765  12.543
48373W        W13358  44.248  20.793   1.414
48374W        W13359  40.884  39.554  12.547
48375W        W13360  20.101   8.962   4.545
48376W        W13361  30.636  11.321  14.474
48377W        W13362  24.198  10.418  11.550
48378W        W13363  31.841  15.062   0.067
48379W        W13364  12.620  32.330   0.760
48380W        W13365   3.852  43.816   3.817
48381W        W13366  44.443  34.267  12.567
48382W        W13367  38.178  25.771  10.210
48383W        W13368   5.339  26.548  10.417
48384W        W13369  19.606  28.103  11.667
48385W        W13370   2.671   1.229   2.625
48386W        W13371  19.081  41.493   3.488
48387W        W13372  30.208   4.256  14.533
48388W        W13373  16.740  41.447   4.909
48389W        W13374  27.054  32.155  14.420
48390W        W13375  39.821  27.167  12.869
48391W        W13376   4.234  39.826  11.947
48392W        W13377  16.488  33.780   1.731
48393W        W13378  16.309   3.354   5.306
48394W        W13379  43.851   9.433   1.892
48395W        W13380   5.331  10.257   4.549
48396W        W13381   7.200  22.527   0.129
48397W        W13382   4.418  25.494   1.254
48398W        W13383  37.850   6.259  10.537
48399W        W13384  10.012  43.251   2.375
48400W        W13385  40.843  18.274   2.684
48401W        W13386  27.949  26.826  12.319
48402W        W13387  16.642  13.344  14.347
48403W        W13388  44.698  24.449  11.082
48404W        W13389  30.638  19.589   0.761
48405W        W13390  39.866   2.276  13.888
48406W        W13391  17.047  14.343   2.845
48407W        W13392  32.129  16.654  12.908
48408W        W13393  20.262   7.398  13.418
48409W        W13394  23.477  13.738  10.838
48410W        W13395   4.244  24.937   3.429
48411W        W13396  42.528  27.164   2.372
48412W        W13397  24.301   6.899  13.627
48413W        W13398   6.102  34.584   3.518
48414W        W13399   3.006   9.147   4.131
48415W        W13400  19.016   7.699  13.017
48416W        W13401  18.243  15.043  10.729
48417W        W13402  43.791  17.553  10.331
48418W        W13403   3.225   8.345   0.285
48419W        W13404  40.648   3.707   2.809
48420W        W13405   3.915  25.632  10.883
48421W        W13406  17.214  26.163  14.827
48422W        W13407  35.597  30.996  12.279
48423W        W13408   1.753   3.850   2.644
48424W        W13409  12.297   7.899   3.120
48425W        W13410   6.190  18.717   3.697
48426W        W13411  33.843  15.513  11.225
48427W        W13412  32.099  18.014  12.861
48428W        W13413  19.539   1.785  12.066
48429W        W13414   5.481  23.047  12.382
48430W        W13415  29.639  41.339  13.863
48431W        W13416  15.742  26.593   3.626
48432W        W13417   2.858  41.953   0.577
48433W        W13418   3.166   0.841  11.283
48434W        W13419  42.345  38.780   4.702
48435W        W13420   6.878   3.590   0.934
48436W        W13421  10.246  39.321  14.804
48437W        W13422  34.550  32.106  13.884
48438W        W13423  38.983  19.347   0.969
48439W        W13424  14.162  44.528   4.102
48440W        W13425  25.128  42.855  14.327
48441W        W13426  21.138  30.990  14.864
48442W        W13427   2.958   1.906   1.018
48443W        W13428  40.918   5.839  12.494
48444W        W13429  10.968  42.095  14.558
48445W        W13430  37.078  35.072   2.772
48446W        W13431   6.914  33.605   4.049
48447W        W13432  15.285   9.128   2.199
48448W        W13433  35.122   9.770   4.424
48449W        W13434  25.961  14.160   2.184
48450W        W13435  40.918  14.454  11.476
48451W        W13436  27.739  42.429   2.372
48452W        W13437  33.858  16.214   4.003
48453W        W13438   1.619  11.128   0.532
48454W        W13439  13.230   2.823   2.090
48455W        W13440  43.508  16.816   2.160
48456W        W13441  29.688  39.281  13.350
48457W        W13442  38.504  38.991  10.600
48458W        W13443  42.677  40.491   0.008
48459W        W13444  15.269   1.437   4.965
48460W        W13445  21.452  43.451  13.107
48461W        W13446  11.101   9.246   3.204
48462W        W13447   7.618  11.230   2.272
48463W        W13448  21.680   3.833   3.979
48464W        W13449  29.178   2.831  12.030
48465W        W13450  18.679  37.892  14.186
48466W        W13451  36.785  25.810  13.683
48467W        W13452   8.728  18.229   1.010
48468W        W13453  22.318  24.596   0.955
48469W        W13454  13.356  37.412  13.755
48470W        W13455   4.153  23.686  12.933
48471W        W13456  19.621   0.025   4.689
48472W        W13457  30.478  12.584   1.039
48473W        W13458  23.375   0.387  10.652
48474W        W13459  34.006  43.248   3.842
48475W        W13460  26.027  29.421  13.729
48476W        W13461   7.899  11.288  12.989
48477W        W13462   2.006  16.591   2.322
48478W        W13463   8.526  43.090   1.865
48479W        W13464  21.962  39.104  13.968
48480W        W13465  38.523   1.796  13.868
48481W        W13466   8.262  17.705  12.999
48482W        W13467   5.864  22.544  13.301
48483W        W13468  40.909  44.374   3.259
48484W        W13469  25.427   4.950  12.078
48485W        W13470  34.907  31.862   3.903
48486W        W13471  44.257  28.263   3.241
48487W        W13472   8.104  29.147   3.518
48488W        W13473  37.451   4.387  11.479
48489W        W13474  15.257  42.713  13.757
48490W        W13475   6.360  27.729   0.735
48491W        W13476  42.003  31.503  14.418
48492W        W13477   3.432   7.944   3.934
48493W        W13478  17.825  38.555  10.679
48494W        W13479   0.766   3.728   3.612
48495W        W13480  21.017  21.580  12.474
48496W        W13481  12.993   4.921   0.729
48497W        W13482  16.251   8.852   4.897
48498W        W13483  37.588  44.703   1.179
48499W        W13484  34.624  40.789   1.654
48500W        W13485  24.215  24.716   2.131
48501W        W13486  37.460  11.559  12.522
48502W        W13487   0.768  16.796  13.547
48503W        W13488  23.721  26.099  12.410
48504W        W13489  43.928  25.998   2.321
48505W        W13490  31.169  38.513   5.297
48506W        W13491   0.040  19.647   2.287
48507W        W13492   1.230  40.195   0.457
48508W        W13493  31.300  33.006   3.246
48509W        W13494  12.822  35.838   3.191
48510W        W13495  26.700   1.954   0.693
48511W        W13496  24.299   1.735   1.437
48512W        W13497  27.399  34.324   1.147
48513W        W13498   1.976  22.569   4.654
48514W        W13499   7.483  22.526   2.225
48515W        W13500  23.773  43.100  12.035
48516W        W13501  29.179   9.313  11.585
48517W        W13502  40.854  25.526  14.881
48518W        W13503  20.688  24.334   4.219
48519W        W13504  33.923  33.123  12.167
48520W        W13505  11.412  31.799   2.045
48521W        W13506  44.455  12.660   3.627
48522W        W13507  44.531  23.163  11.898
48523W        W13508  20.844   2.994  14.838
48524W        W13509  43.949   3.608   3.523
48525W        W13510  26.664  13.834   4.737
48526W        W13511   2.429   7.176  11.927
48527W        W13512   1.823  21.874   3.350
48528W        W13513  37.649  10.290   2.777
48529W        W13514  34.876  20.501   3.811
48530W        W13515  36.123  28.475  10.711
48531W        W13516  41.102  32.236   0.818
48532W        W13517  33.119   3.451   2.325
48533W        W13518  43.546  34.114  14.683
48534W        W13519  21.747  23.988   0.281
48535W        W13520   6.673   3.797  12.566
48536W        W13521   7.016  18.566  14.692
48537W        W13522   8.229   4.232  11.633
48538W        W13523   8.763  42.717   0.432
48539W        W13524   1.008   0.338   4.438
48540W        W13525  33.886  26.883   1.255
48541W        W13526   3.427  25.695  14.874
48542W        W13527  34.947  12.234  10.144
48543W        W13528  25.369   6.574   3.641
48544W        W13529  32.425  30.652   4.592
48545W        W13530   8.481  28.478  14.054
48546W        W13531  29.494  16.565   2.117
48547W        W13532  10.389   6.454  11.142
48548W        W13533   9.487  12.223  10.584
48549W        W13534  26.470  25.189   2.663
48550W        W13535  10.780   7.513   1.721
48551W        W13536  35.829   6.391   0.269
48552W        W13537  42.213  13.122   4.060
48553W        W13538  14.531  18.965  10.678
48554W        W13539  42.323  19.694   4.119
48555W        W13540  23.665  13.662  12.575
48556W        W13541  16.069  17.484   1.456
48557W        W13542  39.770  14.189   3.278
48558W        W13543  27.964  26.404   0.851
48559W        W13544  43.849  38.168  10.708
48560W        W13545  37.645  40.746  10.706
48561W        W13546   6.094  30.938   0.882
48562W        W13547  34.748  39.848  13.435
48563W        W13548  40.214  29.626  12.047
48564W        W13549  39.307  38.111   1.398
48565W        W13550  34.595  33.411  12.895
48566W        W13551  40.956   8.005   2.468
48567W        W13552  10.663  30.589  14.516
48568W        W13553  31.698  10.156   2.270
48569W        W13554   2.225  27.062   1.361
48570W        W13555  10.758  14.031   4.459
48571W        W13556  40.243  20.742  11.622
48572W        W13557  14.096  23.526   1.408
48573W        W13558  22.052  17.258   3.428
48574W        W13559  18.888   6.851   4.501
48575W        W13560   0.677  23.583  12.836
48576W        W13561  11.690  12.012   0.864
48577W        W13562   9.196   9.326   1.875
48578W        W13563   7.019  19.161   0.047
48579W        W13564  13.682  34.496   4.186
48580W        W13565  20.176   4.910   3.697
48581W        W13566  35.640  23.786   1.232
48582W        W13567  26.642  17.193   3.842
48583W        W13568  35.808   3.948   3.436
48584W        W13569  25.578  25.101   0.450
48585W        W13570   7.833  18.221   3.288
48586W        W13571  37.334  22.426   3.608
48587W        W13572  17.985  25.021   4.061
48588W        W13573  15.519  28.510   3.651
48589W        W13574  29.510  29.591  10.269
48590W        W13575  34.465  19.442  13.213
48591W        W13576  40.391   5.009   4.172
48592W        W13577   7.716  26.044   1.478
48593W        W13578  25.460  31.977   0.002
48594W        W13579  38.263  40.400  13.025
48595W        W13580  25.043   7.346  10.590
48596W        W13581  25.686  20.049   3.781
48597W        W13582  27.485  35.792  11.169
48598W        W13583  21.622   3.787   3.468
48599W        W13584  32.184  35.329  11.402
48600W        W13585  21.248  21.112   2.376
48601W        W13586  18.629  28.163  11.987
48602W        W13587  23.868  43.000  14.112
48603W        W13588  10.589  22.780  13.075
48604W        W13589   2.780   3.190   2.208
48605W        W13590   0.185  41.430   1.924
48606W        W13591  31.366  10.816  14.314
48607W        W13592   6.912  18.200  14.347
48608W        W13593  34.440  32.729   1.741
48609W        W13594  37.672   0.414   3.100
48610W        W13595  41.818  38.439  10.586
48611W        W13596   1.815  23.261  11.591
48612W        W13597  41.391  33.115  13.577
48613W        W13598  31.651  14.037  11.148
48614W        W13599   3.787  37.244   1.915
48615W        W13600   5.203  25.415   1.231
48616W        W13601  25.174  10.777  10.434
48617W        W13602  25.671  19.066  14.510
48618W        W13603  20.145  33.591  10.811
48619W        W13604  40.962  11.888  14.753
48620W        W13605  32.179  32.776   2.165
48621W        W13606  17.863  38.379   1.339
48622W        W13607   8.809  29.031  12.609
48623W        W13608   0.058  22.714   1.271
48624W        W13609   5.710   2.345  12.195
48625W        W13610   4.843   1.723   3.369
48626W        W13611   0.343  40.880  11.148
48627W        W13612  12.860  35.793   4.294
48628W        W13613  25.619  14.601   1.901
48629W        W13614  42.979  16.141  13.763
48630W        W13615   1.519  37.847  13.563
48631W        W13616  25.482  26.398  11.097
48632W        W13617  38.389   7.166   3.269
48633W        W13618   6.941  26.975  13.868
48634W        W13619   9.351  24.518   1.165
48635W        W13620  16.069  15.460   4.023
48636W        W13621  23.176  13.049   0.971
48637W        W13622  35.167  33.511   1.753
48638W        W13623   4.895  28.942   2.409
48639W        W13624   0.903  29.790  10.917
48640W        W13625  18.954  15.373   0.543
48641W        W13626  40.962   8.785  12.718
48642W        W13627   6.992   6.204  14.972
48643W        W13628  21.451  19.273   0.342
48644W        W13629  35.912   4.206  11.942
48645W        W13630  35.354  38.352  13.018
48646W        W13631  12.530  31.027   4.051
48647W        W13632   9.349   9.233   4.569
48648W        W13633   9.435  23.166  12.046
48649W        W13634  35.060  26.065  10.684
48650W        W13635  30.305  32.426   5.458
48651W        W13636  25.999  26.107  11.244
48652W        W13637  30.895  12.208  13.175
48653W        W13638  38.536  20.951  10.609
48654W        W13639  44.248  34.102   2.338
48655W        W13640  34.094  10.414   3.677
48656W        W13641  40.478   4.955   4.791
48657W        W13642  33.841   8.729  13.116
48658W        W13643  26.476  38.599   2.725
48659W        W13644  31.423   3.521  14.343
48660W        W13645   1.693  31.538   1.612
48661W        W13646  17.256  43.872  11.920
48662W        W13647  15.149  38.357   1.931
48663W        W13648  35.097  37.775  11.102
48664W        W13649  16.725   3.191   2.712
48665W        W13650   1.366  44.502   0.011
48666W        W13651  15.847  27.014   2.493
48667W        W13652  43.836   2.781  14.797
48668W        W13653  42.965   1.575  14.326
48669W        W13654  34.906  23.865  14.052
48670W        W13655  28.926  23.557   4.553
48671W        W13656  19.619  23.877   0.499
48672W        W13657  34.357  35.438  13.862
48673W        W13658  34.586   1.700   2.681
48674W        W13659  12.927  26.312   2.719
48675W        W13660  27.393  19.501  12.931
48676W        W13661   5.443  32.127  11.475
48677W        W13662  28.416  35.366   2.861
48678W        W13663  38.520  31.896  10.687
48679W        W13664  23.452  22.304  14.492
48680W        W13665  34.501   3.813   1.829
48681W        W13666  18.942  32.363  11.111
48682W        W13667  12.702   9.689  10.695
48683W        W13668  31.854  25.358  14.024
48684W        W13669  32.915  44.692  13.598
48685W        W13670  43.891  43.647   1.484
48686W        W13671  33.006   4.561  14.382
48687W        W13672  43.553  11.348   1.870
48688W        W13673  44.039  32.576   1.839
48689W        W13674  29.760  26.658  10.746
48690W        W13675  26.317   3.385   0.245
48691W        W13676   5.903  35.857   4.189
48692W        W13677  25.748  17.836   0.904
48693W        W13678  14.980  34.491   3.729
48694W        W13679   9.277  42.738   1.461
48695W        W13680   9.597  19.714   1.814
48696W        W13681   1.933  37.595  12.142
48697W        W13682  19.544   4.646   1.121
48698W        W13683  38.119  13.257   2.834
48699W        W13684  33.116  28.948   3.794
48700W        W13685  27.676  38.862  13.838
48701W        W13686  15.836   4.064   5.540
48702W        W13687  38.098  20.755   3.068
48703W        W13688  27.831  36.700   3.739
48704W        W13689   3.037  26.513   1.392
48705W        W13690  24.050  15.365   4.101
48706W        W13691   4.252  41.897  12.375
48707W        W13692  39.327  44.862  11.547
48708W        W13693  17.285  30.569  11.935
48709W        W13694  25.573  42.454  12.916
48710W        W13695  20.140  39.779   0.680
48711W        W13696  17.196  39.525   3.675
48712W        W13697  41.717   9.733   1.996
48713W        W13698  13.245  37.548   2.152
48714W        W13699   3.401   5.637   0.964
48715W        W13700  13.901  29.576  12.891
48716W        W13701  18.345   1.338   3.785
48717W        W13702   6.323  22.467  12.510
48718W        W13703   1.466   8.472   2.822
48719W        W13704  33.616  19.550  14.098
48720W        W13705  25.656  38.113   1.836
48721W        W13706  42.683  29.403   2.452
48722W        W13707  31.739   1.893  12.424
48723W        W13708  41.121  12.184   4.371
48724W        W13709  26.343  28.563   5.254
48725W        W13710  16.820  18.205  14.859
48726W        W13711  41.558  38.289   3.523
48727W        W13712  23.458  26.701  13.457
48728W        W13713  40.769  31.386   0.062
48729W        W13714   5.362  23.987  11.196
48730W        W13715   7.642  40.513  11.278
48731W        W13716  10.262  44.966   0.436
48732W        W13717  29.013   8.291   4.398
48733W        W13718  27.599   0.276  11.582
48734W        W13719  12.161   2.341   4.225
48735W        W13720  34.887  15.842  10.334
48736W        W13721  10.443   7.558  12.291
48737W        W13722  26.489  24.291   2.733
48738W        W13723   6.438   9.320   1.689
48739W        W13724  12.622  16.935   1.538
48740W        W13725  42.616   6.757  10.969
48741W        W13726  19.175  16.191  10.735
48742W        W13727  38.968  36.295  13.398
48743W        W13728  38.277  36.011   4.795
48744W        W13729  38.476   9.813  11.070
48745W        W13730  37.034   8.577  11.972
48746W        W13731  12.691  29.957  11.971
48747W        W13732  27.465  26.726   1.920
48748W        W13733   3.737   1.728  10.800
48749W        W13734  29.124   5.979  14.933
48750W        W13735   4.060  13.005  12.689
48751W        W13736  22.210   9.187  11.214
48752W        W13737  32.370  12.413  14.877
48753W        W13738  12.183  22.063   3.257
48754W        W13739  12.069  44.361   0.328
48755W        W13740  33.598  17.594  14.898
48756W        W13741  35.651  15.853   1.810
48757W        W13742  28.630  10.316   4.569
48758W        W13743   5.371  27.204   2.457
48759W        W13744  19.294   6.805  12.213
48760W        W13745  37.995  31.103  11.452
48761W        W13746  36.951  21.650  11.655
48762W        W13747  19.773  16.806  11.954
48763W        W13748  37.104  17.696   0.152
48764W        W13749  35.890   3.209   1.810
48765W        W13750  22.371  42.427  14.968
48766W        W13751  34.942  34.298  11.434
48767W        W13752  21.135  43.752   1.178
48768W        W13753  26.685  23.246  13.415
48769W        W13754  17.619  24.013   0.008
48770W        W13755  32.890  24.720  12.967
48771W        W13756  26.755  33.419   3.676
48772W        W13757  34.982  42.972   1.781
48773W        W13758   3.863  11.175   2.394
48774W        W13759  25.540  10.629  14.893
48775W        W13760   1.402  12.084  11.590
48776W        W13761  14.723  36.539  12.554
48777W        W13762  14.888  22.716   4.230
48778W        W13763   7.306   7.905   2.274
48779W        W13764  11.110  28.616   1.948
48780W        W13765  37.319  26.128  11.406
48781W        W13766  42.170  23.062  11.596
48782W        W13767  29.627  25.737   3.801
48783W        W13768  19.883  13.406   2.661
48784W        W13769   8.133  20.178  10.677
48785W        W13770  33.147  14.752   4.312
48786W        W13771  39.104   6.188   4.221
48787W        W13772   1.317  29.541   4.592
48788W        W13773  37.996  25.908  13.185
48789W        W13774  13.711   8.693   3.650
48790W        W13775  14.826   0.856  11.976
48791W        W13776  20.735   7.530   1.525
48792W        W13777  18.558  38.916  10.402
48793W        W13778  27.541  42.765  13.740
48794W        W13779   9.220  30.591   3.622
48795W        W13780   1.144  14.857   3.589
48796W        W13781   6.879  44.553   0.421
48797W        W13782  38.909  10.452   4.608
48798W        W13783  40.724  10.112   2.239
48799W        W13784  16.757  37.092  14.829
48800W        W13785  44.925   3.644   0.010
48801W        W13786   7.824  39.119   1.919
48802W        W13787  24.226  42.979  10.528
48803W        W13788   1.481   5.791   4.563
48804W        W13789  10.146  28.471  12.385
48805W        W13790  35.961  25.878  13.399
48806W        W13791  41.962  40.198  13.768
48807W        W13792  18.272  21.220  12.284
48808W        W13793  35.100   7.400   3.277
48809W        W13794  35.876  12.643  12.364
48810W        W13795   2.104  20.848  14.525
48811W        W13796  39.465  39.618   1.000
48812W        W13797  18.391   7.094   3.629
48813W        W13798  13.135  18.839   2.834
48814W        W13799   8.513  20.806   1.030
48815W        W13800  18.932   9.264  14.932
48816W        W13801   4.461  39.615  14.621
48817W        W13802  38.559  30.138  14.561
48818W        W13803  22.392  34.474   1.360
48819W        W13804   7.919  15.258  13.651
48820W        W13805  24.965  42.565  10.708
48821W        W13806   1.203   3.861  14.430
48822W        W13807  10.603  19.193  12.294
48823W        W13808  41.758  41.138  10.832
48824W        W13809  23.441  16.832   4.563
48825W        W13810  43.509  27.748   1.073
48826W        W13811  12.913  42.861   4.856
48827W        W13812  36.747  38.580   1.209
48828W        W13813  13.855  24.151   1.404
48829W        W13814  13.322  31.448  11.333
48830W        W13815  14.782  18.116  13.942
48831W        W13816  26.775  31.942   4.951
48832W        W13817  37.558  25.048   1.718
48833W        W13818  36.350  23.498  10.879
48834W        W13819   1.275  17.874   3.471
48835W        W13820  18.278  16.344  12.158
48836W        W13821  10.184  18.202  14.966
48837W        W13822  37.843  25.865   4.788
48838W        W13823  43.245   5.810  12.465
48839W        W13824  12.187  39.182   1.816
48840W        W13825  33.494  11.371  12.887
48841W        W13826  23.483   4.744  14.846
48842W        W13827  40.477   7.270   0.349
48843W        W13828  23.173  28.110   3.307
48844W        W13829  10.978  17.157  10.703
48845W        W13830  21.851  23.481  11.271
48846W        W13831  31.457   6.221   4.576
48847W        W13832   7.763  35.874   2.323
48848W        W13833  31.981   5.764   1.411
48849W        W13834   7.425   5.498  14.330
48850W        W13835  40.520  16.500  12.937
48851W        W13836  11.676   8.576  14.439
48852W        W13837  42.074  21.111   0.988
48853W        W13838  16.125   0.392  10.694
48854W        W13839  37.820  16.373   4.087
48855W        W13840   6.824  36.304  14.968
48856W        W13841  27.991   7.414  12.898
48857W        W13842   4.249  24.612  12.975
48858W        W13843   3.451  32.110  14.427
48859W        W13844  30.341  25.736   0.761
48860W        W13845  23.733  27.039   3.869
48861W        W13846  30.133  44.186   3.578
48862W        W13847  12.166  35.643   4.125
48863W        W13848  22.991  43.968   0.758
48864W        W13849   2.254  13.644   3.716
48865W        W13850  19.308  28.545   2.711
48866W        W13851  10.232  20.511   4.564
48867W        W13852   3.329  16.782   2.742
48868W        W13853   2.761  26.181  14.539
48869W        W13854  31.700   3.970  11.099
48870W        W13855   7.211  25.521  12.986
48871W        W13856  26.172  28.423   2.472
48872W        W13857  27.036   0.214  13.111
48873W        W13858   1.129  40.550  13.375
48874W        W13859   3.398  44.940   3.689
48875W        W13860  28.550  14.249  10.671
48876W        W13861   7.828  17.194  13.435
48877W        W13862  36.848  17.105  13.886
48878W        W13863  36.302  32.625  11.645
48879W        W13864  16.804  38.875   2.493
48880W        W13865  32.982  30.600   4.208
48881W        W13866   3.093  25.527   3.307
48882W        W13867  31.221  10.554   0.319
48883W        W13868  41.196  10.225   0.842
48884W        W13869  25.561  41.201   3.567
48885W        W13870  12.551  41.479   1.669
48886W        W13871  34.400  33.922  12.051
48887W        W13872  14.875  10.666   0.773
48888W        W13873  17.750  18.679  11.493
48889W        W13874  15.734  35.842   1.905
48890W        W13875  15.091  38.871  11.024
48891W        W13876   0.786  43.458   4.125
48892W        W13877   3.036  18.724  12.459
48893W        W13878  12.245  31.515  14.518
48894W        W13879  20.841  29.408   0.881
48895W        W13880  29.425  16.281   2.918
48896W        W13881  10.804  13.993  10.998
48897W        W13882   0.062   5.807  13.089
48898W        W13883  36.116  19.103  11.644
48899W        W13884  31.992  18.169  14.330
48900W        W13885   6.321  35.518   0.715
48901W        W13886  40.405   2.056   3.240
48902W        W13887  32.104   8.164  11.554
48903W        W13888  29.203  19.006   1.099
48904W        W13889   9.737  32.538   3.725
48905W        W13890  11.608  43.515  12.974
48906W        W13891  18.767   0.494   1.495
48907W        W13892  22.182  25.086   0.863
48908W        W13893  37.512  37.612  11.240
48909W        W13894   6.044   9.835  14.268
48910W        W13895  23.651   8.854  11.284
48911W        W13896  28.737  16.222   0.852
48912W        W13897  42.650  39.339   0.409
48913W        W13898  14.333  33.403  12.467
48914W        W13899   0.532  39.754   3.594
48915W        W13900  40.941  32.865  13.520
48916W        W13901  24.565  15.361  13.533
48917W        W13902   9.125  11.338   3.880
48918W        W13903  41.397  10.959   1.740
48919W        W13904   7.595  32.581  13.537
48920W        W13905  11.261  39.552  12.898
48921W        W13906  43.453  43.369  13.484
48922W        W13907  39.009   6.082   4.727
48923W        W13908   4.356  11.130  14.709
48924W        W13909  11.057  36.748   4.219
48925W        W13910  27.019   8.324   0.977
48926W        W13911  19.531  28.971  14.453
48927W        W13912  16.341   1.326  10.701
48928W        W13913  24.909  28.358   4.037
48929W        W13914  12.660  36.625   0.230
48930W        W13915  42.963   9.861   0.822
48931W        W13916  44.942  18.081   3.025
48932W        W13917   6.250  32.593  11.792
48933W        W13918   3.864  29.172  13.274
48934W        W13919  23.581  40.354  11.511
48935W        W13920  36.977  15.658  13.450
48936W        W13921  40.481   9.495   4.275
48937W        W13922  16.202  41.856  11.956
48938W        W13923  39.107  43.411  14.943
48939W        W13924   0.039  14.099   3.578
48940W        W13925  22.987  43.342   3.168
48941W        W13926  23.094  36.908   3.515
48942W        W13927  27.407  26.217   1.861
48943W        W13928  33.145  19.770  12.505
48944W        W13929  21.692  39.316   2.730
48945W        W13930   8.820  16.233  11.375
48946W        W13931  13.853  18.717   2.342
48947W        W13932   1.481  44.354   3.058
48948W        W13933   3.884   7.167   1.404
48949W        W13934  44.072   4.697   0.950
48950W        W13935  16.100  20.472   4.677
48951W        W13936  11.572  43.227   0.711
48952W        W13937  15.674  19.057   0.778
48953W        W13938  29.280   9.838  14.489
48954W        W13939   1.386  43.336   1.736
48955W        W13940  20.004  25.906   2.273
48956W        W13941  34.326   0.457   3.525
48957W        W13942   0.791  16.345   3.321
48958W        W13943   7.195  19.929   4.043
48959W        W13944  32.449  32.389   3.075
48960W        W13945  21.082  29.875  11.941
48961W        W13946  14.238  21.071  13.962
48962W        W13947  11.317  31.677  10.857
48963W        W13948  18.685  24.864  12.024
48964W        W13949  36.159  39.381   0.944
48965W        W13950  17.860  40.066   4.074
48966W        W13951  29.135  26.635   2.707
48967W        W13952  30.605   4.629   2.259
48968W        W13953  19.341  37.422  11.353
48969W        W13954  35.952  14.008   3.722
48970W        W13955  21.670  12.832   1.830
48971W        W13956  11.543  40.032   2.317
48972W        W13957  21.097   6.199  13.933
48973W        W13958  40.271  19.420  12.423
48974W        W13959   0.944  25.125   3.735
48975W        W13960  30.585  44.086  13.362
48976W        W13961  34.571  30.872  14.920
48977W        W13962  32.039  13.729  13.800
48978W        W13963  10.871  29.063   1.842
48979W        W13964   8.008  36.944  11.828
48980W        W13965  22.492   7.720  10.979
48981W        W13966  44.478  30.142   3.685
48982W        W13967  10.224   3.263  10.676
48983W        W13968  11.546  44.243  11.153
48984W        W13969  29.049  35.296  10.702
48985W        W13970  33.175  35.386   4.064
48986W        W13971   8.419   8.671  14.513
48987W        W13972  26.634   9.714   9.773
48988W        W13973  18.332  14.218   0.546
48989W        W13974  18.996  14.693  14.384
48990W        W13975   1.169   1.419   2.701
48991W        W13976  13.259   1.754   1.198
48992W        W13977  12.043  38.390  14.913
48993W        W13978  32.939   1.272  14.776
48994W        W13979  29.819  22.217   0.974
48995W        W13980   5.304  43.820  10.938
48996W        W13981  20.391  11.153   0.553
48997W        W13982  43.813  43.440  11.418
48998W        W13983  13.709  34.029  12.194
48999W        W13984  21.284  28.119  12.610
49000W        W13985  23.556  42.061   1.340
49001W        W13986  35.072  32.795   5.054
49002W        W13987  39.875  14.563   0.696
49003W        W13988  41.726  29.589  12.960
49004W        W13989  24.927  11.025   2.790
49005W        W13990  19.976   9.984  11.270
49006W        W13991  37.481  23.764   1.236
49007W        W13992  26.918  33.214   9.944
49008W        W13993   9.951   2.969  11.044
49009W        W13994  13.279   0.095  13.356
49010W        W13995  36.972   9.805   2.166
49011W        W13996  14.890  29.398   0.752
49012W        W13997  13.111  26.531  13.384
49013W        W13998  10.387  36.645  11.240
49014W        W13999  40.180  44.879   1.842
49015W        W14000  35.092  44.971   2.016
49016W        W14001  15.759  23.610  14.872
49017W        W14002  42.551  39.782   3.809
49018W        W14003   8.504  41.859   0.126
49019W        W14004  11.727  25.091   1.906
49020W        W14005  32.858  43.690  11.082
49021W        W14006  21.313  24.154   3.250
49022W        W14007  10.111  32.218   0.838
49023W        W14008  38.274  35.439   5.043
49024W        W14009  20.203  24.161   4.917
49025W        W14010   7.982   5.920  10.577
49026W        W14011  13.852  37.119   3.259
49027W        W14012  40.851  30.121   3.245
49028W        W14013   9.407  22.081   2.814
49029W        W14014  10.683  15.340  11.518
49030W        W14015  44.215  16.272   2.756
49031W        W14016  36.844  15.717  12.018
49032W        W14017  44.116  41.568   2.637
49033W        W14018  41.801  34.107  12.874
49034W        W14019   6.238  40.008   1.978
49035W        W14020  41.747  15.233   9.820
49036W        W14021  18.806  38.846  11.227
49037W        W14022  16.545  22.752  10.013
49038W        W14023  43.009  14.797  12.557
49039W        W14024   2.608  41.482  12.140
49040W        W14025  31.372   4.657   2.743
49041W        W14026  38.955  19.109  14.733
49042W        W14027   7.133   6.805   1.639
49043W        W14028  39.764  21.276  13.895
49044W        W14029  19.186  14.501  13.952
49045W        W14030  37.508  26.968  14.692
49046W        W14031   5.742   4.400   3.638
49047W        W14032  15.605  18.332   4.354
49048W        W14033  23.904  43.977  13.616
49049W        W14034  24.700  21.726  13.447
49050W        W14035  21.244  27.483   3.754
49051W        W14036   3.970  34.503   4.221
49052W        W14037  37.375  38.333  14.004
49053W        W14038  24.590  40.102   2.465
49054W        W14039   2.431   1.993  13.498
49055W        W14040   5.206  10.729  11.050
49056W        W14041  18.675  18.621   0.451
49057W        W14042  31.346  34.537  13.781
49058W        W14043  20.632  16.725   3.388
49059W        W14044  40.519  13.708  10.594
49060W        W14045  19.151  32.833   3.303
49061W        W14046   6.922  23.639   1.420
49062W        W14047  22.064   2.483   2.843
49063W        W14048   1.523  37.358  13.263
49064W        W14049  32.470  19.751   0.559
49065W        W14050  36.171  16.707   1.883
49066W        W14051   6.628  12.735   0.433
49067W        W14052   8.205  44.720   2.700
49068W        W14053   2.698  37.311   0.190
49069W        W14054  42.967   2.012  12.436
49070W        W14055  12.423  38.449   1.449
49071W        W14056  44.318  26.408  13.445
49072W        W14057  30.633  27.677  11.840
49073W        W14058   0.964  19.184   0.528
49074W        W14059  42.525  11.151  10.624
49075W        W14060  19.242  22.283   0.610
49076W        W14061  40.035  20.452  12.567
49077W        W14062  20.003  13.970  11.478
49078W        W14063  35.974  22.579   0.245
49079W        W14064  25.391  44.060   0.882
49080W        W14065  24.808  15.425  11.064
49081W        W14066  32.896   9.224  12.972
49082W        W14067  26.917  24.755   0.819
49083W        W14068  27.534   5.315   5.032
49084W        W14069  41.674   9.603   3.363
49085W        W14070  21.219   8.153   0.448
49086W        W14071  22.473  21.847  10.456
49087W        W14072  43.514   1.862  14.964
49088W        W14073  23.671  13.899   1.765
49089W        W14074  12.172  23.454   1.160
49090W        W14075  23.215  44.816   0.667
49091W        W14076  18.215  11.732   2.887
49092W        W14077  11.185  16.606  14.340
49093W        W14078  25.489  21.257   4.808
49094W        W14079  12.184  41.352   4.621
49095W        W14080  15.296  34.119   1.630
49096W        W14081  17.697   0.257   0.541
49097W        W14082  40.746  24.578  11.264
49098W        W14083  18.281   1.897  10.722
49099W        W14084   7.682  25.215  14.784
49100W        W14085   5.880  24.304   1.463
49101W        W14086  11.452   4.884   4.845
49102W        W14087  22.255   9.274   0.377
49103W        W14088   7.905  16.540   4.388
49104W        W14089  22.501   8.748   0.381
49105W        W14090  12.226  20.537  14.211
49106W        W14091  30.055  40.885  11.633
49107W        W14092  26.138   2.820  14.507
49108W        W14093  14.793  31.439  11.656
49109W        W14094   2.273   9.381   4.557
49110W        W14095  27.429   0.820   2.298
49111W        W14096  17.577  23.545   0.923
49112W        W14097   2.202  42.402  10.704
49113W        W14098  28.623  38.781   0.410
49114W        W14099  14.230   6.376   2.897
49115W        W14100  23.471  43.346  11.605
49116W        W14101  40.789  18.798   2.739
49117W        W14102  33.348   0.966  14.823
49118W        W14103  12.316  16.005   2.951
49119W        W14104  36.601  30.735  11.579
49120W        W14105  21.892  15.982   3.239
49121W        W14106  14.201   0.699  14.857
49122W        W14107  38.505  37.855  12.539
49123W        W14108  21.028  29.217  14.946
49124W        W14109  34.854  27.185  13.367
49125W        W14110  20.025   7.079   9.762
49126W        W14111  28.084  35.305   0.920
49127W        W14112  20.612  39.512  13.166
49128W        W14113  21.108  27.018   4.714
49129W        W14114   3.738  43.952  12.039
49130W        W14115  43.047  40.716  11.117
49131W        W14116  24.737  10.843  10.733
49132W        W14117   1.424  41.481  11.928
49133W        W14118  16.795   2.956   1.634
49134W        W14119  19.106   5.213  13.061
49135W        W14120  14.868   9.684  13.052
49136W        W14121  15.805  24.979   1.958
49137W        W14122  38.969   3.358   3.647
49138W        W14123  33.428  29.261   1.182
49139W        W14124  19.701  28.151  10.925
49140W        W14125  11.552  25.117  11.124
49141W        W14126  13.680  10.161  13.792
49142W        W14127   1.873   5.698  10.756
49143W        W14128   1.785  35.089   4.117
49144W        W14129  28.726  26.111  12.260
49145W        W14130  26.731   6.841  11.635
49146W        W14131  33.110  34.551  12.587
49147W        W14132   1.690   5.226   0.927
49148W        W14133  37.531   1.066   4.062
49149W        W14134   3.972  22.494  11.571
49150W        W14135  28.754  17.184   2.799
49151W        W14136  14.012  34.454  14.825
49152W        W14137   2.897  19.613   1.437
49153W        W14138  28.555  19.721  14.826
49154W        W14139   0.678  28.106   0.751
49155W        W14140  20.253  41.225  10.815
49156W        W14141  28.577  13.102   0.908
49157W        W14142  12.878  22.760  12.638
49158W        W14143  24.185  34.396   2.727
49159W        W14144   6.069  37.568   1.385
49160W        W14145  41.764   6.509   2.606
49161W        W14146  20.359  19.646  10.737
49162W        W14147  19.264  22.028  11.479
49163W        W14148  43.475  29.695   0.687
49164W        W14149  21.995  34.616   2.972
49165W        W14150  10.425  21.170   1.062
49166W        W14151  18.466  37.474   5.039
49167W        W14152  35.562   6.645  13.798
49168W        W14153  19.672   3.454  12.934
49169W        W14154  36.391  27.340  11.038
49170W        W14155   4.450   8.820  10.673
49171W        W14156   0.320  18.294  11.331
49172W        W14157   9.881  33.175   4.881
49173W        W14158   6.307  21.680   3.745
49174W        W14159  29.369  44.970  13.133
49175W        W14160  15.792  33.936  14.814
49176W        W14161  12.126  14.044  11.552
49177W        W14162   2.478   0.851   3.969
49178W        W14163  28.943  24.292  13.992
49179W        W14164   7.739  24.253   4.139
49180W        W14165  33.919  32.569   1.679
49181W        W14166  27.311  13.327   1.148
49182W        W14167  24.075  41.457  14.779
49183W        W14168   3.960   9.303  11.075
49184W        W14169   3.467  37.996  11.965
49185W        W14170  35.762  44.618   3.192
49186W        W14171  24.564  15.280   0.058
49187W        W14172  23.271  39.647  13.000
49188W        W14173  19.169   8.213  13.681
49189W        W14174  12.647  41.278  11.534
49190W        W14175   8.820  43.436  14.242
49191W        W14176  17.164   1.425   1.038
49192W        W14177  40.480  21.231  11.474
49193W        W14178  39.739   2.895   2.813
49194W        W14179  16.120  35.586   4.619
49195W        W14180   4.863  34.843   3.255
49196W        W14181   3.327   2.358  13.910
49197W        W14182  30.328  26.239   4.162
49198W        W14183  29.453   6.353  10.304
49199W        W14184  38.118  10.982  12.983
49200W        W14185  20.138  38.911  11.444
49201W        W14186  38.416  21.671   0.817
49202W        W14187  43.537  23.079  12.931
49203W        W14188  26.566  14.375  10.705
49204W        W14189  22.154  42.769   4.100
49205W        W14190  25.558  22.673  11.167
49206W        W14191  40.052  12.607  11.105
49207W        W14192  39.993  31.962  13.421
49208W        W14193  29.166  12.756  12.395
49209W        W14194   6.263  30.901  13.001
49210W        W14195   5.421  18.703  12.518
49211W        W14196  16.337  32.018  12.569
49212W        W14197  27.841  31.932  11.593
49213W        W14198  42.473  26.665  11.667
49214W        W14199  38.856  10.585  12.585
49215W        W14200   0.397  17.980   0.823
49216W        W14201  32.744  41.086  13.050
49217W        W14202  32.048  40.830   4.825
49218W        W14203  12.699   0.340   2.860
49219W        W14204  38.652  12.586  10.682
49220W        W14205  16.796   2.478  12.503
49221W        W14206   4.919  28.479   3.179
49222W        W14207  14.955  41.290   4.666
49223W        W14208  19.688  25.062   3.575
49224W        W14209  14.962  19.237   0.321
49225W        W14210  25.474   9.569  13.043
49226W        W14211  28.889  33.918   0.355
49227W        W14212   1.326  12.561   2.424
49228W        W14213  43.546  39.558  13.798
49229W        W14214  43.233   2.934   4.800
49230W        W14215   6.373  36.385  11.670
49231W        W14216  14.790  29.950  12.062
49232W        W14217  36.496  31.884  12.824
49233W        W14218  26.686  33.273   4.588
49234W        W14219  40.434  22.784   3.322
49235W        W14220  25.612  41.151  14.977
49236W        W14221  18.908  23.497   3.407
49237W        W14222  35.284   0.821   4.179
49238W        W14223   0.318  26.166  14.559
49239W        W14224   3.799  37.566   3.267
49240W        W14225  29.052  44.157   4.623
49241W        W14226  11.681   6.399  12.262
49242W        W14227  37.987  28.256   2.818
49243W        W14228  10.541  43.824   4.377
49244W        W14229  12.442  29.434   3.699
49245W        W14230  28.703  21.138  11.043
49246W        W14231  29.192  39.835  14.035
49247W        W14232   1.808  28.414   0.767
49248W        W14233  19.743  26.304   4.655
49249W        W14234  32.210  17.866  10.913
49250W        W14235  24.008  24.229   4.112
49251W        W14236  37.696  37.595   2.931
49252W        W14237  11.578   6.202   1.828
49253W        W14238  44.032  27.637   0.683
49254W        W14239   6.226   4.890  14.091
49255W        W14240   8.726  37.263  11.530
49256W        W14241  15.974  14.123  14.909
49257W        W14242   0.829  15.868   4.562
49258W        W14243  37.952  11.485  14.427
49259W        W14244  44.429  37.118  12.919
49260W        W14245  36.104  38.573  14.445
49261W        W14246  11.429  27.464   4.061
49262W        W14247  42.764  27.486  14.487
49263W        W14248  11.442   8.930   2.445
49264W        W14249   4.463  25.169   4.255
49265W        W14250  14.446  39.270   3.671
49266W        W14251  36.246  39.625   0.381
49267W        W14252  31.359   2.058   0.729
49268W        W14253  41.892  21.043  12.512
49269W        W14254  44.724   6.271  10.922
49270W        W14255   3.212   4.451  13.476
49271W        W14256   3.138  23.741  12.992
49272W        W14257  21.786  37.565  11.615
49273W        W14258  26.006  11.863   3.135
49274W        W14259  27.884   9.717   4.637
49275W        W14260  19.197  32.462   2.902
49276W        W14261  39.215  37.803  12.052
49277W        W14262   8.921  33.431  13.920
49278W        W14263  23.712   3.476   3.997
49279W        W14264  10.714  19.503  14.776
49280W        W14265   3.850  27.449   1.704
49281W        W14266  27.247  18.282   2.707
49282W        W14267   8.173  16.509  14.230
49283W        W14268  19.256  41.889   3.177
49284W        W14269  10.528  36.376   5.177
49285W        W14270  29.270  43.828   3.242
49286W        W14271   1.978  41.833   1.340
49287W        W14272  12.118  23.784  10.712
49288W        W14273   3.971  19.861   1.912
49289W        W14274  22.965   2.200   1.217
49290W        W14275  32.880  37.843   0.765
49291W        W14276  30.199  29.987  12.658
49292W        W14277  24.741  23.495   4.606
49293W        W14278  28.002  15.615  13.831
49294W        W14279  29.898  16.032  14.920
49295W        W14280  31.378  40.082  13.528
49296W        W14281  16.823  35.403   1.734
49297W        W14282  11.166  14.770   0.831
49298W        W14283   7.084  26.226   3.168
49299W        W14284   7.702  32.959   0.581
49300W        W14285  17.234   9.675  12.484
49301W        W14286  30.905  19.541  12.882
49302W        W14287  23.498  37.478  10.868
49303W        W14288  39.900  17.144  14.214
49304W        W14289  35.490  14.826  13.960
49305W        W14290   3.837  27.731  12.387
49306W        W14291  13.160   7.858   0.429
49307W        W14292  31.219  15.278   2.320
49308W        W14293   3.221   7.310   3.303
49309W        W14294  17.243  35.310   0.972
49310W        W14295  14.070  14.696  14.859
49311W        W14296   3.277   7.837   2.893
49312W        W14297  21.524  40.523  10.646
49313W        W14298  27.710  44.632  11.184
49314W        W14299  21.799  32.096  13.889
49315W        W14300  41.002   9.627   0.424
49316W        W14301  14.580  30.413   1.798
49317W        W14302   7.170  44.582   2.760
49318W        W14303   2.418  33.142  12.986
49319W        W14304  31.195  15.824  14.460
49320W        W14305  30.041  43.920   4.446
49321W        W14306   5.419  41.769   1.833
49322W        W14307  22.143  12.607   1.923
49323W        W14308   4.820  30.956  14.897
49324W        W14309  12.281  22.669  14.892
49325W        W14310  37.135  27.758   4.164
49326W        W14311   5.715  30.089   3.885
49327W        W14312  18.112  18.261   3.623
49328W        W14313   3.268   5.420   3.193
49329W        W14314  20.045  25.573  12.582
49330W        W14315  44.610  30.450  10.034
49331W        W14316  12.295   5.955   3.277
49332W        W14317  25.769  42.125  10.725
49333W        W14318  35.796  18.101   1.450
49334W        W14319  36.159  10.014   4.051
49335W        W14320   4.646  15.139   4.682
49336W        W14321   4.260  41.408  13.542
49337W        W14322  12.725   0.941   0.180
49338W        W14323   6.770  21.134  13.848
49339W        W14324  27.444   1.512   2.748
49340W        W14325  10.817  12.050   2.789
49341W        W14326  26.183  16.007   4.732
49342W        W14327   4.258  38.537  10.615
49343W        W14328   4.105  33.519  13.859
49344W        W14329  15.077  37.885   2.149
49345W        W14330  37.158  19.777  14.993
49346W        W14331   2.455   1.685  12.454
49347W        W14332   7.410  36.141   4.072
49348W        W14333  36.510  40.361   2.309
49349W        W14334  29.874   8.659  11.616
49350W        W14335  14.322   5.194  12.919
49351W        W14336  34.863  23.666   1.878
49352W        W14337  30.990  15.755   0.842
49353W        W14338  41.308  39.333  13.491
49354W        W14339  37.312  31.126  14.906
49355W        W14340  15.391  13.073  12.918
49356W        W14341  14.253  10.876   1.459
49357W        W14342   4.968  26.916   1.638
49358W        W14343  24.213  41.283  12.011
49359W        W14344  19.537   2.823   3.788
49360W        W14345  28.343  40.516  11.448
49361W        W14346  36.559   8.909  13.019
49362W        W14347  18.751  40.364   2.042
49363W        W14348  19.225  38.681  12.449
49364W        W14349  44.295  36.478  10.584
49365W        W14350  18.642   8.601   4.092
49366W        W14351  23.618   1.975  12.888
49367W        W14352   1.688  16.952   3.234
49368W        W14353  22.451  40.245  10.628
49369W        W14354  35.054  11.735  12.414
49370W        W14355   2.461   7.841   3.818
49371W        W14356  15.815  39.938  10.615
49372W        W14357  17.338  36.663   2.823
49373W        W14358  12.188   9.828   3.797
49374W        W14359  38.522  39.925   1.372
49375W        W14360  43.530   9.448   0.690
49376W        W14361   4.586   6.098   3.765
49377W        W14362  37.585  42.744   2.110
49378W        W14363  32.018  21.618  12.960
49379W        W14364  31.208   0.468   1.239
49380W        W14365  44.526  18.757   3.206
49381W        W14366  17.166  37.334  10.220
49382W        W14367  22.268  17.842   0.855
49383W        W14368  20.134   8.579  12.129
49384W        W14369  34.456   6.213  10.993
49385W        W14370  31.900  26.191  11.353
49386W        W14371   0.373   1.733  11.714
49387W        W14372   1.032  26.207   2.803
49388W        W14373  18.654   4.901  13.838
49389W        W14374  12.320  40.374  13.434
49390W        W14375   6.857  30.544   2.713
49391W        W14376   9.283   8.730   4.716
49392W        W14377  18.211   7.154   1.697
49393W        W14378  15.773   5.372   1.210
49394W        W14379  40.656   8.621   2.668
49395W        W14380  21.757   8.353   2.863
49396W        W14381  44.285   8.568   1.677
49397W        W14382   4.314  34.104  13.131
49398W        W14383  37.813  25.537   3.641
49399W        W14384  18.772  18.606   2.799
49400W        W14385   1.990   5.221  11.592
49401W        W14386   3.136  10.417  11.448
49402W        W14387  43.915  35.721  14.280
49403W        W14388  39.565  35.442   2.636
49404W        W14389  15.659  33.572  12.152
49405W        W14390  13.192  36.875   4.748
49406W        W14391  39.324  30.041   4.240
49407W        W14392  13.153   8.428   0.625
49408W        W14393  43.918   3.647   2.663
49409W        W14394  33.344   4.732   2.754
49410W        W14395  23.373  31.118   3.691
49411W        W14396   4.724   5.448   4.070
49412W        W14397   7.811   5.721  11.048
49413W        W14398  31.106  16.672  14.776
49414W        W14399  25.498  13.320  11.305
49415W        W14400  36.909  20.645   4.501
49416W        W14401   1.224  24.047   1.304
49417W        W14402   2.445  17.091   5.032
49418W        W14403   7.387  12.011   4.581
49419W        W14404  42.825  15.929  12.117
49420W        W14405  34.590   2.666   2.883
49421W        W14406  16.523  31.955  13.428
49422W        W14407   2.311  38.142   1.689
49423W        W14408  39.871  11.320   2.765
49424W        W14409  35.307   9.903  14.204
49425W        W14410  17.778   9.245   0.740
49426W        W14411  42.137   2.359   5.195
49427W        W14412  26.533   6.301   2.843
49428W        W14413  44.742  26.537  14.041
49429W        W14414  18.562  34.829   1.342
49430W        W14415  23.920  40.607  10.021
49431W        W14416   2.263  40.498  11.696
49432W        W14417  41.915   4.495   3.389
49433W        W14418  29.691  14.612  11.126
49434W        W14419  32.079  35.111  10.607
49435W        W14420  35.218  19.225  10.610
49436W        W14421  23.938   1.678   5.334
49437W        W14422  44.305  41.530   2.169
49438W        W14423  30.927  35.035   0.862
49439W        W14424  26.687  33.803   2.460
49440W        W14425   7.298  43.851   3.897
49441W        W14426  44.412  26.267   3.680
49442W        W14427  15.870  42.938  12.619
49443W        W14428  24.508  24.486   2.808
49444W        W14429  12.006  34.304   3.758
49445W        W14430  12.583  42.561  12.973
49446W        W14431  39.008  11.004   0.655
49447W        W14432  27.225   6.270   4.906
49448W        W14433  18.783  40.884   3.192
49449W        W14434   0.426  32.759  11.640
49450W        W14435  34.250  23.907  10.795
49451W        W14436  38.928  28.593  12.012
49452W        W14437   7.283  12.643  11.074
49453W        W14438   1.449  33.603   2.321
49454W        W14439  14.839  32.962  10.455
49455W        W14440  44.503   9.147   1.357
49456W        W14441  16.635   7.199   0.873
49457W        W14442  32.138  16.033   1.403
49458W        W14443   5.723  34.467   0.950
49459W        W14444  33.491   9.663  13.584
49460W        W14445  12.769   9.781   0.773
49461W        W14446   4.700  37.278   4.863
49462W        W14447  42.468   3.910   0.240
49463W        W14448   0.657  40.325   3.649
49464W        W14449  16.147  18.858  12.891
49465W        W14450  34.255   6.726  11.854
49466W        W14451  12.411  43.595  13.490
49467W        W14452  31.228  12.381   1.404
49468W        W14453  22.764   0.722  11.196
49469W        W14454  42.709  11.810  13.878
49470W        W14455  34.958  21.608  13.571
49471W        W14456  12.716  11.524   5.057
49472W        W14457   2.696   6.260   4.202
49473W        W14458   2.980  35.771  14.060
49474W        W14459  44.329  28.616  14.453
49475W        W14460  16.968   2.665   3.353
49476W        W14461  37.533  27.621   3.159
49477W        W14462  26.360   8.988   1.756
49478W        W14463  15.322  31.613  11.632
49479W        W14464  17.812  41.028   4.139
49480W        W14465  44.015  23.034   2.768
49481W        W14466   5.264  42.577  13.960
49482W        W14467   3.821   1.814   2.221
49483W        W14468  32.488  23.112  12.691
49484W        W14469  19.768   1.153   2.742
49485W        W14470  11.797  18.994  13.160
49486W        W14471  39.863  15.322  11.934
49487W        W14472  36.359   3.000   4.909
49488W        W14473  29.048  23.732   0.463
49489W        W14474  40.341  44.310   2.835
49490W        W14475  32.714  38.285   0.476
49491W        W14476   9.449  43.563  13.404
49492W        W14477  11.840  10.365  12.585
49493W        W14478  39.387  25.249   0.963
49494W        W14479  28.918  40.355   0.705
49495W        W14480   2.834   7.574   0.297
49496W        W14481  39.445  31.155   1.742
49497W        W14482  11.282  23.316   0.716
49498W        W14483   4.217  40.003  14.866
49499W        W14484  16.295  36.429  10.453
49500W        W14485  32.086  42.813   3.328
49501W        W14486  35.469  15.119   1.715
49502W        W14487   7.958  31.514   3.236
49503W        W14488  25.053   9.727   4.547
49504W        W14489   2.835  21.539   3.648
49505W        W14490   1.507  16.704  12.025
49506W        W14491  33.508  40.864   3.134
49507W        W14492  35.626  15.720  10.974
49508W        W14493   3.760  43.517  11.136
49509W        W14494  35.534   2.927  14.910
49510W        W14495  14.734  20.438   2.787
49511W        W14496  22.071  10.715   3.137
49512W        W14497  31.180  25.391  11.623
49513W        W14498  35.462  14.476  10.848
49514W        W14499  21.315  37.559   1.642
49515W        W14500  15.687   1.537   1.682
49516W        W14501  43.488  27.876   1.919
49517W        W14502  24.526  40.495  13.105
49518W        W14503   8.748  40.969   3.555
49519W        W14504  41.046  29.634   4.122
49520W        W14505  13.070  36.034  11.924
49521W        W14506  37.889  22.005  11.949
49522W        W14507  33.913   6.314  11.139
49523W        W14508  41.985  43.434  11.917
49524W        W14509   1.471  39.872  11.665
49525W        W14510  15.731  42.353  10.722
49526W        W14511  11.870  41.052  13.488
49527W        W14512  36.354  41.862   1.738
49528W        W14513  19.254  17.227  12.311
49529W        W14514  34.391  21.671  12.597
49530W        W14515  17.586  23.533  13.414
49531W        W14516  31.788  12.841   1.194
49532W        W14517  19.122  42.532   1.248
49533W        W14518  37.077  33.963   4.440
49534W        W14519  11.959   6.489  13.306
49535W        W14520   4.714  17.061  12.558
49536W        W14521  43.988  30.310   3.563
49537W        W14522  16.549  11.761  14.324
49538W        W14523  38.891   1.871   3.166
49539W        W14524  25.992  10.110  14.020
49540W        W14525  19.170  25.058  13.935
49541W        W14526  34.972  14.193  11.551
49542W        W14527  31.660  23.791  12.557
49543W        W14528  21.644  28.582   1.846
49544W        W14529  24.089  42.200  11.594
49545W        W14530  37.893  11.733  13.953
49546W        W14531  33.881  26.576  14.762
49547W        W14532   6.337  33.655   0.385
49548W        W14533   8.375   0.913   1.965
49549W        W14534  22.241   6.681   0.021
49550W        W14535   2.707   9.736   3.707
49551W        W14536  27.713  24.898  12.025
49552W        W14537  44.020  44.683  12.057
49553W        W14538  12.699  27.787   9.855
49554W        W14539  33.853  41.385  12.585
49555W        W14540  24.347  36.336  12.650
49556W        W14541  26.279  21.812   2.668
49557W        W14542  22.345  12.666  12.103
49558W        W14543  16.105  24.118   3.785
49559W        W14544  24.203  10.183  13.360
49560W        W14545   5.080   1.201   5.059
49561W        W14546  38.308  28.007   0.339
49562W        W14547  15.219  42.241  14.563
49563W        W14548  20.117  16.280   0.737
49564W        W14549  27.591  30.152   3.313
49565W        W14550  28.532  44.646   0.865
49566W        W14551  27.221  42.247   3.714
49567W        W14552  12.479  30.374  14.089
49568W        W14553  11.143  26.974  14.978
49569W        W14554  29.156  33.339  12.623
49570W        W14555  20.092  12.235  12.115
49571W        W14556   9.446  22.885  13.769
49572W        W14557   3.464  35.398   3.766
49573W        W14558  18.241  29.176   0.410
49574W        W14559  13.670  25.993  12.908
49575W        W14560  32.984  14.614  14.530
49576W        W14561  29.120  12.117  11.149
49577W        W14562  38.420  12.829  11.555
49578W        W14563  41.437  29.509   4.453
49579W        W14564  30.933  22.834   0.351
49580W        W14565   6.483  41.896   2.718
49581W        W14566  27.539   0.390   4.782
49582W        W14567  19.950  41.525   2.891
49583W        W14568  44.350  35.772   4.695
49584W        W14569  37.073  34.082   2.172
49585W        W14570  36.003  17.372  14.853
49586W        W14571  44.264  25.711   5.498
49587W        W14572  14.617  11.034   2.942
49588W        W14573   4.849  15.728   0.830
49589W        W14574  18.898  33.024   2.873
49590W        W14575  23.044  21.660  12.486
49591W        W14576  17.869  12.157  12.066
49592W        W14577  38.904   2.053   1.209
49593W        W14578  25.451   0.673   4.360
49594W        W14579  20.590  43.949   1.888
49595W        W14580  32.069   1.383  11.651
49596W        W14581   1.436  38.396   3.893
49597W        W14582  43.021  31.654   4.545
49598W        W14583  43.969  11.823   1.818
49599W        W14584   6.679  36.919   1.458
49600W        W14585  22.966   2.283   4.588
49601W        W14586  13.687  11.245   3.172
49602W        W14587  38.863  31.077  10.641
49603W        W14588  26.223  26.480  10.579
49604W        W14589  20.744   8.160   0.273
49605W        W14590  13.297  22.114  14.243
49606W        W14591  42.706  33.236  13.417
49607W        W14592   3.837  41.903  13.470
49608W        W14593  23.178  29.148  14.599
49609W        W14594  20.264  38.311   2.916
49610W        W14595  21.797  23.083   0.270
49611W        W14596  42.290  44.548  13.948
49612W        W14597  42.781  10.378  14.998
49613W        W14598   4.414   6.193  13.884
49614W        W14599   3.212  20.234   3.627
49615W        W14600   1.782   9.957  13.445
49616W        W14601  32.540  41.475   1.298
49617W        W14602  14.780   1.492  13.970
49618W        W14603   2.585  24.692  10.989
49619W        W14604   6.714  25.353  12.311
49620W        W14605  30.855   2.930   3.796
49621W        W14606  42.080   2.330  14.814
49622W        W14607   8.976  38.820   3.246
49623W        W14608  32.184  12.154  13.485
49624W        W14609  31.096  41.753   1.727
49625W        W14610  34.875  34.138  11.960
49626W        W14611  21.135  37.198   3.185
49627W        W14612  19.642  13.854  13.410
49628W        W14613  22.052  31.863   0.690
49629W        W14614  41.421  30.592   1.372
49630W        W14615  23.972  36.853   0.314
49631W        W14616   0.740  18.304   0.404
49632W        W14617  16.608  39.256  12.432
49633W        W14618  19.025  39.904   3.585
49634W        W14619   9.028  28.806   4.455
49635W        W14620  14.234  38.438   3.424
49636W        W14621  23.650  19.289  10.846
49637W        W14622  14.571   6.487   3.580
49638W        W14623  13.088  23.154  11.279
49639W        W14624  42.240  42.402  14.329
49640W        W14625  14.199  11.591   5.062
49641W        W14626  35.654  37.100   3.710
49642W        W14627  36.148   1.864  10.928
49643W        W14628  32.457  29.112   2.200
49644W        W14629   9.627  31.106   2.795
49645W        W14630  41.511  33.314   0.253
49646W        W14631  35.556  20.509  13.922
49647W        W14632  42.965  38.853   4.027
49648W        W14633   8.862  36.647  14.305
49649W        W14634  19.620  35.949   3.551
49650W        W14635  26.539   5.907   4.576
49651W        W14636  39.014  26.638   2.633
49652W        W14637  31.319  10.951  10.400
49653W        W14638  25.859  41.967  12.532
49654W        W14639  19.336  42.736  11.186
49655W        W14640  24.515  24.168  10.888
49656W        W14641  25.125  42.553  13.432
49657W        W14642  24.815  16.052   3.670
49658W        W14643  26.158   3.397  13.816
49659W        W14644  15.902   7.000  14.424
49660W        W14645   7.482  24.602   0.698
49661W        W14646  44.923  39.889   0.768
49662W        W14647   0.708  39.946   2.278
49663W        W14648  40.235  39.493   1.454
49664W        W14649  44.399  14.350   0.722
49665W        W14650  36.538   1.505  10.666
49666W        W14651  23.985  32.912   3.275
49667W        W14652   0.762  42.307   0.955
49668W        W14653  31.253   3.375   0.789
49669W        W14654  16.010  23.782  13.106
49670W        W14655  12.436   7.128   2.173
49671W        W14656   8.677  34.297   3.324
49672W        W14657   4.201  37.097  13.768
49673W        W14658   6.345  42.586   3.082
49674W        W14659  43.930  38.928   4.133
49675W        W14660  29.011   3.961   2.169
49676W        W14661  14.809  15.673   1.918
49677W        W14662  41.715  27.644  11.796
49678W        W14663   1.246  13.222  12.428
49679W        W14664   2.223   0.760   0.303
49680W        W14665  38.935   3.724   3.239
49681W        W14666  31.490  36.323  10.783
49682W        W14667  10.695   3.682  10.583
49683W        W14668  17.169  31.010   3.741
49684W        W14669  31.552  13.850  13.779
49685W        W14670   1.006  31.054   0.304
49686W        W14671  34.869  33.983   1.210
49687W        W14672  14.747  12.615   2.852
49688W        W14673   5.386  44.321   4.589
49689W        W14674   1.733  18.172  11.988
49690W        W14675   9.043  11.269  13.776
49691W        W14676  22.988  35.405   1.267
49692W        W14677   4.742  26.728   0.701
49693W        W14678  20.573  32.311  13.994
49694W        W14679  41.053   0.368   1.044
49695W        W14680  33.454  17.323   1.166
49696W        W14681   4.768  12.722  14.463
49697W        W14682  35.955   8.347  12.483
49698W        W14683  42.310  26.558  12.974
49699W        W14684  34.326  23.989   1.240
49700W        W14685  32.257  27.100  12.578
49701W        W14686   8.942  33.043  14.370
49702W        W14687   1.414  18.667  14.206
49703W        W14688  33.866   3.578   0.885
49704W        W14689   7.259  12.898   3.746
49705W        W14690  34.295  23.715   2.708
49706W        W14691   8.427  35.143  11.238
49707W        W14692  42.389   4.928   4.434
49708W        W14693   9.470  36.461  11.126
49709W        W14694  15.192  11.621   3.859
49710W        W14695  14.230  34.799   3.716
49711W        W14696  26.605  32.965   2.622
49712W        W14697  12.346  40.335  11.454
49713W        W14698   5.842   6.716   2.831
49714W        W14699  12.566  29.183   0.355
49715W        W14700  13.805  34.449   2.688
49716W        W14701  35.927  39.061  14.481
49717W        W14702   3.592  30.859   3.802
49718W        W14703   9.283  15.146  11.904
49719W        W14704  11.702  17.600  13.491
49720W        W14705  16.066  22.887   9.844
49721W        W14706  13.162  19.641   3.479
49722W        W14707  21.317  41.447  13.376
49723W        W14708  30.019  43.855   2.087
49724W        W14709  28.414  10.093  13.872
49725W        W14710  13.735  12.857  11.580
49726W        W14711  28.634   9.634  13.971
49727W        W14712   9.223  14.575  14.394
49728W        W14713  40.558   6.672  14.906
49729W        W14714  31.417   8.139   4.101
49730W        W14715  24.469  43.820  14.930
49731W        W14716  11.325   4.748  12.028
49732W        W14717  36.151  29.902  11.163
49733W        W14718   8.876  34.058   3.777
49734W        W14719  21.474  22.109  11.462
49735W        W14720  31.224   6.650  11.107
49736W        W14721  39.049  30.083  11.513
49737W        W14722   4.662  36.140   2.794
49738W        W14723   8.692  31.137   0.296
49739W        W14724   1.267  10.578  11.637
49740W        W14725   9.820  39.778   2.110
49741W        W14726  36.625  10.656  12.509
49742W        W14727   1.822  18.707   2.900
49743W        W14728  24.007  19.495  12.470
49744W        W14729  22.863  17.064  11.276
49745W        W14730  18.796  30.920   0.876
49746W        W14731  42.950  19.974   2.671
49747W        W14732   6.765  37.913  14.945
49748W        W14733  21.656  28.549  14.925
49749W        W14734   9.284  28.858   2.105
49750W        W14735  37.362   7.211  10.612
49751W        W14736  13.497  33.822  13.824
49752W        W14737  14.141  23.422   4.117
49753W        W14738  23.413  31.672  11.042
49754W        W14739  31.207  31.366   2.854
49755W        W14740  28.683  41.959   1.682
49756W        W14741  20.127  22.247   1.492
49757W        W14742  27.025  36.439  12.873
49758W        W14743  29.353  38.196   2.590
49759W        W14744   7.005  22.479   1.364
49760W        W14745  15.856  28.981  12.284
49761W        W14746  11.301  29.666   4.357
49762W        W14747  28.977  26.990   4.138
49763W        W14748  18.543   1.694   2.834
49764W        W14749  26.643  26.965   3.269
49765W        W14750   3.405  44.801  12.123
49766W        W14751   4.472  30.502  12.446
49767W        W14752  37.577  39.940   0.722
49768W        W14753   4.944  27.251  10.106
49769W        W14754  23.604   8.608  13.980
49770W        W14755   7.958  39.676  12.266
49771W        W14756  16.698  19.903  14.926
49772W        W14757  23.935  26.818  12.080
49773W        W14758  41.183   1.835   2.182
49774W        W14759  27.596  36.166  14.886
49775W        W14760   9.822  10.861  11.405
49776W        W14761  27.290  14.838   2.273
49777W        W14762   4.580  10.457  13.854
49778W        W14763  25.052  28.536   4.506
49779W        W14764   6.209  40.888  11.200
49780W        W14765  27.582  38.438  10.531
49781W        W14766  14.729  21.122   1.969
49782W        W14767   9.336   6.941  14.537
49783W        W14768  43.940  17.577   5.089
49784W        W14769   9.456   1.902  12.956
49785W        W14770   8.401  20.084  14.837
49786W        W14771  44.695  35.364   3.393
49787W        W14772  12.031  12.233   2.737
49788W        W14773   9.845  13.841   1.254
49789W        W14774  33.413  13.666   2.937
49790W        W14775  29.092  11.239  11.557
49791W        W14776  11.133  35.064  10.557
49792W        W14777  12.300  10.135  12.605
49793W        W14778  31.419  32.840  14.951
49794W        W14779  37.906  23.547  14.295
49795W        W14780  39.511  22.110  12.939
49796W        W14781  12.272  33.146  10.760
49797W        W14782  41.752  33.042   4.981
49798W        W14783  27.509  21.981   3.290
49799W        W14784  41.205  29.112   4.010
49800W        W14785  38.582  12.134   2.181
49801W        W14786  20.871  35.818   4.354
49802W        W14787  23.289  18.492  14.834
49803W        W14788  32.675  28.118  10.629
49804W        W14789   5.886  26.788  14.410
49805W        W14790   5.810  23.628   4.184
49806W        W14791  24.172  40.295   1.400
49807W        W14792  36.567  31.022  12.023
49808W        W14793  14.633  36.416  14.081
49809W        W14794  39.374   4.922  12.984
49810W        W14795  41.166  21.996   1.417
49811W        W14796  20.162  15.960   1.170
49812W        W14797  42.520   9.578  11.345
49813W        W14798  31.953  43.840  12.413
49814W        W14799  16.088   2.110  11.560
49815W        W14800  40.452  27.706   3.754
49816W        W14801  43.483   5.973   1.822
49817W        W14802   0.236   7.696  13.794
49818W        W14803  24.526  32.876  13.467
49819W        W14804  23.283  15.731  10.291
49820W        W14805  35.329  44.434  12.817
49821W        W14806  22.818  35.321  10.138
49822W        W14807  21.720   9.186   1.228
49823W        W14808  42.259  20.729   3.961
49824W        W14809  31.553   6.965   0.268
49825W        W14810  25.151  19.442  11.240
49826W        W14811   6.379   2.904  13.216
49827W        W14812  38.484  40.996   2.493
49828W        W14813   7.753   1.228   0.019
49829W        W14814  13.647   2.721  12.896
49830W        W14815  38.087  30.642  14.839
49831W        W14816  42.987  26.272   5.414
49832W        W14817  20.542  43.625  12.046
49833W        W14818  18.999  28.947   2.830
49834W        W14819  33.305  28.847  10.743
49835W        W14820  20.659  22.478  14.007
49836W        W14821  18.503  20.303  10.123
49837W        W14822  25.579  26.224   3.163
49838W        W14823  14.536   1.349  11.083
49839W        W14824   9.967  40.441  12.610
49840W        W14825   8.806  10.808   3.951
49841W        W14826   0.908   2.700   2.762
49842W        W14827  20.188  41.437   2.383
49843W        W14828   1.497  19.009  12.514
49844W        W14829  43.034  31.463  13.305
49845W        W14830  26.686  42.461   5.056
49846W        W14831  37.388  13.641   1.716
49847W        W14832  15.205  15.972  12.039
49848W        W14833  29.484  24.576   0.399
49849W        W14834  18.120  43.300   0.568
49850W        W14835   3.753  23.546   1.663
49851W        W14836  44.762  20.344  11.924
49852W        W14837  31.962  14.255  14.961
49853W        W14838   1.271   1.892   1.619
49854W        W14839  23.850  42.021  12.905
49855W        W14840   5.442  28.927  12.026
49856W        W14841  34.031  15.087  14.414
49857W        W14842  29.681   3.285   3.140
49858W        W14843   9.968  20.646  10.749
49859W        W14844  20.717  16.875  10.905
49860W        W14845  30.342   5.622  14.033
49861W        W14846   2.733  16.157  14.280
49862W        W14847  36.081  39.545  10.621
49863W        W14848  43.384   2.567   1.105
49864W        W14849   0.456  40.843   3.626
49865W        W14850  23.809  38.511   0.931
49866W        W14851  22.224   7.828   1.281
49867W        W14852  43.734   9.902   3.649
49868W        W14853  10.642  12.782   3.568
49869W        W14854  39.276  22.016  11.491
49870W        W14855  26.761  32.077   2.767
49871W        W14856  36.109  14.489   3.706
49872W        W14857   1.255  25.616   1.171
49873W        W14858  32.426  39.022   1.270
49874W        W14859  42.262  34.646   0.701
49875W        W14860  36.835   1.842  11.987
49876W        W14861   2.632  18.067  13.095
49877W        W14862  17.756  25.438   0.291
49878W        W14863  11.702   1.288  10.958
49879W        W14864  30.924  27.276  12.348
49880W        W14865   1.511   6.898  14.820
49881W        W14866   3.781  31.595   2.302
49882W        W14867  35.615  34.930   3.199
49883W        W14868  43.313  13.780  14.411
49884W        W14869  16.076  35.037  10.793
49885W        W14870  36.345  12.428   2.645
49886W        W14871   2.494  41.549  13.912
49887W        W14872  25.041  36.975   1.295
49888W        W14873  43.840  35.270  14.026
49889W        W14874  18.725  37.048  13.270
49890W        W14875   6.567   9.316  10.377
49891W        W14876  33.577  39.294  13.030
49892W        W14877  26.229  38.403   3.282
49893W        W14878  40.547  20.690  11.034
49894W        W14879   6.860  17.880   3.313
49895W        W14880  32.017  42.492   3.725
49896W        W14881  32.048  21.691   3.891
49897W        W14882   9.136  30.483   4.171
49898W        W14883  33.685  35.465   1.215
49899W        W14884  21.178  28.498   3.338
49900W        W14885   9.206  32.497   0.542
49901W        W14886  34.487  39.554   2.313
49902W        W14887  23.032  35.054   3.746
49903W        W14888  20.068  21.607  13.318
49904W        W14889  30.790  26.878   3.313
49905W        W14890   0.605  25.543  12.616
49906W        W14891  17.819  37.417  13.357
49907W        W14892  15.953  19.490   1.783
49908W        W14893   7.648  19.712   4.145
49909W        W14894  20.003  44.391   4.142
49910W        W14895  25.151  27.436  12.955
49911W        W14896  31.924  14.269  13.422
49912W        W14897  16.479  14.486   4.084
49913W        W14898  14.457  37.534  11.096
49914W        W14899  32.964  42.383  14.274
49915W        W14900  14.838  43.098  12.076
49916W        W14901  35.859   6.865   3.602
49917W        W14902   8.366  43.118  14.911
49918W        W14903  20.088   1.949  11.183
49919W        W14904  12.703  29.553   3.207
49920W        W14905  31.970  24.942  11.183
49921W        W14906  13.647  32.977  13.770
49922W        W14907  18.272  28.046  14.778
49923W        W14908  27.123  31.466  14.833
49924W        W14909   7.265   3.928   0.114
49925W        W14910  23.051   2.419  13.856
49926W        W14911  32.809   4.822  10.281
49927W        W14912  25.640  37.091  11.545
49928W        W14913   2.138  15.017   0.815
49929W        W14914  26.710  11.140   1.855
49930W        W14915   7.445  38.766  13.907
49931W        W14916  25.344  26.888  11.222
49932W        W14917  16.760  19.709  14.428
49933W        W14918  38.021  36.332   1.728
49934W        W14919  13.613  37.576  10.701
49935W        W14920  37.922   3.173  11.531
49936W        W14921   1.298  42.531  12.211
49937W        W14922  18.280  29.693   0.405
49938W        W14923  40.463   6.305  14.565
49939W        W14924   3.486   5.709  12.494
49940W        W14925  35.301  42.499  11.115
49941W        W14926  11.229  17.529  11.207
49942W        W14927  36.833   5.208   3.321
49943W        W14928  15.279  34.539   4.163
49944W        W14929   5.898  21.695   0.877
49945W        W14930   6.166  27.520   3.018
49946W        W14931  15.564  37.142   0.539
49947W        W14932  31.486  12.131  11.881
49948W        W14933  31.520  34.151   1.660
49949W        W14934  17.023  21.219  13.598
49950W        W14935  22.161  16.659   1.251
49951W        W14936   5.507  16.232  14.930
49952W        W14937  27.381  23.799  10.193
49953W        W14938  43.790  17.639  14.477
49954W        W14939  24.172  36.378   3.089
49955W        W14940  43.461  23.221   4.027
49956W        W14941   1.347  37.962   1.397
49957W        W14942  24.414  43.281  13.761
49958W        W14943   1.333  30.472   2.691
49959W        W14944  13.080  14.219   3.262
49960W        W14945  40.424  20.679   1.040
49961W        W14946   3.623   3.473   1.323
49962W        W14947   1.221   0.422   1.079
49963W        W14948  15.111  32.831  12.158
49964W        W14949  11.103   2.367  12.375
49965W        W14950  19.317  13.442   2.904
49966W        W14951   6.017  37.847   1.874
49967W        W14952  28.525  14.474  12.867
49968W        W14953  26.740  11.934  10.826
49969W        W14954  27.689  11.545   2.180
49970W        W14955  28.520   0.165  12.437
49971W        W14956  28.554  30.887   2.812
49972W        W14957  14.318  32.805  12.097
49973W        W14958  16.577   7.667   3.665
49974W        W14959  19.619   5.717  12.388
49975W        W14960  18.782   3.238  10.796
49976W        W14961   6.299   8.294   0.007
49977W        W14962  20.356   7.716   4.803
49978W        W14963   8.969   0.798  11.132
49979W        W14964  21.191   3.054  11.200
49980W        W14965  12.840   7.391  13.431
49981W        W14966  12.718   5.818   0.166
49982W        W14967   4.177  27.596   4.008
49983W        W14968  20.664   7.258   0.524
49984W        W14969   0.045  12.735   5.028
49985W        W14970  21.406  38.250   1.949
49986W        W14971  28.869  18.502  13.629
49987W        W14972  17.749  39.341   1.281
49988W        W14973  34.942  30.032  11.551
49989W        W14974  11.843   6.879   4.082
49990W        W14975  11.730  28.144   1.400
49991W        W14976  41.654  44.912   1.690
49992W        W14977  35.580  12.891  11.579
49993W        W14978  10.891   4.146   2.277
49994W        W14979  29.930  16.676  12.353
49995W        W14980  22.880  44.259   2.237
49996W        W14981  12.359   4.884   0.092
49997W        W14982  29.249   0.024  11.175
49998W        W14983  19.019   1.032   3.989
49999W        W14984  10.572   5.812  14.365
50000W        W14985  31.056  20.558  11.919
50001W        W14986  21.917  19.003   2.249
50002W        W14987  28.448  39.063  11.467
50003W        W14988   0.681  28.438  12.954
50004W        W14989  13.532  26.826   4.612
50005W        W14990   3.757  44.589   1.931
50006W        W14991  44.403  37.364   3.676
50007W        W14992  23.172  17.486   1.653
50008W        W14993  10.430  10.732  12.989
50009W        W14994  26.810  38.559   1.825
50010W        W14995  44.540  17.987  10.667
50011W        W14996  19.254  14.660  14.846
50012W        W14997   5.646  25.216  12.808
50013W        W14998  37.864   8.307  12.151
50014W        W14999  15.511  40.755  13.488
50015W        W15000  25.965   5.476   4.233
50016W        W15001  31.933  37.580  13.037
50017W        W15002  41.002  22.681   0.285
50018W        W15003  12.316   9.842   4.991
50019W        W15004  26.799  41.216   4.116
50020W        W15005  32.860  44.464   0.913
50021W        W15006  40.405  36.211   0.215
50022W        W15007  44.410  13.880  12.000
50023W        W15008  10.623  29.500  11.204
50024W        W15009  27.641   5.758   1.373
50025W        W15010  36.975  42.952  14.560
50026W        W15011  14.557  38.957   1.849
50027W        W15012  15.269   7.076  10.880
50028W        W15013  21.531  25.109  10.691
50029W        W15014  42.244  28.860  14.992
50030W        W15015   9.120  19.190  12.858
50031W        W15016  15.283  19.339  11.156
50032W        W15017  38.806  18.268  12.411
50033W        W15018   0.781  11.909   1.003
50034W        W15019  12.607  30.572   3.772
50035W        W15020  26.651  37.624  12.975
50036W        W15021  34.202  36.351  13.466
50037W        W15022  21.722   6.271   4.156
50038W        W15023  25.840  19.246   3.215
50039W        W15024  16.770   5.521  12.458
50040W        W15025   9.728  21.159   3.649
50041W        W15026  33.439   7.784   0.902
50042W        W15027  24.550  12.056   0.351
50043W        W15028  10.455  11.130   0.409
50044W        W15029  40.895   5.261   1.376
50045W        W15030  19.811  17.284  12.101
50046W        W15031  23.967  26.740   0.713
50047W        W15032   7.255  34.938  11.980
50048W        W15033  18.173  25.873  10.611
50049W        W15034  21.105  21.654   0.232
50050W        W15035  30.181  14.516  11.202
50051W        W15036  21.065  19.065  12.456
50052W        W15037  34.303  41.690  11.649
50053W        W15038   9.664  43.432  11.640
50054W        W15039   1.015  30.643  11.420
50055W        W15040   6.974  43.046  14.972
50056W        W15041  38.101   5.515  11.030
50057W        W15042   4.642  36.365  13.490
50058W        W15043  44.018  31.981   2.369
50059W        W15044  24.128   1.306  11.745
50060W        W15045   6.455  28.049  11.226
50061W        W15046  27.164  14.961  14.476
50062W        W15047  14.027   0.781  11.582
50063W        W15048   1.858  15.592   3.792
50064W        W15049  12.565  14.324   0.441
50065W        W15050  13.245  41.022  14.090
50066W        W15051  42.258   4.474  10.771
50067W        W15052   2.942  10.261   2.779
50068W        W15053  21.330  10.825   0.570
50069W        W15054   5.665  10.191  12.511
50070W        W15055  41.267  33.785   2.371
50071W        W15056  33.382   3.877   2.417
50072W        W15057   2.182  43.327   2.155
50073W        W15058  24.838  19.154   1.659
50074W        W15059  39.049  34.505  14.993
50075W        W15060  41.953   9.276   2.117
50076W        W15061  35.751  39.971  10.644
50077W        W15062  10.372  31.925   4.526
50078W        W15063  24.649  14.602   0.829
50079W        W15064  25.698  31.381   0.897
50080W        W15065  15.227  42.422   3.659
50081W        W15066   1.728  15.109  14.544
50082W        W15067  23.111  40.786   1.095
50083W        W15068  34.672  11.387  10.697
50084W        W15069  15.475  23.125  13.022
50085W        W15070  44.270  38.987   1.981
50086W        W15071   1.339   1.919   4.543
50087W        W15072  34.385   5.875   5.124
50088W        W15073  31.158   6.942  14.905
50089W        W15074  11.178   4.832  14.281
50090W        W15075  42.000  35.901  14.762
50091W        W15076   8.811  28.472   1.463
50092W        W15077  38.903  37.345   1.714
50093W        W15078   9.733   8.674   3.298
50094W        W15079  28.889  36.364   3.242
50095W        W15080   6.452  22.436   2.178
50096W        W15081  38.073  39.869  13.875
50097W        W15082   8.897  16.256  12.642
50098W        W15083  10.756   4.063   0.868
50099W        W15084  22.565  25.538   2.853
50100W        W15085   9.786  20.786  13.066
50101W        W15086  28.119  38.610   2.363
50102W        W15087  17.783   6.229   2.826
50103W        W15088  41.315   7.487  13.814
50104W        W15089  28.631  21.993   3.678
50105W        W15090  31.499   2.350   2.607
50106W        W15091  33.425  17.153   1.685
50107W        W15092  25.725   9.889   3.799
50108W        W15093  41.277  30.750   4.971
50109W        W15094  21.595  26.632  10.191
50110W        W15095  28.507  43.041  10.526
50111W        W15096  43.531  22.815   0.241
50112W        W15097  30.724   5.075   1.680
50113W        W15098  37.440  23.665  11.217
50114W        W15099   0.682  36.551   0.032
50115W        W15100   6.061   9.394  12.540
50116W        W15101  19.552  21.106   2.741
50117W        W15102   2.835  36.513   1.564
50118W        W15103  31.434  11.356  10.742
50119W        W15104  44.965  40.956   1.879
50120W        W15105  15.385  39.549   1.290
50121W        W15106   8.615  33.310   1.283
50122W        W15107  22.218   5.812   0.358
50123W        W15108  26.389  41.029  14.023
50124W        W15109  22.071  11.007  10.754
50125W        W15110  31.984  33.949  10.805
50126W        W15111   8.315  39.120   2.140
50127W        W15112  18.049  25.994   1.281
50128W        W15113   3.211   0.232   2.901
50129W        W15114  16.852   4.679  14.767
50130W        W15115  22.556  20.424   0.983
50131W        W15116  20.975   7.253  13.872
50132W        W15117  16.010  14.714   4.001
50133W        W15118  23.249  15.678   3.754
50134W        W15119   7.563   5.190   1.433
50135W        W15120  10.671  14.836   4.055
50136W        W15121  39.219  38.506   3.154
50137W        W15122  10.437  38.019   0.231
50138W        W15123  20.240  29.338  12.785
50139W        W15124   9.376  38.500  12.968
50140W        W15125  43.872  38.751  12.495
50141W        W15126   5.816   1.366  14.331
50142W        W15127  22.645   8.109  12.951
50143W        W15128  40.982  17.057   1.109
50144W        W15129   4.810   6.922  13.401
50145W        W15130  22.795  37.339   2.820
50146W        W15131  21.618  38.597   3.237
50147W        W15132   1.271  11.682   3.252
50148W        W15133  18.163   3.101  14.839
50149W        W15134  34.673  35.946  12.131
50150W        W15135  43.898   8.750  12.149
50151W        W15136   8.446  32.833   1.124
50152W        W15137  25.814  29.858   5.300
50153W        W15138  35.111  26.496   2.404
50154W        W15139  22.057  36.406   4.241
50155W        W15140  12.505  41.369  10.687
50156W        W15141  32.696  18.753   0.781
50157W        W15142  29.400  16.058   0.104
50158W        W15143  41.036  21.236  11.620
50159W        W15144  18.727  31.036   2.729
50160W        W15145  23.492  21.137   2.580
50161W        W15146  37.488  10.434   4.214
50162W        W15147  30.546  36.381  11.710
50163W        W15148  23.952  21.597  14.286
50164W        W15149  19.125  41.312   1.848
50165W        W15150  29.197  29.944   1.382
50166W        W15151  27.921  31.074   0.881
50167W        W15152  40.572  27.962   9.964
50168W        W15153  32.574   9.960  11.052
50169W        W15154  41.462  23.617   2.224
50170W        W15155  31.911   7.098  11.578
50171W        W15156  17.143   1.191   2.277
50172W        W15157  11.667  22.773  10.694
50173W        W15158  10.213   0.155   1.023
50174W        W15159  24.442  39.259  14.826
50175W        W15160  31.420  36.922   0.437
50176W        W15161  35.076   4.196   4.865
50177W        W15162  35.698  29.470   0.200
50178W        W15163  31.891  35.359  14.295
50179W        W15164  18.700  20.919   3.095
50180W        W15165  11.837   6.831   4.999
50181W        W15166   2.392  33.974  11.997
50182W        W15167   1.179   0.762   0.692
50183W        W15168  28.996   5.908   3.435
50184W        W15169  22.447  33.337  11.963
50185W        W15170  22.113   2.470   0.424
50186W        W15171  29.101  28.398   1.943
50187W        W15172  40.917   6.839   4.636
50188W        W15173  34.421   8.483  13.935
50189W        W15174  32.015  34.311  12.396
50190W        W15175   3.732  14.861  12.817
50191W        W15176  12.519  10.593  10.856
50192W        W15177   5.323  26.568  11.473
50193W        W15178  33.965  33.023  11.236
50194W        W15179   9.745  20.707   1.018
50195W        W15180  14.335  25.653   1.887
50196W        W15181   3.097  24.990   1.410
50197W        W15182   7.373  35.318   3.659
50198W        W15183  35.463  33.137  14.311
50199W        W15184  19.279  34.370  11.128
50200W        W15185  15.222  40.756  11.975
50201W        W15186  41.479  33.997   1.737
50202W        W15187  36.973   8.890  14.293
50203W        W15188  40.860   8.181   0.057
50204W        W15189  16.784  42.434   4.401
50205W        W15190  21.784   8.335   4.619
50206W        W15191  44.388  38.957   4.460
50207W        W15192  30.896  30.861   0.358
50208W        W15193  29.754   3.686  11.841
50209W        W15194  16.099  44.769  13.011
50210W        W15195  28.712  10.827   0.237
50211W        W15196  44.114  13.717   4.389
50212W        W15197  34.782  17.529   2.260
50213W        W15198  12.901  28.500   2.751
50214W        W15199  29.495  13.209   1.878
50215W        W15200  11.432   5.352  10.079
50216W        W15201  38.992  17.197  11.448
50217W        W15202  17.370  26.059  12.533
50218W        W15203  30.795   6.708   2.228
50219W        W15204  35.287  32.904  13.890
50220W        W15205  43.932  26.141   0.023
50221W        W15206  42.757  41.195  13.339
50222W        W15207  19.668  42.292  14.073
50223W        W15208  19.033  24.637  10.473
50224W        W15209  38.520  29.736   1.008
50225W        W15210  42.531  41.414  11.157
50226W        W15211  39.402   3.991   1.382
50227W        W15212   4.816  21.633  11.523
50228W        W15213  22.186  28.906   3.853
50229W        W15214   3.429   1.765  10.381
50230W        W15215   9.929  36.093   4.463
50231W        W15216  38.391   1.830   3.063
50232W        W15217  35.644  29.768   2.675
50233W        W15218  15.097  44.271  12.467
50234W        W15219  28.128  30.256   5.063
50235W        W15220  28.083  21.732   2.766
50236W        W15221  43.954   6.070   0.651
50237W        W15222   8.401  13.640  12.450
50238W        W15223   0.432  32.302   4.231
50239W        W15224  22.916  26.176  11.164
50240W        W15225  36.787   2.449   1.726
50241W        W15226   3.506  28.047  12.050
50242W        W15227  21.142  31.738   2.647
50243W        W15228  36.500  36.079  13.372
50244W        W15229  11.731  33.395  14.510
50245W        W15230  14.156  39.615   2.685
50246W        W15231  10.156  41.925   1.760
50247W        W15232   4.299  41.841  11.876
50248W        W15233   5.845  44.221   4.368
50249W        W15234   6.704  16.542  11.825
50250W        W15235  17.576  31.421   4.439
50251W        W15236  20.972  35.032  13.923
50252W        W15237  27.980  25.312  10.608
50253W        W15238   6.894   9.467   0.351
50254W        W15239  31.562  33.900  14.958
50255W        W15240  36.871   6.447  14.263
50256W        W15241  23.236  42.426  14.645
50257W        W15242  42.535  11.347  12.000
50258W        W15243   2.027  41.020   1.856
50259W        W15244  40.508   6.940   4.307
50260W        W15245  22.730   8.691  10.840
50261W        W15246   7.276  34.983  13.970
50262W        W15247   7.193  22.365  13.619
50263W        W15248  12.706  20.861   4.650
50264W        W15249  39.484  19.765  11.551
50265W        W15250  17.229  10.178  10.212
50266W        W15251   3.932  30.502   1.360
50267W        W15252   9.858  19.156  14.996
50268W        W15253  34.533  31.919  14.833
50269W        W15254  36.631  37.130  12.296
50270W        W15255  13.374  18.371   0.325
50271W        W15256   0.429   5.669   1.675
50272W        W15257  27.701   5.610   3.906
50273W        W15258  25.700   4.943   1.745
50274W        W15259  36.892  33.447  14.448
50275W        W15260  19.150  37.058   3.080
50276W        W15261  35.519  18.234  13.249
50277W        W15262   3.147   8.217  10.625
50278W        W15263  20.172  39.785  10.521
50279W        W15264  10.277  36.553   2.024
50280W        W15265   2.715   3.750  12.904
50281W        W15266   9.281  17.316  11.590
50282W        W15267  11.610  31.550   2.696
50283W        W15268  35.577  24.942  11.070
50284W        W15269  36.808  20.528  11.569
50285W        W15270  41.154  41.903   0.558
50286W        W15271  28.128  22.606  14.849
50287W        W15272  11.339  23.750   2.106
50288W        W15273  11.675  23.474   2.811
50289W        W15274  20.939  20.079  14.439
50290W        W15275  41.544  27.065   2.240
50291W        W15276  11.978  36.946   2.644
50292W        W15277  40.493  10.242  13.972
50293W        W15278  15.636  26.130  10.835
50294W        W15279  18.751  43.216  14.338
50295W        W15280  27.762  14.826   2.023
50296W        W15281  32.985  24.599   0.808
50297W        W15282  42.587  11.177   4.334
50298W        W15283  37.927  14.283   2.150
50299W        W15284  42.390  21.258  10.717
50300W        W15285  14.529  29.023   0.784
50301W        W15286  41.751  23.168   1.346
50302W        W15287  19.009  16.887  12.603
50303W        W15288  17.629  19.088   4.953
50304W        W15289  35.931  39.765  11.114
50305W        W15290   6.565  23.833  12.098
50306W        W15291  29.605  44.608  12.490
50307W        W15292   7.734   5.833  11.549
50308W        W15293  16.452  17.048   3.556
50309W        W15294  40.394   6.304  10.755
50310W        W15295  23.126  13.055  13.471
50311W        W15296  35.292   0.079  13.031
50312W        W15297  37.566  29.985  10.775
50313W        W15298  26.754   9.752   1.195
50314W        W15299   5.757   6.449   3.609
50315W        W15300  32.865  38.317   0.989
50316W        W15301  36.862  21.782  10.749
50317W        W15302  16.254   3.303   3.422
50318W        W15303  22.062  43.825   4.178
50319W        W15304  15.819  35.090  13.812
50320W        W15305   4.907   8.690   3.434
50321W        W15306   2.943  11.878   3.777
50322W        W15307   3.847   0.040   4.820
50323W        W15308  23.562   2.393   4.941
50324W        W15309  27.101   3.302   0.946
50325W        W15310  13.375  19.249   2.572
50326W        W15311  44.590  24.455  14.586
50327W        W15312  44.432  44.269  12.967
50328W        W15313  30.330  18.273   4.606
50329W        W15314  33.889   3.972  12.965
50330W        W15315  42.320  32.501  11.200
50331W        W15316  22.719  23.272  12.415
50332W        W15317  44.507  26.487  11.611
50333W        W15318  40.337  40.060  12.090
50334W        W15319   4.797  38.767  12.580
50335W        W15320   5.683   6.934   3.761
50336W        W15321   3.903  29.612   1.874
50337W        W15322  44.562  21.451   2.370
50338W        W15323  30.664  26.067  14.468
50339W        W15324  44.239  20.748  13.079
50340W        W15325  29.433  44.781  14.558
50341W        W15326   3.220  22.221   1.021
50342W        W15327  32.088  23.441  14.946
50343W        W15328   5.746  21.765   3.076
50344W        W15329   3.380  29.107   2.205
50345W        W15330  31.955  37.316   4.628
50346W        W15331  18.340  35.313  14.841
50347W        W15332  11.183   3.888  10.500
50348W        W15333  22.739  20.008  10.311
50349W        W15334  13.824  26.010   1.404
50350W        W15335  37.618   7.512   1.808
50351W        W15336   6.674  10.125   9.976
50352W        W15337   3.309  20.999   2.205
50353W        W15338  12.164  42.018  13.732
50354W        W15339  33.530  33.406  12.323
50355W        W15340  16.565  34.803  10.629
50356W        W15341  33.086  12.186  11.500
50357W        W15342  19.221   2.996  10.672
50358W        W15343   0.828  32.681   3.163
50359W        W15344  27.946  43.399  13.979
50360W        W15345  41.285  14.247   4.172
50361W        W15346  36.083  10.479  12.760
50362W        W15347   0.433  15.675  13.764
50363W        W15348  22.402  16.865  11.298
50364W        W15349  10.741   8.331  11.683
50365W        W15350  24.219  27.002  12.482
50366W        W15351  31.449  44.541  12.520
50367W        W15352  35.436   1.942   4.655
50368W        W15353   0.676  17.795   2.271
50369W        W15354  20.071  32.386  12.015
50370W        W15355  30.230  36.948  14.244
50371W        W15356  14.586  13.763   1.580
50372W        W15357  42.938  17.654  11.273
50373W        W15358  27.472   3.903  11.980
50374W        W15359  41.784  16.206   2.161
50375W        W15360   6.812  23.581   5.003
50376W        W15361  35.412  23.981   4.573
50377W        W15362  44.480  15.119  13.930
50378W        W15363  31.792  20.169  14.533
50379W        W15364  34.192   2.540   1.650
50380W        W15365   0.858  10.026   2.234
50381W        W15366  38.857  24.826  14.794
50382W        W15367   5.162  20.086  12.890
50383W        W15368  14.765  25.716   2.391
50384W        W15369   5.161  17.354   1.187
50385W        W15370  35.029  39.804   0.328
50386W        W15371  40.243  13.080  12.940
50387W        W15372  18.698   1.395   4.154
50388W        W15373   9.681  31.993   4.227
50389W        W15374  26.589  39.835   4.119
50390W        W15375  12.577  15.617   3.132
50391W        W15376  34.641  40.108   1.443
50392W        W15377  41.782  11.436  11.049
50393W        W15378  16.323  24.802   1.800
50394W        W15379  29.624  21.033   9.997
50395W        W15380  38.827  37.021   2.706
50396W        W15381   6.741  22.175  13.369
50397W        W15382  29.394   1.245   0.615
50398W        W15383   4.865   8.227   3.679
50399W        W15384  36.384   5.357  13.973
50400W        W15385  34.406   2.342   0.250
50401W        W15386  10.582  14.708   1.701
50402W        W15387  44.511  10.677   2.833
50403W        W15388  18.270   0.955   3.135
50404W        W15389  18.493  16.779   4.139
50405W        W15390  39.241  15.874   0.487
50406W        W15391  24.183  36.101  10.156
50407W        W15392  37.507   3.110  10.779
50408W        W15393  33.810  15.388   4.360
50409W        W15394  36.065  16.070  11.513
50410W        W15395  31.860   3.968   5.095
50411W        W15396  13.765  29.537  12.396
50412W        W15397  17.175  15.543   0.006
50413W        W15398  31.548  24.219  12.862
50414W        W15399  33.132  20.591   0.268
50415W        W15400   2.500  16.573  13.649
50416W        W15401   2.199  11.620   4.590
50417W        W15402   9.307  37.500   1.223
50418W        W15403   3.363   9.639   1.586
50419W        W15404   0.315  29.391   0.944
50420W        W15405  32.625  23.540   0.034
50421W        W15406  44.771  25.953   5.511
50422W        W15407   9.181   2.415   4.082
50423W        W15408  12.620  44.801   1.751
50424W        W15409   4.736  30.348  10.066
50425W        W15410  38.788  13.726   0.426
50426W        W15411  33.396  38.761  11.660
50427W        W15412  40.597  44.885   4.417
50428W        W15413   1.082  11.333   1.803
50429W        W15414   2.460  13.441  12.006
50430W        W15415  19.532   3.286   0.900
50431W        W15416  17.933  18.100  13.514
50432W        W15417  12.841  10.605  13.905
50433W        W15418  24.249  39.929  13.989
50434W        W15419  39.917  22.641  14.111
50435W        W15420   0.413   3.860  14.937
50436W        W15421  27.616  30.258   1.946
50437W        W15422  34.129   4.679  13.410
50438W        W15423  20.938  26.685   2.966
50439W        W15424  42.343  34.987  13.070
50440W        W15425  22.255  16.231  14.465
50441W        W15426  13.308  30.697   4.105
50442W        W15427  37.721  11.846  10.734
50443W        W15428  35.982  35.479   0.921
50444W        W15429  37.154  10.818  11.387
50445W        W15430  39.599  12.639   2.318
50446W        W15431  44.743   5.884  12.449
50447W        W15432  24.969  13.626  14.309
50448W        W15433  27.549   7.214   0.903
50449W        W15434  24.024  19.136   1.267
50450W        W15435  17.044  13.672   1.889
50451W        W15436   1.119  18.245  14.385
50452W        W15437  38.124   0.466   2.828
50453W        W15438  15.139  16.334  12.866
50454W        W15439  37.360  13.680   2.231
50455W        W15440  22.488  13.883  12.649
50456W        W15441  25.058  28.943   0.920
50457W        W15442  43.482  41.003  11.236
50458W        W15443  11.654  26.502  12.367
50459W        W15444   7.129   6.688   4.073
50460W        W15445  16.759  42.400   0.543
50461W        W15446   7.912   6.910   1.303
50462W        W15447   1.041  28.206  14.383
50463W        W15448  36.334   2.706   3.404
50464W        W15449  23.509  19.740   4.122
50465W        W15450  16.288   4.126   9.605
50466W        W15451   3.455  12.178  14.757
50467W        W15452  18.516   3.704  10.821
50468W        W15453  43.977  28.156   9.802
50469W        W15454  32.097  33.067  10.211
50470W        W15455  14.342  21.804  13.379
50471W        W15456  37.112   8.293   1.724
50472W        W15457  21.988  38.839  14.843
50473W        W15458  22.205  26.564  11.422
50474W        W15459  23.157  20.465  11.746
50475W        W15460  18.166  18.847  12.768
50476W        W15461  32.078  28.431  11.683
50477W        W15462  10.845  22.962   2.541
50478W        W15463  36.515  17.903  13.511
50479W        W15464  44.228  41.454   4.840
50480W        W15465  15.055  41.946  13.374
50481W        W15466   9.292  31.588  11.266
50482W        W15467  20.084  38.471  14.190
50483W        W15468  20.285  17.505  12.010
50484W        W15469  40.387  34.453   3.173
50485W        W15470  41.415   1.966  12.581
50486W        W15471  12.766  18.938  12.793
50487W        W15472   7.406  27.911   1.566
50488W        W15473  27.027  12.606   0.347
50489W        W15474  20.182   2.635   0.852
50490W        W15475   4.495  29.038   4.563
50491W        W15476   8.466  31.028   2.139
50492W        W15477  12.535  31.466  12.301
50493W        W15478   9.354  36.463  14.055
50494W        W15479  30.356  41.549   0.417
50495W        W15480  13.079   0.073   2.586
50496W        W15481  18.758  39.266   3.371
50497W        W15482  33.971  42.936   0.211
50498W        W15483  44.546  43.973  13.979
50499W        W15484  18.079  28.464   0.892
50500W        W15485  43.531  23.710  11.571
50501W        W15486  29.042  34.426  14.783
50502W        W15487  40.321  32.059   3.234
50503W        W15488  41.974  43.135  10.463
50504W        W15489  29.962  23.886  13.411
50505W        W15490  33.440   6.685  10.095
50506W        W15491  12.378  26.704  11.087
50507W        W15492  39.537  43.976   2.482
50508W        W15493  21.617  20.217  12.262
50509W        W15494   7.909  40.766  13.246
50510W        W15495  33.646  32.639   0.344
50511W        W15496   5.218  12.610   0.234
50512W        W15497  36.154  10.346   0.697
50513W        W15498  17.647  35.539  10.774
50514W        W15499   6.238   9.669  14.725
50515W        W15500  35.537  26.587   3.189
50516W        W15501  25.873   8.701  10.691
50517W        W15502  41.616  28.859   1.199
50518W        W15503  11.641  13.576   4.067
50519W        W15504  33.385  25.741  10.605
50520W        W15505  31.617  36.032  14.775
50521W        W15506  17.265  40.536  10.480
50522W        W15507  21.505  25.559   1.969
50523W        W15508   6.845  25.440   4.072
50524W        W15509  31.465  27.567   2.959
50525W        W15510  13.044  11.222   1.494
50526W        W15511  28.157   9.321  11.278
50527W        W15512  18.656  42.674   5.141
50528W        W15513  39.049  31.180  14.875
50529W        W15514  15.758  41.620   0.975
50530W        W15515  16.594  24.435  12.929
50531W        W15516  16.462  29.459   0.912
50532W        W15517  26.708   8.168   3.187
50533W        W15518   8.706  22.071   2.449
50534W        W15519   3.276  33.839   0.063
50535W        W15520  15.347  39.504   3.149
50536W        W15521  15.838  31.654   0.925
50537W        W15522  19.042  14.756  12.645
50538W        W15523  26.409  15.064  13.773
50539W        W15524   6.633  35.900  11.652
50540W        W15525   4.484  42.322   3.349
50541W        W15526   8.151  18.206  14.770
50542W        W15527  14.887  23.675  10.330
50543W        W15528  14.762  21.006   0.774
50544W        W15529  12.638  33.094  11.137
50545W        W15530  18.690  23.158  13.725
50546W        W15531  42.569   4.351   4.106
50547W        W15532   6.746  37.946  14.422
50548W        W15533  32.926  34.934   1.625
50549W        W15534  31.392  16.237  14.710
50550W        W15535  33.404  30.915  11.459
50551W        W15536  12.348   4.983  12.055
50552W        W15537  33.404  36.156   3.233
50553W        W15538  31.267  37.939   4.561
50554W        W15539  12.814  43.285  12.587
50555W        W15540   5.275  40.883   0.902
50556W        W15541  41.839  17.603  10.589
50557W        W15542   3.175  33.878  11.650
50558W        W15543  21.042  28.668   0.663
50559W        W15544   8.179   1.361   4.369
50560W        W15545  22.430  31.826   2.827
50561W        W15546   5.521   9.838  12.862
50562W        W15547   6.522  26.532   1.295
50563W        W15548  24.047   4.423  10.918
50564W        W15549  10.649  27.914  12.889
50565W        W15550   7.456  27.088   4.143
50566W        W15551   5.796  11.800   3.885
50567W        W15552   2.120  44.771   1.936
50568W        W15553  32.532  43.427  10.729
50569W        W15554   5.300   2.898   0.388
50570W        W15555  17.491  37.422  13.769
50571W        W15556  25.459  42.772   4.666
50572W        W15557  41.980   1.434   0.372
50573W        W15558  36.633   9.570  13.584
50574W        W15559  31.718  15.170  14.570
50575W        W15560  34.130  31.424   2.883
50576W        W15561   6.678  11.334  12.452
50577W        W15562  12.069  12.736  14.720
50578W        W15563  28.182   8.790  14.542
50579W        W15564  24.666   2.917   2.425
50580W        W15565  17.148  15.984  14.024
50581W        W15566  15.642  26.586   2.296
50582W        W15567  29.495  44.488  14.988
50583W        W15568  13.351  37.912  12.147
50584W        W15569  17.387  24.246  11.651
50585W        W15570  12.573  25.056  10.669
50586W        W15571  30.559  32.078   1.145
50587W        W15572  31.626  39.233   3.531
50588W        W15573  31.543  12.370  14.020
50589W        W15574  27.453  10.683  14.534
50590W        W15575  34.271  26.727  14.456
50591W        W15576  35.500   0.473  13.816
50592W        W15577   8.359  14.544   0.371
50593W        W15578  13.892   1.375   4.542
50594W        W15579  13.298  43.995  12.385
50595W        W15580  25.012  44.393  11.970
50596W        W15581  10.175  19.087   3.572
50597W        W15582  39.411   3.679   3.590
50598W        W15583  22.440  35.643  14.380
50599W        W15584  38.769   4.629  12.016
50600W        W15585  37.344  23.055   2.642
50601W        W15586  29.175  12.551  10.839
50602W        W15587  29.481  26.905  11.368
50603W        W15588  31.455  15.889  10.565
50604W        W15589  37.558  25.765   1.351
50605W        W15590  16.564  31.622   4.395
50606W        W15591  23.053  23.918   4.614
50607W        W15592  37.675  26.586   9.959
50608W        W15593  20.716  43.214   3.981
50609W        W15594  28.914   5.309  12.398
50610W        W15595  14.228  44.309  10.602
50611W        W15596  20.544  10.301   1.543
50612W        W15597  42.307   7.128  11.168
50613W        W15598   1.950   0.810   4.135
50614W        W15599  39.146   7.626  10.710
50615W        W15600   7.952   9.336   4.956
50616W        W15601  14.727  12.037   0.647
50617W        W15602  34.818  44.837   1.553
50618W        W15603  19.660  32.574   1.676
50619W        W15604  18.182  28.885   2.295
50620W        W15605  16.312  34.011   2.604
50621W        W15606   7.153  22.508  14.120
50622W        W15607  19.709  30.243   0.322
50623W        W15608   7.118  17.759   0.411
50624W        W15609  12.242  34.949   0.414
50625W        W15610  39.618  42.368  12.720
50626W        W15611   2.976  23.837   0.590
50627W        W15612  32.474  40.068  12.960
50628W        W15613   1.390  14.356   0.574
50629W        W15614   3.717  38.017  12.995
50630W        W15615  41.974  40.722  14.851
50631W        W15616   3.917  17.557   4.262
50632W        W15617  12.797  17.533   1.773
50633W        W15618   7.388  40.534   2.584
50634W        W15619  12.543   2.235   0.085
50635W        W15620  24.204  20.294   2.263
50636W        W15621  10.139  36.606  14.967
50637W        W15622  38.951  34.593   1.409
50638W        W15623   2.786  17.147  14.294
50639W        W15624  10.115  22.793  14.013
50640W        W15625  32.895  43.872  14.896
50641W        W15626   4.159  41.762   3.266
50642W        W15627   3.345  37.075  13.399
50643W        W15628  31.376  25.908   2.655
50644W        W15629   7.694  15.042   0.661
50645W        W15630  33.352  20.802  13.567
50646W        W15631  16.603   6.690  13.872
50647W        W15632  16.493  17.235  14.859
50648W        W15633   5.728  18.790   3.502
50649W        W15634  36.104  15.003   3.733
50650W        W15635   8.829  41.424   3.278
50651W        W15636  13.569  25.821   0.415
50652W        W15637  11.861  17.775   3.140
50653W        W15638  21.567  30.572  12.560
50654W        W15639  19.674  15.964   1.812
50655W        W15640  20.499  42.521   1.726
50656W        W15641  28.886   9.424   0.752
50657W        W15642  25.595  35.677   3.188
50658W        W15643  32.452   1.748   1.392
50659W        W15644   7.053  23.113   4.277
50660W        W15645   7.250   3.803   5.396
50661W        W15646  35.181  34.923   0.179
50662W        W15647   4.938   1.835   4.890
50663W        W15648  29.972  42.025   4.539
50664W        W15649   3.818  26.734   2.258
50665W        W15650  27.393   1.987  11.841
50666W        W15651   4.455  23.051   3.301
50667W        W15652   1.957  13.849   2.036
50668W        W15653   0.406   2.743   2.635
50669W        W15654  26.973   4.326  13.363
50670W        W15655  23.827   8.734   4.602
50671W        W15656  34.404  14.553   4.243
50672W        W15657  17.920  27.059  10.181
50673W        W15658  29.538  27.134  14.945
50674W        W15659  25.426  39.291  12.737
50675W        W15660  16.585  21.099  14.372
50676W        W15661  41.941  43.925  11.201
50677W        W15662  22.479  32.657  13.985
50678W        W15663  31.966   2.183   0.436
50679W        W15664   2.335  19.709   0.718
50680W        W15665  19.738  21.578   0.992
50681W        W15666  17.551  39.736   4.460
50682W        W15667  27.291  27.351   4.435
50683W        W15668  19.415  14.168  11.628
50684W        W15669  12.586  34.348   1.256
50685W        W15670  25.882   8.183  10.812
50686W        W15671   9.021  33.630   1.247
50687W        W15672  41.790   5.029  12.041
50688W        W15673  13.003  31.352  13.828
50689W        W15674  32.518  43.817   1.633
50690W        W15675  39.452   1.163  12.506
50691W        W15676  14.911  30.567   4.314
50692W        W15677  41.767  15.093   4.524
50693W        W15678  33.883   8.342   0.306
50694W        W15679  27.525   8.189   3.534
50695W        W15680   6.320   3.486  12.358
50696W        W15681  44.195  10.905  14.840
50697W        W15682   8.178  29.072   4.025
50698W        W15683  26.758  21.527   0.855
50699W        W15684  14.395  26.208  12.693
50700W        W15685  12.886  32.045  14.931
50701W        W15686  36.912  31.854  12.498
50702W        W15687  10.031   8.448  10.257
50703W        W15688  38.713  38.765  11.603
50704W        W15689   3.823  29.831   4.509
50705W        W15690  43.913  12.794   4.490
50706W        W15691  27.117  16.169   2.973
50707W        W15692  29.595  14.285  14.847
50708W        W15693  43.802  26.653  11.121
50709W        W15694   0.738   1.829   0.760
50710W        W15695  20.300   8.188   3.734
50711W        W15696   8.864  39.989  12.120
50712W        W15697  24.648  36.099   4.629
50713W        W15698  31.155   4.350  14.106
50714W        W15699  13.761  35.101   2.289
50715W        W15700  26.537  37.662   4.294
50716W        W15701  17.667   5.234   2.371
50717W        W15702  27.818  43.846  13.346
50718W        W15703  16.405  26.978  14.899
50719W        W15704  23.659  23.486   2.218
50720W        W15705  22.338  16.795   2.190
50721W        W15706  39.716  42.670   0.496
50722W        W15707   0.285  32.003   2.915
50723W        W15708  18.745   4.059  11.117
50724W        W15709  35.730   3.942  13.626
50725W        W15710  36.049   7.548   2.314
50726W        W15711   2.410   4.667  10.776
50727W        W15712   4.302  14.246  13.066
50728W        W15713  36.891  12.454   3.733
50729W        W15714   5.972  24.011   2.974
50730W        W15715  31.625  26.592  14.334
50731W        W15716  34.005  13.285   4.245
50732W        W15717  24.053  29.355  12.906
50733W        W15718  12.723  25.970   3.083
50734W        W15719  20.012  30.877  12.964
50735W        W15720  26.998  14.595   4.611
50736W        W15721  28.565  30.708   4.158
50737W        W15722  42.209  15.661  14.464
50738W        W15723  10.253  15.601   4.183
50739W        W15724  24.930  26.601  12.494
50740W        W15725  41.554  38.446  14.633
50741W        W15726   9.312  32.861   2.766
50742W        W15727  10.895  32.317  13.382
50743W        W15728  11.251  24.102  12.905
50744W        W15729   9.352  19.985   1.410
50745W        W15730  42.421  16.350   2.747
50746W        W15731  29.092   2.139  13.985
50747W        W15732  33.374  30.922   3.351
50748W        W15733   8.594  30.978  14.362
50749W        W15734  41.026   9.802   5.087
50750W        W15735  11.879  19.544   0.993
50751W        W15736  13.684  14.507  10.680
50752W        W15737  20.781   1.346   2.637
50753W        W15738  12.568  33.952  14.858
50754W        W15739   9.685  39.610  11.622
50755W        W15740  26.991   4.019   2.674
50756W        W15741   2.937  42.930   4.974
50757W        W15742  25.246  38.449   3.175
50758W        W15743  37.336  42.658   3.292
50759W        W15744   6.712   4.994   1.293
50760W        W15745  44.331  10.269  13.410
50761W        W15746  35.931  13.543   0.123
50762W        W15747  15.157  24.287  14.423
50763W        W15748  32.644   7.816   0.261
50764W        W15749  40.694  15.302  14.036
50765W        W15750  13.073  31.145  12.904
50766W        W15751  41.939   8.744   1.885
50767W        W15752   2.754  11.568   4.199
50768W        W15753  39.068  40.708  14.872
50769W        W15754  29.136  44.455   2.220
50770W        W15755  41.358  25.522   0.045
50771W        W15756   1.100  20.738   3.435
50772W        W15757  19.344  36.828  12.629
50773W        W15758  44.770  36.934  13.807
50774W        W15759  34.341  44.997   1.372
50775W        W15760   0.317  27.206  11.323
50776W        W15761  34.615  40.100  12.464
50777W        W15762  31.405  31.048  11.492
50778W        W15763  15.759  15.846   4.149
50779W        W15764  21.265  44.521  14.867
50780W        W15765  16.641  25.615  11.419
50781W        W15766  10.764  19.756   4.598
50782W        W15767  32.076  17.353  13.475
50783W        W15768  43.875   3.803  11.602
50784W        W15769  28.827  17.331   1.411
50785W        W15770  28.945   7.309   1.586
50786W        W15771  20.626  18.108  11.629
50787W        W15772  18.038  19.281  14.469
50788W        W15773  18.504  27.590   2.241
50789W        W15774  19.003   5.259   1.420
50790W        W15775   0.915  16.017   3.704
50791W        W15776  37.140  15.510  11.121
50792W        W15777  40.334   6.686   1.378
50793W        W15778  39.914  17.108   1.755
50794W        W15779  27.336  38.017   0.214
50795W        W15780  28.140   1.473  12.828
50796W        W15781  36.459  18.521  12.307
50797W        W15782   3.197  10.387  13.498
50798W        W15783  13.764  12.173   1.444
50799W        W15784  24.240  43.249  11.166
50800W        W15785  34.560   1.780   1.935
50801W        W15786  28.044  13.618   2.962
50802W        W15787   0.960  39.822  14.087
50803W        W15788  33.386  26.585   3.064
50804W        W15789   2.792  22.488   0.382
50805W        W15790  36.486  16.069   0.770
50806W        W15791   2.355  35.124  12.014
50807W        W15792  35.409   8.418   1.876
50808W        W15793   8.063  10.532   4.085
50809W        W15794  13.350   8.769  11.115
50810W        W15795  24.739  37.353  12.278
50811W        W15796  43.401   3.890   0.404
50812W        W15797  12.115  12.261  14.979
50813W        W15798   9.519  15.947  14.704
50814W        W15799   6.525  32.665   3.255
50815W        W15800  16.070  31.083   4.075
50816W        W15801  12.787   0.600  12.052
50817W        W15802  31.083   6.882  12.008
50818W        W15803   5.302  28.118  11.640
50819W        W15804   0.694  10.646   1.333
50820W        W15805  15.727  29.128   3.072
50821W        W15806  27.701  11.606   3.356
50822W        W15807   0.245  40.822  13.884
50823W        W15808  29.606  35.373   1.946
50824W        W15809  25.500  43.343   1.438
50825W        W15810  16.596   7.869  12.587
50826W        W15811  27.948  42.432  12.094
50827W        W15812  44.861   3.823   2.246
50828W        W15813  42.771  23.678  13.890
50829W        W15814  12.095  15.317  13.914
50830W        W15815  17.341  25.719   3.354
50831W        W15816  40.479  30.913   3.655
50832W        W15817   1.746  38.058  11.989
50833W        W15818   7.911  27.642  14.871
50834W        W15819  34.562  39.575   3.718
50835W        W15820  37.930  11.658  13.420
50836W        W15821  28.266  22.335   3.752
50837W        W15822  19.832   2.889   1.137
50838W        W15823  12.039  33.378  11.176
50839W        W15824  41.669  27.559   5.024
50840W        W15825  34.602  42.228  14.337
50841W        W15826  16.542  26.085   4.523
50842W        W15827  39.230   9.870  12.881
50843W        W15828   3.249  14.648  12.817
50844W        W15829  10.697  43.491  11.805
50845W        W15830  32.042   4.731  10.334
50846W        W15831   5.959  33.028   1.477
50847W        W15832  26.224  11.484   0.236
50848W        W15833  19.599  19.699   1.879
50849W        W15834  30.486   9.766   2.520
50850W        W15835  11.442  44.345   2.276
50851W        W15836  44.535  18.105  12.458
50852W        W15837  38.459  10.381  12.957
50853W        W15838   4.299  19.309   0.393
50854W        W15839  27.049  22.463   2.557
50855W        W15840   4.710   5.297   0.180
50856W        W15841  25.818  37.703  14.967
50857W        W15842   9.254  37.391  11.975
50858W        W15843  26.200  24.244   4.489
50859W        W15844  13.389  21.014   3.244
50860W        W15845  11.446  24.702   3.569
50861W        W15846  20.113  27.723   4.310
50862W        W15847  38.158  43.447   4.241
50863W        W15848   2.148  40.990   0.765
50864W        W15849  11.671  30.494   4.635
50865W        W15850  18.512  34.991  10.419
50866W        W15851  21.292  22.345   2.711
50867W        W15852   5.712  23.266  11.992
50868W        W15853  28.587  18.976  11.389
50869W        W15854  24.007  13.878   4.079
50870W        W15855  43.198  24.645   4.185
50871W        W15856  43.471  32.671  10.360
50872W        W15857  33.331  41.674   3.749
50873W        W15858  23.967  34.969  14.764
50874W        W15859  36.051  24.913  12.155
50875W        W15860   6.991  14.436   0.693
50876W        W15861  36.473  22.499   2.765
50877W        W15862  13.340  10.329   4.122
50878W        W15863  21.511  21.048  10.789
50879W        W15864  17.617  16.764  12.874
50880W        W15865  23.927  28.645   0.064
50881W        W15866  30.618  33.155  11.188
50882W        W15867   9.150   1.520   3.849
50883W        W15868  17.605  43.724  10.606
50884W        W15869  25.563   3.371   3.338
50885W        W15870  31.067   7.233   2.764
50886W        W15871   9.446  42.054  13.436
50887W        W15872   9.811   0.352   2.571
50888W        W15873  14.479  25.314   2.231
50889W        W15874  15.104  26.770  14.948
50890W        W15875  28.093  20.534  13.672
50891W        W15876  28.654  35.184   2.125
50892W        W15877  27.643  30.395   1.298
50893W        W15878   9.724  14.724  14.409
50894W        W15879  36.999   8.635   3.217
50895W        W15880  25.765  14.960  12.902
50896W        W15881   0.907  14.149   4.128
50897W        W15882  44.853  33.992  11.397
50898W        W15883  41.891  24.309   4.881
50899W        W15884   0.853  24.488   0.946
50900W        W15885  43.746   0.269   3.200
50901W        W15886  19.199   6.241   1.341
50902W        W15887  19.260  38.707   0.380
50903W        W15888  37.386  28.705   4.515
50904W        W15889  20.210   8.321   1.590
50905W        W15890   7.352  41.761  12.482
50906W        W15891  29.651  33.432  12.612
50907W        W15892  25.910  23.061   3.804
50908W        W15893  25.960  23.752  14.721
50909W        W15894  41.386   8.303   2.296
50910W        W15895  37.385   6.527   1.783
50911W        W15896  10.246  14.391   3.683
50912W        W15897  28.090  18.683   3.171
50913W        W15898   5.662  32.677   2.245
50914W        W15899  15.100  26.061   1.727
50915W        W15900   3.480   4.275   3.634
50916W        W15901  41.947  18.847  11.093
50917W        W15902   1.415  26.557  10.779
50918W        W15903  31.439  14.052   4.599
50919W        W15904  21.651   6.310  14.298
50920W        W15905  41.709  22.311  11.912
50921W        W15906  25.430  19.775  14.693
50922W        W15907  10.637  13.143  11.343
50923W        W15908  11.734  36.825  10.818
50924W        W15909  18.194   8.220  13.686
50925W        W15910  32.883  20.621  11.592
50926W        W15911  16.283  32.102   2.356
50927W        W15912  16.678   0.440   0.339
50928W        W15913  23.514  12.751  10.649
50929W        W15914   2.808   5.300   4.110
50930W        W15915  27.504  12.159   0.878
50931W        W15916  34.598  24.078   4.105
50932W        W15917  25.026  35.032   2.101
50933W        W15918  43.498  30.069   1.392
50934W        W15919  12.270  35.160  11.258
50935W        W15920  28.111  42.539   2.713
50936W        W15921  43.212  29.102  13.922
50937W        W15922  29.502  34.630  11.523
50938W        W15923  10.864   1.640   3.383
50939W        W15924  14.860   6.953  12.597
50940W        W15925   0.387  43.528  13.047
50941W        W15926  42.293  11.885   3.613
50942W        W15927  25.902   4.841  11.923
50943W        W15928  23.395   9.561   3.726
50944W        W15929  11.839   3.749  11.121
50945W        W15930  24.909  39.371  13.548
50946W        W15931  43.220   2.796  12.636
50947W        W15932  25.496  30.528  12.526
50948W        W15933  39.523  36.163  14.020
50949W        W15934  38.286  33.861   1.625
50950W        W15935   5.344  14.082  13.052
50951W        W15936  41.967  30.845  12.515
50952W        W15937  43.294  31.258   0.887
50953W        W15938  36.165  38.808   4.162
50954W        W15939  16.645  20.710   1.136
50955W        W15940  41.352  19.837  12.383
50956W        W15941  20.233  17.059   3.309
50957W        W15942  19.240  24.175   4.433
50958W        W15943  30.172   3.850  11.578
50959W        W15944  13.398   9.570  14.915
50960W        W15945  34.635  18.238   4.905
50961W        W15946   6.414  34.284  11.524
50962W        W15947  40.331  38.937   2.085
50963W        W15948  30.095   2.467  14.627
50964W        W15949   1.379   4.402  12.040
50965W        W15950  24.163  34.146  14.465
50966W        W15951   2.461   8.584   0.806
50967W        W15952   4.061  40.908   2.888
50968W        W15953  26.799  38.758  12.020
50969W        W15954   7.885  23.065  14.450
50970W        W15955   8.274  38.549  12.126
50971W        W15956  21.073  24.001   0.901
50972W        W15957  29.405  29.044  13.462
50973W        W15958  25.279   6.289   4.122
50974W        W15959  36.555  43.075  10.923
50975W        W15960   7.964   6.512  14.026
50976W        W15961   4.424  41.862  13.367
50977W        W15962  33.634   3.250  12.539
50978W        W15963  19.373   7.161   1.383
50979W        W15964   3.643  20.575   1.654
50980W        W15965  44.500  30.091  12.314
50981W        W15966   2.697  39.766  12.937
50982W        W15967  44.983   3.878   0.879
50983W        W15968  24.670  18.015  12.938
50984W        W15969  10.564  10.137  12.092
50985W        W15970  38.883   2.729   3.045
50986W        W15971  19.678  12.242  12.885
50987W        W15972  33.802  29.657  10.303
50988W        W15973  14.080  39.999   4.165
50989W        W15974  12.455  10.371   0.204
50990W        W15975  11.313  32.286   1.885
50991W        W15976   6.766  27.037   1.862
50992W        W15977   6.233  13.410  11.191
50993W        W15978  23.103  40.304  14.811
50994W        W15979  16.709  11.876   1.169
50995W        W15980   3.241   8.859   0.356
50996W        W15981  32.885  23.207   2.785
50997W        W15982  14.299  16.758   2.947
50998W        W15983  23.925  31.019   5.065
50999W        W15984   1.000   6.212  14.349
51000W        W15985  19.143   4.650  12.225
51001W        W15986   9.518   2.711  11.030
51002W        W15987   5.135  27.675  12.645
51003W        W15988  13.555   6.746  11.053
51004W        W15989  11.645   2.970   5.242
51005W        W15990  35.994  31.165  12.563
51006W        W15991  14.422  29.156   4.505
51007W        W15992  19.064   0.858   1.758
51008W        W15993  32.729  26.100   3.152
51009W        W15994  17.315  18.396  11.974
51010W        W15995   6.398  12.352  14.449
51011W        W15996   7.292  29.117   3.916
51012W        W15997  40.183  44.974   4.701
51013W        W15998   1.475   0.454  12.776
51014W        W15999  40.329  42.002  10.697
51015W        W16000   1.033  42.501  14.417
51016W        W16001  33.445   3.341  12.069
51017W        W16002  30.703  41.363   1.812
51018W        W16003  11.621  27.886   4.244
51019W        W16004  42.146  41.216  14.883
51020W        W16005  17.248   2.706  14.335
51021W        W16006  20.533  12.229   2.314
51022W        W16007  27.569   1.452   1.457
51023W        W16008  41.034  20.731   2.359
51024W        W16009  22.713  42.714   4.681
51025W        W16010  11.674   6.625   4.546
51026W        W16011  19.134  27.574   1.268
51027W        W16012  34.485  19.778  14.745
51028W        W16013   1.340  10.258   4.492
51029W        W16014  22.704   1.806  14.241
51030W        W16015  42.150  18.233   4.061
51031W        W16016  38.128  26.517  10.220
51032W        W16017   4.222  36.574  13.737
51033W        W16018  37.236  43.576   3.279
51034W        W16019  32.845  38.621   1.938
51035W        W16020  12.172  14.219   2.244
51036W        W16021  29.606   3.308   2.122
51037W        W16022  40.337   1.794  11.159
51038W        W16023  30.385   6.940   4.663
51039W        W16024  33.690  32.834   0.831
51040W        W16025  20.906  43.967  12.711
51041W        W16026  16.716   2.341   4.871
51042W        W16027  19.649  34.654  10.478
51043W        W16028  40.864  23.519  13.874
51044W        W16029  13.720  41.313  11.388
51045W        W16030  33.015  20.843   1.234
51046W        W16031  40.672  38.492   1.999
51047W        W16032  29.110  30.715  13.995
51048W        W16033  40.863  21.595  13.375
51049W        W16034  20.485  44.779   2.961
51050W        W16035  16.236  43.898   0.068
51051W        W16036  19.139  26.439   2.096
51052W        W16037  29.086   3.089  10.748
51053W        W16038  25.500  12.428   0.354
51054W        W16039  31.475  22.858  13.035
51055W        W16040  22.978  39.537  13.423
51056W        W16041  38.472   9.152   4.818
51057W        W16042  27.831  22.335   1.945
51058W        W16043  12.166  38.590   2.711
51059W        W16044  40.536  33.109   4.819
51060W        W16045   9.415  37.534  12.510
51061W        W16046  27.934  28.996  12.970
51062W        W16047  24.740   4.418   1.760
51063W        W16048   2.956  27.046  14.212
51064W        W16049   3.551  42.946  14.518
51065W        W16050  10.173  38.042   2.673
51066W        W16051   1.247  20.398   2.492
51067W        W16052  32.790  10.636  14.286
51068W        W16053   8.290  43.196  13.000
51069W        W16054  21.934  27.075   2.278
51070W        W16055   2.540  13.930   4.152
51071W        W16056  21.089  39.829   4.323
51072W        W16057  15.485   3.004   3.228
51073W        W16058  26.253  38.526   2.231
51074W        W16059   7.518  29.953  12.065
51075W        W16060   7.637   7.242   3.773
51076W        W16061  29.460  22.506  12.910
51077W        W16062   8.062  17.031   3.737
51078W        W16063  12.826  43.182   2.609
51079W        W16064  16.272  38.014   2.173
51080W        W16065  37.065  10.251  14.624
51081W        W16066  13.185   7.070   3.387
51082W        W16067  11.238  32.334  11.637
51083W        W16068  31.407  12.515  11.499
51084W        W16069  29.413  35.418   0.427
51085W        W16070   3.341  23.102  12.205
51086W        W16071  30.089  35.518   1.184
51087W        W16072  18.509  21.872   2.794
51088W        W16073  21.141   4.784  11.358
51089W        W16074  43.284   2.412  13.969
51090W        W16075  34.512  21.003   3.202
51091W        W16076  17.665  28.504  14.188
51092W        W16077  14.348  18.070   2.371
51093W        W16078  11.275  43.278  10.997
51094W        W16079  19.090  32.432   0.387
51095W        W16080  34.371  10.935  10.608
51096W        W16081   3.753  42.409   2.763
51097W        W16082  14.606  38.545   4.709
51098W        W16083   2.429  35.530  14.827
51099W        W16084   2.745   1.424   1.708
51100W        W16085  34.271  42.505  12.663
51101W        W16086  44.500   2.245   3.687
51102W        W16087  18.350  22.720  14.846
51103W        W16088  36.507   1.949  13.348
51104W        W16089  35.012  43.797  12.600
51105W        W16090  12.822  12.734   3.336
51106W        W16091  37.677  30.157   2.764
51107W        W16092   9.119  32.097  11.422
51108W        W16093  11.492  30.087  14.769
51109W        W16094  33.074  35.895  13.872
51110W        W16095   0.192  11.396   4.824
51111W        W16096  27.604  42.679   1.891
51112W        W16097  16.192  21.293  14.614
51113W        W16098  43.982  29.670  13.436
51114W        W16099   8.493   7.652  13.329
51115W        W16100  23.068  43.196   2.639
51116W        W16101   0.071  18.749   2.322
51117W        W16102  29.395   7.235  12.464
51118W        W16103  17.007  24.919  12.107
51119W        W16104   5.938  12.141   0.521
51120W        W16105  32.964  10.186  12.908
51121W        W16106  21.981  23.192   4.179
51122W        W16107  24.407  25.993   1.622
51123W        W16108  21.753   8.940  12.930
51124W        W16109  19.174  38.817  13.833
51125W        W16110  22.972  21.701   0.196
51126W        W16111  16.328   8.535  14.213
51127W        W16112  16.943  22.158  13.297
51128W        W16113  19.726  18.442  12.132
51129W        W16114  15.845  12.202  12.506
51130W        W16115  16.705  13.097  11.567
51131W        W16116  28.656  13.609  14.441
51132W        W16117   4.489   8.840  12.962
51133W        W16118   8.422  30.065  13.355
51134W        W16119  17.141  28.716  10.003
51135W        W16120  38.859  32.495  13.038
51136W        W16121  41.632  40.572  11.950
51137W        W16122   3.051   5.303   0.488
51138W        W16123  35.214  11.447   4.413
51139W        W16124  24.562  35.368   0.364
51140W        W16125  12.934  24.835  13.974
51141W        W16126  44.873  17.099   4.572
51142W        W16127  24.690  20.249   3.921
51143W        W16128  20.351   0.846  14.389
51144W        W16129  14.655  30.129   2.617
51145W        W16130  37.431   6.163  12.245
51146W        W16131  29.761  42.289  13.846
51147W        W16132  12.929  19.771   0.275
51148W        W16133  28.748  11.579  14.938
51149W        W16134  38.038  12.773  13.990
51150W        W16135   5.437  33.637   3.590
51151W        W16136  17.792   0.784  11.177
51152W        W16137  44.793  28.695   2.270
51153W        W16138  10.114  41.577  11.665
51154W        W16139  17.563   2.751  11.201
51155W        W16140  35.106  10.642   2.858
51156W        W16141  29.956   0.210  14.980
51157W        W16142  41.854   9.162   3.150
51158W        W16143  39.338  18.188   5.548
51159W        W16144  10.157  20.012  12.444
51160W        W16145  14.231  38.908   0.743
51161W        W16146  27.972  35.987   2.371
51162W        W16147  37.396   5.778  14.580
51163W        W16148  23.891  16.987   0.496
51164W        W16149  25.419  40.410  10.776
51165W        W16150  33.284  11.880  12.927
51166W        W16151  31.574  44.782  14.031
51167W        W16152  32.309  28.644   3.975
51168W        W16153   1.994  33.535   1.369
51169W        W16154   0.878  41.052   0.393
51170W        W16155  15.253  29.155  12.060
51171W        W16156  31.908  43.034   2.595
51172W        W16157  23.536  16.264   1.218
51173W        W16158  20.257   9.180   3.684
51174W        W16159  28.400  21.815   0.834
51175W        W16160  13.080  16.930   2.313
51176W        W16161   9.838   3.843  14.753
51177W        W16162  25.133  28.479  13.078
51178W        W16163  29.440  39.024  12.463
51179W        W16164   0.400  37.166   1.094
51180W        W16165  17.001  20.670   0.196
51181W        W16166  38.668  35.558   5.380
51182W        W16167   1.759  28.441  12.149
51183W        W16168   6.643  18.166  14.778
51184W        W16169  10.828  18.869   0.402
51185W        W16170  43.957  30.161  11.105
51186W        W16171   4.703   0.278  11.550
51187W        W16172  38.513  23.002   0.922
51188W        W16173  33.290  31.782   9.959
51189W        W16174  43.951  44.510   4.281
51190W        W16175   0.471   9.270  14.434
51191W        W16176   8.311  25.506   1.277
51192W        W16177   6.597   5.519   1.304
51193W        W16178  40.147  15.517  14.494
51194W        W16179  25.303  39.921  14.043
51195W        W16180   8.631  36.029   0.560
51196W        W16181  13.255  26.023   3.886
51197W        W16182  23.094   0.596  14.527
51198W        W16183  10.590  37.596  11.500
51199W        W16184  41.945   1.346   3.119
51200W        W16185  27.271   9.898   2.838
51201W        W16186   0.200  31.873   3.407
51202W        W16187  35.359  16.271   1.705
51203W        W16188  30.786  20.330   3.103
51204W        W16189  12.895   9.372  14.466
51205W        W16190   1.055   5.919  12.081
51206W        W16191   9.204  14.775   3.240
51207W        W16192  24.460  16.301  11.510
51208W        W16193  43.962  16.614   2.403
51209W        W16194  38.313   8.233  10.476
51210W        W16195  19.335   4.198   2.158
51211W        W16196  41.804   4.215   2.953
51212W        W16197  26.742  34.401  13.446
51213W        W16198  36.357   4.861  12.866
51214W        W16199  22.513  17.077   0.412
51215W        W16200  29.382  38.526   0.743
51216W        W16201  27.119   5.721  13.032
51217W        W16202  10.919   3.281   2.175
51218W        W16203  26.575  38.562   3.656
51219W        W16204  33.377   1.764   0.876
51220W        W16205  29.270  16.761  13.486
51221W        W16206  18.178   6.197  13.935
51222W        W16207  34.541  43.925  12.366
51223W        W16208  44.071   8.209  10.487
51224W        W16209  29.509  20.151  14.764
51225W        W16210  24.424  32.023   0.976
51226W        W16211   9.722  34.619  12.585
51227W        W16212  16.497  38.983   2.945
51228W        W16213  44.730  30.456  10.653
51229W        W16214  17.814  14.190   1.825
51230W        W16215  14.656   3.473  13.268
51231W        W16216  14.006   7.189   1.413
51232W        W16217  19.449  29.394   5.024
51233W        W16218  18.338  34.603  13.545
51234W        W16219  44.776  18.136   0.325
51235W        W16220  36.891  15.120   0.773
51236W        W16221   1.936  44.003  11.670
51237W        W16222  39.711  15.780  12.863
51238W        W16223  40.567  37.569   2.608
51239W        W16224  42.262  25.556  13.018
51240W        W16225   4.861  14.611   1.248
51241W        W16226  14.897   8.276  13.953
51242W        W16227  29.962  14.514  13.811
51243W        W16228  12.288  14.957  11.080
51244W        W16229   6.902   3.793   3.398
51245W        W16230   2.466  12.827   0.468
51246W        W16231   8.456  12.700   2.218
51247W        W16232  25.622  27.130  10.662
51248W        W16233  29.247  28.308   0.168
51249W        W16234  37.293  29.628   3.555
51250W        W16235  34.906  17.329  10.315
51251W        W16236  20.017   9.654   3.760
51252W        W16237  13.223  16.089  12.091
51253W        W16238  37.601   1.918  14.056
51254W        W16239  26.147   1.981  13.998
51255W        W16240  20.974   1.391  12.069
51256W        W16241  34.504   0.455   4.466
51257W        W16242  43.950  23.234  11.955
51258W        W16243  34.010   2.642  14.649
51259W        W16244  39.239  24.045   3.040
51260W        W16245   2.274  38.583   2.897
51261W        W16246   0.582   3.952  12.068
51262W        W16247  24.962  23.396   2.372
51263W        W16248  34.458  21.284   1.820
51264W        W16249  20.515  31.488  13.541
51265W        W16250  16.946  33.460  13.864
51266W        W16251   7.453  21.955   4.502
51267W        W16252  30.863   1.861   0.730
51268W        W16253  26.933   6.416   1.153
51269W        W16254  10.624  16.304   0.746
51270W        W16255  39.897   3.437  12.407
51271W        W16256  26.491  26.051   3.249
51272W        W16257  34.812  43.345  13.501
51273W        W16258   5.361  38.492   4.141
51274W        W16259  20.695  35.969   0.963
51275W        W16260  31.653  34.185  11.745
51276W        W16261  11.604   8.715  13.428
51277W        W16262  30.229   9.249  13.517
51278W        W16263  20.083  32.494   2.388
51279W        W16264  25.398  20.240   3.360
51280W        W16265  17.736  21.700  13.442
51281W        W16266  34.831  13.813   3.795
51282W        W16267  39.825   4.517   3.634
51283W        W16268  14.658   1.884   1.812
51284W        W16269  13.614  24.952   0.068
51285W        W16270  36.721  13.752   4.202
51286W        W16271   6.178  15.571  12.861
51287W        W16272  42.856  22.698  10.632
51288W        W16273  20.094  19.046   1.341
51289W        W16274  29.121  17.723   1.612
51290W        W16275  25.590   0.454  11.571
51291W        W16276   3.860   3.219  13.272
51292W        W16277  22.855  23.732  11.240
51293W        W16278  43.054  22.952   0.980
51294W        W16279   2.790  25.879  10.750
51295W        W16280  39.510  36.379  11.722
51296W        W16281  28.576  27.187  12.902
51297W        W16282  23.433  18.727   1.662
51298W        W16283  17.825   9.832  11.198
51299W        W16284  38.051   8.447  13.020
51300W        W16285  31.329  40.292   2.815
51301W        W16286  33.822  16.605  13.492
51302W        W16287  22.634  30.234  11.397
51303W        W16288  17.139  18.135   1.321
51304W        W16289   8.626  21.767  12.161
51305W        W16290  40.793  13.041  11.933
51306W        W16291  42.010  20.075   0.243
51307W        W16292  38.050  40.528  12.186
51308W        W16293  44.803  15.136  11.745
51309W        W16294  12.194  29.527   4.155
51310W        W16295  42.325  43.240   0.298
51311W        W16296   1.258  12.166   0.432
51312W        W16297  35.884  24.031  13.269
51313W        W16298  19.613  39.557  14.975
51314W        W16299  21.461  26.919  11.529
51315W        W16300  44.339  25.709   3.781
51316W        W16301  21.279  31.990  13.836
51317W        W16302  23.022   3.943   3.599
51318W        W16303  39.274  10.350  11.143
51319W        W16304  31.585   0.154   5.077
51320W        W16305  31.692  42.360  14.758
51321W        W16306  39.316  40.766   1.925
51322W        W16307  15.623  38.363   2.269
51323W        W16308  16.510  37.786   0.344
51324W        W16309  26.966  41.398   0.550
51325W        W16310  11.380  40.014   1.830
51326W        W16311  14.344  18.576   2.340
51327W        W16312  19.038  26.700   3.193
51328W        W16313  22.083  16.300   2.884
51329W        W16314   0.213  12.076   2.943
51330W        W16315  33.909  28.553   4.188
51331W        W16316  28.949   0.430   0.912
51332W        W16317   7.530  35.406   2.784
51333W        W16318  15.551  44.263   0.887
51334W        W16319  19.615  11.224  12.480
51335W        W16320  12.342  34.940   4.647
51336W        W16321  24.226  29.651  12.514
51337W        W16322  44.136   7.017  11.058
51338W        W16323  43.475  37.627  13.043
51339W        W16324  39.487  44.772   3.687
51340W        W16325  38.881  10.312  14.918
51341W        W16326  41.886  24.139  14.791
51342W        W16327   9.158  18.586  13.398
51343W        W16328  38.961  16.628   1.688
51344W        W16329  12.696   9.754   3.672
51345W        W16330  43.279  28.475   4.539
51346W        W16331  41.542  22.477  11.140
51347W        W16332  25.972  22.061   0.785
51348W        W16333  24.332  17.739  10.409
51349W        W16334  14.312  23.545   0.526
51350W        W16335  31.915  21.315  13.773
51351W        W16336   5.379   0.286   3.198
51352W        W16337  37.836  41.645   1.204
51353W        W16338  37.421   6.522  12.590
51354W        W16339  19.646  41.553  12.118
51355W        W16340  31.894   5.846   3.834
51356W        W16341  19.734  12.692   4.755
51357W        W16342  16.304  21.609  13.669
51358W        W16343  37.092   3.350   3.334
51359W        W16344  10.181  17.643  14.349
51360W        W16345  44.818  33.905  14.322
51361W        W16346   7.746   5.637   1.785
51362W        W16347  16.289  20.183   4.283
51363W        W16348   2.419   9.921   1.156
51364W        W16349  23.590  37.655   4.585
51365W        W16350  31.419   3.668   2.871
51366W        W16351  27.126   0.176   4.992
51367W        W16352  18.617  10.662   1.747
51368W        W16353   7.385  28.041   2.568
51369W        W16354  23.264  24.961  14.789
51370W        W16355  31.935   8.741  13.863
51371W        W16356  42.794  36.550   3.005
51372W        W16357  35.889   9.851   2.794
51373W        W16358   5.207  24.012  14.804
51374W        W16359   1.947  25.185   2.753
51375W        W16360   3.984  24.461  12.504
51376W        W16361  18.140  23.248  14.032
51377W        W16362   2.488  29.909   4.145
51378W        W16363  22.595  33.558  12.417
51379W        W16364  11.865  17.406  10.410
51380W        W16365  19.630  36.464   1.664
51381W        W16366  38.314  43.250   0.466
51382W        W16367   8.518   4.896   2.247
51383W        W16368  28.228   7.501  10.308
51384W        W16369  25.560  26.282  13.973
51385W        W16370  30.595  16.726   3.203
51386W        W16371  32.584   1.387   4.655
51387W        W16372  38.643  21.610   0.349
51388W        W16373  26.423  12.404   4.597
51389W        W16374  30.266  17.707  13.464
51390W        W16375  36.524   6.905  12.654
51391W        W16376   0.689   8.818   3.814
51392W        W16377  22.112   8.336   2.503
51393W        W16378  24.545   4.955  14.900
51394W        W16379  10.232  25.624   4.511
51395W        W16380  23.652  35.044   4.531
51396W        W16381  28.400  37.990  10.523
51397W        W16382  11.215   4.269  10.847
51398W        W16383  19.850  34.011  13.837
51399W        W16384  17.662   8.646  12.445
51400W        W16385   3.825   8.281  13.263
51401W        W16386  19.728  17.175   1.382
51402W        W16387  44.716  40.470  10.655
51403W        W16388  15.040  34.077   2.506
51404W        W16389  16.325  10.421  12.276
51405W        W16390   6.708  23.780   2.359
51406W        W16391   4.939   9.487  11.043
51407W        W16392   6.444   7.502   0.450
51408W        W16393  41.098  10.808   4.855
51409W        W16394  44.340  14.415  11.180
51410W        W16395  12.204   4.752  13.445
51411W        W16396   5.209  22.776  10.676
51412W        W16397  11.575  39.749  14.097
51413W        W16398  18.586  42.417  13.080
51414W        W16399   1.278  30.166   2.283
51415W        W16400  35.612  22.956  12.377
51416W        W16401  26.166  26.124   1.362
51417W        W16402  39.261  34.334  10.610
51418W        W16403  40.039  14.603   4.157
51419W        W16404  36.934   4.764   1.217
51420W        W16405  19.351  27.313  13.443
51421W        W16406  32.915  28.407  12.922
51422W        W16407  43.032  10.258  13.010
51423W        W16408  11.677  21.069  11.055
51424W        W16409  19.436   6.989   3.628
51425W        W16410  24.565  41.375   2.712
51426W        W16411  29.258  36.575  11.749
51427W        W16412  38.629  19.959  11.622
51428W        W16413  25.636  10.302   3.099
51429W        W16414   4.114  15.235  11.492
51430W        W16415  14.428   2.261   4.484
51431W        W16416   3.542  22.565  14.144
51432W        W16417  24.496  16.748   4.572
51433W        W16418  43.322   5.236  13.368
51434W        W16419  35.515  30.047  12.584
51435W        W16420  34.120  29.436   0.309
51436W        W16421  15.810  15.165   3.124
51437W        W16422  13.893  16.356   4.649
51438W        W16423  22.147  16.403   3.405
51439W        W16424  20.679   8.635  13.335
51440W        W16425  26.955  30.068  12.060
51441W        W16426  37.430  10.164   4.637
51442W        W16427  42.603  13.838   2.445
51443W        W16428  40.873  32.143  11.286
51444W        W16429  22.480  16.002  14.985
51445W        W16430   9.258  20.908   3.099
51446W        W16431  30.028  28.147   2.187
51447W        W16432  37.478  17.074  12.527
51448W        W16433  31.233  26.226  13.891
51449W        W16434  14.970  11.336  13.448
51450W        W16435   2.157  18.194   0.391
51451W        W16436  28.246   2.809   5.352
51452W        W16437  14.839   1.466  12.542
51453W        W16438  29.720  14.066   2.178
51454W        W16439  13.796  16.035   4.228
51455W        W16440  14.702  37.666   3.055
51456W        W16441  37.962  16.069   2.794
51457W        W16442  20.688  21.497   1.341
51458W        W16443  12.073  27.274  14.303
51459W        W16444   1.328   1.290   3.453
51460W        W16445   8.311  43.315  11.917
51461W        W16446  41.903  12.221   0.093
51462W        W16447  19.060   6.715   2.353
51463W        W16448   4.211  28.128  12.514
51464W        W16449  24.910   7.745   4.378
51465W        W16450   0.106  29.849  14.752
51466W        W16451  35.344  43.522  10.812
51467W        W16452  12.193  13.332   3.263
51468W        W16453  42.380  31.423   3.715
51469W        W16454  18.581  43.899  13.955
51470W        W16455   3.759  10.693   4.575
51471W        W16456  44.891  11.200  11.663
51472W        W16457  25.721   1.500  13.485
51473W        W16458   7.189  12.731  10.571
51474W        W16459   8.166   4.469  13.974
51475W        W16460  13.144   1.980   4.134
51476W        W16461   0.986   8.353   0.025
51477W        W16462  33.529  32.159  10.941
51478W        W16463  39.002  10.155   1.806
51479W        W16464  17.985   2.742   4.256
51480W        W16465  43.057  22.769   3.430
51481W        W16466   3.814  13.584  12.546
51482W        W16467  35.398   9.778   0.360
51483W        W16468  25.216  22.527  12.797
51484W        W16469  40.375  32.091   2.737
51485W        W16470  36.063  29.425   0.976
51486W        W16471  23.147  14.793   3.901
51487W        W16472   4.489  35.548   2.659
51488W        W16473   3.240   9.663  14.824
51489W        W16474   9.685  43.482   3.660
51490W        W16475  38.008  36.879   3.480
51491W        W16476   6.413  38.033  12.020
51492W        W16477  29.380  14.216  11.244
51493W        W16478  14.563  44.800  13.036
51494W        W16479   7.124  38.160  13.377
51495W        W16480   5.404  13.397  13.490
51496W        W16481  11.712  32.125  13.105
51497W        W16482   8.683  15.384   5.081
51498W        W16483  26.025  34.955  11.644
51499W        W16484  21.259  13.454  14.566
51500W        W16485  38.493   0.004   4.122
51501W        W16486  23.629  20.781  10.723
51502W        W16487  36.412  37.473   5.107
51503W        W16488  40.333   9.037   1.267
51504W        W16489  14.624  43.513  12.488
51505W        W16490  40.472  39.961   1.388
51506W        W16491  40.091  35.071   1.965
51507W        W16492  42.853  38.830   2.213
51508W        W16493  21.066  17.843   3.451
51509W        W16494  23.692   4.447   2.411
51510W        W16495  19.096  30.544   2.278
51511W        W16496  38.422  15.240  11.207
51512W        W16497  28.060  17.987   4.411
51513W        W16498  23.062  24.941   3.316
51514W        W16499  43.800  10.922  13.911
51515W        W16500  29.959   9.922   1.388
51516W        W16501  14.525   2.388   1.752
51517W        W16502   1.744  14.105  12.319
51518W        W16503   4.934  34.646  12.861
51519W        W16504   5.495  21.783  10.974
51520W        W16505  30.005  23.884  14.442
51521W        W16506   6.886  10.317  11.946
51522W        W16507  23.654  13.146  12.088
51523W        W16508  42.532   4.021  11.407
51524W        W16509  25.643  30.753  12.972
51525W        W16510  28.065  17.669  14.420
51526W        W16511  18.760  34.998   4.322
51527W        W16512  40.061  20.151  13.391
51528W        W16513  22.181   0.636   0.406
51529W        W16514  36.032  19.232   2.420
51530W        W16515  26.657  18.199  14.024
51531W        W16516  28.189  29.503   4.559
51532W        W16517   5.273  26.532  10.951
51533W        W16518  34.339   4.192  10.976
51534W        W16519  15.334  29.628  12.975
51535W        W16520  34.000  44.217   1.719
51536W        W16521  18.710  44.875  10.887
51537W        W16522  15.215   9.436   1.261
51538W        W16523  14.654  34.110  12.102
51539W        W16524   9.396  19.465   1.250
51540W        W16525  37.236  23.665  14.932
51541W        W16526  33.139  30.891  12.923
51542W        W16527   0.369  11.754  11.886
51543W        W16528  35.734  32.364  12.952
51544W        W16529  30.811   0.029  12.874
51545W        W16530  20.336  43.916   2.336
51546W        W16531  27.666  23.649  10.602
51547W        W16532  29.618  28.984   5.042
51548W        W16533  40.250   3.280   4.040
51549W        W16534  35.479  25.143  11.539
51550W        W16535   3.145  37.920  11.559
51551W        W16536  38.904  20.765   2.764
51552W        W16537  19.434   3.992  11.690
51553W        W16538  40.829  18.539   1.392
51554W        W16539   9.780  19.325  11.725
51555W        W16540  27.684  21.934  10.619
51556W        W16541  14.057  33.082  14.941
51557W        W16542  18.248  14.648   4.047
51558W        W16543  15.052  20.575  12.339
51559W        W16544  36.768  40.283   2.845
51560W        W16545  10.267  42.613  14.506
51561W        W16546   0.491   3.695  13.444
51562W        W16547  35.893  32.272   2.140
51563W        W16548   1.752   2.297   2.433
51564W        W16549  12.214   4.696   3.401
51565W        W16550  36.402  34.101   3.318
51566W        W16551  16.372  31.955  13.972
51567W        W16552   2.419  10.446   3.815
51568W        W16553  33.090  35.563   0.478
51569W        W16554  32.210  44.166   9.962
51570W        W16555   4.605  16.048  14.325
51571W        W16556   3.478  31.011   1.717
51572W        W16557  44.474   9.690   1.343
51573W        W16558  24.476  41.777  14.688
51574W        W16559   9.480  17.907   0.933
51575W        W16560   4.435  24.451   2.110
51576W        W16561   9.925  16.860   1.684
51577W        W16562  12.816  29.640  14.489
51578W        W16563  12.711  37.791  11.494
51579W        W16564  15.206   3.442   4.863
51580W        W16565  22.162  36.862   1.253
51581W        W16566   7.718   3.804  13.073
51582W        W16567  29.470  30.459   2.699
51583W        W16568  29.873  17.512   2.221
51584W        W16569   3.357  36.091  12.570
51585W        W16570  42.783  36.673   4.531
51586W        W16571  23.253  25.754   2.965
51587W        W16572  38.392  37.422   2.201
51588W        W16573  26.702   6.355   4.822
51589W        W16574  19.643  10.399   4.470
51590W        W16575   8.349   9.338   3.368
51591W        W16576  16.437  22.741  11.611
51592W        W16577  27.720  16.807   2.776
51593W        W16578   7.460  38.416  14.338
51594W        W16579  36.755  40.901  12.933
51595W        W16580  18.035  19.917  13.760
51596W        W16581  15.968  37.644  11.227
51597W        W16582  25.618  42.290  13.405
51598W        W16583  11.253   2.779   1.595
51599W        W16584  30.808  37.253   0.872
51600W        W16585   9.774  37.306   2.279
51601W        W16586   9.474  11.134   4.209
51602W        W16587   2.988  23.617  10.381
51603W        W16588  19.262  11.741   2.843
51604W        W16589   9.624  39.455  13.097
51605W        W16590   7.194  27.122   2.172
51606W        W16591  40.541  11.627  14.952
51607W        W16592  32.305  41.516  13.899
51608W        W16593  24.043  39.584  14.981
51609W        W16594  13.084  26.183  14.549
51610W        W16595  27.053   0.194  11.513
51611W        W16596  15.787   3.762  13.917
51612W        W16597  35.601  30.145  13.505
51613W        W16598  37.363  15.693  12.068
51614W        W16599   1.824  11.232   0.071
51615W        W16600  32.490   3.960  14.561
51616W        W16601   1.685  35.561  11.254
51617W        W16602  20.178   7.041   4.096
51618W        W16603  11.771  31.917  10.757
51619W        W16604  22.473  37.289   1.271
51620W        W16605   4.653  42.297  10.226
51621W        W16606  32.529  16.171   4.300
51622W        W16607  12.572  16.668  14.517
51623W        W16608   5.293  21.587  12.878
51624W        W16609   6.788   8.664   2.596
51625W        W16610  15.909   5.754  13.563
51626W        W16611  18.116  34.839  14.006
51627W        W16612   1.724  40.119  12.049
51628W        W16613   1.301  23.585  13.630
51629W        W16614  21.745   1.746   3.256
51630W        W16615  38.062   3.061   0.646
51631W        W16616  16.565  23.739   0.823
51632W        W16617  19.010   3.176  13.219
51633W        W16618  41.309  23.345  11.716
51634W        W16619  28.926  22.501   1.214
51635W        W16620  32.123  34.142  11.926
51636W        W16621  28.127  19.668   4.492
51637W        W16622  35.408  39.392  14.111
51638W        W16623  29.574  22.561   3.198
51639W        W16624  43.457  29.296  13.360
51640W        W16625  11.476  31.514  13.747
51641W        W16626   0.382  12.433   0.694
51642W        W16627  38.032  22.470  12.044
51643W        W16628  35.437  36.260   3.092
51644W        W16629  34.672  28.038   2.244
51645W        W16630  37.967  29.258  11.371
51646W        W16631   7.873  29.056   2.187
51647W        W16632   0.359  33.550   1.243
51648W        W16633   0.077  38.346   0.009
51649W        W16634   3.690  25.732   0.869
51650W        W16635  29.992   7.603  14.356
51651W        W16636   2.232  30.157  11.130
51652W        W16637   1.613  44.526  11.208
51653W        W16638  34.967  19.615   4.591
51654W        W16639  15.589  26.471  11.212
51655W        W16640  13.133  38.390  13.500
51656W        W16641  38.900  24.932  10.304
51657W        W16642  28.005  31.692   2.685
51658W        W16643  31.660  21.141   1.182
51659W        W16644  10.690  10.229   1.580
51660W        W16645  23.015  21.703  13.397
51661W        W16646  20.964  21.372   2.735
51662W        W16647  35.092  11.859  13.372
51663W        W16648  42.847  22.987   0.488
51664W        W16649   3.959   1.338  13.178
51665W        W16650  32.421   2.739  13.884
51666W        W16651  38.514  41.242   1.967
51667W        W16652  38.010  12.762   3.149
51668W        W16653   7.227  20.253  11.305
51669W        W16654  18.284  17.237   1.864
51670W        W16655  39.094  19.404   4.459
51671W        W16656  10.193  30.403  14.508
51672W        W16657  11.775  11.842  14.471
51673W        W16658   4.417  19.519  10.796
51674W        W16659   0.400  27.491  14.975
51675W        W16660  16.785  44.333   1.420
51676W        W16661   9.187  16.275  14.260
51677W        W16662  13.990  37.416   1.423
51678W        W16663  20.346   7.300  10.659
51679W        W16664  26.750  37.913   0.085
51680W        W16665  41.629   3.565   0.743
51681W        W16666  23.543  42.447  12.734
51682W        W16667   1.630  27.064  12.537
51683W        W16668  43.808  42.413   1.222
51684W        W16669  37.826  25.631  14.910
51685W        W16670  21.311  11.220   0.195
51686W        W16671  28.304   4.283  10.918
51687W        W16672  34.215   1.438  11.953
51688W        W16673  11.494  27.003  11.089
51689W        W16674  14.140  43.510   4.181
51690W        W16675   6.980  23.468  14.891
51691W        W16676  38.762  18.795   4.530
51692W        W16677   1.148  40.954  14.964
51693W        W16678  41.277  17.860   2.765
51694W        W16679  15.161  43.846  14.516
51695W        W16680  29.721  34.131  11.384
51696W        W16681  14.986  22.230  14.860
51697W        W16682   3.707  32.293  11.055
51698W        W16683  39.340  41.277   4.786
51699W        W16684  44.445  35.280  12.283
51700W        W16685   8.324   7.613  12.497
51701W        W16686   5.139  23.500  11.179
51702W        W16687  19.763  30.619  13.639
51703W        W16688  40.920  40.306  12.961
51704W        W16689   9.223  37.486   3.715
51705W        W16690  19.540   2.497   2.397
51706W        W16691  30.060   4.355  11.636
51707W        W16692  25.569  31.952  13.594
51708W        W16693   9.004   5.047   2.052
51709W        W16694  12.139  11.268   2.151
51710W        W16695  42.405   0.045  11.546
51711W        W16696  19.285  29.022   3.941
51712W        W16697  13.765   9.833   4.524
51713W        W16698  20.118   8.051  12.125
51714W        W16699  20.522  30.497   2.522
51715W        W16700  16.687  27.187  14.499
51716W        W16701  24.084  40.390  12.244
51717W        W16702  13.223  25.571   4.122
51718W        W16703  42.007  26.241  13.525
51719W        W16704  37.327  42.354  10.753
51720W        W16705  43.957  16.621   0.874
51721W        W16706   0.902  10.845   1.766
51722W        W16707   5.172   0.916   1.363
51723W        W16708  41.889  35.141  12.930
51724W        W16709  19.204  19.195  14.966
51725W        W16710   1.313   1.247  14.775
51726W        W16711  42.914  41.223   5.012
51727W        W16712  36.748  33.358  11.995
51728W        W16713  30.485  23.634   2.627
51729W        W16714   4.927  28.155   1.839
51730W        W16715   1.811  41.348  14.590
51731W        W16716   9.187  13.343   4.511
51732W        W16717  39.907  11.536   0.665
51733W        W16718  39.787  13.963  10.719
51734W        W16719  39.973  36.552   4.614
51735W        W16720   3.831  40.586  12.111
51736W        W16721  15.836  15.494  11.561
51737W        W16722   6.230  16.657   3.587
51738W        W16723   0.819  10.713   4.937
51739W        W16724  37.807  33.579  10.678
51740W        W16725  31.488   9.663   0.791
51741W        W16726  24.357  44.547   2.398
51742W        W16727   8.679  12.748  13.368
51743W        W16728  10.479  27.060  12.853
51744W        W16729   0.303  16.980  14.772
51745W        W16730  28.178  28.107  11.209
51746W        W16731  29.670  13.535  12.363
51747W        W16732  43.247   8.707  13.402
51748W        W16733  44.995  21.126   4.262
51749W        W16734  11.428  36.282  14.388
51750W        W16735   5.157   5.433  14.958
51751W        W16736   4.804  13.759  11.978
51752W        W16737  26.376   5.377  11.933
51753W        W16738   7.236  37.663  14.912
51754W        W16739  40.519  19.046   3.725
51755W        W16740  42.851   3.623  11.320
51756W        W16741  41.874  13.366  14.833
51757W        W16742  40.579  16.326   0.853
51758W        W16743  12.206  39.909   3.837
51759W        W16744  32.811  20.515  13.015
51760W        W16745  26.193  11.991  12.682
51761W        W16746  20.949  12.218  11.094
51762W        W16747  28.019  27.899   4.678
51763W        W16748  40.955  44.447  12.976
51764W        W16749   0.828  18.339  10.678
51765W        W16750  26.558  11.809  13.580
51766W        W16751  13.865  13.709  11.658
51767W        W16752  13.433  11.671  10.746
51768W        W16753  21.580  22.511  13.350
51769W        W16754  27.003   2.348   0.856
51770W        W16755   6.753   4.408   2.156
51771W        W16756   5.857  10.330   1.515
51772W        W16757   2.601  12.625  11.216
51773W        W16758  10.629   6.035  14.841
51774W        W16759  43.959  28.848   1.318
51775W        W16760  42.525   5.826   0.700
51776W        W16761  40.539   0.005  14.079
51777W        W16762  14.391  32.171  14.853
51778W        W16763  39.453  12.331   0.638
51779W        W16764  19.130  20.476  12.541
51780W        W16765   6.727  41.809  14.078
51781W        W16766  33.734  33.502   2.200
51782W        W16767  17.863  27.071   1.772
51783W        W16768  42.072  17.668  13.902
51784W        W16769   7.435   4.016  12.118
51785W        W16770  41.929   1.144  13.169
51786W        W16771   7.184  14.912   0.742
51787W        W16772  42.404  12.913   0.369
51788W        W16773  28.577  40.051  11.470
51789W        W16774   7.673  24.963  14.312
51790W        W16775  10.171   6.077  11.392
51791W        W16776   4.806  27.437   4.267
51792W        W16777  12.544  16.963   3.435
51793W        W16778  39.286  35.531  12.945
51794W        W16779   1.131  12.937  11.618
51795W        W16780  31.922  41.356   1.287
51796W        W16781  42.548  15.615   0.938
51797W        W16782  23.282  36.749  12.090
51798W        W16783   8.926   6.153   2.942
51799W        W16784  29.513  22.556  11.545
51800W        W16785  12.632  44.579  11.963
51801W        W16786  30.866  17.158  14.908
51802W        W16787  17.898  44.791   0.273
51803W        W16788  24.313  26.621   4.694
51804W        W16789  24.526  29.504   4.492
51805W        W16790   7.741  26.657  10.286
51806W        W16791  18.445  28.382  11.515
51807W        W16792  41.531  20.335  10.520
51808W        W16793  11.680  40.354   1.131
51809W        W16794  39.618  22.116  11.129
51810W        W16795  33.148  26.544  14.371
51811W        W16796  20.512  16.491   1.857
51812W        W16797  23.768  31.887  12.736
51813W        W16798  39.929  28.452   1.109
51814W        W16799   3.651  34.974   1.404
51815W        W16800   0.712  27.167  12.576
51816W        W16801  16.797  14.649  14.794
51817W        W16802  36.865  19.054  11.139
51818W        W16803   0.450  13.083   4.384
51819W        W16804   4.908  24.405  10.823
51820W        W16805  11.094   1.562   1.735
51821W        W16806  22.306  24.100  13.381
51822W        W16807   5.912  33.480   4.222
51823W        W16808  21.986  43.545  12.042
51824W        W16809  15.584   0.977   2.389
51825W        W16810   8.874   8.101  14.909
51826W        W16811  13.839  12.022   3.420
51827W        W16812  39.927  18.559  14.495
51828W        W16813   6.306  27.473   4.017
51829W        W16814  40.058  20.212   3.766
51830W        W16815  20.093  31.440   3.889
51831W        W16816  21.241  37.859  12.873
51832W        W16817  12.212  23.753   1.631
51833W        W16818  29.998  24.084   3.311
51834W        W16819  38.716   4.924  11.014
51835W        W16820  28.776  44.036   3.185
51836W        W16821  16.343  40.976  12.428
51837W        W16822   4.273  38.498  13.521
51838W        W16823  35.069  32.511  11.794
51839W        W16824  12.808  42.280   2.353
51840W        W16825  28.662  17.235   3.768
51841W        W16826  12.270  16.122  14.261
51842W        W16827  19.621  15.836  14.437
51843W        W16828  38.027  38.956  12.921
51844W        W16829  13.227   2.770  14.720
51845W        W16830  38.576  40.551  13.480
51846W        W16831  38.752  13.099   3.162
51847W        W16832  23.152   9.873  13.819
51848W        W16833  34.027  29.616   1.799
51849W        W16834   7.080   0.280  13.701
51850W        W16835  18.604  18.129  12.154
51851W        W16836  43.282  23.143  12.481
51852W        W16837  18.849   3.467   3.918
51853W        W16838  16.769   4.760   4.061
51854W        W16839  13.172  20.267   0.651
51855W        W16840  33.429  30.826   3.999
51856W        W16841  17.553  32.539   3.665
51857W        W16842  39.450  12.915  11.632
51858W        W16843  19.651   9.268  12.940
51859W        W16844  44.488  17.680  11.988
51860W        W16845  19.136   4.748  14.004
51861W        W16846  15.538  30.580  12.985
51862W        W16847  15.827   9.760  10.680
51863W        W16848  19.762  29.278   4.066
51864W        W16849  40.833  33.515   0.736
51865W        W16850  30.879  19.867  10.717
51866W        W16851  31.615  44.246   2.003
51867W        W16852  12.699  11.933  11.332
51868W        W16853   7.612  11.209  13.887
51869W        W16854   6.683  17.899  13.568
51870W        W16855  26.478   9.150   4.387
51871W        W16856  16.315   1.627  11.542
51872W        W16857   2.792  34.986   1.350
51873W        W16858   6.230  20.494  14.453
51874W        W16859   5.999  23.221  14.074
51875W        W16860   4.832  14.258  10.522
51876W        W16861  15.789   8.349   2.741
51877W        W16862  31.148   6.195   2.696
51878W        W16863  25.148  16.750   0.211
51879W        W16864  44.138   5.476  13.991
51880W        W16865  31.413   4.400  10.414
51881W        W16866  30.484  11.433  10.471
51882W        W16867  19.797   8.251   3.745
51883W        W16868  22.752  44.963   0.481
51884W        W16869   6.472   8.068   1.362
51885W        W16870  41.460  21.948  13.838
51886W        W16871  39.015   6.236  13.296
51887W        W16872   7.410  17.074  11.752
51888W        W16873  34.947  17.122   0.854
51889W        W16874  16.644  17.230  12.908
51890W        W16875  36.296   6.655  13.492
51891W        W16876  14.096  15.026  14.019
51892W        W16877  36.797  44.472  10.043
51893W        W16878  40.716  24.955  14.781
51894W        W16879  16.812   1.858  13.797
51895W        W16880   3.679  38.063   3.318
51896W        W16881  10.985  13.774   3.682
51897W        W16882  16.140  15.503  11.150
51898W        W16883   0.307  39.112  13.386
51899W        W16884  36.268  13.740  10.653
51900W        W16885  38.096  15.608  11.329
51901W        W16886   9.193  18.737  14.274
51902W        W16887  24.478  25.237  14.452
51903W        W16888  36.823  42.385   2.726
51904W        W16889  27.536  16.198   4.289
51905W        W16890   1.453  15.673  10.271
51906W        W16891  42.189  17.852   0.910
51907W        W16892  17.510  32.506  13.994
51908W        W16893   8.153  25.538   0.273
51909W        W16894  13.396  30.831   2.810
51910W        W16895  25.196  30.744  14.310
51911W        W16896   6.332   8.686  12.712
51912W        W16897  23.246  19.422   4.946
51913W        W16898  44.966  29.977  10.672
51914W        W16899  21.062  23.753   4.663
51915W        W16900  15.939  24.135  11.451
51916W        W16901  10.333  11.594  11.638
51917W        W16902  41.588  43.370  12.505
51918W        W16903  38.879  13.334  12.118
51919W        W16904  32.407  33.995  12.324
51920W        W16905  14.571  14.301  12.103
51921W        W16906  40.506  15.297  13.562
51922W        W16907  35.197  21.481   0.456
51923W        W16908  22.130  20.828   3.754
51924W        W16909  33.096   5.432   3.410
51925W        W16910  23.749  15.313   0.852
51926W        W16911  27.565  22.704  11.951
51927W        W16912   0.375  44.299  13.724
51928W        W16913  31.913  31.922  11.626
51929W        W16914  40.610  23.108  10.571
51930W        W16915  29.893  37.667  12.416
51931W        W16916  35.495  28.311   2.362
51932W        W16917   6.803  33.512  13.895
51933W        W16918   2.858   0.959   1.865
51934W        W16919  17.221  36.561   0.363
51935W        W16920   9.191   9.263  10.580
51936W        W16921   2.518  13.705  12.477
51937W        W16922  13.449  14.172   0.625
51938W        W16923   2.792  34.802   3.701
51939W        W16924  36.076   9.475  13.858
51940W        W16925  38.608   0.798  12.326
51941W        W16926  13.334   9.266  13.553
51942W        W16927  44.917  40.835  14.332
51943W        W16928  13.807  24.131   4.560
51944W        W16929  38.084  25.967   3.759
51945W        W16930  11.988  33.192   1.278
51946W        W16931  41.784  19.204   2.276
51947W        W16932   4.274  40.382  14.443
51948W        W16933  15.397  35.558   1.142
51949W        W16934  44.716  38.371   3.947
51950W        W16935  42.184   5.365  10.679
51951W        W16936  38.392  16.195  11.518
51952W        W16937  42.028  12.373  10.013
51953W        W16938  43.276  26.728  12.035
51954W        W16939  38.190   2.862   1.880
51955W        W16940   2.303  39.834  14.287
51956W        W16941  16.655  13.844   2.219
51957W        W16942  41.957  33.580  11.589
51958W        W16943  12.606  43.039  11.111
51959W        W16944   7.101   8.044   3.639
51960W        W16945   8.647  33.964   1.467
51961W        W16946  41.988  36.059   1.971
51962W        W16947  38.322   2.182   3.445
51963W        W16948  23.709   5.423   0.899
51964W        W16949  16.842  39.521   2.119
51965W        W16950  21.154  22.764  10.707
51966W        W16951  29.477   1.208   4.206
51967W        W16952  17.305  40.878  11.821
51968W        W16953  20.967   4.610   3.195
51969W        W16954  11.352  41.996  13.211
51970W        W16955  40.555  15.536   3.819
51971W        W16956   5.200  27.164  12.507
51972W        W16957  41.563   4.867   3.280
51973W        W16958  25.199  23.149  12.676
51974W        W16959  14.813  36.550  10.813
51975W        W16960  39.538  28.634   2.390
51976W        W16961  36.165  17.011  10.739
51977W        W16962  37.005  38.954  14.901
51978W        W16963  16.255  22.958  13.449
51979W        W16964  32.589   6.208   0.768
51980W        W16965  36.884  34.996   4.628
51981W        W16966  21.589  33.446   3.672
51982W        W16967   6.182  28.154  13.331
51983W        W16968   1.111  19.837  11.190
51984W        W16969  27.047  42.992  13.775
51985W        W16970   7.443  14.701   0.315
51986W        W16971  43.874  13.885   2.391
51987W        W16972  12.631  40.762  11.518
51988W        W16973   0.320  13.535  11.660
51989W        W16974  42.905  23.910   4.121
51990W        W16975  22.608   4.383   4.866
51991W        W16976  39.601  44.368  14.366
51992W        W16977  11.205  36.436   4.625
51993W        W16978  11.073  18.555   2.699
51994W        W16979  12.472  15.030   2.632
51995W        W16980  34.461  12.549   1.745
51996W        W16981   7.828  27.938  10.935
51997W        W16982  25.524  19.593   2.866
51998W        W16983   8.424  41.277  13.808
51999W        W16984  21.797  27.056   0.566
52000W        W16985  25.755  38.073  13.130
52001W        W16986  13.196  34.205   0.776
52002W        W16987  33.745  42.295  13.526
52003W        W16988  15.847  36.016   4.695
52004W        W16989   0.148  24.542   2.603
52005W        W16990  43.836   4.946   3.293
52006W        W16991   7.378  42.799   3.875
52007W        W16992  35.767  27.201  14.078
52008W        W16993  13.067   8.380  14.305
52009W        W16994  18.686  12.394  12.884
52010W        W16995  27.180  10.084   2.323
52011W        W16996  20.574  44.347   0.311
52012W        W16997  16.735  42.918   3.573
52013W        W16998  37.948  21.113   4.818
52014W        W16999  36.400   4.707   1.285
52015W        W17000  31.461  29.033   0.365
52016W        W17001  36.558  15.177  12.894
52017W        W17002   0.936  15.106  10.063
52018W        W17003  23.066   2.892   4.438
52019W        W17004  40.414  34.005  14.085
52020W        W17005  12.753  21.636  14.885
52021W        W17006  23.629   0.396   0.090
52022W        W17007  35.033   2.675  14.931
52023W        W17008  11.979  36.196   3.191
52024W        W17009  13.848  29.958  10.307
52025W        W17010   0.780  36.878   4.076
52026W        W17011  35.889  12.174   1.458
52027W        W17012  23.737  33.439   1.719
52028W        W17013  31.423   6.920  11.546
52029W        W17014  37.410   2.348   5.046
52030W        W17015  18.332  16.001   0.562
52031W        W17016  39.518  38.629  12.209
52032W        W17017  28.464  19.240   2.140
52033W        W17018  20.276  19.824  13.262
52034W        W17019  40.340  14.438   4.542
52035W        W17020   6.224  41.747   0.464
52036W        W17021  19.974   2.763   3.454
52037W        W17022  18.831   8.912  13.858
52038W        W17023  34.465   3.132  11.000
52039W        W17024   5.845  39.163   0.361
52040W        W17025  26.018  44.995  13.538
52041W        W17026  31.659  28.458  13.399
52042W        W17027  33.761  39.005   4.018
52043W        W17028  12.098  43.435  12.133
52044W        W17029  35.642   1.724   3.780
52045W        W17030  40.430  23.512  10.233
52046W        W17031  29.816   4.191  14.225
52047W        W17032  25.182  28.130   3.232
52048W        W17033   2.809  22.814   4.907
52049W        W17034  38.950  40.954   4.322
52050W        W17035  44.345  44.201   3.481
52051W        W17036  24.688  27.176  10.617
52052W        W17037  26.913  11.169  13.344
52053W        W17038  14.009   1.037  12.415
52054W        W17039  38.351  25.095   3.295
52055W        W17040   7.450  28.128  14.412
52056W        W17041   6.622  33.479  12.971
52057W        W17042  20.687  23.197   0.697
52058W        W17043  20.563  39.263  12.163
52059W        W17044   9.188  35.116  13.446
52060W        W17045  35.406  34.624  14.060
52061W        W17046  44.776   8.434  11.182
52062W        W17047  11.719   8.214   0.785
52063W        W17048  32.345  13.391  12.899
52064W        W17049  41.946  31.808   4.698
52065W        W17050  41.923  22.077   3.258
52066W        W17051  36.454  38.377  12.505
52067W        W17052  39.332  44.897   1.244
52068W        W17053  42.051  26.258  14.967
52069W        W17054  40.891  24.801   3.365
52070W        W17055  31.188  13.726  11.366
52071W        W17056  16.753  14.114  12.546
52072W        W17057   6.698  13.549   0.874
52073W        W17058  12.286  19.043  12.243
52074W        W17059  35.474  33.986   3.447
52075W        W17060  11.639  40.125  13.749
52076W        W17061  34.397  41.400   0.481
52077W        W17062  28.175   5.188  14.123
52078W        W17063  36.940  14.294  10.766
52079W        W17064  19.307  43.294  13.818
52080W        W17065  13.725  26.635  11.670
52081W        W17066  43.446  23.356  12.000
52082W        W17067  22.609  11.507   2.341
52083W        W17068  19.865   6.730  12.998
52084W        W17069  35.315  36.389  12.344
52085W        W17070  28.165  20.506  14.679
52086W        W17071  23.667  24.444   0.862
52087W        W17072  24.198  12.735  14.093
52088W        W17073  35.132   4.464  10.691
52089W        W17074  11.282  11.580   0.556
52090W        W17075  25.471  22.568  11.663
52091W        W17076  38.492  38.778  12.503
52092W        W17077  39.373  18.352  13.130
52093W        W17078  41.335   2.800  11.060
52094W        W17079  11.595  13.330   2.683
52095W        W17080  38.421  30.515  10.981
52096W        W17081   8.101   6.912   2.257
52097W        W17082  32.932  19.925  12.962
52098W        W17083  34.006  15.180  12.016
52099W        W17084  14.810  19.241  10.313
52100W        W17085  15.680  18.406   2.175
52101W        W17086  19.796  27.649  14.381
52102W        W17087  26.165  41.771   0.115
52103W        W17088  29.948  37.456   3.099
52104W        W17089  10.656   5.983  11.139
52105W        W17090  32.489  30.884   3.160
52106W        W17091  19.057   0.148  14.325
52107W        W17092  26.011  10.215   1.269
52108W        W17093  32.838  13.338  12.133
52109W        W17094  31.522   6.732  14.278
52110W        W17095  42.308  41.575   4.309
52111W        W17096  29.490  37.569   3.640
52112W        W17097  12.403  20.011   0.253
52113W        W17098  44.216   9.352  10.934
52114W        W17099  40.562  23.789   1.118
52115W        W17100  41.514   2.481  11.404
52116W        W17101  14.560   0.965   4.291
52117W        W17102  18.882  11.004   3.073
52118W        W17103  15.308   1.017  11.343
52119W        W17104  26.869  44.741  12.513
52120W        W17105  27.384  23.176   0.002
52121W        W17106  34.191  43.801   0.061
52122W        W17107  23.019  37.338  13.811
52123W        W17108  25.724  28.408  11.098
52124W        W17109  16.153  13.288   4.727
52125W        W17110  40.894  41.820   2.448
52126W        W17111  23.993  23.856  14.108
52127W        W17112   1.338  21.118   2.853
52128W        W17113  43.067  31.227   0.384
52129W        W17114  31.421   7.621   4.174
52130W        W17115  32.702  15.120  14.471
52131W        W17116  33.122  22.584   1.853
52132W        W17117   4.911  42.069   5.016
52133W        W17118  33.146   8.874  12.592
52134W        W17119   4.696  17.742   0.478
52135W        W17120  36.423  34.891  14.501
52136W        W17121  15.136  39.154  13.841
52137W        W17122  15.349  38.943   4.754
52138W        W17123   9.621   2.060  14.945
52139W        W17124  34.595  42.282  12.971
52140W        W17125   4.969  21.147   4.961
52141W        W17126  13.199  39.279   0.791
52142W        W17127  30.443   9.496   4.582
52143W        W17128  14.668  23.563  13.711
52144W        W17129  23.096  22.895  11.187
52145W        W17130  35.286  38.370  11.648
52146W        W17131  38.743  24.040  10.849
52147W        W17132   9.179   6.332  12.449
52148W        W17133  34.951  35.676   3.347
52149W        W17134  15.969  17.051   3.754
52150W        W17135  28.043  21.957   4.126
52151W        W17136  18.132  35.447   4.537
52152W        W17137  29.630   1.258  13.959
52153W        W17138   1.188  25.612   0.067
52154W        W17139   3.988  37.540  13.007
52155W        W17140  15.902  25.169  14.748
52156W        W17141  37.016  19.693   0.879
52157W        W17142  33.701   4.262   1.545
52158W        W17143  25.620  18.319   0.059
52159W        W17144   7.663  41.441   2.301
52160W        W17145  29.527  17.791   4.606
52161W        W17146  43.879  22.488   3.694
52162W        W17147  42.459  32.509  13.889
52163W        W17148  41.673   6.353   1.481
52164W        W17149  24.876  35.779   0.296
52165W        W17150   8.831  43.467  11.956
52166W        W17151  23.231  35.499  14.725
52167W        W17152  15.686  27.027  13.299
52168W        W17153  14.643  44.324   0.955
52169W        W17154   2.730  19.518  12.645
52170W        W17155  35.483  20.882   5.007
52171W        W17156  35.504  37.872   4.640
52172W        W17157  35.889   3.935   1.137
52173W        W17158   8.003  24.709  13.407
52174W        W17159  11.083  19.802   0.024
52175W        W17160  20.119  12.287  11.196
52176W        W17161   2.947  35.278  13.890
52177W        W17162  44.318  31.999  11.199
52178W        W17163  26.235  13.261   4.757
52179W        W17164  32.997   3.199   9.860
52180W        W17165  13.250  22.660  11.411
52181W        W17166  37.537   4.192   2.884
52182W        W17167   2.859   9.783  11.658
52183W        W17168  35.895  33.310  14.559
52184W        W17169  18.703  23.741  11.396
52185W        W17170  30.283  22.755  12.039
52186W        W17171   5.524   0.551   1.476
52187W        W17172   5.847  28.380  10.634
52188W        W17173  17.449   7.381   0.047
52189W        W17174  23.166  29.610  14.338
52190W        W17175  22.213   8.327   0.384
52191W        W17176  33.282  31.424   0.834
52192W        W17177   4.874  38.370   0.256
52193W        W17178  42.064  32.705  11.635
52194W        W17179  17.807  29.127   0.688
52195W        W17180  27.156   8.339  13.047
52196W        W17181  38.318   7.183   1.458
52197W        W17182  17.182  18.163  11.507
52198W        W17183  10.689  37.729   0.886
52199W        W17184  42.772   7.180   3.303
52200W        W17185  11.735   4.929  10.683
52201W        W17186   3.450  16.616   0.425
52202W        W17187  21.017  44.645   2.190
52203W        W17188  17.528  44.084  13.162
52204W        W17189  19.138   1.641   2.297
52205W        W17190  30.009   3.128   5.006
52206W        W17191  23.228  34.061  10.163
52207W        W17192  44.310  10.958  13.936
52208W        W17193  38.599  33.937  14.224
52209W        W17194  12.734  32.122  13.359
52210W        W17195  13.689   0.024   3.693
52211W        W17196  35.944  33.537   1.370
52212W        W17197  37.793  38.267  12.383
52213W        W17198  41.003   7.481   2.438
52214W        W17199  13.315  11.921   0.308
52215W        W17200  16.192  41.850  14.397
52216W        W17201  35.617  41.103   4.784
52217W        W17202  36.117  21.130   4.561
52218W        W17203  20.068  22.542  11.609
52219W        W17204  37.189   7.672  12.187
52220W        W17205  36.978  20.955  11.994
52221W        W17206  33.172  36.748   4.204
52222W        W17207  19.629  27.239   5.002
52223W        W17208   9.741   1.266   2.402
52224W        W17209  28.560  11.766  13.048
52225W        W17210  41.004  24.569   1.848
52226W        W17211  15.321  26.600  14.428
52227W        W17212   0.706  25.213  14.345
52228W        W17213  37.539  24.665  13.613
52229W        W17214  15.906  16.748  12.419
52230W        W17215  16.627  13.069  14.797
52231W        W17216  15.771   8.106  13.622
52232W        W17217   0.468  18.290  10.290
52233W        W17218  34.198  24.425   3.839
52234W        W17219  37.920  29.620   2.785
52235W        W17220  41.447  40.784  14.832
52236W        W17221   1.186  27.467  13.109
52237W        W17222  40.976   9.094  14.445
52238W        W17223  10.094  35.878  12.568
52239W        W17224  18.002  18.287   2.730
52240W        W17225  36.265  41.981  11.573
52241W        W17226  22.942  30.981   0.257
52242W        W17227  31.607   6.176  14.923
52243W        W17228   4.656  32.902   5.121
52244W        W17229  35.515  30.056   0.406
52245W        W17230  12.117  13.430   1.755
52246W        W17231  29.232  18.710  13.036
52247W        W17232  29.272   9.192  13.147
52248W        W17233  29.017   7.181  10.977
52249W        W17234  26.833  13.065  11.428
52250W        W17235  34.482  38.576   0.384
52251W        W17236   4.057  34.031   0.407
52252W        W17237  15.557  21.429   5.035
52253W        W17238  22.623  39.236  13.962
52254W        W17239  29.995  20.120  11.698
52255W        W17240  32.870  31.069   1.287
52256W        W17241  13.347  19.677   4.700
52257W        W17242  39.078  41.213  14.718
52258W        W17243  23.238  29.381  13.329
52259W        W17244  18.576  25.958  14.954
52260W        W17245   9.425  20.044  14.860
52261W        W17246   8.854  25.917   0.464
52262W        W17247  24.904  35.636   1.457
52263W        W17248   6.938  13.451  13.766
52264W        W17249  39.581  17.804   2.188
52265W        W17250  33.907  11.330  11.968
52266W        W17251   4.639   2.197   5.048
52267W        W17252   2.356  29.662  11.102
52268W        W17253   2.087  26.692   3.690
52269W        W17254  26.698  32.384  14.753
52270W        W17255  34.991  24.695   0.715
52271W        W17256   6.237  20.271  10.653
52272W        W17257  23.041  44.826   3.829
52273W        W17258  35.071   4.794  13.565
52274W        W17259  22.320   8.947  11.688
52275W        W17260  41.234  11.475   1.787
52276W        W17261  19.804  12.479   0.038
52277W        W17262  12.972  31.106   0.562
52278W        W17263  23.509  26.590   3.673
52279W        W17264   7.061  15.015   4.409
52280W        W17265  21.082   7.641  12.086
52281W        W17266  24.469   3.781   2.370
52282W        W17267  17.969   4.654  11.227
52283W        W17268  21.727  23.521   3.576
52284W        W17269  35.421   0.822  10.778
52285W        W17270   0.053  22.053  11.758
52286W        W17271  44.450  18.521   0.939
52287W        W17272   2.350  41.089   0.277
52288W        W17273  19.692  23.678  14.302
52289W        W17274   5.953  44.443  12.025
52290W        W17275  26.505  13.765  14.323
52291W        W17276  15.303  37.002   3.232
52292W        W17277  41.479  11.659  14.717
52293W        W17278  24.211  32.996  13.873
52294W        W17279  42.343  12.865  10.760
52295W        W17280   1.955  13.690   2.765
52296W        W17281  15.846  12.204   3.333
52297W        W17282  44.766  17.873   2.451
52298W        W17283  27.670  33.389   2.219
52299W        W17284   1.711  27.044  14.471
52300W        W17285  31.563  11.205  13.028
52301W        W17286  30.041  30.314  11.255
52302W        W17287  16.607  40.104  14.121
52303W        W17288  11.159  36.039   0.100
52304W        W17289   4.988   4.791   2.056
52305W        W17290  22.492  14.803  13.570
52306W        W17291  30.567  39.077   1.025
52307W        W17292  38.048  40.850  14.725
52308W        W17293  12.420   3.057  14.747
52309W        W17294  11.293  35.766   4.017
52310W        W17295   9.978   5.850   9.965
52311W        W17296  37.492  36.267   1.788
52312W        W17297   0.517   8.662   1.452
52313W        W17298  13.374  44.603  10.747
52314W        W17299  32.844  30.459  12.927
52315W        W17300  14.933  33.098  13.845
52316W        W17301   2.487  17.371   2.975
52317W        W17302  42.533  40.086  14.514
52318W        W17303  17.101  33.990  14.501
52319W        W17304  40.742  26.726  12.821
52320W        W17305  20.196   2.703  11.871
52321W        W17306   1.475   8.901   3.193
52322W        W17307  11.654  14.638  14.963
52323W        W17308   6.554  32.688   0.740
52324W        W17309  13.146   3.239  11.203
52325W        W17310  34.387  38.097  14.572
52326W        W17311   8.160  12.834  14.367
52327W        W17312   5.978  12.402   2.942
52328W        W17313  32.624  14.617  10.643
52329W        W17314  26.592  12.247  12.480
52330W        W17315   1.190  12.136   1.294
52331W        W17316  14.517   6.274   2.470
52332W        W17317  15.340   8.814   3.551
52333W        W17318  11.078  22.806   4.128
52334W        W17319  21.011  11.610   2.720
52335W        W17320  41.471   6.920  12.838
52336W        W17321  13.136  41.396   2.414
52337W        W17322  40.990  33.972  10.624
52338W        W17323  25.445   2.255   1.764
52339W        W17324  10.979  25.731   1.583
52340W        W17325   0.272  17.203  14.311
52341W        W17326  21.156  32.189  13.342
52342W        W17327  25.742   9.821  14.422
52343W        W17328  34.165  24.437  10.724
52344W        W17329  29.014  32.966   2.430
52345W        W17330   3.756  10.670  14.107
52346W        W17331  12.689   9.742  11.923
52347W        W17332  43.226   6.191   2.777
52348W        W17333   8.634  19.785  11.300
52349W        W17334  24.455  28.878  12.604
52350W        W17335  31.857  39.571   3.151
52351W        W17336  21.252  23.554   3.393
52352W        W17337  15.072  14.137  14.752
52353W        W17338  10.323  17.350  10.366
52354W        W17339  21.045  33.367  12.594
52355W        W17340  24.694  30.662   2.237
52356W        W17341  43.975  26.166   5.077
52357W        W17342  33.023  32.162  12.548
52358W        W17343  31.043  16.042  12.830
52359W        W17344   5.257  37.812  14.080
52360W        W17345   5.202   7.814   3.606
52361W        W17346  19.563  27.647   4.266
52362W        W17347  12.391  21.272   2.415
52363W        W17348  10.267   1.299  14.099
52364W        W17349  17.283  44.827   3.553
52365W        W17350  18.709  18.249  11.657
52366W        W17351  16.968   0.950  13.318
52367W        W17352  33.975  44.451   0.349
52368W        W17353  41.516  22.718  12.145
52369W        W17354   5.037  10.649   2.259
52370W        W17355   0.473  12.213   4.954
52371W        W17356  38.233  24.470   0.332
52372W        W17357  36.206   5.408   0.254
52373W        W17358  40.091  39.487   4.563
52374W        W17359   8.732  36.510   1.672
52375W        W17360  39.910   5.061   3.614
52376W        W17361  43.191  26.564   5.007
52377W        W17362  31.087  39.987   3.766
52378W        W17363  22.907  33.317   2.300
52379W        W17364  24.932  38.068  14.734
52380W        W17365  43.890   2.571  14.330
52381W        W17366  39.363  17.062   0.483
52382W        W17367  19.961  42.319  11.635
52383W        W17368   2.635   5.545  14.857
52384W        W17369  40.191  20.451   1.984
52385W        W17370  21.545  23.722  13.887
52386W        W17371   9.392   8.642   3.717
52387W        W17372  25.278  19.179   0.757
52388W        W17373  19.494  25.426   1.065
52389W        W17374  37.283  44.318   3.372
52390W        W17375  11.131   6.238  11.768
52391W        W17376   3.721   8.367  11.461
52392W        W17377  22.694  31.465   1.781
52393W        W17378  25.475  31.539  12.455
52394W        W17379  26.747   9.338   2.487
52395W        W17380  34.306  29.046  14.497
52396W        W17381  26.479  22.034   0.951
52397W        W17382  14.908  42.824   3.759
52398W        W17383  27.640   1.456  13.307
52399W        W17384  41.085  36.328  10.456
52400W        W17385   8.628  13.216   1.007
52401W        W17386  28.755  30.759  12.951
52402W        W17387  21.191  30.109   5.155
52403W        W17388   4.188  37.925   3.255
52404W        W17389  23.202  17.546   0.735
52405W        W17390  19.034  22.583  13.842
52406W        W17391   3.527  22.771  10.321
52407W        W17392   5.740  26.533  13.043
52408W        W17393  27.003   3.511   2.783
52409W        W17394  10.342   6.766  13.890
52410W        W17395  31.388  41.179  12.062
52411W        W17396  28.859  22.171  14.955
52412W        W17397  43.899   9.648   2.363
52413W        W17398   9.207  25.071   2.472
52414W        W17399   5.031  15.139   0.128
52415W        W17400  33.361   6.139   1.310
52416W        W17401  17.526  18.859   2.248
52417W        W17402  10.589  17.131  11.649
52418W        W17403  43.253  39.056  10.133
52419W        W17404  21.929  35.470  14.294
52420W        W17405  43.452  21.610   9.690
52421W        W17406  42.011  39.788  14.873
52422W        W17407  28.603  16.145  12.153
52423W        W17408  11.814  13.852   0.446
52424W        W17409   9.342  14.059   2.582
52425W        W17410  41.613  16.130  11.652
52426W        W17411  30.011   7.641  13.008
52427W        W17412  40.820  19.305   4.151
52428W        W17413  25.490  41.927  12.137
52429W        W17414   6.735   1.585  10.300
52430W        W17415  19.291   5.419   0.792
52431W        W17416  31.835  38.384   2.555
52432W        W17417  33.048  30.068   2.802
52433W        W17418   1.752  37.968   3.760
52434W        W17419   6.167  40.651   3.719
52435W        W17420  14.775  33.238   3.188
52436W        W17421  14.465  24.020  14.896
52437W        W17422  36.499  42.356  10.424
52438W        W17423  14.812  23.070   3.801
52439W        W17424   9.828  42.542  11.590
52440W        W17425  10.314  20.306   2.242
52441W        W17426  21.942  25.826  14.289
52442W        W17427  20.755  11.255   4.345
52443W        W17428  16.132  14.562  10.367
52444W        W17429  42.390   7.173   0.445
52445W        W17430   2.190  24.684   1.453
52446W        W17431  36.434   7.851   0.721
52447W        W17432  13.511   7.426  14.734
52448W        W17433   6.656  15.141  14.333
52449W        W17434  22.662  12.822   0.775
52450W        W17435  41.460   2.808   1.663
52451W        W17436  34.167  41.206  11.681
52452W        W17437  41.561  23.829  11.139
52453W        W17438  21.213   6.838  14.974
52454W        W17439  19.309  16.688   4.585
52455W        W17440   4.214  23.934   3.143
52456W        W17441   0.966  12.080   4.985
52457W        W17442  36.416  40.966  11.128
52458W        W17443  32.977  36.275   0.796
52459W        W17444  27.999  11.302  11.155
52460W        W17445   9.064  30.185  11.427
52461W        W17446  27.749  29.177  13.455
52462W        W17447  42.985   8.749   4.615
52463W        W17448   5.583  18.724   2.276
52464W        W17449  25.217  21.258  11.491
52465W        W17450  12.847  25.667   2.407
52466W        W17451  34.819  32.635   3.220
52467W        W17452  34.897  37.494   2.713
52468W        W17453  34.878  19.657  10.617
52469W        W17454   9.351  27.826  12.448
52470W        W17455  17.121  35.971  14.767
52471W        W17456   4.402   8.503   4.277
52472W        W17457  34.125  32.655   2.947
52473W        W17458   8.795   9.109   9.902
52474W        W17459  19.266   3.943  12.192
52475W        W17460  37.556  30.502   5.071
52476W        W17461  15.288   0.737   3.327
52477W        W17462  23.207   8.480   3.138
52478W        W17463   4.505   2.061   2.339
52479W        W17464  19.501  40.906  11.268
52480W        W17465  44.802  17.514   4.900
52481W        W17466  12.986  22.050  10.649
52482W        W17467   0.972  26.089  13.464
52483W        W17468  38.941  13.642   1.783
52484W        W17469  20.956   5.707  10.730
52485W        W17470  32.254   5.446   3.288
52486W        W17471   8.286  22.736   1.901
52487W        W17472  44.014  11.657   1.291
52488W        W17473  10.164  38.247  12.628
52489W        W17474  31.109  17.803   2.407
52490W        W17475  40.520   7.573   1.793
52491W        W17476   5.397   8.422   2.465
52492W        W17477  28.519   8.750  13.128
52493W        W17478  39.532  33.818  13.668
52494W        W17479   9.756   7.398  13.395
52495W        W17480  43.399  29.334   2.858
52496W        W17481  19.157  11.689   3.681
52497W        W17482  19.118  42.333   0.223
52498W        W17483   8.743   0.307   4.005
52499W        W17484  29.115  30.537   1.247
52500W        W17485  16.823  18.732   0.969
52501W        W17486  14.392  15.792   3.701
52502W        W17487  31.501  24.185   1.752
52503W        W17488  22.915  26.346   2.270
52504W        W17489  18.832   9.972   0.718
52505W        W17490   5.613   7.331  13.189
52506W        W17491  34.490  36.406  11.983
52507W        W17492  43.926  32.430   0.953
52508W        W17493  35.617  18.060   2.172
52509W        W17494   6.223   8.436   3.411
52510W        W17495  36.577  28.330   3.693
52511W        W17496  20.211   9.902   0.720
52512W        W17497  31.202   5.388   3.205
52513W        W17498   6.970  30.945   4.626
52514W        W17499  14.022  39.816  14.797
52515W        W17500  15.385  29.580  12.445
52516W        W17501  32.000  30.534  13.582
52517W        W17502  28.968   3.661   2.580
52518W        W17503  17.450  41.607  10.402
52519W        W17504  30.180  21.158  10.708
52520W        W17505  12.848   0.470   0.421
52521W        W17506  31.107  15.108   1.544
52522W        W17507  10.954   7.137   4.838
52523W        W17508  44.446  40.957   4.726
52524W        W17509  25.275  11.050   1.930
52525W        W17510  32.417   5.141  11.038
52526W        W17511  28.363  40.076   4.143
52527W        W17512  11.855  20.733  10.700
52528W        W17513   6.280  24.616  13.940
52529W        W17514  33.267  38.549   1.680
52530W        W17515  28.124  20.305   3.204
52531W        W17516  41.053  44.688   4.569
52532W        W17517  26.739  40.450  14.904
52533W        W17518  21.258  12.352  12.232
52534W        W17519  20.006  29.121   4.513
52535W        W17520   6.487   2.986  12.338
52536W        W17521  14.128  23.252   2.718
52537W        W17522  34.003  42.749   1.013
52538W        W17523  42.006  11.888   1.185
52539W        W17524  11.904  10.262  10.955
52540W        W17525  33.602  40.256   3.684
52541W        W17526  32.153  33.832  13.615
52542W        W17527  32.811  33.876  12.039
52543W        W17528   2.808  14.645   3.105
52544W        W17529  29.521  36.158  11.647
52545W        W17530  40.148  28.796   0.141
52546W        W17531  37.340   0.437  10.193
52547W        W17532  39.332  22.496  11.682
52548W        W17533  28.836  28.518   1.501
52549W        W17534  19.202  25.024   4.433
52550W        W17535  41.997  10.750  12.170
52551W        W17536  39.892  39.826  12.043
52552W        W17537  17.865   4.489  12.659
52553W        W17538  43.763  42.917   4.104
52554W        W17539  41.561  35.765   1.778
52555W        W17540  12.085  10.033   0.333
52556W        W17541  20.330  39.108  10.008
52557W        W17542  41.385  13.258   1.260
52558W        W17543  28.681  13.349   4.684
52559W        W17544  39.141   2.335   4.986
52560W        W17545  24.137  21.312   1.209
52561W        W17546  25.202   8.839   2.367
52562W        W17547  38.114  17.792   0.334
52563W        W17548  43.696  29.139   3.247
52564W        W17549   2.623  20.160   4.334
52565W        W17550   9.454  22.423  12.394
52566W        W17551  16.490  23.911  11.016
52567W        W17552  19.597  20.656  13.332
52568W        W17553   3.646  21.661   0.980
52569W        W17554  23.093  15.026  11.145
52570W        W17555  39.826  32.626   4.978
52571W        W17556  12.766  33.287   4.134
52572W        W17557  37.572  18.258  12.850
52573W        W17558  26.269   5.895   4.132
52574W        W17559  38.497  12.379  13.464
52575W        W17560   3.152  18.573  14.366
52576W        W17561  31.976  40.016   3.823
52577W        W17562  39.817   3.994   3.638
52578W        W17563  20.563  14.417  14.631
52579W        W17564  23.033  16.579  14.064
52580W        W17565  38.035  15.577   2.770
52581W        W17566  33.932  10.652   5.393
52582W        W17567  38.399  37.131  14.432
52583W        W17568  19.013  42.133  14.253
52584W        W17569  17.058  30.125  12.995
52585W        W17570  28.707   8.873  12.653
52586W        W17571  37.129   1.828   2.447
52587W        W17572  44.940  36.278   2.600
52588W        W17573  31.044  27.733   1.163
52589W        W17574  38.806   2.178  12.200
52590W        W17575   8.176  36.084   0.839
52591W        W17576   3.901  17.269  13.652
52592W        W17577   2.200  19.267   0.468
52593W        W17578  13.064  17.737  13.563
52594W        W17579   8.131  43.503  14.615
52595W        W17580  11.846   6.245   0.441
52596W        W17581   1.938  16.165   1.745
52597W        W17582  18.854  33.074   3.683
52598W        W17583   1.307  21.255  10.730
52599W        W17584   3.677  14.192  10.702
52600W        W17585  38.166  31.670   0.916
52601W        W17586  38.091   0.787  13.898
52602W        W17587  37.444  24.627  12.607
52603W        W17588  33.893   0.207   2.705
52604W        W17589  41.762   9.775  11.663
52605W        W17590  31.063  32.363   3.705
52606W        W17591  10.568  18.033   2.160
52607W        W17592   1.940  10.334   3.097
52608W        W17593  18.333  24.089   2.556
52609W        W17594   4.888  24.927  10.101
52610W        W17595  43.243  27.015  12.983
52611W        W17596  15.308  36.137   1.839
52612W        W17597  16.761  27.682  11.974
52613W        W17598  42.017   4.133   4.837
52614W        W17599  33.148  16.693  13.001
52615W        W17600  38.328  22.072   0.488
52616W        W17601  40.840  31.440   1.454
52617W        W17602   7.674   6.305  10.370
52618W        W17603  29.508  12.445  14.983
52619W        W17604  28.957  28.510   0.995
52620W        W17605  19.726  29.162  10.590
52621W        W17606  13.084   2.844  13.200
52622W        W17607  42.399   2.518  11.693
52623W        W17608  34.520  13.567  11.173
52624W        W17609  31.890  16.876   2.853
52625W        W17610  43.113  19.212  11.694
52626W        W17611  26.731  12.038   2.392
52627W        W17612  17.108   3.189  14.241
52628W        W17613  17.622   7.419   0.554
52629W        W17614  14.084  23.637  10.737
52630W        W17615  18.706   8.779  14.818
52631W        W17616   9.889   2.061  12.054
52632W        W17617   4.726   2.859   4.613
52633W        W17618  20.795  11.660   0.391
52634W        W17619  42.393   0.442   0.345
52635W        W17620  23.462  42.708  13.993
52636W        W17621  15.928  38.283   2.671
52637W        W17622  11.221  39.892   1.289
52638W        W17623  17.362  19.794   0.926
52639W        W17624  25.612  29.047   4.099
52640W        W17625  33.763  34.390   3.705
52641W        W17626  36.960   2.754   4.073
52642W        W17627   0.177   6.508   0.336
52643W        W17628  32.365  14.584   0.893
52644W        W17629  42.383  44.256  13.529
52645W        W17630   7.811  16.529  11.979
52646W        W17631  27.705  16.760  13.388
52647W        W17632  26.431  14.150   1.964
52648W        W17633  16.681  40.774   0.846
52649W        W17634  23.510  40.421   3.081
52650W        W17635  21.258  40.495   1.483
52651W        W17636  12.138   8.724  14.782
52652W        W17637  16.920  18.437   3.145
52653W        W17638  30.006  44.839   0.821
52654W        W17639   5.386  18.338   2.773
52655W        W17640  21.762  10.662  12.455
52656W        W17641   0.261  13.419   1.465
52657W        W17642  13.986  22.492   4.578
52658W        W17643   6.359  24.590  12.572
52659W        W17644   0.064   4.668  10.860
52660W        W17645  30.711  15.429  14.458
52661W        W17646   1.775  24.486   1.717
52662W        W17647  36.845  26.155  12.523
52663W        W17648  22.246  25.453  14.489
52664W        W17649  42.394   2.806   0.652
52665W        W17650  19.890  41.749  12.852
52666W        W17651   2.690  20.793  11.950
52667W        W17652   2.213  37.193   2.642
52668W        W17653  16.487  20.045   1.015
52669W        W17654  40.323   9.171   4.632
52670W        W17655  33.521  38.556  11.188
52671W        W17656  12.726  41.681   3.014
52672W        W17657   3.451  42.888  10.823
52673W        W17658  10.160  31.452  12.901
52674W        W17659  38.469  40.785   1.118
52675W        W17660  22.113   2.897  14.026
52676W        W17661   3.210  25.141   3.676
52677W        W17662  36.955  33.034  13.109
52678W        W17663  39.380  27.231  13.868
52679W        W17664  16.702   6.737   1.771
52680W        W17665  40.606  27.424   2.807
52681W        W17666  33.117  24.752   2.681
52682W        W17667   2.596   3.660  14.197
52683W        W17668   9.672  31.408  11.611
52684W        W17669  37.316   7.432  13.577
52685W        W17670   5.454  18.314  12.983
52686W        W17671  33.094  10.623   1.261
52687W        W17672  14.536  15.190   1.865
52688W        W17673   4.009  19.996  12.220
52689W        W17674   1.961  19.048  14.778
52690W        W17675  44.719   1.288  12.695
52691W        W17676  18.611  12.220   4.073
52692W        W17677   3.056  41.962  14.757
52693W        W17678  44.028  38.711  13.867
52694W        W17679  44.766  12.712  14.935
52695W        W17680   3.448  28.237   2.227
52696W        W17681  15.133   0.784   1.403
52697W        W17682  36.860  24.118   2.350
52698W        W17683  26.806  26.610   2.633
52699W        W17684  29.300  44.983  12.630
52700W        W17685   6.463  41.709   3.209
52701W        W17686  41.596  10.927  11.880
52702W        W17687   6.860  35.334   2.000
52703W        W17688   6.728  33.865   3.240
52704W        W17689  27.623  41.884   4.112
52705W        W17690  44.714  11.120  14.340
52706W        W17691   1.274  22.510  12.291
52707W        W17692  26.300   4.539   4.536
52708W        W17693   6.287  34.083  12.989
52709W        W17694  37.362   2.678  13.509
52710W        W17695  13.779   9.950   3.131
52711W        W17696  31.533  28.478  11.938
52712W        W17697  19.685  38.772   2.346
52713W        W17698  41.023   6.919   0.794
52714W        W17699  18.821  17.615  14.206
52715W        W17700   3.826   9.215  14.423
52716W        W17701  39.796  22.223  11.608
52717W        W17702   5.534  16.954   3.053
52718W        W17703  29.015  20.143  11.227
52719W        W17704  28.457  40.277   0.465
52720W        W17705  34.076  37.146  12.470
52721W        W17706  44.477   9.342  13.720
52722W        W17707  29.805  38.698  12.632
52723W        W17708  36.596  12.591  13.149
52724W        W17709  18.002  17.674   4.330
52725W        W17710   4.270   1.463  11.387
52726W        W17711  18.920  19.521   2.668
52727W        W17712  21.906  22.748   2.868
52728W        W17713  44.004  13.742   3.390
52729W        W17714  18.598  25.568  11.540
52730W        W17715  34.947   5.266   1.807
52731W        W17716  41.693   7.943   3.727
52732W        W17717  16.266   5.657   0.465
52733W        W17718   7.327  33.888  11.619
52734W        W17719  26.484  32.502   4.068
52735W        W17720  12.820  29.562   1.304
52736W        W17721  21.928   1.020   2.898
52737W        W17722  23.555  28.165  11.047
52738W        W17723  20.011  36.853   1.747
52739W        W17724  17.555  28.542  11.279
52740W        W17725   9.722  30.462  14.820
52741W        W17726  16.250  12.173  12.140
52742W        W17727  29.775  32.559   2.239
52743W        W17728  26.481  20.064   4.104
52744W        W17729  15.044  17.097   3.254
52745W        W17730  35.569  20.775   1.255
52746W        W17731  13.392  37.495  14.286
52747W        W17732  44.745   4.853  14.820
52748W        W17733  29.786  23.147  10.782
52749W        W17734  28.992  33.952  13.005
52750W        W17735  29.916  23.268  11.590
52751W        W17736   9.979   1.514  14.471
52752W        W17737  26.802   5.318   1.436
52753W        W17738   8.135  27.285   3.121
52754W        W17739  19.345  15.416   3.299
52755W        W17740  27.372  27.225   1.965
52756W        W17741  18.165  11.141  12.471
52757W        W17742  40.928   6.038  10.911
52758W        W17743  22.323  40.561   0.029
52759W        W17744  39.489  12.235   0.134
52760W        W17745   9.915  24.170   4.248
52761W        W17746  26.534  22.474   2.673
52762W        W17747   5.410  22.266   3.741
52763W        W17748  28.990  37.118  10.542
52764W        W17749  39.134   6.775  14.910
52765W        W17750  43.049  30.149  11.005
52766W        W17751  33.916  23.062  10.925
52767W        W17752  26.655  42.003   4.325
52768W        W17753  28.652   8.774  14.163
52769W        W17754  20.204  44.371  12.589
52770W        W17755  41.120   5.060   1.806
52771W        W17756  10.798  27.159  11.354
52772W        W17757  43.413  19.135   1.825
52773W        W17758  17.214  30.598   4.580
52774W        W17759  15.389   3.469   3.411
52775W        W17760   5.873  43.727   4.233
52776W        W17761  29.056  10.861   0.935
52777W        W17762   7.325  34.284   3.678
52778W        W17763  18.195  35.347   0.954
52779W        W17764  44.708  12.599   4.096
52780W        W17765  22.822  41.376   0.439
52781W        W17766  43.363  30.960   1.321
52782W        W17767  39.533  13.891  12.560
52783W        W17768  39.081   1.806  14.012
52784W        W17769  35.915  15.367  12.051
52785W        W17770  21.350  40.786   2.717
52786W        W17771  15.834  24.953   4.768
52787W        W17772  17.183   6.759   5.043
52788W        W17773  40.253  28.529   5.454
52789W        W17774  36.019  10.270  11.734
52790W        W17775  28.685  33.974  12.571
52791W        W17776  19.836  27.380  14.988
52792W        W17777   9.681   6.859   0.325
52793W        W17778  30.032  24.954  14.599
52794W        W17779  33.635   5.384   4.660
52795W        W17780  22.072   7.617   2.814
52796W        W17781  27.620   0.160  13.750
52797W        W17782  35.551  40.515  10.684
52798W        W17783   4.576  27.911  13.408
52799W        W17784  27.105  33.569   4.611
52800W        W17785   3.271  19.717  12.452
52801W        W17786  26.021  24.188  10.776
52802W        W17787  10.481  40.719  10.680
52803W        W17788   8.892   0.852   2.654
52804W        W17789  21.783  22.786  13.829
52805W        W17790  35.615   7.806   2.216
52806W        W17791  36.550  29.453  12.851
52807W        W17792  41.500  44.213   5.370
52808W        W17793  23.143  29.542  13.811
52809W        W17794  11.477   5.211  12.131
52810W        W17795  31.584  15.614  11.005
52811W        W17796  23.742  23.417  12.947
52812W        W17797   6.651  25.662  13.852
52813W        W17798  36.205  23.536   0.164
52814W        W17799   7.715  28.608  11.047
52815W        W17800  16.683   9.313  10.629
52816W        W17801  28.007  34.381   3.214
52817W        W17802  37.979  37.117   2.127
52818W        W17803   4.811  14.169   0.244
52819W        W17804  16.694  19.552  13.901
52820W        W17805  31.966  41.381  14.280
52821W        W17806   2.590  39.243   2.258
52822W        W17807  44.278  30.095   1.553
52823W        W17808   1.286  43.488   4.279
52824W        W17809   4.835  37.545  10.265
52825W        W17810  33.256  24.673  11.064
52826W        W17811  30.686  36.043  12.167
52827W        W17812   4.976  12.202  14.417
52828W        W17813   5.720   9.078  13.398
52829W        W17814   4.735  25.936   3.577
52830W        W17815  22.114  23.230  11.662
52831W        W17816  16.347  19.667   2.759
52832W        W17817  25.972   5.657   1.229
52833W        W17818  40.164  15.321  11.507
52834W        W17819  43.547  23.612  13.506
52835W        W17820   0.012  19.848  11.967
52836W        W17821  33.995  20.255   2.424
52837W        W17822  23.708  21.264  14.950
52838W        W17823  39.625   5.488   3.818
52839W        W17824  44.863  27.790   2.745
52840W        W17825  12.275  28.007   0.744
52841W        W17826  37.118   7.086   3.982
52842W        W17827  23.011  39.796  12.521
52843W        W17828   9.222  20.827   1.203
52844W        W17829  17.575   0.953   2.201
52845W        W17830  20.991  29.880   3.238
52846W        W17831   2.775   0.440  14.833
52847W        W17832  20.980   1.689  14.165
52848W        W17833  44.146   8.735  12.600
52849W        W17834  30.301  25.170   1.906
52850W        W17835  39.998  27.344  12.414
52851W        W17836   7.426  20.655  11.032
52852W        W17837  11.754   0.287  12.813
52853W        W17838  37.527  27.575   0.705
52854W        W17839   1.502  44.028  11.150
52855W        W17840  16.700  32.162  12.940
52856W        W17841  40.928  15.793  13.909
52857W        W17842   7.644   0.871  10.757
52858W        W17843   9.707   8.422   1.940
52859W        W17844  11.432  33.404  12.392
52860W        W17845  12.254  36.134   4.300
52861W        W17846  38.903  11.274  13.095
52862W        W17847  21.761  38.788  11.217
52863W        W17848  21.541  34.555   3.308
52864W        W17849  19.096  28.160  11.737
52865W        W17850  32.604   1.468   5.159
52866W        W17851  39.962   7.815   0.848
52867W        W17852  36.324  23.285  13.039
52868W        W17853  14.124  17.072  13.476
52869W        W17854  36.347  31.107   2.671
52870W        W17855  17.805  36.058   4.629
52871W        W17856  43.410  21.455   3.066
52872W        W17857   4.433   6.098  13.377
52873W        W17858  34.871  38.848   3.659
52874W        W17859   6.220  12.150  14.885
52875W        W17860  25.966  12.022  12.220
52876W        W17861   1.425  25.939   0.807
52877W        W17862  13.871  15.143   3.283
52878W        W17863  21.123   2.795  13.832
52879W        W17864  18.994   2.478  11.603
52880W        W17865  22.038  28.189  11.207
52881W        W17866  28.028  27.971  14.902
52882W        W17867  28.830  40.857  11.152
52883W        W17868  29.573  39.138   4.016
52884W        W17869  20.598  17.904  10.725
52885W        W17870  24.505  33.382   4.144
52886W        W17871  19.627  35.203  10.469
52887W        W17872  36.354  28.534  12.060
52888W        W17873  36.492  44.018   2.331
52889W        W17874  44.452  11.917   1.135
52890W        W17875  23.237  11.654  13.931
52891W        W17876  35.588   4.861   5.215
52892W        W17877   2.862  13.144   0.473
52893W        W17878  15.927  25.508   1.622
52894W        W17879  43.305  11.645   2.344
52895W        W17880   5.527  30.937  11.047
52896W        W17881  18.798  32.544  14.965
52897W        W17882   4.241   2.801  13.981
52898W        W17883  25.410  30.384   0.960
52899W        W17884  29.382  17.349   1.848
52900W        W17885  30.918   4.718   3.892
52901W        W17886  44.317  13.609   2.280
52902W        W17887  38.585   2.699  13.963
52903W        W17888  10.052   6.312  13.887
52904W        W17889  29.013   4.418  12.587
52905W        W17890  23.438  34.572   3.217
52906W        W17891  35.283  13.819  13.948
52907W        W17892   6.842  29.620   2.803
52908W        W17893  33.407   9.697  10.730
52909W        W17894  41.342  14.794  13.982
52910W        W17895  28.012   7.160   2.131
52911W        W17896  44.842   5.957   3.659
52912W        W17897  42.459  24.465   3.640
52913W        W17898  17.844  10.848   4.416
52914W        W17899  44.201  17.223   1.977
52915W        W17900  33.828   5.758   3.771
52916W        W17901  39.228  12.192   4.677
52917W        W17902  14.898  12.420  12.531
52918W        W17903  18.022  27.669   2.858
52919W        W17904   2.168  19.017  13.943
52920W        W17905  44.255   0.695  14.338
52921W        W17906  19.033  39.967  11.841
52922W        W17907  15.158  22.180   2.904
52923W        W17908  21.239  30.244  12.276
52924W        W17909   5.753  37.848  14.748
52925W        W17910  24.128  17.079   0.949
52926W        W17911  42.772  14.405  14.727
52927W        W17912  24.192  38.237   2.214
52928W        W17913   0.940  20.581   1.723
52929W        W17914  42.496  36.515  13.384
52930W        W17915  28.680  21.768   2.178
52931W        W17916   0.785  27.003  10.357
52932W        W17917  35.634  17.231  12.466
52933W        W17918  38.364  36.217   3.013
52934W        W17919  10.668  22.499  12.077
52935W        W17920  11.107  17.218  11.615
52936W        W17921  33.782  31.946  14.268
52937W        W17922  10.598  25.115   3.775
52938W        W17923  24.713  17.554  14.094
52939W        W17924   9.364  27.607   0.271
52940W        W17925  30.088  23.938   2.404
52941W        W17926  22.014  32.528   9.660
52942W        W17927  31.147  29.527   1.162
52943W        W17928  30.933   3.570  12.149
52944W        W17929  34.001   9.870   2.795
52945W        W17930  18.506   3.751  13.835
52946W        W17931  14.289  23.202  12.484
52947W        W17932  44.252  29.146   3.249
52948W        W17933  31.389  27.137  12.093
52949W        W17934  44.689  24.731   3.765
52950W        W17935   4.361   7.894   2.081
52951W        W17936   2.323  33.522  10.737
52952W        W17937   7.305  15.711  14.817
52953W        W17938  16.989  24.769   3.385
52954W        W17939   1.821  26.123  12.536
52955W        W17940  41.969   7.472  11.974
52956W        W17941  15.954  17.178  14.932
52957W        W17942  17.290  35.096   2.327
52958W        W17943  12.871   8.849  14.410
52959W        W17944  15.781   2.174   2.823
52960W        W17945  30.074   0.450  10.213
52961W        W17946  14.376  28.617  14.288
52962W        W17947   5.724  39.932   0.877
52963W        W17948  33.347  21.214   2.761
52964W        W17949  22.557  22.994  11.443
52965W        W17950  39.326  42.335  10.404
52966W        W17951  42.807   7.935   4.666
52967W        W17952  18.358  36.043  14.354
52968W        W17953  30.717  12.264   0.507
52969W        W17954  39.450  39.646  12.186
52970W        W17955  41.494  38.011  12.493
52971W        W17956  14.605  18.975   2.685
52972W        W17957  18.425  24.161  11.484
52973W        W17958   9.681  20.238   0.784
52974W        W17959  19.874  19.376  10.732
52975W        W17960  36.923  40.211   1.932
52976W        W17961  26.079  23.137  11.709
52977W        W17962  22.154   6.711   4.076
52978W        W17963   1.574   4.628  13.494
52979W        W17964   7.418  34.380  10.714
52980W        W17965   4.678   8.058  11.412
52981W        W17966   7.889  32.668  13.965
52982W        W17967   5.226  38.507  10.663
52983W        W17968  34.015   3.161  14.598
52984W        W17969   9.902  16.108   3.359
52985W        W17970  15.390  24.668   1.831
52986W        W17971  43.766  26.970  12.871
52987W        W17972  25.817  21.413   4.350
52988W        W17973   2.548  21.774  11.144
52989W        W17974  23.035   8.302  11.177
52990W        W17975  30.909  31.321   3.700
52991W        W17976  33.656  30.638   1.318
52992W        W17977  10.370  40.651   5.036
52993W        W17978  30.131  39.944   1.418
52994W        W17979  17.526   6.405  12.171
52995W        W17980   4.940  34.648  11.489
52996W        W17981  27.971  20.158   2.199
52997W        W17982  18.845  25.102  11.583
52998W        W17983  19.135  43.350  14.731
52999W        W17984  10.398  13.086  13.106
53000W        W17985  24.526  26.648   4.236
53001W        W17986  20.533  16.370   0.120
53002W        W17987  23.951  36.123  13.391
53003W        W17988   6.441   7.484   4.537
53004W        W17989   5.900  30.577   3.160
53005W        W17990  38.405  10.060  14.560
53006W        W17991   2.754  14.578  12.962
53007W        W17992  13.622   7.305   3.250
53008W        W17993  17.767  29.025  12.456
53009W        W17994   8.415   3.464   2.502
53010W        W17995   1.319   7.076   3.872
53011W        W17996  34.872  43.321  14.888
53012W        W17997   8.910  21.203  10.261
53013W        W17998  12.520  31.711   0.096
53014W        W17999   4.268  11.868  11.845
53015W        W18000  43.144  11.776   5.061
53016W        W18001  39.155  23.235   3.156
53017W        W18002  11.747  40.280   0.605
53018W        W18003  28.074  26.657   0.392
53019W        W18004  13.869  32.845   0.368
53020W        W18005  12.795  15.195   2.277
53021W        W18006  35.902  17.783   0.175
53022W        W18007  38.784  34.855  13.373
53023W        W18008  16.085  29.196   2.693
53024W        W18009  23.550  20.096   2.313
53025W        W18010   1.305  15.622  11.104
53026W        W18011   7.998   4.247   3.668
53027W        W18012   6.154   7.070  10.993
53028W        W18013  15.263  13.299   0.912
53029W        W18014  11.850  12.435  13.159
53030W        W18015  18.216   9.289   1.916
53031W        W18016  10.216  29.879  14.518
53032W        W18017   8.804  28.012  13.051
53033W        W18018  35.269   9.387   1.988
53034W        W18019  26.058  19.165   4.555
53035W        W18020   5.891   3.935   3.197
53036W        W18021  24.597  42.304   2.759
53037W        W18022   4.363   4.184   3.733
53038W        W18023  34.503  26.667  11.720
53039W        W18024  12.377  16.102   2.465
53040W        W18025  12.864  18.064  12.879
53041W        W18026  11.291  19.599  12.385
53042W        W18027  21.018  20.078  13.460
53043W        W18028  16.497   2.060   1.781
53044W        W18029   1.460  11.074  10.831
53045W        W18030  31.502  40.755  14.957
53046W        W18031   8.669  24.015  13.534
53047W        W18032  29.140  12.615   0.619
53048W        W18033   7.201  43.507  10.649
53049W        W18034  14.341  38.317  13.008
53050W        W18035  14.327  32.977  11.574
53051W        W18036  44.911   7.487  14.979
53052W        W18037   1.499  43.106   3.696
53053W        W18038  21.549  35.862   0.494
53054W        W18039   1.199   7.864  12.131
53055W        W18040  11.678  12.036  12.350
53056W        W18041  35.375  11.253  14.859
53057W        W18042  42.329  22.992   0.403
53058W        W18043   2.232  22.605  12.199
53059W        W18044  29.013  29.480   0.990
53060W        W18045   6.357  13.678   4.695
53061W        W18046  19.497   6.089  14.471
53062W        W18047  24.146   6.891   4.607
53063W        W18048  26.215   4.233   2.336
53064W        W18049  36.329  26.151  11.639
53065W        W18050   5.417  34.043   0.872
53066W        W18051  42.954  42.750   1.710
53067W        W18052   1.857   5.623  13.477
53068W        W18053  14.306   2.386  13.341
53069W        W18054  36.410   5.300   1.071
53070W        W18055  11.730  36.244  11.629
53071W        W18056   2.883  27.132  11.985
53072W        W18057   7.103  19.060  13.379
53073W        W18058   9.152  17.397  12.426
53074W        W18059  17.728  29.173  14.795
53075W        W18060  39.466  21.898   3.573
53076W        W18061  20.083   4.171  13.590
53077W        W18062  36.002  16.717  13.419
53078W        W18063  27.064   8.730   3.128
53079W        W18064  26.092  27.465  12.793
53080W        W18065  18.656   9.380  12.957
53081W        W18066   6.898  15.775  10.766
53082W        W18067  44.816  19.716   1.378
53083W        W18068  35.535  35.078  14.253
53084W        W18069   7.896  40.489   4.710
53085W        W18070  32.441  26.232  13.581
53086W        W18071  28.956  18.113   0.282
53087W        W18072  40.021   5.204  12.020
53088W        W18073  44.309  35.410   3.883
53089W        W18074  12.538  21.211  11.435
53090W        W18075  27.171  34.938  11.751
53091W        W18076   4.680  13.027  14.874
53092W        W18077  32.000  15.898   3.751
53093W        W18078  38.155  44.566  11.139
53094W        W18079  34.992  22.950  13.546
53095W        W18080  38.359  41.879   0.713
53096W        W18081  13.444  17.150   3.599
53097W        W18082  36.118  35.386  14.434
53098W        W18083  16.291   3.856   4.015
53099W        W18084   6.810   0.719  13.577
53100W        W18085  34.083   6.758  12.841
53101W        W18086  15.273  33.943  14.841
53102W        W18087  29.523  29.907   2.740
53103W        W18088   6.511   3.296  13.540
53104W        W18089  15.784  27.598   0.955
53105W        W18090  29.681  11.966  14.067
53106W        W18091  11.125  44.317  11.448
53107W        W18092   8.770  44.318   4.342
53108W        W18093  43.232  17.152  13.506
53109W        W18094  27.409  23.827   1.975
53110W        W18095  42.415  28.537   4.237
53111W        W18096  16.137  26.540  14.857
53112W        W18097  42.699  28.732  14.760
53113W        W18098  37.120  21.452   4.877
53114W        W18099   1.738  39.881  12.874
53115W        W18100  41.939   6.256  10.671
53116W        W18101  15.624  23.244   1.467
53117W        W18102  35.350   5.610   0.358
53118W        W18103  10.227  23.253  11.227
53119W        W18104  10.799  34.814  12.956
53120W        W18105  33.082  34.028   0.575
53121W        W18106  16.214  24.799  13.040
53122W        W18107  40.406  32.612  14.305
53123W        W18108   6.618  21.439   0.525
53124W        W18109  38.866  33.095  13.850
53125W        W18110  14.301  33.089   2.350
53126W        W18111  35.510  35.259   0.885
53127W        W18112   7.517   1.048  11.236
53128W        W18113  43.001  38.728  12.433
53129W        W18114   7.734  43.820   1.820
53130W        W18115  24.435  26.618   2.303
53131W        W18116  44.481  33.563  11.871
53132W        W18117  11.320  35.543   2.890
53133W        W18118  31.303  43.489   1.386
53134W        W18119  14.243  32.533  14.045
53135W        W18120  32.279  31.176  11.104
53136W        W18121  11.403   4.306   0.421
53137W        W18122  12.640  25.246  13.993
53138W        W18123  30.872  19.237   1.855
53139W        W18124  23.720  22.344  12.382
53140W        W18125  30.397  10.787   2.941
53141W        W18126  39.413  34.208   4.825
53142W        W18127  12.269   5.975  10.372
53143W        W18128  24.702   1.785   2.939
53144W        W18129  11.181  21.960   1.257
53145W        W18130  38.421   4.665  13.998
53146W        W18131  31.404  21.524   0.933
53147W        W18132   0.968   6.221  13.534
53148W        W18133  40.859  43.764   2.367
53149W        W18134  30.217  22.543  14.838
53150W        W18135  16.148  22.319  11.528
53151W        W18136  19.698   3.606   4.323
53152W        W18137  22.210   3.527  14.634
53153W        W18138  31.490  38.773  14.464
53154W        W18139  18.794  24.150   0.188
53155W        W18140   6.269   3.779  12.889
53156W        W18141  29.113  43.702  14.951
53157W        W18142  14.654  33.411   4.085
53158W        W18143  36.294  41.048   0.243
53159W        W18144  34.283  16.841  13.115
53160W        W18145   9.630   4.945   0.499
53161W        W18146   4.789  19.075   3.164
53162W        W18147  22.219  31.957  12.581
53163W        W18148  42.052  12.353  11.912
53164W        W18149  17.101  22.608  14.251
53165W        W18150  30.317  38.148   3.715
53166W        W18151  28.183  42.463  14.607
53167W        W18152  29.062  42.211   0.074
53168W        W18153  16.105  38.993   0.399
53169W        W18154  25.862  23.807   4.937
53170W        W18155   1.030  30.985  13.525
53171W        W18156  19.830  18.886   4.475
53172W        W18157  41.238   4.570   1.825
53173W        W18158  12.163  37.615   4.244
53174W        W18159  35.922  23.923   4.649
53175W        W18160  39.039  36.296  14.734
53176W        W18161  26.419  27.387   4.212
53177W        W18162   9.165  26.702  14.246
53178W        W18163  22.110   8.825  10.871
53179W        W18164  41.006  42.268  14.226
53180W        W18165  44.116  15.949  10.617
53181W        W18166   6.791  38.861   4.767
53182W        W18167  12.727  22.232   0.638
53183W        W18168   4.705  39.786  11.145
53184W        W18169   4.858  14.544  10.972
53185W        W18170  33.795  13.214  12.157
53186W        W18171  30.102  37.169   1.207
53187W        W18172  24.167   5.748  10.798
53188W        W18173  13.869  29.044  14.970
53189W        W18174   9.541   4.839   9.646
53190W        W18175   3.796  43.713  14.488
53191W        W18176  14.752  15.340   2.314
53192W        W18177  43.304  30.945  14.435
53193W        W18178   2.282  31.470  14.343
53194W        W18179  27.412  38.070   4.589
53195W        W18180   5.213   2.366  14.308
53196W        W18181  22.733  11.743   4.289
53197W        W18182  28.478  37.956  14.356
53198W        W18183   6.952  32.058   1.382
53199W        W18184   9.149  29.687  11.142
53200W        W18185  33.374  18.772   2.282
53201W        W18186  37.104  13.319   2.502
53202W        W18187  24.568  40.559   2.203
53203W        W18188  16.361  25.635   0.712
53204W        W18189  10.883  25.964   4.713
53205W        W18190  29.893  26.466  13.886
53206W        W18191  44.964  29.146   3.636
53207W        W18192  37.296  17.630   4.063
53208W        W18193  31.579  25.906  14.526
53209W        W18194   3.014   4.781  11.920
53210W        W18195  35.938  13.697  11.356
53211W        W18196  29.918  28.784   3.986
53212W        W18197  26.370   8.817  12.004
53213W        W18198  39.922  41.907  11.908
53214W        W18199  30.452  16.287  14.085
53215W        W18200  19.646   1.450   2.290
53216W        W18201  42.568  42.443   2.137
53217W        W18202  22.156  15.582   4.658
53218W        W18203  25.292  12.533  13.356
53219W        W18204  40.511  36.358  13.456
53220W        W18205  44.761  37.468   4.910
53221W        W18206  27.142  44.878   3.172
53222W        W18207  22.651  29.409   0.060
53223W        W18208  29.024   4.462   3.167
53224W        W18209  17.046   4.621   2.246
53225W        W18210  25.906   2.843   1.410
53226W        W18211   6.588  35.442   0.264
53227W        W18212   7.875   6.450   0.060
53228W        W18213  12.378  44.251  10.684
53229W        W18214   4.747  29.017  13.133
53230W        W18215  18.636  13.171  10.566
53231W        W18216  17.737   6.400  10.146
53232W        W18217  41.321  20.809  10.415
53233W        W18218  30.385  16.213   1.836
53234W        W18219  14.022   0.567  12.675
53235W        W18220   4.166  17.276   3.008
53236W        W18221  32.076  11.939  14.421
53237W        W18222  21.749  22.209   0.048
53238W        W18223   0.045  21.957  14.867
53239W        W18224  32.237  43.423   1.844
53240W        W18225  16.833  10.693   1.215
53241W        W18226  16.086  31.096  14.402
53242W        W18227  31.043  42.371  11.003
53243W        W18228  43.336  33.452  12.530
53244W        W18229  26.263  32.606  10.365
53245W        W18230  23.639  19.771  10.640
53246W        W18231  44.743   8.241   2.394
53247W        W18232  34.616  44.753  10.705
53248W        W18233  26.053  43.794   1.668
53249W        W18234  16.162  33.890  12.197
53250W        W18235  28.747  29.112  13.281
53251W        W18236   8.488   2.896   3.172
53252W        W18237  31.648  34.483  11.067
53253W        W18238  12.341  17.904  14.786
53254W        W18239  30.110  21.767   1.870
53255W        W18240  15.158  44.856  14.324
53256W        W18241  17.809  32.561   4.118
53257W        W18242  27.066  31.394   1.832
53258W        W18243  35.989   7.205   4.504
53259W        W18244  23.091  32.544  12.878
53260W        W18245  23.059  31.729  11.402
53261W        W18246   7.045  35.594  14.491
53262W        W18247  16.916  10.401   5.083
53263W        W18248  11.034  32.801  13.534
53264W        W18249   4.613  10.162  12.930
53265W        W18250  44.225  37.150   1.497
53266W        W18251   3.324  21.821   1.352
53267W        W18252   5.672   4.873   0.420
53268W        W18253  27.207  13.513  14.379
53269W        W18254  19.324  27.279   9.651
53270W        W18255   4.096  37.414   4.192
53271W        W18256  30.937  10.322   1.771
53272W        W18257  38.604  40.510   2.344
53273W        W18258  39.683  10.731  12.176
53274W        W18259  31.888  10.694  14.125
53275W        W18260   5.258  17.706  11.532
53276W        W18261  42.790   9.911  11.650
53277W        W18262  22.807   7.608   4.970
53278W        W18263  19.579   0.709  14.798
53279W        W18264  28.613  40.580  12.376
53280W        W18265  40.891  38.837  12.857
53281W        W18266  32.577  44.660   2.282
53282W        W18267  13.422  25.696  13.631
53283W        W18268   0.930   8.927  12.117
53284W        W18269   7.408  27.891  13.948
53285W        W18270   5.814   2.310  11.186
53286W        W18271  25.116  15.533  13.371
53287W        W18272  37.530  41.879  13.656
53288W        W18273   5.870  33.006  11.624
53289W        W18274  14.739  21.762   3.031
53290W        W18275  16.988  17.018  13.912
53291W        W18276   9.769  33.895   4.087
53292W        W18277   5.903  16.189   1.293
53293W        W18278  10.846  17.218   3.208
53294W        W18279   3.365   4.212   2.754
53295W        W18280  39.188   2.892   2.227
53296W        W18281   5.734   9.381  12.959
53297W        W18282   7.777   5.968   0.198
53298W        W18283  36.664  43.015   4.380
53299W        W18284  13.350  30.440   3.182
53300W        W18285  37.694  14.010  14.364
53301W        W18286  23.721  30.401  12.463
53302W        W18287   6.729  43.956   3.178
53303W        W18288  10.227   8.535   5.000
53304W        W18289   1.472  36.745   3.629
53305W        W18290   5.229  28.391  13.554
53306W        W18291  37.405   6.243  14.331
53307W        W18292  20.453  44.371  13.463
53308W        W18293  14.778  43.845   2.300
53309W        W18294  23.459  42.060   0.441
53310W        W18295   3.356  34.593   0.589
53311W        W18296  40.396  36.346  14.389
53312W        W18297  21.082  43.536  13.481
53313W        W18298  10.601  28.019   1.854
53314W        W18299   7.649   3.962  11.628
53315W        W18300  29.127  43.894  13.592
53316W        W18301  38.297   5.446  12.889
53317W        W18302  25.886  16.518  12.492
53318W        W18303   4.186  16.247   0.963
53319W        W18304  15.549  29.163   2.171
53320W        W18305  23.215  25.807   4.177
53321W        W18306  11.543  18.662   0.987
53322W        W18307  14.440   7.921  10.712
53323W        W18308  29.048  30.608   2.109
53324W        W18309  36.485  39.435   2.447
53325W        W18310  23.651  20.189   5.463
53326W        W18311  39.524  21.140   1.120
53327W        W18312  43.438  29.671   4.208
53328W        W18313  28.490   4.837  11.987
53329W        W18314  21.888  30.578  10.340
53330W        W18315   7.120  37.977   0.299
53331W        W18316  34.281  27.954   4.631
53332W        W18317  21.651  43.305  11.034
53333W        W18318  26.479  20.037   0.771
53334W        W18319  16.246   0.489  12.504
53335W        W18320  30.121   1.364   9.739
53336W        W18321  23.083   9.012  10.635
53337W        W18322  17.555  44.063   0.033
53338W        W18323  14.310  38.333  10.738
53339W        W18324  16.420  15.255  11.989
53340W        W18325  28.863  28.020  14.190
53341W        W18326  24.004  14.699   4.527
53342W        W18327  19.189  11.518   0.806
53343W        W18328  14.698  37.421  13.710
53344W        W18329  21.845  17.821  11.986
53345W        W18330   5.282  10.253   1.593
53346W        W18331  26.749  35.456  14.314
53347W        W18332  30.501   0.756   2.838
53348W        W18333  13.678  30.017   0.642
53349W        W18334  19.637  12.276  11.875
53350W        W18335  34.062  37.134  11.946
53351W        W18336   7.101  39.494   1.800
53352W        W18337   9.675  17.875  12.940
53353W        W18338  22.584  36.794  13.008
53354W        W18339   9.309   9.902   2.406
53355W        W18340  21.455  20.177  14.353
53356W        W18341   6.640  44.890  10.807
53357W        W18342  43.420  27.362   1.956
53358W        W18343  21.561  41.295  14.877
53359W        W18344  31.929   0.258  12.545
53360W        W18345   9.401   8.835  14.333
53361W        W18346   9.661  28.025   1.923
53362W        W18347  37.600  10.322  14.001
53363W        W18348  20.619  42.444  12.845
53364W        W18349  29.197  16.853   3.143
53365W        W18350  32.446   4.637   4.862
53366W        W18351  29.881   5.679  10.732
53367W        W18352   0.805   0.467  10.086
53368W        W18353  11.078  44.374  10.939
53369W        W18354  34.961  34.164   0.715
53370W        W18355  24.660  12.950   1.755
53371W        W18356  27.936   7.663  10.716
53372W        W18357  29.077  20.956  13.432
53373W        W18358  38.390  24.793   2.147
53374W        W18359  33.221   5.643   1.929
53375W        W18360  20.637  14.186   3.920
53376W        W18361  35.097  25.139  12.963
53377W        W18362  21.073  43.268  14.233
53378W        W18363   2.733  21.446   0.139
53379W        W18364  33.529   5.367  12.819
53380W        W18365  39.452  32.086   2.777
53381W        W18366  43.791  35.709  11.957
53382W        W18367  30.948  40.384   1.429
53383W        W18368  24.677  27.685  10.761
53384W        W18369  13.075  21.083   0.350
53385W        W18370   4.280  29.990  13.423
53386W        W18371  44.292  25.745  13.945
53387W        W18372  11.862  18.605  10.571
53388W        W18373   2.529  14.648   1.168
53389W        W18374  22.724  35.930   4.602
53390W        W18375  18.077   7.636   0.460
53391W        W18376   1.244  15.175  13.570
53392W        W18377   5.817  28.591   3.569
53393W        W18378  15.296  10.214   3.949
53394W        W18379  42.053  26.750  13.394
53395W        W18380  22.493  34.081  13.979
53396W        W18381  44.945  28.474   3.316
53397W        W18382  22.014  30.004  14.023
53398W        W18383  17.659  42.059  11.191
53399W        W18384  38.434  15.284  12.242
53400W        W18385  17.197  20.021  14.930
53401W        W18386  38.964  25.213   2.687
53402W        W18387  27.087  18.560   1.739
53403W        W18388  27.631  30.480  14.365
53404W        W18389   6.659  16.864  14.912
53405W        W18390   8.399  13.826  10.670
53406W        W18391  14.204  14.985  13.497
53407W        W18392   0.609  44.385  11.950
53408W        W18393  15.796  18.896  11.104
53409W        W18394  34.398  30.687  11.288
53410W        W18395  28.570  11.699   2.126
53411W        W18396  36.153  17.114   4.429
53412W        W18397  23.139  42.873   4.173
53413W        W18398  10.039  42.022  14.899
53414W        W18399   7.741  39.257  14.349
53415W        W18400  36.872  32.142   2.077
53416W        W18401  18.359   0.866  12.856
53417W        W18402   6.299   1.550  14.362
53418W        W18403  24.659   4.276   2.271
53419W        W18404   6.668  38.960   3.714
53420W        W18405  38.289   7.145  11.058
53421W        W18406  39.969   1.403  13.383
53422W        W18407  26.770   2.504   3.352
53423W        W18408  29.255  35.321  12.006
53424W        W18409  31.891   5.878   4.371
53425W        W18410  37.271  31.544   0.320
53426W        W18411   7.749  33.368   3.607
53427W        W18412   9.897  16.849   3.953
53428W        W18413  26.033  33.421   3.207
53429W        W18414  25.675  11.776  13.488
53430W        W18415  23.467   8.924   2.623
53431W        W18416  24.982  23.957  13.952
53432W        W18417  44.537   4.388  14.881
53433W        W18418   6.070  10.025   3.338
53434W        W18419  43.576   5.277  11.658
53435W        W18420  44.947   9.616   2.327
53436W        W18421   0.708  41.722   2.316
53437W        W18422   2.028  21.734  11.208
53438W        W18423   6.297   6.453  12.353
53439W        W18424  32.050  31.632   2.727
53440W        W18425  27.386  10.562   2.194
53441W        W18426   8.983  19.907   4.176
53442W        W18427   8.267  37.365  11.744
53443W        W18428  38.376  34.578   4.477
53444W        W18429  22.277  28.069   3.815
53445W        W18430  29.115  21.631   0.891
53446W        W18431   7.669  44.110  10.250
53447W        W18432  36.819  17.967   4.197
53448W        W18433  32.358  25.586  12.885
53449W        W18434  27.514  17.249  13.538
53450W        W18435  44.802  18.174   4.878
53451W        W18436  33.902  26.045  13.532
53452W        W18437  23.431  19.194   0.501
53453W        W18438   4.952  23.449  11.693
53454W        W18439  41.534  43.728   3.624
53455W        W18440  10.285  25.245   0.482
53456W        W18441  28.569  13.163   4.205
53457W        W18442  16.677  36.534   3.726
53458W        W18443  31.955  11.176   1.403
53459W        W18444  38.568  43.458   4.810
53460W        W18445  22.936   5.178   0.351
53461W        W18446  15.549  12.010  13.407
53462W        W18447  42.449  22.373  13.940
53463W        W18448  19.693  11.829  12.119
53464W        W18449  40.199  33.841   1.425
53465W        W18450  42.151  44.923   1.900
53466W        W18451  18.647   1.368  11.937
53467W        W18452  21.527   8.723  12.503
53468W        W18453  20.939  38.510  13.315
53469W        W18454  32.036  28.975   4.275
53470W        W18455  11.516  42.256  11.028
53471W        W18456  21.093  22.012   0.729
53472W        W18457   5.400  28.094   2.125
53473W        W18458   9.892  21.804  13.009
53474W        W18459  10.759  10.530  13.770
53475W        W18460  27.923  17.707   3.604
53476W        W18461  34.057  31.096  10.738
53477W        W18462  29.802  43.817   0.545
53478W        W18463  39.450  16.255   3.710
53479W        W18464  13.703  24.288   0.758
53480W        W18465   9.376  18.981  10.993
53481W        W18466  16.546   9.856   4.119
53482W        W18467  14.871  25.981  11.164
53483W        W18468  34.137  16.204  13.538
53484W        W18469  41.030  39.014  13.865
53485W        W18470   6.440  44.471  11.077
53486W        W18471  18.777   2.394  14.910
53487W        W18472  39.014  18.561   4.143
53488W        W18473  30.473  14.592   2.949
53489W        W18474  23.597  19.833   4.611
53490W        W18475   7.772  40.840   1.466
53491W        W18476  30.033  35.025   0.460
53492W        W18477  33.357  36.597   4.659
53493W        W18478  24.710   5.238   3.245
53494W        W18479  27.013  39.328   4.285
53495W        W18480  27.824  16.816   2.235
53496W        W18481  32.395   9.127   0.777
53497W        W18482  28.199  36.261   4.149
53498W        W18483   0.439  25.283   2.044
53499W        W18484  41.807  34.131  12.026
53500W        W18485   9.635  11.380   3.779
53501W        W18486  22.161  43.419   1.929
53502W        W18487   2.754  19.679  13.142
53503W        W18488  44.922   9.076   2.249
53504W        W18489  40.460  44.816   3.919
53505W        W18490   9.539   4.713  11.478
53506W        W18491  34.592  17.350  14.913
53507W        W18492  11.080  18.604  14.484
53508W        W18493  28.829  29.933   4.649
53509W        W18494  25.648   8.594   2.271
53510W        W18495  14.019  23.074  10.817
53511W        W18496  24.059  30.626  14.279
53512W        W18497  32.741  11.299  11.147
53513W        W18498  20.090  11.957   3.288
53514W        W18499  44.384  11.623   2.622
53515W        W18500   5.906  30.128  13.257
53516W        W18501   6.412  43.221   1.618
53517W        W18502  24.477  11.334  13.382
53518W        W18503  22.785  41.791   3.878
53519W        W18504  35.656  15.649  14.535
53520W        W18505  28.603  18.207  14.892
53521W        W18506  15.867   1.181   1.276
53522W        W18507  25.713   1.313  14.451
53523W        W18508   2.197   2.409  14.784
53524W        W18509  40.013   5.620  12.297
53525W        W18510  40.442  12.100   3.848
53526W        W18511  31.869   8.293  13.567
53527W        W18512  24.173  34.956   4.984
53528W        W18513  10.795  11.545   2.885
53529W        W18514  36.350  11.467  14.920
53530W        W18515  41.233  30.727  11.135
53531W        W18516  40.217  33.976   3.208
53532W        W18517  30.280  15.069   2.109
53533W        W18518  25.053  15.980  12.452
53534W        W18519   4.453   6.298  11.859
53535W        W18520  21.971  18.569   4.527
53536W        W18521   3.338  24.088  13.839
53537W        W18522  42.860   0.380   4.920
53538W        W18523   4.052  32.097   5.037
53539W        W18524  35.789  26.155   3.390
53540W        W18525  32.343  25.518   4.134
53541W        W18526  16.650  34.846   1.535
53542W        W18527  14.337  43.801  10.750
53543W        W18528   3.767  41.460   2.716
53544W        W18529  24.302  32.111   1.475
53545W        W18530  12.863  14.061   2.794
53546W        W18531  11.671  37.586   2.277
53547W        W18532   3.742  39.417   2.076
53548W        W18533  39.741   8.368   3.010
53549W        W18534  29.535  18.643   4.796
53550W        W18535  27.114  22.076  11.581
53551W        W18536   3.715  38.954  13.091
53552W        W18537  25.804   5.239  10.685
53553W        W18538  19.183  30.886  11.171
53554W        W18539  38.177  34.559   9.710
53555W        W18540  42.353  35.494   3.214
53556W        W18541  23.900  30.484   5.179
53557W        W18542   3.661  41.252   4.544
53558W        W18543  21.084  12.494   9.861
53559W        W18544   1.275   0.846  13.619
53560W        W18545   0.710  21.070  12.029
53561W        W18546  17.953  11.831  13.590
53562W        W18547  22.636   5.839  11.792
53563W        W18548  26.107  41.826   0.636
53564W        W18549  22.830  11.812  13.026
53565W        W18550  41.956  17.004  14.434
53566W        W18551   7.192  18.464  11.557
53567W        W18552  29.097  33.227  10.436
53568W        W18553  44.377   6.884  14.488
53569W        W18554  12.249  14.702   0.933
53570W        W18555  25.394  22.040  14.254
53571W        W18556  14.950  35.043  12.703
53572W        W18557   5.353  26.098  11.238
53573W        W18558   5.205  37.512   4.624
53574W        W18559  25.000   0.657   3.755
53575W        W18560   0.624   4.422   4.172
53576W        W18561   7.150  26.269  11.057
53577W        W18562  15.215   6.188   0.801
53578W        W18563  42.555  18.027  12.594
53579W        W18564  38.622  18.177  10.508
53580W        W18565  12.373  38.909   3.133
53581W        W18566   5.714   1.794   3.348
53582W        W18567  15.810  13.064  10.548
53583W        W18568  11.653  19.927  12.553
53584W        W18569  11.233  28.852   2.601
53585W        W18570  27.651   0.137   2.542
53586W        W18571  39.455  37.396  11.487
53587W        W18572  11.255  17.660   0.436
53588W        W18573   1.478  34.586  12.605
53589W        W18574  42.019  40.938  13.056
53590W        W18575  14.063  32.308  13.603
53591W        W18576  29.996  25.580   0.402
53592W        W18577   9.685   3.826   3.207
53593W        W18578  11.797   3.257  12.865
53594W        W18579  42.090  22.396   2.822
53595W        W18580  36.460  17.530  13.910
53596W        W18581   1.933  30.854  12.546
53597W        W18582  23.578   6.282  12.821
53598W        W18583   2.982  37.425   3.614
53599W        W18584  44.846  18.793   2.809
53600W        W18585  26.794  19.251  11.546
53601W        W18586  40.485  39.875   2.275
53602W        W18587  34.093   4.836  11.949
53603W        W18588  40.349  23.991   0.515
53604W        W18589  16.168  25.695  10.245
53605W        W18590  16.766  27.475   1.694
53606W        W18591  20.203  15.798   5.226
53607W        W18592  40.749   6.443   0.805
53608W        W18593  24.563   7.243   3.646
53609W        W18594  23.450  33.333  10.888
53610W        W18595  17.675  26.433  14.907
53611W        W18596  36.435  26.201  14.910
53612W        W18597  37.656   6.134   4.601
53613W        W18598  23.939   9.403   1.841
53614W        W18599  22.899  37.444   4.108
53615W        W18600  10.358  40.924   3.297
53616W        W18601  18.167  43.805   4.744
53617W        W18602  10.261   2.586   0.542
53618W        W18603  13.695   9.809  11.633
53619W        W18604  34.748  18.989  13.003
53620W        W18605  27.139  30.068   1.981
53621W        W18606  18.701   4.398  12.859
53622W        W18607  17.643  40.996   0.775
53623W        W18608   7.646  26.621   3.806
53624W        W18609  22.471  36.304  11.084
53625W        W18610   5.809  27.297  14.409
53626W        W18611  15.846   8.253   0.073
53627W        W18612  21.682  23.799   3.160
53628W        W18613  38.544  17.173   1.024
53629W        W18614  44.425  15.519  13.067
53630W        W18615  28.987  30.657   2.619
53631W        W18616  36.207  36.416  10.377
53632W        W18617   4.383  17.281  11.207
53633W        W18618   3.648   4.974   2.185
53634W        W18619  32.348  43.941   2.577
53635W        W18620  43.761  17.250  13.458
53636W        W18621  39.267  24.868  13.865
53637W        W18622  42.418  41.809   4.765
53638W        W18623   9.780  37.579  12.926
53639W        W18624  43.383  21.084  14.996
53640W        W18625  35.454  10.120   4.069
53641W        W18626  40.776  13.080  11.427
53642W        W18627  23.407  36.428  14.777
53643W        W18628  20.484  41.586   0.712
53644W        W18629   3.015  39.927   1.881
53645W        W18630  23.522  13.616   2.200
53646W        W18631  35.415  40.439  11.184
53647W        W18632   7.040   6.996  12.660
53648W        W18633  32.150   3.381  10.939
53649W        W18634  21.154  33.067   4.719
53650W        W18635  19.688  41.412  11.292
53651W        W18636  31.592  44.425   3.804
53652W        W18637  18.611  40.221  11.645
53653W        W18638  27.859  23.476   2.814
53654W        W18639  37.354  44.987  11.089
53655W        W18640  26.594  38.662   0.530
53656W        W18641  18.248  37.264  10.687
53657W        W18642  32.664  19.978  12.492
53658W        W18643  36.573  29.733  13.809
53659W        W18644  24.973  19.639  13.601
53660W        W18645  36.112  21.499   1.260
53661W        W18646  11.349   4.912   4.302
53662W        W18647   1.833  28.869  11.430
53663W        W18648  24.545  18.348  11.480
53664W        W18649  17.809  29.623  14.334
53665W        W18650  36.363  36.390   3.637
53666W        W18651  17.110  18.216   2.731
53667W        W18652  13.318  29.541  14.421
53668W        W18653  25.251  14.269   4.580
53669W        W18654  20.140  25.206   0.613
53670W        W18655  32.702   5.223  12.021
53671W        W18656   8.770   5.363  12.020
53672W        W18657   8.740  21.593   3.278
53673W        W18658  42.923  41.254  11.998
53674W        W18659  38.971   9.931   4.639
53675W        W18660   3.259  44.680  12.599
53676W        W18661   1.192  26.517  13.667
53677W        W18662  13.063  25.506  13.922
53678W        W18663   9.770  42.853  14.830
53679W        W18664  24.271  20.083   3.615
53680W        W18665  21.504   9.073   2.174
53681W        W18666  16.665   9.715   3.648
53682W        W18667   8.746   5.144   3.018
53683W        W18668  10.709  27.942   2.398
53684W        W18669   9.263  15.576   0.901
53685W        W18670  37.126  18.625  13.952
53686W        W18671  15.934  30.481  11.672
53687W        W18672  32.368  32.858   1.310
53688W        W18673  42.237  44.446   2.513
53689W        W18674  21.661  15.209  14.078
53690W        W18675   8.412  10.010  12.158
53691W        W18676  33.526   1.620   4.629
53692W        W18677   1.276  37.590   0.410
53693W        W18678  36.505  11.130  10.867
53694W        W18679   1.227  22.078   4.668
53695W        W18680  34.011   3.870   1.745
53696W        W18681  20.753  19.493   2.880
53697W        W18682   2.874  16.527   2.747
53698W        W18683   2.918   2.631  11.299
53699W        W18684  13.229  26.855   1.868
53700W        W18685  17.247  12.547   4.332
53701W        W18686  17.190   8.741   4.081
53702W        W18687  10.440  12.385  11.538
53703W        W18688  40.370  38.260  10.686
53704W        W18689   1.389  31.486  10.595
53705W        W18690  18.689  28.695   2.335
53706W        W18691  36.430   2.125   0.788
53707W        W18692   9.529  18.560  12.059
53708W        W18693  39.810  13.266  13.824
53709W        W18694  38.243  32.362  11.050
53710W        W18695  20.644  31.455  11.140
53711W        W18696  11.869  28.484  12.641
53712W        W18697  44.437   3.447   4.087
53713W        W18698  20.199   9.135  13.971
53714W        W18699  16.283  32.572  10.939
53715W        W18700  17.349   5.207  13.081
53716W        W18701   4.759  28.488   3.672
53717W        W18702   3.109  14.138   2.082
53718W        W18703  18.282  31.996  13.501
53719W        W18704   3.669   9.625   3.316
53720W        W18705   6.922   3.232   4.285
53721W        W18706  22.490   1.531   0.287
53722W        W18707  21.996  43.256   2.787
53723W        W18708  15.618  39.564  12.950
53724W        W18709  27.977  10.486   1.342
53725W        W18710   4.996   2.405   0.062
53726W        W18711  21.774  16.401  12.443
53727W        W18712   0.391  15.642  12.293
53728W        W18713  35.656  31.861   0.752
53729W        W18714  32.461  26.550   3.155
53730W        W18715   8.315  18.358   2.624
53731W        W18716  15.490  40.368   2.652
53732W        W18717  29.642  39.402   1.849
53733W        W18718  25.799  26.120  10.760
53734W        W18719  30.098  22.256   3.682
53735W        W18720  43.270  36.992   1.241
53736W        W18721  31.554   8.148  12.211
53737W        W18722  42.966  22.060   4.137
53738W        W18723   3.797   6.336  14.792
53739W        W18724  36.610  14.736   0.984
53740W        W18725  10.656  30.905   3.551
53741W        W18726   6.297  22.674   3.546
53742W        W18727  31.176   2.198  13.989
53743W        W18728  28.925  18.000  11.677
53744W        W18729  42.550   6.313   2.168
53745W        W18730  27.426  38.457   0.487
53746W        W18731   3.968  39.272   4.556
53747W        W18732   9.903  17.693  11.227
53748W        W18733  15.482  12.394  13.739
53749W        W18734  34.149  33.986  10.755
53750W        W18735  22.606  27.072   1.490
53751W        W18736   9.933  23.073   0.729
53752W        W18737  17.636  17.690  12.359
53753W        W18738   3.508   4.620  13.867
53754W        W18739   8.443   3.183  14.033
53755W        W18740  32.560  41.025  12.565
53756W        W18741  44.999  34.618  11.172
53757W        W18742   4.787  37.085   1.554
53758W        W18743  24.548   7.715  13.465
53759W        W18744  36.837   1.890  14.281
53760W        W18745  33.613   1.954   1.825
53761W        W18746   3.262  36.120  11.356
53762W        W18747   4.953   3.268   2.437
53763W        W18748  19.786  31.838   3.907
53764W        W18749  27.973   9.412  11.745
53765W        W18750  38.302  21.693  13.932
53766W        W18751  27.431  12.677   4.414
53767W        W18752  39.109  17.760  14.785
53768W        W18753  27.851  15.615  12.043
53769W        W18754   5.580   5.259   3.720
53770W        W18755   6.348  20.604   0.492
53771W        W18756  24.621  38.859   2.475
53772W        W18757  36.369  10.935  12.161
53773W        W18758  33.680  17.582   1.622
53774W        W18759   0.919  12.293   2.635
53775W        W18760  23.563   3.203   2.667
53776W        W18761  13.572  33.152  10.999
53777W        W18762   2.854  43.383   2.619
53778W        W18763  13.449  22.246  10.272
53779W        W18764  22.178  26.608  14.959
53780W        W18765  44.309  30.616   3.832
53781W        W18766  30.878   8.870   2.665
53782W        W18767  11.715  21.422  11.467
53783W        W18768  34.154   2.081   3.644
53784W        W18769  27.208  39.026  12.206
53785W        W18770  12.130   0.946   1.439
53786W        W18771  38.931   7.159  12.555
53787W        W18772  18.984  38.910   4.753
53788W        W18773  30.683  18.186  13.903
53789W        W18774  32.368  33.038   4.667
53790W        W18775  26.747  44.863  10.587
53791W        W18776  30.706  18.120  14.816
53792W        W18777  28.985  39.438   0.850
53793W        W18778  25.421  25.393  14.434
53794W        W18779  20.005  37.474   2.550
53795W        W18780  44.536  15.748  10.835
53796W        W18781   6.419  14.628   1.958
53797W        W18782  15.534  39.867   4.850
53798W        W18783  42.646   7.841   1.682
53799W        W18784   6.174  37.340   2.921
53800W        W18785  20.462  33.379  13.465
53801W        W18786  20.372  29.646  12.412
53802W        W18787   0.904  31.548   1.581
53803W        W18788   8.293  26.179  14.937
53804W        W18789   1.380   0.977   2.422
53805W        W18790  41.580  33.350   2.383
53806W        W18791  21.765  32.103   1.689
53807W        W18792  17.853  17.686  13.880
53808W        W18793  37.150  21.368  14.054
53809W        W18794  29.935   3.255  14.437
53810W        W18795  23.037  19.262   2.230
53811W        W18796   8.656  24.549  11.432
53812W        W18797  22.699  40.213  11.075
53813W        W18798  15.080   8.766   0.706
53814W        W18799  11.702   9.675  12.145
53815W        W18800  39.127  34.444   0.884
53816W        W18801  40.535  15.793  13.543
53817W        W18802  40.811  25.430   1.858
53818W        W18803  22.547  24.584  13.256
53819W        W18804   0.792   0.573  11.506
53820W        W18805  19.596  25.282   2.622
53821W        W18806  11.146  38.830  13.534
53822W        W18807  23.347  43.440   0.228
53823W        W18808   8.305  44.288  13.594
53824W        W18809  43.080  40.517   0.774
53825W        W18810  24.030   6.733  11.742
53826W        W18811  42.090  42.712  10.137
53827W        W18812  31.475  29.780   0.842
53828W        W18813  39.932   8.874  10.905
53829W        W18814  44.374  38.075   9.775
53830W        W18815   4.309  17.341   2.412
53831W        W18816   0.378  15.415   3.074
53832W        W18817   8.562   0.110   9.867
53833W        W18818   1.022  11.254   3.100
53834W        W18819  17.724  25.024   4.608
53835W        W18820   1.326  16.668  14.271
53836W        W18821  24.451  19.092  10.754
53837W        W18822  38.892  10.100   0.397
53838W        W18823  27.237  34.936   1.787
53839W        W18824  37.521  39.938  14.992
53840W        W18825  19.834  27.982   3.956
53841W        W18826  27.016  18.700  14.836
53842W        W18827  24.523  27.633   2.246
53843W        W18828  38.296  20.538  11.556
53844W        W18829  10.815  12.411   4.540
53845W        W18830  41.286   6.643   3.364
53846W        W18831   2.260   6.356   1.351
53847W        W18832  13.747  35.587   1.601
53848W        W18833  27.897  11.357   1.262
53849W        W18834  36.260  19.474  10.547
53850W        W18835  31.172  39.900   1.232
53851W        W18836  34.057  36.592   4.114
53852W        W18837  23.339  19.717   0.360
53853W        W18838  20.448   2.119   2.403
53854W        W18839  42.109  42.017   1.424
53855W        W18840  11.690  19.238   3.826
53856W        W18841   6.450   1.469   0.436
53857W        W18842  15.341  14.090  12.832
53858W        W18843   7.333  40.835  14.331
53859W        W18844  39.142  27.709   4.036
53860W        W18845   2.508  36.650  10.626
53861W        W18846  15.063  24.260  11.150
53862W        W18847  37.007  11.361   0.959
53863W        W18848  34.160   6.334  13.172
53864W        W18849  24.051   6.782   0.334
53865W        W18850  13.912   5.491   2.810
53866W        W18851  22.483  27.701  11.112
53867W        W18852   5.301  10.662  14.880
53868W        W18853   8.817  36.849  10.643
53869W        W18854  17.177  41.340   2.157
53870W        W18855   4.793  18.095   0.087
53871W        W18856  36.802  42.320   4.677
53872W        W18857  13.762   1.913   2.420
53873W        W18858  38.760   9.954   2.318
53874W        W18859  38.288  34.061   0.693
53875W        W18860  26.609  29.911   2.370
53876W        W18861  41.041  26.614  12.425
53877W        W18862  42.448  29.800   9.865
53878W        W18863  26.161  11.072   4.794
53879W        W18864  20.252  20.254   2.767
53880W        W18865  27.226  38.891   4.082
53881W        W18866  25.968  13.774  12.099
53882W        W18867  39.546  11.516   3.626
53883W        W18868   3.905  26.684  10.790
53884W        W18869   5.527  32.515  12.451
53885W        W18870  10.559  28.868   0.395
53886W        W18871   4.627  43.290   4.575
53887W        W18872  19.645  24.754   2.712
53888W        W18873   3.959  33.971  14.063
53889W        W18874   7.942  30.976   4.848
53890W        W18875  13.415  17.983   5.045
53891W        W18876  36.326  12.776   2.210
53892W        W18877  18.504  40.121  13.979
53893W        W18878  12.219  32.873   4.593
53894W        W18879  39.635  20.115  12.450
53895W        W18880  35.300  23.564   2.726
53896W        W18881   0.253  11.870   4.638
53897W        W18882  35.444  44.619   1.412
53898W        W18883   1.342  14.584  11.654
53899W        W18884  43.202  44.056   1.775
53900W        W18885  22.070  19.341  13.018
53901W        W18886  39.455  41.724   3.816
53902W        W18887   7.186  15.559  14.293
53903W        W18888   2.032   7.385  13.662
53904W        W18889   1.076  23.627   2.121
53905W        W18890  12.678  15.679  11.960
53906W        W18891   4.522  29.323   4.109
53907W        W18892  21.754   5.763  11.108
53908W        W18893  10.723  29.340  12.868
53909W        W18894  35.055  33.178  14.936
53910W        W18895  12.215  41.023  13.930
53911W        W18896  11.298  32.168   2.388
53912W        W18897   2.281  18.427  12.895
53913W        W18898   8.676  27.740   0.952
53914W        W18899  29.776  33.560   3.779
53915W        W18900  32.162  16.564  11.354
53916W        W18901  38.552  11.781   0.347
53917W        W18902  28.949   0.775  12.143
53918W        W18903  22.058  19.326   3.393
53919W        W18904  23.505  30.519   3.783
53920W        W18905  30.470  14.789  11.581
53921W        W18906  37.211  34.850   1.771
53922W        W18907  19.771  18.639  12.613
53923W        W18908  44.807  20.985   2.313
53924W        W18909  26.458  39.790   3.181
53925W        W18910   8.456  25.428  14.438
53926W        W18911  38.425  19.745  14.348
53927W        W18912  29.003  10.081   4.864
53928W        W18913  18.828   9.661  12.097
53929W        W18914  13.187   8.318   0.131
53930W        W18915   4.197  39.261   3.724
53931W        W18916  32.759  44.906   3.799
53932W        W18917  28.448  29.472  11.446
53933W        W18918  33.437  35.355   2.763
53934W        W18919  39.560  16.116  11.144
53935W        W18920  38.828  26.512  14.052
53936W        W18921   4.294  29.867  14.460
53937W        W18922  31.648  20.606  14.034
53938W        W18923  11.373  15.129  11.180
53939W        W18924  24.097  35.915  13.830
53940W        W18925  42.540   3.256   3.667
53941W        W18926  36.659  21.710   2.277
53942W        W18927  33.856   8.786  13.876
53943W        W18928  28.075  44.366   3.727
53944W        W18929  10.855  25.508  11.167
53945W        W18930  16.873  25.199  11.647
53946W        W18931   1.444  33.006   4.047
53947W        W18932  23.158  14.343  14.288
53948W        W18933  36.124   3.256  12.882
53949W        W18934  28.153  23.642   1.420
53950W        W18935  35.044  12.298  11.053
53951W        W18936  42.896   1.882  12.933
53952W        W18937   8.412   8.964   4.310
53953W        W18938  16.099   0.647   4.471
53954W        W18939  18.210   1.808   1.391
53955W        W18940  21.652  13.209  13.327
53956W        W18941  25.495  38.417  13.439
53957W        W18942  18.361  11.888  12.036
53958W        W18943  20.131  19.280   1.814
53959W        W18944  39.265  21.693  11.014
53960W        W18945  25.900  20.625  13.424
53961W        W18946   0.911  15.355   4.591
53962W        W18947  15.772  42.494   2.691
53963W        W18948  40.523   6.679  13.622
53964W        W18949  34.550   0.334   1.940
53965W        W18950  29.016  18.009  11.168
53966W        W18951   2.288   8.865   0.365
53967W        W18952  39.802   0.029   2.149
53968W        W18953  21.123  39.978   3.829
53969W        W18954  22.945  26.673   0.406
53970W        W18955  34.513  42.326   3.715
53971W        W18956  30.060  13.411   4.582
53972W        W18957   7.906   9.668  14.883
53973W        W18958   8.828  18.539   1.422
53974W        W18959  14.815   4.771   2.351
53975W        W18960  44.270  18.202  13.311
53976W        W18961  42.793   1.375   3.413
53977W        W18962  10.127   7.909  12.098
53978W        W18963  36.134  20.785  10.495
53979W        W18964  35.395   0.524   1.942
53980W        W18965  18.946  38.634  12.915
53981W        W18966  19.236  33.894   0.731
53982W        W18967   4.454   9.964  13.675
53983W        W18968   8.888  20.102   1.606
53984W        W18969  19.652  36.812   2.497
53985W        W18970  11.647  44.026  14.450
53986W        W18971  25.507  24.644   2.119
53987W        W18972  21.638  42.885   2.692
53988W        W18973  44.862  16.762   0.949
53989W        W18974  39.629  14.858  11.988
53990W        W18975  39.319  12.357   4.179
53991W        W18976  38.112   1.975  11.112
53992W        W18977  35.396  14.166  11.834
53993W        W18978  34.354  38.418   2.877
53994W        W18979  34.343  36.487  13.947
53995W        W18980   8.765  32.824   0.677
53996W        W18981  16.332  16.074   2.334
53997W        W18982   2.446  36.869   0.301
53998W        W18983  31.954   4.385  13.532
53999W        W18984  21.473   9.394  10.763
54000W        W18985  12.444  35.543  12.498
54001W        W18986  24.113  40.594  14.983
54002W        W18987  42.248  37.847  12.974
54003W        W18988   5.400  26.160  12.273
54004W        W18989   3.465  41.719  14.438
54005W        W18990  17.252  41.402   3.518
54006W        W18991  43.452   4.735  14.197
54007W        W18992  27.899   7.787   0.424
54008W        W18993  41.034   4.032   2.920
54009W        W18994   3.067   7.935   4.327
54010W        W18995  13.565  14.342  12.059
54011W        W18996  35.885  40.309  14.802
54012W        W18997  28.957  26.359  11.226
54013W        W18998   4.659  34.689   3.709
54014W        W18999  34.154   3.461  11.257
54015W        W19000   6.217   2.002  13.469
54016W        W19001   1.412  40.093   1.865
54017W        W19002  36.011  17.724   2.156
54018W        W19003  28.036  27.690   2.839
54019W        W19004  44.242   8.146   3.499
54020W        W19005   7.442  41.060   3.337
54021W        W19006   1.763  15.619  10.717
54022W        W19007  22.659  19.579   2.892
54023W        W19008   3.866   6.611   4.638
54024W        W19009  33.508  44.394   9.932
54025W        W19010  18.592   4.645  14.331
54026W        W19011  20.324  10.073   3.770
54027W        W19012  34.296   1.882  13.429
54028W        W19013  30.155  32.176   4.122
54029W        W19014  27.193  19.587   2.163
54030W        W19015   0.903  17.569   0.253
54031W        W19016  32.411  36.028   1.177
54032W        W19017   2.364   8.850  14.290
54033W        W19018   5.451  12.879   3.333
54034W        W19019  39.578  17.655  10.201
54035W        W19020  23.369  13.584  12.111
54036W        W19021  30.812  10.207   0.300
54037W        W19022  14.645  15.328  14.694
54038W        W19023   2.430   5.899   1.473
54039W        W19024  30.057  10.621   0.855
54040W        W19025  12.098  32.395   4.965
54041W        W19026   3.683  43.005   4.238
54042W        W19027   4.084   6.761   1.673
54043W        W19028  24.207  21.220   0.190
54044W        W19029   8.633  31.232  12.901
54045W        W19030   1.513  21.293   1.781
54046W        W19031  24.313  30.003  14.927
54047W        W19032  34.447   6.866   4.483
54048W        W19033  40.595  25.085  12.051
54049W        W19034  12.905  34.385  14.489
54050W        W19035   2.333   8.860   1.237
54051W        W19036  31.475  26.057   4.070
54052W        W19037  19.219  32.593   0.865
54053W        W19038  42.548  10.652   3.650
54054W        W19039  37.501  36.029  11.019
54055W        W19040  25.391   4.110  13.102
54056W        W19041   4.655   7.263   0.797
54057W        W19042  42.058  23.705   2.178
54058W        W19043  44.794  11.908   4.887
54059W        W19044  39.340   5.283  13.401
54060W        W19045  32.457   1.213  13.435
54061W        W19046   6.257  37.604   0.894
54062W        W19047  29.504  35.194   3.676
54063W        W19048  12.170  34.519   0.871
54064W        W19049  19.346  21.127  13.440
54065W        W19050  28.021  44.430  13.517
54066W        W19051  40.994  44.208   4.702
54067W        W19052  34.047  35.119  12.100
54068W        W19053  41.358   3.276  11.213
54069W        W19054  27.536  41.455  11.962
54070W        W19055  43.906  38.500   1.349
54071W        W19056  37.429  18.852  13.596
54072W        W19057  29.308  10.288  11.859
54073W        W19058  22.169   2.011   3.398
54074W        W19059   3.356  28.684   0.305
54075W        W19060  25.009  26.391  12.018
54076W        W19061  28.792  40.572   3.605
54077W        W19062  19.150  39.775   4.224
54078W        W19063  30.587  35.848   0.772
54079W        W19064  16.232  18.830   3.708
54080W        W19065  18.697  20.742  12.354
54081W        W19066  36.993  23.794   2.781
54082W        W19067   2.711  18.251   0.470
54083W        W19068  30.016   0.852   0.696
54084W        W19069  21.161  26.034   1.216
54085W        W19070  23.489  41.058  14.345
54086W        W19071  11.362  16.528   1.045
54087W        W19072  39.292  24.932  12.398
54088W        W19073  29.853  31.638   2.186
54089W        W19074  32.165  42.577  14.783
54090W        W19075   2.000  34.550  12.397
54091W        W19076  41.563  12.381  13.985
54092W        W19077  41.875   2.664   4.244
54093W        W19078   2.773  25.097  12.473
54094W        W19079   4.958   3.970  11.088
54095W        W19080  35.789  37.096   1.932
54096W        W19081  19.806  42.787   3.118
54097W        W19082  29.179  35.090  13.677
54098W        W19083  25.348  14.319  13.234
54099W        W19084  43.298  35.204   1.206
54100W        W19085  17.554  28.522  12.550
54101W        W19086  28.206  35.526  14.540
54102W        W19087   7.332  21.534  14.912
54103W        W19088   3.081  14.808   1.620
54104W        W19089  35.142  28.984   1.795
54105W        W19090  36.071  36.618  12.827
54106W        W19091   2.749   0.403   3.108
54107W        W19092  16.819  35.938  14.345
54108W        W19093   8.936  29.721   3.133
54109W        W19094  24.404   0.366  12.646
54110W        W19095  15.824   4.226   5.047
54111W        W19096  22.072  23.729  14.061
54112W        W19097  32.526  11.753  11.091
54113W        W19098  36.510  19.054  10.702
54114W        W19099  10.299  13.772   4.441
54115W        W19100  41.857  28.215  12.608
54116W        W19101  38.839  22.563   0.752
54117W        W19102  24.060  41.673  11.666
54118W        W19103  44.943  44.905  11.981
54119W        W19104   5.351  30.437   4.252
54120W        W19105  40.592  32.307  12.460
54121W        W19106  42.055  21.782   2.364
54122W        W19107  40.142   7.788   4.670
54123W        W19108  39.289  20.059   1.713
54124W        W19109   8.738  17.534  13.062
54125W        W19110  20.898  20.497  12.229
54126W        W19111  22.502  18.077  10.661
54127W        W19112  23.623  36.844   1.153
54128W        W19113  30.374   3.501   5.028
54129W        W19114  41.283  27.281   1.843
54130W        W19115  21.150  24.634   3.080
54131W        W19116  36.489  42.841  14.481
54132W        W19117  34.520  20.639   1.282
54133W        W19118  22.320  15.721  13.064
54134W        W19119  37.455  25.079   0.362
54135W        W19120   6.973  19.515   0.594
54136W        W19121  31.448  19.647   3.545
54137W        W19122  36.319  27.148   3.111
54138W        W19123   8.979  11.392  11.085
54139W        W19124   5.672  28.507  12.471
54140W        W19125  18.671  11.336   0.830
54141W        W19126  42.927   3.271  14.984
54142W        W19127   3.434  37.060   4.849
54143W        W19128  32.325  37.963   3.551
54144W        W19129   8.714  31.420   4.399
54145W        W19130  43.174  20.697   5.157
54146W        W19131  39.337   5.932   0.813
54147W        W19132  18.158   4.147   3.514
54148W        W19133  35.540  43.499  12.641
54149W        W19134  35.430  18.067   0.038
54150W        W19135  15.020   9.894  11.778
54151W        W19136  15.224  26.582   3.767
54152W        W19137  43.083  19.648   1.913
54153W        W19138  20.827  37.622   0.363
54154W        W19139   5.543  35.157  14.457
54155W        W19140  19.943  20.219  10.169
54156W        W19141  27.206  35.343   3.467
54157W        W19142   6.324  30.473   0.793
54158W        W19143  24.789  30.250   1.305
54159W        W19144  13.841  23.792   0.898
54160W        W19145  36.830  26.398   3.563
54161W        W19146  11.209  31.943  13.911
54162W        W19147  33.450  17.803   3.296
54163W        W19148  13.636  41.236   3.661
54164W        W19149   6.257  19.030   1.260
54165W        W19150  40.330   4.247  14.392
54166W        W19151   0.870  11.310  12.633
54167W        W19152  44.236  22.553   0.922
54168W        W19153   4.931   0.182   4.155
54169W        W19154  19.757   4.264   0.847
54170W        W19155  24.604  43.335   3.809
54171W        W19156  22.229  12.179   1.187
54172W        W19157  31.568  39.488  12.875
54173W        W19158  42.438  20.864   2.622
54174W        W19159  25.640   8.878  14.248
54175W        W19160  17.319  13.203   2.679
54176W        W19161  20.568  36.602  13.999
54177W        W19162   8.873  10.784  14.862
54178W        W19163  39.087  36.112   2.232
54179W        W19164  21.676  42.964  12.986
54180W        W19165  43.385   8.511   4.147
54181W        W19166  28.221  25.989   1.756
54182W        W19167  28.605  37.425   0.494
54183W        W19168  39.429  17.832   3.677
54184W        W19169   4.888  23.145   2.777
54185W        W19170  12.197  10.333   1.160
54186W        W19171  10.276   3.245   1.675
54187W        W19172   5.859  43.515  12.956
54188W        W19173  16.057   4.623  13.055
54189W        W19174  28.432  24.478  10.665
54190W        W19175  39.090  18.628   5.433
54191W        W19176   1.577  38.572  12.015
54192W        W19177  14.435   0.407   1.844
54193W        W19178  34.811   3.370   5.100
54194W        W19179   6.196  44.249  10.676
54195W        W19180  14.260   3.680   3.048
54196W        W19181  17.258  39.149   1.263
54197W        W19182  35.467  24.407  14.349
54198W        W19183  37.948   7.235   2.963
54199W        W19184   0.945   0.673   3.634
54200W        W19185  21.150   0.509   3.339
54201W        W19186  33.012  29.657  10.738
54202W        W19187  17.070  43.379  14.692
54203W        W19188  14.913  16.809  11.080
54204W        W19189   0.940  25.983   1.877
54205W        W19190   3.516  17.354   0.805
54206W        W19191  14.695   1.709  13.508
54207W        W19192  31.381   8.296  14.905
54208W        W19193  28.063  19.993   4.107
54209W        W19194   8.067   9.924  11.771
54210W        W19195  18.977   2.398  12.576
54211W        W19196   1.206  39.648  13.431
54212W        W19197  22.066  14.545   4.183
54213W        W19198  16.916   8.968   1.356
54214W        W19199   4.535  20.743  14.310
54215W        W19200  20.703  10.548   2.460
54216W        W19201   1.507  10.886  13.044
54217W        W19202   1.800  21.179  10.994
54218W        W19203  12.719  28.666   4.949
54219W        W19204  44.848   5.451   3.646
54220W        W19205  17.340  37.910  13.770
54221W        W19206  16.551   0.542  12.057
54222W        W19207  41.994   3.212  10.289
54223W        W19208   3.796  42.586  14.831
54224W        W19209  21.710  23.004  11.430
54225W        W19210  44.830  26.379   3.189
54226W        W19211  35.805  39.420  12.433
54227W        W19212   0.820  32.850   2.265
54228W        W19213  40.154  44.574   1.205
54229W        W19214  20.350  10.778   1.543
54230W        W19215  10.692  44.668   0.459
54231W        W19216  40.512  27.356  14.022
54232W        W19217   4.085  23.295  11.209
54233W        W19218  34.459   8.555   1.290
54234W        W19219  42.434  27.192   0.465
54235W        W19220  33.112  13.648  14.752
54236W        W19221  18.670  36.206   9.907
54237W        W19222  22.724  23.451  12.935
54238W        W19223  16.844  26.633  13.002
54239W        W19224  16.008  32.660   0.803
54240W        W19225  41.782  28.967  13.199
54241W        W19226  36.039  16.442   2.963
54242W        W19227  35.671   2.232   3.645
54243W        W19228  27.541  25.454  11.930
54244W        W19229  11.190  10.268   1.424
54245W        W19230  23.937  32.489  12.017
54246W        W19231  37.390  36.840  12.022
54247W        W19232  10.156  34.317  10.802
54248W        W19233  34.599  31.399  14.969
54249W        W19234  24.141  15.065  11.147
54250W        W19235  16.269  33.535   2.366
54251W        W19236  10.407  11.976  12.022
54252W        W19237  16.178  10.863  11.428
54253W        W19238  32.527  19.302   0.134
54254W        W19239  38.988   4.820   3.875
54255W        W19240  34.755  10.344   0.703
54256W        W19241  29.932  28.853   1.415
54257W        W19242  19.870  28.211  10.451
54258W        W19243  33.079  22.691  11.073
54259W        W19244  29.674   6.783  12.577
54260W        W19245  14.169  23.611   0.026
54261W        W19246  12.044   9.732  13.462
54262W        W19247  28.052  38.377  10.315
54263W        W19248  35.582  43.447   4.554
54264W        W19249  43.284   7.738   4.700
54265W        W19250   0.584   9.222  12.868
54266W        W19251  26.646  19.678  12.208
54267W        W19252  12.551  24.573  12.211
54268W        W19253  35.055   2.724   1.713
54269W        W19254  41.406  43.842  12.469
54270W        W19255  30.145   1.948  12.088
54271W        W19256   7.777  17.155   1.991
54272W        W19257  13.758   5.748   2.351
54273W        W19258  23.137   2.685   4.901
54274W        W19259   1.034   4.645   2.847
54275W        W19260  15.165  23.592  12.454
54276W        W19261  37.794  44.323   3.447
54277W        W19262  10.313  27.165  13.869
54278W        W19263  13.360   4.192   2.390
54279W        W19264  27.272   9.697  14.343
54280W        W19265  41.043  39.959  10.306
54281W        W19266  36.952  29.115   1.932
54282W        W19267  35.200  15.352  13.894
54283W        W19268   0.388   8.897   1.902
54284W        W19269  34.111  37.880  11.122
54285W        W19270  24.792  21.210   4.168
54286W        W19271   9.493  15.836   0.336
54287W        W19272  18.162  18.817  14.309
54288W        W19273  21.113  36.442  10.958
54289W        W19274  36.395  27.952   0.456
54290W        W19275  26.211   7.691   4.107
54291W        W19276  39.943   5.694  10.653
54292W        W19277   6.464  38.815  10.549
54293W        W19278  10.081  27.173  12.550
54294W        W19279  36.173  17.749   0.638
54295W        W19280  35.603  36.054  10.790
54296W        W19281  16.514  42.912   5.014
54297W        W19282  32.058  34.161   2.428
54298W        W19283  14.927  18.975  13.527
54299W        W19284  38.183  37.671   3.089
54300W        W19285  15.705   6.963  10.611
54301W        W19286   0.595  29.060  12.688
54302W        W19287  30.540   7.110   4.202
54303W        W19288  14.736   2.153  11.566
54304W        W19289  24.444   2.960  14.162
54305W        W19290  18.938  25.036   3.523
54306W        W19291   8.327  25.971   2.759
54307W        W19292   9.887  22.497  11.073
54308W        W19293  26.710  43.589  12.027
54309W        W19294   7.541  44.892   2.289
54310W        W19295   3.216  12.058   0.747
54311W        W19296  41.614  33.103  12.406
54312W        W19297  38.778  36.810  12.003
54313W        W19298   5.877  35.356   0.928
54314W        W19299   6.377  24.550   0.793
54315W        W19300   9.725   4.545   1.737
54316W        W19301   7.400  13.876  12.602
54317W        W19302  35.089  23.598   0.897
54318W        W19303   9.294   0.011   0.418
54319W        W19304  44.981   3.271   3.566
54320W        W19305  39.811  34.893  12.016
54321W        W19306  41.000  12.871   0.026
54322W        W19307  41.548  44.271   1.384
54323W        W19308   2.208  28.700   0.945
54324W        W19309  16.678  12.592  12.788
54325W        W19310  33.265  11.350  11.144
54326W        W19311  33.613  13.149   0.242
54327W        W19312  34.391  32.908  11.507
54328W        W19313  14.754  37.877  13.947
54329W        W19314  25.113  20.813  13.105
54330W        W19315   2.783  17.484   3.538
54331W        W19316  37.937  16.386  11.329
54332W        W19317  10.099  29.948  11.553
54333W        W19318  17.558  21.077  12.439
54334W        W19319   1.264  19.322  11.192
54335W        W19320  15.597  37.673   0.484
54336W        W19321  24.056  21.539   3.688
54337W        W19322   5.111   7.373  13.264
54338W        W19323  20.934  36.630  14.400
54339W        W19324  35.172  34.011  10.561
54340W        W19325   5.385  30.670  12.461
54341W        W19326  25.962  13.227  12.060
54342W        W19327  35.392   2.705  12.316
54343W        W19328  33.626   2.024   2.727
54344W        W19329  33.898  20.587   1.527
54345W        W19330  43.941   0.643  12.990
54346W        W19331   9.836  38.498  14.304
54347W        W19332  41.356  33.808  10.957
54348W        W19333  14.697   1.730  12.108
54349W        W19334  32.492  23.210   3.304
54350W        W19335  35.364  34.759   0.945
54351W        W19336  44.782   9.706   3.265
54352W        W19337  30.138  41.369  11.455
54353W        W19338  30.218  14.816  10.767
54354W        W19339  23.009  29.880  12.778
54355W        W19340  33.355  21.929  13.239
54356W        W19341  40.993  41.056  11.248
54357W        W19342  21.456  20.947  12.335
54358W        W19343  21.331  15.153   1.773
54359W        W19344  17.172  14.136   0.477
54360W        W19345   7.524   1.139  14.080
54361W        W19346  29.961  10.860   2.580
54362W        W19347  38.365  10.573  14.530
54363W        W19348  24.404  24.518   4.645
54364W        W19349  30.541  12.345  14.036
54365W        W19350  19.103  18.533  14.347
54366W        W19351  16.564  41.604  11.142
54367W        W19352  33.562  23.260  10.296
54368W        W19353   9.866   0.910  12.814
54369W        W19354  44.330  20.407  14.069
54370W        W19355  35.341  11.704  13.967
54371W        W19356   9.962   1.694   4.596
54372W        W19357  13.847  39.507   1.362
54373W        W19358  25.765   9.432   2.287
54374W        W19359  40.509  15.114  14.487
54375W        W19360  32.570  40.463   0.490
54376W        W19361  23.619  18.797   0.201
54377W        W19362  36.790  16.001   2.729
54378W        W19363  29.973  25.468   2.200
54379W        W19364  23.842   1.906   3.172
54380W        W19365  25.970  43.493   0.731
54381W        W19366   6.130   6.846  12.060
54382W        W19367  39.311  24.040  13.317
54383W        W19368  40.580  21.895  13.032
54384W        W19369  20.728  21.254   2.303
54385W        W19370  22.731  37.100  13.413
54386W        W19371  30.873  34.384  11.520
54387W        W19372  41.975   3.614  11.042
54388W        W19373  24.502  32.329  12.569
54389W        W19374  16.579  31.547  12.439
54390W        W19375  16.292  29.016  13.495
54391W        W19376  32.947  31.942   0.323
54392W        W19377  43.630   9.900   2.753
54393W        W19378  35.136  16.228  14.691
54394W        W19379  12.270  15.728  10.495
54395W        W19380  39.944  40.247  11.682
54396W        W19381   8.664   2.685   5.061
54397W        W19382  18.651  23.149   2.299
54398W        W19383  20.051  43.907   1.007
54399W        W19384   4.642  12.305   0.675
54400W        W19385  29.442  20.572  12.061
54401W        W19386  32.005  41.968   3.583
54402W        W19387  18.439  28.629  13.830
54403W        W19388   6.428   3.042   4.538
54404W        W19389  40.308  13.128   2.189
54405W        W19390   2.762   0.182   1.247
54406W        W19391  40.447  43.531  14.529
54407W        W19392  21.816  26.596  11.743
54408W        W19393  20.042  11.846  10.284
54409W        W19394  11.287  22.997  12.575
54410W        W19395  21.484  10.874  14.019
54411W        W19396  28.622  30.929   0.140
54412W        W19397   0.263   5.632   2.734
54413W        W19398  43.798  23.220   1.394
54414W        W19399  26.530  36.841  13.379
54415W        W19400  12.136   6.210   3.740
54416W        W19401  33.669  13.600  11.441
54417W        W19402  38.525  18.633   3.233
54418W        W19403  10.504   6.809   9.594
54419W        W19404  34.530   9.372  13.731
54420W        W19405  43.470  11.258   4.303
54421W        W19406  27.997  25.916  12.843
54422W        W19407  29.898  40.368   5.072
54423W        W19408  37.403   0.161   1.267
54424W        W19409  32.599   2.462   4.015
54425W        W19410  15.003  38.440  11.874
54426W        W19411  16.713  13.854  11.974
54427W        W19412   3.795   7.848   2.749
54428W        W19413  44.882  29.072  12.898
54429W        W19414   3.705  17.325  12.661
54430W        W19415  30.027  38.356  13.852
54431W        W19416   0.599  20.624   3.383
54432W        W19417  33.776   9.382  12.641
54433W        W19418   6.317   8.707   4.064
54434W        W19419  12.679  42.014  14.974
54435W        W19420  38.823  33.821   4.130
54436W        W19421  27.536   2.376  11.205
54437W        W19422  16.024  40.583   0.292
54438W        W19423   9.867  21.050  11.038
54439W        W19424   6.890  39.525  13.796
54440W        W19425   4.590  33.675  10.302
54441W        W19426  15.536   5.706   2.400
54442W        W19427  24.164  14.530  10.319
54443W        W19428  14.412   0.284   1.245
54444W        W19429  34.111  41.401   1.882
54445W        W19430  44.017  13.082  13.389
54446W        W19431  34.723  44.278   3.763
54447W        W19432  14.744  18.709   1.199
54448W        W19433   7.165  10.188  10.629
54449W        W19434  21.440  12.783  10.578
54450W        W19435  35.810   2.480   4.133
54451W        W19436   2.043  13.893   4.132
54452W        W19437  23.526   9.823  11.127
54453W        W19438  42.642  41.410  14.921
54454W        W19439  19.150  18.023  14.278
54455W        W19440  18.682  29.181   1.142
54456W        W19441  22.705  25.725   2.150
54457W        W19442  30.921  27.660   2.151
54458W        W19443   2.504  22.438   1.637
54459W        W19444   1.322  35.414  14.405
54460W        W19445  13.286   3.944  12.699
54461W        W19446  13.257  12.738   0.657
54462W        W19447  41.252   0.939   4.574
54463W        W19448  44.212   3.898  13.247
54464W        W19449  28.837  41.388  12.809
54465W        W19450   4.741  35.488  13.814
54466W        W19451   9.269   3.912   2.894
54467W        W19452  19.407  36.693  11.253
54468W        W19453  38.352  41.065  13.408
54469W        W19454  40.465  41.555  13.035
54470W        W19455  40.366  33.013  13.061
54471W        W19456  39.512   6.664  10.624
54472W        W19457  28.223  15.594  10.494
54473W        W19458  44.465   8.888  13.974
54474W        W19459  42.425  11.883  14.361
54475W        W19460   6.880  42.490   4.172
54476W        W19461  24.922  32.451   3.215
54477W        W19462  41.145  24.146  10.400
54478W        W19463  34.473  43.861   2.675
54479W        W19464   2.263  25.481   3.895
54480W        W19465  13.310  10.597  14.895
54481W        W19466  37.025  19.278  12.131
54482W        W19467  39.038  42.745  13.799
54483W        W19468  23.918   8.949   2.883
54484W        W19469   4.154  43.298   2.891
54485W        W19470  26.599  10.773  12.021
54486W        W19471  36.874  37.748  13.410
54487W        W19472  12.018  43.137   0.981
54488W        W19473  16.316  15.752   3.669
54489W        W19474  10.389  39.959   0.705
54490W        W19475  14.307   0.815  12.022
54491W        W19476  18.045   0.359  10.966
54492W        W19477  39.833  43.437   3.564
54493W        W19478   1.270  30.470   0.896
54494W        W19479  17.367  35.453   3.252
54495W        W19480  32.143  24.047   3.365
54496W        W19481  36.837  12.110  14.387
54497W        W19482  14.702  24.019  13.395
54498W        W19483  39.339  20.190  14.001
54499W        W19484  25.467  27.665   2.203
54500W        W19485   7.398  32.135  11.813
54501W        W19486  12.606  20.736  14.498
54502W        W19487  29.482   8.467   3.158
54503W        W19488  28.324  17.943   1.283
54504W        W19489   9.716  34.577  10.896
54505W        W19490  21.754  39.117   0.418
54506W        W19491  31.575  32.986  13.559
54507W        W19492  32.351  30.919  13.483
54508W        W19493  30.463  40.611  11.479
54509W        W19494  32.244  41.388   0.882
54510W        W19495  32.674   9.441  11.543
54511W        W19496  21.638  27.081  11.023
54512W        W19497  31.738  38.049  14.063
54513W        W19498  23.958  34.586   3.176
54514W        W19499  30.948  13.352   0.693
54515W        W19500  22.375  36.014  11.475
54516W        W19501  21.469  15.700   0.380
54517W        W19502   5.720  17.223   4.314
54518W        W19503   9.866  35.530   2.828
54519W        W19504  41.414   5.127   0.939
54520W        W19505  15.744  43.656   2.804
54521W        W19506   9.663  38.691  12.028
54522W        W19507  12.318  41.781   2.208
54523W        W19508  28.086  43.822   4.072
54524W        W19509  40.244  13.671   3.967
54525W        W19510  43.356  18.606  14.752
54526W        W19511  22.625  11.402  11.376
54527W        W19512  33.850  10.619  10.608
54528W        W19513   8.067   8.754   2.749
54529W        W19514  38.329  16.036   2.428
54530W        W19515  14.293   6.310  13.784
54531W        W19516  38.622   5.340   1.026
54532W        W19517  26.479  31.174  13.365
54533W        W19518  38.498  24.077   1.382
54534W        W19519  38.212  41.321   3.418
54535W        W19520  30.496   3.033   1.225
54536W        W19521  10.868  17.234   1.813
54537W        W19522  27.129  13.789   1.976
54538W        W19523  24.550  30.453  14.986
54539W        W19524  38.072  34.960  10.512
54540W        W19525  32.725   3.772  14.985
54541W        W19526   9.232   1.226  14.943
54542W        W19527  31.689   9.415   1.674
54543W        W19528  20.517   8.353   3.309
54544W        W19529   8.485  36.246  14.357
54545W        W19530  40.621  28.992  12.592
54546W        W19531  35.080  35.147  12.934
54547W        W19532   1.972  26.490  14.325
54548W        W19533  16.861  24.560  10.452
54549W        W19534  11.809  32.570  11.907
54550W        W19535   5.675  39.020  11.853
54551W        W19536  32.068  42.410  10.460
54552W        W19537  23.104   3.345  11.842
54553W        W19538  21.482  28.090   1.702
54554W        W19539  20.821  38.736  10.838
54555W        W19540  30.995  16.128  11.654
54556W        W19541   3.123  14.640  13.328
54557W        W19542  20.907  27.436   1.828
54558W        W19543   9.269  22.694   4.554
54559W        W19544  44.723   7.443   3.741
54560W        W19545  31.522  31.152  13.837
54561W        W19546   3.761  27.262   2.196
54562W        W19547  31.465  16.851  12.342
54563W        W19548  26.432   3.906  11.985
54564W        W19549  10.236  42.270   4.444
54565W        W19550  19.292  41.443   2.334
54566W        W19551  39.267  13.605   0.274
54567W        W19552   4.717  17.133   1.908
54568W        W19553  30.123  16.078   1.403
54569W        W19554  28.565   2.487  10.426
54570W        W19555  41.148  42.553   1.921
54571W        W19556  16.622  39.016   2.028
54572W        W19557  42.891  41.318   0.370
54573W        W19558  31.220  38.586  11.056
54574W        W19559  38.968  21.199   0.374
54575W        W19560   7.497   6.628  14.356
54576W        W19561   2.853  38.921   3.832
54577W        W19562  30.772  16.489  12.876
54578W        W19563  13.299   8.923   5.207
54579W        W19564  39.437  32.564  12.945
54580W        W19565  11.880  40.515  11.239
54581W        W19566  35.091   0.223  14.050
54582W        W19567  32.517   1.988  10.819
54583W        W19568  37.024  11.298   0.453
54584W        W19569  26.156  35.316  12.274
54585W        W19570   5.475  27.195   3.727
54586W        W19571   9.270  21.096  13.843
54587W        W19572  42.737  33.644  13.741
54588W        W19573  42.336  41.405   0.334
54589W        W19574  12.520  32.031  11.385
54590W        W19575  29.190  16.143   4.380
54591W        W19576  14.055   7.868   4.529
54592W        W19577  12.669  36.806   3.892
54593W        W19578   0.676   8.885  14.182
54594W        W19579  10.913  19.513  13.010
54595W        W19580   6.783  35.089  10.566
54596W        W19581  21.380  20.739   4.682
54597W        W19582  23.303  41.460  10.723
54598W        W19583  10.766  37.857   3.195
54599W        W19584  38.595  32.544  13.480
54600W        W19585  31.200   8.091   3.631
54601W        W19586  43.276  20.198   1.904
54602W        W19587  42.831  44.512   5.048
54603W        W19588  32.497   9.722   4.561
54604W        W19589  30.430  18.184  12.497
54605W        W19590  17.674  41.028  12.151
54606W        W19591  18.745  40.735   4.617
54607W        W19592  39.508  42.845  11.706
54608W        W19593  31.184  14.023   3.700
54609W        W19594  27.121  10.403   2.733
54610W        W19595   3.917   4.451   0.961
54611W        W19596  20.970  44.781   4.620
54612W        W19597  27.150  31.012  13.443
54613W        W19598   3.331  16.052  11.132
54614W        W19599  43.840  24.430  13.995
54615W        W19600  26.139  11.712  11.418
54616W        W19601   6.702  28.543   1.476
54617W        W19602  18.762  24.346  12.020
54618W        W19603  40.846  12.145  12.335
54619W        W19604  22.305  25.606  13.480
54620W        W19605   2.796  15.022  13.250
54621W        W19606  32.817  15.928   2.611
54622W        W19607  37.999  39.381   2.813
54623W        W19608  41.801  35.982  12.190
54624W        W19609   1.982  34.737  13.947
54625W        W19610  31.448  28.725  10.668
54626W        W19611  44.785  39.662  12.440
54627W        W19612  34.835   4.352  11.082
54628W        W19613   7.292  31.917  13.227
54629W        W19614  12.326  36.303  11.994
54630W        W19615   0.788  10.441   3.673
54631W        W19616   5.139  20.719  13.407
54632W        W19617  10.805  22.638   0.506
54633W        W19618  44.995   7.218  13.866
54634W        W19619   1.869   7.991   5.035
54635W        W19620  27.650  30.947   1.311
54636W        W19621  16.104  38.553   4.700
54637W        W19622   7.813  27.669   1.813
54638W        W19623  14.645  11.448  14.760
54639W        W19624  29.519  22.045   4.594
54640W        W19625  25.240  39.572   4.139
54641W        W19626  25.126  19.126  11.644
54642W        W19627  28.838  17.191   3.292
54643W        W19628  37.632  23.115  10.873
54644W        W19629  12.603  41.515  14.760
54645W        W19630  18.906   5.967   3.634
54646W        W19631  17.610  13.492  11.118
54647W        W19632   0.777   1.653   3.918
54648W        W19633   3.243   2.294   0.799
54649W        W19634  41.839  40.365  10.965
54650W        W19635  25.292   1.440  14.752
54651W        W19636  16.423   2.997  11.739
54652W        W19637  40.563   6.731   3.340
54653W        W19638   2.491   9.696   1.625
54654W        W19639   9.795  22.759  14.442
54655W        W19640  37.911   1.986  12.647
54656W        W19641  22.057  22.614   0.156
54657W        W19642   8.269   1.242   3.830
54658W        W19643  17.976  29.869   0.846
54659W        W19644  16.998  30.895   0.943
54660W        W19645  25.157  22.274  14.956
54661W        W19646  15.076  38.017   3.178
54662W        W19647   5.648  21.433   1.964
54663W        W19648   2.878  13.635   2.863
54664W        W19649  24.030  11.790   0.458
54665W        W19650  26.239   4.766   3.603
54666W        W19651  35.925  34.473  10.559
54667W        W19652  24.059  29.667  12.024
54668W        W19653  33.179  31.549   1.340
54669W        W19654  30.491  27.125   0.945
54670W        W19655  12.383  12.694  13.776
54671W        W19656   4.282  21.213   0.250
54672W        W19657  29.671   4.845   1.340
54673W        W19658  32.623  13.310  11.443
54674W        W19659   1.041  32.384   0.799
54675W        W19660  10.878  23.914   2.470
54676W        W19661   1.265   6.275   1.444
54677W        W19662  40.744  44.930  13.036
54678W        W19663  12.899   1.999  14.512
54679W        W19664  16.180  44.387  14.801
54680W        W19665  15.302   9.123   3.140
54681W        W19666   5.426  16.170   3.102
54682W        W19667   4.706  40.295  12.652
54683W        W19668  29.156   9.680  10.683
54684W        W19669  10.730  31.914   4.151
54685W        W19670  34.162  23.527   0.448
54686W        W19671  14.564  41.112   2.667
54687W        W19672  36.077  44.019   1.931
54688W        W19673  38.651  10.799  14.916
54689W        W19674   6.846  25.270   4.562
54690W        W19675  15.563  26.154  14.533
54691W        W19676   0.394  39.180   0.182
54692W        W19677  26.236  20.377  13.114
54693W        W19678  19.442  38.479  12.871
54694W        W19679  24.623  38.077   4.686
54695W        W19680  17.463  41.411   4.189
54696W        W19681   1.452  13.265  13.839
54697W        W19682   2.017  16.348  13.772
54698W        W19683   6.282  10.799   0.373
54699W        W19684   9.623  34.808   1.676
54700W        W19685   2.519  40.987   2.828
54701W        W19686  38.312  36.290  14.073
54702W        W19687  41.505   6.378  14.565
54703W        W19688   3.021  11.891  14.842
54704W        W19689  16.290  27.715   0.988
54705W        W19690   6.200  13.515   0.173
54706W        W19691  30.680  42.056   3.246
54707W        W19692   0.636  18.700  13.733
54708W        W19693  10.757  41.798  10.922
54709W        W19694  10.790   9.381   0.339
54710W        W19695   8.692  18.844  14.384
54711W        W19696  22.644  35.428  13.956
54712W        W19697  30.300  29.342  13.101
54713W        W19698   6.220  40.140   0.979
54714W        W19699  28.891  36.968   3.728
54715W        W19700   4.898  13.272   5.110
54716W        W19701   0.412  15.155   4.606
54717W        W19702  12.842   6.396   0.304
54718W        W19703  18.655   2.867  14.698
54719W        W19704  21.524  10.161  12.503
54720W        W19705  15.075  15.759   2.341
54721W        W19706   3.305  27.595   3.716
54722W        W19707   4.351  18.821  13.918
54723W        W19708   8.248  25.688   3.725
54724W        W19709  18.302  34.858   2.204
54725W        W19710  26.634  38.809  13.540
54726W        W19711  16.938   9.424  14.720
54727W        W19712   8.377  16.068  12.728
54728W        W19713  11.647  34.612   1.167
54729W        W19714  14.970   2.287  11.087
54730W        W19715  19.005  10.623   2.120
54731W        W19716  42.574  11.591   1.852
54732W        W19717  39.885  23.611   3.501
54733W        W19718   8.128  21.182   1.023
54734W        W19719  10.890  43.850  12.901
54735W        W19720  41.258  10.407  11.155
54736W        W19721  39.831  32.623   4.145
54737W        W19722  21.908  32.374   2.128
54738W        W19723  27.700  34.897  12.683
54739W        W19724  21.096  40.377   2.352
54740W        W19725   4.354  12.399   3.617
54741W        W19726  19.832  14.862  13.174
54742W        W19727  17.517  23.129  14.879
54743W        W19728  26.497  12.522   0.328
54744W        W19729  25.645  40.919   4.007
54745W        W19730  12.292  27.089  13.828
54746W        W19731  41.833  41.608  10.619
54747W        W19732   4.215  32.179  14.817
54748W        W19733  26.651   0.177   5.168
54749W        W19734  30.897  43.299   3.140
54750W        W19735  17.052   2.736  13.403
54751W        W19736   7.316  33.482   1.751
54752W        W19737   0.410  18.982  14.082
54753W        W19738   1.322  31.648   1.245
54754W        W19739   3.449  28.882   2.692
54755W        W19740  24.715  38.163  12.074
54756W        W19741  41.757   9.276   4.649
54757W        W19742  38.132   9.355  14.412
54758W        W19743  14.718  33.331   4.619
54759W        W19744  37.520  40.468   2.269
54760W        W19745   9.445  27.049   1.029
54761W        W19746  14.627  11.201  11.045
54762W        W19747   2.856  20.072   0.350
54763W        W19748  33.135  18.679   0.527
54764W        W19749   0.251  36.787  14.870
54765W        W19750   0.306  35.584  11.400
54766W        W19751  36.121  34.911   2.583
54767W        W19752   5.186   5.292  12.016
54768W        W19753  18.576   0.678   2.716
54769W        W19754   4.192  42.004   1.466
54770W        W19755  16.398   5.383   3.997
54771W        W19756  10.683  33.514   1.723
54772W        W19757  34.974  25.230  13.476
54773W        W19758  12.133  36.461   2.769
54774W        W19759  15.619   7.706   3.890
54775W        W19760   3.819  43.760   0.924
54776W        W19761  10.571  35.654  12.427
54777W        W19762   4.180  11.948   3.418
54778W        W19763  14.059   1.767   3.956
54779W        W19764  39.264   6.597   2.708
54780W        W19765   2.317  30.537  10.488
54781W        W19766  41.064  13.439  11.717
54782W        W19767  11.807  35.076  14.673
54783W        W19768  24.120  41.064   1.939
54784W        W19769  27.910  13.200   0.370
54785W        W19770  41.410  24.665  11.945
54786W        W19771  35.044  33.782   4.726
54787W        W19772   0.825  32.799  10.886
54788W        W19773  36.018  18.040  10.554
54789W        W19774   9.395  38.984  14.190
54790W        W19775  12.363   3.923   1.330
54791W        W19776  10.071  14.702   1.857
54792W        W19777  13.609  14.818   4.659
54793W        W19778   6.650  42.707   3.732
54794W        W19779  10.006   9.689   4.280
54795W        W19780  26.002  44.835   4.570
54796W        W19781  22.902  31.489   0.425
54797W        W19782   0.181   9.406   1.904
54798W        W19783  27.600  23.675   4.963
54799W        W19784   8.699  20.712  10.201
54800W        W19785   1.727  27.498  14.732
54801W        W19786   5.295   2.366   1.263
54802W        W19787   1.998  12.384   0.786
54803W        W19788   9.112  16.110  11.999
54804W        W19789  21.699  16.700  12.002
54805W        W19790  34.602   6.758  14.115
54806W        W19791  29.469  41.327  14.789
54807W        W19792   4.057   6.992  11.412
54808W        W19793  28.637  10.179   1.234
54809W        W19794  38.933   5.624  10.556
54810W        W19795  12.552   6.144   1.650
54811W        W19796  30.591  12.632   4.733
54812W        W19797  31.434  24.470   1.290
54813W        W19798   0.810   5.182   4.605
54814W        W19799  26.956   1.899  13.477
54815W        W19800  43.061  39.072  13.959
54816W        W19801  17.918   8.568   5.518
54817W        W19802  35.036  20.109   4.796
54818W        W19803  34.512  16.835   4.171
54819W        W19804  43.787  37.638  14.272
54820W        W19805  36.027  12.284   3.848
54821W        W19806  12.317  24.951  11.514
54822W        W19807  40.329  12.698  13.619
54823W        W19808  19.212   7.818   3.195
54824W        W19809  10.673  41.788   3.611
54825W        W19810  13.108  35.549  11.726
54826W        W19811   2.921  12.239  10.470
54827W        W19812  38.621  16.736   1.303
54828W        W19813  34.308  38.483  10.695
54829W        W19814  43.978  38.354  13.494
54830W        W19815  41.390  44.760  13.836
54831W        W19816  14.839  31.747   0.943
54832W        W19817  43.355  22.058  14.630
54833W        W19818  37.809  41.845   4.218
54834W        W19819  38.082  26.540   2.305
54835W        W19820  22.632   7.682   0.848
54836W        W19821  24.502  31.442  12.355
54837W        W19822   6.168  19.985   2.697
54838W        W19823  16.048  20.092   2.849
54839W        W19824  32.628   6.198  13.966
54840W        W19825   4.714   1.478  12.119
54841W        W19826  44.195  24.406  11.145
54842W        W19827   0.367  39.519   2.328
54843W        W19828   6.707  38.003  12.435
54844W        W19829  37.320  21.060   0.676
54845W        W19830  30.910  25.059   4.686
54846W        W19831  21.287  14.444  12.882
54847W        W19832  22.485   3.260   2.624
54848W        W19833  25.839  31.992  11.592
54849W        W19834  21.258  44.095  14.589
54850W        W19835  25.578  19.341  14.906
54851W        W19836  43.753  39.494   4.109
54852W        W19837  38.291  19.156   2.015
54853W        W19838  13.505  31.716  12.048
54854W        W19839   0.161  36.263   0.943
54855W        W19840   8.216  36.673   2.741
54856W        W19841  30.846  41.248  13.064
54857W        W19842  37.715  37.569   4.266
54858W        W19843  25.859  24.343   4.965
54859W        W19844  43.358   1.324   4.142
54860W        W19845   0.808   7.208  11.742
54861W        W19846  34.989  34.751   3.269
54862W        W19847   6.776   4.283   9.934
54863W        W19848   5.010  37.286   0.207
54864W        W19849  26.756  37.623   2.664
54865W        W19850  38.817   9.669   1.861
54866W        W19851  44.725  31.840   0.894
54867W        W19852  27.192   3.761  11.533
54868W        W19853  19.631  43.210   3.330
54869W        W19854   3.957  26.467   4.528
54870W        W19855  17.186  35.082  13.998
54871W        W19856  28.969  31.294   1.742
54872W        W19857  24.193  11.345  12.397
54873W        W19858  19.727  31.012   4.027
54874W        W19859  23.362  21.653   0.581
54875W        W19860   8.383  42.552  14.231
54876W        W19861   2.183   3.125  12.665
54877W        W19862  17.873   2.239  14.765
54878W        W19863  33.659   8.244  13.450
54879W        W19864   8.966  24.846   1.371
54880W        W19865   7.119  25.255  10.796
54881W        W19866  22.752  19.314  13.485
54882W        W19867  25.849  27.962  13.450
54883W        W19868   1.866  19.922  14.024
54884W        W19869  23.905  17.472   0.249
54885W        W19870  19.735  33.646   2.848
54886W        W19871  35.583  32.421   2.961
54887W        W19872  30.093  12.788   0.308
54888W        W19873  37.528  14.397   4.184
54889W        W19874  21.177   7.873  13.555
54890W        W19875  23.953   1.772  12.532
54891W        W19876   8.722   0.763   3.772
54892W        W19877   2.994  34.007  14.158
54893W        W19878   9.223   3.344  11.453
54894W        W19879  14.771  39.980  14.393
54895W        W19880  19.308  14.183   0.967
54896W        W19881  41.007   7.719   4.159
54897W        W19882  44.936  44.809  10.886
54898W        W19883  31.430  12.900   3.132
54899W        W19884  44.533  28.453  13.549
54900W        W19885  33.753  17.018   4.735
54901W        W19886  20.147  25.978   4.527
54902W        W19887  18.551   5.413   1.168
54903W        W19888  25.960   2.360  12.891
54904W        W19889  13.741   5.162  14.007
54905W        W19890  35.040  29.920  12.381
54906W        W19891  33.148  34.665  13.483
54907W        W19892   7.791  40.188   0.408
54908W        W19893  41.329  30.692   0.041
54909W        W19894   4.850  25.231  14.562
54910W        W19895  25.714  12.360   3.797
54911W        W19896  17.383  18.619   5.482
54912W        W19897   5.799  15.638  14.159
54913W        W19898  29.369  34.499   1.462
54914W        W19899   4.419  42.314  13.614
54915W        W19900  29.890  35.627   2.791
54916W        W19901  26.965  21.471   1.666
54917W        W19902  14.664  33.499  14.463
54918W        W19903  17.816  30.727   0.888
54919W        W19904  42.885  21.470   3.701
54920W        W19905  35.453   6.394   1.994
54921W        W19906  12.625   8.868  13.336
54922W        W19907   4.301  16.913   2.139
54923W        W19908   8.635  26.781   2.087
54924W        W19909  31.641  39.751  12.435
54925W        W19910   7.858  28.525  13.352
54926W        W19911  29.764  40.462   3.906
54927W        W19912  13.089  23.214   0.293
54928W        W19913  36.061  44.887  11.779
54929W        W19914   3.468   8.712   4.732
54930W        W19915  11.262  42.963  10.559
54931W        W19916  10.806  17.617  11.542
54932W        W19917  37.838  20.720   3.922
54933W        W19918  24.618   6.985   0.962
54934W        W19919  31.727  17.812  10.766
54935W        W19920   1.712  18.655   0.048
54936W        W19921   6.483  34.365  10.663
54937W        W19922  24.185   4.534  11.823
54938W        W19923  33.395  35.985  11.777
54939W        W19924  41.536  24.026   0.240
54940W        W19925  30.502  10.032  10.303
54941W        W19926  30.108  24.696  12.170
54942W        W19927  41.710   6.892   3.530
54943W        W19928   7.186   2.304   2.698
54944W        W19929  28.150   7.563   1.179
54945W        W19930  22.071  17.242   2.914
54946W        W19931  13.133  12.860  13.419
54947W        W19932  29.899  43.530  11.666
54948W        W19933  17.142  16.374  11.886
54949W        W19934   1.628   6.424  13.955
54950W        W19935  16.924  19.866  12.722
54951W        W19936  36.511  41.095   2.914
54952W        W19937  31.641  10.420   1.293
54953W        W19938   3.176  10.656   3.617
54954W        W19939  18.283  34.529  10.351
54955W        W19940   5.308   7.829   1.752
54956W        W19941   5.071   8.664  13.774
54957W        W19942  35.954  44.914  14.330
54958W        W19943   7.791  25.508   3.137
54959W        W19944   7.705  40.696   0.435
54960W        W19945  30.995  12.087  14.075
54961W        W19946  13.590   2.381   2.200
54962W        W19947  23.338   9.677  12.513
54963W        W19948  41.993  14.699  11.568
54964W        W19949   0.519   3.858   3.159
54965W        W19950   1.392   9.255  10.907
54966W        W19951  31.492  33.043  14.493
54967W        W19952  30.680  34.643   3.692
54968W        W19953  21.666   2.196  13.038
54969W        W19954  38.982  17.520  13.016
54970W        W19955  14.545  19.797   2.261
54971W        W19956   2.962  12.804   3.538
54972W        W19957   4.256  25.739   3.606
54973W        W19958   4.442  30.396   4.148
54974W        W19959  10.265  22.573   4.510
54975W        W19960  32.058  37.076  13.179
54976W        W19961  40.046  23.895  10.242
54977W        W19962  37.408  21.994   2.698
54978W        W19963  28.953  10.731   2.859
54979W        W19964  15.804  17.776  10.513
54980W        W19965  40.692  32.638  14.919
54981W        W19966  39.852  42.422  11.036
54982W        W19967  26.228  34.571  11.344
54983W        W19968  32.577  13.292   2.309
54984W        W19969  40.548  43.431   0.404
54985W        W19970  24.647  25.959   3.273
54986W        W19971  34.089  15.617  14.479
54987W        W19972   5.014  43.273  11.660
54988W        W19973   8.473  24.701  10.750
54989W        W19974   2.721  43.359  10.834
54990W        W19975  16.867  13.016  12.994
54991W        W19976  18.410   9.273   0.032
54992W        W19977   7.327  43.417  12.115
54993W        W19978   2.423  14.755   2.362
54994W        W19979  27.174  13.932   1.494
54995W        W19980  43.370  28.974  12.402
54996W        W19981  26.011  31.133   2.671
54997W        W19982  23.896   6.434   3.243
54998W        W19983  43.388   6.574   4.556
54999W        W19984  29.593  18.154   4.984
55000W        W19985  40.038  10.177  12.937
55001W        W19986  28.948  33.353  12.157
55002W        W19987  21.211  13.692   3.645
55003W        W19988   8.933  36.369   3.343
55004W        W19989  41.351  33.008  10.230
55005W        W19990  40.783  43.026   1.915
55006W        W19991  41.577  28.879  13.910
55007W        W19992  26.216  14.624  13.521
55008W        W19993  17.073  35.506  12.040
55009W        W19994   8.209  35.585   3.286
55010W        W19995  33.805  29.223  14.482
55011W        W19996  36.534  19.532   3.908
55012W        W19997  42.929   3.244  11.656
55013W        W19998  17.690  19.358   1.429
55014W        W19999   9.834  25.072   3.313
55015W        W20000  20.064   2.337  14.402
55016W        W20001  14.112   7.070  13.552
55017W        W20002  43.440   6.018   0.902
55018W        W20003   2.501  12.391   0.757
55019W        W20004  32.202  31.277   4.099
55020W        W20005  28.069  35.083   0.445
55021W        W20006  19.779   3.746   0.103
55022W        W20007  31.946  14.706  14.707
55023W        W20008  34.088   5.799  12.406
55024W        W20009  25.756  42.724  11.579
55025W        W20010  40.950   9.194   4.011
55026W        W20011  17.272  10.567  13.939
55027W        W20012  27.468  18.481  12.411
55028W        W20013  16.246  11.438  12.569
55029W        W20014  36.569   2.023   3.870
55030W        W20015  14.135  18.226   5.131
55031W        W20016  28.145  10.291   0.237
55032W        W20017   7.167  31.568   3.870
55033W        W20018  22.088   4.897   0.308
55034W        W20019  21.542  14.404   1.130
55035W        W20020  18.305  20.333   0.143
55036W        W20021  40.567   6.517  14.118
55037W        W20022  21.977  22.277   1.508
55038W        W20023  34.889   8.815  10.398
55039W        W20024  36.009   3.772   4.657
55040W        W20025  40.119  14.814  11.121
55041W        W20026   5.768  38.924  12.797
55042W        W20027  26.429  16.635   1.809
55043W        W20028  33.906  12.065  14.820
55044W        W20029  24.904  40.874   4.345
55045W        W20030  10.307  13.874  10.831
55046W        W20031  27.113  23.769   3.271
55047W        W20032  21.553   8.535  14.020
55048W        W20033  36.367  28.618  11.143
55049W        W20034  20.545  38.923  11.745
55050W        W20035  16.152  18.947   4.283
55051W        W20036  44.317  28.083   4.101
55052W        W20037  19.404   4.247   3.621
55053W        W20038  30.193  26.797  10.967
55054W        W20039  31.380  30.049  13.008
55055W        W20040  42.097  30.431   2.827
55056W        W20041  19.715  18.942  12.220
55057W        W20042  10.071  37.466  13.350
55058W        W20043  16.780  14.848   2.318
55059W        W20044   3.379  26.515  10.679
55060W        W20045  31.061   2.899  10.696
55061W        W20046   9.189  17.743   3.929
55062W        W20047  27.744  19.670   0.494
55063W        W20048  21.466   0.322  13.109
55064W        W20049  38.588  36.059   3.475
55065W        W20050  19.588   2.960  12.986
55066W        W20051  26.647  37.538  14.324
55067W        W20052  10.607   7.226  13.830
55068W        W20053  25.263  17.578  11.534
55069W        W20054  21.013  20.072  12.568
55070W        W20055   9.244  27.069   4.642
55071W        W20056  16.850  30.521  14.396
55072W        W20057  27.766  37.246  12.390
55073W        W20058  16.498  33.724   0.291
55074W        W20059  19.575   2.514  14.414
55075W        W20060  32.073  44.285  13.742
55076W        W20061  24.524  10.844  14.389
55077W        W20062   8.898  19.581  12.105
55078W        W20063  17.334  26.415   1.955
55079W        W20064   9.601  17.366  14.804
55080W        W20065   9.896   2.416   1.772
55081W        W20066  44.924  27.451   3.155
55082W        W20067  40.896  14.250  14.766
55083W        W20068   2.936  28.359   3.828
55084W        W20069  18.054  40.021   2.745
55085W        W20070  24.698  33.621   3.189
55086W        W20071  32.830  23.930   2.343
55087W        W20072   8.080  33.618   2.801
55088W        W20073  41.293   6.825  14.381
55089W        W20074  37.998  33.113  10.535
55090W        W20075  34.893  41.338   2.325
55091W        W20076  10.107  18.898  13.454
55092W        W20077   8.080  25.216   3.893
55093W        W20078  39.106  25.404  13.687
55094W        W20079   8.411  13.613   0.259
55095W        W20080  21.964  17.083   1.489
55096W        W20081   4.679   6.956   3.441
55097W        W20082   0.252   9.772   3.474
55098W        W20083  14.158  40.795  13.088
55099W        W20084  10.861   5.871   3.219
55100W        W20085  23.022   7.898   4.415
55101W        W20086  39.431  27.666  11.647
55102W        W20087  25.004   6.635   0.257
55103W        W20088  36.897  34.267   4.057
55104W        W20089  43.056  24.096   0.297
55105W        W20090  43.743  37.737  13.774
55106W        W20091   1.230  22.526  11.404
55107W        W20092  41.454  11.093   4.475
55108W        W20093   6.422  10.620   1.803
55109W        W20094  26.374  18.369  13.417
55110W        W20095  29.940  39.085   2.648
55111W        W20096  27.455   4.185  12.439
55112W        W20097  42.477  42.505   1.638
55113W        W20098  12.891  26.895   9.792
55114W        W20099  22.229  15.658   1.690
55115W        W20100  36.716   4.894   2.228
55116W        W20101  28.230  26.463   4.165
55117W        W20102   5.727   2.735   2.825
55118W        W20103  44.805  36.517   3.148
55119W        W20104  28.865  18.093  12.453
55120W        W20105  30.563   0.895   3.782
55121W        W20106  34.931  29.454   2.423
55122W        W20107  43.447  34.497  14.257
55123W        W20108   3.289   2.540   3.114
55124W        W20109   2.293  43.436   0.729
55125W        W20110  36.052  11.278   3.814
55126W        W20111   0.744  30.276  10.090
55127W        W20112  26.607  18.313   0.343
55128W        W20113   6.667  13.597  11.535
55129W        W20114  12.166  14.300  13.810
55130W        W20115  35.578  26.165  12.908
55131W        W20116  21.831   6.835  13.057
55132W        W20117  22.641  18.941  13.814
55133W        W20118  13.676   3.048  11.218
55134W        W20119  16.735  16.386   2.388
55135W        W20120  16.122  40.868   2.834
55136W        W20121  11.665  29.691   3.504
55137W        W20122  41.537  11.444  12.037
55138W        W20123  35.596  17.952  13.681
55139W        W20124  17.701  15.254  12.457
55140W        W20125  12.084  24.264  14.848
55141W        W20126  27.021   1.688  11.654
55142W        W20127   5.609  40.248  14.051
55143W        W20128  19.565  42.181   2.368
55144W        W20129  12.474  11.525   1.849
55145W        W20130   4.376  16.523  14.387
55146W        W20131  15.744  27.289   0.542
55147W        W20132  43.100  22.920   5.023
55148W        W20133  29.527   8.947   4.523
55149W        W20134  10.206   1.278  11.143
55150W        W20135  19.707  41.026   3.149
55151W        W20136  20.638  21.692  14.958
55152W        W20137   4.836   9.156  13.816
55153W        W20138  38.443  13.625  13.998
55154W        W20139  21.960  13.124   3.753
55155W        W20140  29.408   7.734   0.933
55156W        W20141  22.583  10.824   2.885
55157W        W20142  29.102  43.501   3.629
55158W        W20143  30.073  28.211  12.439
55159W        W20144  25.596  17.817  13.488
55160W        W20145  11.948   4.562  11.597
55161W        W20146   1.233  13.764  14.919
55162W        W20147  12.159  21.891  10.881
55163W        W20148  37.298  26.223   3.307
55164W        W20149  13.663  23.226   4.190
55165W        W20150  21.764   4.469   0.477
55166W        W20151  24.153   6.160  14.184
55167W        W20152  28.323  40.944   1.658
55168W        W20153  22.654   6.808  11.457
55169W        W20154  17.642  25.317  13.051
55170W        W20155   9.293  39.861  14.309
55171W        W20156  30.241  12.157   2.232
55172W        W20157   4.358  43.641  14.408
55173W        W20158  33.560   1.690  11.101
55174W        W20159  15.172   7.163  13.987
55175W        W20160  36.885  44.462   0.295
55176W        W20161  31.829   4.880   2.776
55177W        W20162  25.090  29.624  14.046
55178W        W20163   1.490  26.389  14.504
55179W        W20164  28.408  17.712  13.313
55180W        W20165  24.492  17.712   1.633
55181W        W20166  30.943   9.701  11.516
55182W        W20167  21.152  42.858  11.334
55183W        W20168  28.566  22.157  10.976
55184W        W20169  30.531  42.505  14.190
55185W        W20170  31.389  35.388  12.526
55186W        W20171  33.098   4.225   0.729
55187W        W20172  19.815  24.598   3.411
55188W        W20173   3.417   7.387   4.693
55189W        W20174  41.355  20.669  12.877
55190W        W20175  27.939  14.853   2.494
55191W        W20176  34.736  20.636  12.285
55192W        W20177  12.128  14.181   0.198
55193W        W20178   2.315  27.730   1.721
55194W        W20179  33.682  10.732  14.494
55195W        W20180  14.523  20.915  11.107
55196W        W20181  15.041  38.619   3.929
55197W        W20182  30.011  30.492   1.510
55198W        W20183  40.865  23.442  12.372
55199W        W20184  31.210  42.337  11.505
55200W        W20185  41.558  24.804  14.932
55201W        W20186  19.726  43.208   1.253
55202W        W20187  10.876  15.497   2.805
55203W        W20188  33.496  19.812  13.316
55204W        W20189  38.878   6.205  12.816
55205W        W20190   6.349  28.542  10.618
55206W        W20191   1.446   5.526   4.056
55207W        W20192  38.548  35.905   4.367
55208W        W20193  27.104  12.977  14.474
55209W        W20194  31.137  21.068  11.645
55210W        W20195  31.621  16.167   4.386
55211W        W20196  29.530  12.821   0.930
55212W        W20197  39.881  39.886   0.219
55213W        W20198  41.821   9.347  14.853
55214W        W20199   9.873  15.856   3.886
55215W        W20200  13.227  38.296   4.515
55216W        W20201   5.380  22.966   3.133
55217W        W20202  20.261   0.711  12.047
55218W        W20203   5.061  43.369  10.823
55219W        W20204   8.944  30.805   0.641
55220W        W20205   5.785  14.708   4.919
55221W        W20206   9.159  35.813   1.850
55222W        W20207  32.710  23.478  12.420
55223W        W20208  21.109  29.156   0.489
55224W        W20209   7.432   4.569  11.458
55225W        W20210   4.313   1.297  13.951
55226W        W20211   7.215  31.010   2.829
55227W        W20212  43.214  31.134   4.076
55228W        W20213  28.451  26.936  11.052
55229W        W20214  19.384  24.043  14.060
55230W        W20215   0.289  30.500  12.389
55231W        W20216   0.078  39.093   4.051
55232W        W20217  37.041  23.675   4.825
55233W        W20218  44.909   3.172   1.377
55234W        W20219   4.737  38.375  10.753
55235W        W20220  33.236   8.290  14.265
55236W        W20221  31.366   0.020   2.685
55237W        W20222  30.466   0.984   0.409
55238W        W20223  23.528   3.894   3.678
55239W        W20224  11.811  26.468   0.331
55240W        W20225  30.078   7.418   2.408
55241W        W20226   7.150   6.343   3.648
55242W        W20227  11.704  41.937   0.004
55243W        W20228  29.226  25.459  11.166
55244W        W20229  27.749  17.537  14.021
55245W        W20230  41.767  13.829   3.739
55246W        W20231  44.515   7.709   3.347
55247W        W20232  17.444  13.220   0.897
55248W        W20233  13.398  38.384  13.941
55249W        W20234  32.157  42.863  11.153
55250W        W20235  43.844  13.311   4.686
55251W        W20236  31.556  13.016  13.400
55252W        W20237   9.585  40.385  11.166
55253W        W20238  31.241  38.362   0.360
55254W        W20239  42.197   0.956   3.367
55255W        W20240  23.774  11.320   3.501
55256W        W20241  30.341  23.119   1.176
55257W        W20242   6.399  13.165   4.882
55258W        W20243  29.428  31.642  10.712
55259W        W20244   4.577  32.226  14.032
55260W        W20245  43.241  38.403   0.373
55261W        W20246  19.538  11.806  13.597
55262W        W20247  30.891  18.032   1.360
55263W        W20248   5.322  14.004   0.255
55264W        W20249  15.318  12.348   3.353
55265W        W20250  40.496  15.197  11.136
55266W        W20251  11.675  31.289  12.722
55267W        W20252  36.009  41.912   2.579
55268W        W20253  20.032  27.333  13.912
55269W        W20254  20.784   0.722  12.628
55270W        W20255  44.529  34.481   0.667
55271W        W20256  32.167  22.789  10.744
55272W        W20257  28.671  14.452   0.797
55273W        W20258  21.821  25.696  13.766
55274W        W20259   9.502   5.988   3.510
55275W        W20260   2.430  10.960  14.346
55276W        W20261   6.829   8.211   2.825
55277W        W20262  32.058  32.489   3.419
55278W        W20263  42.313  17.287  13.658
55279W        W20264  36.389  34.098   4.187
55280W        W20265  13.214  10.453  14.386
55281W        W20266  32.544  39.351   0.317
55282W        W20267   8.662  31.889  11.239
55283W        W20268   2.817  22.246  13.901
55284W        W20269  44.543   2.495   4.153
55285W        W20270  15.799   4.179   9.819
55286W        W20271  29.332  40.054   1.904
55287W        W20272  24.769   4.971  12.929
55288W        W20273  37.964  30.642  11.740
55289W        W20274  29.080  10.396   2.346
55290W        W20275  22.672  28.093   4.578
55291W        W20276   6.254   4.576  10.017
55292W        W20277  36.259  15.186   0.189
55293W        W20278  27.931   6.324  10.240
55294W        W20279  14.513  14.592  10.251
55295W        W20280  17.371  17.635   0.599
55296W        W20281  28.246  18.994   3.577
55297W        W20282  41.074  26.144   3.103
55298W        W20283  32.579  28.969   0.867
55299W        W20284   9.276  40.942  11.451
55300W        W20285  28.723   2.180  12.467
55301W        W20286  44.035  27.108  11.156
55302W        W20287  32.896   3.995   3.304
55303W        W20288  41.481  27.491  13.622
55304W        W20289  24.528  24.772   0.944
55305W        W20290  27.437  35.852   4.071
55306W        W20291  24.764  22.581  13.049
55307W        W20292  30.985   2.533  12.139
55308W        W20293  27.116  13.188  10.433
55309W        W20294  39.608   8.352  12.942
55310W        W20295   4.304  15.699  12.514
55311W        W20296  13.064   8.107   4.991
55312W        W20297  38.347  38.680  14.264
55313W        W20298  14.179  43.008   4.192
55314W        W20299  20.138   6.430   2.777
55315W        W20300  16.433  28.565  10.301
55316W        W20301  15.210  16.655  10.696
55317W        W20302  26.605   0.170   4.190
55318W        W20303  29.691  19.372  14.043
55319W        W20304  37.155  24.237  11.459
55320W        W20305  30.893  42.846  10.175
55321W        W20306  10.621  25.620   0.343
55322W        W20307  43.814   6.893   1.865
55323W        W20308   1.791   1.815   3.169
55324W        W20309   7.396  15.903   2.210
55325W        W20310  21.011  23.116  13.623
55326W        W20311  30.997  34.199   1.453
55327W        W20312  19.249  37.046  14.855
55328W        W20313  35.061  14.073   0.651
55329W        W20314   9.452  28.826  14.370
55330W        W20315   1.678  11.687   2.383
55331W        W20316   8.000  37.424   5.052
55332W        W20317   1.254  11.938  14.558
55333W        W20318   6.746  33.649   4.538
55334W        W20319   4.255  42.340  12.110
55335W        W20320   2.242  36.770  14.421
55336W        W20321  22.587  15.584   2.946
55337W        W20322  44.157   6.703   2.738
55338W        W20323  39.164   5.773  13.471
55339W        W20324  43.486  20.498   3.226
55340W        W20325  25.870   6.748   3.562
55341W        W20326  44.461  44.845  11.141
55342W        W20327  13.883  28.225   0.892
55343W        W20328   2.733  24.786  13.785
55344W        W20329  15.480   9.891  11.064
55345W        W20330  31.490   6.403  11.497
55346W        W20331   0.951  38.551  14.462
55347W        W20332  41.483   8.991   0.075
55348W        W20333   5.846   0.349  11.150
55349W        W20334  14.342  19.314  11.137
55350W        W20335  12.781   3.776   2.675
55351W        W20336  23.921   5.201   3.747
55352W        W20337  43.284   0.487  12.919
55353W        W20338  34.253  31.123  13.935
55354W        W20339  23.765  34.894   0.365
55355W        W20340  38.035   7.215   4.230
55356W        W20341  35.607  29.014  11.171
55357W        W20342  25.202  42.463  12.014
55358W        W20343  34.402  10.859   2.365
55359W        W20344  37.427  13.170  10.636
55360W        W20345  28.682  20.894   0.574
55361W        W20346  16.241  34.799  13.922
55362W        W20347  11.574  22.894  11.551
55363W        W20348  19.716  28.726  13.445
55364W        W20349  33.442  12.255   0.719
55365W        W20350   4.122  38.366   1.363
55366W        W20351  44.464  27.732   3.204
55367W        W20352   5.842  30.601  13.010
55368W        W20353  23.747  26.108  11.529
55369W        W20354  16.779  27.155   2.094
55370W        W20355   9.249  22.790   1.433
55371W        W20356   2.147  40.365  11.211
55372W        W20357  37.127  38.085  11.181
55373W        W20358  23.543   1.665  13.825
55374W        W20359   1.913  33.177  12.087
55375W        W20360   8.326   7.948   2.254
55376W        W20361  43.490  11.396  13.978
55377W        W20362   1.063   8.615   2.470
55378W        W20363  37.117  25.530  14.063
55379W        W20364  23.623  29.070  14.998
55380W        W20365  16.877  25.077   4.924
55381W        W20366  37.449  44.360   0.355
55382W        W20367  31.153  28.595  13.914
55383W        W20368  13.358   1.190  14.001
55384W        W20369  30.589  37.684   5.091
55385W        W20370  19.208  17.747   1.840
55386W        W20371  31.529  22.154   4.419
55387W        W20372  18.640   6.881  11.623
55388W        W20373  20.118  23.860   0.687
55389W        W20374  32.078  24.588  12.592
55390W        W20375  44.054  14.559   1.851
55391W        W20376  13.016   2.591  12.761
55392W        W20377  41.038  11.249   3.386
55393W        W20378  42.941   1.046   1.575
55394W        W20379  26.574  36.370  13.100
55395W        W20380   2.617   3.670  12.073
55396W        W20381   2.360  26.596   3.138
55397W        W20382  41.798  11.882   4.513
55398W        W20383  36.132  17.694   4.761
55399W        W20384   6.765  19.202   4.159
55400W        W20385  14.838  22.602   2.858
55401W        W20386  25.253  23.163  13.564
55402W        W20387   7.745   3.658   1.450
55403W        W20388  29.931   4.734  12.909
55404W        W20389  14.611   2.802  13.489
55405W        W20390   7.052  17.251   2.499
55406W        W20391  20.141  23.542  10.568
55407W        W20392  21.757   6.588   3.762
55408W        W20393  44.056   1.879   3.949
55409W        W20394  38.894  41.797  14.851
55410W        W20395  42.784  17.213   2.137
55411W        W20396   2.662   8.760   2.841
55412W        W20397   1.835   5.270  14.425
55413W        W20398  16.789   9.422   4.281
55414W        W20399   2.685  32.521  14.987
55415W        W20400  36.351  39.103  11.999
55416W        W20401   0.919   2.572  14.424
55417W        W20402  14.140  23.761   1.890
55418W        W20403  42.283  16.962  11.016
55419W        W20404  20.047   9.395   3.273
55420W        W20405  32.360  43.474   0.354
55421W        W20406  28.404  33.860   0.155
55422W        W20407   5.186   7.327   4.019
55423W        W20408  12.238  25.016  13.348
55424W        W20409  41.247  41.818   4.074
55425W        W20410  18.801  41.853   4.012
55426W        W20411  21.216   5.393   2.914
55427W        W20412  26.950  36.082  12.449
55428W        W20413  17.706  27.354   0.410
55429W        W20414  24.433  29.455   3.550
55430W        W20415  34.061  19.522  10.922
55431W        W20416  29.263   2.034   9.962
55432W        W20417  39.931  18.604   0.402
55433W        W20418  44.016  12.347  10.596
55434W        W20419  38.869  23.690   3.222
55435W        W20420   3.652  22.363  12.892
55436W        W20421  11.809  23.794   4.765
55437W        W20422  39.797  19.869  11.993
55438W        W20423  14.193   9.655  13.457
55439W        W20424  35.532  14.981  12.081
55440W        W20425  15.811  41.848  12.848
55441W        W20426  23.222   6.488   1.504
55442W        W20427  42.433  44.261   4.556
55443W        W20428  18.144   5.097   0.257
55444W        W20429   0.790  34.522   3.359
55445W        W20430   8.780  39.185   2.537
55446W        W20431  32.461   5.407  14.302
55447W        W20432  27.552  27.564   2.938
55448W        W20433   9.254  17.029  11.168
55449W        W20434  10.666   1.145  12.369
55450W        W20435  31.062  15.401  10.891
55451W        W20436  40.961  13.625  13.504
55452W        W20437  25.065  18.201   2.196
55453W        W20438   7.157   2.786  12.895
55454W        W20439  22.016  36.512   2.233
55455W        W20440  17.891  13.061  11.054
55456W        W20441  36.546   4.822  13.359
55457W        W20442  33.990   6.399   2.774
55458W        W20443  20.056  36.465   1.376
55459W        W20444  31.426  31.979   3.542
55460W        W20445  20.610   0.716  13.939
55461W        W20446   0.423  31.344   1.760
55462W        W20447  21.253   7.169   3.254
55463W        W20448  36.510  12.274   4.525
55464W        W20449  32.468  30.401   4.155
55465W        W20450  39.439  40.896   2.930
55466W        W20451  42.821  10.260   2.153
55467W        W20452   2.905  37.384   3.103
55468W        W20453  18.983  19.830   0.436
55469W        W20454  35.970   2.489   5.015
55470W        W20455   6.345  24.980  10.126
55471W        W20456  21.810  41.905   4.095
55472W        W20457  18.939  11.141  12.061
55473W        W20458  12.378  19.701   1.194
55474W        W20459  32.967  16.614   0.370
55475W        W20460  43.300  12.971   0.888
55476W        W20461  20.549  36.871  13.522
55477W        W20462  42.541  22.476   4.931
55478W        W20463  32.936  17.485  11.056
55479W        W20464  31.138   7.909  12.914
55480W        W20465  34.914  20.359  11.100
55481W        W20466  16.646  27.148  12.081
55482W        W20467  38.007  37.789  12.364
55483W        W20468   6.953  28.920  13.433
55484W        W20469  18.885  30.386   3.999
55485W        W20470  18.306  26.860   5.010
55486W        W20471  35.706  26.001   0.384
55487W        W20472  38.859  40.971   0.834
55488W        W20473   8.969  14.289  10.838
55489W        W20474  40.355  17.765   0.932
55490W        W20475  30.763  34.859   4.174
55491W        W20476  42.556  42.384  13.053
55492W        W20477   6.761   4.835  12.105
55493W        W20478  28.027  23.031  13.350
55494W        W20479  43.389   8.728  12.039
55495W        W20480  34.898   3.446  14.473
55496W        W20481  31.920  38.269  12.517
55497W        W20482  15.327  31.296   1.308
55498W        W20483  10.612  14.239   1.422
55499W        W20484   7.168   8.180   1.850
55500W        W20485  38.114  32.125  10.493
55501W        W20486   9.213   1.948   1.178
55502W        W20487  24.932  16.544   3.817
55503W        W20488  13.009  43.111  13.847
55504W        W20489  31.983  40.960   3.366
55505W        W20490  12.515  21.690   3.016
55506W        W20491  21.689  34.879   2.345
55507W        W20492  21.954  32.007  11.292
55508W        W20493   2.659  22.027  14.369
55509W        W20494   6.099   1.310  12.011
55510W        W20495  42.894  24.717  12.980
55511W        W20496  11.834  15.330  14.444
55512W        W20497  32.334  35.746   4.047
55513W        W20498  18.224  24.725   3.190
55514W        W20499   6.165  17.744   4.667
55515W        W20500  28.958  27.363  13.672
55516W        W20501   0.269  34.051   3.632
55517W        W20502  43.843   9.379   4.133
55518W        W20503  30.412  43.984  14.830
55519W        W20504  33.286  10.786  14.150
55520W        W20505  11.422   5.514   3.642
55521W        W20506  24.548   5.427  10.244
55522W        W20507   0.291  27.683   3.461
55523W        W20508   0.866   7.262  10.723
55524W        W20509  16.771  34.566   2.566
55525W        W20510  37.376  32.425  14.822
55526W        W20511  25.309  41.299   4.147
55527W        W20512  35.965  14.546   2.186
55528W        W20513  20.924  40.899   4.876
55529W        W20514  30.355   5.966   2.031
55530W        W20515  31.471  19.692  12.879
55531W        W20516  24.970  30.227  12.916
55532W        W20517  12.264   6.725   3.791
55533W        W20518   2.435  29.897  14.572
55534W        W20519  14.829  15.737  14.409
55535W        W20520  25.110  25.999  13.918
55536W        W20521  33.863  20.792   5.072
55537W        W20522   4.024  32.056   2.314
55538W        W20523  35.042  30.656   0.261
55539W        W20524   0.737  26.832  11.389
55540W        W20525  37.299  26.921  11.252
55541W        W20526   7.488  33.515   0.884
55542W        W20527  29.503   7.059   3.633
55543W        W20528  41.642  22.500   3.050
55544W        W20529  14.572  26.075   0.751
55545W        W20530  41.292  33.421   9.930
55546W        W20531  24.165  25.176  10.777
55547W        W20532  29.789  15.124   2.275
55548W        W20533   0.035  13.122  11.732
55549W        W20534   4.382  29.623   0.384
55550W        W20535  38.850  29.684  10.721
55551W        W20536  29.627   2.339  12.982
55552W        W20537  33.407   6.627   1.456
55553W        W20538  10.618  18.840  13.477
55554W        W20539  34.319  44.375   0.865
55555W        W20540  11.056   0.033  12.914
55556W        W20541  35.482  28.120  12.545
55557W        W20542  30.422  11.622   3.741
55558W        W20543  42.714  24.563  14.053
55559W        W20544  16.648  17.034  11.170
55560W        W20545   2.502   6.354   3.721
55561W        W20546  30.884  43.629   4.187
55562W        W20547  21.252  10.170  12.942
55563W        W20548  12.661  25.070   0.668
55564W        W20549  28.188  25.505   0.764
55565W        W20550   2.940   9.956   1.744
55566W        W20551  11.334  15.045  14.356
55567W        W20552   1.287  19.502   0.251
55568W        W20553  19.533  31.218  11.836
55569W        W20554   4.228  24.584   4.292
55570W        W20555  10.164  17.210   1.313
55571W        W20556   1.455  32.270   5.080
55572W        W20557  30.111  35.697   3.260
55573W        W20558  36.244   1.394  11.625
55574W        W20559  41.932  11.110   2.255
55575W        W20560  23.279  31.562   2.947
55576W        W20561  40.452  14.804  13.512
55577W        W20562  39.280  20.534  11.838
55578W        W20563  42.613  42.928  13.872
55579W        W20564   2.166   6.252   4.104
55580W        W20565   4.986   1.924   4.393
55581W        W20566  33.429  12.955   0.699
55582W        W20567  22.939  42.010  12.019
55583W        W20568  12.287  34.329  12.084
55584W        W20569  43.282  19.327   0.323
55585W        W20570   2.823   8.723   4.368
55586W        W20571  33.376  30.074  13.549
55587W        W20572  27.688  38.774  12.885
55588W        W20573   8.427  19.256  12.149
55589W        W20574  32.423   1.259   0.480
55590W        W20575  31.954  15.916  10.740
55591W        W20576  27.753  21.269  11.663
55592W        W20577  13.550   7.085   2.590
55593W        W20578  35.120   4.376   4.384
55594W        W20579  20.103  11.366  14.278
55595W        W20580   8.834  40.208  11.603
55596W        W20581  37.047   8.331   1.131
55597W        W20582  27.862  35.423  12.982
55598W        W20583  23.192  25.778  10.998
55599W        W20584  34.176  17.655   0.746
55600W        W20585   7.929  41.612  11.167
55601W        W20586   3.265  34.414   0.063
55602W        W20587  40.326  30.946  12.470
55603W        W20588  28.371  36.883   3.734
55604W        W20589   3.928  12.419  14.656
55605W        W20590  35.352   1.279   2.636
55606W        W20591  17.887  10.224   3.710
55607W        W20592  10.415   2.844   2.391
55608W        W20593   8.283  35.871   2.243
55609W        W20594  21.744  21.176  11.230
55610W        W20595  34.979  40.022  11.251
55611W        W20596  29.118  18.712   2.639
55612W        W20597   4.287   4.778   4.456
55613W        W20598   6.728  19.870   0.902
55614W        W20599  44.696  44.411  14.293
55615W        W20600   0.884  24.686  10.716
55616W        W20601   8.149  14.828   0.819
55617W        W20602  33.883  35.982   0.244
55618W        W20603  20.251  28.959   1.564
55619W        W20604  33.088   8.806   0.054
55620W        W20605   7.374  14.075   3.123
55621W        W20606  23.665  38.925  10.962
55622W        W20607  25.429  10.782   2.368
55623W        W20608  33.894  29.514  12.984
55624W        W20609  16.205   6.939   0.690
55625W        W20610  30.327  39.478  12.394
55626W        W20611   6.241  44.978  11.608
55627W        W20612  28.097  20.626  11.935
55628W        W20613  35.550  24.737   2.315
55629W        W20614  36.747   2.321   4.283
55630W        W20615  17.048  44.874  12.016
55631W        W20616  33.555  25.532   2.179
55632W        W20617  28.604  30.405   4.556
55633W        W20618  18.043  22.358   4.210
55634W        W20619  44.476  12.194  10.816
55635W        W20620  39.686  18.223   4.656
55636W        W20621  27.051  20.717   4.069
55637W        W20622   4.489  35.900   0.992
55638W        W20623  22.444  42.453  10.649
55639W        W20624  22.765  32.856  11.219
55640W        W20625  14.112   4.708  10.686
55641W        W20626   8.956  41.964  14.326
55642W        W20627  19.560  32.984   0.777
55643W        W20628  34.115  44.947   3.691
55644W        W20629  25.715  18.193   1.982
55645W        W20630  22.493   6.781  11.948
55646W        W20631   7.658   6.805   4.064
55647W        W20632   5.236  13.131   3.783
55648W        W20633  26.502  28.356  13.819
55649W        W20634  36.824  32.867  10.745
55650W        W20635   8.767   5.710   2.658
55651W        W20636  25.480   9.339   1.854
55652W        W20637   6.435   8.744  14.266
55653W        W20638  26.672   2.082   1.186
55654W        W20639  21.227  31.046  10.703
55655W        W20640  30.944   5.834  11.659
55656W        W20641  40.733  26.159  11.260
55657W        W20642  23.003  14.894   4.390
55658W        W20643  27.066  43.861   0.840
55659W        W20644   4.956   4.850  12.532
55660W        W20645  43.763   1.639  12.951
55661W        W20646  24.925  10.176   1.487
55662W        W20647  34.090   8.464  12.606
55663W        W20648  10.095  44.670   0.840
55664W        W20649  40.050  14.971   1.286
55665W        W20650  35.398   7.671  12.256
55666W        W20651  24.518  28.625   3.320
55667W        W20652   4.974  24.044  12.933
55668W        W20653  11.795   2.560  13.523
55669W        W20654   4.935  38.105   2.886
55670W        W20655   5.341  16.543  13.544
55671W        W20656   4.021  32.019   0.992
55672W        W20657  40.532   6.037  11.237
55673W        W20658  13.017  24.960  11.208
55674W        W20659  16.844   1.065   1.857
55675W        W20660  39.696  25.270   1.905
55676W        W20661   7.407  14.406   2.652
55677W        W20662   5.142  15.238  11.522
55678W        W20663  10.068  24.240  11.566
55679W        W20664  38.211   4.346  12.763
55680W        W20665  23.165  23.085   2.765
55681W        W20666   1.727  41.324  14.081
55682W        W20667  20.975  35.987   5.152
55683W        W20668   4.837  25.021  13.621
55684W        W20669  20.718   3.936  14.034
55685W        W20670  20.166  18.983  12.541
55686W        W20671   0.757  11.436  10.961
55687W        W20672  12.599  30.255  12.425
55688W        W20673   8.221  24.613  12.866
55689W        W20674  12.645  37.793  14.322
55690W        W20675   5.313  39.272  13.256
55691W        W20676  18.181   6.221  14.872
55692W        W20677  41.266   6.459   0.871
55693W        W20678   7.208  25.459   4.889
55694W        W20679  38.040  14.091  11.224
55695W        W20680   5.824  20.963   3.420
55696W        W20681  29.517  17.217  13.531
55697W        W20682  33.049   3.239  13.804
55698W        W20683  36.827  25.077   2.434
55699W        W20684   1.081  43.819  14.728
55700W        W20685   2.105  39.864   2.781
55701W        W20686  36.929  33.502   0.383
55702W        W20687  14.051  25.693  14.004
55703W        W20688   0.860  16.426  14.317
55704W        W20689  38.411   6.376   2.440
55705W        W20690  19.556  33.055  14.808
55706W        W20691  11.688  18.244  10.909
55707W        W20692  34.438  42.548   1.265
55708W        W20693  31.683  29.163   1.812
55709W        W20694   5.439  13.514   0.399
55710W        W20695   6.372  42.495   4.309
55711W        W20696  29.008  33.622   1.643
55712W        W20697  15.124  34.290  12.077
55713W        W20698   5.206  22.236  13.026
55714W        W20699  42.028   7.864   0.794
55715W        W20700  33.404  44.456  12.494
55716W        W20701  19.173   6.943  14.492
55717W        W20702  34.656  31.566   1.280
55718W        W20703  25.032  11.395   0.864
55719W        W20704  30.436   7.949   0.240
55720W        W20705   8.097  18.634   0.958
55721W        W20706  14.345  23.739   1.002
55722W        W20707  12.323  12.957   1.692
55723W        W20708  44.423  35.905   0.024
55724W        W20709  21.180  36.822   0.745
55725W        W20710  17.318   9.102  13.865
55726W        W20711  21.281   2.481  11.091
55727W        W20712  24.510  40.035  12.880
55728W        W20713  16.380  12.859  13.098
55729W        W20714   4.949  37.339   3.201
55730W        W20715  28.564  12.595   0.885
55731W        W20716  36.929  27.576   3.494
55732W        W20717  13.126  23.939   4.237
55733W        W20718  19.300   0.951   4.657
55734W        W20719  39.792  13.082   1.312
55735W        W20720  26.966  44.029  12.054
55736W        W20721  17.245  27.387   0.185
55737W        W20722  39.788  21.100   4.085
55738W        W20723  28.457  36.908  12.026
55739W        W20724  22.700   8.732   3.197
55740W        W20725   3.324  13.382  14.204
55741W        W20726  36.814  15.167  12.458
55742W        W20727   5.477   9.388   2.870
55743W        W20728  19.498  11.575   2.371
55744W        W20729  29.148  34.619   0.819
55745W        W20730  26.734  26.142  12.429
55746W        W20731   3.679   0.280   1.175
55747W        W20732  11.037   4.142  11.907
55748W        W20733  30.004  25.011   4.529
55749W        W20734  40.766  14.750   3.287
55750W        W20735   7.428   7.822  12.149
55751W        W20736  40.664  43.742  14.982
55752W        W20737   7.802   6.337   0.578
55753W        W20738   2.434  30.669  12.386
55754W        W20739   3.013  40.070   3.896
55755W        W20740  31.164  30.789   4.916
55756W        W20741  35.610  35.387  12.820
55757W        W20742   0.200  18.080   2.141
55758W        W20743  25.162  25.692   4.822
55759W        W20744  23.213  10.263   3.730
55760W        W20745  36.084  19.135  14.977
55761W        W20746  17.351  17.147   0.391
55762W        W20747  21.669  36.544  11.710
55763W        W20748   2.435  18.052  13.953
55764W        W20749  39.225  10.646  14.162
55765W        W20750  28.039  12.554  10.605
55766W        W20751  18.556  37.621   1.787
55767W        W20752  19.839   7.378  10.631
55768W        W20753  42.067  32.742  14.840
55769W        W20754   3.191  35.677   4.510
55770W        W20755  12.504   8.430  11.046
55771W        W20756  15.176  34.825   2.306
55772W        W20757  37.099  28.609  12.817
55773W        W20758   1.453   7.256   4.793
55774W        W20759  40.755   9.799  13.841
55775W        W20760  26.694   2.125  11.737
55776W        W20761  44.643  28.624  13.061
55777W        W20762   3.269  23.046  11.609
55778W        W20763  12.851   5.200  10.583
55779W        W20764   9.176   3.807  12.972
55780W        W20765  19.831  34.443  14.548
55781W        W20766  19.021  16.535   3.716
55782W        W20767  31.518  40.255   3.680
55783W        W20768   4.447  28.207  14.874
55784W        W20769  20.534  17.529   1.862
55785W        W20770  17.069   1.545   1.892
55786W        W20771  29.665  40.852  14.836
55787W        W20772  31.615  22.603   3.575
55788W        W20773  17.552  20.556  13.134
55789W        W20774  18.019  17.563   1.572
55790W        W20775  26.664  32.064  12.180
55791W        W20776   6.055  42.460  11.302
55792W        W20777   3.591  14.996   3.581
55793W        W20778  40.460  34.400  14.531
55794W        W20779  13.334  18.751   2.341
55795W        W20780  35.663  40.994  12.186
55796W        W20781  12.721  37.936   0.386
55797W        W20782  35.914   3.636   1.542
55798W        W20783  43.817  42.451   3.551
55799W        W20784  25.301   5.052   1.364
55800W        W20785  13.620   9.735   4.029
55801W        W20786  17.647  23.989  10.715
55802W        W20787   5.997  26.079  12.993
55803W        W20788   7.054  15.282  11.023
55804W        W20789   3.004  28.875   4.653
55805W        W20790  15.132  37.068  12.172
55806W        W20791  44.850  41.803   2.142
55807W        W20792   2.976  28.525  10.888
55808W        W20793   9.437  31.137   2.242
55809W        W20794   9.878  34.590   2.099
55810W        W20795   8.927   5.406  13.116
55811W        W20796  41.749  19.465  10.280
55812W        W20797  23.767  32.996  11.148
55813W        W20798  12.545  18.224   1.295
55814W        W20799  32.111  38.969  10.897
55815W        W20800  40.611  36.544  10.955
55816W        W20801  26.468  33.150  11.244
55817W        W20802   5.775  13.553  11.380
55818W        W20803  11.241  25.280   0.794
55819W        W20804  33.934  33.355  11.716
55820W        W20805  23.818  13.168   3.935
55821W        W20806  11.884  24.532  13.935
55822W        W20807  23.050   6.590  13.380
55823W        W20808  21.191  26.768  12.615
55824W        W20809  42.340  42.336  10.942
55825W        W20810  26.414  16.569   4.517
55826W        W20811   6.467  31.890   4.558
55827W        W20812   9.190   4.355   3.655
55828W        W20813   0.412  27.686  12.116
55829W        W20814  31.028  10.657  11.494
55830W        W20815  24.639  10.703  12.995
55831W        W20816  11.683  27.432   2.290
55832W        W20817  13.868  11.531   3.576
55833W        W20818  17.095  17.883  13.040
55834W        W20819  34.054  21.821   0.493
55835W        W20820  28.343   8.674   3.865
55836W        W20821  32.003  32.208   4.094
55837W        W20822  39.849   8.705  12.640
55838W        W20823   4.492  10.258   4.946
55839W        W20824   7.247  11.382  11.609
55840W        W20825  42.436  22.103  13.038
55841W        W20826   0.450  15.172  12.486
55842W        W20827  18.259   5.974  13.454
55843W        W20828  26.280  25.705  13.471
55844W        W20829   7.333  32.656   0.416
55845W        W20830  35.629   9.700   4.578
55846W        W20831  21.711   0.716  14.450
55847W        W20832   6.253   8.339  12.343
55848W        W20833  23.661   7.784  10.685
55849W        W20834  15.047   6.436   1.515
55850W        W20835   0.862  17.994   2.724
55851W        W20836  20.971  35.115   1.150
55852W        W20837  26.052  35.536   2.160
55853W        W20838  38.577  31.941  10.151
55854W        W20839  27.941   1.611   2.781
55855W        W20840   5.164   8.699   0.605
55856W        W20841   9.377   2.372   4.553
55857W        W20842  11.690  26.563   2.039
55858W        W20843   1.543  15.800  14.804
55859W        W20844  28.187  14.782   3.833
55860W        W20845  25.983  37.299  11.062
55861W        W20846  32.970  43.337  14.187
55862W        W20847  29.157   8.170   2.841
55863W        W20848  20.053   3.470  12.347
55864W        W20849  35.443  26.053   2.408
55865W        W20850  32.318  29.671  12.905
55866W        W20851  14.028  39.534   0.865
55867W        W20852  19.079   6.932   0.478
55868W        W20853   2.107   3.930  11.896
55869W        W20854   8.285  12.428  12.089
55870W        W20855  15.385   7.348   1.361
55871W        W20856  27.445   4.320   1.449
55872W        W20857  11.780  21.734  13.212
55873W        W20858  11.923  14.670   1.388
55874W        W20859   2.864   2.377   4.457
55875W        W20860   9.102   4.289  13.097
55876W        W20861  43.033   9.022  10.751
55877W        W20862  35.666  36.101   1.335
55878W        W20863  31.691  11.062   2.372
55879W        W20864  19.698  26.060   3.137
55880W        W20865  23.323  20.500  11.045
55881W        W20866  25.990  13.681  10.764
55882W        W20867  23.063  43.511  13.776
55883W        W20868  39.837  41.864  14.593
55884W        W20869  16.236  15.784   4.620
55885W        W20870  11.423  32.029  11.229
55886W        W20871  21.727  32.244  10.545
55887W        W20872  14.907  19.505   1.798
55888W        W20873  17.292  28.695  10.832
55889W        W20874   2.109  44.539  13.476
55890W        W20875  15.013  22.686  11.951
55891W        W20876  32.967   3.987  11.151
55892W        W20877  13.307  20.055   3.193
55893W        W20878  13.407  22.847   0.491
55894W        W20879  10.166  10.237  10.675
55895W        W20880  26.784  14.983   2.446
55896W        W20881   0.414   9.131  11.129
55897W        W20882  35.098  41.084   4.653
55898W        W20883  23.083  27.927  13.113
55899W        W20884  39.465  42.914   3.597
55900W        W20885  19.613  20.467  13.824
55901W        W20886   1.928   3.306  14.880
55902W        W20887  12.468  32.002   5.019
55903W        W20888  43.527  12.157  12.013
55904W        W20889   5.789  15.213  12.915
55905W        W20890  38.455   1.195   4.660
55906W        W20891  26.507  33.616   4.132
55907W        W20892  34.907  10.288   5.307
55908W        W20893  16.626   1.429   4.508
55909W        W20894  19.568  36.010   3.024
55910W        W20895  35.620  21.127  14.712
55911W        W20896  31.897  19.720  14.840
55912W        W20897  22.314  13.265   1.490
55913W        W20898   3.465  32.870   1.305
55914W        W20899   9.451  41.838  14.429
55915W        W20900  30.792  30.994   2.823
55916W        W20901  42.908  35.878   2.175
55917W        W20902   3.954   4.446   1.492
55918W        W20903  33.031   6.490   3.737
55919W        W20904  11.098  22.575  13.977
55920W        W20905  41.466   5.976   1.133
55921W        W20906   0.264   9.395  12.471
55922W        W20907  44.724  38.858  12.135
55923W        W20908  40.011  15.848   4.516
55924W        W20909  37.980  14.192   4.028
55925W        W20910  44.912   3.463  11.999
55926W        W20911  27.517  40.041   1.361
55927W        W20912  41.831   1.490   2.230
55928W        W20913  23.943  11.892  12.194
55929W        W20914  25.307  12.655  12.511
55930W        W20915  29.099   5.404  14.932
55931W        W20916  15.826  28.445  12.262
55932W        W20917   4.765   5.169   9.890
55933W        W20918   5.725   7.262   3.154
55934W        W20919   0.572   7.374   1.749
55935W        W20920  21.859  40.017  12.912
55936W        W20921  40.869   6.611   4.179
55937W        W20922  42.640  31.658   2.268
55938W        W20923   5.345  38.288   2.381
55939W        W20924   4.790  21.974   0.053
55940W        W20925  21.297  12.461   2.391
55941W        W20926  26.068  44.844  14.049
55942W        W20927  38.168  37.537  11.932
55943W        W20928  16.547  13.597  14.781
55944W        W20929  26.467   8.441  11.627
55945W        W20930  38.995  12.625  13.303
55946W        W20931  27.645  41.233  11.519
55947W        W20932  27.600  29.571  13.078
55948W        W20933   5.706  10.364   3.187
55949W        W20934  23.880  13.317  10.816
55950W        W20935  38.148  11.700  14.952
55951W        W20936  19.208  34.956  11.681
55952W        W20937  36.351  12.856  13.515
55953W        W20938  26.564  34.465   1.761
55954W        W20939  42.021   5.070  13.419
55955W        W20940   2.011  33.407   2.277
55956W        W20941   2.290  39.487   1.825
55957W        W20942  28.951  25.828  11.394
55958W        W20943  34.225  33.303   2.239
55959W        W20944  23.580   7.716   1.113
55960W        W20945  14.612   0.447  12.855
55961W        W20946   2.032  26.216   2.632
55962W        W20947  27.774  20.801  14.468
55963W        W20948  26.472  35.079   0.320
55964W        W20949  44.795  27.223   1.082
55965W        W20950  13.787  34.593  10.741
55966W        W20951  28.932  13.335  14.090
55967W        W20952  24.200  30.174  12.514
55968W        W20953  13.955  32.085  12.754
55969W        W20954  30.505  33.050   2.746
55970W        W20955  37.957   5.997  13.847
55971W        W20956  26.079   5.411   0.771
55972W        W20957  36.834   3.537  12.454
55973W        W20958  18.589  42.678   4.208
55974W        W20959  43.412  28.876   3.689
55975W        W20960  18.237  13.571  11.730
55976W        W20961   0.979  37.048  14.473
55977W        W20962  42.382  30.170   1.307
55978W        W20963  40.420  32.964  12.019
55979W        W20964   2.501  34.072   0.470
55980W        W20965  37.547  23.452   3.737
55981W        W20966  30.201  35.160  11.133
55982W        W20967  41.278   8.311   0.974
55983W        W20968  25.654  39.527   1.709
55984W        W20969  20.162  31.210   0.466
55985W        W20970  42.460   8.808   3.164
55986W        W20971  11.905  41.067   3.338
55987W        W20972  39.091  28.076  11.628
55988W        W20973  15.858  16.594  14.719
55989W        W20974  36.576  29.557  11.926
55990W        W20975  14.768  22.048   2.124
55991W        W20976  14.787   4.414   2.748
55992W        W20977   8.187  43.457  12.563
55993W        W20978  29.919  28.815  13.834
55994W        W20979   0.361  10.113   2.715
55995W        W20980   6.380  40.499  12.442
55996W        W20981  25.187  21.097  10.647
55997W        W20982  40.605  33.139  14.868
55998W        W20983  31.892  39.212  12.587
55999W        W20984  42.951   4.521   0.539
56000W        W20985  37.909  25.997   0.384
56001W        W20986  31.671  24.575   3.718
56002W        W20987  43.274  20.450   3.724
56003W        W20988  25.897  17.032  12.487
56004W        W20989  38.308  28.978   3.209
56005W        W20990  42.536   4.746  14.745
56006W        W20991  14.703   1.644  11.594
56007W        W20992  44.798   1.729  13.583
56008W        W20993  25.269   6.853  13.342
56009W        W20994  44.182  35.391  10.413
56010W        W20995   9.560  36.130  11.532
56011W        W20996   7.642   0.246  11.215
56012W        W20997   9.766   6.427   2.396
56013W        W20998  19.682   9.863  12.937
56014W        W20999   1.904   2.118   0.526
56015W        W21000  26.491  12.773   1.194
56016W        W21001  35.535  11.427  11.055
56017W        W21002   9.841   4.961  11.135
56018W        W21003  36.704  15.610   0.899
56019W        W21004   5.484  43.909  12.876
56020W        W21005   2.756  26.224   3.164
56021W        W21006   1.308  33.407  13.401
56022W        W21007   8.224  23.084   4.423
56023W        W21008  26.590   4.935  12.912
56024W        W21009  42.848  16.141   2.577
56025W        W21010  27.265  26.458   2.750
56026W        W21011   0.171  29.802  13.025
56027W        W21012  32.819  38.727   1.429
56028W        W21013  16.245  22.918  11.175
56029W        W21014  30.979   5.319  10.869
56030W        W21015   0.400   9.678  13.461
56031W        W21016  12.122  17.118   2.119
56032W        W21017  31.228  21.369   4.639
56033W        W21018   8.644  10.388  11.818
56034W        W21019  21.997  36.549  10.486
56035W        W21020   1.825  36.063  13.442
56036W        W21021  35.700  42.337  10.805
56037W        W21022  29.624  41.452  11.144
56038W        W21023   6.911  26.564   1.637
56039W        W21024  23.810  14.819  11.701
56040W        W21025  40.572  20.053   3.663
56041W        W21026   3.358   9.174  14.956
56042W        W21027  37.987  34.112   9.912
56043W        W21028  17.360   2.973   1.601
56044W        W21029  44.318  30.322   2.022
56045W        W21030  23.462  26.776  10.981
56046W        W21031  28.619   7.035  12.453
56047W        W21032  37.469  40.918   4.402
56048W        W21033  22.737  19.810   3.844
56049W        W21034  11.636  24.647  10.449
56050W        W21035  44.837  11.984   3.342
56051W        W21036  13.864   3.133   3.239
56052W        W21037  44.637  36.009  11.081
56053W        W21038  20.619  27.176  11.086
56054W        W21039  16.633  30.379  14.836
56055W        W21040   1.863  25.181   4.101
56056W        W21041  28.426   0.832   2.151
56057W        W21042  36.312  14.807   1.412
56058W        W21043  13.787   0.102   4.491
56059W        W21044   8.982  20.757   4.552
56060W        W21045   9.264  35.291  10.603
56061W        W21046  35.824   6.812  13.379
56062W        W21047  35.075  41.600  12.008
56063W        W21048   1.182  23.795   5.148
56064W        W21049  37.518   7.272  12.142
56065W        W21050  26.228   6.889  11.485
56066W        W21051  19.123  31.884  11.992
56067W        W21052   5.377   7.841   0.850
56068W        W21053  12.632  23.213   0.578
56069W        W21054   3.391  29.384  12.501
56070W        W21055  17.272  44.533  13.052
56071W        W21056  31.141  23.532   2.912
56072W        W21057  37.284  34.939   3.658
56073W        W21058  19.793  28.764   9.777
56074W        W21059  28.714   1.749   1.732
56075W        W21060  44.891  32.333   4.898
56076W        W21061  31.657  16.555  13.333
56077W        W21062  37.576  32.145   0.561
56078W        W21063  28.150  35.517  12.086
56079W        W21064  25.372  19.579   1.877
56080W        W21065  42.375  21.219   4.504
56081W        W21066  37.840  16.849  14.548
56082W        W21067  31.488  20.483   3.263
56083W        W21068  37.983  13.529   2.355
56084W        W21069   2.814  32.687  11.975
56085W        W21070  17.298   9.646  13.882
56086W        W21071  38.431  18.778   0.310
56087W        W21072  14.572  38.085  14.384
56088W        W21073   5.731   8.260  13.187
56089W        W21074  32.308  23.655   0.911
56090W        W21075   4.788  40.051   2.905
56091W        W21076  36.997  39.125   4.787
56092W        W21077  41.228  38.056  12.937
56093W        W21078  39.061  22.190  11.046
56094W        W21079  37.012  35.889   3.303
56095W        W21080  28.595  18.823  14.385
56096W        W21081   8.496  43.948   3.209
56097W        W21082  33.869  30.616   4.876
56098W        W21083  25.682  35.891   1.398
56099W        W21084  22.309  18.934  11.601
56100W        W21085  31.895   8.343  12.581
56101W        W21086   3.798   7.781   3.587
56102W        W21087  13.953  21.279   0.053
56103W        W21088  25.045  36.753  14.370
56104W        W21089  10.213  37.878  13.018
56105W        W21090   9.179  21.322   0.409
56106W        W21091   7.901  29.013  13.637
56107W        W21092  36.356  38.884  10.733
56108W        W21093  20.003  15.550  13.554
56109W        W21094  10.528  23.961  12.323
56110W        W21095   9.644   8.735   1.178
56111W        W21096  35.592  43.341   3.637
56112W        W21097  42.790   5.367  13.943
56113W        W21098  19.655  36.266  14.428
56114W        W21099  11.691  32.553  12.406
56115W        W21100  30.564   6.545   0.368
56116W        W21101   2.301  10.267   4.573
56117W        W21102   6.814   1.907  11.284
56118W        W21103  44.102  18.086  14.499
56119W        W21104   5.700  13.561   2.259
56120W        W21105  19.104  31.378  12.070
56121W        W21106  40.047  41.368   1.352
56122W        W21107  42.456  29.435   0.332
56123W        W21108  26.453  41.452   0.399
56124W        W21109  32.894  37.041  10.561
56125W        W21110  24.234  20.381   4.082
56126W        W21111   2.789  23.023  14.325
56127W        W21112  29.203   8.346  12.134
56128W        W21113  39.037  29.901   1.763
56129W        W21114  25.556  42.881  11.131
56130W        W21115   4.898   7.450  12.227
56131W        W21116  22.792  28.502   3.318
56132W        W21117  13.899  33.648   3.191
56133W        W21118   1.883  15.007   2.395
56134W        W21119   2.466   8.363   4.520
56135W        W21120  37.648   9.872   3.346
56136W        W21121  23.189  36.414   2.653
56137W        W21122  40.419  38.982  14.243
56138W        W21123  28.323  36.477   1.682
56139W        W21124  33.071   8.912  14.514
56140W        W21125  14.114  29.909   4.588
56141W        W21126  17.379  44.877   0.371
56142W        W21127  11.225  11.276   2.715
56143W        W21128   0.197  27.434  13.119
56144W        W21129  43.954  17.737   0.863
56145W        W21130  23.456  41.822  11.070
56146W        W21131  31.212   4.895  10.997
56147W        W21132   3.935  25.202  13.086
56148W        W21133   8.650  10.713   4.485
56149W        W21134  33.380   3.476   1.775
56150W        W21135  42.269  13.948  10.668
56151W        W21136  30.581  32.221  14.769
56152W        W21137  13.360  21.731  13.423
56153W        W21138  35.832  18.154   4.367
56154W        W21139  39.840   1.135   3.033
56155W        W21140   1.102   3.969  12.049
56156W        W21141   0.897  20.019   2.659
56157W        W21142  10.437   0.043  14.387
56158W        W21143  21.797  40.937  10.818
56159W        W21144   3.150  14.170  12.930
56160W        W21145  10.202  19.587  14.991
56161W        W21146  42.549  21.340   1.009
56162W        W21147  41.034  24.783  13.644
56163W        W21148  33.057   3.827   1.968
56164W        W21149  11.693  25.329  14.328
56165W        W21150   2.989  17.252  13.835
56166W        W21151  18.155   4.762   1.195
56167W        W21152  34.926  30.392   2.787
56168W        W21153  30.145  31.196   2.231
56169W        W21154  14.247   6.719  12.079
56170W        W21155   9.896   9.184   1.270
56171W        W21156  27.016  34.581   1.414
56172W        W21157  20.661  15.079  12.026
56173W        W21158  22.785  35.536   1.724
56174W        W21159  23.580  15.573   4.160
56175W        W21160  29.616  25.690  14.052
56176W        W21161  31.347  16.075   1.735
56177W        W21162  10.318  17.358  13.488
56178W        W21163  15.349  25.237   3.236
56179W        W21164  21.181  31.426   0.768
56180W        W21165  23.637   7.300   0.768
56181W        W21166  11.331  28.805   0.062
56182W        W21167  25.417  23.996   2.810
56183W        W21168  37.526   5.685  10.858
56184W        W21169  21.592   5.358   2.544
56185W        W21170  42.657  29.626  10.295
56186W        W21171  11.582  10.346   4.141
56187W        W21172  43.805  27.895  12.973
56188W        W21173   0.310  19.144   1.684
56189W        W21174  38.895  16.168  14.277
56190W        W21175   7.415   9.798  14.124
56191W        W21176  21.845  25.236  12.802
56192W        W21177  29.297  11.068   1.375
56193W        W21178  15.285   0.180  13.923
56194W        W21179   9.531  44.899   1.936
56195W        W21180  40.234   7.365   0.821
56196W        W21181  36.824  27.132  14.171
56197W        W21182   6.187  42.308  13.571
56198W        W21183  28.943   0.991   3.300
56199W        W21184  30.971  31.163   4.583
56200W        W21185  43.385  39.416   1.106
56201W        W21186  34.513  13.548   4.142
56202W        W21187  16.151  40.842   1.939
56203W        W21188  44.368  43.427  13.911
56204W        W21189  20.801   9.813   0.680
56205W        W21190  29.997  21.489  10.374
56206W        W21191   0.410  21.197  12.824
56207W        W21192  28.500   2.234   0.833
56208W        W21193  39.503  22.987  12.563
56209W        W21194  39.774   5.282  14.873
56210W        W21195  11.182  29.160  13.039
56211W        W21196  13.401  14.521   3.888
56212W        W21197  12.572  33.791   0.372
56213W        W21198  21.905   7.514  11.546
56214W        W21199  11.434  18.211   4.624
56215W        W21200  10.883  22.037  14.531
56216W        W21201  13.785   4.329  12.822
56217W        W21202  43.451  17.753  11.380
56218W        W21203  22.419  19.491  11.333
56219W        W21204  36.419  16.544   0.531
56220W        W21205   7.376  23.731   3.665
56221W        W21206   4.347   9.461  13.575
56222W        W21207  32.902   3.471  11.834
56223W        W21208   5.636  41.024  11.987
56224W        W21209  33.209  43.887   0.312
56225W        W21210  14.348  43.776  12.893
56226W        W21211  23.473  41.452   4.167
56227W        W21212  35.855  31.256  11.481
56228W        W21213  20.127  37.069  11.182
56229W        W21214  41.749   3.666   4.848
56230W        W21215  27.491  36.863   1.337
56231W        W21216   9.239   9.424   0.039
56232W        W21217   5.695  38.407  14.851
56233W        W21218  20.700  17.560   4.019
56234W        W21219  40.552  37.459   4.044
56235W        W21220  42.816  40.513  14.504
56236W        W21221   1.004  42.505  11.188
56237W        W21222   4.053  20.075  12.747
56238W        W21223   5.625  13.168  12.222
56239W        W21224  29.713   7.516   3.726
56240W        W21225  13.218   8.396   2.878
56241W        W21226  12.663  18.669   2.715
56242W        W21227  37.592  10.557  12.403
56243W        W21228  15.863   2.910  10.264
56244W        W21229  10.078   6.929  11.204
56245W        W21230  18.652  44.728   3.130
56246W        W21231  17.381   7.211  14.554
56247W        W21232  12.761  27.247   1.140
56248W        W21233  39.456   5.507  14.397
56249W        W21234   5.293  16.092  10.542
56250W        W21235  25.034  33.668  13.450
56251W        W21236  29.427  23.103   3.283
56252W        W21237  35.619  26.907  14.490
56253W        W21238  10.751  22.719  14.443
56254W        W21239  35.295  24.265   0.827
56255W        W21240  21.179  33.253   0.291
56256W        W21241  28.914  13.069  12.945
56257W        W21242  13.887   7.428   0.120
56258W        W21243  34.499  38.583  13.607
56259W        W21244  43.393  30.191  13.018
56260W        W21245  25.499  16.167   1.377
56261W        W21246   1.306  11.237  14.387
56262W        W21247  24.300  26.100   0.263
56263W        W21248  21.592  39.003   2.318
56264W        W21249  23.554  29.638   0.111
56265W        W21250   5.563  43.404  10.721
56266W        W21251   0.381  16.315  10.644
56267W        W21252   0.787   5.131   2.292
56268W        W21253  33.500   0.253  13.995
56269W        W21254  25.509  40.912   2.578
56270W        W21255  13.874   9.129  14.421
56271W        W21256  29.690   7.422  12.053
56272W        W21257  33.527  41.248  10.718
56273W        W21258  11.228  32.474   2.808
56274W        W21259  16.224   3.690  12.761
56275W        W21260  26.017  27.447  14.824
56276W        W21261  38.999  29.374   2.801
56277W        W21262   2.260  18.926   3.553
56278W        W21263   7.369  43.038   4.749
56279W        W21264  38.467  15.424  13.570
56280W        W21265  24.276  29.907  11.639
56281W        W21266   2.013  30.634  13.949
56282W        W21267  42.331  37.523   4.339
56283W        W21268   8.886  29.224   3.029
56284W        W21269  42.687  38.179   5.360
56285W        W21270  37.603  13.751   3.252
56286W        W21271  36.287  38.325  11.641
56287W        W21272  39.209  25.483   0.518
56288W        W21273   5.437  16.162   3.638
56289W        W21274  18.797  43.440   1.519
56290W        W21275   4.844  43.507   4.151
56291W        W21276  25.167  20.859   4.236
56292W        W21277  23.312  29.826   1.198
56293W        W21278  37.084   1.337   4.085
56294W        W21279   3.324  41.829  13.210
56295W        W21280  36.520  21.975  11.701
56296W        W21281  27.259   6.338  14.463
56297W        W21282  29.266  42.351  13.790
56298W        W21283  20.569  44.348   1.159
56299W        W21284   0.479   9.261   2.854
56300W        W21285  18.122  10.958  13.691
56301W        W21286  24.545   3.568  10.643
56302W        W21287   5.912  28.753   2.867
56303W        W21288   7.879  14.243   3.190
56304W        W21289   4.377  43.181  13.769
56305W        W21290  31.650  11.647  14.432
56306W        W21291  11.554  28.640   1.396
56307W        W21292  10.811  42.375  11.556
56308W        W21293   9.165  34.126   1.206
56309W        W21294  13.575  18.594  12.885
56310W        W21295  34.384  21.711  13.139
56311W        W21296  38.593   6.291   0.045
56312W        W21297  36.948  25.551   4.321
56313W        W21298   8.839   9.891   1.741
56314W        W21299   8.362  16.300   1.892
56315W        W21300  17.307  32.099   3.818
56316W        W21301  17.008  24.008  11.949
56317W        W21302  22.184   3.913   4.199
56318W        W21303  37.620   9.121  12.338
56319W        W21304   5.004   1.624  13.889
56320W        W21305  30.967  11.595  10.576
56321W        W21306  16.447  23.640   1.822
56322W        W21307  44.463  42.852   4.772
56323W        W21308   0.240  43.732   4.867
56324W        W21309  21.073  36.561   4.663
56325W        W21310   8.553  12.671   4.659
56326W        W21311  37.954  33.084  12.871
56327W        W21312  38.105  35.821  10.361
56328W        W21313  42.531   4.024   0.736
56329W        W21314  26.560  27.092   2.779
56330W        W21315  23.943  13.776  14.286
56331W        W21316  37.976  20.706   2.571
56332W        W21317  17.332  36.596   1.423
56333W        W21318  22.538  29.173   2.212
56334W        W21319   8.191  14.569  14.860
56335W        W21320   7.127  39.605  12.943
56336W        W21321  10.497  39.539   3.853
56337W        W21322  40.025  27.091   2.132
56338W        W21323  34.601  42.869  13.589
56339W        W21324  10.000  25.673   1.850
56340W        W21325  17.031  32.939  10.596
56341W        W21326  20.319  28.120  14.991
56342W        W21327  22.520  22.193  11.666
56343W        W21328  42.285  15.450  13.383
56344W        W21329  18.539  24.994  14.776
56345W        W21330  40.874  14.593  11.965
56346W        W21331   2.844  12.100   4.256
56347W        W21332  15.728  22.666  13.056
56348W        W21333   8.424  33.535  13.999
56349W        W21334  14.611  18.021  10.289
56350W        W21335  11.778  38.952  10.891
56351W        W21336   4.896  41.597  10.800
56352W        W21337   5.985   6.897  11.544
56353W        W21338  28.170  31.425  10.282
56354W        W21339  34.601   7.583   3.066
56355W        W21340  10.137  33.153   3.742
56356W        W21341  11.396  28.621   0.543
56357W        W21342  25.760  29.035  10.300
56358W        W21343  12.601  22.574  13.940
56359W        W21344   7.892  24.757  14.752
56360W        W21345  39.883   8.929   1.489
56361W        W21346  24.548  12.341   2.603
56362W        W21347  34.126  39.133   4.976
56363W        W21348  38.690  11.576  14.896
56364W        W21349  27.119   4.516  13.824
56365W        W21350   5.210  22.743   3.616
56366W        W21351  31.993  36.409  12.927
56367W        W21352  26.561  29.362  10.054
56368W        W21353  27.710  39.774  11.427
56369W        W21354  36.002  30.369   3.290
56370W        W21355  36.311   1.901   1.300
56371W        W21356  37.466  25.906  13.228
56372W        W21357  30.563  32.528  12.342
56373W        W21358  14.606  14.624  13.029
56374W        W21359  44.360  44.286   1.295
56375W        W21360   4.982  12.059  11.934
56376W        W21361  16.248  23.633   2.311
56377W        W21362  24.526  15.421   1.865
56378W        W21363  32.075  35.890  12.941
56379W        W21364  17.087  21.177   0.363
56380W        W21365  32.257   1.459  12.997
56381W        W21366  10.921   9.359   4.621
56382W        W21367  24.230   1.233  13.304
56383W        W21368  30.524  35.141   0.302
56384W        W21369  17.199  25.049   2.943
56385W        W21370  15.871  37.800  13.986
56386W        W21371  31.161  29.217   1.860
56387W        W21372  17.068   7.390   2.399
56388W        W21373  18.440  38.044   0.132
56389W        W21374   6.645  42.789  13.108
56390W        W21375  38.021   2.895  13.087
56391W        W21376  25.913  12.424  14.114
56392W        W21377  29.222  29.424   1.458
56393W        W21378   7.945   2.986  11.081
56394W        W21379  32.361  17.132   2.792
56395W        W21380  14.819  26.466  12.627
56396W        W21381   9.170  12.537  10.277
56397W        W21382  42.452  12.860  12.546
56398W        W21383  19.716  43.546  12.432
56399W        W21384  27.473  34.552   3.847
56400W        W21385  31.078  19.969   2.865
56401W        W21386  24.035   3.414   1.425
56402W        W21387   4.201  22.021   4.355
56403W        W21388  28.190  44.404  11.432
56404W        W21389  41.440  25.051   1.295
56405W        W21390  19.633   1.940  14.316
56406W        W21391   9.233  27.594   4.551
56407W        W21392  10.883   5.898  13.892
56408W        W21393  40.354  34.228  12.623
56409W        W21394   3.834  42.129   0.250
56410W        W21395  29.523  25.380  12.563
56411W        W21396  40.692  19.539   3.715
56412W        W21397  34.310  11.697  12.906
56413W        W21398  37.292  16.795   0.837
56414W        W21399  15.289  33.069  13.408
56415W        W21400  15.394  42.755  12.757
56416W        W21401  15.557  11.921  12.041
56417W        W21402  16.608   9.199   1.735
56418W        W21403   1.975  26.038  13.450
56419W        W21404  35.928   7.715   0.689
56420W        W21405  24.498  43.838  12.039
56421W        W21406   1.008   4.291   0.307
56422W        W21407  23.967   4.988  11.774
56423W        W21408   6.253   0.917   1.788
56424W        W21409  18.776   0.984   4.465
56425W        W21410   2.388  41.789  11.795
56426W        W21411  25.245  26.080   4.467
56427W        W21412  21.837  14.740  11.915
56428W        W21413  21.490  28.082   3.044
56429W        W21414  36.634   1.942   2.733
56430W        W21415  15.221  44.546   4.929
56431W        W21416   4.019  40.845   3.777
56432W        W21417  17.343  22.795   4.978
56433W        W21418  42.533  34.099  13.934
56434W        W21419   0.382  16.296   0.334
56435W        W21420   6.707  34.056   1.333
56436W        W21421   2.900  21.614   1.131
56437W        W21422  35.844  29.906  10.734
56438W        W21423  43.267  32.968  11.307
56439W        W21424  32.073  25.775  11.614
56440W        W21425  32.610  29.198   2.677
56441W        W21426  18.473  23.623  13.951
56442W        W21427  20.221   3.553  10.932
56443W        W21428  10.393  34.245   2.903
56444W        W21429  31.164  32.623  13.719
56445W        W21430  37.902  39.842  12.978
56446W        W21431  29.692  34.820  11.994
56447W        W21432  40.929  14.956  11.575
56448W        W21433  11.575  14.584  13.104
56449W        W21434   0.682  33.070   1.303
56450W        W21435  16.354  19.317  13.427
56451W        W21436  10.237  21.088  10.701
56452W        W21437  44.893  38.793  13.377
56453W        W21438  36.850   9.457   3.697
56454W        W21439  42.495  32.023  13.706
56455W        W21440  18.720  10.782   3.512
56456W        W21441  34.395  30.642   4.037
56457W        W21442   0.365   5.800   0.748
56458W        W21443   9.856  28.449   0.966
56459W        W21444   7.691  43.293  12.495
56460W        W21445  35.200  44.728  13.921
56461W        W21446  39.858  15.258  12.828
56462W        W21447  36.779   8.696  13.850
56463W        W21448   9.382  34.317   0.779
56464W        W21449  42.062   0.686  10.402
56465W        W21450  28.461  20.750  12.255
56466W        W21451  38.418   5.526  13.381
56467W        W21452  20.365  40.034  14.489
56468W        W21453  28.978  15.705   3.702
56469W        W21454  39.841  12.356  12.040
56470W        W21455   5.903  44.477  11.057
56471W        W21456  29.614  17.060   2.211
56472W        W21457  13.068  41.112   4.264
56473W        W21458   6.312  12.154  11.646
56474W        W21459   4.115  15.456   2.717
56475W        W21460  38.957  15.364   4.036
56476W        W21461  38.334  43.787  13.326
56477W        W21462  44.634  27.600  11.843
56478W        W21463  16.835   1.930   9.848
56479W        W21464  29.543  20.506   1.680
56480W        W21465  25.573   9.387  14.137
56481W        W21466   2.456  41.977   2.608
56482W        W21467  11.328  32.529   1.402
56483W        W21468  43.382  40.722  10.667
56484W        W21469  16.049   3.308  13.927
56485W        W21470  25.941  33.615   3.695
56486W        W21471  13.820  16.372  13.770
56487W        W21472  27.986  36.886   1.788
56488W        W21473  26.791  40.805  12.141
56489W        W21474  16.950  29.970  14.316
56490W        W21475  26.641   5.184   0.284
56491W        W21476  29.612  12.219   2.817
56492W        W21477  20.121  43.121   2.900
56493W        W21478  41.963  35.558  11.039
56494W        W21479  19.838  43.776   2.398
56495W        W21480  41.757  35.611  13.011
56496W        W21481  16.856  11.706   4.495
56497W        W21482   8.237   3.949  14.026
56498W        W21483   5.819  24.514   4.162
56499W        W21484   6.474  26.372  11.793
56500W        W21485  42.884  24.144   4.571
56501W        W21486  41.790  11.165   0.464
56502W        W21487   1.755   3.846  12.792
56503W        W21488  25.778  41.520  11.951
56504W        W21489  17.483  24.658  12.718
56505W        W21490  21.201  15.709  14.842
56506W        W21491  31.192   5.794   0.032
56507W        W21492  37.064  38.207  13.493
56508W        W21493   6.544  42.839   2.674
56509W        W21494   6.278  27.190   2.581
56510W        W21495  43.300  33.425  14.722
56511W        W21496  36.043  25.611  12.941
56512W        W21497  25.647  12.536  10.777
56513W        W21498  27.072  30.878   3.137
56514W        W21499  19.302  18.187  10.889
56515W        W21500  24.693  12.712   0.737
56516W        W21501  20.029   3.900   0.543
56517W        W21502  39.341  14.038  13.886
56518W        W21503  27.447  16.384  14.434
56519W        W21504  43.936  36.789   3.295
56520W        W21505  18.727  33.029  14.329
56521W        W21506  36.422  11.149  12.615
56522W        W21507  38.438   0.052   2.711
56523W        W21508  32.741  10.243   4.485
56524W        W21509   4.411  40.017  13.364
56525W        W21510  19.310  32.187   1.729
56526W        W21511  19.675   1.763  13.813
56527W        W21512  27.298  40.915  12.043
56528W        W21513  20.828  12.177   1.891
56529W        W21514  18.750  36.571   4.612
56530W        W21515   6.132  18.254  14.759
56531W        W21516  10.596  22.035  13.892
56532W        W21517  14.014   4.305   1.535
56533W        W21518   2.287  14.678   3.243
56534W        W21519  16.914  20.457  12.339
56535W        W21520  37.817  14.249  12.137
56536W        W21521  35.017  10.343   0.235
56537W        W21522   6.174  37.523  11.448
56538W        W21523   8.656  42.840  12.692
56539W        W21524  43.316   9.417  12.426
56540W        W21525   8.854  17.135  13.352
56541W        W21526   4.366  13.826   3.632
56542W        W21527  25.999  23.356  14.331
56543W        W21528  33.629  32.589  13.794
56544W        W21529   5.183  32.125  12.384
56545W        W21530  32.554   3.369  12.237
56546W        W21531  43.768  34.017  10.969
56547W        W21532  21.563  23.005  12.441
56548W        W21533  34.449  26.666   3.261
56549W        W21534  21.017  18.561  12.713
56550W        W21535  13.234   9.852   4.344
56551W        W21536   4.975  27.927   4.333
56552W        W21537  22.697  33.712  13.300
56553W        W21538  23.678   2.062   4.550
56554W        W21539  31.406   4.737   3.685
56555W        W21540  38.260  39.131  11.088
56556W        W21541  36.123  35.091  14.851
56557W        W21542   3.244  19.176  10.686
56558W        W21543  30.566  42.495  10.437
56559W        W21544  29.945   2.698  11.033
56560W        W21545  38.229  26.434  13.046
56561W        W21546  17.721  41.341   2.754
56562W        W21547  13.795  12.711   4.338
56563W        W21548  26.663  15.654  11.498
56564W        W21549  28.391  22.750  14.425
56565W        W21550  20.202  21.330   3.267
56566W        W21551  28.600  22.108   1.503
56567W        W21552  16.783  41.279   1.774
56568W        W21553  30.163  37.813  14.814
56569W        W21554  22.075  14.552  13.726
56570W        W21555  43.335  10.455  10.679
56571W        W21556  25.465   6.217  10.706
56572W        W21557  44.289  31.389   1.334
56573W        W21558   5.243  39.811   1.650
56574W        W21559  43.682   1.183   3.256
56575W        W21560  26.764  10.065  12.562
56576W        W21561  12.782  42.821   1.833
56577W        W21562   2.461  23.730   4.067
56578W        W21563   7.287  16.039   3.379
56579W        W21564   6.938  21.142  13.357
56580W        W21565  13.884  38.669   1.066
56581W        W21566  43.221  34.257  11.621
56582W        W21567   4.917  26.007  10.988
56583W        W21568   3.899   6.247   1.399
56584W        W21569  37.756  12.305  11.273
56585W        W21570   2.363  26.749  12.945
56586W        W21571  13.021   1.446   2.147
56587W        W21572  33.230  40.057  11.060
56588W        W21573  13.567  17.808  10.738
56589W        W21574   4.334  18.794   0.408
56590W        W21575   6.351   1.017   5.202
56591W        W21576   8.512  13.218  14.351
56592W        W21577   2.112  31.419  11.227
56593W        W21578  35.582  14.324   3.626
56594W        W21579  35.031   5.302  14.934
56595W        W21580  23.627  34.004   2.341
56596W        W21581  23.462   7.752  12.050
56597W        W21582  33.665  32.594   2.639
56598W        W21583   6.010  23.758   1.869
56599W        W21584   4.376   2.858  11.631
56600W        W21585  34.941  29.197  14.872
56601W        W21586  10.367  11.824   2.128
56602W        W21587  12.395  34.100   1.673
56603W        W21588  22.039  12.938  14.988
56604W        W21589  33.841   6.327   0.417
56605W        W21590   9.941   4.713  13.366
56606W        W21591  36.959  13.417  13.325
56607W        W21592  16.734  40.745  14.740
56608W        W21593   3.748  36.409  12.501
56609W        W21594  28.921  29.080   0.193
56610W        W21595  15.723  13.079   0.799
56611W        W21596   7.469  21.666   1.641
56612W        W21597  20.131  33.681   1.661
56613W        W21598  42.370  44.429   1.995
56614W        W21599  22.518   2.295   4.197
56615W        W21600   7.377   5.628   4.583
56616W        W21601  19.379  39.912   1.008
56617W        W21602  12.570   0.047   2.254
56618W        W21603  12.736  37.462   2.145
56619W        W21604   1.355   8.251   0.429
56620W        W21605  10.399   7.391  11.138
56621W        W21606   3.376  21.561  11.701
56622W        W21607  17.057  10.809  14.832
56623W        W21608  13.327  12.638   4.115
56624W        W21609  28.945  13.808   2.815
56625W        W21610  31.006  39.834   0.319
56626W        W21611   6.958  16.262   4.622
56627W        W21612  24.671  14.100  14.371
56628W        W21613   6.227  20.283   4.510
56629W        W21614  40.904  22.644  13.510
56630W        W21615  14.650  25.192   1.030
56631W        W21616  44.905  20.503   0.720
56632W        W21617  43.309   2.746   4.317
56633W        W21618  16.992  31.612   4.958
56634W        W21619  14.652  19.752   3.287
56635W        W21620   2.444  38.160   4.735
56636W        W21621  15.214   4.237   0.884
56637W        W21622  31.957  19.215  12.529
56638W        W21623  20.541  30.179  11.567
56639W        W21624  43.485  35.284   0.359
56640W        W21625  37.831  24.001   3.019
56641W        W21626  21.115  41.418   3.141
56642W        W21627  38.389  33.108   3.379
56643W        W21628  16.990  13.398   3.023
56644W        W21629  20.469  39.261  14.087
56645W        W21630  32.001  18.254  10.632
56646W        W21631   4.389  11.365  10.366
56647W        W21632  18.709   8.303   0.463
56648W        W21633  10.014  13.163   2.317
56649W        W21634  18.640  29.119   4.712
56650W        W21635  33.355  14.539   2.330
56651W        W21636  23.781  37.342   0.352
56652W        W21637  41.407  28.183  14.254
56653W        W21638   7.438   1.394   3.303
56654W        W21639  35.426   2.177   0.393
56655W        W21640  43.659  38.026  14.824
56656W        W21641   5.265  10.885   2.719
56657W        W21642   9.373   3.362  13.160
56658W        W21643  21.575  10.738  11.523
56659W        W21644  22.527  42.473   2.136
56660W        W21645  20.135   6.418   4.672
56661W        W21646  31.728   8.886  12.593
56662W        W21647  18.614  35.266   2.228
56663W        W21648  21.085  17.982  11.418
56664W        W21649  10.813  11.052   2.998
56665W        W21650   6.916  26.829   3.450
56666W        W21651  30.558  44.211   0.972
56667W        W21652  27.037  16.780  12.083
56668W        W21653  41.101   1.916   1.688
56669W        W21654  43.693   9.032  12.518
56670W        W21655  41.599   0.274  14.780
56671W        W21656   0.826  28.055   2.874
56672W        W21657  20.075  34.907   3.567
56673W        W21658  18.568  34.999  13.766
56674W        W21659   6.267  20.164  12.993
56675W        W21660  12.817  26.228  13.087
56676W        W21661   2.466  31.049  10.575
56677W        W21662  15.595  35.658  11.937
56678W        W21663  29.064  18.828  10.554
56679W        W21664   0.772   8.759  11.153
56680W        W21665   0.437  20.134   3.370
56681W        W21666  37.789  42.945  14.917
56682W        W21667  28.916  12.550  10.379
56683W        W21668   9.187  40.733  13.385
56684W        W21669   8.830   2.995  11.513
56685W        W21670  29.205   4.410  14.953
56686W        W21671  42.760   7.587   2.812
56687W        W21672   7.771  38.779  11.168
56688W        W21673  44.231  25.741  14.816
56689W        W21674  10.928  25.603  14.939
56690W        W21675  29.640  31.855  11.124
56691W        W21676   9.391  38.451  14.018
56692W        W21677  44.726  26.147  12.064
56693W        W21678  33.052  22.545   3.309
56694W        W21679  19.297  42.816   3.280
56695W        W21680  26.527  16.833   2.687
56696W        W21681  18.499   1.666  11.135
56697W        W21682   6.133  31.983  13.536
56698W        W21683   4.703  36.322   0.335
56699W        W21684  10.829  36.796  11.060
56700W        W21685   2.781  34.693  11.185
56701W        W21686  22.280  25.381  13.017
56702W        W21687   4.194  19.310  12.997
56703W        W21688  13.568   1.791   0.385
56704W        W21689  26.073  23.321  12.169
56705W        W21690  28.421  41.995   4.694
56706W        W21691  41.308  11.912  12.124
56707W        W21692  28.212  13.536  12.468
56708W        W21693  13.104   5.177  14.746
56709W        W21694  25.669  39.802   1.289
56710W        W21695  30.255  36.412   1.896
56711W        W21696  30.480  40.269  13.104
56712W        W21697  31.412  34.395  12.132
56713W        W21698  33.489  17.416  10.346
56714W        W21699  17.080  22.047   0.566
56715W        W21700  40.044  23.622   0.243
56716W        W21701  14.557  40.550  12.858
56717W        W21702   5.293  19.251  11.244
56718W        W21703  21.762  23.935  11.598
56719W        W21704   0.008  41.802   0.730
56720W        W21705  34.849   4.901   3.030
56721W        W21706  12.190   0.515   2.795
56722W        W21707  44.940   8.897   4.998
56723W        W21708  11.422   6.244  10.847
56724W        W21709   3.850   3.490  12.339
56725W        W21710  11.399  21.706   3.304
56726W        W21711   3.328  36.542  13.560
56727W        W21712  25.995  12.525   1.083
56728W        W21713  43.172  16.396  12.877
56729W        W21714  17.840  23.460  11.060
56730W        W21715  36.163  24.033  11.562
56731W        W21716  37.781   6.141  10.035
56732W        W21717  20.244   5.610  14.059
56733W        W21718  32.086  44.375  12.323
56734W        W21719  16.952  28.110  13.556
56735W        W21720   3.901  37.316   3.710
56736W        W21721  21.610  31.121   2.071
56737W        W21722  36.569  44.327  10.636
56738W        W21723   3.177  24.978   0.472
56739W        W21724  20.289  18.557  11.701
56740W        W21725   0.829  22.002  13.988
56741W        W21726  25.903  41.345   3.175
56742W        W21727  37.781  43.859   2.628
56743W        W21728  44.262  14.090   1.710
56744W        W21729   0.627   2.266  11.134
56745W        W21730  28.677  12.665  12.144
56746W        W21731   1.386  34.779   3.946
56747W        W21732  27.032  19.715  13.838
56748W        W21733  30.475   4.556  11.419
56749W        W21734  38.402  33.006  14.087
56750W        W21735  22.195   2.354   1.714
56751W        W21736   1.249  40.331   2.682
56752W        W21737  19.304  38.324  11.683
56753W        W21738  12.502   0.981   1.799
56754W        W21739  21.301  20.509  12.539
56755W        W21740  11.816  40.988   1.809
56756W        W21741  30.650  44.493   4.182
56757W        W21742   3.963  38.460  11.291
56758W        W21743  20.109  39.458  12.393
56759W        W21744  35.419  14.703  11.688
56760W        W21745   6.196  17.011   4.320
56761W        W21746  42.808  30.684  12.698
56762W        W21747  11.394   2.863  13.875
56763W        W21748  41.993  20.261  14.771
56764W        W21749   5.575  39.398   3.888
56765W        W21750  33.630  23.353  12.125
56766W        W21751  21.187  40.469   4.037
56767W        W21752  33.566  24.733   1.122
56768W        W21753  32.033  32.694  11.978
56769W        W21754   1.234  25.700   2.190
56770W        W21755  39.840  39.561  10.666
56771W        W21756   1.077  12.922  12.948
56772W        W21757  34.839  23.612   4.026
56773W        W21758  30.922  13.220   1.638
56774W        W21759  39.827  12.424   0.996
56775W        W21760   7.892   7.237   0.547
56776W        W21761  43.578  20.607   0.012
56777W        W21762  37.554  12.740   2.917
56778W        W21763   4.748   4.222  11.491
56779W        W21764   6.316  11.344  11.241
56780W        W21765  34.626   8.703  13.486
56781W        W21766   1.678  30.457  11.713
56782W        W21767  43.667  41.561  13.542
56783W        W21768  44.853  44.027   4.674
56784W        W21769  36.083   2.005  14.691
56785W        W21770  13.224  12.917  12.078
56786W        W21771  28.857  35.560  11.106
56787W        W21772  36.873   3.246   4.345
56788W        W21773  12.395  31.058  11.197
56789W        W21774  13.727  25.142   0.960
56790W        W21775  19.813   3.643  11.629
56791W        W21776  29.024  12.737  14.426
56792W        W21777   2.793   2.953   3.704
56793W        W21778   0.713  40.354  11.670
56794W        W21779   8.846  39.331  11.383
56795W        W21780  12.411  30.980  12.149
56796W        W21781   8.789  12.428  11.061
56797W        W21782   0.452   1.722   4.705
56798W        W21783  20.739  23.510  12.141
56799W        W21784  18.609  26.482   3.389
56800W        W21785  41.080  30.183  12.686
56801W        W21786  29.156   9.617  13.958
56802W        W21787   3.733  34.391  11.038
56803W        W21788  34.224  39.773  12.505
56804W        W21789   3.269   5.865   1.984
56805W        W21790  29.162   6.849  11.603
56806W        W21791  13.685  43.288   3.153
56807W        W21792  44.399  39.434  14.355
56808W        W21793  30.741   4.280   1.835
56809W        W21794  25.468   9.357  11.132
56810W        W21795  29.037  14.416  10.442
56811W        W21796   0.445  16.806   0.251
56812W        W21797  28.963  35.899   1.353
56813W        W21798  30.440  19.813  12.963
56814W        W21799  44.858  43.610  13.799
56815W        W21800  27.560  24.412   1.426
56816W        W21801   9.119  38.666  12.539
56817W        W21802  41.815  42.841  11.934
56818W        W21803  38.533   8.466   0.225
56819W        W21804  11.372  33.904  12.499
56820W        W21805   6.790  36.835  14.968
56821W        W21806  20.353  35.056  12.593
56822W        W21807  36.296  13.636   3.649
56823W        W21808   7.328  13.833  13.114
56824W        W21809  17.437   4.081   0.854
56825W        W21810  42.087  26.770   3.384
56826W        W21811  40.565  11.123  14.642
56827W        W21812  14.465   9.285  10.697
56828W        W21813  30.541  26.471   3.152
56829W        W21814  23.279   2.405  13.391
56830W        W21815   3.728   2.292  14.470
56831W        W21816   9.244   4.184   0.363
56832W        W21817   1.956   1.837  12.364
56833W        W21818   0.849   2.400  11.583
56834W        W21819  43.557   4.227   1.932
56835W        W21820  39.356  43.380   3.769
56836W        W21821  25.217  35.396   2.851
56837W        W21822  26.173  34.201  12.297
56838W        W21823   0.734   5.821   2.871
56839W        W21824  14.947  43.805   1.809
56840W        W21825  24.946   9.005   1.930
56841W        W21826  28.030   2.481   1.857
56842W        W21827  10.130  15.858   4.627
56843W        W21828  32.967  15.986  12.276
56844W        W21829   1.759  41.192   2.277
56845W        W21830  30.158   2.638   5.066
56846W        W21831  29.540  18.844   3.813
56847W        W21832   3.067  36.944  10.838
56848W        W21833  18.778  12.683  10.664
56849W        W21834  44.328  43.018   1.962
56850W        W21835  20.530  22.141  11.085
56851W        W21836  16.308  26.071  14.989
56852W        W21837  41.527   8.363   2.890
56853W        W21838  20.744  17.704  12.611
56854W        W21839   2.796  32.720  11.173
56855W        W21840   9.712  34.096   2.238
56856W        W21841  41.072  28.548   4.729
56857W        W21842  15.108   3.908   2.150
56858W        W21843  17.204  32.683   1.171
56859W        W21844  17.721  20.601   2.586
56860W        W21845   7.237   2.337  13.156
56861W        W21846  27.526  30.682   3.386
56862W        W21847  43.279  40.674  11.586
56863W        W21848  38.905  24.955  13.517
56864W        W21849  27.093   0.931   4.031
56865W        W21850  20.843  39.058  13.002
56866W        W21851  29.993  17.224  10.764
56867W        W21852  22.570  38.814   4.497
56868W        W21853  23.578  30.460  11.598
56869W        W21854  15.624  11.972   2.127
56870W        W21855  21.804  17.588   0.946
56871W        W21856  31.370   4.688  11.456
56872W        W21857  25.677  38.493   3.612
56873W        W21858  18.653   5.188  13.371
56874W        W21859  22.551  42.243   3.698
56875W        W21860  19.170  13.148  14.978
56876W        W21861  38.706   9.934   1.380
56877W        W21862  25.136  12.601  14.463
56878W        W21863  21.273  30.541  14.023
56879W        W21864  15.978   8.659  13.832
56880W        W21865   9.747  25.899  13.018
56881W        W21866  25.704  34.422  12.299
56882W        W21867   2.345   5.910  14.056
56883W        W21868  31.822  32.239   5.088
56884W        W21869   7.235   7.731  13.530
56885W        W21870  26.208  14.258   4.868
56886W        W21871   3.959  35.926   3.222
56887W        W21872   7.939   8.704  11.922
56888W        W21873  34.340  16.160   4.696
56889W        W21874  27.225  20.584   0.431
56890W        W21875  38.957  15.201  10.468
56891W        W21876  43.411  43.840  10.415
56892W        W21877  21.368   4.097   2.227
56893W        W21878   5.354  24.761   4.143
56894W        W21879  41.732  20.208  13.907
56895W        W21880  15.252  13.722  14.484
56896W        W21881  31.263  23.750  13.075
56897W        W21882   7.655  18.462   3.708
56898W        W21883  36.463  35.319  14.031
56899W        W21884  15.533   9.230  14.329
56900W        W21885  33.880   3.813  10.380
56901W        W21886  28.964  26.569  13.419
56902W        W21887  41.321  14.792  11.149
56903W        W21888  32.024  13.130  11.250
56904W        W21889  15.656  24.980  12.411
56905W        W21890  29.698  21.629   3.651
56906W        W21891  39.459  44.511  10.434
56907W        W21892  39.813  11.628   2.332
56908W        W21893   5.700  10.276  10.727
56909W        W21894  39.485   9.796   4.719
56910W        W21895  37.695  39.317  14.906
56911W        W21896  40.305  43.005  14.535
56912W        W21897  35.106   7.305   4.670
56913W        W21898   5.188   0.369   0.506
56914W        W21899  38.825  16.905   5.021
56915W        W21900  18.234  40.426   0.731
56916W        W21901  10.109  16.993  11.625
56917W        W21902  35.247  30.869   3.611
56918W        W21903  18.048  42.225   3.621
56919W        W21904  37.652  17.524  12.813
56920W        W21905  12.395   9.277   3.159
56921W        W21906  43.824   8.433  14.959
56922W        W21907  33.473  21.732   1.254
56923W        W21908  26.143  30.441  12.212
56924W        W21909   9.627  28.335  13.274
56925W        W21910  20.124  34.481   1.008
56926W        W21911  21.752  38.601  13.872
56927W        W21912  26.089  20.558   2.406
56928W        W21913  40.803  44.011   1.896
56929W        W21914  10.980   5.133  11.970
56930W        W21915  36.049   1.381  10.776
56931W        W21916  11.353  41.644   2.821
56932W        W21917  33.517  17.966   4.870
56933W        W21918  34.394  20.210   3.594
56934W        W21919  35.643  41.831  13.070
56935W        W21920  13.892  14.646  14.366
56936W        W21921  16.067  17.242   3.247
56937W        W21922  35.849   8.502   0.183
56938W        W21923  20.199  28.739   4.843
56939W        W21924   1.228  15.610  12.876
56940W        W21925  10.176   9.448   3.106
56941W        W21926  22.220   2.874   1.245
56942W        W21927   4.832  43.616   1.811
56943W        W21928  25.746  10.777   2.895
56944W        W21929   3.830  23.252  12.885
56945W        W21930   3.038  30.484   3.182
56946W        W21931  43.234  12.254   1.673
56947W        W21932  30.412  19.296  12.968
56948W        W21933  18.767   1.711  11.573
56949W        W21934   6.099  30.437  10.665
56950W        W21935  42.005  27.577   0.929
56951W        W21936  10.302   9.625   2.610
56952W        W21937  43.166  19.113  14.828
56953W        W21938   1.801  40.377  12.979
56954W        W21939   7.966   2.447   0.249
56955W        W21940  22.502  35.009   4.511
56956W        W21941  34.383  26.523   4.066
56957W        W21942   1.805  43.865  13.991
56958W        W21943  37.167  28.960   2.820
56959W        W21944  20.702  15.066   3.265
56960W        W21945  27.572  43.390  11.604
56961W        W21946  21.948  43.376  10.591
56962W        W21947  17.589  10.802  14.929
56963W        W21948  34.427   2.352   1.169
56964W        W21949  15.404  16.544  13.284
56965W        W21950  15.599   1.527  13.012
56966W        W21951  39.434  27.620   2.746
56967W        W21952  18.104  36.341  11.538
56968W        W21953   5.333   5.066  11.582
56969W        W21954  36.919  43.688   2.305
56970W        W21955  39.374  12.490  13.841
56971W        W21956  37.387  39.821  13.029
56972W        W21957  31.060  10.430  12.849
56973W        W21958  15.234   0.307  11.193
56974W        W21959  30.910   7.674   3.383
56975W        W21960  30.982   4.459  11.152
56976W        W21961  39.420  10.773   4.835
56977W        W21962  40.524  43.090   0.797
56978W        W21963   1.060  34.255   1.867
56979W        W21964  16.388   5.554  11.182
56980W        W21965   5.375   2.806   0.942
56981W        W21966  36.555   3.354  11.366
56982W        W21967  14.726   2.513  13.079
56983W        W21968  16.021   7.707  12.988
56984W        W21969  29.628   2.584  11.972
56985W        W21970  37.949  24.801  12.529
56986W        W21971  31.109  43.565  10.675
56987W        W21972  36.073  22.776  12.476
56988W        W21973  33.396  24.730   3.160
56989W        W21974  10.312   2.915  12.742
56990W        W21975  40.494   7.171  13.254
56991W        W21976  16.634  42.846   2.152
56992W        W21977  31.569  37.060   2.883
56993W        W21978  35.775  28.045  13.023
56994W        W21979  23.738  14.796  12.198
56995W        W21980  11.817  38.561  11.235
56996W        W21981   5.694  44.404   3.559
56997W        W21982   1.892  40.018   4.329
56998W        W21983  44.861   4.344   0.702
56999W        W21984  25.945   0.713   9.858
57000W        W21985  17.177   8.793  14.810
57001W        W21986  43.468  29.009   1.429
57002W        W21987  15.207  40.965   4.249
57003W        W21988  28.927  30.795   1.652
57004W        W21989  39.049  11.159  13.994
57005W        W21990   8.419  19.782  12.105
57006W        W21991   3.569   8.320   1.969
57007W        W21992  13.383   3.720  12.253
57008W        W21993  34.964  17.103   5.006
57009W        W21994  39.303  11.248   0.301
57010W        W21995  10.415   2.736  14.980
57011W        W21996   2.653  19.994  12.400
57012W        W21997  17.750  32.168  14.269
57013W        W21998  44.879  29.442   0.522
57014W        W21999   7.363  43.161   3.099
57015W        W22000  20.146  31.856   3.070
57016W        W22001  19.096   6.234   3.235
57017W        W22002   6.562  35.342  14.345
57018W        W22003   6.636  30.108  13.959
57019W        W22004  15.122   8.674   4.016
57020W        W22005  25.177   4.344   0.781
57021W        W22006  30.670   3.168   3.344
57022W        W22007   9.297  35.349   0.899
57023W        W22008   6.465  42.366  10.656
57024W        W22009  22.087  42.515   3.620
57025W        W22010  19.064  26.730   2.615
57026W        W22011   7.133   2.394  14.120
57027W        W22012   6.217  33.961   4.164
57028W        W22013   5.909  24.222  14.775
57029W        W22014  29.085  26.499   4.048
57030W        W22015  29.425  43.918  14.579
57031W        W22016  36.911  16.339   0.566
57032W        W22017  42.452  44.660   1.517
57033W        W22018  17.233  15.451  12.406
57034W        W22019  11.641   4.203   2.765
57035W        W22020  15.304  19.065  13.885
57036W        W22021  40.537  25.054   1.580
57037W        W22022  10.872   8.151   3.364
57038W        W22023  40.332   8.880   0.401
57039W        W22024  33.976   5.938   2.346
57040W        W22025  24.509  12.269  11.502
57041W        W22026  22.408  12.249  14.384
57042W        W22027  39.899   6.508   2.149
57043W        W22028   5.980   8.672  11.520
57044W        W22029  19.996   0.710   4.085
57045W        W22030  17.480  14.240  13.739
57046W        W22031  27.753  15.669  10.113
57047W        W22032  29.254  18.229  13.373
57048W        W22033  44.282  33.905  10.946
57049W        W22034  40.257   1.924  11.639
57050W        W22035  35.662  14.025  11.006
57051W        W22036  21.562  12.736   0.015
57052W        W22037   2.251  36.840  11.028
57053W        W22038   6.191  25.407   2.145
57054W        W22039  11.624  41.350  12.217
57055W        W22040  37.719  10.919   9.836
57056W        W22041  17.205  35.831   0.973
57057W        W22042  10.569  29.386   0.297
57058W        W22043  34.547  33.245   1.797
57059W        W22044  42.339  20.247  10.435
57060W        W22045  34.529   0.895   3.698
57061W        W22046   1.430  39.857   3.614
57062W        W22047   5.328   8.885  10.904
57063W        W22048  40.483   9.438  12.646
57064W        W22049   3.673  16.136   0.209
57065W        W22050  16.360  18.658   0.736
57066W        W22051  15.395   6.941  14.397
57067W        W22052  22.544  31.639  13.492
57068W        W22053  19.080  24.533   4.757
57069W        W22054  34.936  20.285   1.376
57070W        W22055  10.152   3.719   1.926
57071W        W22056   4.903  27.201   2.231
57072W        W22057  32.301  32.102   4.951
57073W        W22058  39.538  17.489  13.987
57074W        W22059   5.211  15.351   1.497
57075W        W22060  15.729   2.186   5.131
57076W        W22061  21.052  33.293  10.963
57077W        W22062   4.874  28.505  11.875
57078W        W22063  15.284   7.193  10.364
57079W        W22064  39.516  30.050   0.064
57080W        W22065  10.164  38.206   4.450
57081W        W22066  28.478  11.408   4.606
57082W        W22067  37.528   8.745  10.694
57083W        W22068   2.788  23.451   1.427
57084W        W22069  37.296  42.528  14.723
57085W        W22070  18.045  21.313  13.604
57086W        W22071  19.357  26.955  14.961
57087W        W22072  34.727  12.308   4.032
57088W        W22073  13.083   5.800  13.554
57089W        W22074  13.412  28.540   2.647
57090W        W22075  34.609  25.491  14.974
57091W        W22076  24.914   8.797  12.708
57092W        W22077  40.616  21.241   0.963
57093W        W22078   4.482   6.832  11.707
57094W        W22079   4.739  31.814   4.563
57095W        W22080  44.825  28.050   4.061
57096W        W22081  11.285  36.773  14.292
57097W        W22082   8.162  34.979   0.235
57098W        W22083  39.513   9.417  11.613
57099W        W22084  29.074  13.738   0.969
57100W        W22085  27.896  43.462   3.385
57101W        W22086   7.854  10.000   4.622
57102W        W22087  15.266  19.517  14.711
57103W        W22088  18.081  14.048   1.407
57104W        W22089  14.596  14.209   3.041
57105W        W22090   6.836  20.774  12.479
57106W        W22091  40.201  41.962   4.158
57107W        W22092  38.869  18.501   2.731
57108W        W22093  17.072  27.087  13.017
57109W        W22094  38.687  23.022   3.384
57110W        W22095  23.093  31.758   0.944
57111W        W22096  38.447  37.886   2.443
57112W        W22097  16.573   5.274   1.803
57113W        W22098  43.818  12.704  12.670
57114W        W22099  11.393  37.781  14.306
57115W        W22100  38.840  16.568  10.724
57116W        W22101  36.584  16.567   0.037
57117W        W22102  18.181  27.021   2.217
57118W        W22103  44.476  15.777   3.654
57119W        W22104  14.727  30.640   3.346
57120W        W22105   7.372  32.656  14.054
57121W        W22106   6.546  39.363   0.013
57122W        W22107  24.426  33.606   4.945
57123W        W22108  29.136  42.757   3.118
57124W        W22109  21.985   4.413  14.540
57125W        W22110   6.159   8.129  13.474
57126W        W22111  11.719  42.812  13.522
57127W        W22112   7.839  25.411   0.682
57128W        W22113  30.344   2.462   4.354
57129W        W22114  14.410  32.735   4.560
57130W        W22115  12.392  43.954  13.888
57131W        W22116  14.526  21.734   4.131
57132W        W22117  44.541   2.391  11.931
57133W        W22118  36.158  29.916   2.686
57134W        W22119   6.949  29.103  12.406
57135W        W22120  43.550   9.196   0.230
57136W        W22121   4.841  31.399  12.313
57137W        W22122  41.463  39.673  12.142
57138W        W22123  18.204  21.283  11.788
57139W        W22124   1.248  27.570  14.961
57140W        W22125  44.401   1.042  10.693
57141W        W22126   7.951   7.671  11.102
57142W        W22127   7.733  31.669  10.771
57143W        W22128  17.682  30.018   3.650
57144W        W22129  33.599  24.545   2.666
57145W        W22130  32.892  11.415  11.964
57146W        W22131  23.012   1.391   1.398
57147W        W22132   8.162  29.040   2.625
57148W        W22133   6.814  40.053  13.901
57149W        W22134   9.198   9.628   3.717
57150W        W22135  14.637  29.057  13.074
57151W        W22136   9.002  22.029  10.765
57152W        W22137  33.200   0.862  12.442
57153W        W22138   0.045  42.990   0.431
57154W        W22139   2.071   6.293  14.281
57155W        W22140  28.588  26.151  12.766
57156W        W22141   2.243  38.012   2.190
57157W        W22142   8.832   5.661   3.174
57158W        W22143  42.384  39.086  14.465
57159W        W22144  34.869  12.905   2.877
57160W        W22145  26.122  19.700   4.600
57161W        W22146  30.129  35.117  14.946
57162W        W22147  16.075  14.297  14.399
57163W        W22148  41.956   7.669  12.829
57164W        W22149  42.096  41.125  11.217
57165W        W22150  15.953   9.152  14.902
57166W        W22151  11.256  17.310   0.034
57167W        W22152  34.096  28.500   3.234
57168W        W22153  19.998  30.343   0.737
57169W        W22154   7.690  44.769   1.800
57170W        W22155  23.197  18.919  13.980
57171W        W22156  11.663   3.943  13.417
57172W        W22157  13.135  35.103  14.692
57173W        W22158  21.576   8.166  13.642
57174W        W22159  14.027  24.570   4.790
57175W        W22160  31.590  18.626  13.606
57176W        W22161  32.469  43.240  11.931
57177W        W22162  12.052  38.836   4.677
57178W        W22163   9.087  34.848  13.932
57179W        W22164   9.724  26.431  12.938
57180W        W22165  15.368   8.844   4.898
57181W        W22166   4.138   6.664   9.696
57182W        W22167  40.183  26.646   0.346
57183W        W22168  33.595  26.653   2.156
57184W        W22169   4.899   6.699  12.942
57185W        W22170  32.000   4.214   1.327
57186W        W22171   6.832  43.686   3.720
57187W        W22172  30.702  44.216   1.481
57188W        W22173  25.448  13.778   0.213
57189W        W22174  23.592   5.350   2.434
57190W        W22175  43.246  31.736   1.075
57191W        W22176  17.064   3.220   0.956
57192W        W22177  14.553   9.838   2.242
57193W        W22178  12.081   1.015  13.359
57194W        W22179   5.191  19.800   3.587
57195W        W22180  10.035  34.864  13.889
57196W        W22181  25.660   8.062  11.265
57197W        W22182   9.146  42.639  11.953
57198W        W22183  33.108  11.269  12.423
57199W        W22184   3.913   6.168  13.493
57200W        W22185  38.999   9.646  13.299
57201W        W22186  27.460  39.487   0.354
57202W        W22187  34.345  41.984  10.622
57203W        W22188  33.171  38.942   3.136
57204W        W22189  11.239  41.992  12.722
57205W        W22190  29.907  15.105  14.961
57206W        W22191  30.443  21.291  13.953
57207W        W22192  32.710  43.319   1.623
57208W        W22193  28.433  33.754  12.983
57209W        W22194  24.600  42.804   4.051
57210W        W22195  13.986  42.684   3.788
57211W        W22196  40.586  39.000   4.189
57212W        W22197  31.345   2.199  12.350
57213W        W22198  41.937  19.395   4.972
57214W        W22199  14.452  42.445   3.703
57215W        W22200  11.998  13.561   3.673
57216W        W22201   4.316  24.430   0.758
57217W        W22202  16.299  13.379  13.088
57218W        W22203  29.551  43.940   0.093
57219W        W22204  32.203  31.692  11.987
57220W        W22205  14.324  19.700  12.565
57221W        W22206  23.447  35.044  13.524
57222W        W22207  30.626  19.151   2.312
57223W        W22208  38.588  10.447  11.623
57224W        W22209  44.973   9.349  14.590
57225W        W22210  24.758  38.857   0.854
57226W        W22211  16.193   7.355   2.566
57227W        W22212  43.691  13.699  13.948
57228W        W22213  21.582  24.955  14.387
57229W        W22214  34.880   2.945  14.528
57230W        W22215   6.404  43.702  10.709
57231W        W22216   4.663  35.366  14.317
57232W        W22217  23.180  22.034  14.831
57233W        W22218  35.861  40.496   2.961
57234W        W22219  30.636  27.488  14.547
57235W        W22220   2.209  17.089   2.246
57236W        W22221  35.856  31.841   0.250
57237W        W22222  38.348  29.454  10.745
57238W        W22223  28.401   1.871  14.223
57239W        W22224  35.078  42.360   3.222
57240W        W22225   9.752   6.521   1.351
57241W        W22226   6.440   7.835   4.171
57242W        W22227  20.759  29.718   2.777
57243W        W22228   9.407   0.434   2.230
57244W        W22229  21.659  27.596  10.687
57245W        W22230  25.268  41.727   0.697
57246W        W22231   3.709   7.966  12.411
57247W        W22232  40.467  37.757  11.467
57248W        W22233  23.705   4.335   1.737
57249W        W22234  10.820  29.476  10.720
57250W        W22235  11.278   5.065  10.475
57251W        W22236  28.898  34.310  11.778
57252W        W22237  14.636  36.845  13.034
57253W        W22238   4.834  34.596   1.785
57254W        W22239   4.161  22.453   2.846
57255W        W22240  38.538  23.508   1.493
57256W        W22241  20.995  44.008   4.198
57257W        W22242  28.060  35.889  14.898
57258W        W22243   7.876  28.085  14.124
57259W        W22244  11.375   1.272  10.453
57260W        W22245  37.359  38.124  12.203
57261W        W22246   2.374  37.287  13.379
57262W        W22247  44.534  34.961  13.357
57263W        W22248   7.495  37.117  11.734
57264W        W22249  25.152   0.296   3.409
57265W        W22250  18.773   4.859   3.563
57266W        W22251  24.269  39.755   2.296
57267W        W22252  24.715  26.610  12.956
57268W        W22253  40.180   7.970   1.847
57269W        W22254   3.917  42.108   1.886
57270W        W22255  14.222  39.858  13.480
57271W        W22256  11.087   6.747   2.237
57272W        W22257  36.175  34.845  13.624
57273W        W22258  39.636   9.872   3.772
57274W        W22259  39.575  39.327  14.403
57275W        W22260   2.831  30.928   4.836
57276W        W22261  11.801  30.484  10.589
57277W        W22262   1.065  20.366   3.859
57278W        W22263   1.428  16.232   0.074
57279W        W22264  23.458  36.449   4.191
57280W        W22265  24.018  29.025   2.356
57281W        W22266  44.281  23.079  12.326
57282W        W22267  28.061  41.272  13.035
57283W        W22268   8.967   1.118  13.400
57284W        W22269  42.811  29.409   3.356
57285W        W22270  22.946  20.202  12.477
57286W        W22271  43.465  36.385  12.430
57287W        W22272   5.992  33.989  12.574
57288W        W22273  33.630  18.752   3.172
57289W        W22274  19.196  42.836   0.349
57290W        W22275  36.155  18.145  12.464
57291W        W22276  18.172  34.512   4.458
57292W        W22277  32.730  17.462  14.964
57293W        W22278  42.508  37.854  12.520
57294W        W22279  43.894  42.281   4.570
57295W        W22280  42.646  25.538  12.661
57296W        W22281   7.767  18.843  14.273
57297W        W22282  21.715  17.180  14.874
57298W        W22283  43.516  42.061   4.284
57299W        W22284  44.993  27.913   2.271
57300W        W22285  33.747  41.051   1.798
57301W        W22286   9.246   8.720  13.811
57302W        W22287  22.856  18.308   3.780
57303W        W22288  32.213   2.293   4.813
57304W        W22289   6.319  13.459   2.889
57305W        W22290   1.403  14.951   1.389
57306W        W22291  43.828  27.513  11.376
57307W        W22292  26.672  36.308  14.616
57308W        W22293   0.905  29.706  13.780
57309W        W22294  15.804  38.506  14.323
57310W        W22295  18.134  26.207  14.907
57311W        W22296  19.032  44.706  12.079
57312W        W22297  19.561   0.757   5.064
57313W        W22298  37.435  37.895   1.497
57314W        W22299  39.621  41.746   2.865
57315W        W22300   8.717  14.594   3.064
57316W        W22301  29.647   8.838  14.459
57317W        W22302   4.890  19.829   0.835
57318W        W22303   3.273  14.875   2.316
57319W        W22304   5.256  22.514  13.984
57320W        W22305  10.775  32.626   1.304
57321W        W22306  32.538  23.135  14.714
57322W        W22307   5.215  20.158  11.432
57323W        W22308  38.456  18.462  11.748
57324W        W22309  44.392  30.356  11.893
57325W        W22310  32.861  42.473   4.211
57326W        W22311  20.500  13.582   2.587
57327W        W22312  37.017  43.997   3.055
57328W        W22313  28.958  19.889   0.427
57329W        W22314  13.811  33.061  14.477
57330W        W22315  17.714  38.149   1.916
57331W        W22316  26.631  43.752  12.520
57332W        W22317   1.256  17.216   4.103
57333W        W22318  10.328  29.307   3.532
57334W        W22319  24.769  39.939  10.387
57335W        W22320  42.703  10.375  11.965
57336W        W22321  19.139   0.369   0.372
57337W        W22322  25.957  25.539  13.097
57338W        W22323  25.011  21.891  13.961
57339W        W22324  29.957  36.457  10.761
57340W        W22325  32.975  27.216   1.701
57341W        W22326  40.788  13.805  12.998
57342W        W22327  32.379  15.651   1.659
57343W        W22328  31.345  39.929  13.035
57344W        W22329  33.064  23.050   3.262
57345W        W22330   2.840  28.654   0.281
57346W        W22331  22.311  44.787   0.739
57347W        W22332   3.974  30.865  13.554
57348W        W22333  13.668  19.745  12.138
57349W        W22334   5.596  35.685  14.580
57350W        W22335  17.931  20.274   2.944
57351W        W22336   1.659  30.610   1.792
57352W        W22337  19.318  44.407  12.389
57353W        W22338  32.217   9.908   2.795
57354W        W22339  33.578  33.413   1.202
57355W        W22340  36.390  40.225  14.056
57356W        W22341  31.660  28.596   3.221
57357W        W22342  34.358  16.172   4.160
57358W        W22343  37.447  31.830  11.183
57359W        W22344  40.493  12.295  12.827
57360W        W22345  22.744   7.278  11.224
57361W        W22346  33.384   3.928  10.466
57362W        W22347   9.186  41.376   2.373
57363W        W22348  13.927  36.507  11.196
57364W        W22349  14.668  23.650  12.276
57365W        W22350  25.122  32.889  13.041
57366W        W22351  37.994   1.387  13.478
57367W        W22352  12.658   2.414   2.712
57368W        W22353   0.532  26.584   3.635
57369W        W22354  42.545  10.345   2.606
57370W        W22355  22.549  36.019   1.198
57371W        W22356   8.178  43.063   3.483
57372W        W22357  12.710  14.211  13.420
57373W        W22358  44.557  11.173   1.760
57374W        W22359   6.751  18.457  11.224
57375W        W22360  38.306  32.803   4.937
57376W        W22361  14.711  27.442  12.995
57377W        W22362  25.506  26.511   0.698
57378W        W22363   0.576  42.335   1.885
57379W        W22364  11.470  14.250   9.911
57380W        W22365  39.967  11.150  12.850
57381W        W22366  18.739  16.387   0.935
57382W        W22367   7.287  13.398   3.831
57383W        W22368   8.925  38.256  13.874
57384W        W22369  34.026  16.205  10.708
57385W        W22370  22.634   2.441   0.288
57386W        W22371  38.259  35.762   0.062
57387W        W22372  29.857  11.157   4.146
57388W        W22373  24.145  12.597   2.804
57389W        W22374  38.272   4.118   4.415
57390W        W22375   5.538  23.620   1.800
57391W        W22376  17.903   8.405   9.559
57392W        W22377  18.657  12.466   5.004
57393W        W22378  39.548  13.555   2.357
57394W        W22379  42.377   7.897  13.418
57395W        W22380  13.214  25.712  11.924
57396W        W22381  32.479  11.569  12.565
57397W        W22382  18.685   9.529   4.943
57398W        W22383   9.370  17.016  13.316
57399W        W22384  27.947  38.100  10.745
57400W        W22385  36.042  20.530   0.425
57401W        W22386  42.557  13.327   2.254
57402W        W22387  44.393   3.297   0.681
57403W        W22388  32.970  35.660  14.952
57404W        W22389  10.184   9.331   1.696
57405W        W22390  40.345  20.985   0.562
57406W        W22391  39.143  40.776  12.961
57407W        W22392  35.471  27.080   1.370
57408W        W22393  19.864  28.419   0.791
57409W        W22394  39.264  36.863   2.425
57410W        W22395   8.404  38.307  13.900
57411W        W22396  28.096  28.164  12.411
57412W        W22397   5.204  42.759   1.719
57413W        W22398   0.794  21.986   3.357
57414W        W22399  20.571   3.445  11.667
57415W        W22400  27.658  11.099  13.827
57416W        W22401  15.277   0.316   1.211
57417W        W22402  14.796  33.174   2.267
57418W        W22403  28.890  32.562   3.242
57419W        W22404   2.377  11.322   2.713
57420W        W22405  43.194  15.587   1.698
57421W        W22406   9.769  24.008  11.953
57422W        W22407  13.570   4.687   4.112
57423W        W22408  33.152   8.229   2.751
57424W        W22409  13.091  43.298  10.914
57425W        W22410   5.197  19.599   0.203
57426W        W22411  35.194  20.190  14.973
57427W        W22412  40.367  16.520   1.298
57428W        W22413  32.068  17.273   1.170
57429W        W22414  34.459  23.359  13.558
57430W        W22415  37.488   0.488  12.853
57431W        W22416   4.366  11.151  10.848
57432W        W22417  38.516  40.007  10.942
57433W        W22418  39.573  31.208  11.123
57434W        W22419  17.353  27.235  12.575
57435W        W22420  33.888   2.658   0.495
57436W        W22421  36.036  37.454   3.615
57437W        W22422  17.360  12.414   3.829
57438W        W22423  28.412  19.774  13.779
57439W        W22424  37.423  14.677   3.270
57440W        W22425  10.733   9.883   2.462
57441W        W22426   7.455  42.516  12.121
57442W        W22427  36.035   7.273  10.558
57443W        W22428  41.232  24.562   1.336
57444W        W22429  31.120  34.574   2.411
57445W        W22430  34.891  28.208  13.385
57446W        W22431  33.398  43.310  11.702
57447W        W22432  27.124  10.344  10.211
57448W        W22433  27.996  37.925  11.996
57449W        W22434   6.478  16.022  13.963
57450W        W22435  33.721  44.793  11.214
57451W        W22436  35.505   9.554   5.524
57452W        W22437  17.530  29.589  13.417
57453W        W22438  28.146  28.548   0.776
57454W        W22439  43.951  26.477   4.657
57455W        W22440  26.175  32.898  12.356
57456W        W22441  35.010  13.324   0.388
57457W        W22442  21.859  34.961  11.130
57458W        W22443  24.926   5.244   2.758
57459W        W22444   9.981  32.101  10.936
57460W        W22445  30.549  41.873   1.786
57461W        W22446  36.551   5.777   2.314
57462W        W22447  16.307  35.278   2.866
57463W        W22448  34.608  42.488   2.327
57464W        W22449   6.873   7.836   1.591
57465W        W22450  35.786  37.087  12.038
57466W        W22451  39.310   7.243  14.737
57467W        W22452  40.100   2.388  14.435
57468W        W22453  38.554  36.160   2.242
57469W        W22454  38.518  13.384  10.945
57470W        W22455  18.971   9.991   0.225
57471W        W22456  34.884  23.149   3.409
57472W        W22457   7.863  19.040  12.982
57473W        W22458   8.150   6.827   0.347
57474W        W22459   0.758  30.411   0.849
57475W        W22460  40.099  27.756  11.112
57476W        W22461   1.021  35.032  11.532
57477W        W22462  32.992  34.068  14.562
57478W        W22463  42.234  12.271   3.277
57479W        W22464  35.369  10.659   1.388
57480W        W22465  25.984  34.159  10.578
57481W        W22466  12.318  12.086  10.723
57482W        W22467   6.532  34.498  13.754
57483W        W22468   8.131  34.318  12.592
57484W        W22469  21.166  41.958  14.720
57485W        W22470  15.348  17.560   2.157
57486W        W22471  18.460  25.093   1.704
57487W        W22472  10.877  40.451   0.027
57488W        W22473  29.606   8.436   3.665
57489W        W22474   3.489  18.608  13.384
57490W        W22475  24.257   3.311  11.182
57491W        W22476   5.360  13.857  11.275
57492W        W22477   5.848  41.037  12.439
57493W        W22478  11.620  11.594  12.605
57494W        W22479  33.955  32.328   3.306
57495W        W22480  35.546  16.084   3.947
57496W        W22481  19.229  34.391   0.884
57497W        W22482   3.836  41.702   4.789
57498W        W22483   1.842  13.575  12.973
57499W        W22484   5.274  11.192  14.246
57500W        W22485  35.751  20.337   0.822
57501W        W22486  41.177  34.555   1.040
57502W        W22487  24.045  12.088  10.928
57503W        W22488  11.553  34.367  12.570
57504W        W22489  17.097  15.013  12.649
57505W        W22490  40.270  18.823   2.693
57506W        W22491  28.032   9.877   9.995
57507W        W22492  11.256  28.774  13.845
57508W        W22493  18.951  13.260  14.292
57509W        W22494  35.737  22.201  11.678
57510W        W22495   1.736  42.773  11.143
57511W        W22496  25.141  20.628  11.604
57512W        W22497  14.127  38.546   4.960
57513W        W22498  39.618  12.663  14.785
57514W        W22499  12.569  16.326  11.153
57515W        W22500  27.403  32.874   0.206
57516W        W22501  42.039   1.727  11.972
57517W        W22502   0.239  12.243  12.060
57518W        W22503  20.085  27.127   5.654
57519W        W22504   0.882  15.067  14.883
57520W        W22505  20.774  15.041   0.844
57521W        W22506  38.367   3.748  14.431
57522W        W22507  43.640  28.156  10.217
57523W        W22508  35.383  34.448   0.025
57524W        W22509  22.731  12.414  10.700
57525W        W22510  44.747  38.835   3.135
57526W        W22511  16.342  22.048  13.943
57527W        W22512  27.313  12.884  14.957
57528W        W22513  41.371  18.331  10.707
57529W        W22514  26.207  18.903  13.471
57530W        W22515  37.841  32.030  12.391
57531W        W22516  41.678  37.924   4.726
57532W        W22517  12.746  35.499   3.593
57533W        W22518   7.095  30.052  14.882
57534W        W22519  18.105  18.056   0.354
57535W        W22520  27.926   3.035  13.063
57536W        W22521   6.637  14.477   1.069
57537W        W22522  18.738  11.935   2.787
57538W        W22523  44.765  29.444  14.782
57539W        W22524  38.356  34.181  11.177
57540W        W22525  40.868  32.109   3.234
57541W        W22526  29.444   6.833  13.961
57542W        W22527  13.301  25.067   4.307
57543W        W22528   7.728  12.331   3.421
57544W        W22529  14.352  34.075   0.016
57545W        W22530  44.310  28.587   9.753
57546W        W22531  28.865  20.666  11.234
57547W        W22532   8.803   1.098   2.179
57548W        W22533  37.325  37.357   5.064
57549W        W22534  42.967  31.116   4.535
57550W        W22535  41.802  30.882  14.544
57551W        W22536  32.137  19.776  14.323
57552W        W22537  38.586  14.318   1.795
57553W        W22538  10.278  27.075   4.378
57554W        W22539  44.820   1.063   0.142
57555W        W22540  18.783  12.179  11.905
57556W        W22541   6.291  39.119   0.830
57557W        W22542  18.793   1.254  10.456
57558W        W22543  24.690  29.105   4.201
57559W        W22544  43.668  22.684  13.753
57560W        W22545   2.388   7.352   1.431
57561W        W22546  30.255  15.864  13.349
57562W        W22547   4.330  40.256   2.744
57563W        W22548  41.395   4.358  11.995
57564W        W22549  32.734  23.582   1.939
57565W        W22550  12.073  39.526  13.999
57566W        W22551  37.014  39.950  13.357
57567W        W22552  29.246  38.869  12.962
57568W        W22553  15.911  28.218   0.199
57569W        W22554   7.421  17.869   1.755
57570W        W22555  14.717   1.436   2.073
57571W        W22556  26.092  15.819  12.926
57572W        W22557  34.473  13.503   9.617
57573W        W22558   4.741  10.990   4.471
57574W        W22559   1.681  40.426   0.230
57575W        W22560  37.809  13.340  12.061
57576W        W22561  10.358   2.759  10.814
57577W        W22562   4.829  40.832   0.295
57578W        W22563  38.029  21.979   3.567
57579W        W22564  12.618  15.864  13.805
57580W        W22565  17.289   5.786   1.749
57581W        W22566  21.841   8.369   3.376
57582W        W22567  11.241   9.384   1.637
57583W        W22568  34.556  34.941   2.977
57584W        W22569   7.357   6.839   4.524
57585W        W22570  15.098  29.101   1.917
57586W        W22571   5.220  37.889  10.462
57587W        W22572  11.686   7.601   1.514
57588W        W22573  18.134   8.155  13.193
57589W        W22574  29.044   3.342  12.052
57590W        W22575   6.760  44.403  10.677
57591W        W22576  43.147  34.452  13.354
57592W        W22577  25.191   6.864  10.729
57593W        W22578  37.689  18.845   0.889
57594W        W22579  30.898  27.165  11.849
57595W        W22580  41.915  23.978  10.737
57596W        W22581  15.614  41.479   0.496
57597W        W22582   2.872  17.580  14.566
57598W        W22583   5.971  42.325   1.625
57599W        W22584  16.260  11.344  13.585
57600W        W22585  42.514  42.878   3.861
57601W        W22586   2.553   8.096  12.176
57602W        W22587  38.379  39.068   1.241
57603W        W22588  35.908  30.768  10.711
57604W        W22589  26.083  43.016   5.621
57605W        W22590   6.460   6.006  12.534
57606W        W22591  13.276  43.255   2.339
57607W        W22592  44.754  21.660   1.584
57608W        W22593  42.957  13.170  14.192
57609W        W22594  20.136  27.165  12.347
57610W        W22595  21.768  23.160   2.515
57611W        W22596  44.912  35.579  11.088
57612W        W22597  39.985  40.276  12.971
57613W        W22598   0.946   5.407   4.158
57614W        W22599   3.994  34.069   1.074
57615W        W22600  30.282  26.920   3.250
57616W        W22601   3.908   8.432  12.306
57617W        W22602   7.788  15.113   2.165
57618W        W22603  27.362   4.797  14.332
57619W        W22604  14.897   2.951   4.134
57620W        W22605   3.970  32.560  10.684
57621W        W22606   2.300  38.111  12.566
57622W        W22607  10.178  34.888  11.668
57623W        W22608  32.672  11.905   0.335
57624W        W22609  27.902  25.536   3.164
57625W        W22610  16.142  36.525  12.432
57626W        W22611   2.198   1.520  12.026
57627W        W22612   7.442  21.632  12.447
57628W        W22613  17.897  35.143   1.819
57629W        W22614  29.543   5.946   4.036
57630W        W22615   3.726  27.504  13.373
57631W        W22616  12.205  29.925  12.468
57632W        W22617  26.075  28.192   3.566
57633W        W22618   1.813  25.041  10.643
57634W        W22619  10.253   0.832  14.813
57635W        W22620  41.543  26.396  10.260
57636W        W22621  20.781  29.536   1.798
57637W        W22622  32.813  32.377   2.686
57638W        W22623  38.009  36.275   5.125
57639W        W22624  31.432   0.804  13.989
57640W        W22625  32.953  25.064  10.954
57641W        W22626  26.022  16.059  11.098
57642W        W22627  28.963  35.112  14.444
57643W        W22628  17.632  44.774   4.264
57644W        W22629  25.137  29.697  14.560
57645W        W22630   1.476  36.021  11.068
57646W        W22631  12.166   1.962   4.604
57647W        W22632  43.590  28.161  13.426
57648W        W22633   9.909   3.274   4.192
57649W        W22634   9.840  25.717   4.179
57650W        W22635  16.665  33.480  11.072
57651W        W22636   3.021  20.601   0.333
57652W        W22637  12.133  37.290  14.901
57653W        W22638  30.684   8.047   2.675
57654W        W22639  14.666   3.393   0.347
57655W        W22640  31.690  41.447   0.811
57656W        W22641  23.154  44.969  13.316
57657W        W22642  34.050  43.451  12.871
57658W        W22643  13.654  21.534   0.385
57659W        W22644  27.910   8.424  12.540
57660W        W22645   9.692  13.951   4.584
57661W        W22646  26.528  10.318   3.622
57662W        W22647  25.014  25.201   3.611
57663W        W22648   9.598  17.146   1.393
57664W        W22649   9.118  38.558   2.200
57665W        W22650  15.152   8.349  11.091
57666W        W22651  35.439  33.123  10.730
57667W        W22652  44.988  21.110  11.242
57668W        W22653  43.422  17.713   2.251
57669W        W22654   5.452  18.345   1.436
57670W        W22655  20.494  31.353  12.588
57671W        W22656  28.019   4.756  10.224
57672W        W22657  41.316  26.891   2.660
57673W        W22658  10.377  40.463   3.037
57674W        W22659  27.531  31.981   1.441
57675W        W22660   0.877  19.425  11.979
57676W        W22661  20.271  36.026  13.275
57677W        W22662  34.623  44.771  11.719
57678W        W22663  30.560  40.730  14.053
57679W        W22664   5.724  20.518   4.742
57680W        W22665  27.707  27.155   1.222
57681W        W22666  32.323  41.806  10.885
57682W        W22667  29.647  40.013   3.652
57683W        W22668  42.481  10.583  13.846
57684W        W22669   6.203  10.860  12.076
57685W        W22670  29.976  11.378   0.270
57686W        W22671  29.035   7.457   4.496
57687W        W22672  11.622  15.070  13.559
57688W        W22673  43.954   1.966  11.756
57689W        W22674  32.567  32.653   0.519
57690W        W22675  28.154  28.592  11.059
57691W        W22676  40.279  11.219   3.646
57692W        W22677  28.223  24.957   1.917
57693W        W22678  27.228  10.212   1.808
57694W        W22679  21.582  40.763  12.001
57695W        W22680  33.718  40.840   4.535
57696W        W22681  44.214  40.555  13.431
57697W        W22682  36.690  21.037  11.053
57698W        W22683  43.200  17.461  13.083
57699W        W22684  19.626  38.488   3.723
57700W        W22685  13.239  41.677   0.370
57701W        W22686  25.035   8.701  11.688
57702W        W22687   9.180  40.602   4.215
57703W        W22688  41.260  19.340   2.175
57704W        W22689   0.924  33.971  12.017
57705W        W22690  36.370  10.910   0.799
57706W        W22691   3.783  31.918  13.470
57707W        W22692   8.357  37.344   1.740
57708W        W22693  30.966  37.621  13.532
57709W        W22694  40.666   7.730   4.554
57710W        W22695   6.808  42.225  14.397
57711W        W22696  22.328  41.020  12.891
57712W        W22697  25.204  21.777  13.481
57713W        W22698  41.428  32.994  14.499
57714W        W22699  40.284   9.267   0.816
57715W        W22700   5.227  23.106  12.833
57716W        W22701  38.053  40.985   3.796
57717W        W22702   4.215  28.397   2.860
57718W        W22703  21.575  35.142   4.958
57719W        W22704  38.960  39.794  11.146
57720W        W22705  21.990  35.613  13.467
57721W        W22706  26.649  42.359  11.676
57722W        W22707  29.232   0.865  11.173
57723W        W22708   6.666   5.353  12.161
57724W        W22709  15.563  30.955  10.698
57725W        W22710  28.616   3.509  13.498
57726W        W22711  35.916  10.119   4.685
57727W        W22712  33.882  14.177  10.475
57728W        W22713  15.587   8.776   2.464
57729W        W22714  32.438  25.151  11.556
57730W        W22715  32.200  20.043  11.147
57731W        W22716   9.720  26.432   4.702
57732W        W22717  23.977  25.480   4.626
57733W        W22718   9.205   1.246  14.043
57734W        W22719  12.846   3.460   1.817
57735W        W22720  13.743  38.539  10.690
57736W        W22721   2.000  36.552  10.683
57737W        W22722  28.663  23.721   4.113
57738W        W22723  30.881  41.368   2.743
57739W        W22724  11.950  35.335  10.009
57740W        W22725  12.082  18.086   3.670
57741W        W22726  22.258   3.777   0.737
57742W        W22727  21.656  22.480   1.861
57743W        W22728   1.848  20.549  13.439
57744W        W22729  37.084  10.620   1.790
57745W        W22730  15.704  29.876  12.074
57746W        W22731  13.886  28.508  12.910
57747W        W22732  24.050  39.429   2.797
57748W        W22733   6.870  14.397  13.053
57749W        W22734   0.307   1.379   3.239
57750W        W22735   6.109   1.918   1.846
57751W        W22736  29.155  12.835   3.612
57752W        W22737  44.444  23.174   5.079
57753W        W22738  29.420  32.779  14.367
57754W        W22739   2.569  31.817   0.157
57755W        W22740  13.148  34.580  13.934
57756W        W22741  36.979  35.154   0.427
57757W        W22742  13.533  16.825  13.765
57758W        W22743  33.678  40.369  10.762
57759W        W22744  29.090   2.811   5.026
57760W        W22745  18.510  27.606  11.034
57761W        W22746  17.112  18.769   3.898
57762W        W22747  12.438   9.947  14.810
57763W        W22748  36.445  19.025  13.473
57764W        W22749  16.552  35.472   3.669
57765W        W22750  15.492  27.040  12.797
57766W        W22751  34.875  26.744   4.376
57767W        W22752  17.166  36.574  11.470
57768W        W22753   4.520  35.545   3.801
57769W        W22754  38.831  34.341   2.409
57770W        W22755  38.752  38.320   3.907
57771W        W22756  42.014  44.220  12.886
57772W        W22757  29.418  19.502  14.445
57773W        W22758  19.761  35.701   4.976
57774W        W22759  19.373  28.099   5.297
57775W        W22760  32.420  18.479   2.286
57776W        W22761  14.324   5.201   1.183
57777W        W22762  24.510  18.604  13.478
57778W        W22763  26.596  28.652  12.902
57779W        W22764  39.241  19.722  12.447
57780W        W22765  22.740   3.081  12.050
57781W        W22766  23.363  18.322  10.952
57782W        W22767   2.848  23.147   1.878
57783W        W22768  17.671  17.176   4.470
57784W        W22769   5.619   0.954  12.152
57785W        W22770  17.370  16.728   4.520
57786W        W22771  27.446  32.499  14.412
57787W        W22772   2.992  22.223  12.479
57788W        W22773  21.488  25.740  11.207
57789W        W22774   4.060   3.244  14.222
57790W        W22775  16.340   2.324  12.318
57791W        W22776  25.548  39.548  11.742
57792W        W22777  16.253  42.977  13.496
57793W        W22778  42.906   6.795  12.327
57794W        W22779   0.485   8.281   0.229
57795W        W22780  26.068  38.845   3.068
57796W        W22781  15.107   3.432  10.746
57797W        W22782  41.468  20.262   1.515
57798W        W22783  43.477  16.265   4.083
57799W        W22784  37.000  43.944   3.591
57800W        W22785  40.917   8.247   4.341
57801W        W22786  10.752  24.210   3.867
57802W        W22787  36.519   7.611  11.193
57803W        W22788  44.550  26.805   5.404
57804W        W22789  18.012  14.253   3.306
57805W        W22790   3.238  10.317   4.333
57806W        W22791  44.442  18.503  10.684
57807W        W22792   2.249  22.576  13.340
57808W        W22793  17.477  36.342   4.192
57809W        W22794  24.053  32.438  13.225
57810W        W22795  16.315  23.525   3.590
57811W        W22796  28.326  36.381   3.107
57812W        W22797  14.761  10.247  11.473
57813W        W22798  32.398  35.325  10.947
57814W        W22799  14.517  38.738   3.779
57815W        W22800  33.369  10.395  12.022
57816W        W22801  10.878   7.132   0.484
57817W        W22802   8.927  15.555  12.011
57818W        W22803  33.922   8.246  13.899
57819W        W22804  12.559  18.313  12.085
57820W        W22805  36.020  22.812   3.697
57821W        W22806  16.209  18.799  14.310
57822W        W22807  36.156   5.625  11.206
57823W        W22808  26.701  14.736   4.200
57824W        W22809  40.349  36.422  12.620
57825W        W22810  39.810   3.610  10.676
57826W        W22811  24.029  14.081  13.831
57827W        W22812  17.058  19.524  14.884
57828W        W22813  41.486  11.166  14.882
57829W        W22814  31.969  26.323  10.319
57830W        W22815  24.272  24.174  12.445
57831W        W22816  29.125   8.910  14.322
57832W        W22817   4.185  18.072  12.650
57833W        W22818  40.993   7.841   0.917
57834W        W22819  30.701  28.986   3.722
57835W        W22820   8.242  36.928   3.697
57836W        W22821  34.396  10.163   1.048
57837W        W22822  23.010  13.328  11.105
57838W        W22823   6.963   7.130  12.000
57839W        W22824  21.308  16.211  10.543
57840W        W22825  36.901  17.276   0.417
57841W        W22826  42.323  42.869  13.034
57842W        W22827  30.380  17.025   1.264
57843W        W22828  43.222  24.381  12.041
57844W        W22829  24.014  24.862   2.856
57845W        W22830   5.657  35.432  13.063
57846W        W22831  17.676  39.941  14.442
57847W        W22832  21.200  15.984   0.728
57848W        W22833  18.562  31.609  14.631
57849W        W22834   4.213   4.084   1.876
57850W        W22835  15.014   1.857  10.766
57851W        W22836  38.858  13.855   9.654
57852W        W22837  15.096  43.533  11.947
57853W        W22838  11.719  27.875  10.773
57854W        W22839  17.321   4.754   3.996
57855W        W22840  28.027   8.450   4.247
57856W        W22841  26.147  37.813  12.864
57857W        W22842   1.095  21.582   3.229
57858W        W22843  37.076  40.780  13.971
57859W        W22844   0.363  16.926   4.638
57860W        W22845  33.219  20.100  10.784
57861W        W22846  43.728   1.881   1.256
57862W        W22847  37.481  42.842   2.610
57863W        W22848   7.270  25.795  11.985
57864W        W22849   7.890  42.041  13.509
57865W        W22850  17.111  43.004  10.573
57866W        W22851  37.560  11.787   2.812
57867W        W22852   7.675  14.660  14.834
57868W        W22853  26.147   9.729  11.996
57869W        W22854  29.561  12.067   3.905
57870W        W22855  36.719   2.804  10.599
57871W        W22856   3.331  13.619   0.926
57872W        W22857  24.399   5.079   4.929
57873W        W22858  34.151  30.542   1.336
57874W        W22859   5.924   7.777  12.970
57875W        W22860  37.032  37.933   2.885
57876W        W22861  24.339  13.246  10.553
57877W        W22862  14.169   8.732  13.013
57878W        W22863  22.279   2.003   0.266
57879W        W22864  24.339  44.021   2.315
57880W        W22865  24.467  32.021   4.192
57881W        W22866  30.941  38.289   2.523
57882W        W22867  20.973  16.077  14.425
57883W        W22868  37.822   2.406  13.978
57884W        W22869  18.069  16.493  12.731
57885W        W22870  44.748   4.625  13.952
57886W        W22871  13.215   4.802   4.481
57887W        W22872  30.073   0.635  14.717
57888W        W22873  25.066  36.809  11.225
57889W        W22874  42.926  37.450   1.782
57890W        W22875  22.734  23.566   3.839
57891W        W22876  11.880  14.650  13.537
57892W        W22877   9.423  26.665  13.344
57893W        W22878  42.011  15.015  11.166
57894W        W22879  27.444  38.462  14.049
57895W        W22880  41.852  26.903   2.627
57896W        W22881   4.362  20.326  13.088
57897W        W22882  26.506   9.398   3.717
57898W        W22883  31.763  33.885  12.183
57899W        W22884   5.707  41.035   0.045
57900W        W22885  13.357  16.590  12.296
57901W        W22886  39.224  24.181  10.709
57902W        W22887  25.644  21.249   1.425
57903W        W22888  43.344   7.102   4.467
57904W        W22889  10.772  42.908  12.947
57905W        W22890  11.090  18.042   2.150
57906W        W22891  24.435  21.730  13.894
57907W        W22892  17.119  31.089   4.243
57908W        W22893  23.481   3.391   0.168
57909W        W22894  14.650  40.201  11.191
57910W        W22895  11.426   9.545   4.549
57911W        W22896  40.519   7.723   2.358
57912W        W22897   8.582  24.352   3.142
57913W        W22898  38.045  21.230  13.926
57914W        W22899   0.911   0.006   2.317
57915W        W22900  15.094  12.702   2.283
57916W        W22901  18.635   1.505   2.361
57917W        W22902  23.032  25.650   0.773
57918W        W22903  31.689  18.078   3.024
57919W        W22904  32.323  28.528   0.822
57920W        W22905   8.672  11.825  10.431
57921W        W22906  31.874  22.835   2.590
57922W        W22907  14.684  15.811  11.958
57923W        W22908  15.834  19.368  10.312
57924W        W22909  42.513  36.949   1.781
57925W        W22910  31.655  15.267  12.392
57926W        W22911  41.835  28.410  14.018
57927W        W22912  42.938  16.052   3.597
57928W        W22913   7.712  12.761  10.685
57929W        W22914  18.276  41.552   0.161
57930W        W22915  40.823   7.376  10.729
57931W        W22916   1.385   5.873   1.167
57932W        W22917  33.404  32.441   1.744
57933W        W22918  19.194  10.647  12.931
57934W        W22919   0.971  14.108   3.204
57935W        W22920  15.629   0.572   2.072
57936W        W22921  20.106  13.553   4.918
57937W        W22922  37.366   8.300  14.773
57938W        W22923   2.226   9.136   1.681
57939W        W22924  38.035  44.404  12.110
57940W        W22925   2.257  32.875  13.979
57941W        W22926  25.238  33.161  13.980
57942W        W22927  36.939  32.125  12.029
57943W        W22928   0.683  44.223  11.231
57944W        W22929  21.145  18.773   1.652
57945W        W22930  21.543  29.506   4.599
57946W        W22931  38.248  37.981  12.974
57947W        W22932  43.446  26.990  12.474
57948W        W22933  13.299   4.478  11.583
57949W        W22934  42.334   7.416   1.785
57950W        W22935  35.271  34.002   4.301
57951W        W22936  30.138  15.027  11.223
57952W        W22937  18.462   1.388  13.749
57953W        W22938  36.062  23.884   0.910
57954W        W22939  20.819  25.132   0.918
57955W        W22940   5.009  35.608   3.958
57956W        W22941  38.675  31.170   4.958
57957W        W22942  40.429   3.645  12.507
57958W        W22943  20.566  21.032   1.878
57959W        W22944  36.973  25.083  14.533
57960W        W22945  14.002  10.060  11.000
57961W        W22946  43.946  33.002  12.946
57962W        W22947  17.200  12.716   2.634
57963W        W22948  37.474  17.283   0.895
57964W        W22949   2.296  12.376   5.057
57965W        W22950   0.795  16.228  11.232
57966W        W22951  13.506  24.548   4.548
57967W        W22952  15.707  32.118   1.308
57968W        W22953  38.630  32.146   2.392
57969W        W22954   5.308  38.669  12.624
57970W        W22955   7.008  36.118  14.523
57971W        W22956  10.269  15.635  10.655
57972W        W22957  27.573   9.207  10.626
57973W        W22958  44.436   4.412   1.906
57974W        W22959  10.544   7.443  14.904
57975W        W22960  38.912  23.180  11.061
57976W        W22961  15.526   9.632   2.306
57977W        W22962  42.451  17.889   2.702
57978W        W22963  16.387   1.163   1.242
57979W        W22964  15.976  37.286  13.255
57980W        W22965  31.088  42.237   2.726
57981W        W22966   2.848  33.816   2.220
57982W        W22967  21.251  31.376   3.352
57983W        W22968  32.886  12.202   0.748
57984W        W22969  44.212   8.243   2.416
57985W        W22970  35.560  24.770  10.572
57986W        W22971  27.109  12.911   3.613
57987W        W22972   1.673  20.612  14.287
57988W        W22973  18.596  12.351  14.034
57989W        W22974   1.004  34.342  13.876
57990W        W22975  10.779  28.947  11.964
57991W        W22976  23.350  15.893  12.990
57992W        W22977  17.719  44.405   1.544
57993W        W22978  10.608  33.351   3.750
57994W        W22979   6.229   4.596   3.729
57995W        W22980  21.137  13.781   1.274
57996W        W22981   2.789  27.680   0.217
57997W        W22982   1.184  34.937   2.586
57998W        W22983  10.461  33.116   4.216
57999W        W22984   9.406   7.541   1.818
58000W        W22985   9.070  15.817  11.577
58001W        W22986   5.197  44.342   3.694
58002W        W22987  38.971  39.094   2.306
58003W        W22988  39.000  15.401  14.911
58004W        W22989   6.620   6.713  11.876
58005W        W22990  34.708  42.519   1.703
58006W        W22991  34.739  15.921  12.920
58007W        W22992   0.793  37.778  12.938
58008W        W22993  22.917  38.770  13.872
58009W        W22994  36.898  35.997  14.141
58010W        W22995   6.783  16.997  11.453
58011W        W22996  31.634  25.710   4.774
58012W        W22997   7.191  36.625  14.688
58013W        W22998  31.089  21.693  12.394
58014W        W22999  14.813  10.301   4.104
58015W        W23000  33.289  30.422   0.946
58016W        W23001  42.303  11.418   3.401
58017W        W23002   6.188  29.984   0.690
58018W        W23003  44.348  31.625  13.581
58019W        W23004   7.375  11.244  12.953
58020W        W23005  22.291  38.288   2.787
58021W        W23006  40.892  43.853   0.451
58022W        W23007  21.547  44.015   1.492
58023W        W23008  42.252   6.269   0.771
58024W        W23009  36.405   1.791   3.182
58025W        W23010  44.260  44.721  11.603
58026W        W23011  42.513  43.440  13.942
58027W        W23012  40.326   2.347   1.238
58028W        W23013  25.975  39.444   0.325
58029W        W23014  21.147  15.832   4.381
58030W        W23015  33.819   1.776  14.526
58031W        W23016  39.300  15.048  14.073
58032W        W23017   4.207  37.100  13.237
58033W        W23018   4.081   0.055   3.384
58034W        W23019  20.146  22.701   3.218
58035W        W23020  19.089  15.125  13.553
58036W        W23021  10.449  38.555   2.236
58037W        W23022   3.336   2.244   2.695
58038W        W23023  34.299   5.809  14.444
58039W        W23024  26.933  21.038   3.687
58040W        W23025  23.285   3.835  10.610
58041W        W23026  43.906  36.522  11.323
58042W        W23027  41.384  44.806  12.505
58043W        W23028  11.793  16.107  14.896
58044W        W23029   9.774  41.477   1.141
58045W        W23030  29.903  20.969   4.215
58046W        W23031  41.806   1.973  13.477
58047W        W23032   3.952  36.030  14.883
58048W        W23033  40.528  20.348  11.447
58049W        W23034   0.423  36.883   1.510
58050W        W23035  17.235  19.854  13.260
58051W        W23036   3.226  23.912   4.996
58052W        W23037  16.203  43.262   0.292
58053W        W23038  34.073  10.374   2.828
58054W        W23039   2.825  42.187   2.311
58055W        W23040   5.511  12.694  11.848
58056W        W23041  11.682  35.360  11.182
58057W        W23042   0.249  17.612  12.954
58058W        W23043  23.982  34.030  14.924
58059W        W23044  20.304  25.500   1.471
58060W        W23045  28.518  18.432   1.349
58061W        W23046  33.466  21.750   2.660
58062W        W23047  36.971  31.571   0.723
58063W        W23048  25.206  42.095  13.637
58064W        W23049  15.637   7.794   1.476
58065W        W23050   7.261  13.368  13.365
58066W        W23051  43.816   1.504   4.791
58067W        W23052   8.626  12.810   1.759
58068W        W23053  41.172   6.870   3.807
58069W        W23054  33.877  44.757   1.753
58070W        W23055  19.285  19.444  12.673
58071W        W23056  16.885   6.001  13.372
58072W        W23057  28.029  31.365   3.193
58073W        W23058   1.171   7.176  12.855
58074W        W23059   7.091  41.340   0.565
58075W        W23060  19.330  44.792   1.553
58076W        W23061  24.627   1.996  12.922
58077W        W23062  14.297  13.705   5.058
58078W        W23063   1.678  30.026  12.952
58079W        W23064  38.366  41.816   1.264
58080W        W23065  10.147  35.380  12.511
58081W        W23066   9.741  37.130   0.776
58082W        W23067  22.381  40.661  12.456
58083W        W23068  14.892  21.520  14.348
58084W        W23069  16.117  30.505   1.440
58085W        W23070  26.221  13.150   3.811
58086W        W23071  21.009   5.797  14.554
58087W        W23072  10.405  23.904   1.151
58088W        W23073  14.652  30.650   0.279
58089W        W23074  14.674  10.908  14.830
58090W        W23075  29.963  31.189   5.471
58091W        W23076  21.261   4.329  10.075
58092W        W23077  30.459  13.267   3.350
58093W        W23078   0.719  29.175   1.746
58094W        W23079  15.115  19.715  13.226
58095W        W23080  40.766   8.307  11.065
58096W        W23081  27.075   7.489   1.392
58097W        W23082  37.986  13.027   2.389
58098W        W23083   4.049  14.664  14.344
58099W        W23084   7.154  41.547   1.452
58100W        W23085   1.259   3.010   4.883
58101W        W23086  24.877  44.783   3.739
58102W        W23087  34.910  25.930  14.869
58103W        W23088  19.968  36.653   0.871
58104W        W23089  23.839  24.696  14.041
58105W        W23090  23.044  22.611   0.234
58106W        W23091  37.104   6.893  13.373
58107W        W23092   2.891   8.903  11.828
58108W        W23093   0.949   8.340   3.716
58109W        W23094  25.965   4.264   4.221
58110W        W23095   7.159  11.635   4.236
58111W        W23096  44.946  16.703  13.052
58112W        W23097  21.971  33.105   2.829
58113W        W23098  16.295  30.638  11.049
58114W        W23099  34.109  43.457   4.770
58115W        W23100  19.167  23.105   2.349
58116W        W23101  16.239  40.575   3.652
58117W        W23102  20.323  42.241   4.667
58118W        W23103   1.202   9.934   0.818
58119W        W23104  18.284   2.501   4.619
58120W        W23105   6.615  28.927  13.902
58121W        W23106   1.243   3.447  10.643
58122W        W23107  38.503  38.140  13.426
58123W        W23108  13.722   9.653   2.691
58124W        W23109  41.890   7.316   0.772
58125W        W23110  27.097   8.986   1.328
58126W        W23111  42.447  41.912  12.812
58127W        W23112  17.543   1.690  14.474
58128W        W23113  28.703   2.194   2.425
58129W        W23114   4.263  14.068   0.886
58130W        W23115   7.296  13.575  14.541
58131W        W23116  12.841  11.758  12.942
58132W        W23117  26.684  44.207   0.029
58133W        W23118  36.908  40.512   4.576
58134W        W23119   0.345  25.063  10.993
58135W        W23120  19.488  12.143   1.717
58136W        W23121  10.143  34.352  13.949
58137W        W23122   0.839  27.336  11.270
58138W        W23123   0.938   6.983   1.867
58139W        W23124  41.809  33.787   0.897
58140W        W23125  10.600  32.031   0.256
58141W        W23126  42.984  39.572   2.725
58142W        W23127  35.947   5.211  14.836
58143W        W23128  24.057   0.915   4.504
58144W        W23129   3.977   1.903  11.211
58145W        W23130  37.347  32.008  10.691
58146W        W23131   6.215  17.740  13.382
58147W        W23132  37.387   1.917   1.247
58148W        W23133  34.882  38.086  14.729
58149W        W23134   2.019   3.295   4.314
58150W        W23135  17.776  44.793   3.366
58151W        W23136  32.037   5.105  12.354
58152W        W23137  30.990  43.323  11.107
58153W        W23138  30.685  43.331   4.868
58154W        W23139  20.251  42.253  12.051
58155W        W23140  16.722  29.751   4.675
58156W        W23141   7.350  19.961   2.171
58157W        W23142   2.879  38.822   2.039
58158W        W23143   9.771  35.078  10.678
58159W        W23144   0.788   8.837  10.249
58160W        W23145  43.086  22.151  10.634
58161W        W23146  22.856  29.711  10.150
58162W        W23147  22.485   6.014  14.115
58163W        W23148  23.002  14.378   2.311
58164W        W23149  34.398  27.983  11.127
58165W        W23150  32.985   6.341  12.462
58166W        W23151   0.325  28.145  11.064
58167W        W23152  23.035  34.909   3.254
58168W        W23153   3.834  19.082   1.288
58169W        W23154  14.392  42.832  10.225
58170W        W23155  31.013  15.265   1.054
58171W        W23156  17.336  21.744   3.202
58172W        W23157  25.258  12.843  14.881
58173W        W23158  32.116  21.939   0.555
58174W        W23159   2.018  11.685   1.417
58175W        W23160  10.728   7.809   2.611
58176W        W23161  42.391  44.757  12.171
58177W        W23162   9.335  31.990  13.721
58178W        W23163  22.457   4.981  11.202
58179W        W23164   6.700  18.297  10.742
58180W        W23165  18.509  42.987   2.830
58181W        W23166   1.172   5.620  10.377
58182W        W23167  42.077  22.151  10.672
58183W        W23168  41.872  17.302   3.580
58184W        W23169  37.386  26.015   0.569
58185W        W23170  41.086  35.596   3.606
58186W        W23171  29.674  36.107   4.678
58187W        W23172  14.322  38.968   4.644
58188W        W23173  27.586  21.161  12.515
58189W        W23174  18.318   4.639   3.598
58190W        W23175  26.947  39.567   0.430
58191W        W23176  19.370   2.739   1.917
58192W        W23177  16.814  31.717  10.993
58193W        W23178  38.426  10.858  11.371
58194W        W23179  36.157   6.013   3.348
58195W        W23180  19.097  23.176  14.435
58196W        W23181  26.415  16.246  14.480
58197W        W23182  12.083   3.714   0.340
58198W        W23183  12.380  31.630  12.767
58199W        W23184   4.219   4.947  11.514
58200W        W23185  23.450  14.744  10.735
58201W        W23186   6.166  22.666   1.816
58202W        W23187  18.830  20.145   0.842
58203W        W23188  21.559  33.735   4.619
58204W        W23189  12.061  26.454   2.399
58205W        W23190  21.274  42.501   4.240
58206W        W23191  33.808  23.686  13.851
58207W        W23192  44.006   7.101  13.710
58208W        W23193   1.817  27.986   1.087
58209W        W23194   0.052  14.182  10.651
58210W        W23195  10.965   8.925   1.721
58211W        W23196  20.579  34.988   4.967
58212W        W23197  16.720  21.678   3.266
58213W        W23198  15.435   6.639   2.478
58214W        W23199  39.821   8.095   0.288
58215W        W23200  15.516  15.236  14.654
58216W        W23201  11.779   9.405   1.630
58217W        W23202  16.838   6.698   5.431
58218W        W23203  43.483  34.132  12.051
58219W        W23204  23.164  17.879  11.094
58220W        W23205  12.656   4.028  13.325
58221W        W23206  32.999  31.657  10.443
58222W        W23207  16.887  36.854  11.924
58223W        W23208  23.270   4.250  14.592
58224W        W23209  35.415  44.442  12.306
58225W        W23210  42.097  22.585   3.312
58226W        W23211  24.531  33.533  13.362
58227W        W23212  37.325  15.252  12.491
58228W        W23213  12.628  42.543   3.570
58229W        W23214  23.584  41.912   4.878
58230W        W23215  20.915   7.160  10.742
58231W        W23216  16.084  23.461  14.316
58232W        W23217  17.331   8.120  12.940
58233W        W23218   0.760  27.023   3.786
58234W        W23219  13.272  33.924   2.075
58235W        W23220  41.470  22.677   1.252
58236W        W23221   3.755   6.384   0.910
58237W        W23222  15.277  24.506  14.917
58238W        W23223  28.799  11.410  12.308
58239W        W23224  14.870  38.320  13.184
58240W        W23225  15.373  15.145   1.281
58241W        W23226  31.626  32.212  14.078
58242W        W23227  11.200  26.868  11.480
58243W        W23228  25.192  14.250   0.264
58244W        W23229  38.137  29.566  12.025
58245W        W23230  44.984  36.677  10.037
58246W        W23231  11.224   1.469  10.980
58247W        W23232  44.800  34.010   4.399
58248W        W23233  25.664   4.981  13.598
58249W        W23234  27.979  14.265   1.339
58250W        W23235   4.227   2.235   2.794
58251W        W23236   9.691  22.291  13.051
58252W        W23237   7.851  21.687  13.829
58253W        W23238  37.389   6.848  11.598
58254W        W23239   5.688  20.632   2.421
58255W        W23240  13.732  24.025  13.366
58256W        W23241  24.621   5.866  10.601
58257W        W23242  44.278  25.614   0.657
58258W        W23243  43.241  33.465   0.730
58259W        W23244  10.121  28.663   2.279
58260W        W23245  21.096   9.359   3.526
58261W        W23246  42.114  26.537   2.919
58262W        W23247  34.186  14.441   2.130
58263W        W23248  23.457  32.183  10.203
58264W        W23249  33.444  40.396   4.604
58265W        W23250  39.346  42.708  14.213
58266W        W23251  24.066  43.980   0.542
58267W        W23252  36.101   0.466   1.505
58268W        W23253  10.816  41.296  13.950
58269W        W23254  35.821  27.513   1.751
58270W        W23255  10.203  32.653   4.537
58271W        W23256  34.437   1.045  11.618
58272W        W23257  34.042  22.001   3.205
58273W        W23258  33.332   3.331   0.836
58274W        W23259  12.856  26.165   3.602
58275W        W23260  23.140   4.801  11.933
58276W        W23261   8.158  42.864   0.908
58277W        W23262  30.508  37.353   1.570
58278W        W23263  29.946  27.347  14.324
58279W        W23264  16.433  21.135   1.349
58280W        W23265  11.280  28.432  11.514
58281W        W23266   2.955  28.754  12.856
58282W        W23267  15.413   0.307  14.427
58283W        W23268  16.001  23.616  11.921
58284W        W23269  40.532  30.592  12.124
58285W        W23270  31.615   7.618  12.201
58286W        W23271   7.265  36.898  12.524
58287W        W23272  42.395  43.247  11.210
58288W        W23273  35.500   4.513   4.803
58289W        W23274   2.260   5.277   2.860
58290W        W23275  38.679   8.824   2.697
58291W        W23276  31.565   1.143  10.706
58292W        W23277  11.821  43.001   0.301
58293W        W23278  34.725  31.275   1.690
58294W        W23279  22.195  34.218  11.961
58295W        W23280   3.660  24.008  14.856
58296W        W23281  38.634  38.955   2.692
58297W        W23282  15.408  16.065  12.524
58298W        W23283  34.582   5.459  11.501
58299W        W23284  25.636  17.141  13.972
58300W        W23285  24.645   6.330  12.835
58301W        W23286  25.312  38.311  12.959
58302W        W23287  36.493   7.451   4.559
58303W        W23288  17.826  13.579   0.046
58304W        W23289  35.081  36.000  10.800
58305W        W23290   6.422  35.524  13.857
58306W        W23291  18.864   1.825   4.483
58307W        W23292  34.303  25.020  14.747
58308W        W23293  36.991  38.577  13.142
58309W        W23294  10.231  14.252   4.602
58310W        W23295  18.232  41.067   4.444
58311W        W23296  22.751  14.611  11.116
58312W        W23297  16.733   7.740  14.381
58313W        W23298  12.678   6.033   0.631
58314W        W23299  23.368   7.632  13.956
58315W        W23300   1.504  14.569  12.528
58316W        W23301  29.516  29.974   1.798
58317W        W23302  35.903  21.542   4.347
58318W        W23303  27.699  24.680   3.272
58319W        W23304  36.826  37.126  12.798
58320W        W23305  35.515  38.497   0.387
58321W        W23306   7.646  36.896   2.277
58322W        W23307  39.377  25.691   1.869
58323W        W23308  39.597  19.364   4.542
58324W        W23309  12.137  35.299   1.339
58325W        W23310  36.087   7.479   1.137
58326W        W23311  12.913  34.017   1.702
58327W        W23312  37.908   1.705   4.156
58328W        W23313  41.000   8.700   1.789
58329W        W23314  43.036  30.665  11.086
58330W        W23315  34.963   6.182  14.058
58331W        W23316  24.329  34.330   1.839
58332W        W23317  20.993  16.655   0.256
58333W        W23318  36.130  34.957  10.520
58334W        W23319  13.222  15.608  11.871
58335W        W23320   7.647   8.279  14.292
58336W        W23321  22.190  11.041   1.269
58337W        W23322  40.451  24.164  13.482
58338W        W23323  21.502  24.621   4.401
58339W        W23324  25.399   6.724  14.316
58340W        W23325   0.696  39.512  13.428
58341W        W23326  29.117  15.524  13.844
58342W        W23327   9.190   8.413   2.154
58343W        W23328  22.251   9.459  13.083
58344W        W23329  37.031  25.483   2.179
58345W        W23330   3.832  22.773  13.775
58346W        W23331  33.432  20.314  13.426
58347W        W23332   5.898  31.853   3.860
58348W        W23333  10.379   0.776  11.914
58349W        W23334  31.549  37.753  14.458
58350W        W23335  21.095  37.705   3.301
58351W        W23336  14.088  21.573   1.370
58352W        W23337   0.172  40.881   0.763
58353W        W23338  17.521  44.575  14.988
58354W        W23339  23.667   2.771  13.441
58355W        W23340  36.496  32.121  11.461
58356W        W23341  20.264  33.747   2.699
58357W        W23342  39.933   6.514   3.764
58358W        W23343   3.704  26.868   0.319
58359W        W23344  20.733   9.205   3.855
58360W        W23345  36.575  30.112   3.725
58361W        W23346  14.790  35.924   4.597
58362W        W23347   8.640  13.686  12.000
58363W        W23348  26.605  30.438   2.394
58364W        W23349   0.487  33.537  13.788
58365W        W23350  15.678  14.250   4.670
58366W        W23351  33.505  10.823   2.312
58367W        W23352  24.675  28.171  12.967
58368W        W23353  10.741  44.379  10.553
58369W        W23354   7.158  33.129  14.053
58370W        W23355  38.505  17.713  11.679
58371W        W23356   4.760  24.051   2.364
58372W        W23357  21.095  32.391   0.912
58373W        W23358   0.977  33.342   2.386
58374W        W23359  17.179   8.518   1.365
58375W        W23360  43.587  35.015  14.846
58376W        W23361  22.185  35.778  13.924
58377W        W23362  27.914  12.353  14.326
58378W        W23363   2.896  40.296  11.834
58379W        W23364  38.352  36.999   2.491
58380W        W23365   2.398  16.148   1.530
58381W        W23366  24.249  32.977   2.816
58382W        W23367   6.662   6.220  12.057
58383W        W23368  40.119  31.597  12.973
58384W        W23369  27.085  35.058   1.273
58385W        W23370  25.556  18.403  10.817
58386W        W23371  32.168  12.359   1.971
58387W        W23372  41.032  28.625  11.493
58388W        W23373  23.934  31.034   1.663
58389W        W23374  26.154  19.586  10.461
58390W        W23375  31.936  28.884  14.401
58391W        W23376   8.756  43.543   2.185
58392W        W23377  33.701  15.601  10.747
58393W        W23378  13.307   5.149  12.161
58394W        W23379  12.677  42.250  11.616
58395W        W23380  24.625   0.751   5.058
58396W        W23381  31.543   8.594  10.646
58397W        W23382  42.562  18.970  12.894
58398W        W23383  41.832  18.229  12.926
58399W        W23384  15.744  33.427   4.636
58400W        W23385  33.097   2.537  14.572
58401W        W23386  43.032  34.341  10.363
58402W        W23387  29.659   2.822   2.923
58403W        W23388   8.940  16.678  12.993
58404W        W23389   1.928  38.360   1.959
58405W        W23390  11.268  40.324   4.664
58406W        W23391  29.101  32.911  14.797
58407W        W23392  31.115  31.599   3.314
58408W        W23393   5.900  11.905  12.218
58409W        W23394  15.679  13.942  14.304
58410W        W23395   2.351   7.461   4.609
58411W        W23396  16.239   9.953   2.800
58412W        W23397  18.540   6.542   2.425
58413W        W23398   4.005  40.752  11.132
58414W        W23399  28.697  22.607   0.744
58415W        W23400  23.554  35.181  14.993
58416W        W23401  30.124  18.052   3.301
58417W        W23402  32.345  34.469  13.064
58418W        W23403   3.880  26.468   3.786
58419W        W23404  32.530   8.906  13.160
58420W        W23405  38.272  24.787  11.180
58421W        W23406  44.435  36.847   3.757
58422W        W23407  13.590   4.893   2.737
58423W        W23408  10.043  34.522  13.486
58424W        W23409   9.210  26.570  12.873
58425W        W23410  39.527   5.348  10.275
58426W        W23411  31.688  41.692   3.889
58427W        W23412   0.124   2.229  11.086
58428W        W23413  23.494  37.933  14.009
58429W        W23414  28.523  21.061  14.007
58430W        W23415  23.071   6.181  10.961
58431W        W23416  42.482  33.620   2.271
58432W        W23417   6.161   4.688  12.916
58433W        W23418  12.864  38.599  11.123
58434W        W23419  32.051  17.370  10.781
58435W        W23420  16.569  29.192  13.093
58436W        W23421  43.967  35.466   2.462
58437W        W23422  27.649  25.439   3.608
58438W        W23423  14.283  21.267  11.399
58439W        W23424   4.448  11.792  10.676
58440W        W23425  32.451   4.934   1.920
58441W        W23426   8.620   1.058  14.243
58442W        W23427  33.075   5.155   0.773
58443W        W23428  30.527  30.355  12.927
58444W        W23429  33.045  37.030   0.248
58445W        W23430  40.442  12.586  10.589
58446W        W23431   2.275   4.353  11.652
58447W        W23432  27.539  41.288  12.953
58448W        W23433  25.546  32.470   0.304
58449W        W23434  43.336   3.670   2.034
58450W        W23435  37.114  18.991  13.123
58451W        W23436   7.811   1.854  13.148
58452W        W23437  33.243  18.937  12.923
58453W        W23438  38.357   2.047   3.959
58454W        W23439  21.996  25.464   3.711
58455W        W23440  39.333  33.576   2.399
58456W        W23441  11.192   4.103  11.364
58457W        W23442  40.128  38.341  14.460
58458W        W23443  29.693  38.242  11.154
58459W        W23444  23.715  20.699  12.457
58460W        W23445   3.233  18.236  11.590
58461W        W23446   8.889  11.851  12.096
58462W        W23447  18.181  39.279   2.169
58463W        W23448  32.622  27.624   0.901
58464W        W23449  27.110  21.996   1.612
58465W        W23450  41.018  19.553   1.692
58466W        W23451  19.331  14.780  12.216
58467W        W23452  40.789   3.478  14.070
58468W        W23453  39.424  41.626   4.339
58469W        W23454   7.387  23.814  11.815
58470W        W23455  44.494  27.119   1.841
58471W        W23456  24.111  11.742   2.262
58472W        W23457  21.583  36.411   4.628
58473W        W23458  43.838  29.954  13.033
58474W        W23459  23.926  14.042  14.763
58475W        W23460  13.736  28.937  10.742
58476W        W23461  19.441  34.930  10.853
58477W        W23462  19.372   6.035  12.718
58478W        W23463  20.589  21.997  13.171
58479W        W23464  17.656  36.473  13.544
58480W        W23465  14.780  23.291   5.177
58481W        W23466   6.269  12.135   1.589
58482W        W23467  16.092   8.342   3.216
58483W        W23468   5.203  42.475   4.848
58484W        W23469  31.967  13.265   4.260
58485W        W23470   6.393  15.146   5.082
58486W        W23471  41.486  12.892   1.743
58487W        W23472   9.745  44.716   1.470
58488W        W23473  11.776  29.101   1.342
58489W        W23474   6.822  32.615   2.609
58490W        W23475  35.985   9.877  12.072
58491W        W23476  35.621  38.420  14.308
58492W        W23477   7.899   4.709  14.816
58493W        W23478  32.333  28.517  10.438
58494W        W23479  29.817  13.031   5.066
58495W        W23480  26.062  18.314  12.824
58496W        W23481   0.462  16.022  11.965
58497W        W23482  35.399  15.651  13.500
58498W        W23483  36.542  36.269  13.863
58499W        W23484   0.311  36.064   0.489
58500W        W23485  13.254  19.787   1.441
58501W        W23486  10.541  34.011   4.763
58502W        W23487  15.314  36.571   0.897
58503W        W23488  35.750  44.108   4.209
58504W        W23489  10.917   1.669   4.534
58505W        W23490  18.757  17.077  13.579
58506W        W23491  17.360  28.270   3.746
58507W        W23492  35.328  37.620  10.547
58508W        W23493   7.364  28.873  12.171
58509W        W23494   1.994   2.452   4.994
58510W        W23495  21.449  37.844   4.047
58511W        W23496  19.657  13.015   1.783
58512W        W23497   2.142   9.713   2.840
58513W        W23498  43.023   8.339  14.428
58514W        W23499  32.385  24.598  13.037
58515W        W23500   0.959  23.493  14.412
58516W        W23501  33.969  41.556   0.002
58517W        W23502  33.976   4.921   4.222
58518W        W23503  38.109  37.327  11.429
58519W        W23504  20.552  32.690  11.181
58520W        W23505  22.750  20.559  12.100
58521W        W23506  44.506  15.132   5.060
58522W        W23507  40.479  10.606  10.830
58523W        W23508  40.528  20.845  10.146
58524W        W23509  10.057  18.688  14.843
58525W        W23510  10.693  19.739   3.285
58526W        W23511  33.964  33.895  13.784
58527W        W23512  13.554  29.611  13.906
58528W        W23513  23.881   7.856   2.098
58529W        W23514  32.353  15.728   4.515
58530W        W23515  41.333   1.866   4.907
58531W        W23516  16.296  20.166  12.023
58532W        W23517   8.206  15.029   1.582
58533W        W23518   2.795   8.639  14.449
58534W        W23519  43.570  32.869   5.044
58535W        W23520  21.080   0.562  14.893
58536W        W23521  44.495  30.059  10.375
58537W        W23522  38.112  19.863  11.118
58538W        W23523  15.120  15.147   3.815
58539W        W23524  19.237  36.959  10.757
58540W        W23525  20.646  10.810  14.793
58541W        W23526   7.725  23.963   3.138
58542W        W23527  40.126  26.611  11.251
58543W        W23528  41.255  20.520  14.351
58544W        W23529  13.955  34.567  12.474
58545W        W23530   1.514  14.264   2.861
58546W        W23531  10.097   7.129   4.171
58547W        W23532  35.757  34.483   2.911
58548W        W23533  20.504  44.879  10.746
58549W        W23534  32.509  12.570  12.401
58550W        W23535  30.724  38.484  11.055
58551W        W23536  38.787  33.412  13.409
58552W        W23537  36.960  23.087  11.617
58553W        W23538  38.053  25.095   1.506
58554W        W23539   3.743   7.693  14.402
58555W        W23540  42.256  28.212   9.879
58556W        W23541  36.984  21.471  12.141
58557W        W23542  25.774   6.657  11.548
58558W        W23543   8.842  21.106  13.414
58559W        W23544  25.704  10.883  11.149
58560W        W23545  21.034  16.583  11.714
58561W        W23546  21.508  30.159  11.596
58562W        W23547  18.671   2.258  13.914
58563W        W23548  18.337   9.868   1.823
58564W        W23549  37.298  43.025  12.092
58565W        W23550  23.275  34.201  12.289
58566W        W23551  26.899  21.690  13.698
58567W        W23552  11.806   4.897   1.734
58568W        W23553   6.526  17.319   2.749
58569W        W23554   7.751   0.393   2.156
58570W        W23555  19.008  10.641  11.977
58571W        W23556   9.629  36.493   4.635
58572W        W23557  11.155  22.219  12.661
58573W        W23558  42.503  25.525  12.143
58574W        W23559   0.805  44.945  13.413
58575W        W23560  39.435  11.224  13.002
58576W        W23561  12.705  25.518  12.588
58577W        W23562  35.328  31.955   0.342
58578W        W23563  20.091  24.130  11.128
58579W        W23564  22.542   8.426  12.563
58580W        W23565  21.032  13.125  10.650
58581W        W23566  13.805  32.693  13.355
58582W        W23567  15.077  39.094  10.562
58583W        W23568  44.320  42.666  12.925
58584W        W23569  27.445  29.985  12.268
58585W        W23570  12.098  23.749  14.856
58586W        W23571  44.007  42.920   1.250
58587W        W23572  39.286   5.946   1.897
58588W        W23573   1.775  44.722   0.296
58589W        W23574   4.397  26.090   0.355
58590W        W23575  33.297   6.631   2.312
58591W        W23576   8.414  42.982   4.784
58592W        W23577  35.586  25.637   4.577
58593W        W23578  19.607  43.927   3.670
58594W        W23579  24.454   2.595   2.931
58595W        W23580  31.581   8.661  12.147
58596W        W23581   2.880   0.990  12.570
58597W        W23582   9.129  31.832   2.843
58598W        W23583  19.604  11.163   1.852
58599W        W23584  24.875  23.006   1.826
58600W        W23585  18.844   8.396  11.592
58601W        W23586  16.560  19.169   0.223
58602W        W23587  40.174  15.253  14.010
58603W        W23588  40.841  19.790  11.669
58604W        W23589   8.044  16.493   1.521
58605W        W23590   4.330  29.601   3.706
58606W        W23591  15.576  17.108  12.239
58607W        W23592  20.717  41.317  12.567
58608W        W23593  44.913  16.542  10.644
58609W        W23594   0.573  28.651   4.500
58610W        W23595  31.709  12.076  11.413
58611W        W23596  29.059   6.872  10.547
58612W        W23597  13.707   4.440  11.901
58613W        W23598  20.784  22.568  14.825
58614W        W23599  23.398  35.992  11.184
58615W        W23600   0.732  29.059   0.866
58616W        W23601  21.635  18.773  12.218
58617W        W23602  25.224  19.067  12.485
58618W        W23603  24.990   9.523   1.896
58619W        W23604   5.415   2.999  10.712
58620W        W23605  13.797  11.684  13.874
58621W        W23606  31.139  20.536   4.505
58622W        W23607  42.037   1.504   1.768
58623W        W23608  39.605  29.926   4.652
58624W        W23609  16.266  24.180   3.155
58625W        W23610   8.208   3.398  14.428
58626W        W23611   6.491   8.803   0.770
58627W        W23612   8.658  39.503  10.461
58628W        W23613  11.200  11.930  12.553
58629W        W23614   2.969  20.876  14.886
58630W        W23615  25.020  34.175  14.777
58631W        W23616  15.987   1.318   2.622
58632W        W23617  11.250   1.215  13.606
58633W        W23618   3.861   1.898   4.617
58634W        W23619  22.077  12.336  12.847
58635W        W23620  14.179  37.612   1.872
58636W        W23621   2.923   6.823  11.548
58637W        W23622   1.884  25.193   3.584
58638W        W23623   7.372  19.652  14.080
58639W        W23624  17.875  22.065  13.035
58640W        W23625   6.916  19.169   1.858
58641W        W23626  39.247   7.324   1.087
58642W        W23627  10.772  43.824   2.607
58643W        W23628  42.269   2.311  13.864
58644W        W23629  37.377  27.454   2.162
58645W        W23630   6.175   8.371  14.484
58646W        W23631  36.513   5.477  14.478
58647W        W23632  25.971  25.487  12.583
58648W        W23633   4.707  10.227   2.212
58649W        W23634  32.283  22.008  10.933
58650W        W23635  32.936  41.853  12.564
58651W        W23636  35.818  16.203   2.472
58652W        W23637  32.015  30.200   2.825
58653W        W23638  10.210  10.481  14.314
58654W        W23639  24.947  39.371  12.493
58655W        W23640  41.955  39.781   2.274
58656W        W23641  19.717  34.390   2.320
58657W        W23642  36.352  40.868  10.613
58658W        W23643  16.192  19.551   0.268
58659W        W23644  43.702  41.450  14.923
58660W        W23645  15.637  22.412   3.799
58661W        W23646  37.267  42.696  10.072
58662W        W23647  43.360  24.312  14.259
58663W        W23648  13.249  43.566  13.896
58664W        W23649  23.910  33.954   3.641
58665W        W23650  24.467  27.560  11.666
58666W        W23651  37.799  20.552   0.321
58667W        W23652  37.135  26.590  12.526
58668W        W23653  34.481   7.076  12.350
58669W        W23654  30.259  38.544  14.284
58670W        W23655  36.399  24.778   1.835
58671W        W23656  20.673  34.145  14.254
58672W        W23657  41.253  23.572  13.100
58673W        W23658  38.475  40.778   4.565
58674W        W23659  19.646   4.727   4.495
58675W        W23660  29.261  14.315   0.265
58676W        W23661  25.068  26.540   1.629
58677W        W23662   9.640  35.372  11.256
58678W        W23663  25.974   4.604  13.751
58679W        W23664  21.257  25.234  14.965
58680W        W23665  36.482  32.215  10.949
58681W        W23666   2.212  22.021  10.807
58682W        W23667  10.059  12.955   4.607
58683W        W23668  40.408  14.790  14.017
58684W        W23669   1.891  25.952   1.722
58685W        W23670  14.301  38.328   0.209
58686W        W23671   4.005  25.467   0.578
58687W        W23672  16.587  23.243  11.444
58688W        W23673  24.126  44.875  12.082
58689W        W23674  23.571  29.983  10.767
58690W        W23675  28.405  37.411  14.977
58691W        W23676  43.004  23.156  12.932
58692W        W23677  16.592  22.696   1.572
58693W        W23678  24.154   7.666  10.784
58694W        W23679  37.719  28.930   1.508
58695W        W23680  26.884   7.342   5.049
58696W        W23681  29.868  16.206   3.181
58697W        W23682  23.546  12.687   0.840
58698W        W23683   8.755   3.452   0.388
58699W        W23684  39.851   7.340   4.657
58700W        W23685  19.348  21.809  11.973
58701W        W23686  25.635  33.804  10.413
58702W        W23687  42.247  42.040  11.705
58703W        W23688  26.603  42.561  11.203
58704W        W23689  44.931  38.068  11.453
58705W        W23690  14.250  44.422   3.185
58706W        W23691  23.832  20.568  10.285
58707W        W23692   3.767  32.938  13.033
58708W        W23693   3.507  15.534   4.159
58709W        W23694   6.788  10.662  13.473
58710W        W23695  22.042  33.807  11.162
58711W        W23696   5.280  43.081   9.448
58712W        W23697   0.944  23.285  12.522
58713W        W23698  15.425   6.316  14.801
58714W        W23699   9.198   4.707   0.373
58715W        W23700   3.152  19.999  14.489
58716W        W23701  11.107  34.144   3.936
58717W        W23702  43.838  30.493  13.100
58718W        W23703  23.561  20.128  13.601
58719W        W23704   5.972  22.197   0.763
58720W        W23705  13.435  22.136  13.737
58721W        W23706  32.159  28.709   3.082
58722W        W23707  30.764  14.065   0.221
58723W        W23708  28.475   3.136  14.767
58724W        W23709   7.658  18.939   2.859
58725W        W23710  18.639  17.219   4.431
58726W        W23711  14.294   3.296   2.071
58727W        W23712   1.445  43.756  12.404
58728W        W23713   0.088  28.969  12.451
58729W        W23714  33.696  23.289   1.376
58730W        W23715  15.661   1.852   0.076
58731W        W23716  20.060  22.998   1.856
58732W        W23717  23.928  20.787   0.020
58733W        W23718  19.042  32.961  13.886
58734W        W23719  41.878  18.329   4.601
58735W        W23720   6.844   3.443   1.509
58736W        W23721  10.651  13.587   0.898
58737W        W23722  30.867  32.491  13.310
58738W        W23723  29.882  17.304   1.729
58739W        W23724  20.613  43.027  14.074
58740W        W23725   7.280   1.690  10.465
58741W        W23726  41.918  12.819  11.031
58742W        W23727  17.116  41.822   3.813
58743W        W23728  35.116   7.239   0.929
58744W        W23729   5.762   5.412  14.219
58745W        W23730  34.221  34.898  11.658
58746W        W23731  16.143   6.257   3.453
58747W        W23732  14.028  30.545  13.883
58748W        W23733   2.249  24.199   4.054
58749W        W23734  13.703  42.258   1.945
58750W        W23735  13.231  16.617  12.945
58751W        W23736  17.996  32.962  11.155
58752W        W23737   9.365  32.509  13.885
58753W        W23738  43.334   3.107   2.180
58754W        W23739  12.720  18.110  13.391
58755W        W23740  18.742  14.737   3.363
58756W        W23741  44.827  32.904   0.846
58757W        W23742  43.335  24.525  12.765
58758W        W23743   6.379   4.948  12.503
58759W        W23744  29.022  10.908   2.359
58760W        W23745  21.442  14.873  10.667
58761W        W23746   1.310  20.651  13.505
58762W        W23747  27.933  15.100   2.954
58763W        W23748  32.910  30.243  13.413
58764W        W23749  38.781  15.664  10.576
58765W        W23750   4.888  28.044  10.502
58766W        W23751  16.765  24.121   3.061
58767W        W23752  43.260   8.270   4.624
58768W        W23753   5.281  36.604  10.360
58769W        W23754  24.242  28.605  13.653
58770W        W23755   8.720  35.861  14.601
58771W        W23756  18.611  19.944  12.625
58772W        W23757  19.264  34.170   2.218
58773W        W23758  17.502  20.234  11.115
58774W        W23759  37.059  20.201  14.725
58775W        W23760  32.230  15.263  11.568
58776W        W23761  14.228  37.259   0.975
58777W        W23762  14.126  31.995  11.501
58778W        W23763  19.090  41.441   4.002
58779W        W23764   5.472  11.687  10.927
58780W        W23765  20.294  42.078  13.000
58781W        W23766  27.565   9.802  13.889
58782W        W23767   1.251  32.197   1.225
58783W        W23768  44.192  28.778  12.788
58784W        W23769   8.644  14.830   1.761
58785W        W23770  26.388  22.617  12.529
58786W        W23771  19.658  39.597   3.185
58787W        W23772  43.816  28.826  10.669
58788W        W23773  23.660   5.648  14.349
58789W        W23774  40.935  21.552  12.854
58790W        W23775  44.608  38.621  14.928
58791W        W23776  17.348  32.020  12.329
58792W        W23777  37.122  39.341   0.526
58793W        W23778   2.471  44.221   3.285
58794W        W23779  23.801  10.255   2.885
58795W        W23780  12.599  26.383   4.404
58796W        W23781  38.790  20.489   4.317
58797W        W23782  32.654  30.580   1.305
58798W        W23783  32.276   7.428   4.737
58799W        W23784  23.470  21.204  11.713
58800W        W23785  38.794  17.063   3.160
58801W        W23786   0.443  14.076  12.866
58802W        W23787  38.952  42.698  10.597
58803W        W23788   3.795  31.573  14.376
58804W        W23789  24.697  14.736   2.329
58805W        W23790  20.746  18.563  14.087
58806W        W23791  38.344  38.269   4.222
58807W        W23792  13.387  34.313   2.406
58808W        W23793  42.772  17.413  13.423
58809W        W23794  33.941  16.124  12.266
58810W        W23795  35.651  42.331   0.920
58811W        W23796   6.421  38.496  11.834
58812W        W23797   4.686  12.798   1.946
58813W        W23798  10.575  15.648  11.900
58814W        W23799  31.589  26.637   0.236
58815W        W23800  11.976  28.951  11.246
58816W        W23801  36.061  25.639  11.561
58817W        W23802  11.125  20.204  14.051
58818W        W23803   6.989  22.139   0.789
58819W        W23804  42.067   5.263   1.881
58820W        W23805  30.536  34.441  13.329
58821W        W23806   2.849  38.349   1.730
58822W        W23807  33.999  37.914  13.996
58823W        W23808  10.933   5.799   1.215
58824W        W23809  29.279  21.339  10.847
58825W        W23810  39.798  42.645  12.331
58826W        W23811  37.837   0.322   5.235
58827W        W23812   4.916  32.468  13.320
58828W        W23813  38.510  14.787   1.534
58829W        W23814  35.799   9.299   3.101
58830W        W23815  23.162   0.247   0.304
58831W        W23816  36.156   5.182  11.460
58832W        W23817  18.104  23.664   0.205
58833W        W23818  34.853  37.823   1.887
58834W        W23819   3.470  27.989   3.259
58835W        W23820   6.281  39.380   2.816
58836W        W23821  28.108  39.133   9.966
58837W        W23822  19.742  43.444   4.399
58838W        W23823  33.865  26.133   3.414
58839W        W23824  25.747  13.737  13.865
58840W        W23825  33.313  44.434   3.337
58841W        W23826  28.336  36.981   4.585
58842W        W23827  14.402  13.305   0.885
58843W        W23828  14.901  25.547   1.902
58844W        W23829   0.214   8.462  14.773
58845W        W23830   5.631  43.240  13.575
58846W        W23831  32.455   8.932  11.603
58847W        W23832  24.877   3.980  12.919
58848W        W23833  15.964   4.564   5.400
58849W        W23834  38.506  33.264   5.029
58850W        W23835  26.462  42.378  14.983
58851W        W23836  44.449  28.352   5.474
58852W        W23837  29.192  42.753   0.839
58853W        W23838  35.648  43.804   3.812
58854W        W23839  43.282  14.304  14.501
58855W        W23840  14.702  27.405  14.431
58856W        W23841   6.686  41.905  10.705
58857W        W23842  29.912  36.020   0.314
58858W        W23843  44.388  26.302   5.417
58859W        W23844  15.260  17.153   1.399
58860W        W23845  42.515   8.231   3.867
58861W        W23846  13.623  28.507   1.235
58862W        W23847  14.709  41.016   0.310
58863W        W23848  17.480  33.054  11.308
58864W        W23849  20.126  34.422  14.985
58865W        W23850  14.532   9.308   4.576
58866W        W23851  27.122   7.412  11.046
58867W        W23852   6.704   0.783  13.074
58868W        W23853   6.815  40.566   0.263
58869W        W23854   0.461  33.410  13.272
58870W        W23855  19.788  15.440   0.910
58871W        W23856  38.767  34.428  14.388
58872W        W23857  35.534  43.959   4.688
58873W        W23858  20.834  31.053  12.838
58874W        W23859  22.135   3.384   1.371
58875W        W23860   5.187  34.752  14.230
58876W        W23861  27.445  33.814   4.914
58877W        W23862   2.634  43.500  13.030
58878W        W23863  24.632  25.621  10.779
58879W        W23864  31.864  42.603   0.192
58880W        W23865  36.263   2.659  14.483
58881W        W23866   2.743  42.966  13.920
58882W        W23867  26.746  41.934   3.807
58883W        W23868  12.838  30.623   0.419
58884W        W23869  14.530  17.913   4.995
58885W        W23870  30.194   8.050   1.873
58886W        W23871   9.794   2.840  12.816
58887W        W23872  44.212  30.511  12.401
58888W        W23873  36.394  17.762  12.663
58889W        W23874  20.267  44.316   0.741
58890W        W23875   0.789  23.826   4.219
58891W        W23876  33.946  29.799  11.269
58892W        W23877  23.952  42.992  14.630
58893W        W23878  37.290  33.078  10.663
58894W        W23879  20.124  11.611  10.752
58895W        W23880  28.718  13.617  12.562
58896W        W23881  34.533  15.229  12.089
58897W        W23882  25.503  36.175   3.320
58898W        W23883  44.020   8.806   4.639
58899W        W23884  34.296   6.846  13.698
58900W        W23885  23.119  41.297  12.509
58901W        W23886   6.319  30.393  13.030
58902W        W23887  14.088  36.454  12.494
58903W        W23888  17.664  25.390  14.793
58904W        W23889  22.703  44.610   4.389
58905W        W23890   2.809  19.235  14.075
58906W        W23891  31.113  12.556   2.809
58907W        W23892  28.655  37.391   2.695
58908W        W23893  26.057  20.521  11.372
58909W        W23894  36.234   9.110   2.168
58910W        W23895  24.527  35.850  14.512
58911W        W23896  39.536  22.876   3.194
58912W        W23897  25.895   5.967   9.792
58913W        W23898   4.787  16.589   0.946
58914W        W23899  27.515  26.407  11.114
58915W        W23900   7.921  19.479   0.460
58916W        W23901  20.332  23.036   0.331
58917W        W23902  23.645  31.466  13.176
58918W        W23903  30.967  11.821  11.037
58919W        W23904  29.487   0.017   0.000
58920W        W23905  40.287  10.705   1.005
58921W        W23906  38.835  23.199  13.587
58922W        W23907  19.035   0.937   2.645
58923W        W23908   1.517  35.353   3.765
58924W        W23909   0.930  21.573  14.254
58925W        W23910  17.047   2.741  11.262
58926W        W23911   9.937  12.812  12.666
58927W        W23912  33.887  28.137   3.860
58928W        W23913   4.401  34.692   1.507
58929W        W23914  17.792  18.229  11.763
58930W        W23915  33.548  24.089  14.870
58931W        W23916   4.873   5.838  11.235
58932W        W23917  10.547  36.973   3.671
58933W        W23918  30.374  30.324   2.366
58934W        W23919  32.603   5.890  10.509
58935W        W23920  41.480  12.412  11.581
58936W        W23921  17.355  35.316   1.860
58937W        W23922  28.117  16.533   1.794
58938W        W23923  11.353  10.311   2.794
58939W        W23924  37.038   6.148  11.146
58940W        W23925  10.846  21.040  13.864
58941W        W23926   8.676  44.031  13.865
58942W        W23927  22.778  31.434   2.886
58943W        W23928  26.516  29.447  13.941
58944W        W23929  28.643  35.448   3.799
58945W        W23930  30.242  36.990  11.092
58946W        W23931  27.076  26.966   4.690
58947W        W23932  20.200  39.579  13.466
58948W        W23933  10.836   0.229   4.169
58949W        W23934  38.062  29.098   4.129
58950W        W23935  20.645  41.142  12.073
58951W        W23936  10.692   0.159   2.277
58952W        W23937  16.631   1.649  12.848
58953W        W23938  41.289  23.302  14.045
58954W        W23939  35.362  25.222  10.693
58955W        W23940  16.635  30.056   5.110
58956W        W23941  19.462  15.701   1.266
58957W        W23942   7.242  20.293   2.607
58958W        W23943  17.508  41.754   4.595
58959W        W23944  37.287  39.540  10.952
58960W        W23945  23.249  12.782   1.420
58961W        W23946  14.729   4.743   0.272
58962W        W23947  26.792  27.484   4.573
58963W        W23948  18.119  25.250  14.621
58964W        W23949   8.317  39.075  10.375
58965W        W23950  32.653  22.906  10.609
58966W        W23951  30.284  37.106   2.475
58967W        W23952  42.311   7.893   1.249
58968W        W23953  16.634  14.815   0.237
58969W        W23954  27.432  12.158  14.476
58970W        W23955  25.976  16.187  14.856
58971W        W23956  18.202  28.673  13.337
58972W        W23957  37.787  21.801  12.549
58973W        W23958  37.850  21.135  11.745
58974W        W23959  27.864   6.759   2.440
58975W        W23960  28.463  39.035   3.683
58976W        W23961  42.409  12.300  11.498
58977W        W23962  23.368  13.202  14.834
58978W        W23963  27.542  34.579  11.774
58979W        W23964  27.410  30.013  14.446
58980W        W23965  15.952  23.040   2.344
58981W        W23966  11.058  27.110  14.486
58982W        W23967  32.341  21.606  12.472
58983W        W23968  35.820  15.712   2.665
58984W        W23969  27.405   6.691   0.985
58985W        W23970  32.126  32.624   4.887
58986W        W23971  26.409  32.002  11.569
58987W        W23972  29.415  15.253   0.101
58988W        W23973  41.403  13.960   5.067
58989W        W23974  39.360   5.731  13.942
58990W        W23975  26.002  32.096   4.631
58991W        W23976  25.602  19.669   2.358
58992W        W23977  13.601   4.792  10.729
58993W        W23978   4.625   1.652   2.864
58994W        W23979  10.612  19.308   0.239
58995W        W23980  34.361  33.388  11.991
58996W        W23981   6.997  33.409  14.442
58997W        W23982  18.218   9.781   3.179
58998W        W23983  22.183  16.203   0.384
58999W        W23984  31.828  41.443  12.118
59000W        W23985  35.489  42.684   3.177
59001W        W23986  15.553  18.609  13.769
59002W        W23987  42.958   2.099  14.239
59003W        W23988  17.766  39.018  12.030
59004W        W23989  34.052  32.368  14.076
59005W        W23990  38.281  43.926  10.387
59006W        W23991  43.944  32.527  10.565
59007W        W23992  17.110  34.889   0.009
59008W        W23993   6.953  30.520  13.912
59009W        W23994  16.174   9.316   3.436
59010W        W23995   0.780  28.224  12.482
59011W        W23996   8.860  38.421  12.961
59012W        W23997  18.044  35.439  14.442
59013W        W23998  10.128  27.916   1.611
59014W        W23999  30.016  42.918   0.287
59015W        W24000  15.385  30.385  13.445
59016W        W24001  40.070  23.797   1.337
59017W        W24002  44.709  39.369  12.011
59018W        W24003  12.327  15.177   3.082
59019W        W24004  13.713   7.393  11.782
59020W        W24005  31.097   8.703  14.972
59021W        W24006  16.673   1.024  11.921
59022W        W24007  35.453  27.526   0.440
59023W        W24008   4.873  12.445  14.870
59024W        W24009  42.268   5.960   4.246
59025W        W24010  19.756  41.345  12.577
59026W        W24011   5.779   9.342  11.000
59027W        W24012  14.045  38.084   4.748
59028W        W24013  27.881  39.494  13.962
59029W        W24014   7.655  10.508  12.531
59030W        W24015   5.337   8.215   3.322
59031W        W24016   4.377  37.772   1.233
59032W        W24017  36.098  44.793  12.586
59033W        W24018   5.319  41.849  13.275
59034W        W24019  26.726  26.088  14.555
59035W        W24020  34.707  23.894  12.443
59036W        W24021  29.946  39.359   3.554
59037W        W24022  40.855  22.142  14.357
59038W        W24023  44.994  15.328   1.360
59039W        W24024  18.051  38.533   1.789
59040W        W24025  18.609  20.255  14.221
59041W        W24026  40.591   7.175  10.099
59042W        W24027  38.548  43.068  14.457
59043W        W24028  44.630   8.613  12.509
59044W        W24029  41.684  38.052   1.150
59045W        W24030  23.048  41.219  13.897
59046W        W24031  29.423   8.765  13.406
59047W        W24032  30.652   1.204  11.897
59048W        W24033   7.694  22.596   3.708
59049W        W24034  35.109  37.841  12.002
59050W        W24035  34.604   8.748  14.359
59051W        W24036  30.073  29.053  10.510
59052W        W24037  39.504  36.858  11.532
59053W        W24038   4.680  19.288   4.027
59054W        W24039  42.756  34.372   1.923
59055W        W24040  24.962  39.279   1.812
59056W        W24041   5.312   0.972  13.395
59057W        W24042  25.336  44.906  13.129
59058W        W24043   3.441  42.079  10.808
59059W        W24044   5.737  37.142  11.452
59060W        W24045  42.843  31.906   4.125
59061W        W24046  20.125  17.030  10.201
59062W        W24047  40.398  19.783  13.265
59063W        W24048  23.555   8.341  11.251
59064W        W24049  21.444  37.623   2.164
59065W        W24050   1.301  15.833   1.603
59066W        W24051   5.301  14.891   1.227
59067W        W24052  26.275  18.060   4.083
59068W        W24053   6.659  17.751  11.640
59069W        W24054  35.081   0.819   0.428
59070W        W24055  43.441  24.136   2.966
59071W        W24056  30.589   2.672   2.599
59072W        W24057  17.205  37.077  14.049
59073W        W24058  11.012   6.772  12.340
59074W        W24059   9.311  39.419   0.027
59075W        W24060   3.384  40.856  12.370
59076W        W24061  14.933  10.319   3.592
59077W        W24062  14.773  37.169   3.218
59078W        W24063  25.073   7.265  12.476
59079W        W24064   8.407  41.872   4.905
59080W        W24065  18.725  36.809   2.271
59081W        W24066  41.120  31.485   0.452
59082W        W24067  23.859   4.336  10.251
59083W        W24068   6.904  31.682  11.160
59084W        W24069  13.242  26.262  12.818
59085W        W24070  27.714  14.688   4.074
59086W        W24071  12.798  31.319   0.996
59087W        W24072  12.081  27.478  10.729
59088W        W24073  34.291   3.520  11.759
59089W        W24074  19.820  24.979  13.345
59090W        W24075   5.095  40.624   3.108
59091W        W24076  39.406  40.775  10.623
59092W        W24077  29.422  11.674   2.568
59093W        W24078  13.695   3.449  11.966
59094W        W24079  15.298  11.138  12.355
59095W        W24080   4.414  18.099   3.868
59096W        W24081  31.355  23.490   2.004
59097W        W24082  30.891  30.465   2.829
59098W        W24083  38.484  23.077  13.235
59099W        W24084  34.938  31.089   1.260
59100W        W24085  17.851  35.999  10.910
59101W        W24086  34.865   5.660   3.741
59102W        W24087  10.301  29.067  14.978
59103W        W24088  18.834  41.210   2.364
59104W        W24089  36.616  14.824  12.088
59105W        W24090   1.212  18.129   3.920
59106W        W24091  19.113   4.449  13.445
59107W        W24092  33.895  39.945  12.856
59108W        W24093  27.769  21.436   5.068
59109W        W24094   4.183  22.692  14.925
59110W        W24095   6.960  28.536  14.883
59111W        W24096   0.976   9.756  10.648
59112W        W24097  21.650  30.758  10.771
59113W        W24098   1.447  39.559  13.893
59114W        W24099  18.577  31.890  10.394
59115W        W24100   8.386  40.041  13.367
59116W        W24101  18.100  23.464  13.274
59117W        W24102  39.667  43.507  11.213
59118W        W24103  18.733  28.258  12.562
59119W        W24104  42.161  38.956   1.188
59120W        W24105  34.483  41.560   3.143
59121W        W24106  33.836  39.261   2.768
59122W        W24107  28.660   5.262   0.788
59123W        W24108  13.588  13.249  11.922
59124W        W24109  18.824   2.373   4.584
59125W        W24110  42.281  33.619  14.010
59126W        W24111  17.045  10.259   4.149
59127W        W24112  18.498  14.585  14.468
59128W        W24113  28.775   2.528   1.159
59129W        W24114  28.076  42.720  10.655
59130W        W24115  18.889  13.292  12.887
59131W        W24116  24.678  28.383  13.455
59132W        W24117   6.123  25.948   0.111
59133W        W24118  36.669   3.831  11.589
59134W        W24119  26.114   4.471   1.819
59135W        W24120  31.552   7.161  11.985
59136W        W24121  38.842  20.983   4.296
59137W        W24122  34.430  14.668  13.443
59138W        W24123  35.619  35.559  14.385
59139W        W24124  23.752  15.573   2.847
59140W        W24125  31.626  34.338   3.850
59141W        W24126  23.194   4.391  10.759
59142W        W24127  15.596  22.288  11.166
59143W        W24128  26.005  37.330   0.298
59144W        W24129  42.280  18.089  14.973
59145W        W24130  35.646  18.142  12.404
59146W        W24131  41.702  15.729   2.403
59147W        W24132   7.457  36.387  14.290
59148W        W24133  18.708  26.745  12.029
59149W        W24134  26.910   6.541  14.153
59150W        W24135  35.792  25.091   3.227
59151W        W24136  44.833  24.539  11.569
59152W        W24137  25.478  18.051   3.460
59153W        W24138  43.089  12.151  12.260
59154W        W24139  38.418  35.351  10.368
59155W        W24140   7.266  11.489  14.655
59156W        W24141  28.230  33.878   2.668
59157W        W24142  13.568  10.788  11.652
59158W        W24143   9.347  25.761   0.401
59159W        W24144  24.049  26.229  13.231
59160W        W24145  10.210   0.289   5.024
59161W        W24146   6.803  11.822  10.975
59162W        W24147  24.362   9.871  14.393
59163W        W24148  18.362  13.365   2.148
59164W        W24149  39.247  16.841   4.087
59165W        W24150  30.892   3.744   0.718
59166W        W24151  39.432   2.071  10.597
59167W        W24152  33.872  36.535  11.143
59168W        W24153   3.873  20.699  13.978
59169W        W24154   2.486  13.303  14.685
59170W        W24155  44.210  40.578   4.994
59171W        W24156  21.626  28.966   4.560
59172W        W24157  11.185  18.692  11.736
59173W        W24158  44.077  38.449   3.305
59174W        W24159  22.710  16.641   1.276
59175W        W24160  17.145  43.256  11.279
59176W        W24161  25.185  23.712  13.504
59177W        W24162   8.675  24.615   1.778
59178W        W24163  13.402  43.369   1.249
59179W        W24164  13.739  40.033   4.576
59180W        W24165  31.458   9.909  13.431
59181W        W24166  34.113  13.564  12.338
59182W        W24167  19.763  21.054   3.242
59183W        W24168  19.049  41.949   0.557
59184W        W24169  16.781  40.914   4.252
59185W        W24170   6.944   0.872   2.345
59186W        W24171  14.573  38.473   0.699
59187W        W24172  22.730   1.852   4.078
59188W        W24173  42.547  14.746   1.433
59189W        W24174  42.024   2.754  10.542
59190W        W24175  12.188  33.668  10.714
59191W        W24176  31.742  44.568  14.482
59192W        W24177  31.524  27.448  13.427
59193W        W24178  31.458  22.126   0.233
59194W        W24179  34.629  44.955   2.304
59195W        W24180  13.868  34.993  11.660
59196W        W24181  33.049  40.326   1.532
59197W        W24182  21.568  35.120   4.452
59198W        W24183  17.720  14.217   0.887
59199W        W24184  38.561   2.232  14.203
59200W        W24185  21.524  16.530  11.533
59201W        W24186  43.471  13.570   2.230
59202W        W24187  32.608  12.660   3.738
59203W        W24188  13.377   9.717  13.914
59204W        W24189  33.675   9.349  13.957
59205W        W24190  26.915  31.605   2.717
59206W        W24191   9.405  15.051  11.070
59207W        W24192  39.821  19.150   1.695
59208W        W24193  35.948   3.103  11.210
59209W        W24194   0.138  41.377  10.678
59210W        W24195  41.647  34.986  11.997
59211W        W24196  31.315  20.180  12.814
59212W        W24197  22.044  35.046  10.655
59213W        W24198   3.188  21.645  13.851
59214W        W24199   4.209  31.609   3.834
59215W        W24200  18.300  21.939   3.281
59216W        W24201  37.566  29.601   4.562
59217W        W24202  12.243  41.354   0.088
59218W        W24203  34.465  17.210   3.243
59219W        W24204  27.031  15.788   2.185
59220W        W24205  33.992  19.684  13.477
59221W        W24206   2.880  41.064   0.336
59222W        W24207  27.040  29.685  12.382
59223W        W24208  41.382   9.754   1.224
59224W        W24209   4.779  16.848  10.606
59225W        W24210  22.990  32.344   2.431
59226W        W24211  12.315  37.779  13.577
59227W        W24212   8.715  41.741  13.859
59228W        W24213  37.987  27.148  14.832
59229W        W24214  32.634  11.648  14.422
59230W        W24215   7.707  37.242  13.929
59231W        W24216  34.511  13.861  14.860
59232W        W24217  10.593  24.570   3.215
59233W        W24218  29.349   6.859   0.925
59234W        W24219   6.709   9.003  11.865
59235W        W24220   6.889  36.600   3.844
59236W        W24221  37.331  32.137   4.958
59237W        W24222  25.630  22.202  10.972
59238W        W24223   5.896   9.305   1.438
59239W        W24224  38.663   1.720   2.207
59240W        W24225   5.287  29.939   0.850
59241W        W24226  15.012   9.583   2.222
59242W        W24227  27.132   2.979   4.470
59243W        W24228  26.916   1.389   2.706
59244W        W24229  35.999  24.895  13.562
59245W        W24230  12.649  22.116  14.737
59246W        W24231  13.210   0.885   1.440
59247W        W24232  35.155  29.585   0.270
59248W        W24233  40.546  18.032   3.352
59249W        W24234  40.895  36.546  14.411
59250W        W24235   4.592  44.352  10.694
59251W        W24236  23.538  41.033   4.515
59252W        W24237  13.194  20.824   4.977
59253W        W24238  22.660  15.314   0.714
59254W        W24239  34.704   2.247  11.673
59255W        W24240   7.368  31.636  11.687
59256W        W24241   5.728  37.735   3.680
59257W        W24242   2.701  36.077   2.824
59258W        W24243  13.266  42.028   1.749
59259W        W24244   4.849   2.415   1.521
59260W        W24245  12.872  17.949   2.199
59261W        W24246   0.700  10.118   4.087
59262W        W24247  27.498  31.266  14.149
59263W        W24248  15.591   1.901   2.053
59264W        W24249  14.171  13.926  11.257
59265W        W24250  22.936  28.050   1.856
59266W        W24251  41.441  20.627   4.595
59267W        W24252  41.367   4.559   1.021
59268W        W24253  10.466  31.090   2.351
59269W        W24254   9.795   5.453  12.114
59270W        W24255  11.140   1.941  12.689
59271W        W24256  22.110  39.989   1.626
59272W        W24257  38.491  10.607   2.457
59273W        W24258  11.925  41.425  13.120
59274W        W24259  37.509  21.099  12.737
59275W        W24260   4.366   6.607   3.737
59276W        W24261  14.390  10.965   2.453
59277W        W24262  39.131  31.694  14.858
59278W        W24263  17.472  12.880  12.535
59279W        W24264  24.896   1.732  13.948
59280W        W24265  34.761  38.844  12.186
59281W        W24266   3.251  18.292   0.499
59282W        W24267  37.838   8.835  13.902
59283W        W24268  44.783  30.842   0.953
59284W        W24269   0.576   2.856  11.643
59285W        W24270  29.476  40.434   4.790
59286W        W24271  13.713  31.514   0.758
59287W        W24272  32.622  22.642   1.054
59288W        W24273   5.829   4.741  14.965
59289W        W24274  10.920  11.166   0.697
59290W        W24275  32.020  10.356   0.926
59291W        W24276  35.117  13.723   3.316
59292W        W24277  42.645  37.805   1.349
59293W        W24278   8.201  25.661  14.014
59294W        W24279  42.090  12.339   4.331
59295W        W24280  17.322   9.565  14.386
59296W        W24281   4.278  19.814  13.132
59297W        W24282  26.004  29.861  14.472
59298W        W24283  12.735  41.576  13.466
59299W        W24284   0.970  43.123   0.524
59300W        W24285  32.249  14.617  12.758
59301W        W24286  13.046  12.274   0.733
59302W        W24287   5.647  34.619   3.723
59303W        W24288   8.278  35.009   1.634
59304W        W24289  41.700  41.178  14.556
59305W        W24290  19.515  22.743   4.152
59306W        W24291  31.156  44.011  12.064
59307W        W24292  19.967   2.915   0.101
59308W        W24293  14.836  15.647  10.756
59309W        W24294  38.260  12.825  10.414
59310W        W24295  35.422   7.863  14.805
59311W        W24296  34.379  25.707   1.866
59312W        W24297  23.339  11.805  12.910
59313W        W24298  15.263   6.856   1.294
59314W        W24299  19.841  19.744   2.870
59315W        W24300  19.379  33.086   3.719
59316W        W24301  18.080  29.054   1.392
59317W        W24302  21.808  12.816   3.338
59318W        W24303   3.421  22.360  14.608
59319W        W24304   1.786   8.025  13.984
59320W        W24305   1.960  43.118  13.491
59321W        W24306  29.710   6.453  11.170
59322W        W24307  12.231  42.269   0.209
59323W        W24308  13.293  17.199   4.558
59324W        W24309  26.901   2.755   9.668
59325W        W24310  10.839  13.212  13.332
59326W        W24311  15.234  19.357  12.850
59327W        W24312  37.472  39.348  11.389
59328W        W24313  21.638  34.019  14.440
59329W        W24314  29.295   0.448  11.915
59330W        W24315  26.505  28.613  14.316
59331W        W24316  15.975  29.780   2.727
59332W        W24317  32.609  30.633  14.443
59333W        W24318  10.866   7.473  11.860
59334W        W24319  19.295   4.287  14.766
59335W        W24320  33.991   1.949   4.990
59336W        W24321  26.317   1.443  12.838
59337W        W24322  20.120   3.750   4.654
59338W        W24323  34.911  36.107  12.603
59339W        W24324  18.293  30.029   1.260
59340W        W24325  22.609  40.491   2.523
59341W        W24326  37.503  31.424  10.426
59342W        W24327  44.536  39.788   2.750
59343W        W24328  33.649  10.320   1.754
59344W        W24329  39.126  19.631  13.839
59345W        W24330  23.475  15.743   2.439
59346W        W24331  36.407  10.178   4.486
59347W        W24332  17.252  34.566   2.297
59348W        W24333  23.575  40.318   0.563
59349W        W24334  29.169   8.198   1.874
59350W        W24335  32.274  40.874  10.768
59351W        W24336  25.918  25.170  11.166
59352W        W24337  19.355  22.305   1.768
59353W        W24338  28.337   7.063  11.621
59354W        W24339  16.720  13.675  13.291
59355W        W24340  29.025   1.429  11.883
59356W        W24341  33.026  16.242  10.951
59357W        W24342   2.068  28.557   2.758
59358W        W24343  16.138  19.569  12.497
59359W        W24344  11.526   2.431  10.739
59360W        W24345   4.091  14.222  12.176
59361W        W24346  21.659  10.066  13.794
59362W        W24347  16.951  21.279  13.076
59363W        W24348  42.740  13.761  12.957
59364W        W24349  32.276   0.381  10.680
59365W        W24350  32.888  17.531   2.246
59366W        W24351  21.225  38.338   4.100
59367W        W24352  16.268  21.978   0.365
59368W        W24353  21.404   1.149  12.840
59369W        W24354  35.467  14.338  11.361
59370W        W24355   8.914  35.023  11.181
59371W        W24356  28.310  41.991  14.897
59372W        W24357   3.384   9.883   0.281
59373W        W24358  11.731  11.188  11.300
59374W        W24359   5.839  40.961   0.523
59375W        W24360   1.593   6.719   4.836
59376W        W24361  29.531  36.415  13.067
59377W        W24362  33.688  43.641   3.777
59378W        W24363   3.341  13.140  12.111
59379W        W24364  44.877   8.431  12.092
59380W        W24365   3.282  19.546  12.941
59381W        W24366   0.380  10.616   2.592
59382W        W24367  14.612  24.486   3.222
59383W        W24368  31.710  19.648   2.183
59384W        W24369   1.447  25.755  11.057
59385W        W24370  28.490   6.424   1.849
59386W        W24371   0.847  10.848   3.366
59387W        W24372  16.839  44.983  12.848
59388W        W24373  12.357   5.150   3.687
59389W        W24374  28.592   3.420   4.491
59390W        W24375  38.384   4.926   1.784
59391W        W24376  42.124  42.538  11.654
59392W        W24377  11.683  30.961   0.916
59393W        W24378   2.222  13.690  14.885
59394W        W24379  13.424  36.417   3.688
59395W        W24380  14.281  20.603  14.879
59396W        W24381  26.089   1.838   2.416
59397W        W24382  43.216  25.490  14.791
59398W        W24383   0.231  31.178  13.972
59399W        W24384   5.310   6.556   3.880
59400W        W24385  10.620   5.961  13.443
59401W        W24386  32.230   6.184  13.043
59402W        W24387  44.423  31.430  13.100
59403W        W24388  40.491  35.213   2.734
59404W        W24389   9.363  12.824  14.497
59405W        W24390  19.511  39.205  11.576
59406W        W24391  23.609  29.508  10.556
59407W        W24392  32.411   0.208  13.372
59408W        W24393  20.561   9.816  11.628
59409W        W24394  23.716  16.741   0.948
59410W        W24395  43.463   6.476  11.091
59411W        W24396  31.416   0.287   3.127
59412W        W24397   7.463  19.344  11.647
59413W        W24398  42.349  40.070   0.415
59414W        W24399   2.592  19.198  11.303
59415W        W24400   1.480   0.342   0.602
59416W        W24401   2.484  14.193  14.862
59417W        W24402   5.165  36.284   0.033
59418W        W24403  14.113   9.792  11.937
59419W        W24404  32.608  34.623  14.413
59420W        W24405  41.750  13.189   3.180
59421W        W24406   9.488  27.139   3.263
59422W        W24407   5.361   1.966  14.029
59423W        W24408  32.959  20.450   1.588
59424W        W24409  15.084  36.897  14.291
59425W        W24410  27.904  40.301  12.977
59426W        W24411   1.646  24.914  11.144
59427W        W24412   6.845  20.628  13.082
59428W        W24413  38.016  38.922  13.945
59429W        W24414  20.267  18.128  11.998
59430W        W24415  40.968  34.305   4.216
59431W        W24416  37.570  36.100  14.339
59432W        W24417   2.827  34.821   0.849
59433W        W24418  31.146  18.239  11.995
59434W        W24419   0.020  12.332   4.711
59435W        W24420  18.478  33.093  12.383
59436W        W24421  10.282   1.286   4.658
59437W        W24422  15.086   3.809   3.635
59438W        W24423  11.747  43.723  12.533
59439W        W24424  10.149  27.801  10.856
59440W        W24425  12.899  12.277   1.851
59441W        W24426  24.940  14.691   3.692
59442W        W24427   0.703   3.220   2.355
59443W        W24428  10.219   7.713  13.914
59444W        W24429   5.750  12.326   0.961
59445W        W24430   8.751  24.926   2.282
59446W        W24431  17.175  32.526  12.519
59447W        W24432   4.698  32.071  13.571
59448W        W24433  16.348  12.207  14.555
59449W        W24434  23.902  10.382   3.881
59450W        W24435  35.567   6.091  12.195
59451W        W24436  15.308  17.470  12.011
59452W        W24437  27.613  16.486   1.837
59453W        W24438  16.171  42.914  10.416
59454W        W24439  19.630  13.551  12.188
59455W        W24440  36.943   9.987   0.701
59456W        W24441  34.910   3.049   3.036
59457W        W24442   3.007   6.298  11.129
59458W        W24443  30.578  11.772   2.342
59459W        W24444  40.387   3.864  14.050
59460W        W24445  34.077  35.915   3.761
59461W        W24446   0.822  41.363   0.998
59462W        W24447   1.017  32.552  12.186
59463W        W24448  21.242  21.155   3.247
59464W        W24449  38.430  42.283   3.293
59465W        W24450   0.777  21.702   3.840
59466W        W24451  39.161   3.282   1.385
59467W        W24452  42.490  23.962   1.242
59468W        W24453  11.177  30.171  10.700
59469W        W24454   8.215  44.483  12.439
59470W        W24455   1.134  15.939   4.162
59471W        W24456  22.171  35.377  11.115
59472W        W24457   1.896  26.362   2.117
59473W        W24458  40.612  27.690   5.027
59474W        W24459  10.078   8.362   2.389
59475W        W24460  30.487   4.000  10.693
59476W        W24461  33.851  12.658  10.744
59477W        W24462  30.554  38.818  13.645
59478W        W24463  14.704   0.471  11.143
59479W        W24464   8.342  21.101  13.328
59480W        W24465  26.956  10.180   3.198
59481W        W24466  20.844  17.180  13.819
59482W        W24467  22.946  15.341   1.171
59483W        W24468   1.545  28.666   2.732
59484W        W24469  25.830  25.400   3.404
59485W        W24470  29.902   4.248   3.263
59486W        W24471  19.608  29.542  11.213
59487W        W24472  41.595   1.892   0.435
59488W        W24473  26.114   6.356   4.312
59489W        W24474  43.265   2.140  11.992
59490W        W24475  33.195   6.082  11.618
59491W        W24476  24.938   5.994   1.404
59492W        W24477  17.085  11.712   0.084
59493W        W24478  37.311  25.134  12.558
59494W        W24479  37.819  37.480   5.231
59495W        W24480   2.967  22.757  12.323
59496W        W24481  10.226   7.796   4.513
59497W        W24482  10.694   0.434  11.511
59498W        W24483  36.462   0.650  14.963
59499W        W24484  33.514  29.437   3.141
59500W        W24485   4.888  35.493  11.515
59501W        W24486  16.761  15.176   1.012
59502W        W24487  15.993  19.318  11.357
59503W        W24488  15.570  11.527   0.987
59504W        W24489   0.360  40.934  13.390
59505W        W24490   0.570  31.276   1.176
59506W        W24491  16.082  16.337  10.722
59507W        W24492   8.710  23.586   4.457
59508W        W24493  12.617  21.439  11.001
59509W        W24494   3.995  31.922   0.499
59510W        W24495  31.838  21.842  10.731
59511W        W24496  42.354   8.888   4.531
59512W        W24497   1.987   7.915   1.891
59513W        W24498   7.598  29.483  11.068
59514W        W24499  29.589  38.026   0.753
59515W        W24500  34.896  36.038   1.877
59516W        W24501  33.146   5.886  12.202
59517W        W24502   5.073  29.420  11.886
59518W        W24503  25.614  10.891   0.357
59519W        W24504   8.740   5.927   1.372
59520W        W24505   8.664  30.892   2.998
59521W        W24506  33.484  15.602  13.493
59522W        W24507  29.742  30.806  14.914
59523W        W24508   5.951  36.791   1.773
59524W        W24509  10.574  41.283   3.585
59525W        W24510  33.319  35.052   2.335
59526W        W24511  11.294  33.084   2.336
59527W        W24512  16.611  39.157   3.618
59528W        W24513  44.348  39.020   1.402
59529W        W24514  40.940  28.121  12.177
59530W        W24515   8.378  31.440  11.120
59531W        W24516  31.056  21.589  11.865
59532W        W24517  16.985  16.843  11.792
59533W        W24518  32.622  25.567   1.756
59534W        W24519  21.563  14.670  13.304
59535W        W24520   0.752  21.311   1.476
59536W        W24521  20.038  33.665  11.758
59537W        W24522  26.648  20.236   3.124
59538W        W24523   5.564  23.256  13.798
59539W        W24524   2.343   9.438   0.376
59540W        W24525  10.340   1.329  12.024
59541W        W24526  22.238  44.155  14.831
59542W        W24527  22.406  39.333  10.739
59543W        W24528  21.521  20.126   1.306
59544W        W24529  40.321  40.909  11.010
59545W        W24530   8.400  15.153  11.354
59546W        W24531  19.851  20.414  10.645
59547W        W24532  24.654   5.714   2.953
59548W        W24533  42.009  26.879   0.588
59549W        W24534   0.162  15.039  11.155
59550W        W24535  33.261  17.056  11.150
59551W        W24536  41.072  37.851  11.953
59552W        W24537   2.392  33.435   1.036
59553W        W24538  26.209   5.592  13.812
59554W        W24539   0.261  20.203  11.682
59555W        W24540   0.734  24.432   1.859
59556W        W24541  25.583  44.041  11.401
59557W        W24542  37.990  30.340   2.189
59558W        W24543   6.287  24.769   4.912
59559W        W24544  24.336  24.283  10.418
59560W        W24545   6.471  27.855  12.787
59561W        W24546   9.682  22.773   0.373
59562W        W24547  36.982  37.184  13.361
59563W        W24548  20.477   2.551   4.490
59564W        W24549  42.088  28.865  14.018
59565W        W24550   7.770  34.787   3.287
59566W        W24551  12.937  24.905  12.079
59567W        W24552  36.332  40.573   2.779
59568W        W24553  26.912  13.206  12.996
59569W        W24554  36.508  38.520   2.338
59570W        W24555  35.001  40.748   4.154
59571W        W24556  24.481  34.533   3.127
59572W        W24557  17.632  23.066   0.385
59573W        W24558  12.550   3.453  12.642
59574W        W24559  13.705  26.923  13.070
59575W        W24560  26.413  26.608   2.971
59576W        W24561  13.988  34.931   4.153
59577W        W24562  31.844  43.921  11.087
59578W        W24563  37.267  18.177   0.288
59579W        W24564  27.262  25.153   1.347
59580W        W24565  23.096   2.681  12.580
59581W        W24566  10.431  37.854   3.630
59582W        W24567   8.862  35.001  14.532
59583W        W24568   4.368  12.708   2.713
59584W        W24569  18.086  35.656  13.602
59585W        W24570  27.643   7.749  11.162
59586W        W24571  33.103   7.301   4.505
59587W        W24572  34.111  43.204   2.834
59588W        W24573  37.986   2.165  11.707
59589W        W24574  35.840  14.294  12.593
59590W        W24575  44.478  19.638  14.903
59591W        W24576  30.648   1.735  10.615
59592W        W24577  38.477  17.601   3.904
59593W        W24578   0.302  44.446  10.981
59594W        W24579  22.663  38.413  12.621
59595W        W24580   9.799   3.531  10.725
59596W        W24581  44.978  17.338  11.070
59597W        W24582  37.370   3.073   4.171
59598W        W24583  23.691   8.798   1.736
59599W        W24584   0.956  22.159   1.445
59600W        W24585  16.728  44.875   4.757
59601W        W24586   5.364   4.603  13.731
59602W        W24587  28.635  10.911   1.697
59603W        W24588  25.248  14.230  10.492
59604W        W24589  33.695  41.304   2.687
59605W        W24590  26.077  29.384   3.110
59606W        W24591  35.364   3.678  10.707
59607W        W24592  37.104  10.118   3.986
59608W        W24593   7.478   4.014  12.649
59609W        W24594  14.167   2.956   3.628
59610W        W24595  25.064  42.541   3.871
59611W        W24596  36.326  33.020  14.495
59612W        W24597  18.299  37.389  12.971
59613W        W24598  18.644  21.518   2.441
59614W        W24599  15.709  25.229  10.581
59615W        W24600  30.762  33.796   0.190
59616W        W24601  27.513   6.942   0.334
59617W        W24602  10.571  25.019  14.851
59618W        W24603  28.934   1.933  14.437
59619W        W24604  30.960   2.416  13.538
59620W        W24605  38.362  44.419  13.858
59621W        W24606  32.714   7.801  13.339
59622W        W24607  44.059  32.590  13.477
59623W        W24608  14.416  25.137  13.448
59624W        W24609  14.051  27.840   9.862
59625W        W24610  44.272  23.626   4.554
59626W        W24611  19.249  22.304   4.349
59627W        W24612  23.987   2.864  11.067
59628W        W24613   3.283  10.745   2.752
59629W        W24614  14.209  34.406   1.657
59630W        W24615   6.865   4.899   2.196
59631W        W24616  16.148  26.489  11.131
59632W        W24617  35.085  18.296  11.607
59633W        W24618  38.068   9.188  13.473
59634W        W24619  19.046  41.021  11.488
59635W        W24620  35.125  27.990   2.519
59636W        W24621  15.267   3.731  13.966
59637W        W24622  18.689   4.720   0.256
59638W        W24623  15.471   0.889  12.379
59639W        W24624  12.831  36.543   2.189
59640W        W24625  34.591  39.337  14.355
59641W        W24626  34.991  10.470   3.732
59642W        W24627  32.163  30.572   1.418
59643W        W24628  31.875  10.286   2.762
59644W        W24629  20.662  26.123   1.434
59645W        W24630   0.285   1.196   1.641
59646W        W24631   9.377  25.934   4.035
59647W        W24632  13.731  21.927   3.773
59648W        W24633  13.694  31.921  14.353
59649W        W24634  35.425  11.104  12.897
59650W        W24635  34.679  22.513  13.552
59651W        W24636  35.521  14.167   4.141
59652W        W24637   1.901  35.603  13.135
59653W        W24638  36.915  19.689   2.456
59654W        W24639  39.038   4.470   2.046
59655W        W24640  39.408   8.138  13.434
59656W        W24641   0.092  28.230  10.148
59657W        W24642   2.421  37.345   2.118
59658W        W24643  30.922   4.867   4.385
59659W        W24644  10.601  17.483   1.418
59660W        W24645  32.406   4.687  13.614
59661W        W24646  23.135  21.433  12.030
59662W        W24647  21.099  42.720  12.830
59663W        W24648  42.630  29.003   4.159
59664W        W24649  15.044  21.761   4.015
59665W        W24650  13.742   9.271   1.329
59666W        W24651  21.145  33.026   4.160
59667W        W24652   2.939  42.844   2.648
59668W        W24653  25.935   4.035  13.025
59669W        W24654  28.182  33.856  14.261
59670W        W24655  33.919   3.871   4.570
59671W        W24656  15.994  23.904   1.848
59672W        W24657  43.957  22.944  14.895
59673W        W24658  16.152   6.475  12.564
59674W        W24659  20.536  28.962  12.936
59675W        W24660  39.752  24.085  11.908
59676W        W24661  40.870  28.496   1.286
59677W        W24662   8.202  23.758  11.627
59678W        W24663   3.033   1.878  12.154
59679W        W24664  34.776   5.947   1.212
59680W        W24665  14.407  23.153  13.941
59681W        W24666  16.537   0.361   3.130
59682W        W24667  37.939  44.973   2.910
59683W        W24668  23.228  10.243   1.806
59684W        W24669  39.086  12.347   1.497
59685W        W24670   6.492  16.384  14.801
59686W        W24671  28.815  12.379   3.256
59687W        W24672  15.186  19.806   0.840
59688W        W24673  26.985  41.454   4.538
59689W        W24674  41.290   7.668   1.298
59690W        W24675  44.271  41.330   0.891
59691W        W24676   2.711  34.593  13.492
59692W        W24677  29.449   0.936   3.315
59693W        W24678  36.373  27.829  10.899
59694W        W24679  41.926  38.778  11.565
59695W        W24680  44.675   7.963   3.794
59696W        W24681  28.688  14.829   1.701
59697W        W24682   3.867  10.501  10.272
59698W        W24683  36.858  36.410  12.355
59699W        W24684  31.285  25.133   0.612
59700W        W24685   7.947  29.394  14.061
59701W        W24686   6.413  24.150  14.854
59702W        W24687  33.130  12.572  11.888
59703W        W24688  17.625  25.206   1.518
59704W        W24689  43.885   0.341  13.453
59705W        W24690  35.434   3.171   0.355
59706W        W24691  10.589  15.401   2.366
59707W        W24692  25.614  15.810  11.262
59708W        W24693  33.844  28.635   3.663
59709W        W24694  14.277  30.072  13.934
59710W        W24695  37.812   0.379   0.115
59711W        W24696   7.060  22.188   4.147
59712W        W24697  30.227   4.109   4.292
59713W        W24698  27.068  24.664   1.357
59714W        W24699   9.057  12.161   3.831
59715W        W24700  15.913  36.683  11.981
59716W        W24701  14.536  22.529   2.360
59717W        W24702  32.986   3.864   4.264
59718W        W24703  40.422  41.056   3.228
59719W        W24704   3.192  20.738  12.455
59720W        W24705  38.544  28.961  12.071
59721W        W24706   3.752  34.823  13.577
59722W        W24707  11.648  32.845  11.187
59723W        W24708  20.565  37.850   1.675
59724W        W24709  15.488  20.368  12.543
59725W        W24710  30.658  28.952  12.165
59726W        W24711   4.261   4.412  11.476
59727W        W24712  40.324   5.416   4.469
59728W        W24713  23.464  10.750   3.854
59729W        W24714  25.113  28.639  13.581
59730W        W24715  22.246  14.061  14.035
59731W        W24716  10.139  12.434  11.989
59732W        W24717  38.046  28.381  11.639
59733W        W24718  32.677  37.010  11.027
59734W        W24719   4.722  25.963   1.974
59735W        W24720  23.739  19.783  11.574
59736W        W24721  42.689   6.122   4.001
59737W        W24722  31.020  40.981  14.035
59738W        W24723  33.889   0.320  14.340
59739W        W24724  20.734  32.298   4.842
59740W        W24725  17.629  19.200  12.143
59741W        W24726  18.587   5.958  14.722
59742W        W24727  13.109  12.235   3.842
59743W        W24728  44.229  32.890  11.183
59744W        W24729   1.953   1.198   0.410
59745W        W24730   4.827  31.625   2.404
59746W        W24731  30.199   5.746   1.249
59747W        W24732  42.791  37.171   4.729
59748W        W24733  35.438  21.623  14.923
59749W        W24734   0.491   9.947  14.766
59750W        W24735  20.457   5.161  14.343
59751W        W24736   2.480  12.326  14.261
59752W        W24737  27.153   6.887  12.830
59753W        W24738  18.521  34.434   4.096
59754W        W24739  24.196  37.934  12.443
59755W        W24740   1.169  26.176  11.033
59756W        W24741  34.845  38.443  13.117
59757W        W24742  38.415   2.487  12.410
59758W        W24743  19.072  16.549  11.105
59759W        W24744  29.140  41.813   1.907
59760W        W24745  34.816  25.132   3.383
59761W        W24746  26.424  32.640  13.569
59762W        W24747  32.935   6.724  12.095
59763W        W24748  16.203  29.063   1.681
59764W        W24749  44.663  42.984   3.682
59765W        W24750  34.126  41.835   1.099
59766W        W24751  31.563  23.237   0.787
59767W        W24752  33.704  18.285  14.508
59768W        W24753  34.755  21.770   4.289
59769W        W24754   1.057   4.442  12.460
59770W        W24755  27.563  42.386   1.439
59771W        W24756  27.134  15.727   2.695
59772W        W24757  44.316  19.614  12.571
59773W        W24758  31.830   4.126  11.573
59774W        W24759  20.079  26.985   3.221
59775W        W24760  42.262  29.576   2.016
59776W        W24761  16.175  14.754  11.907
59777W        W24762   4.255  31.266   1.530
59778W        W24763   3.501  14.881   4.116
59779W        W24764  44.405  24.716  14.137
59780W        W24765  26.957  36.504   2.347
59781W        W24766  34.769  28.355   2.734
59782W        W24767  13.408   5.411   2.814
59783W        W24768   5.147  15.118   4.612
59784W        W24769   6.775  27.623   4.611
59785W        W24770  30.101  40.374  10.684
59786W        W24771  16.760  19.317   1.644
59787W        W24772   2.674  30.469   1.869
59788W        W24773  32.644  29.018   3.616
59789W        W24774  23.741  21.587   4.494
59790W        W24775  34.342  12.863   0.729
59791W        W24776  16.663  25.596  11.935
59792W        W24777   7.710  25.039   1.011
59793W        W24778   8.822  22.073  11.630
59794W        W24779  27.023  29.357   3.571
59795W        W24780  32.393  38.590   0.773
59796W        W24781  25.534   0.745  13.724
59797W        W24782   5.116  25.945  13.035
59798W        W24783   3.716   8.792   2.775
59799W        W24784   6.825  13.701  13.325
59800W        W24785  11.559  34.876  12.527
59801W        W24786  15.564   8.736   0.909
59802W        W24787  39.532  12.549  10.699
59803W        W24788  23.622   6.173  14.270
59804W        W24789  12.910   7.172  11.050
59805W        W24790  15.543  39.527   1.784
59806W        W24791   1.399  38.397   0.187
59807W        W24792  36.011  36.863  13.398
59808W        W24793  41.984  21.115   4.165
59809W        W24794   2.462   3.574   2.279
59810W        W24795  23.550   2.304   1.195
59811W        W24796   5.756   8.888  11.920
59812W        W24797  12.325   8.893   1.926
59813W        W24798  25.644  12.551  11.677
59814W        W24799   7.737  35.651  10.762
59815W        W24800  36.827   7.251   1.829
59816W        W24801  44.485   9.960   4.149
59817W        W24802  10.413  26.049  10.643
59818W        W24803  41.544   9.278  11.480
59819W        W24804  34.485  12.066  14.318
59820W        W24805  38.941  39.333  10.926
59821W        W24806  28.901  39.294  13.936
59822W        W24807  16.540   2.526   1.005
59823W        W24808   4.348   4.441   2.557
59824W        W24809  17.527  29.807   3.202
59825W        W24810  24.955   4.867  11.555
59826W        W24811  42.445   9.439   3.973
59827W        W24812   0.299  19.088  13.557
59828W        W24813  29.026  19.205   2.383
59829W        W24814   3.146  30.205   2.173
59830W        W24815  32.731  17.422  11.538
59831W        W24816  41.285  39.351   1.316
59832W        W24817  29.497  40.890   3.778
59833W        W24818  31.672  14.619   1.859
59834W        W24819  22.654   0.797  12.569
59835W        W24820  10.338   8.307   0.966
59836W        W24821  34.955  40.541   5.004
59837W        W24822  33.402  15.469   1.706
59838W        W24823  18.980  15.420   4.285
59839W        W24824  19.051  25.862   4.146
59840W        W24825  34.724  39.620  12.615
59841W        W24826  21.787   0.403  13.507
59842W        W24827   3.944  15.680   0.308
59843W        W24828  30.710  39.521   1.740
59844W        W24829  43.359   3.697   4.211
59845W        W24830  44.781  41.940  12.438
59846W        W24831   0.495   8.874  10.694
59847W        W24832  41.457  14.779   2.858
59848W        W24833  21.243   1.060   4.098
59849W        W24834  21.059  29.940   1.970
59850W        W24835   6.461  39.900   3.472
59851W        W24836  28.882  24.481  14.877
59852W        W24837   2.780  11.785  10.776
59853W        W24838   9.807  38.737  13.801
59854W        W24839  27.160  24.786   3.148
59855W        W24840   4.284  21.304  12.102
59856W        W24841  38.289  41.220   4.894
59857W        W24842   1.996  15.489   0.990
59858W        W24843  26.802  22.295   1.275
59859W        W24844  44.929  30.316  14.912
59860W        W24845  43.554  31.389  13.430
59861W        W24846  37.810  31.838   4.119
59862W        W24847  32.125  38.526  10.609
59863W        W24848  37.562   2.371  11.946
59864W        W24849  37.336  34.303   0.953
59865W        W24850  28.651  19.149   3.873
59866W        W24851   4.924  44.337  13.283
59867W        W24852  27.321  12.414   3.662
59868W        W24853  43.751  32.136   1.900
59869W        W24854   8.868  36.536  13.349
59870W        W24855  20.139  19.495  12.407
59871W        W24856  10.399  24.407   4.189
59872W        W24857   1.901   1.367  13.121
59873W        W24858  14.763   8.765  13.373
59874W        W24859  44.484  36.702   1.365
59875W        W24860  30.571   5.753  13.570
59876W        W24861  10.866  39.364  14.521
59877W        W24862  42.900  43.270   3.926
59878W        W24863   1.018  21.575  13.750
59879W        W24864  26.394  25.560   3.345
59880W        W24865  42.032   6.389   2.166
59881W        W24866  20.526  17.256  12.926
59882W        W24867  30.115   6.035   4.373
59883W        W24868  13.045  25.061  12.556
59884W        W24869  30.511  12.143  13.514
59885W        W24870   3.712   5.385   1.839
59886W        W24871  13.135  14.744   4.279
59887W        W24872  42.571  30.734  11.888
59888W        W24873   0.663  18.298   2.334
59889W        W24874  38.467  31.677   4.946
59890W        W24875  14.841  32.532  12.931
59891W        W24876  24.005  10.435   5.066
59892W        W24877   1.269  14.110  12.547
59893W        W24878  12.844  31.007   3.605
59894W        W24879  29.592   3.145   0.697
59895W        W24880   1.047  42.800  13.461
59896W        W24881  39.296  44.149   2.915
59897W        W24882   1.774  32.004   0.803
59898W        W24883  36.054  12.629  10.550
59899W        W24884  35.063  36.668   3.131
59900W        W24885  36.145  29.395  13.912
59901W        W24886   4.118  10.267  12.917
59902W        W24887  34.316  44.875  12.138
59903W        W24888  22.067   9.649   3.156
59904W        W24889  18.248  13.027   2.545
59905W        W24890   6.706  37.367   3.172
59906W        W24891  42.875   0.114  13.102
59907W        W24892  16.251  29.112   3.185
59908W        W24893   5.834  36.059  14.295
59909W        W24894   9.047  16.746  13.620
59910W        W24895  40.421  42.823  11.159
59911W        W24896   7.172   3.657  12.419
59912W        W24897   7.879  15.479   3.508
59913W        W24898  27.270  41.832   1.946
59914W        W24899   5.716  19.384   4.098
59915W        W24900  13.380   0.236   4.169
59916W        W24901  23.659   0.976   2.241
59917W        W24902  44.308  36.271  12.575
59918W        W24903  42.370  28.374  14.886
59919W        W24904  18.558  44.570   1.083
59920W        W24905   6.258  44.704  13.408
59921W        W24906  41.250  41.499  11.642
59922W        W24907   3.179   2.863  13.904
59923W        W24908   2.879   4.817   3.343
59924W        W24909  31.950  23.047  13.442
59925W        W24910   2.155  35.985   3.734
59926W        W24911  44.006   7.964  11.927
59927W        W24912   2.142  38.629   1.595
59928W        W24913  36.548  36.468  14.357
59929W        W24914  11.390   7.183  13.537
59930W        W24915  31.324   4.157   2.771
59931W        W24916   2.331  30.237   4.552
59932W        W24917  13.348  20.724  11.182
59933W        W24918   3.918  39.860   1.807
59934W        W24919  17.521  11.661   3.410
59935W        W24920   7.736   4.396  11.873
59936W        W24921  21.591   5.865  12.586
59937W        W24922  13.551  24.713   1.298
59938W        W24923  44.255  12.567  14.376
59939W        W24924   9.830  29.108   3.682
59940W        W24925  19.239  34.930  14.616
59941W        W24926   5.293  18.081  14.326
59942W        W24927  21.246  20.809   1.558
59943W        W24928  29.460  32.987   2.202
59944W        W24929  33.359  35.454  13.965
59945W        W24930   3.010  13.763  12.632
59946W        W24931  41.460  42.004  13.657
59947W        W24932  38.791  23.819  12.969
59948W        W24933  12.105  22.023   1.369
59949W        W24934  10.806  34.238   2.301
59950W        W24935  12.832   3.938  11.047
59951W        W24936  11.084  29.178  14.135
59952W        W24937  17.228  22.966  13.702
59953W        W24938  17.003  20.620   4.269
59954W        W24939  17.872  23.099   2.850
59955W        W24940  13.823  14.254   3.746
59956W        W24941  21.043  32.723  11.919
59957W        W24942  34.915  35.515  11.917
59958W        W24943  30.848   5.669  14.038
59959W        W24944  30.496  24.164  10.913
59960W        W24945  10.297  10.122   0.301
59961W        W24946  18.171  24.499  11.194
59962W        W24947  15.852   1.016   1.906
59963W        W24948   5.107   3.430  14.857
59964W        W24949   5.833  37.014  14.321
59965W        W24950  20.287  42.064   0.806
59966W        W24951  24.773  36.908  12.030
59967W        W24952   0.774  42.380   2.802
59968W        W24953  29.651   5.298  14.545
59969W        W24954  17.903   7.844  14.335
59970W        W24955  13.526  39.023   3.592
59971W        W24956  40.249  31.645   4.081
59972W        W24957  34.974  23.142  12.893
59973W        W24958  17.167   6.376  11.201
59974W        W24959   5.862  11.797  10.577
59975W        W24960  14.187  17.645   4.548
59976W        W24961  37.609  37.469  14.918
59977W        W24962  42.730  34.344   0.884
59978W        W24963  33.789  25.582  13.773
59979W        W24964  32.481   0.691   1.358
59980W        W24965   2.767  31.586  14.588
59981W        W24966  23.614  24.217  14.132
59982W        W24967   2.269  21.049   4.782
59983W        W24968  14.227  42.717  12.567
59984W        W24969  37.224  42.257   5.006
59985W        W24970  19.777  37.292  14.482
59986W        W24971  44.747  30.212   1.743
59987W        W24972  15.497  18.565  14.279
59988W        W24973  24.761  28.120   4.522
59989W        W24974  16.387  12.594  14.926
59990W        W24975   7.268  28.712   0.252
59991W        W24976  28.694  29.630  11.892
59992W        W24977   6.451  39.371  12.290
59993W        W24978  14.758  16.311  11.152
59994W        W24979  15.866  30.791   0.623
59995W        W24980  30.517  12.077   0.959
59996W        W24981  21.306  18.271   5.089
59997W        W24982  13.695  14.283  14.666
59998W        W24983  15.344  24.074  12.592
59999W        W24984  31.550  34.168  12.561
60000W        W24985  24.925  18.031  11.613
60001W        W24986  38.959  39.296   3.572
60002W        W24987  41.459  39.979   4.093
60003W        W24988  33.580   3.202   2.167
60004W        W24989  35.430  21.083   0.740
60005W        W24990  14.873  32.179   3.748
60006W        W24991  12.850  44.055   2.234
60007W        W24992   1.541   7.757   4.220
60008W        W24993   0.899  29.950  11.715
60009W        W24994  13.323   9.893   4.846
60010W        W24995   4.608   9.639   2.550
60011W        W24996  29.114  29.071  10.916
60012W        W24997  43.819  22.449  13.319
60013W        W24998   3.236   0.301   4.922
60014W        W24999   9.433  28.460  12.018
60015W        W25000  14.712  44.694  14.823
60016W        W25001   7.321   8.490  13.005
60017W        W25002  16.685  24.987  12.818
60018W        W25003  11.861   2.767   4.724
60019W        W25004  15.863  32.478  13.126
60020W        W25005  40.827  19.243   3.307
60021W        W25006   2.908   7.784   0.809
60022W        W25007   0.469  25.167  13.875
60023W        W25008  16.887  24.275  11.545
60024W        W25009   7.795  43.424  11.878
60025W        W25010  44.668  31.331   0.983
60026W        W25011  34.419  29.195   4.557
60027W        W25012  25.947  26.483  11.969
60028W        W25013  13.318   4.638   0.425
60029W        W25014  22.021  22.718  12.557
60030W        W25015  13.648  21.481   4.429
60031W        W25016  12.688  15.656   3.643
60032W        W25017  39.999  38.178   4.166
60033W        W25018  19.081  33.396  13.508
60034W        W25019  21.338  30.094   2.905
60035W        W25020  39.446  29.330  10.286
60036W        W25021  12.709   0.004   3.759
60037W        W25022  34.118  16.685   0.807
60038W        W25023  37.040  21.180   3.614
60039W        W25024  29.134   5.104   5.172
60040W        W25025   7.905  24.129  13.932
60041W        W25026   9.725  39.266   2.189
60042W        W25027  35.550   0.173   2.307
60043W        W25028   2.939  41.567  11.078
60044W        W25029  31.149  20.060   3.363
60045W        W25030  40.084  25.048  12.003
60046W        W25031   4.204   2.971   4.663
60047W        W25032  13.656   1.493  14.936
60048W        W25033   0.918  26.010   0.967
60049W        W25034  12.697  16.742  12.057
60050W        W25035  33.880  33.485   2.727
60051W        W25036  18.729  16.196   0.280
60052W        W25037  40.821  39.511   4.192
60053W        W25038  24.488  17.258  12.529
60054W        W25039  28.445  10.334   3.140
60055W        W25040  25.590   5.458   0.269
60056W        W25041  41.896  42.634  10.617
60057W        W25042  15.693  20.509  14.560
60058W        W25043  42.795  31.922  13.239
60059W        W25044  40.301   0.315   3.747
60060W        W25045  33.001  16.907  14.932
60061W        W25046  36.536  18.829   0.696
60062W        W25047  27.989  11.655   4.556
60063W        W25048  34.757  19.639  11.485
60064W        W25049  23.978  40.633   0.508
60065W        W25050   2.873   9.801  10.831
60066W        W25051   2.374  38.908   1.229
60067W        W25052   0.234  21.118  11.789
60068W        W25053  24.908  37.346   4.309
60069W        W25054   7.838  16.173   1.155
60070W        W25055  19.053  19.947  13.397
60071W        W25056  38.615   6.878  14.940
60072W        W25057  39.863  31.502  13.923
60073W        W25058  41.740  27.256   4.191
60074W        W25059  40.615  10.224   2.734
60075W        W25060  39.731  14.959   2.785
60076W        W25061  25.845  21.319  12.847
60077W        W25062   4.469  27.928   0.745
60078W        W25063  14.240  20.813   0.794
60079W        W25064  35.271  20.203  13.195
60080W        W25065  15.343  15.009  11.986
60081W        W25066  35.542   8.158  13.483
60082W        W25067   7.818  44.939  11.622
60083W        W25068  23.841  25.794  13.436
60084W        W25069  41.809  33.859  11.199
60085W        W25070  20.541  19.082   2.071
60086W        W25071  25.173  12.314  12.897
60087W        W25072  21.011  24.485  14.809
60088W        W25073  44.884  27.579   0.704
60089W        W25074  13.159   6.615   1.281
60090W        W25075  31.037  38.109  13.363
60091W        W25076  37.462  44.025   4.601
60092W        W25077  15.886  36.936  13.647
60093W        W25078  16.743  35.667  13.909
60094W        W25079  37.911  26.148  10.700
60095W        W25080  17.905  39.498  11.918
60096W        W25081  28.399  23.271   3.297
60097W        W25082  19.649  14.696   1.135
60098W        W25083  35.566  41.437   0.558
60099W        W25084   1.384  44.863  12.588
60100W        W25085  26.623  19.976  13.998
60101W        W25086  23.755  32.038   1.522
60102W        W25087  29.866  40.363  12.510
60103W        W25088  34.269   4.722   3.835
60104W        W25089  33.591  33.913  11.434
60105W        W25090  39.217  31.572  12.928
60106W        W25091  39.106  33.570  13.780
60107W        W25092  38.353  25.962  13.547
60108W        W25093  39.353  24.620   4.210
60109W        W25094  27.717   2.931   0.299
60110W        W25095  22.623  35.561   3.140
60111W        W25096   0.854  17.979  13.040
60112W        W25097  28.434  15.654  12.069
60113W        W25098  34.639   5.009   0.233
60114W        W25099  20.709   7.624  10.787
60115W        W25100  33.026   5.946   0.549
60116W        W25101  27.594  31.386   0.498
60117W        W25102   4.368  19.119  12.520
60118W        W25103  40.533  43.924  10.667
60119W        W25104  41.692  19.081  11.824
60120W        W25105  16.260  28.570   2.352
60121W        W25106  25.168  43.562  12.047
60122W        W25107  16.201   8.747   0.616
60123W        W25108  19.082  33.555   1.148
60124W        W25109  14.688  34.569  11.869
60125W        W25110  22.934  10.722  11.094
60126W        W25111  33.362   2.014   3.192
60127W        W25112  35.362  15.713   3.621
60128W        W25113  27.537  29.637  13.602
60129W        W25114  44.651  35.687   5.160
60130W        W25115   7.151   8.169  14.323
60131W        W25116  35.898  22.118   4.104
60132W        W25117  27.512  32.104  14.766
60133W        W25118  32.512  15.667  11.434
60134W        W25119  43.854  21.336   0.927
60135W        W25120   3.672  25.966  14.336
60136W        W25121  32.888  23.179  10.986
60137W        W25122   6.739  22.942  12.680
60138W        W25123  15.151  39.976   0.315
60139W        W25124   2.970  29.873  10.674
60140W        W25125  18.127   8.705  13.860
60141W        W25126  12.194  14.669   1.994
60142W        W25127  21.771  11.206  12.429
60143W        W25128   2.415  17.131   0.263
60144W        W25129  42.872  43.334  12.381
60145W        W25130  41.487  24.760   1.739
60146W        W25131  10.427  25.491  14.779
60147W        W25132   6.849  27.808   1.926
60148W        W25133  10.789  33.991   4.315
60149W        W25134  39.917  34.868  12.942
60150W        W25135   2.499   7.413  14.038
60151W        W25136   5.857  21.089   1.169
60152W        W25137   4.213   2.681   0.954
60153W        W25138  39.807   5.323  13.611
60154W        W25139  38.772  35.574  10.014
60155W        W25140  34.025  30.471   0.307
60156W        W25141  34.573  41.567   0.986
60157W        W25142  37.601  21.415   0.408
60158W        W25143  39.373  30.910   3.158
60159W        W25144  39.038   9.417  14.385
60160W        W25145  25.649  18.530  11.851
60161W        W25146   0.413  25.698   4.210
60162W        W25147  14.699  10.653  13.066
60163W        W25148  36.524   9.675  10.713
60164W        W25149  28.870   6.207  12.829
60165W        W25150  26.653   3.255  13.940
60166W        W25151  33.361  25.154  11.782
60167W        W25152  21.685  15.133  13.022
60168W        W25153  29.362  22.088  11.384
60169W        W25154  23.981  12.755  12.028
60170W        W25155   6.891  24.654   3.599
60171W        W25156  11.228  43.743   0.401
60172W        W25157  38.267   7.352   3.761
60173W        W25158   8.417  21.257   4.090
60174W        W25159   7.728  18.499   4.715
60175W        W25160  18.780  20.736  10.218
60176W        W25161   4.410  38.845  12.959
60177W        W25162  39.978   2.681  10.836
60178W        W25163  33.156  14.389  13.709
60179W        W25164  22.208  37.939  13.417
60180W        W25165  19.643  27.102  12.566
60181W        W25166  24.164   3.234   0.295
60182W        W25167   5.434  43.756   2.328
60183W        W25168  25.783  36.005   0.035
60184W        W25169   6.590   6.886  12.359
60185W        W25170   2.935  17.728   3.120
60186W        W25171  24.084   0.802  11.585
60187W        W25172  17.230  11.083  13.938
60188W        W25173   8.626  21.583  11.677
60189W        W25174  20.245  21.705  11.986
60190W        W25175   1.185  22.581   2.195
60191W        W25176  25.534   0.684   4.913
60192W        W25177  38.694  15.760  14.058
60193W        W25178  33.183  23.381   3.675
60194W        W25179  30.970  35.136   1.846
60195W        W25180   3.359  40.391  12.088
60196W        W25181  39.037  21.745   1.207
60197W        W25182  10.285  15.128  12.990
60198W        W25183  43.046   1.519   2.623
60199W        W25184   6.342  24.358   0.327
60200W        W25185  10.789  18.677   3.228
60201W        W25186   6.346  15.347  12.383
60202W        W25187  13.622  35.903  12.063
60203W        W25188  25.043  39.825   2.398
60204W        W25189  25.972  11.605  11.894
60205W        W25190  25.247   3.339  13.369
60206W        W25191  24.459   7.280  10.619
60207W        W25192   7.349  29.584  14.873
60208W        W25193  27.575  35.438   2.589
60209W        W25194  32.821  38.883   0.921
60210W        W25195  19.511  17.929   5.318
60211W        W25196  21.762  35.523   4.210
60212W        W25197  24.411  22.705  12.671
60213W        W25198  22.757  14.857   1.584
60214W        W25199  14.318  18.269  11.577
60215W        W25200  28.979  21.770  14.381
60216W        W25201  23.584   1.905  14.267
60217W        W25202   9.700  19.434   4.213
60218W        W25203   4.371  30.149   0.824
60219W        W25204  37.463  35.300   1.753
60220W        W25205  25.463  23.883   1.898
60221W        W25206  31.195  11.889  14.498
60222W        W25207  37.724   1.807   0.857
60223W        W25208  21.513  11.728   2.827
60224W        W25209  18.783  16.769  14.465
60225W        W25210  20.762  25.038  11.987
60226W        W25211   8.175  32.908  14.320
60227W        W25212  40.256  41.349  14.482
60228W        W25213  38.263  35.393   0.782
60229W        W25214  39.121  15.283   3.561
60230W        W25215  41.448  19.059  13.426
60231W        W25216  31.553  37.161   4.902
60232W        W25217   5.849  33.513  11.510
60233W        W25218  42.508  21.972  12.533
60234W        W25219  11.958  11.984  13.446
60235W        W25220  30.912  31.171  14.397
60236W        W25221  35.363  42.891  12.900
60237W        W25222  44.533   7.845  11.114
60238W        W25223  31.455  10.282   1.768
60239W        W25224  44.516  38.251  11.009
60240W        W25225  26.584   4.376   1.995
60241W        W25226  37.570  27.110   9.768
60242W        W25227   2.103  38.451   2.433
60243W        W25228  19.650   7.289   2.795
60244W        W25229  32.335  25.912   2.800
60245W        W25230  36.980  18.598  13.443
60246W        W25231  20.204  42.915   1.958
60247W        W25232   4.276  11.088   2.708
60248W        W25233  31.397   1.495  12.366
60249W        W25234  24.179   3.021  12.985
60250W        W25235  26.672   7.761   2.254
60251W        W25236  18.883   6.133  12.659
60252W        W25237  22.144  31.934  14.801
60253W        W25238   0.704  17.819   1.257
60254W        W25239   8.930  25.666   4.188
60255W        W25240   7.657   6.813   1.723
60256W        W25241  16.565  33.362  10.542
60257W        W25242  28.665  21.704  14.945
60258W        W25243  40.533  33.483  12.120
60259W        W25244  15.722  11.711   3.173
60260W        W25245  10.213  35.345  10.797
60261W        W25246  38.565  34.950  14.590
60262W        W25247   3.313  37.963   0.316
60263W        W25248  16.304  14.081   1.870
60264W        W25249  16.872   7.212  11.559
60265W        W25250  21.989  13.701  12.011
60266W        W25251   0.244  19.495   0.783
60267W        W25252  33.662  16.812  14.401
60268W        W25253  12.521  42.853  13.864
60269W        W25254  44.903  42.312  10.767
60270W        W25255   2.222  19.620  10.206
60271W        W25256  14.139  41.067  12.044
60272W        W25257  12.154  22.254   4.143
60273W        W25258  44.478   6.775   3.685
60274W        W25259  44.696  41.327  12.130
60275W        W25260  12.772  29.906  14.986
60276W        W25261  20.629   3.364   4.030
60277W        W25262  25.411  13.777   3.759
60278W        W25263  29.407  31.019   1.794
60279W        W25264  17.570  20.638  11.644
60280W        W25265  43.536  41.519  11.183
60281W        W25266  36.605  36.105  12.045
60282W        W25267  17.276  42.367  14.797
60283W        W25268  17.747  16.161   3.799
60284W        W25269   4.561  17.187   3.348
60285W        W25270  28.472  10.670  12.861
60286W        W25271  10.161   7.160  13.581
60287W        W25272  13.826  43.930  10.695
60288W        W25273   7.321  27.609   3.357
60289W        W25274  32.991   6.348  11.165
60290W        W25275  34.299  15.654   4.529
60291W        W25276  30.851  42.846  10.726
60292W        W25277  17.065  11.170  14.431
60293W        W25278  29.458  21.485   3.212
60294W        W25279  32.148  13.332   3.165
60295W        W25280  12.899  22.274   1.568
60296W        W25281   1.851   6.224   4.564
60297W        W25282  24.622  21.663  10.979
60298W        W25283  19.094  10.154   2.345
60299W        W25284  22.730   4.844   1.125
60300W        W25285  37.111  32.663   4.101
60301W        W25286   3.244  36.101  11.929
60302W        W25287  23.215  21.535   2.839
60303W        W25288  41.849  24.418  12.114
60304W        W25289  43.917  29.559  12.068
60305W        W25290   8.244  28.115  10.618
60306W        W25291  41.332  42.824  11.381
60307W        W25292  43.416  44.052  12.567
60308W        W25293  37.662   3.797   3.624
60309W        W25294  16.565  37.038  13.057
60310W        W25295   9.311  33.223   1.406
60311W        W25296  34.635  12.466  12.383
60312W        W25297  43.395  36.324  10.178
60313W        W25298  10.821  28.544   4.265
60314W        W25299   2.982  18.715  13.414
60315W        W25300   8.483   4.013  13.539
60316W        W25301   9.970  27.577  13.831
60317W        W25302  44.452   5.131   4.903
60318W        W25303  23.735  44.246   4.437
60319W        W25304  36.387  21.218   3.157
60320W        W25305  33.640   5.296  14.049
60321W        W25306  21.983  13.710  14.338
60322W        W25307  11.582  16.635   0.559
60323W        W25308   9.637  10.178   3.227
60324W        W25309  33.192   1.242  12.827
60325W        W25310  18.542  31.776  11.204
60326W        W25311  24.995  27.121  13.920
60327W        W25312  26.599   0.059  13.379
60328W        W25313  37.858  36.935   0.298
60329W        W25314  28.501   4.439  13.175
60330W        W25315   6.282  24.661   4.380
60331W        W25316  44.797  23.155   2.415
60332W        W25317  43.826  34.193   4.140
60333W        W25318  25.666  39.048   0.247
60334W        W25319  41.080  30.021  14.440
60335W        W25320  44.590  34.964   0.862
60336W        W25321  23.300  39.859   0.714
60337W        W25322  34.846  14.786   4.088
60338W        W25323  44.430   9.246   3.633
60339W        W25324   3.811  27.162  11.555
60340W        W25325   1.485  18.577   4.093
60341W        W25326  34.615   0.571   1.454
60342W        W25327  28.240  21.577  11.869
60343W        W25328   8.181   6.831   1.734
60344W        W25329   0.715  30.389  12.651
60345W        W25330   9.946  43.867  11.560
60346W        W25331  36.473  27.479  12.927
60347W        W25332  20.208  13.384   3.089
60348W        W25333  20.182  33.980   1.212
60349W        W25334   1.084  10.472   4.084
60350W        W25335  15.382  34.677  13.503
60351W        W25336  12.112  28.533  14.825
60352W        W25337  41.947  34.612  12.864
60353W        W25338   6.484  16.311  12.690
60354W        W25339  23.984  27.984  12.984
60355W        W25340  33.836  17.074  11.236
60356W        W25341  32.874  36.503  12.506
60357W        W25342   0.398  21.044  13.846
60358W        W25343  42.043  36.521  13.651
60359W        W25344  37.956  34.057   2.745
60360W        W25345   1.707   3.283  12.528
60361W        W25346  11.342  37.620   1.862
60362W        W25347  23.468  24.656  12.442
60363W        W25348   5.405  29.019   2.289
60364W        W25349   6.234  37.319   3.427
60365W        W25350   5.819  12.349  12.476
60366W        W25351   5.280  28.467   3.579
60367W        W25352  36.592   7.278  11.650
60368W        W25353  43.856  34.488   1.434
60369W        W25354  33.883  10.745   1.923
60370W        W25355  14.656  19.764  12.981
60371W        W25356  22.248  15.575  11.245
60372W        W25357  35.686  43.723  13.394
60373W        W25358  17.125  10.774  11.892
60374W        W25359   0.964  31.779  10.643
60375W        W25360  33.129  31.661   4.037
60376W        W25361  10.113  43.401  13.032
60377W        W25362  43.379  28.696   2.231
60378W        W25363  34.909  15.774  14.809
60379W        W25364  22.494  25.002   2.797
60380W        W25365  25.954  15.836   3.073
60381W        W25366  27.181   5.669   1.667
60382W        W25367   7.434  31.073   4.955
60383W        W25368   0.481   2.207   1.784
60384W        W25369   1.738  42.284   1.049
60385W        W25370  11.199  11.087  11.553
60386W        W25371   1.403   4.214  14.028
60387W        W25372   6.402  33.039  11.542
60388W        W25373  26.184  41.943   1.132
60389W        W25374  41.426   9.778   0.715
60390W        W25375  28.595  14.306  14.660
60391W        W25376  24.180   4.166  11.372
60392W        W25377  38.918  19.806   1.341
60393W        W25378  24.459  33.394  11.875
60394W        W25379  32.491  27.390   2.844
60395W        W25380  16.699   8.365   2.192
60396W        W25381  34.652  36.822   4.823
60397W        W25382  14.835   2.984   0.977
60398W        W25383  13.858   6.204   9.819
60399W        W25384  42.400  38.585   5.172
60400W        W25385  32.100  36.526   2.198
60401W        W25386  11.229   3.824  12.417
60402W        W25387  28.212  23.454   0.181
60403W        W25388   5.763  41.872  13.040
60404W        W25389  15.882  29.457  14.194
60405W        W25390  17.038  21.454  10.653
60406W        W25391   9.342   8.146   2.636
60407W        W25392   2.008  42.418   3.253
60408W        W25393  37.100  13.465   3.964
60409W        W25394  11.587   4.410  11.212
60410W        W25395  23.481  22.597   2.132
60411W        W25396  26.200  27.612   0.975
60412W        W25397  25.586  25.694  14.811
60413W        W25398  22.192  12.693  11.153
60414W        W25399  40.647  30.351  13.659
60415W        W25400  34.834  23.268  10.931
60416W        W25401  42.940  22.180   2.593
60417W        W25402  34.260  26.081  13.891
60418W        W25403   6.156   8.956  12.285
60419W        W25404  20.772  40.868  14.919
60420W        W25405   0.054  22.850  13.771
60421W        W25406  20.730  43.082  11.185
60422W        W25407  23.276  10.373  13.513
60423W        W25408   0.544  11.654  11.392
60424W        W25409  42.608   8.413   4.603
60425W        W25410  13.732  11.070  12.070
60426W        W25411  13.695  33.340   3.626
60427W        W25412   7.610  23.472   0.458
60428W        W25413  44.892  10.593   0.783
60429W        W25414   7.749  13.211   0.820
60430W        W25415  12.616  39.762  12.637
60431W        W25416  12.550  14.742   3.375
60432W        W25417  27.089  26.928  14.450
60433W        W25418  24.812  42.465   0.349
60434W        W25419  41.996  43.538  13.903
60435W        W25420  14.342  20.190   4.552
60436W        W25421  13.651  44.751   4.138
60437W        W25422  42.953  36.414  11.354
60438W        W25423  18.149  14.681   3.054
60439W        W25424  42.109   7.169  13.479
60440W        W25425  39.769  26.540  12.055
60441W        W25426  27.036   6.745   0.243
60442W        W25427  38.046  20.069   1.257
60443W        W25428  25.379  28.194  13.516
60444W        W25429   7.202  17.721  12.969
60445W        W25430   1.750  24.850   1.274
60446W        W25431  27.490  43.224   3.142
60447W        W25432   6.383  29.024   2.226
60448W        W25433  30.906  25.143  14.791
60449W        W25434   7.884  29.620   1.842
60450W        W25435  32.179  43.969   0.344
60451W        W25436  31.181  28.014  11.637
60452W        W25437   5.306  37.471   3.767
60453W        W25438   9.397  14.609   2.613
60454W        W25439   5.400  40.284  13.194
60455W        W25440   8.271  28.959   0.884
60456W        W25441  40.595  22.575   2.367
60457W        W25442  12.366  24.804  13.956
60458W        W25443  36.888  28.382  13.604
60459W        W25444  11.664  20.565  11.180
60460W        W25445   0.268  28.998   3.204
60461W        W25446   9.933  19.703  12.887
60462W        W25447   0.790  21.810   2.399
60463W        W25448  34.796  21.047  10.735
60464W        W25449   3.394  27.701  14.351
60465W        W25450  15.532  37.536  14.983
60466W        W25451  34.886   9.707   2.880
60467W        W25452   8.930   6.968   1.214
60468W        W25453   5.337   0.196   1.873
60469W        W25454  31.600  35.057  12.146
60470W        W25455   0.732   7.407   4.528
60471W        W25456  27.751   4.600   2.263
60472W        W25457  40.730   4.025   3.727
60473W        W25458  23.200  33.503   1.627
60474W        W25459  37.397  41.084   0.281
60475W        W25460  43.966  38.532   5.103
60476W        W25461   3.270   2.936  11.999
60477W        W25462  27.135  27.044   3.386
60478W        W25463  35.376  14.267  13.288
60479W        W25464   9.232   7.044  14.024
60480W        W25465  42.313  33.459  14.960
60481W        W25466  40.257   5.828   4.160
60482W        W25467  39.766  31.614  10.587
60483W        W25468   1.780  43.289   0.795
60484W        W25469  37.523  40.462   4.155
60485W        W25470  25.162   0.333   0.759
60486W        W25471  14.512  12.489  14.787
60487W        W25472  17.795  24.065  14.519
60488W        W25473   5.281  25.715  12.592
60489W        W25474  32.050  16.733   4.871
60490W        W25475   8.234  22.560   4.587
60491W        W25476  24.648  14.377  11.133
60492W        W25477  23.619  34.386  14.074
60493W        W25478  34.376  15.852  13.977
60494W        W25479  39.565  42.976  14.603
60495W        W25480   3.209  18.718   0.820
60496W        W25481   0.428  10.210   1.456
60497W        W25482  37.876  41.557  11.216
60498W        W25483   4.836  32.877   0.530
60499W        W25484  41.413   0.194  11.582
60500W        W25485  15.510  41.448  12.986
60501W        W25486  38.783  28.289  10.875
60502W        W25487  25.120  18.098   0.236
60503W        W25488   6.439  30.058  11.656
60504W        W25489  42.992  37.941   0.296
60505W        W25490  37.066   9.305  12.605
60506W        W25491  33.165  27.035   3.136
60507W        W25492  33.080  44.302   1.858
60508W        W25493  22.354   1.668  13.856
60509W        W25494   5.878  26.277  14.347
60510W        W25495  27.871  38.039   0.283
60511W        W25496  24.240  41.670  13.387
60512W        W25497  36.377  10.670   1.279
60513W        W25498  15.305  29.882  13.443
60514W        W25499  22.496  28.625  10.671
60515W        W25500  10.723  28.127   2.898
60516W        W25501  15.881  44.497   1.817
60517W        W25502   9.637  44.309   4.178
60518W        W25503  39.935  39.514   2.670
60519W        W25504   9.546  20.128  11.276
60520W        W25505  28.028   9.320  14.742
60521W        W25506  27.600  44.716  14.065
60522W        W25507  11.672  26.726  13.440
60523W        W25508  18.125  32.411  14.729
60524W        W25509  22.214  41.537   4.768
60525W        W25510  32.035  39.955   1.797
60526W        W25511  15.426   5.410  14.961
60527W        W25512   3.682  36.975  14.577
60528W        W25513  44.010   1.159  13.833
60529W        W25514  28.695  43.722  11.080
60530W        W25515   1.298  43.540   0.816
60531W        W25516  27.007   2.809   0.617
60532W        W25517  17.104  21.059   3.729
60533W        W25518   3.349  33.752   2.360
60534W        W25519  27.223  26.148   3.212
60535W        W25520  12.136  41.300   2.263
60536W        W25521  18.957   3.877  11.556
60537W        W25522   4.907   0.750  11.640
60538W        W25523  40.217   4.642   2.786
60539W        W25524  30.367  14.358   3.408
60540W        W25525  32.513  37.496  14.027
60541W        W25526  34.482  30.069   0.973
60542W        W25527  30.699  42.413  11.419
60543W        W25528  42.261  31.012  14.353
60544W        W25529   4.848   2.808  12.939
60545W        W25530  24.050   0.687  14.925
60546W        W25531  35.983   2.773  12.993
60547W        W25532  19.321   4.537   0.660
60548W        W25533  26.807   2.929  10.323
60549W        W25534  43.733  44.405  12.369
60550W        W25535  31.178   8.444  13.152
60551W        W25536  28.070  33.928  11.978
60552W        W25537  24.573   7.352   2.015
60553W        W25538  26.618   7.479   2.691
60554W        W25539  25.063  21.132  12.361
60555W        W25540  36.462   9.164  10.766
60556W        W25541   0.209  27.166   2.812
60557W        W25542  25.199  35.035  13.424
60558W        W25543  33.083   7.615  13.022
60559W        W25544   2.813  18.811  11.550
60560W        W25545   6.375  27.330   1.098
60561W        W25546   5.382   5.160  12.496
60562W        W25547  14.286  24.456   0.085
60563W        W25548  42.750   2.214  11.961
60564W        W25549  21.583   2.017  13.576
60565W        W25550   1.163   8.412  11.138
60566W        W25551  14.112  20.218  11.290
60567W        W25552  24.130  29.433  11.543
60568W        W25553   1.603  34.968   4.874
60569W        W25554  24.230  18.234  12.655
60570W        W25555  10.422   4.313   4.149
60571W        W25556  39.871  29.194   4.279
60572W        W25557  42.791  25.398  13.788
60573W        W25558  28.978   9.097  14.812
60574W        W25559  25.523  29.626   3.223
60575W        W25560  16.299  23.037   1.916
60576W        W25561   3.176  31.067  11.980
60577W        W25562  37.391  42.605  11.516
60578W        W25563  34.112  39.989   4.551
60579W        W25564  35.510  23.469   4.640
60580W        W25565  33.092  29.188  11.070
60581W        W25566  35.967   4.412   1.316
60582W        W25567  36.990  33.461  12.440
60583W        W25568  43.364  11.380  12.554
60584W        W25569   6.714   3.697   1.947
60585W        W25570  16.159   7.342   3.647
60586W        W25571   4.170  11.816  11.321
60587W        W25572  40.387  10.569   3.121
60588W        W25573  43.794   6.753   2.369
60589W        W25574  24.177  15.845  11.551
60590W        W25575   8.337   8.817   3.292
60591W        W25576   7.070  36.666  11.151
60592W        W25577  39.555  35.000   0.326
60593W        W25578  37.481  17.859   0.984
60594W        W25579   2.875  20.728   3.374
60595W        W25580  13.914  15.586  14.278
60596W        W25581  22.734   5.182  10.662
60597W        W25582  32.451   9.357   5.454
60598W        W25583  34.100  42.059  11.965
60599W        W25584  30.124  39.368   3.048
60600W        W25585   3.294  39.940   4.310
60601W        W25586   7.792  22.205  13.981
60602W        W25587   3.130  19.708   2.854
60603W        W25588  37.880  11.117  10.679
60604W        W25589  32.862  40.429  11.160
60605W        W25590  36.664  17.120   4.592
60606W        W25591  37.815   8.222  13.437
60607W        W25592  14.105  14.114   1.258
60608W        W25593  14.009   2.384   1.882
60609W        W25594  27.108  27.504  10.385
60610W        W25595  35.823  13.157  12.093
60611W        W25596  35.913   2.690   3.676
60612W        W25597   1.492   3.058   0.816
60613W        W25598  26.171  16.046   2.663
60614W        W25599  16.316  29.804   9.819
60615W        W25600  38.057  19.567  14.027
60616W        W25601  32.634  42.084  11.213
60617W        W25602   0.446  29.992  12.472
60618W        W25603  26.763   5.939  11.069
60619W        W25604  17.728  19.572  13.255
60620W        W25605   6.021  18.005   2.403
60621W        W25606   0.816  16.773   2.180
60622W        W25607  21.146  40.912  14.311
60623W        W25608  28.232   1.744   1.892
60624W        W25609   6.848   7.721   2.082
60625W        W25610  31.184  44.069  10.690
60626W        W25611   2.009  31.561   4.653
60627W        W25612  28.763  43.758   4.475
60628W        W25613  13.987  38.149   3.035
60629W        W25614   6.405  15.379  14.710
60630W        W25615  24.346  31.586   2.154
60631W        W25616  39.554  38.698  10.791
60632W        W25617  18.176  12.660  11.316
60633W        W25618  22.626  36.567  13.484
60634W        W25619   7.659   5.167   3.248
60635W        W25620  14.728  12.899  12.547
60636W        W25621  28.404  36.761   0.067
60637W        W25622  19.805  40.786   3.797
60638W        W25623   7.304  37.887   4.249
60639W        W25624  41.063  39.051  12.430
60640W        W25625  17.996  15.217  14.927
60641W        W25626   3.447  41.412   0.711
60642W        W25627  30.500  14.733  14.848
60643W        W25628  26.602  10.848  13.055
60644W        W25629  26.421  41.298   3.208
60645W        W25630   5.269   0.848   3.150
60646W        W25631  29.937  31.885   2.756
60647W        W25632  15.753  23.559   2.437
60648W        W25633  17.398  18.634   4.965
60649W        W25634  44.027  10.361   2.931
60650W        W25635  24.536  36.944   0.455
60651W        W25636   5.852   2.165  13.154
60652W        W25637  26.980  23.516  11.649
60653W        W25638  13.001  41.179   0.345
60654W        W25639   2.437   6.692   4.169
60655W        W25640   5.455   0.621  12.534
60656W        W25641   3.997   4.945   1.682
60657W        W25642  24.671  34.869  10.642
60658W        W25643  31.934   7.685   1.463
60659W        W25644   6.282  25.017  11.471
60660W        W25645  36.122  31.369   4.536
60661W        W25646  37.660   1.469   1.266
60662W        W25647  12.842  26.147   2.226
60663W        W25648   0.817  32.906   4.655
60664W        W25649  34.289  11.306  13.333
60665W        W25650  27.534   4.226   1.957
60666W        W25651  38.443  29.214   3.656
60667W        W25652  18.860   5.290  10.614
60668W        W25653  17.027  31.962  13.287
60669W        W25654  32.440  35.420   0.028
60670W        W25655  25.064  12.315   1.151
60671W        W25656  17.897   8.642  14.308
60672W        W25657  39.091  40.045  12.387
60673W        W25658  39.349  13.328   1.927
60674W        W25659  12.751   3.961   1.725
60675W        W25660  29.980  26.897  13.592
60676W        W25661  12.329  31.662   3.547
60677W        W25662  31.370   0.357  14.885
60678W        W25663  30.394  17.830  12.917
60679W        W25664  25.083  24.907  12.884
60680W        W25665  41.523   8.533  14.806
60681W        W25666  14.841   7.101   2.757
60682W        W25667  36.030  36.506   0.852
60683W        W25668  43.639  34.905  12.801
60684W        W25669  34.103   2.957   0.081
60685W        W25670  31.951  12.769  13.975
60686W        W25671  31.824  33.433  13.602
60687W        W25672  12.567  43.706   0.639
60688W        W25673  43.995  24.366  10.654
60689W        W25674  18.269  30.637  10.954
60690W        W25675  40.334  23.520   0.706
60691W        W25676   9.740   3.798   4.129
60692W        W25677  37.501  31.383  10.930
60693W        W25678   9.227  21.234   2.689
60694W        W25679  17.767  28.058  14.926
60695W        W25680  12.466  40.989  14.783
60696W        W25681  18.549   7.861  10.599
60697W        W25682   7.449  41.944   0.822
60698W        W25683  38.780  29.338  14.503
60699W        W25684  37.146  32.688  13.949
60700W        W25685  14.198  22.081   3.926
60701W        W25686  42.737  19.954  10.247
60702W        W25687  38.283  14.799  10.531
60703W        W25688  36.890   9.773  12.445
60704W        W25689  13.540  27.261  14.386
60705W        W25690   0.511   8.174  12.845
60706W        W25691   5.412  17.700  12.516
60707W        W25692  22.576   9.684   3.101
60708W        W25693   1.716  19.818   4.359
60709W        W25694  28.553  39.791  11.932
60710W        W25695  37.917   1.469  11.142
60711W        W25696  13.248  27.522  13.505
60712W        W25697  44.546  32.679  13.609
60713W        W25698  26.701  32.132  13.501
60714W        W25699  42.329  21.387   2.755
60715W        W25700  16.415   8.837   1.464
60716W        W25701  21.914   7.835   0.321
60717W        W25702  40.936  28.089  11.677
60718W        W25703   0.037  25.691  11.805
60719W        W25704  19.250  44.859   2.056
60720W        W25705   4.398  13.359   3.315
60721W        W25706   9.960  33.722  14.940
60722W        W25707  32.204  11.891   3.712
60723W        W25708   2.375  17.527   2.481
60724W        W25709  19.667  28.162  13.514
60725W        W25710  37.888   3.430  13.366
60726W        W25711  41.523   2.865  13.755
60727W        W25712  28.855  15.790   4.563
60728W        W25713   5.306  40.035  14.930
60729W        W25714  37.356  16.569   3.204
60730W        W25715   7.854  33.008  12.799
60731W        W25716  41.216  43.400   3.355
60732W        W25717  36.429   8.115  13.356
60733W        W25718   8.107  11.368   2.387
60734W        W25719  11.677  17.032   4.148
60735W        W25720  31.042   2.920   1.236
60736W        W25721  15.170  39.045   4.283
60737W        W25722  28.545  11.603   2.630
60738W        W25723  17.221  37.335   0.882
60739W        W25724  13.556  14.722   2.150
60740W        W25725  30.952  42.469   0.995
60741W        W25726  36.370   5.310  12.590
60742W        W25727  20.524   0.623   0.866
60743W        W25728   7.231  11.864   3.764
60744W        W25729  31.105  12.603  12.644
60745W        W25730  21.973  41.816   0.334
60746W        W25731  30.420  36.864  11.566
60747W        W25732  42.008   3.927   0.783
60748W        W25733   8.319  36.560  13.071
60749W        W25734  23.553  21.688  12.483
60750W        W25735  40.308  42.261   1.258
60751W        W25736  17.292  34.773  13.592
60752W        W25737  20.147   2.432   2.663
60753W        W25738  26.912  38.474   1.291
60754W        W25739  27.123  32.303   5.184
60755W        W25740   7.045  15.735   3.023
60756W        W25741   6.820  40.522  13.545
60757W        W25742  14.147  25.020  11.632
60758W        W25743  40.126  40.365   3.365
60759W        W25744  42.448  27.771  13.393
60760W        W25745  41.478  37.469   0.296
60761W        W25746  42.682   3.551   4.060
60762W        W25747  34.009  19.749   2.212
60763W        W25748  15.074  36.533   0.045
60764W        W25749   3.346  36.547   0.709
60765W        W25750  39.872  15.581   1.855
60766W        W25751  14.374  42.109  12.072
60767W        W25752  44.079   5.854  10.249
60768W        W25753   3.974  25.240   3.090
60769W        W25754  20.331  15.457   1.077
60770W        W25755  21.373  31.168  12.557
60771W        W25756   1.649  37.797   3.185
60772W        W25757  31.441   5.313  10.617
60773W        W25758  23.622  16.171  14.706
60774W        W25759   9.813  25.976   3.730
60775W        W25760  41.569  36.416  12.949
60776W        W25761  33.317   5.687   3.831
60777W        W25762  12.176  23.476   2.607
60778W        W25763   9.869   7.824   1.359
60779W        W25764  24.939  21.263  10.187
60780W        W25765   4.820  32.271   4.351
60781W        W25766  13.658  30.687   2.383
60782W        W25767  44.555  14.994  10.317
60783W        W25768   3.266  41.398   2.579
60784W        W25769  32.900  33.591   3.667
60785W        W25770  27.224  29.262   2.815
60786W        W25771   5.701  33.567   0.230
60787W        W25772  13.694  38.352   4.211
60788W        W25773   9.678   4.639  12.395
60789W        W25774   1.032  22.977  12.954
60790W        W25775  41.280  19.853  11.400
60791W        W25776  21.458  30.825  14.464
60792W        W25777  34.155  35.852   2.342
60793W        W25778   8.733   8.942  12.453
60794W        W25779   4.718  30.524  10.557
60795W        W25780  18.659  20.492  12.803
60796W        W25781  18.083  40.864   0.492
60797W        W25782  14.998  34.533   0.763
60798W        W25783  30.650  22.611   3.180
60799W        W25784  32.253  10.613   2.710
60800W        W25785  29.477  30.272  13.860
60801W        W25786   6.662  29.911   1.894
60802W        W25787  21.717  28.522  10.971
60803W        W25788  17.249  41.409   0.780
60804W        W25789  15.872  30.425  14.311
60805W        W25790  36.419  29.481   3.088
60806W        W25791  14.717  33.925   4.074
60807W        W25792  41.194   7.290  11.650
60808W        W25793   5.358  40.323   4.357
60809W        W25794  10.576   5.478   1.861
60810W        W25795   3.492  36.550   2.655
60811W        W25796  21.736   6.237  11.348
60812W        W25797   3.426   7.442   3.769
60813W        W25798   0.058  39.512   3.672
60814W        W25799  21.685  13.924   1.891
60815W        W25800  26.879   5.388  14.837
60816W        W25801  11.346  16.747  10.737
60817W        W25802  28.424   3.266  13.910
60818W        W25803  43.557   7.212  12.555
60819W        W25804  38.892   3.548  11.667
60820W        W25805  15.302  20.202  10.658
60821W        W25806  18.615  32.055  11.964
60822W        W25807  12.834   6.714  14.770
60823W        W25808  37.484  27.118   1.223
60824W        W25809  15.617  21.846   4.712
60825W        W25810   8.996  44.086   3.108
60826W        W25811  10.838  42.722   0.449
60827W        W25812  24.979   7.425   4.951
60828W        W25813  29.373   5.493   2.734
60829W        W25814  29.776  23.590  12.950
60830W        W25815  31.675  37.785   3.162
60831W        W25816  27.599   4.463  10.323
60832W        W25817  25.921  16.438   4.586
60833W        W25818   7.313  35.120   1.880
60834W        W25819   5.140   5.582  11.589
60835W        W25820   0.745   4.798  14.649
60836W        W25821  31.665  42.695   4.041
60837W        W25822  35.874  27.933   1.432
60838W        W25823  25.187  10.785   4.755
60839W        W25824  22.305  21.116   0.720
60840W        W25825  17.278   3.836  10.704
60841W        W25826  18.747  44.919  14.698
60842W        W25827  31.101  41.074   4.541
60843W        W25828  19.532  28.175  12.165
60844W        W25829  21.679  41.320   3.919
60845W        W25830   7.063  29.082  10.569
60846W        W25831  33.347  20.014   1.626
60847W        W25832  23.222   1.574  11.180
60848W        W25833  44.321  34.515   2.791
60849W        W25834   4.684  33.005  13.403
60850W        W25835  37.992  14.828  12.936
60851W        W25836  26.617  43.430   2.293
60852W        W25837  27.156  32.892  11.832
60853W        W25838  26.987  13.461   1.565
60854W        W25839  24.983  32.872   0.138
60855W        W25840   5.707   4.579  10.838
60856W        W25841  28.647  34.773  13.019
60857W        W25842  19.606   7.372  13.662
60858W        W25843  42.072  42.811   1.483
60859W        W25844   6.476   8.100  11.949
60860W        W25845  30.242  14.752   1.724
60861W        W25846  37.421  23.535   2.907
60862W        W25847   4.397  25.229  12.807
60863W        W25848  30.479  15.867   0.775
60864W        W25849  36.380  24.983  12.744
60865W        W25850   1.974  23.740  11.589
60866W        W25851   3.162  22.597   0.042
60867W        W25852   7.495  19.084   1.867
60868W        W25853   7.649  39.850   4.121
60869W        W25854  31.124  38.412   4.766
60870W        W25855  21.672  13.284  14.863
60871W        W25856   5.641  19.738   1.385
60872W        W25857  17.480  18.158  13.267
60873W        W25858  21.569  33.606   3.190
60874W        W25859  28.491  35.315  11.659
60875W        W25860  16.268  38.333   3.692
60876W        W25861  20.381  18.585   2.279
60877W        W25862   3.914   3.990   1.205
60878W        W25863  33.082   7.345  14.465
60879W        W25864  35.087  43.935  11.582
60880W        W25865  14.018  40.431  14.303
60881W        W25866  43.689  24.238  11.911
60882W        W25867  31.921  19.043   1.799
60883W        W25868  38.605   0.815  13.901
60884W        W25869   6.089  33.355   2.878
60885W        W25870   3.047  36.896  11.550
60886W        W25871   7.449   6.266  14.731
60887W        W25872  14.149  33.988  11.240
60888W        W25873  43.377  27.177   2.438
60889W        W25874  13.632  34.168  12.710
60890W        W25875  27.077  35.857   2.380
60891W        W25876   4.400   9.524   1.193
60892W        W25877   1.221  12.727   4.205
60893W        W25878  25.620  44.542  11.188
60894W        W25879  15.447   7.305  14.782
60895W        W25880  39.985   9.714  11.125
60896W        W25881  12.561  35.051  12.418
60897W        W25882  23.965  22.254   0.867
60898W        W25883   2.899  17.520   2.661
60899W        W25884  18.165   3.855   0.777
60900W        W25885   2.205   4.032   1.366
60901W        W25886  23.272  20.238   0.271
60902W        W25887   2.853  17.303  12.440
60903W        W25888  44.226  44.078   1.757
60904W        W25889  11.337  36.403   2.324
60905W        W25890  37.669   2.383   1.167
60906W        W25891  11.736   6.784  12.950
60907W        W25892  26.901  10.729   4.091
60908W        W25893  38.572  19.551   1.818
60909W        W25894   4.314  15.762  14.022
60910W        W25895  10.684  29.542  14.814
60911W        W25896  33.624  20.481  13.891
60912W        W25897   5.365  28.412   1.689
60913W        W25898   1.934  18.888   4.215
60914W        W25899  37.838   4.463  11.889
60915W        W25900  26.054  23.003   0.283
60916W        W25901  39.477  44.260  12.928
60917W        W25902   8.104  34.113   4.081
60918W        W25903   2.736  22.740   3.260
60919W        W25904  26.453   5.941  11.487
60920W        W25905  11.098   8.793  14.874
60921W        W25906  18.152   3.979   0.178
60922W        W25907  31.579  12.242  14.532
60923W        W25908   1.984  32.118   5.060
60924W        W25909   8.455  34.169   2.847
60925W        W25910   2.221  40.070  12.081
60926W        W25911   8.422  29.463   3.781
60927W        W25912  42.315  44.733   4.082
60928W        W25913  37.158  37.129   0.006
60929W        W25914  28.233  21.102  10.730
60930W        W25915  42.443   9.188  13.819
60931W        W25916  22.637  33.214   1.873
60932W        W25917  26.727   1.898   1.658
60933W        W25918  33.144  26.864  12.794
60934W        W25919  36.509   0.226   0.841
60935W        W25920  24.191  35.986  12.144
60936W        W25921   5.464   3.367   0.207
60937W        W25922  21.730  16.023   2.592
60938W        W25923  34.656  15.611   1.803
60939W        W25924   4.652  34.989   4.506
60940W        W25925   9.564  37.362   2.771
60941W        W25926  41.797  14.624   4.754
60942W        W25927  23.054   3.136   0.959
60943W        W25928  36.371   6.169  10.344
60944W        W25929  42.100  38.069  10.336
60945W        W25930  16.341  33.902  13.964
60946W        W25931  19.613  43.716  13.530
60947W        W25932  38.286  24.002  13.598
60948W        W25933  40.458  20.566   1.556
60949W        W25934  17.818   1.884  14.038
60950W        W25935  16.770  27.992  10.953
60951W        W25936  18.396  20.735   4.516
60952W        W25937  23.586   3.294   1.656
60953W        W25938  14.192   0.405   3.127
60954W        W25939  11.322  29.953  12.551
60955W        W25940  28.960  16.578   2.170
60956W        W25941  15.970  30.478  10.639
60957W        W25942  31.196  27.010  10.962
60958W        W25943  15.137  30.611   0.475
60959W        W25944  19.798  32.429  14.920
60960W        W25945  33.723  18.836  14.773
60961W        W25946   6.238   9.103  11.721
60962W        W25947   9.589  26.577  11.568
60963W        W25948  17.517  23.071   4.216
60964W        W25949  29.464   2.895   3.454
60965W        W25950  22.988  23.604   1.860
60966W        W25951  28.101  38.148   1.438
60967W        W25952  43.827  19.351  11.936
60968W        W25953  14.077  19.573   2.225
60969W        W25954  14.136   9.530   0.927
60970W        W25955  20.603  23.574  10.336
60971W        W25956   8.816  30.826   3.886
60972W        W25957  17.930  23.644  14.272
60973W        W25958  32.108  12.629   0.280
60974W        W25959   4.230  40.528  11.520
60975W        W25960  18.340  32.224   2.498
60976W        W25961  30.466  36.552  12.656
60977W        W25962   6.299  16.249  13.546
60978W        W25963   2.460  14.088   0.883
60979W        W25964  12.591  23.699   1.258
60980W        W25965  33.017   6.194   2.364
60981W        W25966   5.142  26.639  12.444
60982W        W25967   9.893  12.916  14.428
60983W        W25968  28.629  31.181   3.252
60984W        W25969  32.468  31.400   3.189
60985W        W25970  42.131  30.712  11.626
60986W        W25971  39.283  26.239  14.031
60987W        W25972   9.478  44.251   3.103
60988W        W25973  31.412  41.349   1.300
60989W        W25974  38.436   5.382  14.289
60990W        W25975  40.169  30.950  11.974
60991W        W25976  11.847   8.727   2.160
60992W        W25977  37.290  37.483   4.560
60993W        W25978  21.521  30.022  14.922
60994W        W25979   7.204  31.809  12.739
60995W        W25980  36.096  33.161   2.094
60996W        W25981  22.481  21.283  11.609
60997W        W25982  15.725  41.017   0.281
60998W        W25983  13.885   0.941   1.829
60999W        W25984   3.615  13.417   0.551
61000W        W25985  19.826  42.948  11.172
61001W        W25986  25.974  17.038   2.658
61002W        W25987  35.400   6.202   4.048
61003W        W25988  20.447  30.466   0.525
61004W        W25989   2.427   9.233  12.510
61005W        W25990  11.174  35.440   0.815
61006W        W25991  29.550   7.432   3.205
61007W        W25992  13.699  23.119   2.441
61008W        W25993   5.365   0.570   4.101
61009W        W25994  30.726   8.963   2.175
61010W        W25995   2.315  34.503   0.269
61011W        W25996   7.714  12.570  14.803
61012W        W25997  26.107  30.972  13.058
61013W        W25998  19.658   5.455  10.115
61014W        W25999  15.300  34.502   2.714
61015W        W26000   3.025  15.589  12.529
61016W        W26001   4.677  43.508  11.990
61017W        W26002  36.915  44.276  11.043
61018W        W26003  16.528  34.377  13.890
61019W        W26004  20.128  16.543   3.286
61020W        W26005   2.741  22.788  14.795
61021W        W26006  41.883  30.343   1.351
61022W        W26007  20.044  24.127   2.002
61023W        W26008  20.335  41.846  13.976
61024W        W26009   6.849  41.308  14.201
61025W        W26010   1.853  28.093  13.017
61026W        W26011   5.152  43.845   3.230
61027W        W26012  20.605  24.297  13.444
61028W        W26013  10.803  28.346  13.160
61029W        W26014  34.575  24.749  10.788
61030W        W26015  29.539  30.322   0.294
61031W        W26016  15.646  41.944  11.639
61032W        W26017  43.386  42.003  11.035
61033W        W26018   4.065  18.178  11.940
61034W        W26019  26.473  24.802  12.512
61035W        W26020  27.547   0.830  14.595
61036W        W26021   1.241  39.792  11.208
61037W        W26022  11.419  43.974  12.225
61038W        W26023  37.001  20.303  10.686
61039W        W26024  18.752  41.006  12.943
61040W        W26025  20.024  12.095   4.138
61041W        W26026  33.819  42.786   2.661
61042W        W26027  30.917  15.396   4.073
61043W        W26028  17.797  42.397  14.769
61044W        W26029  15.014   4.260  12.473
61045W        W26030  35.822  37.316   4.171
61046W        W26031  39.066  30.046  12.419
61047W        W26032  41.833  26.180  14.506
61048W        W26033   5.795  38.975   4.580
61049W        W26034  31.623   6.574   1.673
61050W        W26035  24.180  32.939  11.911
61051W        W26036  17.400  30.408   2.724
61052W        W26037  35.210  14.617   4.799
61053W        W26038  17.690  26.941   1.274
61054W        W26039  18.800  29.466  14.328
61055W        W26040   0.805  22.531  13.527
61056W        W26041  25.987  18.786  14.230
61057W        W26042  16.932  26.284  12.375
61058W        W26043  31.645  29.833  14.973
61059W        W26044   6.659   5.790   2.684
61060W        W26045  16.763  12.209   2.047
61061W        W26046  16.335  42.971  14.458
61062W        W26047  20.281  30.438   3.040
61063W        W26048  16.573  39.458   0.793
61064W        W26049  39.405  43.609  10.762
61065W        W26050  25.852  37.113   1.932
61066W        W26051  13.532  19.495   1.793
61067W        W26052  27.795  20.118   4.541
61068W        W26053  16.645  22.483  14.032
61069W        W26054  42.714   5.209  14.454
61070W        W26055  12.558  35.391  11.613
61071W        W26056  24.495  19.033   0.388
61072W        W26057  12.684  35.562   4.744
61073W        W26058  31.963  13.118  12.147
61074W        W26059  23.118   4.760   1.613
61075W        W26060   8.751   2.803   1.294
61076W        W26061  34.710   1.427   0.611
61077W        W26062  13.614  23.220  14.337
61078W        W26063  38.536  37.109   1.367
61079W        W26064  27.520  26.902  12.012
61080W        W26065  17.161  14.740  13.605
61081W        W26066   4.592  38.185   1.473
61082W        W26067   1.320  42.260  12.639
61083W        W26068  37.627   6.715   0.791
61084W        W26069  21.191  39.630  13.827
61085W        W26070   9.703  15.365   2.687
61086W        W26071   7.696  44.923   0.798
61087W        W26072  20.616   2.476  10.739
61088W        W26073  12.133  18.790   1.817
61089W        W26074  25.068   2.750   4.164
61090W        W26075  22.652   7.653   2.727
61091W        W26076  34.600   4.616  13.143
61092W        W26077  10.589   3.318  13.959
61093W        W26078  28.901  14.056  14.335
61094W        W26079   7.945  34.583  10.702
61095W        W26080   1.026  23.180  11.725
61096W        W26081  39.373   2.663  12.693
61097W        W26082  31.639  11.361  12.529
61098W        W26083  13.675   7.031   3.731
61099W        W26084  16.228  24.592   4.024
61100W        W26085  20.160   2.134   0.015
61101W        W26086  29.892  18.504  14.950
61102W        W26087  28.919   9.721   3.750
61103W        W26088  23.272  24.814  13.052
61104W        W26089   4.729  12.815  13.585
61105W        W26090   3.094  34.791  13.767
61106W        W26091  19.881  20.553   3.369
61107W        W26092  33.200  15.053   2.410
61108W        W26093  21.120   7.865   0.029
61109W        W26094   7.399  30.114  10.628
61110W        W26095   1.434  37.737  12.245
61111W        W26096  33.317  31.372  11.248
61112W        W26097  17.176  28.050   0.943
61113W        W26098  15.140  37.584   3.836
61114W        W26099   2.636  26.247  12.060
61115W        W26100  10.269  41.304   4.211
61116W        W26101  21.519  21.461  12.525
61117W        W26102   3.862  36.309   3.550
61118W        W26103  13.808  38.061   2.573
61119W        W26104   6.627  26.498   3.180
61120W        W26105  35.386  40.394   4.256
61121W        W26106  37.867  34.467   1.627
61122W        W26107  32.452  27.140   0.782
61123W        W26108  44.843  11.092   0.677
61124W        W26109  31.868  26.803  13.924
61125W        W26110  43.557  35.505  13.681
61126W        W26111  14.742  17.462   4.471
61127W        W26112   4.221   5.173  10.970
61128W        W26113  37.617  12.485   1.033
61129W        W26114  30.996  40.459  10.609
61130W        W26115   8.394  29.183  13.551
61131W        W26116  17.677   4.265  12.232
61132W        W26117  24.109  37.085   0.766
61133W        W26118  31.476  16.877  11.460
61134W        W26119  14.853  18.068   0.967
61135W        W26120  35.050  23.976  14.917
61136W        W26121   0.793  19.264   2.358
61137W        W26122   1.431  10.098  11.848
61138W        W26123   3.879  43.306   3.882
61139W        W26124   1.431  39.749   0.266
61140W        W26125  29.017  36.546  13.124
61141W        W26126  26.631  35.650   2.207
61142W        W26127  37.952   0.317  11.845
61143W        W26128  37.948  10.207   4.300
61144W        W26129  13.923   2.872  14.201
61145W        W26130  27.553  15.774  12.943
61146W        W26131  42.281  36.930   2.287
61147W        W26132  20.471  25.510   4.534
61148W        W26133   3.434   4.934   3.268
61149W        W26134  17.599  24.751   1.260
61150W        W26135  25.194   7.400   3.593
61151W        W26136  12.857  32.908  11.560
61152W        W26137  25.515  41.038  12.426
61153W        W26138  11.719  39.760   3.683
61154W        W26139  36.300  33.742  11.136
61155W        W26140  30.377  12.354  14.536
61156W        W26141  12.577  12.417   0.916
61157W        W26142   7.439  19.323  13.098
61158W        W26143   2.497  37.423  12.907
61159W        W26144  22.283   6.088   0.835
61160W        W26145   0.067   9.809   0.025
61161W        W26146  30.367   8.736  11.685
61162W        W26147  16.527  18.753   4.580
61163W        W26148  30.155  21.812   3.967
61164W        W26149  39.536  38.981  12.601
61165W        W26150   9.860  43.379  14.791
61166W        W26151  32.041  26.681   2.352
61167W        W26152   4.023  38.465  13.040
61168W        W26153   8.316  34.196  10.741
61169W        W26154   6.948  16.993  11.968
61170W        W26155   0.519  32.141  11.509
61171W        W26156  13.587  31.727   4.508
61172W        W26157  41.608  13.695  13.064
61173W        W26158   1.051  34.996   3.109
61174W        W26159  44.905  42.582   4.792
61175W        W26160  16.726  10.717   3.014
61176W        W26161  22.226  37.021  10.540
61177W        W26162  18.197  34.688   4.944
61178W        W26163  43.809  30.544  14.864
61179W        W26164   8.120  18.013   3.686
61180W        W26165  42.999  10.949   0.887
61181W        W26166  27.345  14.616   0.842
61182W        W26167  34.039  42.887  14.680
61183W        W26168   1.683  26.928   4.277
61184W        W26169   2.905  36.636  11.967
61185W        W26170  20.576  31.991   0.337
61186W        W26171  12.875  27.219  12.922
61187W        W26172   8.587  28.401   3.728
61188W        W26173  14.572  31.445   2.801
61189W        W26174  11.998  36.018  13.455
61190W        W26175  43.042   4.792  10.717
61191W        W26176   0.712  34.178  12.445
61192W        W26177  38.125  43.606   2.927
61193W        W26178  40.950   0.910  14.355
61194W        W26179  37.367  40.902   4.927
61195W        W26180  16.285  17.339  10.628
61196W        W26181  32.448  29.494   3.809
61197W        W26182  28.909  44.332   4.104
61198W        W26183  44.507  22.125   1.713
61199W        W26184  17.134  39.319  14.897
61200W        W26185  36.052   8.820   3.904
61201W        W26186  42.838  20.401  13.399
61202W        W26187  35.385  13.946   4.971
61203W        W26188  23.051   1.505   3.162
61204W        W26189  10.874  33.498   4.161
61205W        W26190  29.379  28.794  11.245
61206W        W26191  26.243  26.822   0.294
61207W        W26192  30.102  19.633  11.942
61208W        W26193  15.894  25.207  12.895
61209W        W26194  24.133  11.366  11.411
61210W        W26195  42.421  40.130   2.319
61211W        W26196  21.125  16.224  13.952
61212W        W26197  11.139  24.771   4.438
61213W        W26198  41.663  10.607  11.452
61214W        W26199  36.967  19.978   0.438
61215W        W26200  23.099  11.704  11.474
61216W        W26201  38.105   6.743   3.133
61217W        W26202  25.207  32.859   3.075
61218W        W26203  10.725   5.314   4.901
61219W        W26204  16.636  39.082  12.930
61220W        W26205  34.010  36.596  11.985
61221W        W26206  33.059  27.447  11.201
61222W        W26207  14.417  26.666  12.369
61223W        W26208  42.725  22.416  12.774
61224W        W26209  27.495  42.356  12.349
61225W        W26210  36.519  40.513  11.485
61226W        W26211  19.269  13.651   0.973
61227W        W26212  34.210  42.335   0.833
61228W        W26213   1.151  30.991  12.145
61229W        W26214   4.959  15.748  11.612
61230W        W26215  18.609   0.309   0.549
61231W        W26216  10.475  15.112  14.506
61232W        W26217  22.633  19.493   0.948
61233W        W26218  23.679  12.161   2.191
61234W        W26219  12.752  13.027   1.393
61235W        W26220  36.508   8.645   3.765
61236W        W26221  22.953  11.643  14.391
61237W        W26222  38.393   5.677  13.873
61238W        W26223  30.054  32.134  10.322
61239W        W26224  17.474  10.745   0.805
61240W        W26225  37.911  16.597  13.339
61241W        W26226  24.178  22.258   0.387
61242W        W26227  33.988  36.972   1.333
61243W        W26228  35.440   3.856   0.898
61244W        W26229  32.103  19.481   0.814
61245W        W26230  28.084   3.901   3.898
61246W        W26231   3.183   0.962  13.192
61247W        W26232  25.306   2.507   0.305
61248W        W26233  37.431   7.573  14.495
61249W        W26234  44.969   5.421  13.436
61250W        W26235  23.580  25.613  11.605
61251W        W26236  18.374   4.450   2.228
61252W        W26237  35.064  14.790  10.691
61253W        W26238   8.051  18.794   1.950
61254W        W26239  24.977   9.023  14.440
61255W        W26240  38.401  23.585  11.573
61256W        W26241  31.884  26.218  11.876
61257W        W26242  12.201   3.838   3.402
61258W        W26243  23.188   4.776  14.412
61259W        W26244  38.959   8.172   0.128
61260W        W26245  22.935  19.154   3.712
61261W        W26246  33.592  13.565   1.954
61262W        W26247  37.342  23.245   0.289
61263W        W26248  21.841  23.727   4.032
61264W        W26249  29.604  30.801  11.893
61265W        W26250  24.121  14.394   4.106
61266W        W26251   7.620   8.858  12.268
61267W        W26252  28.625  27.272   3.284
61268W        W26253  42.815  28.899  12.950
61269W        W26254  30.581  13.774  11.623
61270W        W26255  32.489  34.365   3.588
61271W        W26256  18.115  27.024   0.331
61272W        W26257  35.956  42.702  13.538
61273W        W26258  42.372  20.738   1.829
61274W        W26259  24.583  34.495  13.842
61275W        W26260  39.020  29.986   4.655
61276W        W26261   8.433   4.976  12.091
61277W        W26262  24.961   5.966  13.043
61278W        W26263  31.640  33.817   3.677
61279W        W26264  14.068  17.767   0.591
61280W        W26265  15.830  34.650   3.236
61281W        W26266  29.943  22.328  13.189
61282W        W26267   3.118  10.085  10.483
61283W        W26268  26.661  11.325  13.806
61284W        W26269  44.246  28.383  12.449
61285W        W26270  33.375  40.484  14.817
61286W        W26271   6.958  42.072  14.988
61287W        W26272  34.524  30.193  13.872
61288W        W26273   6.834  41.137   1.581
61289W        W26274  11.552  18.249   1.418
61290W        W26275   0.776   9.346  12.412
61291W        W26276  23.564  17.133  13.549
61292W        W26277   8.321  18.371   2.109
61293W        W26278  36.344   0.746  14.005
61294W        W26279  13.102  24.162  14.546
61295W        W26280   1.210  43.119  13.841
61296W        W26281  35.435  44.188   0.595
61297W        W26282  24.162  23.968   3.699
61298W        W26283   8.849  33.098  14.893
61299W        W26284  36.932  40.367   1.404
61300W        W26285   8.860  31.056  14.816
61301W        W26286  32.320   2.458  12.218
61302W        W26287   3.956  30.586   0.236
61303W        W26288  10.602  14.793   3.532
61304W        W26289   6.853  28.860   4.054
61305W        W26290   0.509  36.334   3.776
61306W        W26291  42.524   8.703   3.666
61307W        W26292  32.148  40.202  12.506
61308W        W26293  24.691  17.088  14.395
61309W        W26294  26.980  25.462  11.086
61310W        W26295  33.678  41.761  11.952
61311W        W26296  29.054  25.722  12.935
61312W        W26297  23.671   1.380  14.258
61313W        W26298  32.412  23.647  14.572
61314W        W26299  14.546  35.451   4.766
61315W        W26300  23.144  15.167  14.044
61316W        W26301  41.123  37.916  10.688
61317W        W26302  11.896  38.004   3.184
61318W        W26303  44.801  31.741  11.078
61319W        W26304  40.987  42.877   3.309
61320W        W26305  29.675  13.578   1.375
61321W        W26306  19.587  43.350   2.227
61322W        W26307  33.105  31.070   1.742
61323W        W26308  38.544   7.284  11.818
61324W        W26309  35.644   1.737  13.438
61325W        W26310  32.959  24.462   2.209
61326W        W26311  13.842  32.697  12.842
61327W        W26312   0.217  32.039  13.330
61328W        W26313  25.422   5.428  14.770
61329W        W26314   7.233  34.394  14.792
61330W        W26315  11.447  16.049  10.639
61331W        W26316  22.649  18.643   2.462
61332W        W26317  18.339   2.814   1.913
61333W        W26318   7.093  36.763  14.079
61334W        W26319  42.910  35.820  14.914
61335W        W26320  25.791  17.815   2.846
61336W        W26321  19.998  11.225  11.513
61337W        W26322  21.197   7.673   3.415
61338W        W26323  42.063   4.925   3.137
61339W        W26324  24.943  37.434   4.970
61340W        W26325  38.517   4.456   2.689
61341W        W26326  30.525  11.473   1.902
61342W        W26327  28.008  19.476   4.016
61343W        W26328  40.343  19.547  14.512
61344W        W26329   0.950  15.801  13.579
61345W        W26330   0.220  12.881   3.115
61346W        W26331  38.728  39.571   3.211
61347W        W26332   1.572  23.603   2.023
61348W        W26333   1.086  26.166  11.927
61349W        W26334  39.712  33.967   3.270
61350W        W26335  18.961   8.314   3.306
61351W        W26336  39.340   6.866  14.408
61352W        W26337  14.743  24.143  12.434
61353W        W26338   0.455  44.063   2.212
61354W        W26339  44.460  13.604   3.155
61355W        W26340  29.457  18.626  11.703
61356W        W26341  27.692  22.848   1.975
61357W        W26342  38.895  35.161   2.354
61358W        W26343   6.169   4.838   2.832
61359W        W26344  25.009   7.293   2.289
61360W        W26345  27.627  29.021   4.076
61361W        W26346  11.372  41.937   0.393
61362W        W26347  32.110  44.289  10.852
61363W        W26348  28.714   8.339  13.895
61364W        W26349  13.205   6.813   3.819
61365W        W26350  10.609  16.695  10.498
61366W        W26351  28.950  30.598  13.507
61367W        W26352  22.231  20.801  11.535
61368W        W26353   5.938   1.791  11.795
61369W        W26354  14.746  24.671  11.187
61370W        W26355   0.550  22.439  12.234
61371W        W26356  33.050  27.897   2.376
61372W        W26357  24.223  35.928  13.006
61373W        W26358  29.824   3.252  10.871
61374W        W26359  37.118  23.037  12.096
61375W        W26360   1.162  36.750  12.928
61376W        W26361  41.780  13.831   2.778
61377W        W26362  43.839  25.670  12.330
61378W        W26363  34.832   8.519   2.086
61379W        W26364  15.861   8.268  14.118
61380W        W26365  37.582   6.849  14.095
61381W        W26366  34.854  26.860  12.684
61382W        W26367  39.479  30.155   1.538
61383W        W26368  37.921  43.396  13.451
61384W        W26369  26.064   6.049  13.985
61385W        W26370  35.629  30.962   0.823
61386W        W26371   3.574  18.232  12.850
61387W        W26372  10.913  16.128   3.130
61388W        W26373  23.258  20.983  14.792
61389W        W26374   3.422  11.428   4.559
61390W        W26375  36.786  42.921  14.066
61391W        W26376  25.989  12.770   2.123
61392W        W26377  42.352  40.910   2.875
61393W        W26378  26.793   8.010  11.815
61394W        W26379  42.042  34.077  14.124
61395W        W26380  18.298  38.001   2.552
61396W        W26381  30.596  25.607  14.235
61397W        W26382  42.076  31.100   1.638
61398W        W26383  32.537  34.920  12.906
61399W        W26384  24.692  24.067   4.592
61400W        W26385   8.856   0.930  14.688
61401W        W26386  28.570  41.008   2.720
61402W        W26387  17.072  39.356  13.072
61403W        W26388  16.173  26.949   4.528
61404W        W26389   9.462  39.333  13.568
61405W        W26390  39.543  18.694   3.342
61406W        W26391  27.718  21.759  13.354
61407W        W26392  33.330  43.940  12.418
61408W        W26393  31.265  37.001   2.179
61409W        W26394  10.494   5.887   9.895
61410W        W26395   4.791  30.684  13.556
61411W        W26396  25.545  33.869   0.714
61412W        W26397  28.197  10.278  10.330
61413W        W26398  18.054  10.303  10.577
61414W        W26399  33.565  12.293  12.741
61415W        W26400   1.600  30.832  13.495
61416W        W26401  43.026   0.576   2.822
61417W        W26402   7.333   1.892  12.925
61418W        W26403   7.315  41.024   2.349
61419W        W26404  21.558   3.665  10.685
61420W        W26405  13.741  19.120  13.865
61421W        W26406  21.086  16.714  13.818
61422W        W26407   3.280  26.541   4.778
61423W        W26408   2.261   2.927  14.689
61424W        W26409  24.664  44.995  13.393
61425W        W26410   5.697   8.244  11.418
61426W        W26411  14.740  39.732   4.533
61427W        W26412  10.067  12.034  11.601
61428W        W26413  13.675  33.848   2.389
61429W        W26414   3.856  16.739  10.734
61430W        W26415  20.591   7.712  13.009
61431W        W26416  37.830   7.384  10.631
61432W        W26417  20.686  34.228  11.059
61433W        W26418  30.551   1.239   3.215
61434W        W26419  31.886   9.242  14.036
61435W        W26420   0.452  25.759   1.826
61436W        W26421  42.381  11.087  14.742
61437W        W26422  24.843  13.566   0.735
61438W        W26423  15.244  42.349  12.067
61439W        W26424   0.761  15.646  13.110
61440W        W26425  18.660  15.491   1.581
61441W        W26426  24.270  37.733   2.230
61442W        W26427  21.230   1.694  11.671
61443W        W26428  34.957   2.666   4.037
61444W        W26429  22.520   6.461  13.830
61445W        W26430  35.848  38.438   1.217
61446W        W26431  39.823  43.841   1.690
61447W        W26432  44.495  37.800  11.239
61448W        W26433   6.421   3.840   4.972
61449W        W26434  16.785  23.152  13.523
61450W        W26435  37.797  14.649  10.637
61451W        W26436  13.270   0.122  10.703
61452W        W26437  33.424  35.878   1.425
61453W        W26438  20.380   5.723  12.879
61454W        W26439  12.472  13.345   0.801
61455W        W26440   6.197  10.055   4.147
61456W        W26441   3.182  20.401  11.157
61457W        W26442  44.839  16.371  13.561
61458W        W26443  39.420  18.289   2.017
61459W        W26444  40.350  43.389  12.027
61460W        W26445  22.654  22.271  10.754
61461W        W26446  14.417   9.767   1.331
61462W        W26447  25.183  12.159  12.369
61463W        W26448  32.564  27.729   4.375
61464W        W26449  19.897   6.854   4.522
61465W        W26450  38.633  32.042   5.292
61466W        W26451   0.323   6.156   4.410
61467W        W26452   3.782  37.775   2.007
61468W        W26453  41.318  34.555   3.633
61469W        W26454  32.139  24.851  11.856
61470W        W26455  41.775  18.199   0.110
61471W        W26456  20.974  37.715   2.419
61472W        W26457  19.197   1.679  14.439
61473W        W26458  21.596  28.133  10.472
61474W        W26459  14.888  10.592   3.137
61475W        W26460  18.013  20.690  10.692
61476W        W26461  36.903  24.624  14.278
61477W        W26462   0.968  10.556   0.462
61478W        W26463  35.092  10.692  12.505
61479W        W26464  30.569  27.915  14.054
61480W        W26465   5.471  40.787  13.299
61481W        W26466  25.585  12.741   4.136
61482W        W26467  14.863  14.171  13.084
61483W        W26468  38.172  35.838   1.502
61484W        W26469  14.769   2.288   2.607
61485W        W26470  24.905   2.459  12.042
61486W        W26471  24.682  43.372   0.792
61487W        W26472  38.959  19.181  10.648
61488W        W26473   7.327  22.961  14.381
61489W        W26474  17.281   1.900   1.263
61490W        W26475  19.524  40.158  10.734
61491W        W26476  43.324   4.023   2.405
61492W        W26477  21.527  39.625  13.160
61493W        W26478  29.180  40.957  13.965
61494W        W26479  40.678  22.025   0.490
61495W        W26480  42.770  23.708  13.038
61496W        W26481  10.746   6.333   2.426
61497W        W26482  31.595  24.716  12.685
61498W        W26483  42.292  41.490   2.529
61499W        W26484   3.018  37.935  13.779
61500W        W26485  24.499  11.806  14.516
61501W        W26486  27.703  32.670  14.817
61502W        W26487   2.329  28.441  12.236
61503W        W26488  44.657  40.518  12.589
61504W        W26489   0.130  29.465   2.860
61505W        W26490  19.240  21.675   1.173
61506W        W26491  22.318  15.557  13.841
61507W        W26492  17.514   7.575   3.666
61508W        W26493   4.428   9.756   4.841
61509W        W26494  12.802  34.175   2.676
61510W        W26495  30.872  11.140  11.587
61511W        W26496  26.631  39.140   0.306
61512W        W26497  33.545  28.250  11.450
61513W        W26498   5.339  35.001   0.948
61514W        W26499  23.763  42.560   0.408
61515W        W26500  42.956  32.261  13.594
61516W        W26501  30.564  37.007  13.830
61517W        W26502  37.582  35.584  13.505
61518W        W26503   3.164  44.976   4.155
61519W        W26504  37.796  32.079   1.821
61520W        W26505  32.148  42.310   3.232
61521W        W26506  19.656  12.865  10.639
61522W        W26507  39.780  19.813   4.739
61523W        W26508  35.119  44.487   2.749
61524W        W26509   5.019  32.276  11.177
61525W        W26510   5.430  28.988   2.821
61526W        W26511  20.650   5.773  11.145
61527W        W26512  43.979  34.105   2.754
61528W        W26513   4.913  20.570   4.318
61529W        W26514  25.438  24.947   2.597
61530W        W26515  28.240  23.521  14.458
61531W        W26516  19.782  17.066  11.507
61532W        W26517  34.674  15.159   3.792
61533W        W26518  43.383   1.706  13.503
61534W        W26519  41.912   5.157   4.524
61535W        W26520  41.191  41.212   3.274
61536W        W26521  28.211  32.986  14.223
61537W        W26522  17.048  33.143  11.061
61538W        W26523  18.127  29.219  14.481
61539W        W26524   3.362  29.885  12.430
61540W        W26525  32.966   8.928   3.266
61541W        W26526  24.845  27.663   4.802
61542W        W26527  21.233  42.574   2.808
61543W        W26528  39.743  31.680   4.067
61544W        W26529   9.644  23.997  14.552
61545W        W26530  15.211   4.159  13.015
61546W        W26531  32.858  19.707  14.752
61547W        W26532  25.226  22.498   4.957
61548W        W26533  17.648  28.946  10.527
61549W        W26534  23.409  10.287   3.231
61550W        W26535  35.506  20.344   4.152
61551W        W26536   4.864  34.043   2.507
61552W        W26537  41.331   8.373   4.606
61553W        W26538   7.514  23.271   4.773
61554W        W26539  29.949  15.342   1.819
61555W        W26540  22.623  30.276   9.864
61556W        W26541  29.134  10.161   1.451
61557W        W26542  16.017  10.916   2.749
61558W        W26543   5.395   7.650  12.403
61559W        W26544  11.713  40.960   2.863
61560W        W26545  39.836  19.541   3.176
61561W        W26546  36.691   9.739   4.608
61562W        W26547  11.477  40.109  12.086
61563W        W26548  35.512  41.884   3.830
61564W        W26549  37.514   6.691  13.087
61565W        W26550  27.210  25.465  14.460
61566W        W26551   5.851   1.663  13.361
61567W        W26552  38.144  33.480  14.858
61568W        W26553  29.617  28.989   0.785
61569W        W26554  43.409  17.217  14.812
61570W        W26555   2.853  35.772   2.438
61571W        W26556  31.469  14.845   3.362
61572W        W26557   4.274  19.541   4.229
61573W        W26558  18.744  31.685  12.338
61574W        W26559  30.306  17.379   4.947
61575W        W26560  13.090  27.629   4.639
61576W        W26561  22.375  15.192  12.410
61577W        W26562  17.591  18.988   0.354
61578W        W26563  15.741  18.101   4.830
61579W        W26564  22.943  34.881  14.993
61580W        W26565  28.334   0.824  13.955
61581W        W26566  28.021  15.298   1.179
61582W        W26567  18.823  20.254   0.206
61583W        W26568  22.153  38.491  11.412
61584W        W26569  20.082  28.184   4.529
61585W        W26570  28.270  38.389   0.327
61586W        W26571  30.056  26.902  14.098
61587W        W26572  32.589  43.019   3.342
61588W        W26573  17.567  28.100  12.953
61589W        W26574  16.523  42.105  11.600
61590W        W26575  43.360  37.127  14.940
61591W        W26576  11.074  30.759  12.833
61592W        W26577  38.061  23.016   4.004
61593W        W26578  35.894  27.246  13.448
61594W        W26579   6.031   6.966  10.450
61595W        W26580  12.533   3.330   2.812
61596W        W26581  30.269  34.814   3.378
61597W        W26582  16.739  43.383  10.497
61598W        W26583   1.356   9.680  13.104
61599W        W26584  15.043  12.691   1.728
61600W        W26585  38.909  34.394   1.892
61601W        W26586  35.842  25.166   2.380
61602W        W26587  23.564  33.537   2.597
61603W        W26588  32.762  27.191   3.649
61604W        W26589   3.809  23.599   4.466
61605W        W26590  25.118  18.279  12.864
61606W        W26591  37.740   9.027  10.135
61607W        W26592  19.654  22.323  11.335
61608W        W26593  41.611   4.469   1.505
61609W        W26594  39.886   0.633   3.817
61610W        W26595  32.654  42.706   0.768
61611W        W26596  42.055  23.894   3.137
61612W        W26597  23.248  18.255   4.583
61613W        W26598  38.729   8.096   1.159
61614W        W26599  23.743  11.348   0.531
61615W        W26600   0.457  20.749  10.446
61616W        W26601  10.264  25.145   1.876
61617W        W26602  42.268  24.243  14.422
61618W        W26603  35.016  35.372   3.768
61619W        W26604  19.331  34.520   1.370
61620W        W26605  43.113  13.442   4.438
61621W        W26606  20.535  29.149  14.266
61622W        W26607  18.312  26.710  10.851
61623W        W26608   7.817  22.566   0.820
61624W        W26609  23.254  26.127   2.595
61625W        W26610  31.631  21.231   0.249
61626W        W26611   6.196  34.823   1.523
61627W        W26612  44.916  10.384   2.688
61628W        W26613  41.805   9.951  14.009
61629W        W26614   6.834  36.469   1.654
61630W        W26615  43.568  20.519   2.191
61631W        W26616  37.947  35.033  13.925
61632W        W26617  41.468  41.270  11.219
61633W        W26618  17.644  29.531  12.498
61634W        W26619  34.042  39.411  12.173
61635W        W26620   7.923   8.801   0.447
61636W        W26621   0.791  19.902  10.703
61637W        W26622  10.631  36.769  11.976
61638W        W26623   4.338  19.058  10.997
61639W        W26624   6.951   2.709  14.490
61640W        W26625   4.758   2.652  13.929
61641W        W26626  23.703   4.360   4.758
61642W        W26627  39.110  20.577  13.706
61643W        W26628  27.619  40.832   0.781
61644W        W26629  43.852  31.199   1.951
61645W        W26630  26.037  42.892   2.090
61646W        W26631  12.143  28.641  10.851
61647W        W26632  40.518  27.909  11.387
61648W        W26633  25.198  44.317   2.184
61649W        W26634  22.334  37.380  12.453
61650W        W26635  33.456   4.664  12.350
61651W        W26636  36.874  40.291  14.040
61652W        W26637  28.277  41.210   0.311
61653W        W26638  28.965   3.923  13.477
61654W        W26639  27.330  15.558  11.937
61655W        W26640  43.949   1.574   1.610
61656W        W26641  42.550  34.866   1.833
61657W        W26642  15.575  25.736   4.563
61658W        W26643   0.731  13.223  12.498
61659W        W26644  13.096   6.127  12.050
61660W        W26645   3.789  19.634   0.038
61661W        W26646  30.446  16.171   0.111
61662W        W26647   2.907  30.984  11.510
61663W        W26648  32.174  41.370   3.084
61664W        W26649   5.838  16.950   4.737
61665W        W26650  44.173  38.079   1.488
61666W        W26651  16.537  37.806   4.101
61667W        W26652  21.061  36.282   4.241
61668W        W26653  37.128  25.705  12.660
61669W        W26654  41.809  21.770  14.759
61670W        W26655  42.762  15.700  13.548
61671W        W26656  10.288  14.215   1.040
61672W        W26657  32.843   5.689   4.070
61673W        W26658  16.507  11.303   1.810
61674W        W26659  38.003  18.759   4.099
61675W        W26660  12.690  24.123   1.018
61676W        W26661  14.037  29.771  10.769
61677W        W26662   0.981  21.734   4.343
61678W        W26663   3.361   6.021   4.260
61679W        W26664  18.371  34.325   0.810
61680W        W26665  39.542  17.770  11.761
61681W        W26666  25.066  39.457  14.047
61682W        W26667  33.862  14.653   1.310
61683W        W26668  38.298  35.970   3.902
61684W        W26669  23.671   7.143   4.535
61685W        W26670  20.822  14.097   0.789
61686W        W26671  31.016  16.298  13.412
61687W        W26672   7.709   0.234  12.119
61688W        W26673  17.223  11.898   1.011
61689W        W26674  18.695  39.392  12.079
61690W        W26675  44.981   4.001   1.737
61691W        W26676  30.485  15.771  14.784
61692W        W26677   7.321   7.986   1.388
61693W        W26678  36.668  10.865  11.273
61694W        W26679   0.720  33.758   4.987
61695W        W26680  26.962  27.459  14.414
61696W        W26681  28.079  30.060  13.941
61697W        W26682   6.349  40.746   0.377
61698W        W26683  31.612  11.920  12.583
61699W        W26684  36.883  37.070   0.476
61700W        W26685   8.641  40.070   2.471
61701W        W26686  36.436  23.143   3.330
61702W        W26687  23.285  44.458  11.105
61703W        W26688  16.584   8.507  11.131
61704W        W26689  42.403  27.523  12.950
61705W        W26690  23.893  19.662  11.089
61706W        W26691  19.188  11.805   1.266
61707W        W26692  32.199  12.906   4.519
61708W        W26693  38.774  39.630  11.668
61709W        W26694  32.870  20.609  14.794
61710W        W26695  19.059   3.416   0.228
61711W        W26696  14.812  13.131  13.968
61712W        W26697  40.996  33.488   3.208
61713W        W26698   6.507  34.510   2.232
61714W        W26699  14.118  29.624  14.750
61715W        W26700   5.790  10.341   4.299
61716W        W26701  29.611  15.866   2.678
61717W        W26702   5.791   2.982   0.173
61718W        W26703  40.813  43.489   3.681
61719W        W26704  41.505  42.878  10.375
61720W        W26705  32.813   6.453  14.378
61721W        W26706  26.264  23.145   1.496
61722W        W26707  30.586   1.787   3.313
61723W        W26708   2.373  13.082  11.217
61724W        W26709  33.788   7.286   9.811
61725W        W26710  31.321  19.059   4.468
61726W        W26711  32.634  20.718   0.235
61727W        W26712  23.291  41.228  13.239
61728W        W26713  17.370  22.802  11.885
61729W        W26714  36.770  28.511   4.471
61730W        W26715  38.498   1.853  11.415
61731W        W26716  22.610  21.592   4.592
61732W        W26717  36.242  19.928   5.199
61733W        W26718   0.954   8.131  13.592
61734W        W26719  30.057  44.327   0.804
61735W        W26720  29.331  31.485   2.869
61736W        W26721  14.452  24.902  14.875
61737W        W26722  31.054  18.180   0.246
61738W        W26723  18.638  32.906   1.353
61739W        W26724   7.153  25.252   1.843
61740W        W26725   3.015  18.114  14.554
61741W        W26726  12.125   3.313  13.777
61742W        W26727  26.870   9.848   4.963
61743W        W26728  43.385  43.887  13.526
61744W        W26729  27.850  27.664   0.517
61745W        W26730  37.962  18.156   1.824
61746W        W26731  11.099  34.911  13.369
61747W        W26732   1.446  10.728  14.446
61748W        W26733  12.370  26.206  13.953
61749W        W26734  25.355  34.955   4.169
61750W        W26735  37.642  39.773   4.586
61751W        W26736  30.703  15.193   2.391
61752W        W26737   7.477  13.925   0.043
61753W        W26738  31.517   3.193   1.912
61754W        W26739  26.133  17.078   3.892
61755W        W26740   3.007  33.407  12.421
61756W        W26741   5.651  12.691   1.954
61757W        W26742  15.688  12.833  11.099
61758W        W26743   6.276  29.911   3.572
61759W        W26744   7.361   9.782  13.631
61760W        W26745  29.002   5.401  11.462
61761W        W26746  18.473  32.491  13.510
61762W        W26747  12.190  25.435  10.730
61763W        W26748  12.766   2.850   2.423
61764W        W26749  24.003  38.460   2.641
61765W        W26750   1.366   1.972   2.179
61766W        W26751  38.212   9.992   5.127
61767W        W26752  34.529  20.509   0.376
61768W        W26753  37.629   7.708  11.884
61769W        W26754  23.915   1.017  14.560
61770W        W26755  11.320  37.131   0.244
61771W        W26756  11.623  24.188   2.197
61772W        W26757  44.640  14.557   9.939
61773W        W26758   4.352  26.968   0.998
61774W        W26759  36.024  26.845  13.744
61775W        W26760  27.634  16.443   3.135
61776W        W26761  17.249   3.710  13.357
61777W        W26762  36.094  16.872   2.698
61778W        W26763  24.998  10.909  14.129
61779W        W26764   7.294  18.985   3.315
61780W        W26765  40.387  16.059   0.368
61781W        W26766  40.487   9.978  12.766
61782W        W26767  38.204  25.987  12.716
61783W        W26768  44.755   0.869  14.254
61784W        W26769   9.342   9.741   4.755
61785W        W26770   5.909  15.265   3.276
61786W        W26771  11.425   3.998   4.672
61787W        W26772  17.575  31.598  14.899
61788W        W26773   7.903  34.530   3.787
61789W        W26774  39.616  10.666  10.826
61790W        W26775  31.197  19.639  13.324
61791W        W26776  32.354   2.869  10.941
61792W        W26777  18.061   5.343   0.929
61793W        W26778  43.522  34.075  13.960
61794W        W26779  38.255  44.555   0.830
61795W        W26780  31.656  43.296  12.901
61796W        W26781  29.115   3.333   3.823
61797W        W26782   1.927  24.487  14.903
61798W        W26783  21.898  38.148   3.306
61799W        W26784   9.194   9.264   4.080
61800W        W26785  17.344  13.867  14.463
61801W        W26786  36.060  27.445   1.291
61802W        W26787  16.981   1.233   4.875
61803W        W26788  13.666   1.878   4.873
61804W        W26789  15.945   3.866  10.188
61805W        W26790   6.044  10.326   1.017
61806W        W26791   5.873  20.135  14.341
61807W        W26792  11.070  36.017  14.101
61808W        W26793  35.562  16.639  14.517
61809W        W26794   2.796   7.060   0.201
61810W        W26795  16.678  23.259   4.563
61811W        W26796  24.592  30.473  12.649
61812W        W26797  11.662  14.261  14.060
61813W        W26798  19.294  21.604   0.273
61814W        W26799  42.401  36.967  12.635
61815W        W26800  15.403   1.735   3.673
61816W        W26801   2.369  22.549  13.834
61817W        W26802  34.032  13.341  13.523
61818W        W26803   1.881   6.362   2.265
61819W        W26804  12.151   5.265  11.663
61820W        W26805   2.561  13.832  10.757
61821W        W26806  15.313   4.298   1.396
61822W        W26807  43.443  26.475  14.840
61823W        W26808  17.121  13.380  10.689
61824W        W26809  23.428  26.685   4.175
61825W        W26810  20.708   4.769   1.404
61826W        W26811   7.401  14.905   2.473
61827W        W26812   9.589  10.588   0.862
61828W        W26813  43.525  10.354   1.641
61829W        W26814  34.407  10.910   3.219
61830W        W26815  11.535  11.337  14.391
61831W        W26816  10.016   1.116   3.802
61832W        W26817  24.960  15.873   3.187
61833W        W26818  42.337   3.672   1.604
61834W        W26819  24.903  31.617   2.173
61835W        W26820   0.500  25.057   4.617
61836W        W26821  29.149  39.093   2.826
61837W        W26822  30.911  27.453  10.995
61838W        W26823  25.037  41.134  14.969
61839W        W26824  14.111  44.017   4.153
61840W        W26825  37.966  31.328  14.292
61841W        W26826   4.682   1.037  11.211
61842W        W26827  37.535   8.590  13.013
61843W        W26828   9.634  35.584   3.628
61844W        W26829  39.409  30.285  10.680
61845W        W26830  32.139  22.466   1.383
61846W        W26831  17.992  42.443  10.423
61847W        W26832  21.547  23.287   0.682
61848W        W26833   0.691  10.385   1.861
61849W        W26834   8.632  12.672  11.480
61850W        W26835   6.746  30.550   3.749
61851W        W26836  40.531  21.125   2.775
61852W        W26837  33.983  19.176  13.360
61853W        W26838  13.318   5.857   2.116
61854W        W26839  40.830  27.257   4.844
61855W        W26840  22.490  10.375   4.133
61856W        W26841   3.230  27.870   1.776
61857W        W26842  16.567  38.313  12.573
61858W        W26843  33.846  39.057   0.600
61859W        W26844  29.501  19.132  10.404
61860W        W26845  12.983   4.707  10.365
61861W        W26846  37.386  33.688   1.167
61862W        W26847  35.029  34.398  14.328
61863W        W26848  11.709  31.943  14.436
61864W        W26849  11.070  26.583   0.317
61865W        W26850  30.496  43.945   4.225
61866W        W26851   4.526  34.951  11.519
61867W        W26852  25.945  35.003  14.449
61868W        W26853  30.654  30.582  14.468
61869W        W26854   3.245  43.838   3.222
61870W        W26855  19.004  44.083   4.079
61871W        W26856  21.009  21.102  14.367
61872W        W26857   3.748  44.443   2.785
61873W        W26858  31.752  15.781   1.630
61874W        W26859  35.307  17.828   3.251
61875W        W26860  25.614  28.182  13.057
61876W        W26861  12.829  14.928   1.415
61877W        W26862  12.606  14.408   4.207
61878W        W26863  40.283   6.782   0.416
61879W        W26864  12.086  12.595   4.512
61880W        W26865  18.320  23.444  11.248
61881W        W26866  21.883   9.741   3.629
61882W        W26867  23.097  37.429   4.823
61883W        W26868  10.152  30.938  13.031
61884W        W26869  28.678  15.342   0.824
61885W        W26870   4.356  41.850   4.650
61886W        W26871  10.371  14.920   2.462
61887W        W26872  31.469  35.814  13.352
61888W        W26873   8.239  31.556  12.978
61889W        W26874  44.990   3.651  13.661
61890W        W26875  38.011  19.299  12.097
61891W        W26876  12.231  37.599   1.754
61892W        W26877  37.649  26.473   2.009
61893W        W26878  28.551  24.015  12.455
61894W        W26879  30.444  19.253   4.061
61895W        W26880  30.187  13.316  10.633
61896W        W26881  40.291   5.213  12.508
61897W        W26882  31.116  44.313   4.013
61898W        W26883  33.980  10.140   4.084
61899W        W26884  21.609  10.677   0.974
61900W        W26885  38.496   8.704   1.651
61901W        W26886  18.090  42.009   0.750
61902W        W26887  43.274  19.566  14.289
61903W        W26888  26.103  14.695   1.241
61904W        W26889  13.331  40.120  11.625
61905W        W26890  38.746   1.193  10.977
61906W        W26891  25.317  31.195  14.091
61907W        W26892   5.013  36.102   3.185
61908W        W26893  36.956  35.428   1.797
61909W        W26894  24.628  40.458   3.258
61910W        W26895  30.835  26.286   2.241
61911W        W26896  35.315  24.972  14.789
61912W        W26897  36.011   6.670   2.653
61913W        W26898  39.693  21.617   4.097
61914W        W26899  27.695  30.019   2.832
61915W        W26900  31.607  36.877   3.396
61916W        W26901  27.924  24.444   4.563
61917W        W26902  24.200  40.773   3.283
61918W        W26903   4.005  28.119  12.056
61919W        W26904  41.268  32.063   1.696
61920W        W26905  30.682  24.034   5.106
61921W        W26906  24.244  18.570  10.814
61922W        W26907  37.865   2.018   3.745
61923W        W26908  17.875   0.203  12.034
61924W        W26909   8.883  19.327  11.239
61925W        W26910  37.752  25.957  13.667
61926W        W26911  36.335  21.568  13.793
61927W        W26912  44.765  10.419   1.299
61928W        W26913  35.652   8.422   3.386
61929W        W26914  19.940  39.656   3.869
61930W        W26915   4.730  20.155  11.526
61931W        W26916   7.808  30.799  10.809
61932W        W26917  19.750  41.293   4.682
61933W        W26918   3.551  28.878   4.465
61934W        W26919   3.886  32.063  10.626
61935W        W26920  41.667  40.226  14.180
61936W        W26921   2.921  40.808  11.613
61937W        W26922  15.817   0.410  11.137
61938W        W26923  17.061  42.866  13.988
61939W        W26924  24.547  29.656   3.085
61940W        W26925  29.153  17.848  10.692
61941W        W26926  27.105  21.535   4.579
61942W        W26927   5.651  10.215  11.597
61943W        W26928  22.264  11.187   1.765
61944W        W26929  14.530  43.138  10.620
61945W        W26930  19.399  18.103  14.915
61946W        W26931  40.481  20.514  10.561
61947W        W26932  34.664  16.685  14.107
61948W        W26933  20.992  23.637  13.475
61949W        W26934  10.897   3.368   5.230
61950W        W26935  22.178  16.739   4.157
61951W        W26936  13.777  31.931   3.805
61952W        W26937   7.339  13.382   4.843
61953W        W26938  14.675   5.437   0.647
61954W        W26939  39.678  25.507   1.299
61955W        W26940  20.175  23.485  10.061
61956W        W26941  39.385  10.225   1.167
61957W        W26942  33.134   5.276   4.736
61958W        W26943  36.535  40.883   4.373
61959W        W26944   8.385   9.521  11.940
61960W        W26945  33.882  24.001   0.467
61961W        W26946  31.848  13.604  12.925
61962W        W26947  37.612   2.863  11.231
61963W        W26948  12.382  25.107   4.112
61964W        W26949  19.538  44.454   1.218
61965W        W26950   9.726  17.554  12.107
61966W        W26951  32.667  44.031   1.173
61967W        W26952   8.770   0.734  12.476
61968W        W26953  25.999  33.156   4.958
61969W        W26954  41.032  42.103   2.857
61970W        W26955  42.210  41.496  14.460
61971W        W26956  34.717  39.977   4.897
61972W        W26957  10.782  31.612   2.836
61973W        W26958  24.923   4.338  13.313
61974W        W26959  29.029  33.930  10.583
61975W        W26960  31.848   4.192  12.462
61976W        W26961  26.003  18.353   2.376
61977W        W26962  26.666  41.953  14.808
61978W        W26963   9.976   4.992   4.574
61979W        W26964   9.600  37.087   1.779
61980W        W26965  38.334  12.633   1.639
61981W        W26966  44.859  22.535   2.623
61982W        W26967  24.222  24.994   3.768
61983W        W26968  29.973  22.681   0.305
61984W        W26969  43.868  31.229   2.819
61985W        W26970  15.077   8.634   3.147
61986W        W26971  15.661   2.187   3.601
61987W        W26972  39.874  18.896   1.255
61988W        W26973  37.877  21.011  14.349
61989W        W26974   6.989   6.190   2.763
61990W        W26975  11.102  12.788  13.529
61991W        W26976  38.829  40.965   0.284
61992W        W26977  11.868  38.364  14.414
61993W        W26978  35.825  32.381   4.489
61994W        W26979   5.273  12.421   1.736
61995W        W26980  19.540  20.101   2.213
61996W        W26981   9.390  30.662  13.921
61997W        W26982  20.373  35.550   0.916
61998W        W26983  35.061  44.379  13.563
61999W        W26984   5.903   2.020  10.772
62000W        W26985  43.532  38.459   3.341
62001W        W26986  11.696  20.317   3.729
62002W        W26987  17.578   0.959   3.411
62003W        W26988   0.691  21.246   5.053
62004W        W26989  10.645   7.129  11.509
62005W        W26990  12.121   3.212  14.311
62006W        W26991  15.595  28.632   0.262
62007W        W26992  28.812  10.356  13.623
62008W        W26993  36.980  41.232   1.961
62009W        W26994  18.347  20.154   1.450
62010W        W26995   0.723  37.274   2.572
62011W        W26996  39.242   5.713  12.132
62012W        W26997  41.922   0.389   1.675
62013W        W26998   2.985  24.565  14.370
62014W        W26999  18.617  17.763  14.680
62015W        W27000  31.918   1.329   4.505
62016W        W27001  35.929   0.451   1.995
62017W        W27002  33.423  16.625  10.921
62018W        W27003   6.929  24.917   4.927
62019W        W27004  14.336   0.901   3.065
62020W        W27005  32.382  37.757  11.899
62021W        W27006  29.241  26.115  14.100
62022W        W27007   9.812  41.426  13.948
62023W        W27008  15.286  33.820   1.208
62024W        W27009  36.507  32.934   3.631
62025W        W27010  13.111  28.248  12.139
62026W        W27011   2.908  42.691   1.202
62027W        W27012   6.141  31.401   3.793
62028W        W27013  18.643  29.635  13.433
62029W        W27014   8.267  30.548  13.485
62030W        W27015  33.329  39.084  13.490
62031W        W27016   6.801  39.594  14.300
62032W        W27017  41.351  41.343   4.289
62033W        W27018  20.666   2.804   0.797
62034W        W27019  19.246  35.468   3.737
62035W        W27020   1.937   4.441  12.058
62036W        W27021  14.022  30.342  13.383
62037W        W27022  15.932  40.767  12.202
62038W        W27023  34.846  17.533  14.503
62039W        W27024   3.943  42.680  14.306
62040W        W27025   6.365  11.371   3.724
62041W        W27026  42.211  30.476   1.824
62042W        W27027  21.195  11.766   4.939
62043W        W27028   3.256   8.592   1.135
62044W        W27029  18.389   2.927  10.965
62045W        W27030  31.910  14.634   4.145
62046W        W27031  12.409  27.189   4.049
62047W        W27032  37.864  16.790   3.179
62048W        W27033   7.314  26.649   1.947
62049W        W27034   4.357  11.943  13.401
62050W        W27035  25.028  16.058   4.149
62051W        W27036  32.384  39.801  14.360
62052W        W27037   9.364  20.460   4.759
62053W        W27038   7.812  33.153   1.841
62054W        W27039   9.296   6.761   4.235
62055W        W27040  30.563  38.371  11.536
62056W        W27041   2.628   8.208   2.268
62057W        W27042  17.286   7.958   2.298
62058W        W27043   0.899   0.927   2.172
62059W        W27044   7.893  31.837   4.453
62060W        W27045   0.512  14.700   1.857
62061W        W27046  37.382  36.976   4.736
62062W        W27047  19.549  19.119   1.217
62063W        W27048   2.482   8.335   3.672
62064W        W27049  18.164   7.511  10.560
62065W        W27050  21.120  29.975  14.301
62066W        W27051  34.986  40.484   3.415
62067W        W27052   1.288  44.448   4.473
62068W        W27053  39.771  24.355  11.472
62069W        W27054   6.074  35.188   1.888
62070W        W27055   5.971  37.324   0.580
62071W        W27056  28.726   9.277  12.164
62072W        W27057  39.227  10.862   3.150
62073W        W27058   7.275  12.152   3.202
62074W        W27059  32.061   2.861   0.374
62075W        W27060  33.664   3.261   1.287
62076W        W27061  38.265  18.103  11.445
62077W        W27062  22.132  29.635  14.407
62078W        W27063  10.840  21.153  14.633
62079W        W27064   0.485  21.654   4.779
62080W        W27065  29.636  36.691   4.057
62081W        W27066  41.217  13.443  13.947
62082W        W27067  28.110   3.375   0.791
62083W        W27068  38.872  14.791  11.812
62084W        W27069  29.193  29.037   3.563
62085W        W27070  40.860   1.272   2.954
62086W        W27071  21.645  35.892  14.934
62087W        W27072  12.963  35.657   2.115
62088W        W27073   3.380  24.468  10.694
62089W        W27074   0.838  38.503   4.637
62090W        W27075  32.114   4.379  14.031
62091W        W27076  40.465  18.874   3.215
62092W        W27077  37.407   4.013   2.350
62093W        W27078  13.638  39.144   4.542
62094W        W27079  41.950  10.234   1.228
62095W        W27080  12.041   6.407   4.218
62096W        W27081  14.622  11.289   4.318
62097W        W27082  29.621  34.517   0.468
62098W        W27083   7.459  31.463  12.479
62099W        W27084  10.508  40.942  13.388
62100W        W27085   7.344  27.035   1.085
62101W        W27086   1.374  22.177  11.744
62102W        W27087  29.147  20.476  11.630
62103W        W27088   5.557   2.022  11.526
62104W        W27089  37.340  28.729   1.824
62105W        W27090  28.418  29.203   4.208
62106W        W27091  40.785  12.169   4.789
62107W        W27092  43.060  13.624  13.375
62108W        W27093  31.183   0.055  12.075
62109W        W27094  23.673  41.028   1.276
62110W        W27095  40.520  26.578  12.377
62111W        W27096  26.010  30.800  13.520
62112W        W27097  39.570  22.297  12.101
62113W        W27098  42.540  26.656   4.090
62114W        W27099  20.820  35.487   3.664
62115W        W27100   4.818  34.374  14.229
62116W        W27101  16.517  23.225   3.151
62117W        W27102  18.074  43.257   4.791
62118W        W27103  16.554   7.007  12.462
62119W        W27104  27.128  30.672  14.329
62120W        W27105  30.975  32.196   2.288
62121W        W27106  26.984  26.596  12.430
62122W        W27107   0.253   5.715  14.893
62123W        W27108  16.254  44.236  11.598
62124W        W27109   4.323  22.101  10.947
62125W        W27110  17.567  29.916  13.947
62126W        W27111  21.629   8.179   2.285
62127W        W27112  34.938   8.389   1.169
62128W        W27113   2.789  36.907   2.377
62129W        W27114   4.297  31.158   4.651
62130W        W27115  12.313  15.169   3.587
62131W        W27116  27.240  10.210  13.424
62132W        W27117  10.771  17.870   4.341
62133W        W27118  43.834  31.747   2.820
62134W        W27119  16.771  11.800  13.849
62135W        W27120  13.408   4.827  14.964
62136W        W27121  42.275  40.624   2.447
62137W        W27122  24.239   5.306  11.113
62138W        W27123   8.828  31.384   3.005
62139W        W27124  19.628   9.051  10.303
62140W        W27125  10.600  42.491  12.012
62141W        W27126  11.932  10.389  11.463
62142W        W27127  22.858   4.199  12.194
62143W        W27128   7.607  30.042  14.758
62144W        W27129  34.402  32.623  11.049
62145W        W27130  19.130  10.599  13.794
62146W        W27131  34.863   3.447  10.538
62147W        W27132  19.826   1.735   4.163
62148W        W27133  43.290  12.067  12.892
62149W        W27134   2.157  12.706   3.099
62150W        W27135  44.820  34.932  12.504
62151W        W27136  36.802  12.389  12.500
62152W        W27137  44.178   3.406   3.092
62153W        W27138  25.075  17.065  11.523
62154W        W27139   8.619  41.333   4.856
62155W        W27140  32.935   8.290   0.233
62156W        W27141  35.798  22.197   1.673
62157W        W27142  23.229  16.188  14.349
62158W        W27143  25.248  27.169  12.518
62159W        W27144  17.725   2.997  13.159
62160W        W27145  39.894  37.641   4.259
62161W        W27146   9.743  37.949  14.293
62162W        W27147  35.624  30.591   0.334
62163W        W27148  43.042  27.455  14.049
62164W        W27149  12.864  23.719   2.270
62165W        W27150  35.049  25.610   4.605
62166W        W27151  14.818   2.455   3.608
62167W        W27152  29.519  10.567   0.863
62168W        W27153  12.548  31.373  11.802
62169W        W27154  23.069  25.383   2.025
62170W        W27155  19.057  37.409  10.933
62171W        W27156  24.450   5.881  13.009
62172W        W27157  23.000   5.550   3.749
62173W        W27158  31.635   5.444   2.310
62174W        W27159   1.714  43.335  13.085
62175W        W27160  19.774  19.624   2.375
62176W        W27161  29.929  12.114   4.256
62177W        W27162  33.051  22.565  10.583
62178W        W27163  32.089   9.188   2.337
62179W        W27164  27.106   4.848   3.346
62180W        W27165  40.600  21.075   3.663
62181W        W27166  32.587  31.499   2.698
62182W        W27167   4.816  26.734  11.589
62183W        W27168  17.554  15.577  14.054
62184W        W27169   2.412  37.505   3.037
62185W        W27170   5.911  36.931   3.106
62186W        W27171  28.455   4.880  14.474
62187W        W27172  12.233  26.963  14.689
62188W        W27173  41.411  14.822   3.805
62189W        W27174  43.276  20.963  11.902
62190W        W27175  25.606   3.884  12.663
62191W        W27176  35.600  26.489  13.871
62192W        W27177  16.742  20.398  11.830
62193W        W27178  38.469  10.172   4.651
62194W        W27179   6.590  22.248  11.525
62195W        W27180  40.042  42.494  14.535
62196W        W27181  19.996  31.174   4.644
62197W        W27182  12.401  36.891   2.932
62198W        W27183  25.671  15.176   4.805
62199W        W27184  10.439   9.580   4.005
62200W        W27185  44.448  16.009  11.268
62201W        W27186  35.045  33.355  13.522
62202W        W27187  31.896  12.283  12.161
62203W        W27188  18.089  27.933   3.290
62204W        W27189  15.728   0.663  11.995
62205W        W27190  44.584  41.776   2.575
62206W        W27191  31.063  41.791  14.444
62207W        W27192  19.447   9.274   1.204
62208W        W27193  11.552   0.386   3.609
62209W        W27194  39.787   0.439   1.276
62210W        W27195  19.973  38.740  14.888
62211W        W27196  25.890   2.275   2.678
62212W        W27197  34.574  25.181  11.095
62213W        W27198  29.862  11.616   4.400
62214W        W27199  34.019  28.436   4.696
62215W        W27200   7.385  22.176   0.460
62216W        W27201   4.196  14.201  14.564
62217W        W27202  24.538  23.150  13.869
62218W        W27203  29.046  12.571  13.040
62219W        W27204  35.329   1.702   4.214
62220W        W27205  11.468  14.553  14.476
62221W        W27206   8.727  41.913   3.124
62222W        W27207   2.090  25.725  14.944
62223W        W27208  18.920  31.849   1.928
62224W        W27209  43.749  25.509  14.808
62225W        W27210  28.704  10.539   0.676
62226W        W27211  28.581  33.603   4.088
62227W        W27212   7.980  30.890   3.811
62228W        W27213  35.562  18.128   2.705
62229W        W27214  43.499   2.228   3.357
62230W        W27215  25.553  33.886  14.757
62231W        W27216   1.712   4.248   3.273
62232W        W27217  40.332  35.355   3.209
62233W        W27218  10.252  13.381   0.002
62234W        W27219   4.378  24.747   1.695
62235W        W27220  34.070  41.382  13.471
62236W        W27221   4.943  34.124   2.017
62237W        W27222   0.632  28.121   3.742
62238W        W27223  44.560  39.444  11.442
62239W        W27224   4.862  41.523  10.278
62240W        W27225   8.878  41.609   2.730
62241W        W27226  21.393  42.033  12.543
62242W        W27227  38.537   4.902  14.463
62243W        W27228  39.605  18.691   0.848
62244W        W27229   7.811  15.574   0.775
62245W        W27230  29.018  39.831  12.681
62246W        W27231  39.893  28.901   2.763
62247W        W27232   9.795   9.585   0.881
62248W        W27233  31.091  35.542  10.324
62249W        W27234  34.523  41.792  11.164
62250W        W27235   5.859   8.582   2.722
62251W        W27236  15.344  42.059  10.556
62252W        W27237   4.879  27.646   4.758
62253W        W27238  43.842  28.969   4.459
62254W        W27239   5.982  35.551   3.724
62255W        W27240  34.066   1.240   2.745
62256W        W27241  34.481  35.856  13.530
62257W        W27242   6.169  42.888   4.020
62258W        W27243  34.113  32.446  11.476
62259W        W27244  28.483  22.655   2.651
62260W        W27245   2.743   5.597  10.670
62261W        W27246  23.850  20.511  11.143
62262W        W27247  26.168  19.201   3.686
62263W        W27248  29.577   6.124  13.850
62264W        W27249  41.836  10.902   2.718
62265W        W27250  43.865  21.922  13.347
62266W        W27251  32.142  26.710  14.405
62267W        W27252  27.725  18.298   4.677
62268W        W27253  34.761  39.009   5.022
62269W        W27254  17.391  18.002  13.772
62270W        W27255   9.266  12.207  11.077
62271W        W27256  31.666  18.203   2.195
62272W        W27257   8.425  17.834  14.984
62273W        W27258   3.854  29.205  12.428
62274W        W27259  15.174  27.948   2.517
62275W        W27260  32.202  15.308  14.426
62276W        W27261  36.519  33.916   2.739
62277W        W27262  40.934  41.319  12.921
62278W        W27263  15.112  21.004  14.499
62279W        W27264  12.299  38.162   4.209
62280W        W27265   4.281   9.857  13.203
62281W        W27266  43.388  26.108  10.518
62282W        W27267  31.774  20.757   4.091
62283W        W27268  14.808  18.152  14.951
62284W        W27269  27.539  28.168  13.123
62285W        W27270  38.483  39.471   3.664
62286W        W27271  10.213  41.937   4.834
62287W        W27272  29.028  38.420  11.591
62288W        W27273   6.192  22.993   1.167
62289W        W27274  26.194   7.261  13.850
62290W        W27275  23.096  28.468  12.209
62291W        W27276  26.920  28.537  12.030
62292W        W27277   6.470  17.350  14.920
62293W        W27278  39.544  36.407   1.142
62294W        W27279   3.387   2.377  13.390
62295W        W27280  33.042  20.154   0.014
62296W        W27281  35.121  31.426   4.673
62297W        W27282  22.441  33.103   1.238
62298W        W27283  39.978  39.092   4.240
62299W        W27284  39.928  22.550   3.260
62300W        W27285  22.151  18.688   9.560
62301W        W27286  21.114   1.319   3.685
62302W        W27287   2.179  38.412  13.886
62303W        W27288  39.792   7.681  12.535
62304W        W27289  24.144  12.617   4.836
62305W        W27290  32.423  31.901  11.558
62306W        W27291   8.691  33.159  13.522
62307W        W27292   9.247  35.315  11.586
62308W        W27293  16.740  39.800  11.497
62309W        W27294   3.593  44.949  11.247
62310W        W27295  38.816   6.784  14.479
62311W        W27296  31.495  44.220   1.500
62312W        W27297  15.850  24.464  13.488
62313W        W27298  37.301   9.768   0.365
62314W        W27299   8.359  23.562  12.181
62315W        W27300  42.083  36.429  14.553
62316W        W27301   8.235  38.361   2.179
62317W        W27302  29.057  23.291  11.468
62318W        W27303  11.318  34.802   1.797
62319W        W27304   9.258  10.280  12.527
62320W        W27305  18.710  12.189  10.525
62321W        W27306   4.257  26.122   2.814
62322W        W27307  40.976   5.995   2.333
62323W        W27308  30.416  20.764  14.819
62324W        W27309   5.527  40.525   0.020
62325W        W27310  22.569   6.305  10.685
62326W        W27311  44.064  21.400  14.483
62327W        W27312  31.045  11.081  13.994
62328W        W27313  18.229  44.371   4.670
62329W        W27314  11.765  41.912  14.039
62330W        W27315   8.398  42.735   2.299
62331W        W27316  11.478  37.524   0.547
62332W        W27317   4.201  44.102   3.595
62333W        W27318  18.782  42.572  10.884
62334W        W27319  23.154  31.497  13.377
62335W        W27320  39.614  12.045  13.797
62336W        W27321  27.117  39.903  11.903
62337W        W27322  23.073   7.081  11.616
62338W        W27323  15.810   4.405   1.362
62339W        W27324  29.310   9.357   3.722
62340W        W27325  17.557  41.294   1.790
62341W        W27326  20.347   7.662  11.137
62342W        W27327  34.553  27.656   0.447
62343W        W27328  17.069  18.716   1.420
62344W        W27329  15.551  27.056   1.627
62345W        W27330   5.674   1.650   1.766
62346W        W27331   9.186  44.457   4.019
62347W        W27332  14.221  39.585   4.443
62348W        W27333  11.906   9.229  12.074
62349W        W27334   8.324   7.280   3.612
62350W        W27335  39.047   9.188   0.414
62351W        W27336  16.059   0.750   2.327
62352W        W27337  38.987  32.447   1.494
62353W        W27338  17.238  19.290  11.213
62354W        W27339   6.772  40.942   0.702
62355W        W27340  43.820  14.657   3.561
62356W        W27341  22.345   4.519   2.744
62357W        W27342   1.492  11.667   3.723
62358W        W27343   1.909  10.341   3.619
62359W        W27344   5.497  32.361   3.250
62360W        W27345  10.890  31.023  11.083
62361W        W27346  38.550  41.434   0.433
62362W        W27347  39.431  29.045  11.594
62363W        W27348  20.337  40.623  11.166
62364W        W27349  10.852   4.343   0.452
62365W        W27350  29.868  10.261  13.877
62366W        W27351   3.369  15.152  10.732
62367W        W27352  37.917   1.180   2.145
62368W        W27353  32.569  34.129  14.292
62369W        W27354   0.744  39.272  14.308
62370W        W27355   8.264  23.450   2.705
62371W        W27356   2.490  16.294  12.850
62372W        W27357  12.448  42.436   3.089
62373W        W27358  25.926  25.658  11.018
62374W        W27359  44.716  26.033  13.957
62375W        W27360  18.281  10.903   3.221
62376W        W27361  15.861  14.937  10.140
62377W        W27362  14.248  10.650   0.005
62378W        W27363  38.867  11.084  12.627
62379W        W27364   6.393   2.379   0.345
62380W        W27365  40.382  21.264   9.851
62381W        W27366  44.387   3.763  14.193
62382W        W27367  38.755  32.015  12.855
62383W        W27368   6.628  33.573   2.129
62384W        W27369  24.452  20.592   3.624
62385W        W27370  36.906  12.152  12.964
62386W        W27371  43.331  19.295   1.181
62387W        W27372  15.794  27.459  12.066
62388W        W27373   0.061  23.382  13.464
62389W        W27374  29.858  22.105  13.688
62390W        W27375  21.044  12.489   4.191
62391W        W27376  19.234   3.920  11.117
62392W        W27377  37.903  40.056  12.002
62393W        W27378  21.670  43.328  12.485
62394W        W27379   0.866   9.022  13.696
62395W        W27380   0.302  43.029  12.972
62396W        W27381   3.529  40.511   2.287
62397W        W27382  18.668   8.541   1.273
62398W        W27383  13.619   3.284  12.446
62399W        W27384  31.690   7.900  11.253
62400W        W27385  18.506   4.973   2.223
62401W        W27386  43.994  30.618  11.371
62402W        W27387  34.548   8.792   1.735
62403W        W27388  20.767   2.734  11.165
62404W        W27389  30.090  36.977   0.229
62405W        W27390   0.214  36.865  10.551
62406W        W27391  39.159   4.783  13.502
62407W        W27392   2.819  42.000  13.876
62408W        W27393  14.147   6.782   3.740
62409W        W27394   5.469  17.333  13.847
62410W        W27395  35.709   5.249   0.293
62411W        W27396  28.967   5.203   2.611
62412W        W27397  35.929  42.273  14.827
62413W        W27398   2.635  42.741   0.259
62414W        W27399   0.907   0.260  14.848
62415W        W27400  15.514  19.069  14.493
62416W        W27401  41.537   0.344   4.298
62417W        W27402  43.273   0.705  14.252
62418W        W27403   7.353  39.751  11.119
62419W        W27404  18.503  18.193   2.628
62420W        W27405  38.950  26.675  11.060
62421W        W27406   6.767  22.527   3.780
62422W        W27407  23.306  37.254   4.373
62423W        W27408  18.609   2.441  14.399
62424W        W27409  25.782   5.028   0.504
62425W        W27410   0.246   7.055   3.302
62426W        W27411  31.973   9.226  13.112
62427W        W27412  28.571   4.931   2.825
62428W        W27413   0.450  15.109   9.874
62429W        W27414  11.217  42.408  10.613
62430W        W27415  43.036  40.264   0.304
62431W        W27416  32.388   9.386  14.934
62432W        W27417  34.092  43.887  12.604
62433W        W27418  29.564  29.101  10.463
62434W        W27419   6.208  21.595  13.241
62435W        W27420  18.689  44.966  12.371
62436W        W27421   5.041  38.565  12.158
62437W        W27422  30.926  28.681  10.709
62438W        W27423  22.846  30.199   3.759
62439W        W27424   8.882  16.788  12.047
62440W        W27425  19.234  35.272  12.584
62441W        W27426  25.027   1.767  11.673
62442W        W27427  28.685  13.052   3.702
62443W        W27428   1.857   4.751   3.265
62444W        W27429   4.980   0.884   3.883
62445W        W27430  12.347  13.855  13.566
62446W        W27431  32.472  42.782   3.780
62447W        W27432  19.099  21.270   2.574
62448W        W27433  33.340   5.139   1.351
62449W        W27434  29.761  37.913  13.725
62450W        W27435  27.169  44.382  14.808
62451W        W27436  40.868  42.779   4.205
62452W        W27437  40.859  23.532   2.990
62453W        W27438   5.167   4.247  13.390
62454W        W27439  26.432  35.521   3.842
62455W        W27440  28.549  44.045  11.585
62456W        W27441  28.158  26.923  13.844
62457W        W27442  24.070  20.688  13.069
62458W        W27443  32.770  39.390   0.783
62459W        W27444  15.667   8.716   1.429
62460W        W27445   6.378   3.378  10.760
62461W        W27446   3.367  24.975  10.814
62462W        W27447  25.956  10.639  14.110
62463W        W27448  23.953  28.993  12.541
62464W        W27449   9.663   2.426   2.227
62465W        W27450  21.483  11.643   1.671
62466W        W27451  23.602  24.131   1.523
62467W        W27452  37.411  42.338   2.397
62468W        W27453  33.967  36.263   0.722
62469W        W27454  18.246  42.839  13.394
62470W        W27455  35.342  11.791   3.316
62471W        W27456  44.371   6.708  12.070
62472W        W27457  31.190  31.594  14.530
62473W        W27458  24.995   6.932   3.681
62474W        W27459   0.450  43.018  14.354
62475W        W27460  41.249  22.829  11.726
62476W        W27461   1.443  43.634   3.807
62477W        W27462  44.818  13.203  12.183
62478W        W27463  19.725  39.376  13.602
62479W        W27464  15.846   5.469   0.692
62480W        W27465  11.788  40.220  12.527
62481W        W27466   7.304  21.470   1.196
62482W        W27467  17.318  30.066   4.582
62483W        W27468  37.568  33.509   1.642
62484W        W27469  40.187  11.111  13.301
62485W        W27470  44.239  17.177  13.951
62486W        W27471   8.912  43.384   1.701
62487W        W27472   2.199  42.471   0.204
62488W        W27473  17.025  33.966   0.998
62489W        W27474  38.223  13.527  11.813
62490W        W27475  16.497  37.032   4.568
62491W        W27476  44.010  10.295   3.455
62492W        W27477  29.218  10.369  13.265
62493W        W27478  12.163   7.924   1.175
62494W        W27479  24.722  26.999   3.911
62495W        W27480  14.670   5.014  12.078
62496W        W27481  28.966  44.928  10.731
62497W        W27482   8.250  27.955   1.866
62498W        W27483  26.415  34.989  12.918
62499W        W27484  12.886  28.205   3.891
62500W        W27485   6.459  10.732  14.189
62501W        W27486  22.983   6.085  11.459
62502W        W27487  17.635  16.279  11.973
62503W        W27488  12.295  29.280  10.113
62504W        W27489   2.750  19.721   3.260
62505W        W27490   2.309  12.177   4.569
62506W        W27491  12.065  40.086   2.898
62507W        W27492  42.636  25.089  14.211
62508W        W27493   1.905  30.461  10.866
62509W        W27494  39.545  17.872  10.690
62510W        W27495   5.950  16.084  13.932
62511W        W27496  37.788  20.073   4.552
62512W        W27497  20.115   7.294  14.290
62513W        W27498  16.838  32.058   2.877
62514W        W27499  22.275  39.577  14.249
62515W        W27500  39.918  26.250   1.476
62516W        W27501  20.811  14.310  14.184
62517W        W27502  24.142  20.725  13.918
62518W        W27503  16.500   4.797  10.750
62519W        W27504   2.871  38.940   2.899
62520W        W27505  19.766   0.786  12.210
62521W        W27506   3.181  27.508   0.513
62522W        W27507  42.691  42.895  11.490
62523W        W27508  27.731  35.889  13.876
62524W        W27509   9.243  38.500  11.581
62525W        W27510   9.626  32.890  11.839
62526W        W27511  43.897  14.735  11.979
62527W        W27512  40.091  30.008  12.407
62528W        W27513  12.510   8.940   0.432
62529W        W27514  29.920  23.202  13.275
62530W        W27515   7.178  18.053  10.722
62531W        W27516  17.271  20.299   3.345
62532W        W27517  30.339  28.609   3.714
62533W        W27518  40.999  10.225  14.039
62534W        W27519  40.415   5.254  10.809
62535W        W27520   2.412  28.379  14.372
62536W        W27521  10.670  15.133   1.437
62537W        W27522   3.996  35.187  10.680
62538W        W27523   7.623  16.920  10.666
62539W        W27524  35.272  42.477   2.747
62540W        W27525  21.672  44.843  14.945
62541W        W27526  19.167  27.134   2.955
62542W        W27527  41.841   8.900   4.303
62543W        W27528   5.927  27.676   3.745
62544W        W27529   6.808   4.067   5.432
62545W        W27530  30.144  23.087  11.175
62546W        W27531  19.489  38.990   0.796
62547W        W27532  18.028  32.596  12.398
62548W        W27533  32.838  43.275  12.292
62549W        W27534  30.606  12.919   1.933
62550W        W27535  11.320  24.677  11.336
62551W        W27536   1.047  24.522   2.279
62552W        W27537  15.716  26.924   2.976
62553W        W27538  38.512   1.461   2.695
62554W        W27539  13.363  26.263  13.740
62555W        W27540  38.407   4.908  11.396
62556W        W27541  11.730  19.147   2.716
62557W        W27542  21.496  33.901   3.898
62558W        W27543  40.900  42.137  13.424
62559W        W27544   6.419  34.127   4.610
62560W        W27545  36.046  16.551  12.432
62561W        W27546  11.478  19.862   5.072
62562W        W27547  11.086  28.110   2.087
62563W        W27548  39.320   6.176  12.544
62564W        W27549  28.115  17.752   3.110
62565W        W27550  13.790   6.877  14.482
62566W        W27551   2.780  28.626   1.698
62567W        W27552  20.741  11.192   0.164
62568W        W27553  33.674   0.219   0.009
62569W        W27554  43.646   8.147  11.601
62570W        W27555  23.739   7.411   2.751
62571W        W27556  25.731  34.578   1.979
62572W        W27557  24.807  12.518  12.546
62573W        W27558  13.344  12.550  10.474
62574W        W27559  10.766  38.827  12.984
62575W        W27560  18.600  15.612  12.560
62576W        W27561  43.423  33.722  14.334
62577W        W27562   4.986  40.368   5.143
62578W        W27563  35.157  13.243  11.545
62579W        W27564  10.257   3.381  11.616
62580W        W27565   0.512  22.094   1.777
62581W        W27566  12.688  19.221  11.911
62582W        W27567  35.379  30.356  14.929
62583W        W27568  12.337  41.041   1.855
62584W        W27569  17.160   8.219   0.470
62585W        W27570  36.940  16.656  14.248
62586W        W27571  40.504  20.043  14.478
62587W        W27572  11.096   8.617  13.533
62588W        W27573   9.944  37.796  14.835
62589W        W27574  40.323  32.562  12.818
62590W        W27575  22.575  43.806   0.019
62591W        W27576  24.729  22.294  11.184
62592W        W27577  37.087   7.901  12.637
62593W        W27578  37.148  40.017  10.541
62594W        W27579  28.923  34.349   1.217
62595W        W27580  11.750   2.233   4.820
62596W        W27581  41.378  34.116  13.483
62597W        W27582  36.488  35.296   0.969
62598W        W27583  21.803  37.413  12.381
62599W        W27584  12.890  27.746  13.081
62600W        W27585  24.292  15.149   4.548
62601W        W27586  22.625  19.702   4.327
62602W        W27587  33.523  22.347  10.628
62603W        W27588  27.259  33.541   3.635
62604W        W27589  28.259   8.496   0.841
62605W        W27590  32.378   6.080   3.063
62606W        W27591  13.196  23.980  14.039
62607W        W27592   5.986   3.724  11.131
62608W        W27593  20.823   0.393   2.612
62609W        W27594  19.516   0.341  12.249
62610W        W27595   9.624  17.301   3.769
62611W        W27596  11.111  23.601  10.477
62612W        W27597   6.100  17.258   2.372
62613W        W27598  36.377  36.040   4.147
62614W        W27599   3.505   5.261   0.246
62615W        W27600  40.885  14.675   9.815
62616W        W27601   0.473  41.014   1.759
62617W        W27602  25.487   4.987   0.069
62618W        W27603  25.712  27.934  10.196
62619W        W27604  29.961  15.577   1.358
62620W        W27605   9.172  17.199   4.034
62621W        W27606   3.461   0.782   4.145
62622W        W27607   3.278  27.378  13.957
62623W        W27608  28.664  23.186   3.746
62624W        W27609  18.874  13.568   1.318
62625W        W27610  33.868  23.936   2.553
62626W        W27611  12.176  42.840   3.293
62627W        W27612  20.883  25.468   2.918
62628W        W27613  15.563  40.557   4.040
62629W        W27614   7.721  44.418  10.700
62630W        W27615  39.330  13.859   2.764
62631W        W27616  40.545   2.032   0.073
62632W        W27617  15.676   0.688  10.689
62633W        W27618  15.618  39.618   4.345
62634W        W27619  11.452  38.357   4.167
62635W        W27620   0.215  39.509  12.648
62636W        W27621  38.919   1.990  10.609
62637W        W27622  10.486  35.020   1.863
62638W        W27623  25.958  34.634   1.214
62639W        W27624  30.892  36.367  14.499
62640W        W27625  30.645  20.123   0.890
62641W        W27626  33.435  26.221  10.367
62642W        W27627  29.961  38.891   0.254
62643W        W27628  25.464  29.027  10.763
62644W        W27629  29.631  44.028  13.585
62645W        W27630  33.093   4.264   2.235
62646W        W27631   7.273  28.948   1.913
62647W        W27632  23.195  35.330   4.488
62648W        W27633  27.248   9.048  14.964
62649W        W27634  41.529  28.683  10.034
62650W        W27635  23.004  27.716   3.043
62651W        W27636  36.785  38.868  13.964
62652W        W27637  25.201  10.234  11.560
62653W        W27638  31.529  21.559  14.514
62654W        W27639  39.844   0.588  12.064
62655W        W27640  44.956  19.168  13.970
62656W        W27641  18.720  31.172  14.859
62657W        W27642  15.062  22.352   2.416
62658W        W27643  14.222  29.760   3.316
62659W        W27644   5.243   8.335   1.980
62660W        W27645   3.526   6.914   2.393
62661W        W27646  33.176  33.418   4.644
62662W        W27647  31.519  23.227  11.096
62663W        W27648   0.934  33.456  11.984
62664W        W27649   6.630  10.312   4.169
62665W        W27650  41.376  20.504   3.597
62666W        W27651  16.655  25.637  13.920
62667W        W27652  10.414  25.566  10.895
62668W        W27653  14.512   7.671   1.437
62669W        W27654  43.244  13.128   4.060
62670W        W27655  33.109  37.675   4.121
62671W        W27656  21.855  32.467   1.284
62672W        W27657  13.020  37.509   1.202
62673W        W27658  33.714   7.079  10.279
62674W        W27659  39.981   8.920   0.034
62675W        W27660   8.114   4.354   3.102
62676W        W27661  24.659   0.703  11.123
62677W        W27662  40.560  40.413   3.102
62678W        W27663  16.149   1.056   0.363
62679W        W27664  22.100  23.894   4.612
62680W        W27665  19.208  32.538   4.318
62681W        W27666   8.815  14.860  14.497
62682W        W27667  11.719  33.138  14.036
62683W        W27668   1.440  36.832  13.367
62684W        W27669   1.189  15.796   0.193
62685W        W27670  25.630   1.257   0.096
62686W        W27671  39.879   9.649  12.021
62687W        W27672  23.913  32.044   4.145
62688W        W27673   9.191   0.332   0.027
62689W        W27674  39.881   4.589  11.513
62690W        W27675  20.794  44.814  12.972
62691W        W27676  32.835   4.813  13.904
62692W        W27677   6.149   6.894  13.759
62693W        W27678   2.923  16.254  13.791
62694W        W27679  26.030   0.062  12.083
62695W        W27680  11.976  18.294  12.748
62696W        W27681   2.293  30.601   2.720
62697W        W27682  33.290  15.294   4.155
62698W        W27683  26.780  37.471   4.711
62699W        W27684  35.086  39.850   4.527
62700W        W27685   9.745  21.248  14.740
62701W        W27686  21.574  19.255   3.159
62702W        W27687  11.348  43.478  11.649
62703W        W27688  12.577   9.856   0.295
62704W        W27689  21.206  20.338   2.910
62705W        W27690  23.619  26.886   1.440
62706W        W27691  23.768  44.927  14.432
62707W        W27692  21.659   7.343  12.423
62708W        W27693  40.774   9.656  13.019
62709W        W27694  40.898  11.150   0.588
62710W        W27695  20.337  18.007   3.189
62711W        W27696  21.468  30.933   3.132
62712W        W27697  11.284   9.964   2.326
62713W        W27698  30.923  10.214  10.731
62714W        W27699   9.874  14.882   2.630
62715W        W27700  11.599  19.073   4.732
62716W        W27701  16.880  30.768  13.076
62717W        W27702  13.751  43.551  14.062
62718W        W27703   5.003  39.935  10.714
62719W        W27704  13.754  16.679   3.646
62720W        W27705  44.985  30.070   3.655
62721W        W27706  22.425  36.378  14.929
62722W        W27707  39.961  31.551  11.068
62723W        W27708   0.782  35.585  14.448
62724W        W27709  11.940  11.713   1.909
62725W        W27710  32.417   2.177   2.280
62726W        W27711  29.011  33.899  14.804
62727W        W27712  23.171  44.915  11.968
62728W        W27713  33.075  16.900   4.208
62729W        W27714  12.294  33.677  11.519
62730W        W27715  22.630  20.312  10.720
62731W        W27716   3.148   8.395  13.472
62732W        W27717   8.739   0.999  12.929
62733W        W27718  13.261   8.853  12.857
62734W        W27719  28.255  20.030   0.996
62735W        W27720   7.344  19.561  12.634
62736W        W27721  12.611  21.775   2.484
62737W        W27722  42.732  29.569  11.134
62738W        W27723  28.418   8.151   3.611
62739W        W27724  29.398  16.714   0.405
62740W        W27725  41.721  44.281  12.461
62741W        W27726  28.299  13.371   3.826
62742W        W27727  28.413   3.412   1.786
62743W        W27728  17.027  17.032   3.335
62744W        W27729  29.258  16.194   2.408
62745W        W27730   5.018  22.194   1.762
62746W        W27731  40.596  41.839   2.922
62747W        W27732   6.648   9.049   4.806
62748W        W27733   6.256  19.034  14.423
62749W        W27734   5.115  44.311  12.816
62750W        W27735   2.773  18.797   4.666
62751W        W27736   2.952  44.018   4.527
62752W        W27737  34.482  22.474  13.045
62753W        W27738  25.059  35.866   4.413
62754W        W27739   0.338  43.960  11.950
62755W        W27740  17.412  11.198  10.683
62756W        W27741  12.819  42.628  13.426
62757W        W27742   3.653  43.508   3.042
62758W        W27743  23.051  32.973   0.226
62759W        W27744   6.398   3.357   2.802
62760W        W27745  28.848  36.589   0.860
62761W        W27746  16.651  20.840  12.066
62762W        W27747  10.197  24.902  11.998
62763W        W27748   2.489   3.006  13.385
62764W        W27749   5.832  22.610   4.867
62765W        W27750  16.705   2.205  10.603
62766W        W27751  40.204  20.316  14.805
62767W        W27752  39.090   9.606   3.790
62768W        W27753  42.789  25.208   3.574
62769W        W27754  40.097  11.823  10.785
62770W        W27755   6.353  28.702   0.432
62771W        W27756  22.717  11.835  14.827
62772W        W27757  36.691  43.369  14.365
62773W        W27758   5.949   9.535  13.404
62774W        W27759  11.565  38.391   3.245
62775W        W27760  15.339   2.849  10.247
62776W        W27761   3.188  23.566  12.076
62777W        W27762  13.641  29.463  10.608
62778W        W27763  30.611  25.921   1.437
62779W        W27764   3.684   9.601   2.321
62780W        W27765  39.390  35.028  13.044
62781W        W27766   2.574  22.523  12.578
62782W        W27767  41.094  43.056   3.796
62783W        W27768  14.246  10.475   0.487
62784W        W27769  44.856  27.001   3.400
62785W        W27770  20.169  19.787   1.828
62786W        W27771  13.883  27.180  13.996
62787W        W27772  25.262  42.159  10.623
62788W        W27773  43.258  38.510   4.340
62789W        W27774  35.046   0.860   3.711
62790W        W27775  41.238  20.434  13.326
62791W        W27776  38.581  29.486  13.256
62792W        W27777   7.243   0.089   2.793
62793W        W27778   8.026  31.641  14.917
62794W        W27779  26.226  43.023  10.638
62795W        W27780  28.594  31.217  12.041
62796W        W27781  26.523  24.748  10.695
62797W        W27782   0.333  23.606   1.466
62798W        W27783  29.079  20.061   1.324
62799W        W27784  34.631  35.552  14.270
62800W        W27785  19.220  32.665   1.929
62801W        W27786  43.945  39.817  10.865
62802W        W27787  14.764  33.113  12.427
62803W        W27788  36.655  38.885   4.040
62804W        W27789   5.807  19.390  11.995
62805W        W27790  29.007   9.468  11.122
62806W        W27791  31.653   2.501   4.093
62807W        W27792  32.564  32.553   4.601
62808W        W27793  16.931  14.599  11.901
62809W        W27794   2.174   3.862  14.429
62810W        W27795  17.702   9.314   2.091
62811W        W27796  42.449  28.540   2.273
62812W        W27797  24.094  19.848   1.679
62813W        W27798   2.762   1.162  13.426
62814W        W27799  31.335   7.380   3.247
62815W        W27800  16.137  30.372  14.736
62816W        W27801  17.603  37.408   0.239
62817W        W27802  21.733  19.314  14.890
62818W        W27803  39.048  29.544  13.526
62819W        W27804  43.459  41.326   3.082
62820W        W27805  18.941  41.010   4.228
62821W        W27806  26.363   9.795  11.254
62822W        W27807  44.646  24.095   1.481
62823W        W27808  18.475   1.427   3.288
62824W        W27809  39.632  17.680   5.163
62825W        W27810  26.402  24.844   0.732
62826W        W27811   1.103  35.826  14.090
62827W        W27812   2.075  25.554  14.451
62828W        W27813  23.220  19.148  11.165
62829W        W27814   2.174  26.507  13.387
62830W        W27815   9.375  11.719  11.157
62831W        W27816  40.068  21.071  12.909
62832W        W27817  38.409  37.624  11.117
62833W        W27818   5.364  39.639  12.567
62834W        W27819   4.907  36.955  11.148
62835W        W27820  17.643  35.966  14.850
62836W        W27821  10.314  14.772  11.078
62837W        W27822   6.622  17.828   3.778
62838W        W27823  19.206  22.291  12.826
62839W        W27824  27.639  34.878  14.083
62840W        W27825  37.491   5.909  11.303
62841W        W27826  32.409  42.440   1.203
62842W        W27827  13.035  39.938  14.003
62843W        W27828  14.140  41.036  13.533
62844W        W27829  22.941   0.237   1.337
62845W        W27830  30.931  23.162  12.464
62846W        W27831  27.726   0.942   1.393
62847W        W27832  33.492  12.080   4.523
62848W        W27833  12.380  19.237  14.881
62849W        W27834  14.813   3.994   0.714
62850W        W27835  16.236  27.512   0.522
62851W        W27836  12.938  15.824  12.831
62852W        W27837   0.759  17.585  11.338
62853W        W27838  33.310  16.373  14.501
62854W        W27839  14.590   9.881  12.087
62855W        W27840  29.244  32.894   4.705
62856W        W27841  29.622  24.898   1.397
62857W        W27842  16.054   8.839   1.101
62858W        W27843  35.012  14.143   2.193
62859W        W27844  43.871  25.444  13.920
62860W        W27845  11.850  16.000   4.200
62861W        W27846  25.690  39.006   3.378
62862W        W27847  15.706   2.497  13.288
62863W        W27848  35.057  13.610  12.832
62864W        W27849  11.272  18.690   4.634
62865W        W27850  32.329  33.695  10.478
62866W        W27851   1.366  15.979   1.102
62867W        W27852  15.514  24.026  11.714
62868W        W27853  20.306  13.205  13.681
62869W        W27854  29.709  42.659   0.702
62870W        W27855  34.299   7.666   4.152
62871W        W27856  11.109   7.908  12.930
62872W        W27857  14.264  10.729  14.015
62873W        W27858  43.424  25.209   2.158
62874W        W27859   5.848  18.112   1.898
62875W        W27860   5.275  19.434  13.729
62876W        W27861  13.155  40.327  10.748
62877W        W27862  42.481  41.081   4.257
62878W        W27863  19.077  20.669  10.654
62879W        W27864   1.008   7.354   3.097
62880W        W27865  37.045  15.236  12.017
62881W        W27866  13.064  12.614  14.790
62882W        W27867  44.263  43.533   4.211
62883W        W27868  12.268  18.335  10.702
62884W        W27869  31.486  37.554   2.759
62885W        W27870  35.545   9.176  14.442
62886W        W27871  40.333   5.970  12.078
62887W        W27872  27.244  23.115  11.831
62888W        W27873  14.805  38.159   0.359
62889W        W27874  24.273   1.413   1.879
62890W        W27875   8.214  25.244  12.067
62891W        W27876   3.740  36.893   2.334
62892W        W27877  22.814   7.635  12.785
62893W        W27878  20.241  10.389   3.313
62894W        W27879  38.771   6.131  10.607
62895W        W27880  40.016  12.145   2.304
62896W        W27881  43.806  22.247   0.948
62897W        W27882  44.900  19.020  13.198
62898W        W27883  39.530  31.179   4.027
62899W        W27884  25.476   2.022   0.397
62900W        W27885  40.407  13.166   3.828
62901W        W27886   2.352   2.785  10.666
62902W        W27887   5.686   3.348  11.876
62903W        W27888  32.524  20.968  13.005
62904W        W27889  42.860  17.805   3.373
62905W        W27890  12.748  26.867   4.288
62906W        W27891  43.900  36.046   1.268
62907W        W27892  19.436   8.399   0.026
62908W        W27893  22.909  22.523   4.629
62909W        W27894  27.607  41.153   3.393
62910W        W27895  30.903  29.598   0.710
62911W        W27896   1.354   4.959  14.717
62912W        W27897   1.164  23.573  12.055
62913W        W27898  21.671   3.857  12.580
62914W        W27899  32.516  35.078   4.848
62915W        W27900   3.200  10.189  14.837
62916W        W27901  39.348   8.387   2.103
62917W        W27902  40.537  18.423   4.118
62918W        W27903  42.877  36.076   1.182
62919W        W27904  29.739  12.034   0.557
62920W        W27905  28.921  43.937  14.421
62921W        W27906  31.318  41.118  13.485
62922W        W27907   1.264  22.721  13.346
62923W        W27908   3.661  33.980  11.545
62924W        W27909  25.954  43.960  14.713
62925W        W27910  38.427  26.385  11.675
62926W        W27911   8.042  32.846   0.175
62927W        W27912  16.569   4.858  11.676
62928W        W27913  28.164   9.797  12.516
62929W        W27914  39.414  29.505  14.957
62930W        W27915  35.006  17.826   1.905
62931W        W27916  37.379  18.755   4.617
62932W        W27917   2.221  33.877   4.507
62933W        W27918  37.993  24.231   1.538
62934W        W27919  24.563  19.709  13.296
62935W        W27920   3.018  29.374  13.898
62936W        W27921   0.194  40.040  12.049
62937W        W27922   8.249  14.568   3.886
62938W        W27923  16.699  37.786   1.422
62939W        W27924  41.228   6.405  11.123
62940W        W27925  24.775  24.528  10.617
62941W        W27926  16.055  41.085   3.672
62942W        W27927  33.667  42.924   4.092
62943W        W27928  31.967  17.708   0.252
62944W        W27929  17.193  33.470   2.203
62945W        W27930   7.392   1.422  13.184
62946W        W27931   9.382  19.852   2.376
62947W        W27932   1.444  32.256  12.537
62948W        W27933  13.210  26.756   0.359
62949W        W27934   9.305  34.882  11.976
62950W        W27935  42.005  31.559   3.353
62951W        W27936  27.687  12.558  11.391
62952W        W27937  24.357  12.272  14.341
62953W        W27938  11.710  37.164  12.898
62954W        W27939  28.038   0.802  10.407
62955W        W27940  14.707  36.952   1.845
62956W        W27941   3.786  40.388  13.535
62957W        W27942   7.693   5.677  13.903
62958W        W27943  33.938   1.152  11.597
62959W        W27944  29.606  26.150  10.708
62960W        W27945  31.679   4.246   4.620
62961W        W27946  39.974  14.324   3.733
62962W        W27947  36.013  19.132   0.471
62963W        W27948  13.815  27.449   4.966
62964W        W27949   3.969  39.311   2.658
62965W        W27950  42.361  30.467  12.524
62966W        W27951   4.009  38.323   3.621
62967W        W27952   3.399  21.102   4.563
62968W        W27953   2.520  27.274  14.962
62969W        W27954  14.564  32.324   2.570
62970W        W27955  40.910   8.223  11.986
62971W        W27956  27.860  12.147  13.415
62972W        W27957  18.724   3.416  11.646
62973W        W27958   1.163  20.035   0.262
62974W        W27959   7.848  20.577   1.884
62975W        W27960  26.855  42.846   4.717
62976W        W27961  44.272  13.750   1.327
62977W        W27962  23.922  28.131  10.672
62978W        W27963  16.383  42.489   0.914
62979W        W27964  39.766  21.724   1.830
62980W        W27965  37.109  12.796   0.929
62981W        W27966  13.126  13.668  14.797
62982W        W27967   5.293  35.024  10.356
62983W        W27968   3.489  43.348  13.802
62984W        W27969  40.025  36.723   4.131
62985W        W27970  32.851  37.515   4.538
62986W        W27971  11.473  10.099  12.298
62987W        W27972  41.216  36.102   3.583
62988W        W27973   3.105  23.310   2.288
62989W        W27974  21.485  43.389   2.802
62990W        W27975  26.368  10.732  14.976
62991W        W27976  20.785  44.434   2.678
62992W        W27977   3.348  23.943  10.680
62993W        W27978   9.624  17.138   4.277
62994W        W27979  27.616   6.137  14.817
62995W        W27980   0.511   6.725  14.976
62996W        W27981  10.839  11.535  13.825
62997W        W27982  42.557  13.249   1.313
62998W        W27983  13.713   2.688   4.731
62999W        W27984  27.896  16.215  12.684
63000W        W27985  36.053  24.384   1.859
63001W        W27986   7.706  20.103  14.027
63002W        W27987   9.863   0.633  13.477
63003W        W27988  44.854  31.969   0.408
63004W        W27989  32.424  26.851   2.717
63005W        W27990  33.647  35.788   2.972
63006W        W27991  40.030   7.834  12.122
63007W        W27992   5.649   5.185  14.677
63008W        W27993  10.830  10.794   0.292
63009W        W27994  21.525  28.119  13.605
63010W        W27995  25.930  13.552  11.616
63011W        W27996  36.127  35.635   3.249
63012W        W27997  44.038  22.961  10.249
63013W        W27998  15.856   4.984   0.841
63014W        W27999  13.157  13.083  12.901
63015W        W28000  34.082  33.377   4.523
63016W        W28001  21.721   4.142  14.892
63017W        W28002   0.019  39.989  13.767
63018W        W28003  28.444  10.051   3.575
63019W        W28004   4.453   0.401   4.249
63020W        W28005   9.375   2.351   0.855
63021W        W28006  19.002  33.655   0.310
63022W        W28007  20.028  26.630  12.442
63023W        W28008  30.408  19.200  11.979
63024W        W28009  44.754  36.067   4.594
63025W        W28010  10.293  35.638  11.997
63026W        W28011   6.106  44.149   5.081
63027W        W28012  25.504  40.489   2.278
63028W        W28013   9.784  23.784  10.649
63029W        W28014  12.786  21.717   3.885
63030W        W28015   3.167  32.527   4.661
63031W        W28016  10.364  25.672  11.387
63032W        W28017  25.821  30.209   1.314
63033W        W28018  39.181  22.902   3.555
63034W        W28019  17.346  30.887   2.495
63035W        W28020  18.435  11.695  13.396
63036W        W28021   6.627  24.075  14.282
63037W        W28022   5.671   5.458  12.037
63038W        W28023  21.190  17.615   3.889
63039W        W28024  10.712  14.444   3.153
63040W        W28025  40.938  27.639  11.359
63041W        W28026  25.799  23.539  11.542
63042W        W28027  24.780  22.745  14.416
63043W        W28028  25.212  13.703  14.756
63044W        W28029  31.659  40.969  12.457
63045W        W28030  42.490   3.022   3.207
63046W        W28031  31.876  14.753   2.688
63047W        W28032  30.472  40.770  12.014
63048W        W28033  12.814  40.823  10.605
63049W        W28034  12.347  33.670   1.949
63050W        W28035  41.918  26.754   2.048
63051W        W28036  29.169  30.643  11.656
63052W        W28037  23.346  16.891   2.359
63053W        W28038  20.156  22.565   0.858
63054W        W28039  24.488   3.014  13.655
63055W        W28040  28.941   7.915  11.511
63056W        W28041  28.003  12.378   2.147
63057W        W28042  23.711  32.156  13.518
63058W        W28043  31.039  37.451   2.222
63059W        W28044  22.579  38.926  11.364
63060W        W28045  17.135  31.553  12.057
63061W        W28046  20.445  21.637  11.111
63062W        W28047  21.844  19.717   1.236
63063W        W28048  18.640  42.054   0.240
63064W        W28049  34.074  44.888  12.918
63065W        W28050  10.713  15.158  13.607
63066W        W28051  18.595  34.897  11.898
63067W        W28052  26.608  20.540   4.284
63068W        W28053  12.579  14.694   4.679
63069W        W28054   3.728  37.580  10.750
63070W        W28055  13.900   2.256   4.555
63071W        W28056   7.823  39.453   0.797
63072W        W28057  27.804   2.341  11.647
63073W        W28058  29.529  39.771  13.501
63074W        W28059  19.978   2.828  14.590
63075W        W28060   2.777  20.380  14.922
63076W        W28061  44.989  36.908   0.319
63077W        W28062   9.954  38.481   2.473
63078W        W28063  38.794  12.771   3.821
63079W        W28064  21.561  44.687  12.539
63080W        W28065  15.301  32.977  11.718
63081W        W28066  29.421  24.966  11.156
63082W        W28067  24.590   0.125   4.500
63083W        W28068  16.763  35.634   3.137
63084W        W28069  12.142  12.190  12.171
63085W        W28070  39.827  11.183   0.268
63086W        W28071  19.294  40.361  11.144
63087W        W28072  23.749  14.244   4.442
63088W        W28073  18.468   3.274  14.469
63089W        W28074  32.051   4.460   3.339
63090W        W28075  33.377  32.208   0.358
63091W        W28076  38.468  23.579   2.001
63092W        W28077  34.156  18.611  14.963
63093W        W28078  29.584  39.905  12.574
63094W        W28079  40.299  27.047   0.002
63095W        W28080  21.526  18.613  10.142
63096W        W28081  40.573   1.487  12.573
63097W        W28082   0.197  40.641   1.523
63098W        W28083  43.453  44.855   1.343
63099W        W28084  13.867  28.601  13.408
63100W        W28085  41.430  39.339  14.896
63101W        W28086  13.697  15.129  14.359
63102W        W28087  28.983   5.712   2.413
63103W        W28088  36.915  38.886   2.961
63104W        W28089  42.372  41.881   0.995
63105W        W28090  40.346  38.284   3.757
63106W        W28091  38.614  40.805  13.003
63107W        W28092  39.082  43.717   0.395
63108W        W28093  10.738  43.605   0.251
63109W        W28094   2.398  17.807   3.261
63110W        W28095  11.652  29.156  13.408
63111W        W28096  11.240  39.055   3.717
63112W        W28097   2.835  34.502   0.440
63113W        W28098  27.076  13.346   2.386
63114W        W28099  30.711  24.142  14.681
63115W        W28100  15.573  29.199   1.117
63116W        W28101   4.214  36.450  11.112
63117W        W28102  18.166   5.407  12.475
63118W        W28103   7.108  26.233   4.634
63119W        W28104  11.907  38.010  12.374
63120W        W28105  34.399   2.346  14.320
63121W        W28106  25.773  11.926  14.005
63122W        W28107  43.993  26.599  14.799
63123W        W28108   0.786  35.065   2.281
63124W        W28109   3.382  24.031   1.171
63125W        W28110  43.272  11.045  14.913
63126W        W28111   2.383  25.252   3.399
63127W        W28112  11.670  42.715   0.765
63128W        W28113  10.241  19.168   4.095
63129W        W28114  39.409  21.438  12.364
63130W        W28115   2.916  26.927  14.999
63131W        W28116   7.673   2.859  12.914
63132W        W28117  26.226   9.742   1.214
63133W        W28118  12.835  36.926   4.370
63134W        W28119  28.680  16.030  13.109
63135W        W28120   8.400  44.900   1.290
63136W        W28121  18.407  37.529   1.278
63137W        W28122   1.409  20.637   4.588
63138W        W28123  35.177  15.646   0.458
63139W        W28124  18.044  18.546   1.257
63140W        W28125  12.632  28.653  13.880
63141W        W28126  18.689  16.921   1.839
63142W        W28127  17.043  21.717  12.807
63143W        W28128  26.681  26.960   2.300
63144W        W28129  17.952   1.385   2.372
63145W        W28130  16.266  14.146   0.955
63146W        W28131  17.111  43.195   3.794
63147W        W28132  24.158  39.952   4.651
63148W        W28133  17.155  30.011   2.012
63149W        W28134  38.931  42.851  12.892
63150W        W28135  16.730  11.253  12.528
63151W        W28136  15.251  23.121   1.794
63152W        W28137  17.149  42.475   3.116
63153W        W28138  22.225  44.906   2.193
63154W        W28139   2.084   5.852  12.143
63155W        W28140  16.985  33.504   4.709
63156W        W28141  20.085  12.532  11.698
63157W        W28142  32.795  19.013   1.267
63158W        W28143   5.323  12.582  14.368
63159W        W28144  26.931   3.290  14.988
63160W        W28145  26.681  36.376   0.998
63161W        W28146  18.046   8.654   0.518
63162W        W28147  12.903  27.898   1.617
63163W        W28148  27.639  31.338   3.533
63164W        W28149  27.488  32.086  13.823
63165W        W28150   4.828   9.976   0.757
63166W        W28151   4.464  36.879  10.904
63167W        W28152   0.466  42.747   0.224
63168W        W28153   0.892  32.152  13.367
63169W        W28154  30.435  24.148  11.461
63170W        W28155  15.948  36.822   1.441
63171W        W28156  26.669  44.117  10.268
63172W        W28157  27.016  27.238  13.096
63173W        W28158  28.411   2.886  12.874
63174W        W28159  30.320  44.903  12.898
63175W        W28160  20.714  19.887  10.316
63176W        W28161  40.934  15.740  11.093
63177W        W28162   0.271   7.442  12.450
63178W        W28163  35.183  20.912   4.565
63179W        W28164  17.992  18.170  10.290
63180W        W28165  21.442  44.541   2.467
63181W        W28166  39.328  31.562  13.903
63182W        W28167  29.072  19.732   4.084
63183W        W28168  35.558  39.906   3.165
63184W        W28169  31.344   2.993  14.365
63185W        W28170  44.384  23.864  10.302
63186W        W28171  10.766   7.614   0.331
63187W        W28172  38.107  18.990  13.006
63188W        W28173  20.163  10.515   4.650
63189W        W28174   5.824  18.106  14.313
63190W        W28175  31.821  17.741  12.525
63191W        W28176  23.488  21.720   0.096
63192W        W28177  23.447   5.829  13.917
63193W        W28178  44.024  44.290   4.758
63194W        W28179  38.443  13.570  13.061
63195W        W28180  31.608   3.201  13.352
63196W        W28181  44.550   9.058  12.795
63197W        W28182   7.252  20.699   0.200
63198W        W28183  25.546  10.589  13.425
63199W        W28184  10.147  31.521   2.362
63200W        W28185  25.947  19.634  14.733
63201W        W28186  15.030  31.494  14.019
63202W        W28187  33.367  34.328   4.019
63203W        W28188   1.370  35.356  10.529
63204W        W28189  43.452   2.644  12.184
63205W        W28190   2.825   5.503  11.779
63206W        W28191  17.592   0.966  14.725
63207W        W28192  42.474  40.861  14.680
63208W        W28193  13.050  28.327   4.486
63209W        W28194   8.431  12.151  13.030
63210W        W28195  40.548  15.595  10.783
63211W        W28196  42.391  29.207   1.560
63212W        W28197  28.239  19.283  11.614
63213W        W28198  36.126  34.241  10.990
63214W        W28199  23.057  18.705   1.324
63215W        W28200   8.351   3.962   3.393
63216W        W28201  14.787  42.905  11.555
63217W        W28202  19.636  31.943   1.322
63218W        W28203   5.766  17.172  12.516
63219W        W28204  25.043  41.854  10.967
63220W        W28205   6.374  29.135   0.153
63221W        W28206   2.489  30.416   9.994
63222W        W28207  38.327  41.788   3.250
63223W        W28208   0.465  40.391   4.744
63224W        W28209  13.516  28.424  11.027
63225W        W28210  27.445   5.312  11.952
63226W        W28211  37.954  43.728   3.818
63227W        W28212   5.141   4.483  10.207
63228W        W28213  22.891  36.779  10.417
63229W        W28214  13.364  43.061   4.665
63230W        W28215   3.836  44.488  14.017
63231W        W28216  13.092  40.290  14.888
63232W        W28217  30.563  19.047  13.576
63233W        W28218  26.350  22.839  10.606
63234W        W28219  29.250  25.974  11.022
63235W        W28220  42.773  16.899  13.430
63236W        W28221  18.716  20.548  13.323
63237W        W28222  22.283   7.211  10.309
63238W        W28223  15.058   7.744   1.398
63239W        W28224  25.016  19.088   0.320
63240W        W28225   8.401  42.434  12.518
63241W        W28226  24.011   7.912  14.401
63242W        W28227  25.344  39.242   5.159
63243W        W28228  26.130  32.392   3.109
63244W        W28229  37.464  19.604   3.502
63245W        W28230  23.013  38.157   4.109
63246W        W28231  29.148  29.539   3.801
63247W        W28232   4.802  19.718  13.721
63248W        W28233   4.598  44.490  12.873
63249W        W28234  41.483   3.381   3.704
63250W        W28235  21.554  23.171   3.899
63251W        W28236  22.436  19.079   3.648
63252W        W28237   6.225  39.005   1.767
63253W        W28238  11.483  39.289   4.143
63254W        W28239  39.039  33.040   0.843
63255W        W28240   4.293  41.190  11.080
63256W        W28241  43.495  10.385   2.828
63257W        W28242  34.459  41.864   4.509
63258W        W28243  30.387   4.439   2.693
63259W        W28244  21.404  18.267   1.587
63260W        W28245  26.062   5.250  12.490
63261W        W28246  10.800  33.404   2.906
63262W        W28247   7.876  30.683  11.482
63263W        W28248  44.502  35.572  12.675
63264W        W28249  28.956  29.468   3.336
63265W        W28250  24.516  23.669  13.988
63266W        W28251  15.802   4.724  12.468
63267W        W28252   8.339  22.385  13.313
63268W        W28253   6.709  37.859  13.506
63269W        W28254   7.657  39.965  11.985
63270W        W28255  34.540  40.470   4.202
63271W        W28256  30.150  29.898   4.741
63272W        W28257  16.806  41.983   0.216
63273W        W28258  15.787   1.378  14.842
63274W        W28259  22.950  10.863  12.782
63275W        W28260  18.331  17.351  14.292
63276W        W28261   0.894   7.715  11.736
63277W        W28262   2.120   4.986  12.046
63278W        W28263  44.917  12.227  12.492
63279W        W28264  37.462  33.327   4.621
63280W        W28265  12.145  30.570  11.411
63281W        W28266  22.600  23.657   4.650
63282W        W28267   8.659  20.564  14.949
63283W        W28268  11.137  10.134  10.603
63284W        W28269  33.116  13.993  12.441
63285W        W28270  25.182  36.480   1.005
63286W        W28271  39.454   4.551   4.023
63287W        W28272   4.848  11.332   0.525
63288W        W28273  32.637  42.494   3.278
63289W        W28274   1.698  15.310  12.006
63290W        W28275  16.692  10.275  11.455
63291W        W28276  37.856   2.227  14.914
63292W        W28277  10.204  14.566  11.547
63293W        W28278  22.099  16.204   4.064
63294W        W28279  15.258   6.806   2.928
63295W        W28280  34.592  32.574   2.687
63296W        W28281  39.742  10.370   4.922
63297W        W28282   0.587  32.967  14.538
63298W        W28283  21.473  13.216  11.492
63299W        W28284  15.194  25.900  10.755
63300W        W28285  19.618  12.808  14.180
63301W        W28286  33.609  20.663   0.427
63302W        W28287  42.811  38.667   4.536
63303W        W28288  21.626   5.202   4.110
63304W        W28289  17.194   5.823  13.755
63305W        W28290   6.683  23.038   3.921
63306W        W28291  39.119  14.954   2.185
63307W        W28292  39.978  36.881   2.802
63308W        W28293  32.289   7.553   4.223
63309W        W28294  33.658  41.253  12.096
63310W        W28295  23.568  11.086  13.362
63311W        W28296  42.397  30.113   2.158
63312W        W28297  33.770  37.454   5.151
63313W        W28298  25.696  22.909  11.970
63314W        W28299  35.317  22.584  12.100
63315W        W28300  43.312  36.365  14.465
63316W        W28301  24.187   7.680   2.803
63317W        W28302   5.108  27.520  12.126
63318W        W28303  14.122  29.951   0.997
63319W        W28304  20.037   6.191   0.956
63320W        W28305  41.375  29.344  11.538
63321W        W28306  25.183  10.203   0.237
63322W        W28307  18.192  36.966   1.841
63323W        W28308  18.493  17.672   1.387
63324W        W28309  10.676  21.234   3.093
63325W        W28310  15.133  44.651   4.242
63326W        W28311  41.250   9.772  13.927
63327W        W28312  10.984  44.267   3.277
63328W        W28313  23.144  23.349   2.308
63329W        W28314   7.243  34.596  14.310
63330W        W28315  37.990  17.155  11.592
63331W        W28316  28.993  18.468  11.440
63332W        W28317  35.107  36.932   2.341
63333W        W28318  39.279  34.451   5.262
63334W        W28319  44.971  16.291   2.260
63335W        W28320  22.101  23.054  14.850
63336W        W28321  24.846   6.447   1.649
63337W        W28322  40.324  26.984  13.007
63338W        W28323   3.723  31.127   4.238
63339W        W28324  10.871   2.634   3.338
63340W        W28325  40.626  32.966   5.327
63341W        W28326  18.733  12.553  13.565
63342W        W28327   7.653  15.659   1.329
63343W        W28328  39.376  26.020  12.605
63344W        W28329  11.750   4.698   3.104
63345W        W28330  12.389  42.326  14.676
63346W        W28331  41.477  23.065  10.252
63347W        W28332  44.557   7.203   0.229
63348W        W28333  18.101  32.020   3.377
63349W        W28334  20.855  22.344  10.743
63350W        W28335  23.493  33.635  13.500
63351W        W28336  40.872  24.142  12.971
63352W        W28337  17.136  17.869   3.755
63353W        W28338   3.736   0.315  14.658
63354W        W28339   3.466  19.999  12.069
63355W        W28340   3.969  14.554   1.180
63356W        W28341  31.343  41.048  11.043
63357W        W28342  11.659  21.281  12.884
63358W        W28343  29.129  16.072  13.788
63359W        W28344   2.471  43.310   3.595
63360W        W28345  31.313   0.313  10.701
63361W        W28346  29.901  18.043  11.160
63362W        W28347  40.268   1.491  14.396
63363W        W28348  44.972   6.200  11.342
63364W        W28349   2.873  28.000   2.801
63365W        W28350  30.964  26.139   4.071
63366W        W28351  34.893  42.777   4.568
63367W        W28352   5.079  43.999  13.660
63368W        W28353  23.437  25.997   1.450
63369W        W28354  20.785  41.799   3.035
63370W        W28355  40.362  20.809  14.800
63371W        W28356  18.469   0.917   4.062
63372W        W28357  14.466  40.384  13.998
63373W        W28358  38.287   5.922   4.320
63374W        W28359  18.822   6.693  12.081
63375W        W28360  14.110   8.236   0.335
63376W        W28361  31.658   8.362  11.717
63377W        W28362  38.374  11.839  12.503
63378W        W28363   7.048   2.808   4.008
63379W        W28364  27.956  24.327  10.861
63380W        W28365   3.127  32.951  11.655
63381W        W28366  30.577  33.390  11.650
63382W        W28367  22.681   2.526  11.579
63383W        W28368  32.401  43.724   0.796
63384W        W28369  21.713   5.590   3.331
63385W        W28370  36.189  21.129  11.168
63386W        W28371  28.674  10.013   0.727
63387W        W28372  36.746   0.384  10.049
63388W        W28373  21.738  31.888  11.903
63389W        W28374  40.768   1.991   1.229
63390W        W28375   2.894  18.739   1.238
63391W        W28376  44.073  34.943   0.769
63392W        W28377   1.212  23.567   0.499
63393W        W28378  28.225   3.708  10.671
63394W        W28379  11.168  30.384   1.829
63395W        W28380  30.939  44.863   1.826
63396W        W28381   9.337   7.867   2.206
63397W        W28382  41.810  12.848  13.961
63398W        W28383  14.381   8.702  11.153
63399W        W28384  31.654  41.830   1.320
63400W        W28385  17.868   0.027  13.807
63401W        W28386  13.652  27.238   4.064
63402W        W28387  29.765  10.732   0.430
63403W        W28388   8.102  19.202   3.612
63404W        W28389  19.907  24.757   4.801
63405W        W28390  17.219  32.039  12.824
63406W        W28391  25.608  10.394   4.121
63407W        W28392   9.338  39.929  12.514
63408W        W28393  35.142  22.832  11.049
63409W        W28394  20.130  29.972   3.599
63410W        W28395  42.735   0.414  11.658
63411W        W28396  21.761  36.988  10.743
63412W        W28397  13.082   0.488  13.628
63413W        W28398  24.162  30.578   2.223
63414W        W28399   0.273   3.195  11.203
63415W        W28400  26.978  27.219  10.791
63416W        W28401  16.297  26.588  12.060
63417W        W28402  42.044   3.983   3.354
63418W        W28403  38.609  21.224   3.860
63419W        W28404  27.108  40.971   0.789
63420W        W28405  32.588  24.282  13.404
63421W        W28406  33.315  32.090  11.790
63422W        W28407  17.242   7.711   4.098
63423W        W28408   1.278  42.055  14.020
63424W        W28409  36.030   4.866  13.272
63425W        W28410  11.580  38.990   1.247
63426W        W28411  11.468  28.374   3.813
63427W        W28412   1.359  22.525   4.062
63428W        W28413  42.724  17.709  10.759
63429W        W28414  28.322  35.453  11.182
63430W        W28415   0.485  27.565  10.391
63431W        W28416   5.628   4.704  10.294
63432W        W28417  40.963  33.104   0.408
63433W        W28418  15.146  36.037   3.702
63434W        W28419  21.149  31.943   4.132
63435W        W28420  36.663  19.957   0.014
63436W        W28421   9.266   1.445  12.582
63437W        W28422   1.069  35.993  12.800
63438W        W28423  44.275   2.728   2.529
63439W        W28424  32.556  16.258   3.278
63440W        W28425  40.784  17.211   0.162
63441W        W28426   5.301  16.776  14.472
63442W        W28427  16.604  13.262  10.687
63443W        W28428  29.201  26.261  12.097
63444W        W28429  27.790  14.911   0.859
63445W        W28430   1.253  38.509  12.854
63446W        W28431   4.509   1.949  12.923
63447W        W28432  19.271  27.070   1.339
63448W        W28433  32.625   9.066   1.729
63449W        W28434  43.533  11.580   3.238
63450W        W28435  19.099  12.378  14.516
63451W        W28436  17.735  13.898   0.465
63452W        W28437  39.281  15.627  10.582
63453W        W28438  29.356  35.575  11.033
63454W        W28439   7.044  36.997  11.527
63455W        W28440  28.060  34.606  10.744
63456W        W28441  38.771  25.008  11.150
63457W        W28442  21.296  12.229   3.765
63458W        W28443  23.739  39.066   4.497
63459W        W28444  18.263   4.957  12.013
63460W        W28445  31.200  22.071  12.019
63461W        W28446  31.476  12.736   0.282
63462W        W28447  40.348  31.751   4.976
63463W        W28448   0.390  16.517  12.840
63464W        W28449   3.755  44.390   3.687
63465W        W28450   2.518   5.482  13.828
63466W        W28451  41.747   0.408  11.977
63467W        W28452  12.612   5.482  10.968
63468W        W28453   5.864  27.656  14.788
63469W        W28454  27.142   6.739  13.333
63470W        W28455  21.671   8.543   1.732
63471W        W28456  13.394   8.899   0.684
63472W        W28457  41.807  15.237  10.746
63473W        W28458  15.833  15.526   2.754
63474W        W28459   6.507  42.313   1.263
63475W        W28460  23.119  41.412  14.369
63476W        W28461  30.687  12.765  12.911
63477W        W28462  26.468  15.178  11.603
63478W        W28463   8.819  39.799  12.609
63479W        W28464  43.556  28.987  14.939
63480W        W28465  21.199  19.223   2.769
63481W        W28466   5.297  38.859   2.217
63482W        W28467  34.014   0.890   3.660
63483W        W28468  25.058  10.870  14.638
63484W        W28469   9.772  17.330   0.693
63485W        W28470  23.039   7.483   3.314
63486W        W28471   8.316  39.440   3.150
63487W        W28472  16.298  30.420  13.434
63488W        W28473   7.266  38.231   0.715
63489W        W28474  36.139  37.306  11.223
63490W        W28475  11.368  25.761   0.953
63491W        W28476  36.827  32.919  11.728
63492W        W28477  17.263  21.648  13.821
63493W        W28478  42.291  39.938  13.459
63494W        W28479  28.917  40.154   1.201
63495W        W28480  20.035  37.469  14.911
63496W        W28481   1.409  35.143   2.118
63497W        W28482  21.524   3.358  12.475
63498W        W28483  31.961  20.513  11.453
63499W        W28484   2.521   1.710   3.774
63500W        W28485  19.133  32.155  12.933
63501W        W28486  13.770   3.777  13.995
63502W        W28487  17.113   9.604  11.906
63503W        W28488   8.724  17.655   3.686
63504W        W28489  10.357  39.160  14.318
63505W        W28490   4.689  31.046  10.660
63506W        W28491   4.469  32.441   3.968
63507W        W28492   5.516  19.456   2.288
63508W        W28493  36.631  17.490  11.684
63509W        W28494   7.158  11.829   0.424
63510W        W28495  24.085  30.409   0.244
63511W        W28496   4.492  38.602   3.688
63512W        W28497  23.089   1.552   1.882
63513W        W28498  35.593  31.325  10.675
63514W        W28499   4.444  41.072   1.222
63515W        W28500  28.400  31.395   2.348
63516W        W28501  24.912  39.478  14.959
63517W        W28502   7.866  36.409   4.088
63518W        W28503  37.310  15.883   4.570
63519W        W28504  16.526  38.449   4.128
63520W        W28505  21.016  22.991   1.796
63521W        W28506  18.557  15.079  14.351
63522W        W28507  17.488  20.749   0.383
63523W        W28508   1.060  32.934  12.996
63524W        W28509  32.539  34.907   4.347
63525W        W28510  13.879  32.034  10.295
63526W        W28511  17.644  16.112   1.316
63527W        W28512   5.747  41.888  12.532
63528W        W28513  14.162  19.671   3.169
63529W        W28514  30.416  34.826   2.292
63530W        W28515   5.788  16.866   3.872
63531W        W28516  13.670   0.236  12.970
63532W        W28517  37.750  12.080  11.730
63533W        W28518  34.074   8.099   0.753
63534W        W28519  31.808  24.505   5.077
63535W        W28520   0.384  37.236   3.278
63536W        W28521  34.663  42.037   3.280
63537W        W28522  31.690   8.138   3.631
63538W        W28523  16.696   9.163  12.005
63539W        W28524  21.780  36.103  13.921
63540W        W28525  32.534  34.039  13.317
63541W        W28526   3.802   7.226  13.540
63542W        W28527  41.838  13.362  13.883
63543W        W28528  21.270   0.282  11.787
63544W        W28529  21.433  13.152   4.580
63545W        W28530  39.967   7.385   3.296
63546W        W28531  17.268  24.895  14.204
63547W        W28532  30.852  28.972  11.691
63548W        W28533   2.461   9.943   0.279
63549W        W28534   8.403  24.961   4.267
63550W        W28535   5.770  33.343   3.334
63551W        W28536  11.442  43.206  12.488
63552W        W28537  13.377  28.527  13.409
63553W        W28538   7.192  41.678  13.888
63554W        W28539   8.197  27.747   4.709
63555W        W28540  21.560  35.898  11.638
63556W        W28541  44.587  40.181   3.560
63557W        W28542  38.555  38.957  12.981
63558W        W28543  36.523  41.430   0.574
63559W        W28544   3.248  44.484   1.049
63560W        W28545   5.293   7.473  11.141
63561W        W28546  16.843   2.158   3.562
63562W        W28547  38.527  14.729  12.209
63563W        W28548  12.771   1.678   1.335
63564W        W28549  11.303  32.054  10.493
63565W        W28550  23.052  40.018   4.690
63566W        W28551  13.805  16.017   1.561
63567W        W28552  21.100   0.849   0.428
63568W        W28553   9.837   5.060   5.381
63569W        W28554  21.050  28.137   0.742
63570W        W28555   1.329  10.150  10.879
63571W        W28556  22.109  26.882  14.537
63572W        W28557  30.331   2.660   0.080
63573W        W28558  30.438  42.409   0.860
63574W        W28559  35.042  21.960   0.331
63575W        W28560   2.229  10.667  11.655
63576W        W28561  30.654  20.437  12.377
63577W        W28562  27.514  13.904  11.530
63578W        W28563  12.133   8.612   0.350
63579W        W28564  21.272   1.010   5.096
63580W        W28565  34.841  44.453   3.285
63581W        W28566  32.225  41.368   1.698
63582W        W28567   0.834  23.289   4.301
63583W        W28568  33.326  15.634   4.537
63584W        W28569  23.777  40.262   1.724
63585W        W28570  13.113  33.579   3.670
63586W        W28571  35.564  10.328  14.012
63587W        W28572   7.040  42.502   1.929
63588W        W28573  43.421  24.221  11.475
63589W        W28574   4.305  38.378   0.023
63590W        W28575  24.974  39.740  14.495
63591W        W28576   4.165  31.295  13.806
63592W        W28577  40.848   3.655   0.818
63593W        W28578  35.993   7.665  14.782
63594W        W28579  31.177  30.528   3.310
63595W        W28580  10.342  40.478   0.875
63596W        W28581  24.663  34.869  11.624
63597W        W28582  25.145  34.302   1.207
63598W        W28583  20.262   0.785  12.547
63599W        W28584  21.806  22.928   2.058
63600W        W28585  22.583  22.290   4.956
63601W        W28586  25.474  27.927  11.124
63602W        W28587  17.137  10.260  11.720
63603W        W28588  36.887  37.154   4.650
63604W        W28589  31.215  39.381  11.654
63605W        W28590   9.852   2.730   2.577
63606W        W28591  13.175   0.237   0.080
63607W        W28592   4.179  13.722  13.423
63608W        W28593  32.219  32.364  11.646
63609W        W28594  31.975  32.903  14.336
63610W        W28595  29.373  24.545  12.715
63611W        W28596  13.180  43.266  14.961
63612W        W28597  18.770  41.982   2.986
63613W        W28598  23.083  44.045  13.746
63614W        W28599  24.159   9.937  13.832
63615W        W28600  13.999   1.322  14.599
63616W        W28601  29.807   0.526  11.944
63617W        W28602  26.288   4.200  13.626
63618W        W28603   8.696  44.370   2.805
63619W        W28604   9.495  10.390   1.329
63620W        W28605   4.292  30.450  10.867
63621W        W28606  29.981  35.634  12.650
63622W        W28607  12.657  20.864   2.663
63623W        W28608  33.770   6.704  12.028
63624W        W28609  23.335   3.388   3.103
63625W        W28610  36.916   5.481  13.168
63626W        W28611  29.444   7.041  13.466
63627W        W28612   5.747  12.132  10.943
63628W        W28613  15.290  27.388  14.454
63629W        W28614   8.595   0.741   4.263
63630W        W28615   5.522  33.040  11.223
63631W        W28616  12.063  22.814   0.730
63632W        W28617  16.246  40.889  13.069
63633W        W28618  26.075  39.547  13.329
63634W        W28619   1.986  18.484   3.341
63635W        W28620  18.621  29.679  11.540
63636W        W28621  42.891  14.215   1.347
63637W        W28622  21.191  26.469   4.625
63638W        W28623  20.231  43.805  10.335
63639W        W28624  41.770  13.223  12.831
63640W        W28625  31.459  30.983   4.535
63641W        W28626  29.592  44.956  10.788
63642W        W28627  39.792  27.035  11.134
63643W        W28628   3.282  28.285  11.653
63644W        W28629  14.828  10.073  14.496
63645W        W28630  18.221  16.657   1.060
63646W        W28631  35.370  43.324  14.998
63647W        W28632  36.548  24.785  12.115
63648W        W28633  11.280  36.234  12.118
63649W        W28634  23.718   3.763   1.846
63650W        W28635   0.258  35.851  14.362
63651W        W28636  40.672  27.206  13.562
63652W        W28637  27.611  37.920  12.950
63653W        W28638  35.938   7.302  14.297
63654W        W28639  23.582  31.427  10.626
63655W        W28640  38.455  31.323   3.363
63656W        W28641  26.720   5.492  12.766
63657W        W28642  14.584  12.064  14.038
63658W        W28643   3.035  22.579  11.520
63659W        W28644  44.345   0.569  13.364
63660W        W28645  21.793  39.654  11.393
63661W        W28646  20.213  30.636  13.388
63662W        W28647  36.688  34.671   2.843
63663W        W28648   9.644  14.717   0.905
63664W        W28649   6.444  26.553  10.566
63665W        W28650  40.620  13.782   0.922
63666W        W28651   8.753   5.103  12.477
63667W        W28652  22.500   4.873  10.267
63668W        W28653  15.619   7.217  11.258
63669W        W28654  11.001   1.483   3.867
63670W        W28655  28.757   9.863  14.444
63671W        W28656  37.915   3.125   4.587
63672W        W28657   3.945   7.998  13.979
63673W        W28658  17.899  13.102   3.315
63674W        W28659  23.704   1.516  12.015
63675W        W28660  40.854  35.949   0.914
63676W        W28661  20.591  29.244   3.685
63677W        W28662   7.640  38.668   3.583
63678W        W28663  43.956  41.018  14.741
63679W        W28664  14.107  38.530  12.014
63680W        W28665   9.549  41.857  12.637
63681W        W28666   6.449  31.527  12.487
63682W        W28667  34.916  35.920   3.797
63683W        W28668  40.578  20.309  12.474
63684W        W28669   9.738  36.312  13.299
63685W        W28670   2.642  18.418   2.646
63686W        W28671  19.256  28.526  14.337
63687W        W28672  22.197   8.676   4.692
63688W        W28673  15.794  11.134  11.652
63689W        W28674   9.608   0.951  11.981
63690W        W28675  21.119   4.705  11.875
63691W        W28676  22.171  29.924  10.571
63692W        W28677   1.298  31.805  13.337
63693W        W28678   0.831  30.431   2.238
63694W        W28679  33.017  11.949   4.839
63695W        W28680  43.206  21.921   3.674
63696W        W28681  40.725  24.604   1.359
63697W        W28682   3.705  37.413   4.574
63698W        W28683   5.220  11.167   4.356
63699W        W28684  43.982  22.108   4.064
63700W        W28685   7.155  41.520   3.227
63701W        W28686  35.006  26.600   3.346
63702W        W28687   1.324   7.660  13.003
63703W        W28688  38.830  16.772   0.766
63704W        W28689   4.135  34.809  14.471
63705W        W28690   7.969  16.624  12.769
63706W        W28691  38.499  25.586  14.328
63707W        W28692   7.078  44.783   4.612
63708W        W28693  25.593  17.363   0.793
63709W        W28694  31.119  37.085   4.641
63710W        W28695  22.625  34.718   0.938
63711W        W28696  38.413  32.970  12.578
63712W        W28697  42.470  39.636   0.800
63713W        W28698  34.339  14.715  11.049
63714W        W28699  32.922  37.194   4.143
63715W        W28700   9.555  19.756  11.592
63716W        W28701  17.644  16.818   4.092
63717W        W28702  27.375  39.210   2.841
63718W        W28703  21.598  18.104  13.389
63719W        W28704  30.657  25.695  11.143
63720W        W28705   6.011  13.661  14.738
63721W        W28706   4.618  24.009   1.870
63722W        W28707  41.910   2.130  12.992
63723W        W28708  34.770   3.266   0.776
63724W        W28709  25.880  26.647   2.229
63725W        W28710  43.775  31.519   1.285
63726W        W28711   5.324  38.195  12.410
63727W        W28712  26.108   9.175  10.724
63728W        W28713  25.926  29.410  12.819
63729W        W28714  12.374   3.863  11.282
63730W        W28715  22.131  43.717  13.865
63731W        W28716  15.205  44.212   1.302
63732W        W28717  14.659  33.874  11.146
63733W        W28718  38.997  10.329  10.686
63734W        W28719  11.303  40.641   2.850
63735W        W28720  10.216   5.521   5.191
63736W        W28721  24.152   9.289   0.397
63737W        W28722   3.861  32.657   4.014
63738W        W28723  41.442  28.890  11.778
63739W        W28724  35.378  29.231   1.418
63740W        W28725  38.034  13.786  12.220
63741W        W28726  20.230  26.633  10.080
63742W        W28727  21.220  39.954   1.397
63743W        W28728  21.806  11.483  12.860
63744W        W28729  22.919  23.100   1.738
63745W        W28730  16.076  22.615  11.972
63746W        W28731   4.779  32.748   2.487
63747W        W28732  19.626  12.264  12.384
63748W        W28733  35.513  10.746   1.896
63749W        W28734  29.610  35.329  14.831
63750W        W28735   6.430  24.190  12.904
63751W        W28736  13.436  28.132  14.972
63752W        W28737   1.450   5.634  14.351
63753W        W28738  40.321  39.299  11.531
63754W        W28739  32.281  26.606   1.531
63755W        W28740   6.438   0.321   2.837
63756W        W28741  13.291  26.275   4.919
63757W        W28742  40.632  31.407   0.564
63758W        W28743  38.329  14.124  13.906
63759W        W28744  17.988  34.979   0.060
63760W        W28745  13.259  14.988   3.760
63761W        W28746  10.185  12.002   4.562
63762W        W28747   0.163  17.119   2.131
63763W        W28748  29.656  30.594  11.445
63764W        W28749  24.733  19.766  11.388
63765W        W28750  40.592   5.777  11.674
63766W        W28751  35.031  24.305   0.353
63767W        W28752  11.781  26.990  13.913
63768W        W28753  30.959   6.140  13.312
63769W        W28754  44.436   8.198   0.171
63770W        W28755  28.152  10.896   1.986
63771W        W28756  35.150  37.938   2.819
63772W        W28757   2.801  35.966  10.594
63773W        W28758  30.845  16.562  13.839
63774W        W28759  34.435  39.948   3.182
63775W        W28760  32.855   9.926  13.773
63776W        W28761   0.433  12.785   0.317
63777W        W28762  33.208  41.560   4.887
63778W        W28763  24.423  33.164   0.233
63779W        W28764  41.544   6.859   1.746
63780W        W28765  34.529  41.461   4.184
63781W        W28766   0.530  35.117  11.602
63782W        W28767  14.507  40.909  11.514
63783W        W28768   9.175  15.623  14.463
63784W        W28769   9.410  36.854   2.702
63785W        W28770   8.446   1.096  11.051
63786W        W28771  13.459  17.318   2.235
63787W        W28772  34.837   9.392   0.160
63788W        W28773  26.555  16.846  11.953
63789W        W28774  32.450   9.408  13.209
63790W        W28775  29.574  13.519  13.994
63791W        W28776   9.674  39.314   2.720
63792W        W28777  14.848  22.337   1.170
63793W        W28778  37.733  17.173  10.742
63794W        W28779   5.855  24.980   4.423
63795W        W28780  21.998  30.912   0.835
63796W        W28781  43.288   7.467  11.102
63797W        W28782  30.496  18.002   1.036
63798W        W28783  13.840  38.984  12.054
63799W        W28784  19.767  41.655   0.237
63800W        W28785   8.102  38.230  13.397
63801W        W28786   1.820  33.648  12.356
63802W        W28787   8.314  43.457   3.151
63803W        W28788   2.470  23.411  14.514
63804W        W28789   3.243  30.064  11.076
63805W        W28790   5.296  44.698  13.168
63806W        W28791   9.758   4.822  10.120
63807W        W28792  20.721  23.524   1.845
63808W        W28793   3.733  40.431   3.612
63809W        W28794  36.981   7.891   3.601
63810W        W28795   8.296  19.539   0.795
63811W        W28796  23.924  10.834   4.168
63812W        W28797  28.437   0.538   3.323
63813W        W28798   1.983  39.372  11.608
63814W        W28799   1.212  17.053   3.022
63815W        W28800   8.030  37.094  14.357
63816W        W28801   5.389  29.965  10.640
63817W        W28802   6.346  27.343  12.109
63818W        W28803  25.283  39.772  12.682
63819W        W28804  42.022   1.651   4.335
63820W        W28805   5.480  38.309  14.366
63821W        W28806  26.461   0.652  14.911
63822W        W28807   2.697  36.441   2.158
63823W        W28808  37.082   9.845   3.223
63824W        W28809  28.214  29.126   1.930
63825W        W28810  22.614   2.117  13.826
63826W        W28811  12.114  40.566   1.929
63827W        W28812  14.045  11.657  13.405
63828W        W28813  16.820  31.254   2.242
63829W        W28814  10.255  23.246   5.227
63830W        W28815  29.823   2.145  11.097
63831W        W28816  41.352  20.513  11.984
63832W        W28817   6.610  44.228  14.314
63833W        W28818  33.616   8.936   0.718
63834W        W28819  18.122  40.823  11.232
63835W        W28820  18.843  31.611  10.766
63836W        W28821  40.644  34.910   3.204
63837W        W28822  12.646  40.507  14.769
63838W        W28823  22.453  38.796  12.332
63839W        W28824  32.991  30.420  13.912
63840W        W28825  11.938   3.488  13.316
63841W        W28826  14.784   8.259   4.109
63842W        W28827  25.699   3.528   2.502
63843W        W28828  34.028  14.143   1.132
63844W        W28829  32.987  27.576  11.677
63845W        W28830  20.591  24.338  12.513
63846W        W28831  11.386  37.506  13.873
63847W        W28832  16.751  36.488  10.679
63848W        W28833  10.380  23.743  11.306
63849W        W28834  12.588  15.027  11.524
63850W        W28835  36.496  43.478  13.344
63851W        W28836  14.883   8.607   0.254
63852W        W28837  34.573  40.542   3.700
63853W        W28838  22.089   0.804   2.452
63854W        W28839   2.364   6.507  12.468
63855W        W28840  41.920  21.813  11.919
63856W        W28841   0.043  37.329   9.747
63857W        W28842   0.971  26.535  10.495
63858W        W28843  16.088  44.854   1.197
63859W        W28844  31.965  10.582   0.087
63860W        W28845  18.796  12.804  14.938
63861W        W28846  38.445  35.446  11.630
63862W        W28847   3.802  23.166   4.076
63863W        W28848  35.765  17.301   4.715
63864W        W28849   2.954  21.737  14.759
63865W        W28850  20.928   6.436  14.863
63866W        W28851  23.143  38.631  12.887
63867W        W28852   3.275   1.254   4.171
63868W        W28853  11.914  36.587   1.367
63869W        W28854  37.798  23.288   2.654
63870W        W28855  27.008  20.672   0.930
63871W        W28856  42.673  14.309  11.849
63872W        W28857  33.383  20.542  14.822
63873W        W28858  19.755  24.566   1.903
63874W        W28859  11.422   8.642   4.883
63875W        W28860  24.753  37.931   2.244
63876W        W28861  35.359  21.123  11.611
63877W        W28862   1.173  25.483   0.673
63878W        W28863   8.758  10.936   0.853
63879W        W28864   5.350  19.611   1.809
63880W        W28865  39.605  14.831   1.032
63881W        W28866  13.879  25.354  13.628
63882W        W28867   8.627  36.558   4.704
63883W        W28868   6.639  25.152   2.687
63884W        W28869  28.382  41.993  12.371
63885W        W28870  12.237  32.070  13.121
63886W        W28871  28.550  37.739   2.277
63887W        W28872   4.212  32.628  13.929
63888W        W28873  44.167   8.152  14.698
63889W        W28874   4.820  37.080   2.537
63890W        W28875  10.725  41.003  11.511
63891W        W28876  11.645  21.197   4.616
63892W        W28877  10.013  14.352   5.079
63893W        W28878   9.620  44.064   2.302
63894W        W28879  34.992  42.886   3.240
63895W        W28880   0.117  38.049  10.243
63896W        W28881  22.757   3.940   0.723
63897W        W28882  20.162  24.545  13.529
63898W        W28883  34.782  42.616  11.190
63899W        W28884  20.458   6.647  14.557
63900W        W28885  30.650  17.691  12.484
63901W        W28886  19.421  26.672  11.481
63902W        W28887  35.508   1.962   0.870
63903W        W28888  16.217  13.819  12.044
63904W        W28889  31.577  43.379   3.720
63905W        W28890  29.897  16.797   0.399
63906W        W28891   0.028  11.318  13.048
63907W        W28892  29.921  14.269  14.436
63908W        W28893  38.494  20.279  12.881
63909W        W28894  14.370  41.919   3.692
63910W        W28895  24.071   7.916  12.896
63911W        W28896   4.849  25.772   1.072
63912W        W28897   7.732  29.407   0.345
63913W        W28898  14.820  15.961   4.923
63914W        W28899  37.253  17.845  12.885
63915W        W28900  29.116  42.641  12.192
63916W        W28901  13.113  43.472   1.688
63917W        W28902  43.437  31.491   0.104
63918W        W28903   4.441  22.729  12.252
63919W        W28904  43.289   5.709  11.561
63920W        W28905  22.949   9.303  12.611
63921W        W28906  10.456  33.256  11.950
63922W        W28907  20.116   7.318   4.539
63923W        W28908  11.246   6.391   2.603
63924W        W28909  11.912  21.995  13.901
63925W        W28910  36.355   2.205  11.321
63926W        W28911  19.770  28.239   1.275
63927W        W28912  44.231   1.865   1.246
63928W        W28913  37.862  31.814  14.377
63929W        W28914  13.837  15.264   4.537
63930W        W28915   1.600  31.950  11.883
63931W        W28916  34.889  26.978  10.657
63932W        W28917  28.508  40.815   1.184
63933W        W28918   5.789  42.501   0.638
63934W        W28919  32.935  30.723  11.380
63935W        W28920  31.988  11.654  13.335
63936W        W28921  29.897  22.788  12.943
63937W        W28922  12.728  32.206   2.208
63938W        W28923  31.429   8.661   4.132
63939W        W28924   6.788  25.570  11.059
63940W        W28925  17.554   2.659  13.510
63941W        W28926  31.157  12.029  13.587
63942W        W28927  15.585  29.635  13.802
63943W        W28928  24.383   2.749   3.745
63944W        W28929  20.965  33.524  13.476
63945W        W28930  15.376   7.909   2.674
63946W        W28931  33.911  19.174   1.356
63947W        W28932  35.319  26.124  11.564
63948W        W28933  20.511  11.880   3.610
63949W        W28934   4.909  44.873   2.579
63950W        W28935  15.353  40.354   4.703
63951W        W28936  18.365   9.660  14.453
63952W        W28937  33.189   9.203  13.398
63953W        W28938  30.441  35.706   3.680
63954W        W28939   6.342  10.290   3.715
63955W        W28940  31.521  40.743   2.667
63956W        W28941  24.897  23.398  14.817
63957W        W28942  18.227   1.830   2.333
63958W        W28943  29.476  44.190  11.098
63959W        W28944   3.184  22.742   4.495
63960W        W28945   8.719   2.125   1.398
63961W        W28946   0.580  21.464  13.515
63962W        W28947  30.367  32.051  14.322
63963W        W28948  19.234   9.600  12.934
63964W        W28949  37.581  31.397  11.951
63965W        W28950  38.758  15.827   2.245
63966W        W28951   4.150  20.224   3.100
63967W        W28952  42.264   7.699  14.415
63968W        W28953  24.070  39.452   4.723
63969W        W28954  44.739  14.080  11.169
63970W        W28955  12.616  18.164  11.045
63971W        W28956  14.922  44.367   0.149
63972W        W28957  44.434  35.672   0.480
63973W        W28958   9.797  35.379   2.335
63974W        W28959  34.056  33.551  11.269
63975W        W28960  11.345  12.583   0.461
63976W        W28961   5.950  29.651   3.236
63977W        W28962  13.903  31.559   4.135
63978W        W28963   3.215  16.406   0.015
63979W        W28964  33.784  22.184  13.369
63980W        W28965  19.804  19.647  13.459
63981W        W28966  43.906  44.599   1.168
63982W        W28967  23.179  31.568  12.864
63983W        W28968  30.572  14.411   4.256
63984W        W28969   3.980   1.147   1.449
63985W        W28970   5.959  15.557  11.489
63986W        W28971   1.998  44.178   2.690
63987W        W28972  10.309  33.409  11.449
63988W        W28973  31.653  22.290  11.001
63989W        W28974  43.379  34.901  10.980
63990W        W28975  33.097  44.033   3.569
63991W        W28976   9.073  37.023  13.405
63992W        W28977   4.811  17.606  11.177
63993W        W28978  36.558  43.824   1.026
63994W        W28979  26.139  38.330   3.802
63995W        W28980  37.117  38.526  14.416
63996W        W28981  32.577   2.037  12.401
63997W        W28982   3.965  29.982  12.992
63998W        W28983  20.964   6.914   3.846
63999W        W28984  14.832   5.086  14.280
64000W        W28985   7.760  19.220  10.765
64001W        W28986   3.896   3.275   1.756
64002W        W28987  44.847  16.737  12.126
64003W        W28988  33.188  36.332   2.769
64004W        W28989  44.486  38.063   4.296
64005W        W28990   9.941  16.161  11.613
64006W        W28991   0.521   0.038   1.504
64007W        W28992  19.524  38.342  13.591
64008W        W28993  38.442   0.796   1.374
64009W        W28994  36.377  15.121  13.757
64010W        W28995   0.409  23.801   0.959
64011W        W28996  36.303  26.481   3.867
64012W        W28997  14.786  18.799   2.220
64013W        W28998  18.074  19.185   0.906
64014W        W28999  16.183  21.794   4.207
64015W        W29000  23.810  19.799  12.092
64016W        W29001  29.567   7.858  14.037
64017W        W29002  17.659  36.876   1.143
64018W        W29003  20.482   8.399   4.177
64019W        W29004  18.232   5.835   0.890
64020W        W29005  26.546  44.965  11.888
64021W        W29006  38.289   0.402  14.865
64022W        W29007  31.031  30.058   0.905
64023W        W29008  40.333  29.597   3.845
64024W        W29009   7.642  42.853   0.938
64025W        W29010  26.395  43.191  11.904
64026W        W29011  32.456  17.640  12.898
64027W        W29012  25.446  16.918   1.636
64028W        W29013  11.458  30.909   0.401
64029W        W29014  28.902  12.368  13.528
64030W        W29015   9.093  32.623   2.380
64031W        W29016  30.583  27.694  11.317
64032W        W29017   8.119  10.852  13.236
64033W        W29018   4.784   9.141  14.948
64034W        W29019  24.012   5.322   4.706
64035W        W29020   1.966   3.734  11.161
64036W        W29021  15.978  15.587   0.976
64037W        W29022  14.633  20.323   1.342
64038W        W29023  43.397   5.216  12.463
64039W        W29024  39.305   7.993   0.476
64040W        W29025  44.021  40.753   1.724
64041W        W29026   3.284   7.011   2.872
64042W        W29027   0.131  43.509  12.065
64043W        W29028  18.407  20.798  14.844
64044W        W29029  21.525  35.313  11.327
64045W        W29030  29.162   5.183   0.883
64046W        W29031  17.603  32.845  12.579
64047W        W29032   0.971   1.284  12.417
64048W        W29033  39.860   3.651  14.781
64049W        W29034  32.076  19.272  13.480
64050W        W29035  14.160  19.894   2.640
64051W        W29036   1.444  21.493  13.034
64052W        W29037   6.312  36.210   2.852
64053W        W29038  14.782   0.753   2.776
64054W        W29039  38.799   5.908  11.485
64055W        W29040  28.227  32.567  13.925
64056W        W29041  19.385   3.421  14.798
64057W        W29042  40.104  11.834  12.902
64058W        W29043  21.949  24.630  14.987
64059W        W29044  29.140  44.700  14.008
64060W        W29045   2.667  12.693   2.296
64061W        W29046  13.268  25.179   1.190
64062W        W29047  16.379   9.292   0.837
64063W        W29048  41.298  15.174  10.752
64064W        W29049  36.511  31.303   4.173
64065W        W29050  25.703   2.776  12.044
64066W        W29051  33.754  24.551  11.024
64067W        W29052  29.690  14.037   0.345
64068W        W29053  28.805  14.123   4.352
64069W        W29054   0.824  10.906   0.879
64070W        W29055  24.233  17.889   3.670
64071W        W29056  44.528  27.851   5.557
64072W        W29057   4.798  44.264  11.418
64073W        W29058  36.026   4.958  10.624
64074W        W29059  17.038   4.307   4.108
64075W        W29060  17.231  18.987   0.761
64076W        W29061  16.046  14.866   1.709
64077W        W29062  40.909   1.279   4.849
64078W        W29063  30.788  24.478  11.188
64079W        W29064  34.053  44.236   2.836
64080W        W29065   5.438  26.413   2.594
64081W        W29066  10.229  16.844  13.561
64082W        W29067  27.021  37.511   3.102
64083W        W29068  11.594  27.943   2.183
64084W        W29069  22.210   7.425  14.424
64085W        W29070   1.762  24.085  13.240
64086W        W29071  17.268  35.592   0.514
64087W        W29072   1.585  43.058   1.337
64088W        W29073  35.938   3.337   0.279
64089W        W29074   8.173  27.622  10.431
64090W        W29075  25.388  20.555  13.467
64091W        W29076  15.260   0.015   4.592
64092W        W29077  44.320   7.407  11.323
64093W        W29078  34.464  23.300   1.808
64094W        W29079  44.030  35.127  12.568
64095W        W29080  35.066  41.324  11.587
64096W        W29081  31.129  22.438   3.654
64097W        W29082  44.482  26.453   2.793
64098W        W29083  40.836  42.513  13.801
64099W        W29084   9.184  37.331  14.927
64100W        W29085  40.301  23.606   5.397
64101W        W29086   2.393  35.407  12.831
64102W        W29087  30.580  11.279  13.058
64103W        W29088  44.380  42.039   2.168
64104W        W29089   3.920  23.553   2.168
64105W        W29090  30.510  30.883   0.910
64106W        W29091  11.134   6.641   4.594
64107W        W29092  33.492  27.885   3.621
64108W        W29093  19.284  15.655  10.926
64109W        W29094  40.512  25.416  11.284
64110W        W29095  23.940  23.200   0.684
64111W        W29096  34.085  10.533  14.776
64112W        W29097  25.578  15.250   3.788
64113W        W29098  30.888  14.677  14.501
64114W        W29099   1.356   9.813   2.142
64115W        W29100  40.446   4.033   0.112
64116W        W29101  24.947  10.837   4.318
64117W        W29102  41.019   5.953  11.413
64118W        W29103  24.733   2.810   1.714
64119W        W29104   4.799  15.587  13.918
64120W        W29105  18.841  24.634   3.205
64121W        W29106  14.422   8.234   1.040
64122W        W29107  29.254  29.296   0.538
64123W        W29108  18.784  44.273  14.620
64124W        W29109  42.963  25.227   1.198
64125W        W29110  11.260  19.511   2.639
64126W        W29111  15.631  19.801   1.404
64127W        W29112  25.770   9.813  12.709
64128W        W29113  29.567  18.761   2.404
64129W        W29114   6.301   2.593   2.378
64130W        W29115   8.384  20.127   1.674
64131W        W29116  26.514  36.487   2.874
64132W        W29117   4.722  21.178  14.464
64133W        W29118  19.915  44.890   3.692
64134W        W29119  31.104   3.954  14.442
64135W        W29120   2.223  28.388   3.213
64136W        W29121  32.458  42.531  14.065
64137W        W29122  43.995  27.969   2.490
64138W        W29123  37.526  23.977   1.704
64139W        W29124  20.129  44.107  11.822
64140W        W29125  15.930  37.696   1.837
64141W        W29126  29.530  36.553  14.054
64142W        W29127  11.253  25.527  14.061
64143W        W29128   0.209  30.431   3.336
64144W        W29129  41.754  26.290   1.860
64145W        W29130  32.948  28.047   0.811
64146W        W29131  13.154  43.507  11.389
64147W        W29132  31.209  14.693  10.451
64148W        W29133  41.960  24.273   5.405
64149W        W29134  12.393  41.739   3.631
64150W        W29135  22.979   7.907  14.272
64151W        W29136  33.550  30.778   2.254
64152W        W29137  36.124  18.667  13.733
64153W        W29138  43.518  15.224  13.041
64154W        W29139  22.488  19.039   2.166
64155W        W29140  37.433  20.123   2.678
64156W        W29141  43.383  21.147   0.836
64157W        W29142  19.836  11.330  12.001
64158W        W29143   8.686  16.637   3.168
64159W        W29144  11.922  21.065   0.801
64160W        W29145   5.707  42.667   3.941
64161W        W29146  27.483  44.313   4.554
64162W        W29147  39.796  21.749   2.770
64163W        W29148  38.454   4.678   3.153
64164W        W29149  33.356  36.492  14.304
64165W        W29150   6.418  13.885  11.169
64166W        W29151  41.345  30.861   2.761
64167W        W29152  37.908   5.165   0.471
64168W        W29153  15.886  40.948  12.688
64169W        W29154  21.656  27.702  11.792
64170W        W29155  29.623  40.077  10.751
64171W        W29156  14.303  11.770   3.299
64172W        W29157   8.168  32.927   2.142
64173W        W29158  41.956  16.533   2.911
64174W        W29159  32.004   6.158  10.717
64175W        W29160  30.386  33.748  12.008
64176W        W29161  10.355   1.710   3.334
64177W        W29162  26.618  26.830  10.702
64178W        W29163  44.919  24.482  10.075
64179W        W29164  42.187   9.181   4.941
64180W        W29165  37.758   5.008   2.304
64181W        W29166  42.734  13.777   4.279
64182W        W29167  26.206   7.267   0.667
64183W        W29168  15.250  11.785   1.345
64184W        W29169  37.544  25.986   3.722
64185W        W29170  37.016  14.175   1.617
64186W        W29171  37.515  31.436  14.506
64187W        W29172  13.932  11.128  13.385
64188W        W29173   9.489  35.543  13.945
64189W        W29174  12.809  22.966   2.495
64190W        W29175  25.334  41.043  14.555
64191W        W29176   1.455  43.517  11.134
64192W        W29177  28.085  18.961   4.082
64193W        W29178  21.596  20.588  13.113
64194W        W29179  24.477  10.268   5.248
64195W        W29180  14.601  35.499   0.361
64196W        W29181   9.836  27.080  10.900
64197W        W29182  37.554  14.087  11.489
64198W        W29183  20.008  20.239  13.464
64199W        W29184  29.782  33.468  14.456
64200W        W29185   4.858  18.753  13.833
64201W        W29186  20.201  31.105  14.950
64202W        W29187  24.485   0.749   3.704
64203W        W29188  44.882  33.315  10.624
64204W        W29189  34.687  31.590  10.722
64205W        W29190  36.480  31.621   1.306
64206W        W29191  30.569  22.794  11.166
64207W        W29192  17.859  25.155  11.673
64208W        W29193  20.340  40.879   3.919
64209W        W29194  18.591  22.207   1.390
64210W        W29195   6.934  21.112   0.280
64211W        W29196  20.121  12.434   0.461
64212W        W29197  26.292  10.311   1.738
64213W        W29198  37.504  22.361   4.639
64214W        W29199  23.708  11.704  10.759
64215W        W29200  32.992   5.158   2.653
64216W        W29201  32.870  32.514  10.902
64217W        W29202   6.802  44.280  12.625
64218W        W29203  26.728   1.972   3.488
64219W        W29204  37.419   7.037   4.826
64220W        W29205  21.125  32.706   0.492
64221W        W29206  40.832   4.374  14.570
64222W        W29207  36.866  16.746   3.160
64223W        W29208   5.685  27.624   2.501
64224W        W29209   2.326  21.709   4.047
64225W        W29210  32.549  18.338   0.454
64226W        W29211  23.081  30.996  13.505
64227W        W29212  33.155   4.972   3.157
64228W        W29213  18.609   6.002   0.237
64229W        W29214   8.606  16.055   0.561
64230W        W29215  42.517  27.597  11.191
64231W        W29216  35.833  11.163   2.437
64232W        W29217  39.997  28.319  11.075
64233W        W29218  23.211   3.757   1.804
64234W        W29219  25.510  25.890  11.187
64235W        W29220  24.748  35.366  12.505
64236W        W29221   8.773  31.675   0.346
64237W        W29222   3.403  25.039  11.330
64238W        W29223  44.739  22.575   1.645
64239W        W29224  31.489   2.284   4.528
64240W        W29225  16.054  29.595   0.045
64241W        W29226  21.209  36.547  11.441
64242W        W29227  18.802  41.110  13.815
64243W        W29228   3.506  31.077  13.526
64244W        W29229  26.641   0.585  11.226
64245W        W29230  44.861  15.394   2.788
64246W        W29231  21.571   7.102   1.276
64247W        W29232  37.562  12.127   2.407
64248W        W29233  43.472  24.041  12.913
64249W        W29234  40.518   0.017  11.683
64250W        W29235  30.186   6.286  11.939
64251W        W29236  31.420   9.920   3.305
64252W        W29237   9.818  44.499  14.948
64253W        W29238   5.024   3.136   4.959
64254W        W29239  13.181  29.622   0.877
64255W        W29240  36.530  22.269  12.134
64256W        W29241   1.328  43.014   0.880
64257W        W29242  36.542  17.444  12.240
64258W        W29243   8.414  40.526   4.769
64259W        W29244  18.710  39.802   0.352
64260W        W29245  11.429   6.152  14.411
64261W        W29246  37.080  41.662  12.938
64262W        W29247   3.339   3.641   1.952
64263W        W29248  39.366  44.949   1.802
64264W        W29249  12.804  10.098   4.137
64265W        W29250   5.446  12.059   4.262
64266W        W29251  43.743  40.476   1.342
64267W        W29252  36.369  23.409  14.694
64268W        W29253  16.345  39.292  13.406
64269W        W29254  12.404  17.686   3.675
64270W        W29255  43.855  19.094  13.322
64271W        W29256  16.599   3.276  12.143
64272W        W29257  30.154  40.375   0.776
64273W        W29258  29.549  21.301   4.045
64274W        W29259  43.364  41.240  13.103
64275W        W29260  15.220  32.983   0.645
64276W        W29261   8.550  14.625  12.114
64277W        W29262   2.849  14.792  13.762
64278W        W29263  30.639  43.090  13.342
64279W        W29264   3.086  20.521  14.475
64280W        W29265  35.334  17.560  11.139
64281W        W29266  32.178  23.090   2.219
64282W        W29267  37.649  18.357   3.958
64283W        W29268  14.590  13.258   2.621
64284W        W29269  24.132  36.846   1.276
64285W        W29270  44.822  43.592   4.421
64286W        W29271   4.889   4.784   3.509
64287W        W29272  40.477  37.598   1.334
64288W        W29273  44.446  21.183  14.827
64289W        W29274  11.095   0.976   4.026
64290W        W29275  16.384  30.231  11.405
64291W        W29276  18.026  14.031  11.721
64292W        W29277   1.767  40.018   0.550
64293W        W29278  18.240  43.997  11.566
64294W        W29279  44.880  23.433   3.226
64295W        W29280  13.628   1.870  12.654
64296W        W29281  37.117  15.904   1.384
64297W        W29282   8.180  35.215  14.231
64298W        W29283  11.777  27.879   0.917
64299W        W29284  16.320  32.057   2.881
64300W        W29285  43.343  35.864   9.974
64301W        W29286  29.633  14.649   1.289
64302W        W29287   6.861  38.410   0.173
64303W        W29288  44.873  26.722  11.145
64304W        W29289  43.221   6.509   0.973
64305W        W29290   5.318   1.515  14.295
64306W        W29291   0.485  10.751  12.020
64307W        W29292   1.654  29.859  11.649
64308W        W29293   0.334  30.568   2.350
64309W        W29294   2.006   1.781   3.659
64310W        W29295  16.591  14.082   4.982
64311W        W29296  36.453  44.525   4.673
64312W        W29297  11.150  22.148   3.151
64313W        W29298  31.945  42.251  12.706
64314W        W29299  12.176  38.667   1.825
64315W        W29300  43.632  14.805  14.745
64316W        W29301  40.565   5.229   1.780
64317W        W29302  40.039  14.090  11.163
64318W        W29303  40.253  31.853  14.443
64319W        W29304  22.369  40.535   0.548
64320W        W29305  42.499  28.048  12.919
64321W        W29306  44.929  39.606  11.136
64322W        W29307   3.416   7.665  12.757
64323W        W29308  12.813   6.067   3.247
64324W        W29309  16.097  10.847   1.721
64325W        W29310  16.141  19.497  13.878
64326W        W29311  18.271  36.950  11.930
64327W        W29312  14.664  23.082   2.116
64328W        W29313   4.974  44.193   0.454
64329W        W29314  38.933  14.738  11.294
64330W        W29315   1.694  36.477   2.272
64331W        W29316   6.340  15.047   0.358
64332W        W29317  17.481   5.817   2.680
64333W        W29318   1.211  21.634   2.124
64334W        W29319  31.420  38.026  11.576
64335W        W29320  32.824  36.347  13.994
64336W        W29321  42.338   8.882   1.587
64337W        W29322  23.487  16.863  14.013
64338W        W29323   3.661  35.888   4.592
64339W        W29324   4.127  43.570  12.040
64340W        W29325   1.957   2.229  12.001
64341W        W29326  10.451   5.335   2.760
64342W        W29327  44.841  37.394  12.815
64343W        W29328  39.594   2.352  10.995
64344W        W29329  15.784   2.334   4.623
64345W        W29330  29.591  29.430   3.588
64346W        W29331  28.314  44.037  13.406
64347W        W29332  26.427  17.056  13.154
64348W        W29333  33.885  23.545  10.615
64349W        W29334  33.007  29.622  14.980
64350W        W29335  13.824  43.680  14.559
64351W        W29336  44.257  31.563   2.157
64352W        W29337  41.765  42.273  10.259
64353W        W29338  38.867  41.810   4.122
64354W        W29339   3.703  29.140   3.288
64355W        W29340  33.720  11.714   2.490
64356W        W29341  29.478  22.118  11.876
64357W        W29342  26.144  11.887  13.247
64358W        W29343   3.994  38.824   3.601
64359W        W29344  24.105  30.451  14.744
64360W        W29345  34.142  18.652  11.979
64361W        W29346  19.505  39.709  11.554
64362W        W29347   6.200  25.152  12.600
64363W        W29348  30.929  40.788   4.141
64364W        W29349  43.057   9.131  12.054
64365W        W29350   5.382  12.405  13.431
64366W        W29351  39.369  37.501  12.444
64367W        W29352  27.006  11.154   0.321
64368W        W29353  41.608   9.122  10.650
64369W        W29354   1.843  35.496  10.768
64370W        W29355  19.694  41.521   4.213
64371W        W29356  44.097  13.926   0.850
64372W        W29357   2.100   2.970   1.455
64373W        W29358  14.311  18.291  13.808
64374W        W29359   2.215  40.236   0.357
64375W        W29360  33.506  39.444  12.150
64376W        W29361  21.765  24.236   4.154
64377W        W29362  18.614  31.928  12.793
64378W        W29363  19.257  14.202  13.509
64379W        W29364  15.594  36.976  14.480
64380W        W29365  18.286  39.373  14.143
64381W        W29366  20.063  38.624   1.957
64382W        W29367  22.012  34.002   4.592
64383W        W29368  32.166  43.773   4.518
64384W        W29369  34.767  38.176   4.143
64385W        W29370  38.606  18.595   0.780
64386W        W29371  39.447  11.017   1.875
64387W        W29372   8.788  37.439  13.335
64388W        W29373  22.650  41.950  10.672
64389W        W29374  30.408  22.596   4.662
64390W        W29375  14.676   2.949  12.850
64391W        W29376  37.620  20.895   1.740
64392W        W29377  29.136  34.141  14.342
64393W        W29378  43.622  26.106   1.316
64394W        W29379  39.294   8.428   3.700
64395W        W29380  16.294   2.396  13.721
64396W        W29381   6.640  18.296  13.930
64397W        W29382  27.649  43.952  12.405
64398W        W29383  11.182  33.997   1.159
64399W        W29384  19.667  12.880   3.541
64400W        W29385  17.029  13.537   0.979
64401W        W29386  37.924  26.794  12.821
64402W        W29387  31.149  39.672  12.642
64403W        W29388  26.101   8.450   4.837
64404W        W29389  14.567   5.715  14.827
64405W        W29390  32.094   3.738  12.344
64406W        W29391  35.842  40.489  13.515
64407W        W29392  23.996  33.322   4.100
64408W        W29393  44.593  29.944  14.769
64409W        W29394  41.038  19.925   3.913
64410W        W29395  41.336  15.892   0.399
64411W        W29396  43.410  25.669  11.984
64412W        W29397  37.103  27.321   3.905
64413W        W29398   7.610  27.225   3.107
64414W        W29399  34.090  24.599   1.317
64415W        W29400  25.538   7.112  11.567
64416W        W29401   0.953  10.172   1.437
64417W        W29402   7.893   3.330  12.853
64418W        W29403  31.165   3.682   0.264
64419W        W29404  28.695  12.823  14.834
64420W        W29405  32.079  39.661   0.295
64421W        W29406  22.290   0.330  11.632
64422W        W29407  28.698  27.558   2.302
64423W        W29408   9.266  10.259   4.716
64424W        W29409  15.304  30.957   3.459
64425W        W29410  42.786   1.219  12.218
64426W        W29411  38.575   7.811   3.749
64427W        W29412  22.222  10.067  11.748
64428W        W29413  44.909   5.876   1.875
64429W        W29414  16.556  31.896   1.668
64430W        W29415  15.727  40.710  14.871
64431W        W29416   4.804   6.249   0.739
64432W        W29417  35.502  22.638  11.639
64433W        W29418  42.959   6.918   3.693
64434W        W29419  36.905  37.310  10.694
64435W        W29420  30.865  24.746   3.408
64436W        W29421  32.899  30.697  12.424
64437W        W29422   8.748  15.359  12.559
64438W        W29423  40.558  11.414   3.246
64439W        W29424   1.255  21.081   4.418
64440W        W29425  29.623   2.398  13.956
64441W        W29426  25.785  29.968   1.924
64442W        W29427  14.043  30.443   4.630
64443W        W29428  30.850   8.243   0.069
64444W        W29429  27.541  27.958  10.472
64445W        W29430   5.710  44.500  10.578
64446W        W29431  28.163  24.462   2.023
64447W        W29432  35.963  24.887  13.051
64448W        W29433   0.196   4.717   3.987
64449W        W29434  15.196  13.698   0.009
64450W        W29435  34.489  44.116   4.639
64451W        W29436  24.718   9.115  10.626
64452W        W29437  36.334  44.234  13.971
64453W        W29438  22.155  32.127  10.282
64454W        W29439   2.282  35.446   4.775
64455W        W29440  21.634  43.021  10.020
64456W        W29441  31.041   0.729   3.749
64457W        W29442  39.008   4.300   1.220
64458W        W29443  31.504  27.566  14.386
64459W        W29444  16.809  17.087   0.324
64460W        W29445  18.104  26.195   2.820
64461W        W29446  20.169  40.972   3.419
64462W        W29447  12.944  43.565  13.463
64463W        W29448  15.173  10.142   4.464
64464W        W29449  12.730  37.043  14.933
64465W        W29450  22.561  23.123  11.946
64466W        W29451   8.774  14.269   0.245
64467W        W29452  20.257   7.616  12.467
64468W        W29453  36.347  28.433   4.162
64469W        W29454  16.172  23.050  10.692
64470W        W29455  15.445  38.465  11.590
64471W        W29456  29.548  26.658  12.029
64472W        W29457  43.016  18.657   2.436
64473W        W29458  28.354  25.140  10.945
64474W        W29459  15.048  31.214  13.113
64475W        W29460  11.215  42.364   1.131
64476W        W29461  41.748  12.055  10.609
64477W        W29462   9.797  21.658   1.397
64478W        W29463  38.410  31.587  14.371
64479W        W29464  27.379   4.024  10.541
64480W        W29465  12.729  32.565   1.208
64481W        W29466  27.549  22.707   4.931
64482W        W29467  35.848  43.327   1.324
64483W        W29468  41.886  31.079   0.753
64484W        W29469  14.801  16.740   2.191
64485W        W29470  30.723  13.134  13.348
64486W        W29471  13.603  14.297  13.783
64487W        W29472  18.363   4.925   3.178
64488W        W29473   8.648  23.540   1.882
64489W        W29474  20.778  23.247   4.966
64490W        W29475   5.624   4.646  12.994
64491W        W29476  42.085   4.242   3.824
64492W        W29477  16.645  38.323   3.269
64493W        W29478   3.232  29.674  12.907
64494W        W29479  31.140  28.656   4.130
64495W        W29480   5.469  44.498   1.307
64496W        W29481   1.539   8.248  12.071
64497W        W29482  38.642   5.582   2.860
64498W        W29483  23.482  26.001  11.959
64499W        W29484  32.848  12.213  12.096
64500W        W29485  21.057   5.706   1.293
64501W        W29486   0.450  15.769   4.885
64502W        W29487   9.304  36.560  13.105
64503W        W29488  16.158   8.424  13.390
64504W        W29489  35.657  26.725  12.097
64505W        W29490  22.502   5.313   2.738
64506W        W29491  24.272  22.001   3.729
64507W        W29492  20.688  44.640   0.729
64508W        W29493  23.521   0.476   2.312
64509W        W29494  16.561  18.262   2.771
64510W        W29495  19.248   3.933  13.507
64511W        W29496  41.227   5.198  13.014
64512W        W29497  13.557  15.368  13.923
64513W        W29498  10.571   0.647  12.424
64514W        W29499  17.221  16.766   0.776
64515W        W29500   6.256  22.210  13.073
64516W        W29501  12.383  18.637   2.244
64517W        W29502  20.233  31.507  11.620
64518W        W29503  14.936   7.192  14.926
64519W        W29504  16.755  11.168   3.288
64520W        W29505  23.626  16.253   3.178
64521W        W29506   9.036  35.308   1.749
64522W        W29507   6.285   5.419   2.651
64523W        W29508   0.296   6.806   2.836
64524W        W29509  23.585   1.680   1.796
64525W        W29510   8.839  14.115   3.221
64526W        W29511   9.958  34.177   1.782
64527W        W29512  22.276  19.817  14.346
64528W        W29513  40.282  15.374   1.028
64529W        W29514  32.807  26.259   1.866
64530W        W29515  38.171  26.534   1.186
64531W        W29516  25.122   6.797   2.300
64532W        W29517   5.027   9.961  10.881
64533W        W29518  21.130  31.605  14.258
64534W        W29519  21.517   3.026   0.732
64535W        W29520  40.918  12.648   4.249
64536W        W29521  36.181   7.988   1.184
64537W        W29522  13.275  28.577  12.506
64538W        W29523  16.611  25.209  13.541
64539W        W29524  43.356  36.243  11.057
64540W        W29525   7.973  30.130  12.219
64541W        W29526  34.467   2.399   2.078
64542W        W29527  37.582  22.703  13.574
64543W        W29528  19.203  12.871  14.516
64544W        W29529  16.590  15.740   3.158
64545W        W29530  14.611   9.939   3.758
64546W        W29531  23.984  23.503   2.634
64547W        W29532   5.779  15.336   0.409
64548W        W29533  23.930   1.579  13.030
64549W        W29534  24.603  14.322   2.894
64550W        W29535  13.895   0.816   3.328
64551W        W29536  35.500   2.452   1.669
64552W        W29537   7.263   7.236  13.799
64553W        W29538   2.854  39.636   4.143
64554W        W29539  25.664  15.570  10.613
64555W        W29540   6.788  37.359  14.872
64556W        W29541  27.548  14.619   3.205
64557W        W29542  17.575  23.530   2.906
64558W        W29543  37.098  25.442  12.201
64559W        W29544  32.146  19.102   3.255
64560W        W29545  15.840  30.589   5.013
64561W        W29546   3.526  16.715   3.228
64562W        W29547   8.912   0.318  13.467
64563W        W29548  38.455  14.330  10.745
64564W        W29549  37.447  11.971   1.914
64565W        W29550  22.666  12.285   2.742
64566W        W29551  19.782   3.183   4.609
64567W        W29552  11.950  12.398  12.620
64568W        W29553  29.263  23.158  10.790
64569W        W29554  26.531  10.437  10.536
64570W        W29555   9.441  10.748  14.830
64571W        W29556   5.745  18.000   4.795
64572W        W29557  10.323  18.138   4.251
64573W        W29558  32.570  31.586  13.021
64574W        W29559   5.663  25.175  10.494
64575W        W29560  11.748   5.862  11.094
64576W        W29561  12.567  37.355  10.618
64577W        W29562  16.017  44.760   4.187
64578W        W29563  42.649  34.172  11.600
64579W        W29564  16.855  31.578  13.568
64580W        W29565  31.847  23.159   3.545
64581W        W29566   6.671  41.069  12.858
64582W        W29567  25.629   3.121  11.589
64583W        W29568  43.972  23.851  10.665
64584W        W29569  25.475  35.462   2.341
64585W        W29570  32.826  40.049  10.760
64586W        W29571  30.339  33.152   1.394
64587W        W29572  21.125  41.851   3.426
64588W        W29573  30.852  44.965   2.769
64589W        W29574  29.648   4.186  10.920
64590W        W29575  23.242  43.294  12.475
64591W        W29576  29.979  30.315   4.970
64592W        W29577   7.964  14.121   4.225
64593W        W29578  13.105   3.836  13.492
64594W        W29579  38.589   0.177  13.025
64595W        W29580  17.325  23.626  12.079
64596W        W29581  42.469  32.169   1.393
64597W        W29582   1.859   5.845   4.198
64598W        W29583  19.509  18.665  13.584
64599W        W29584   1.540   1.121  13.957
64600W        W29585  30.298   8.952  11.197
64601W        W29586  34.343   5.954  13.512
64602W        W29587   7.651   7.729   3.626
64603W        W29588  17.039  10.688  11.399
64604W        W29589  12.298   8.923   1.395
64605W        W29590  31.511  42.054   4.851
64606W        W29591  16.634  28.896  12.690
64607W        W29592  36.374   1.383  13.770
64608W        W29593  23.408   0.431   1.400
64609W        W29594  18.094   1.283   4.226
64610W        W29595  27.727  20.848  10.788
64611W        W29596  24.626  40.794   0.016
64612W        W29597  28.996   9.409  14.404
64613W        W29598   0.195  27.338   9.614
64614W        W29599  25.090   9.614   0.511
64615W        W29600  18.632   3.292  12.118
64616W        W29601  34.456  19.817  12.824
64617W        W29602  34.713  44.236  14.731
64618W        W29603  17.152  12.058   4.159
64619W        W29604  31.498   2.725   4.841
64620W        W29605  24.200  34.050  10.273
64621W        W29606   0.391  27.288   4.659
64622W        W29607  18.035  24.519   2.687
64623W        W29608  22.587  40.280  14.688
64624W        W29609  22.132  10.782   2.633
64625W        W29610  41.391  22.973  11.265
64626W        W29611  26.559  13.325   1.323
64627W        W29612  35.396  20.455   4.666
64628W        W29613   9.647  17.353  12.994
64629W        W29614  41.530  24.004   3.016
64630W        W29615  17.547  36.958   2.450
64631W        W29616  26.408   1.238   0.822
64632W        W29617  41.070  26.385   0.202
64633W        W29618   9.514  32.613  12.648
64634W        W29619  38.385  32.507   2.729
64635W        W29620  40.853  36.672   1.333
64636W        W29621  12.559  21.378   4.672
64637W        W29622  32.073   5.325  13.974
64638W        W29623  38.822  36.800   3.536
64639W        W29624  23.245  25.983  11.499
64640W        W29625  35.371   6.258   0.011
64641W        W29626  43.413  20.090   2.895
64642W        W29627  38.121  12.639   2.675
64643W        W29628  40.368  13.696   4.962
64644W        W29629  29.527  30.646   4.075
64645W        W29630  23.975  41.359  10.407
64646W        W29631  10.831  16.745  10.953
64647W        W29632   6.773  22.064  12.860
64648W        W29633  41.759   6.063  11.933
64649W        W29634  10.774   2.735  12.597
64650W        W29635  15.262  39.921  12.481
64651W        W29636  15.693   8.763   1.953
64652W        W29637  13.718  15.674   1.938
64653W        W29638  15.455  16.160   1.404
64654W        W29639   0.592   7.077  14.462
64655W        W29640  14.738  32.588  11.888
64656W        W29641   8.213  21.026  10.470
64657W        W29642   9.853   4.719   0.914
64658W        W29643  16.183   3.894  14.815
64659W        W29644  38.312  38.139  10.182
64660W        W29645  11.850  12.759   2.620
64661W        W29646  14.460  13.753  12.836
64662W        W29647  15.716  32.423   3.195
64663W        W29648  43.890  17.676   2.480
64664W        W29649  36.846   0.350   0.451
64665W        W29650   0.769   5.744  14.966
64666W        W29651  38.832  34.585   0.479
64667W        W29652  29.949  12.707  11.208
64668W        W29653  36.932  10.090   0.109
64669W        W29654  38.525  44.906  11.176
64670W        W29655  44.851  28.642   1.172
64671W        W29656  11.803   7.639   0.306
64672W        W29657   3.240  28.412   1.622
64673W        W29658  24.248  22.511   4.645
64674W        W29659  40.427  10.244   1.323
64675W        W29660  10.439  34.177  13.517
64676W        W29661   5.199  33.133   0.798
64677W        W29662   3.415  40.107  10.813
64678W        W29663  32.016   9.137   3.239
64679W        W29664  40.447  16.766   1.781
64680W        W29665  13.149   2.061   3.247
64681W        W29666   9.299  39.737   1.337
64682W        W29667  24.198   4.039  14.958
64683W        W29668  30.032  30.009   1.660
64684W        W29669  26.431  16.114  11.406
64685W        W29670  40.029  12.802   3.826
64686W        W29671  17.146  18.363   3.593
64687W        W29672   3.677  36.463  14.400
64688W        W29673  29.897  34.880   3.846
64689W        W29674  33.226  26.137   3.338
64690W        W29675   6.385  10.376  12.084
64691W        W29676  21.026   3.654   2.247
64692W        W29677  17.074  24.661   4.200
64693W        W29678  37.790  13.755   3.748
64694W        W29679   3.997  31.851  11.094
64695W        W29680   7.356   6.972  10.922
64696W        W29681  24.423  38.319  13.015
64697W        W29682   0.367  26.905  11.741
64698W        W29683   4.989  30.120  14.992
64699W        W29684  36.493   8.294   2.885
64700W        W29685   6.787  24.512  11.276
64701W        W29686  15.288  31.375  13.575
64702W        W29687  26.988  39.915   2.278
64703W        W29688  36.341   7.106   3.603
64704W        W29689  33.537  15.215   3.351
64705W        W29690  33.626  39.383   4.844
64706W        W29691   3.963  37.298  12.123
64707W        W29692  16.220  13.219  12.206
64708W        W29693  43.263  14.112   4.173
64709W        W29694  10.915  18.700   3.728
64710W        W29695  41.427  38.979   1.658
64711W        W29696   9.166  15.355  10.713
64712W        W29697  28.028   5.227   0.049
64713W        W29698   9.103   7.922   0.859
64714W        W29699   7.242  11.605   3.329
64715W        W29700  21.048  35.045   0.649
64716W        W29701  40.863  17.864  14.491
64717W        W29702  42.207  11.857  13.839
64718W        W29703  23.426   1.211   1.695
64719W        W29704  21.506  32.729   4.395
64720W        W29705   1.560   9.286  11.390
64721W        W29706  12.008  43.265  13.513
64722W        W29707  21.648  23.773  12.963
64723W        W29708  14.625  43.011  12.554
64724W        W29709   3.550  26.347   4.228
64725W        W29710  21.229  26.086   1.738
64726W        W29711  34.342   4.035  10.492
64727W        W29712  26.492   5.020   4.611
64728W        W29713   6.142   4.661   0.493
64729W        W29714   1.774  15.078  10.732
64730W        W29715  13.723  33.197  12.781
64731W        W29716  37.360  19.274   3.105
64732W        W29717   6.207  15.573  13.834
64733W        W29718  44.685  44.915  14.461
64734W        W29719  24.666  35.447  13.403
64735W        W29720  30.013  24.673  11.656
64736W        W29721   2.040  34.856  14.475
64737W        W29722   5.389  15.229   3.274
64738W        W29723  38.267   4.234   1.736
64739W        W29724  10.389   3.011   4.149
64740W        W29725  36.684  11.098  14.485
64741W        W29726  11.390  44.595   3.165
64742W        W29727  32.530  30.867  10.703
64743W        W29728   7.234  33.730   4.933
64744W        W29729  20.738   3.742  13.563
64745W        W29730   1.478  44.498   3.997
64746W        W29731   6.119   3.286  14.899
64747W        W29732   8.830  31.915  13.631
64748W        W29733   9.793   0.419  13.002
64749W        W29734  35.437   7.091   0.019
64750W        W29735  40.567  32.584  13.315
64751W        W29736  17.308  24.448  12.109
64752W        W29737  18.849   0.730  10.299
64753W        W29738  17.299  18.274  14.720
64754W        W29739  13.719  26.301   0.607
64755W        W29740  39.930  15.051  12.356
64756W        W29741   1.728  31.603   3.255
64757W        W29742  20.220  28.413   1.531
64758W        W29743  10.947  19.233  14.358
64759W        W29744  11.308   2.875   2.101
64760W        W29745  42.234  22.585  12.927
64761W        W29746  30.160   9.932   2.872
64762W        W29747  37.501  12.291  14.033
64763W        W29748  15.043  20.393   1.703
64764W        W29749  42.530  35.593  12.538
64765W        W29750   7.919   0.737  14.913
64766W        W29751  15.979  21.099  13.012
64767W        W29752  27.268   4.780  13.388
64768W        W29753  34.213  18.085  14.397
64769W        W29754  42.797  31.075  13.556
64770W        W29755  34.872   7.048  13.140
64771W        W29756  11.289  39.260   0.504
64772W        W29757  11.744  37.066   1.376
64773W        W29758   0.311   4.995  14.413
64774W        W29759  31.861  22.013  11.369
64775W        W29760   5.301  21.757   0.032
64776W        W29761  42.816  12.598   0.250
64777W        W29762  39.039  40.499   0.937
64778W        W29763  32.134  43.437   2.360
64779W        W29764  15.524   8.358   3.206
64780W        W29765  26.969  29.739  14.509
64781W        W29766  23.498  11.597  13.453
64782W        W29767  26.836  41.340  11.115
64783W        W29768  40.955  27.869   2.822
64784W        W29769  30.624  20.818  14.082
64785W        W29770  33.305  38.072   3.867
64786W        W29771  20.643   7.285   4.034
64787W        W29772  10.357  23.213   1.786
64788W        W29773  41.003  29.674   2.988
64789W        W29774  18.421  20.020   2.874
64790W        W29775  10.043  37.513   2.707
64791W        W29776  22.751  37.093  14.971
64792W        W29777  28.562  41.063  13.110
64793W        W29778   8.615  20.143   2.478
64794W        W29779  42.299   2.780   4.531
64795W        W29780  30.207  38.123   2.648
64796W        W29781   5.240  16.064  14.525
64797W        W29782  34.387  43.565   3.084
64798W        W29783  11.157  36.471  13.867
64799W        W29784   7.207  36.126   1.785
64800W        W29785  27.508   7.792   3.182
64801W        W29786   8.812  19.226   4.722
64802W        W29787  35.678  28.877  11.996
64803W        W29788  27.268  30.272  13.036
64804W        W29789   2.195  13.661   0.952
64805W        W29790   1.225   0.893   0.185
64806W        W29791  24.911  12.162  14.287
64807W        W29792   0.940  24.022  12.932
64808W        W29793   1.761   0.377  14.605
64809W        W29794  22.777  20.785  14.002
64810W        W29795  11.429  22.139   3.607
64811W        W29796  30.947  17.921  12.941
64812W        W29797  22.676  40.867   3.940
64813W        W29798  26.546  35.047   5.040
64814W        W29799  11.294  18.669   0.286
64815W        W29800  21.700   8.381  14.523
64816W        W29801  17.291  34.518  10.685
64817W        W29802  44.382   0.947   1.641
64818W        W29803  43.231   5.004  13.821
64819W        W29804  35.004   3.729   1.715
64820W        W29805  18.347  28.182   3.712
64821W        W29806  42.069  16.586   2.415
64822W        W29807  13.824   7.403   4.057
64823W        W29808  29.814  43.024  10.712
64824W        W29809   5.695  26.206   3.940
64825W        W29810  14.223   2.523  11.475
64826W        W29811  44.416   8.580   3.779
64827W        W29812  31.842  23.035   4.054
64828W        W29813   3.200  10.682  13.943
64829W        W29814  28.951  19.722  12.975
64830W        W29815  18.527  43.994  10.753
64831W        W29816  28.516  17.802   2.244
64832W        W29817   9.476  25.189  14.034
64833W        W29818  31.770   0.220  10.423
64834W        W29819  26.172  30.422   4.028
64835W        W29820  25.690  17.124   1.235
64836W        W29821  27.205  16.577  13.382
64837W        W29822  25.030  38.938   2.196
64838W        W29823  17.151  18.647  10.211
64839W        W29824  21.244   7.758   1.404
64840W        W29825  40.862  40.423   0.932
64841W        W29826   4.447  28.012   2.578
64842W        W29827  13.122  26.511   4.496
64843W        W29828  35.408   7.634   0.739
64844W        W29829   2.292  20.668   0.958
64845W        W29830  26.610  27.012  11.614
64846W        W29831   1.947  36.892   3.471
64847W        W29832  13.385  39.036   0.324
64848W        W29833  37.045  42.322  11.190
64849W        W29834   1.109  21.994  12.137
64850W        W29835   9.618   5.442  14.832
64851W        W29836  42.475   4.596   1.451
64852W        W29837   0.315  27.015  13.559
64853W        W29838  31.437   5.404  11.122
64854W        W29839  20.278   5.804  11.539
64855W        W29840  34.882  10.752   1.531
64856W        W29841  31.151  17.700   4.876
64857W        W29842   0.933   3.996  14.886
64858W        W29843   3.621  24.995   0.217
64859W        W29844  15.269  27.899  14.581
64860W        W29845   9.221  28.533  14.752
64861W        W29846   1.436   3.667  11.125
64862W        W29847  34.556  23.414  12.594
64863W        W29848   0.396  23.283   1.079
64864W        W29849  35.508  34.039   2.924
64865W        W29850   5.418   8.674   3.559
64866W        W29851  43.491  12.544   2.326
64867W        W29852  27.893   0.097   4.515
64868W        W29853  10.660   1.230   0.884
64869W        W29854  30.374  27.584   3.772
64870W        W29855  40.440  24.492   0.439
64871W        W29856  28.914  17.157   0.928
64872W        W29857  29.062  21.815   0.376
64873W        W29858  12.942   1.333  12.631
64874W        W29859  39.151   7.094  10.694
64875W        W29860  21.013  26.184  13.376
64876W        W29861   5.753  41.036   1.028
64877W        W29862  29.104  10.554  10.219
64878W        W29863  26.660   6.959   2.569
64879W        W29864   7.823  38.425  13.019
64880W        W29865  16.222  38.615   3.255
64881W        W29866  18.485  43.000   0.277
64882W        W29867  19.087   0.259  12.952
64883W        W29868   0.796   6.266  14.853
64884W        W29869  28.272  38.027  12.420
64885W        W29870  37.793  38.298   3.628
64886W        W29871  33.443  29.910  10.599
64887W        W29872   7.636  22.557  14.366
64888W        W29873  38.921  44.859  13.303
64889W        W29874  43.222  44.591  14.051
64890W        W29875  41.358   9.577  10.742
64891W        W29876  21.058  10.756  14.275
64892W        W29877   5.265   4.078   1.255
64893W        W29878  24.383   6.648  14.333
64894W        W29879   2.672  20.200  14.442
64895W        W29880   9.138  36.445   3.835
64896W        W29881  25.743  15.663   3.504
64897W        W29882  12.784  12.614   0.421
64898W        W29883  35.892  42.426   4.906
64899W        W29884  26.933  25.223  13.479
64900W        W29885  17.822  39.297  13.922
64901W        W29886  12.734   7.895  13.509
64902W        W29887   6.899  35.455   0.689
64903W        W29888  22.031  21.548  12.590
64904W        W29889   0.576  41.271   4.220
64905W        W29890  30.587  34.414   4.429
64906W        W29891  29.375  11.275   3.243
64907W        W29892   3.738  22.228   0.316
64908W        W29893  24.118  13.660   3.566
64909W        W29894  16.594  24.804   1.346
64910W        W29895  36.691   6.283   3.463
64911W        W29896  12.232   4.692  12.503
64912W        W29897   4.274  26.008  11.694
64913W        W29898  14.749  41.103   1.679
64914W        W29899   8.917  24.481  13.561
64915W        W29900   5.398   2.380  13.320
64916W        W29901  19.659  27.518  12.901
64917W        W29902   1.333  34.198  11.231
64918W        W29903  33.083  18.192   4.651
64919W        W29904  11.488  38.824   0.298
64920W        W29905  15.827   9.561  11.730
64921W        W29906  39.795  12.051  12.480
64922W        W29907  22.963   3.326  13.291
64923W        W29908  31.119  36.195   1.837
64924W        W29909  28.162   1.254  12.365
64925W        W29910  26.003  21.330  11.136
64926W        W29911  17.310   4.488  13.811
64927W        W29912  17.030  37.707   2.660
64928W        W29913  14.177   5.499  12.546
64929W        W29914  40.347  42.935   1.650
64930W        W29915  27.453  28.925   2.166
64931W        W29916  20.253  26.408   1.960
64932W        W29917  43.492  32.341  10.749
64933W        W29918  36.016  40.185   2.499
64934W        W29919  28.068   3.775   0.035
64935W        W29920  28.238  41.902  14.386
64936W        W29921  19.673  15.466  10.542
64937W        W29922  42.843   0.443  13.482
64938W        W29923  28.176   0.272  14.990
64939W        W29924  10.673   2.162  12.501
64940W        W29925  23.259  11.063   2.670
64941W        W29926  18.541  15.144   0.293
64942W        W29927   3.444  27.038   2.642
64943W        W29928   1.048  19.232   1.928
64944W        W29929   7.148  36.876   2.447
64945W        W29930  29.637   4.377  10.437
64946W        W29931  26.253  35.013   3.937
64947W        W29932  14.803  22.739   4.957
64948W        W29933  21.017  26.664  13.190
64949W        W29934  34.102  28.487   1.323
64950W        W29935  33.470  16.673   4.489
64951W        W29936  35.040  25.506   1.384
64952W        W29937  44.331  41.728  12.980
64953W        W29938  26.563  30.810   3.334
64954W        W29939  12.639   3.318  10.756
64955W        W29940   2.241  32.936   1.179
64956W        W29941  11.758   5.544  11.847
64957W        W29942  19.844  36.947   3.474
64958W        W29943  24.320  11.818  13.130
64959W        W29944  15.125  30.956  14.482
64960W        W29945  43.148   0.550   0.591
64961W        W29946  19.035  26.573  13.811
64962W        W29947  44.196  40.945   0.546
64963W        W29948  14.682  20.013  14.394
64964W        W29949  34.548  24.098  14.732
64965W        W29950  10.913  27.586   4.137
64966W        W29951  38.003  34.916   3.329
64967W        W29952  12.968  30.030  13.355
64968W        W29953   3.028  39.173  12.511
64969W        W29954  25.483  18.323  13.552
64970W        W29955  13.094  27.801   9.490
64971W        W29956  17.537  35.525  14.534
64972W        W29957   1.336   1.428  11.618
64973W        W29958  15.496  18.784   4.622
64974W        W29959  42.906  10.754  12.313
64975W        W29960  32.990  18.082  10.988
64976W        W29961  36.999  16.702  14.755
64977W        W29962  40.322  11.900   1.890
64978W        W29963  11.130  17.675   3.970
64979W        W29964  20.005   8.374   3.285
64980W        W29965  29.689  23.047  14.523
64981W        W29966  16.912   6.686  10.866
64982W        W29967  17.670  41.260   4.646
64983W        W29968  20.988  41.510  11.765
64984W        W29969  44.015  31.818  10.524
64985W        W29970  10.559  23.087   0.369
64986W        W29971   1.648   6.775  12.006
64987W        W29972  15.328  23.085  12.039
64988W        W29973  23.160  44.432   4.146
64989W        W29974   2.694   0.670  11.129
64990W        W29975  10.468  17.102  10.791
64991W        W29976  32.922  44.257  12.512
64992W        W29977  40.965   5.845  14.439
64993W        W29978   4.879   1.203  13.610
64994W        W29979  40.948  23.966  12.473
64995W        W29980  29.859  29.907   0.284
64996W        W29981  15.831  14.845  10.686
64997W        W29982   7.677  18.618   1.580
64998W        W29983  31.540  25.646   3.731
64999W        W29984  40.979  42.792  12.821
65000W        W29985  12.356  24.245   0.638
65001W        W29986  38.349  32.151   1.938
65002W        W29987  11.787  15.166  10.754
65003W        W29988  37.967   9.873  12.855
65004W        W29989  26.680   6.927  12.642
65005W        W29990  11.345   5.666  12.353
65006W        W29991  44.475   5.380  12.486
65007W        W29992  43.377  18.154  13.346
65008W        W29993  28.847  18.204   3.274
65009W        W29994   5.997  42.416   1.118
65010W        W29995  35.298  12.161  14.802
65011W        W29996  25.278  31.771  12.873
65012W        W29997  10.343  15.145  13.986
65013W        W29998  15.787  13.409  12.926
65014W        W29999  42.955  35.660   2.655
65015W        W30000  19.419  31.844   2.106
65016W        W30001   8.474  22.813   0.790
65017W        W30002  16.130  18.548   0.284
65018W        W30003  44.443  15.306   2.252
65019W        W30004   0.172  30.049  13.858
65020W        W30005  32.699   5.716   3.208
65021W        W30006  34.382  40.331  12.047
65022W        W30007   4.977  30.601  14.557
65023W        W30008  38.428  29.314  11.617
65024W        W30009   8.549  41.764  12.166
65025W        W30010   7.518  13.121  14.457
65026W        W30011  16.834   9.608  12.799
65027W        W30012  16.216   3.230   2.401
65028W        W30013  36.471  42.396  11.347
65029W        W30014  42.431  14.165  13.035
65030W        W30015   0.840  10.814  12.408
65031W        W30016  44.894  16.820  14.483
65032W        W30017  42.849  22.743  12.404
65033W        W30018  41.984  38.391   4.778
65034W        W30019   3.754   0.937   1.034
65035W        W30020  10.185  24.589   4.603
65036W        W30021  24.146  30.057  14.431
65037W        W30022  17.779  41.951   1.237
65038W        W30023  26.070  37.765   2.675
65039W        W30024   9.169  31.594   4.577
65040W        W30025  14.037  16.815  11.464
65041W        W30026  43.170   3.801   1.531
65042W        W30027  36.082  31.606   2.765
65043W        W30028  26.258  23.813  14.302
65044W        W30029  25.483  16.349   0.050
65045W        W30030  36.714  42.230   1.834
65046W        W30031  19.286  30.297  11.266
65047W        W30032  37.966  10.113   0.746
65048W        W30033   5.622  43.734  13.378
65049W        W30034   8.872  18.060   0.036
65050W        W30035   0.313  21.199  12.316
65051W        W30036  22.158  27.691   0.701
65052W        W30037  21.909  26.367   2.778
65053W        W30038   0.495  13.502  11.169
65054W        W30039  40.891  15.418   1.712
65055W        W30040  21.950  43.412  12.958
65056W        W30041  31.585  10.216   3.696
65057W        W30042   2.325  41.457  14.850
65058W        W30043  25.612  18.165  12.600
65059W        W30044   6.243  17.657  10.893
65060W        W30045  39.913  41.381  11.990
65061W        W30046   1.075   5.396  14.672
65062W        W30047   6.168  13.714   4.193
65063W        W30048  42.447  38.087  14.325
65064W        W30049   8.624  36.869   1.305
65065W        W30050  37.013   1.999  12.452
65066W        W30051  23.046  39.037  14.280
65067W        W30052  33.638  44.899  10.727
65068W        W30053  44.465  33.623   4.446
65069W        W30054  18.522   5.401   9.375
65070W        W30055  15.490  40.038   3.987
65071W        W30056  34.862  30.758   1.661
65072W        W30057  30.855  35.087   2.357
65073W        W30058  17.698  18.135   0.024
65074W        W30059  13.174  16.997   0.944
65075W        W30060  33.545  37.781  13.790
65076W        W30061  37.555  32.169   1.372
65077W        W30062  24.064  21.986  11.607
65078W        W30063  36.025  37.242   4.634
65079W        W30064   9.356  22.884  11.611
65080W        W30065  22.645   4.647   3.827
65081W        W30066  15.130  24.408   3.217
65082W        W30067  11.596  20.670  11.965
65083W        W30068  23.759  29.715   2.821
65084W        W30069  19.994  32.382  13.257
65085W        W30070  32.829  28.861  11.599
65086W        W30071  24.218  14.040  11.210
65087W        W30072  44.301   1.314   4.621
65088W        W30073   2.667   9.591   4.200
65089W        W30074  41.036   4.813   3.355
65090W        W30075  28.184  23.063   2.883
65091W        W30076  32.177  33.299  11.630
65092W        W30077  18.366  40.507  14.662
65093W        W30078  27.342  19.923   1.798
65094W        W30079  15.796   9.347  10.975
65095W        W30080  39.651  17.708   4.642
65096W        W30081  42.820   2.807  13.621
65097W        W30082  27.048   5.193  13.041
65098W        W30083  11.668  41.424  13.820
65099W        W30084  21.217  35.936   0.941
65100W        W30085   8.253   7.642   3.975
65101W        W30086  40.883  31.078  11.652
65102W        W30087  40.004  24.303   1.208
65103W        W30088  10.816  11.051   3.918
65104W        W30089  36.268   3.558  13.740
65105W        W30090   9.912  15.025   5.046
65106W        W30091  14.191  20.754  12.010
65107W        W30092  19.539   8.301   0.972
65108W        W30093  18.603  36.386  11.283
65109W        W30094  10.970  18.351  11.439
65110W        W30095  43.640  36.900  11.583
65111W        W30096  21.926  26.546   0.424
65112W        W30097  12.874  35.340   3.110
65113W        W30098   2.289  31.014   3.055
65114W        W30099  25.043  22.952  14.003
65115W        W30100  13.172  11.862  14.406
65116W        W30101  13.045  30.025   1.249
65117W        W30102   7.658  26.580  11.138
65118W        W30103  27.111   8.791   4.536
65119W        W30104  22.338  40.127  14.253
65120W        W30105   8.078  11.199  14.075
65121W        W30106  21.239  43.972  13.130
65122W        W30107  24.664   6.615   2.753
65123W        W30108   7.281  34.855   4.136
65124W        W30109  37.848  43.432   3.325
65125W        W30110   1.415  38.542  14.217
65126W        W30111   6.083  31.307  12.043
65127W        W30112  21.964   6.802   1.373
65128W        W30113   8.302  31.813  12.042
65129W        W30114  36.864  34.413  10.559
65130W        W30115  44.428  25.156  10.718
65131W        W30116  41.081  40.520   0.448
65132W        W30117  19.202   2.493  10.718
65133W        W30118  43.062  25.489   1.892
65134W        W30119   3.737  16.540  12.024
65135W        W30120  26.478  25.534   1.280
65136W        W30121  36.042  33.408  12.096
65137W        W30122  16.851   0.264   1.457
65138W        W30123  16.231  19.643  11.995
65139W        W30124  34.659  22.061  13.811
65140W        W30125  22.786   4.572   1.983
65141W        W30126  35.840  33.905  11.242
65142W        W30127   2.462   4.438   0.468
65143W        W30128  42.595  32.371  10.769
65144W        W30129  16.669  17.623  13.225
65145W        W30130  43.083   1.916  14.700
65146W        W30131  19.158  16.192   4.669
65147W        W30132   9.300  37.971   1.439
65148W        W30133  13.682  11.860  14.361
65149W        W30134  26.635  37.436  11.642
65150W        W30135  10.465   2.665   3.749
65151W        W30136  34.121   1.369  10.684
65152W        W30137  27.153  11.947  12.427
65153W        W30138  33.300  40.600  13.327
65154W        W30139  35.427   3.671   3.257
65155W        W30140  43.214  20.202  10.249
65156W        W30141  31.831  22.872   1.345
65157W        W30142  27.936  15.827   3.698
65158W        W30143  30.007   4.767   3.241
65159W        W30144   3.388  21.216  14.890
65160W        W30145  33.278  29.622   5.176
65161W        W30146   7.102   3.671  14.633
65162W        W30147  28.501   6.324   1.324
65163W        W30148  44.173  41.258   1.758
65164W        W30149   2.693   1.991   4.154
65165W        W30150  16.385  32.917  12.582
65166W        W30151  40.345   2.010  10.680
65167W        W30152  41.418   7.432  12.992
65168W        W30153  32.911  36.080   3.171
65169W        W30154  20.007  34.046  12.131
65170W        W30155  21.169   7.337   0.715
65171W        W30156  35.147  36.042   1.404
65172W        W30157  34.167   6.766  10.331
65173W        W30158  20.595  34.941  13.054
65174W        W30159  25.129  35.253  11.980
65175W        W30160  44.364  13.690  11.467
65176W        W30161  34.555  35.429   0.607
65177W        W30162  14.715  44.467   3.421
65178W        W30163  31.367   5.870   3.802
65179W        W30164  19.983  24.119  11.648
65180W        W30165   4.390   3.642   3.622
65181W        W30166  13.806  36.166  13.500
65182W        W30167  32.305  20.162  11.639
65183W        W30168   3.807  43.919   2.743
65184W        W30169  13.833  44.512   3.699
65185W        W30170   9.191  14.844   2.195
65186W        W30171  10.859   9.910   3.794
65187W        W30172   8.803  23.912   2.197
65188W        W30173  24.172  18.754  12.983
65189W        W30174  17.973  23.244  11.574
65190W        W30175  20.790  40.917  11.623
65191W        W30176   6.784   9.984   0.325
65192W        W30177   5.230  44.721   0.873
65193W        W30178  16.079  41.717  13.353
65194W        W30179  43.386  30.748   0.799
65195W        W30180  15.646  26.034   0.877
65196W        W30181  27.482  26.360   3.694
65197W        W30182   0.408  28.225  12.079
65198W        W30183  36.050   7.486   3.166
65199W        W30184  37.877  25.499   5.184
65200W        W30185   1.304  17.905  13.983
65201W        W30186  20.285   8.394  10.729
65202W        W30187   4.704  29.078  10.251
65203W        W30188  12.102   6.310  14.839
65204W        W30189  27.571  34.931   2.509
65205W        W30190  17.499  15.124  14.831
65206W        W30191   6.630  26.139   4.400
65207W        W30192   6.645  14.958  14.916
65208W        W30193  40.464  11.813   2.924
65209W        W30194  10.697  26.526  11.962
65210W        W30195  33.471  39.839   1.226
65211W        W30196   4.094   4.573   2.058
65212W        W30197  11.900   0.342   3.195
65213W        W30198  30.410  20.087  10.731
65214W        W30199  17.868  12.459   3.705
65215W        W30200  31.044  27.282  13.352
65216W        W30201  29.962  13.204   1.613
65217W        W30202  11.442  10.745  14.986
65218W        W30203  30.265  35.326  11.990
65219W        W30204  21.312  14.939  12.723
65220W        W30205  26.707  37.102  12.958
65221W        W30206  34.144   8.477  13.461
65222W        W30207  29.911  35.491   0.253
65223W        W30208  43.389  36.234   2.773
65224W        W30209   5.515  23.168   4.774
65225W        W30210  16.629   5.649   0.819
65226W        W30211   6.949   0.025   4.173
65227W        W30212  11.191   5.280  11.476
65228W        W30213  26.693  41.442   3.657
65229W        W30214  30.368   3.851   0.813
65230W        W30215  11.142  21.202  10.652
65231W        W30216  36.818   3.754  10.703
65232W        W30217  23.461  21.159   4.564
65233W        W30218  38.698  16.618  14.405
65234W        W30219  12.587   7.171  14.855
65235W        W30220  17.798  12.617   3.196
65236W        W30221  11.080  12.866   4.374
65237W        W30222  10.627  13.632   2.719
65238W        W30223  32.386  13.130   2.754
65239W        W30224  13.395  14.276  14.255
65240W        W30225  41.627  31.410  14.757
65241W        W30226   3.126  35.794   3.727
65242W        W30227   1.310  39.422   2.240
65243W        W30228  19.272  15.699  14.799
65244W        W30229  24.304  17.294   1.921
65245W        W30230  42.740  15.147   1.753
65246W        W30231  14.186  23.046   3.201
65247W        W30232   0.914  20.332   4.713
65248W        W30233  41.319  19.691  12.865
65249W        W30234   8.235  23.652   4.689
65250W        W30235  21.996   9.355  10.760
65251W        W30236   9.201   0.437  12.438
65252W        W30237  13.804  16.119   3.323
65253W        W30238  25.159  12.531  11.405
65254W        W30239  16.348  25.808  12.962
65255W        W30240  29.969  14.096  11.958
65256W        W30241  16.237  26.440   3.674
65257W        W30242   1.964  23.639  14.234
65258W        W30243  25.629  15.252   4.290
65259W        W30244  17.275  26.025   3.795
65260W        W30245   2.900  40.889   1.309
65261W        W30246  20.771   7.646  12.507
65262W        W30247  29.623   4.927   4.045
65263W        W30248  36.419  17.584   0.113
65264W        W30249   6.771  32.196  11.158
65265W        W30250  10.691  19.380   4.229
65266W        W30251   4.048   0.318   1.565
65267W        W30252   2.363   3.056  12.168
65268W        W30253  38.946  26.995   0.797
65269W        W30254  10.141  27.411   2.302
65270W        W30255  28.028   3.825   0.559
65271W        W30256  35.476  20.130  11.742
65272W        W30257   7.352  23.804  14.723
65273W        W30258  28.473  27.697  12.853
65274W        W30259   5.646  31.890   3.410
65275W        W30260  35.274  32.162   4.112
65276W        W30261  42.128  23.688  11.429
65277W        W30262   3.190   2.323  14.422
65278W        W30263  30.502  25.417   2.319
65279W        W30264  14.685  32.834   2.630
65280W        W30265  29.701  34.030  12.466
65281W        W30266  11.600  13.430   1.805
65282W        W30267  37.436   1.744   3.912
65283W        W30268  19.267  26.745  12.840
65284W        W30269  33.413  42.574  14.506
65285W        W30270  33.995  12.583  14.854
65286W        W30271   6.227  12.285   2.113
65287W        W30272  35.637  11.753  13.532
65288W        W30273  43.264  13.159   3.202
65289W        W30274  13.070  28.944   2.492
65290W        W30275   9.898  33.853   1.388
65291W        W30276  12.310  25.052   0.252
65292W        W30277  19.842  28.530  11.875
65293W        W30278  35.570  39.049  13.758
65294W        W30279  44.334  19.775  11.336
65295W        W30280   7.291   3.134  10.090
65296W        W30281  31.417  16.076  13.193
65297W        W30282  43.703  36.704  14.553
65298W        W30283  14.625  19.487   3.768
65299W        W30284  35.363  27.003   4.894
65300W        W30285  43.776  29.955   3.892
65301W        W30286  37.438  16.652  12.072
65302W        W30287   5.008  37.501  12.845
65303W        W30288  43.279  31.071  11.953
65304W        W30289   4.555  17.054   0.789
65305W        W30290  32.955  28.943   4.612
65306W        W30291  34.297   8.083   1.322
65307W        W30292  18.199  12.794  11.806
65308W        W30293  38.027  11.752   2.614
65309W        W30294  23.122  25.756  14.422
65310W        W30295  13.378  39.222  13.513
65311W        W30296  27.813  18.527   0.896
65312W        W30297  44.370   0.739   4.648
65313W        W30298  33.903  33.208  14.947
65314W        W30299  15.152  23.767  14.454
65315W        W30300   5.358   6.020  13.005
65316W        W30301  23.193  14.161   1.753
65317W        W30302   7.262  32.958  14.550
65318W        W30303  36.031  16.302  11.966
65319W        W30304  39.597  34.693   4.922
65320W        W30305  34.369   5.831  10.676
65321W        W30306   1.960  24.236   2.749
65322W        W30307  11.197  40.942  11.686
65323W        W30308  23.651  26.025  12.948
65324W        W30309  28.951  38.222  12.464
65325W        W30310  15.193  33.601   2.659
65326W        W30311  24.629   9.235  14.045
65327W        W30312   0.609  42.643  14.732
65328W        W30313   2.683  19.476   2.814
65329W        W30314  32.161  21.210   3.706
65330W        W30315   0.720  31.460  13.835
65331W        W30316  39.381  22.562  11.178
65332W        W30317  11.284   3.858   2.877
65333W        W30318  19.020  38.899   3.625
65334W        W30319  36.848  11.756   0.652
65335W        W30320   9.906  23.168  12.992
65336W        W30321  23.210  15.759   1.772
65337W        W30322  13.501  26.841   0.801
65338W        W30323  37.432  19.202   3.814
65339W        W30324  39.389   8.104   3.300
65340W        W30325  39.869  19.607   4.168
65341W        W30326  42.108  14.757  14.901
65342W        W30327  28.450  38.496  10.637
65343W        W30328   8.103  19.684   3.799
65344W        W30329  20.123  30.944   1.313
65345W        W30330  24.424  26.589  14.463
65346W        W30331  14.897  32.830   4.744
65347W        W30332  42.829  31.039  13.052
65348W        W30333  36.674  35.546  11.035
65349W        W30334   9.445  17.805  12.453
65350W        W30335  17.058   3.640   5.009
65351W        W30336  40.110  35.361  13.363
65352W        W30337  11.758  18.590   0.009
65353W        W30338  12.298  19.559  14.483
65354W        W30339   1.153   8.562   4.120
65355W        W30340  19.187  25.832  14.329
65356W        W30341   7.171  26.787  11.113
65357W        W30342  15.207  24.199  13.484
65358W        W30343  13.684   3.143   4.498
65359W        W30344   7.312   1.963  13.928
65360W        W30345  35.604  16.138   3.439
65361W        W30346  14.413   7.434   2.725
65362W        W30347  11.575  34.021   3.749
65363W        W30348  37.421   1.877   1.997
65364W        W30349  25.478  38.694  14.058
65365W        W30350  13.163  43.919   4.220
65366W        W30351  40.618  14.809   2.807
65367W        W30352  29.739  17.690  13.529
65368W        W30353  40.954  27.155  12.589
65369W        W30354  30.960  31.105   0.847
65370W        W30355   8.188  21.213  12.430
65371W        W30356  18.104  25.666  14.933
65372W        W30357   3.778  19.666  12.531
65373W        W30358  38.454  42.181  11.888
65374W        W30359  32.096  21.004   0.100
65375W        W30360  38.327  28.688  14.028
65376W        W30361  16.167  19.690   3.659
65377W        W30362  25.550  11.290  13.569
65378W        W30363  18.981  35.631   2.442
65379W        W30364   4.977  17.255   3.651
65380W        W30365  12.021  10.802   1.332
65381W        W30366  26.810  42.122   2.804
65382W        W30367  13.709  44.136  11.553
65383W        W30368  42.299  21.734   1.644
65384W        W30369   2.788  25.723  13.730
65385W        W30370  18.598  40.797   0.671
65386W        W30371   7.134  38.869   0.258
65387W        W30372  10.301  41.539  10.773
65388W        W30373  28.553  33.657  13.935
65389W        W30374  33.622  12.905   3.639
65390W        W30375  40.201  22.049   4.704
65391W        W30376  22.983  23.485  14.704
65392W        W30377   9.709  25.396  13.194
65393W        W30378  40.822  36.511   4.894
65394W        W30379  19.961  10.876  12.210
65395W        W30380   7.772  11.342   3.256
65396W        W30381  27.524  29.822   0.870
65397W        W30382  15.182  18.793   0.512
65398W        W30383   6.155  18.759  14.857
65399W        W30384  15.462  40.467   1.665
65400W        W30385  14.264   9.092   0.666
65401W        W30386   6.613   7.123  12.934
65402W        W30387  12.382  39.161  14.515
65403W        W30388  33.923  27.375  10.737
65404W        W30389  22.261  15.307   3.724
65405W        W30390  37.869  34.530  14.112
65406W        W30391  38.855  42.525  14.257
65407W        W30392   5.438  16.503   2.153
65408W        W30393  21.486  16.835   1.821
65409W        W30394  24.062  35.135  14.275
65410W        W30395  20.840  20.747   2.366
65411W        W30396  37.940  30.462   4.686
65412W        W30397  42.805  11.075  14.244
65413W        W30398   4.762  42.598  10.654
65414W        W30399  32.031  38.240  13.277
65415W        W30400  36.243  14.303   2.558
65416W        W30401  14.319  29.732   0.192
65417W        W30402   3.334  17.748  14.727
65418W        W30403   6.850  11.333  11.957
65419W        W30404  39.547  38.895  14.093
65420W        W30405   9.049   0.417   4.951
65421W        W30406  29.633  44.668  11.199
65422W        W30407   2.704   6.992   1.624
65423W        W30408  41.016  24.567   9.891
65424W        W30409  28.946  43.219   5.052
65425W        W30410  33.625  14.207   3.440
65426W        W30411  19.157  16.704   0.815
65427W        W30412  24.744  18.343  14.943
65428W        W30413  43.311  40.467   3.293
65429W        W30414   3.964  21.743  11.032
65430W        W30415   9.912  15.727  11.882
65431W        W30416  19.283   6.490   3.648
65432W        W30417  33.097  38.249  11.148
65433W        W30418  12.867  36.496  12.084
65434W        W30419   1.156  41.006   0.833
65435W        W30420  11.841  35.183  14.146
65436W        W30421   7.238  22.708   1.807
65437W        W30422  20.225  37.240  13.774
65438W        W30423  21.508  22.998  11.893
65439W        W30424  22.670  29.618  14.553
65440W        W30425  44.905   8.302   1.089
65441W        W30426  39.923   5.426  11.099
65442W        W30427  12.679  12.259  12.144
65443W        W30428   7.318  26.216  12.783
65444W        W30429   7.331  36.065  12.871
65445W        W30430  42.891  28.373  12.873
65446W        W30431  30.020  32.106   2.301
65447W        W30432  11.307  35.095   3.136
65448W        W30433   1.343  40.501  13.868
65449W        W30434  12.323  14.610  11.670
65450W        W30435  36.830  12.772  11.049
65451W        W30436  32.972   5.799  14.963
65452W        W30437  31.982  41.578   2.655
65453W        W30438  26.578  41.053   0.704
65454W        W30439  37.801   7.184   0.997
65455W        W30440  22.126  31.392   2.111
65456W        W30441  33.598  23.758   2.130
65457W        W30442  39.035  25.442  12.627
65458W        W30443  23.415   6.444  12.319
65459W        W30444  10.444  40.407  12.406
65460W        W30445  22.634   5.182   4.625
65461W        W30446  16.068  39.972   3.423
65462W        W30447  34.599  14.668  10.459
65463W        W30448  43.436  36.415  11.552
65464W        W30449   5.884  19.472   4.583
65465W        W30450  39.309   4.522   3.209
65466W        W30451  26.908  20.545  14.402
65467W        W30452  19.452  26.907   0.867
65468W        W30453  40.917  20.241   4.296
65469W        W30454  33.560   6.671   0.019
65470W        W30455  39.978  23.137   3.838
65471W        W30456  27.192  38.689  13.610
65472W        W30457   9.928  41.460   0.265
65473W        W30458  10.299  11.038   3.214
65474W        W30459  44.380   4.741  12.079
65475W        W30460  12.710   8.669   4.486
65476W        W30461  42.625  37.322   2.184
65477W        W30462  31.002   1.165   3.456
65478W        W30463  41.266  14.608   3.335
65479W        W30464  18.353  21.039   1.021
65480W        W30465  43.421   1.923  13.984
65481W        W30466  31.638  35.027  13.963
65482W        W30467  34.315  31.840  12.901
65483W        W30468   1.187   2.117  13.923
65484W        W30469  23.229   6.147  11.923
65485W        W30470  35.254  14.634   2.703
65486W        W30471  37.860  15.082   1.713
65487W        W30472   9.207   1.276   0.515
65488W        W30473  44.710  11.934  11.215
65489W        W30474  38.972  15.225  13.428
65490W        W30475  19.434  22.606  13.443
65491W        W30476  29.460   0.822  10.712
65492W        W30477  31.018  39.803   4.247
65493W        W30478   1.406  20.660  12.630
65494W        W30479  43.243  30.186   3.259
65495W        W30480  31.031  11.888   0.631
65496W        W30481   4.423  18.299  13.922
65497W        W30482  22.241   0.616   2.965
65498W        W30483   7.773  28.086  12.366
65499W        W30484  29.917  15.145  12.025
65500W        W30485  15.338   2.249   2.349
65501W        W30486  17.049  23.485   0.390
65502W        W30487  25.658  31.202   3.058
65503W        W30488  26.425  14.013   0.393
65504W        W30489  22.006   2.486   4.917
65505W        W30490  27.418   4.908  12.854
65506W        W30491   2.006  10.140  14.321
65507W        W30492  26.096  38.983  14.884
65508W        W30493  19.515  44.035  10.558
65509W        W30494  34.986   9.392   1.180
65510W        W30495  21.136  34.594  13.528
65511W        W30496  43.537   9.715  14.985
65512W        W30497   2.345  36.281  10.962
65513W        W30498  21.577   3.900  12.067
65514W        W30499  16.151  12.740  14.453
65515W        W30500  25.556  41.063  14.091
65516W        W30501  19.971  30.732   0.307
65517W        W30502  22.090  37.606   1.411
65518W        W30503  19.816  34.093   1.908
65519W        W30504  19.801  13.699   4.110
65520W        W30505  19.589  31.904  11.189
65521W        W30506  38.033  37.351   9.985
65522W        W30507  26.911   8.739  12.867
65523W        W30508  27.188  32.483  14.879
65524W        W30509  11.685  21.351   3.550
65525W        W30510  31.424   6.313  13.496
65526W        W30511   0.362  21.663  13.086
65527W        W30512  33.525  15.782  11.513
65528W        W30513  24.181   9.553   3.423
65529W        W30514   6.744  17.221  14.489
65530W        W30515  10.442  12.188  13.046
65531W        W30516  44.653  40.296  13.545
65532W        W30517   9.651  26.141   1.780
65533W        W30518  39.454   8.691   0.705
65534W        W30519  26.539  22.739   1.349
65535W        W30520  40.233   9.185  11.190
65536W        W30521   5.638  15.736   1.439
65537W        W30522  18.560  10.330   0.954
65538W        W30523   2.444  20.966   0.001
65539W        W30524  42.700  40.002   2.732
65540W        W30525  16.968   5.238   3.201
65541W        W30526  31.364  30.341   2.684
65542W        W30527   7.091   3.337  11.052
65543W        W30528  31.530   5.760   4.801
65544W        W30529  29.754  30.045  13.461
65545W        W30530   2.505  18.694  12.509
65546W        W30531  21.053  28.065  12.127
65547W        W30532  27.792   2.737   5.621
65548W        W30533  43.809  26.578   1.460
65549W        W30534  37.865  11.366  11.127
65550W        W30535  13.302  30.829  10.092
65551W        W30536  15.753   5.186  14.004
65552W        W30537  34.252  22.462   3.342
65553W        W30538  15.808  23.289  11.092
65554W        W30539  38.468   3.616   3.051
65555W        W30540  18.264  42.153   1.200
65556W        W30541  40.050  32.083   1.492
65557W        W30542   3.162  26.499  13.580
65558W        W30543  13.736  31.326  10.746
65559W        W30544  39.263  32.419   3.685
65560W        W30545  41.192  34.808   4.094
65561W        W30546  23.525   8.714   4.138
65562W        W30547   7.704   2.950  10.576
65563W        W30548   8.048  28.022   0.207
65564W        W30549  19.905  25.029  12.392
65565W        W30550  41.786  33.163   3.461
65566W        W30551  21.484   1.264   0.270
65567W        W30552  18.532  10.277  14.356
65568W        W30553  14.689   6.310   3.108
65569W        W30554   1.098   1.439  14.322
65570W        W30555   3.923  36.788   3.704
65571W        W30556   1.561  24.005   1.687
65572W        W30557  30.617  16.971   2.342
65573W        W30558  35.005   5.465   1.321
65574W        W30559   1.294   6.687  14.374
65575W        W30560  16.757  25.932  14.768
65576W        W30561   3.954  16.579   0.239
65577W        W30562  17.588  10.249   4.134
65578W        W30563  20.751  34.372  13.797
65579W        W30564  21.118  39.586   3.500
65580W        W30565  23.482  32.752  12.582
65581W        W30566  30.459  30.202   1.468
65582W        W30567  13.753  20.283   1.537
65583W        W30568  42.373  18.599   1.267
65584W        W30569  40.665  12.274   1.679
65585W        W30570  31.263  17.695  12.574
65586W        W30571  16.332  22.011   3.372
65587W        W30572  18.533  31.848   1.044
65588W        W30573  20.026   9.264   4.131
65589W        W30574   7.366  21.518  13.892
65590W        W30575  41.941   7.230   3.197
65591W        W30576  44.198  38.743  13.176
65592W        W30577  37.157  10.928   4.438
65593W        W30578  44.028   6.890  12.463
65594W        W30579  23.105  22.883  13.037
65595W        W30580  29.142   1.539   9.808
65596W        W30581  39.584  25.553   2.343
65597W        W30582   0.544  24.010   3.799
65598W        W30583  36.195  28.527  12.790
65599W        W30584  35.095  21.851  11.145
65600W        W30585  11.612  10.849   4.362
65601W        W30586  12.873  17.722   3.386
65602W        W30587  21.409  37.987   2.542
65603W        W30588  31.951  14.995   3.138
65604W        W30589  33.884  44.007   4.080
65605W        W30590  36.451  11.344  11.884
65606W        W30591  15.035  17.584   1.070
65607W        W30592  43.257  17.354   3.300
65608W        W30593  19.112   9.098  12.971
65609W        W30594  23.608  28.538   2.713
65610W        W30595  32.008  44.023   1.697
65611W        W30596  24.340  22.203   2.179
65612W        W30597  15.778  37.540  10.760
65613W        W30598  30.031  43.709   0.064
65614W        W30599  10.391  37.505   4.053
65615W        W30600  28.407  37.952  13.377
65616W        W30601   9.038  36.174  14.365
65617W        W30602   7.268  30.980  14.424
65618W        W30603  34.441  15.356  11.593
65619W        W30604  35.582  42.017   4.952
65620W        W30605  18.362  11.316  14.666
65621W        W30606  16.321   2.703   1.490
65622W        W30607  18.781  30.184   1.401
65623W        W30608  34.063   6.514  14.985
65624W        W30609   0.490  37.355  10.491
65625W        W30610  34.828  36.413   1.209
65626W        W30611  38.801  19.828   3.560
65627W        W30612   2.144  22.099  14.507
65628W        W30613   3.355  18.374   3.144
65629W        W30614  12.535  17.811  11.474
65630W        W30615  14.275  36.701   2.743
65631W        W30616  20.191  10.956   4.943
65632W        W30617   8.264   6.433   1.373
65633W        W30618   6.369  42.793  13.528
65634W        W30619  28.138  14.553   4.306
65635W        W30620  34.112   0.804  14.511
65636W        W30621   5.699  23.130   4.292
65637W        W30622  37.327  29.367   3.107
65638W        W30623   2.307  34.818  11.071
65639W        W30624  27.745  15.648  14.285
65640W        W30625  42.715  44.187  11.130
65641W        W30626  39.146  30.930  11.092
65642W        W30627   9.187  26.740   3.518
65643W        W30628  11.685  24.741  12.032
65644W        W30629  41.554  19.513  12.047
65645W        W30630  40.810  14.784  11.101
65646W        W30631  27.221  41.366   2.829
65647W        W30632   1.751   0.449   1.065
65648W        W30633  15.826  37.769   2.805
65649W        W30634  25.151  43.630   2.654
65650W        W30635  23.607  13.127   1.263
65651W        W30636  22.198   8.375  14.406
65652W        W30637  26.516  35.683  12.337
65653W        W30638   8.209   4.403  10.789
65654W        W30639  18.846  16.645  10.626
65655W        W30640  21.913  15.837  14.415
65656W        W30641  37.914  38.288  10.904
65657W        W30642  22.172   6.252   4.406
65658W        W30643  22.026  38.811   0.736
65659W        W30644  17.890  22.168  13.537
65660W        W30645  41.365  15.559  10.011
65661W        W30646  17.688  43.043  14.782
65662W        W30647   2.191  43.398  10.742
65663W        W30648  33.101   0.479  11.060
65664W        W30649  18.035  31.018   3.704
65665W        W30650   5.843  35.473  12.508
65666W        W30651  20.114  39.168   5.052
65667W        W30652  21.250  42.973   1.838
65668W        W30653  35.963  38.425   0.716
65669W        W30654   0.460  28.199  11.564
65670W        W30655  39.961  25.725  12.545
65671W        W30656  29.090  17.139   0.301
65672W        W30657  22.747  10.902  11.536
65673W        W30658  23.694  25.507  13.004
65674W        W30659  37.036  31.015  13.982
65675W        W30660  25.964  22.652  11.557
65676W        W30661   4.217  13.205  11.825
65677W        W30662  32.387  11.301  14.769
65678W        W30663   1.693   7.716  12.031
65679W        W30664  11.686  40.468  12.972
65680W        W30665  11.483  13.895  12.485
65681W        W30666  30.356  13.682  13.015
65682W        W30667  16.116  38.882  14.515
65683W        W30668  28.605   8.376  10.742
65684W        W30669  14.280  12.475   2.111
65685W        W30670   6.350  19.526  14.426
65686W        W30671  23.651  23.591  14.455
65687W        W30672  34.619  34.875  12.948
65688W        W30673  20.098  36.366   1.927
65689W        W30674   3.322   1.530  14.435
65690W        W30675  24.480  14.179   1.401
65691W        W30676  38.771  43.241   1.308
65692W        W30677  18.821  17.795   2.721
65693W        W30678  17.855  10.129  13.365
65694W        W30679  11.984  28.094   1.848
65695W        W30680   1.651  24.005  14.453
65696W        W30681  22.108  17.299   3.936
65697W        W30682  18.548  35.547  14.378
65698W        W30683  40.948  24.730  12.199
65699W        W30684  34.411   9.367   0.532
65700W        W30685  14.760   6.324  13.565
65701W        W30686  31.126   4.093  14.942
65702W        W30687  13.871  24.222  12.055
65703W        W30688  35.392  20.733  13.012
65704W        W30689   2.882  42.734  14.379
65705W        W30690   3.717  11.946  14.368
65706W        W30691  36.796  31.125  14.952
65707W        W30692   6.970  14.178  14.359
65708W        W30693  18.672  13.663  12.420
65709W        W30694   5.951  35.039   3.732
65710W        W30695  37.373  30.490  12.438
65711W        W30696   2.763   7.871  12.599
65712W        W30697  11.099  13.203  13.928
65713W        W30698  25.522  13.290  12.334
65714W        W30699  24.334   9.298  14.481
65715W        W30700  11.416  37.301  13.398
65716W        W30701  28.243   8.400   1.719
65717W        W30702  35.786  28.796  12.506
65718W        W30703  34.492   9.864   3.208
65719W        W30704  38.484  33.674  11.273
65720W        W30705  32.851  36.010   0.370
65721W        W30706  34.982  36.895   1.377
65722W        W30707  28.001  12.828  14.537
65723W        W30708   3.540   4.691   1.751
65724W        W30709  44.419   3.782   3.338
65725W        W30710   8.947   1.949   2.369
65726W        W30711  25.168   5.178   4.072
65727W        W30712  23.478   9.495   2.230
65728W        W30713  29.434   1.055   1.996
65729W        W30714  32.600  29.905  11.597
65730W        W30715  22.221  27.456   1.950
65731W        W30716  10.631  17.262   0.923
65732W        W30717   4.068  39.928  14.356
65733W        W30718  24.992  23.488  10.692
65734W        W30719  43.800  14.307   4.670
65735W        W30720   2.298   3.854   2.676
65736W        W30721  24.010  26.618   3.761
65737W        W30722   8.455   7.170  14.804
65738W        W30723  14.786   3.631  11.538
65739W        W30724  12.567  37.489   4.559
65740W        W30725  20.276   1.369  14.277
65741W        W30726   0.945  38.677   1.741
65742W        W30727   4.934   5.437  12.427
65743W        W30728  42.784  38.867  10.990
65744W        W30729  25.217  20.067  13.775
65745W        W30730  29.398  26.198   0.779
65746W        W30731   3.036  24.688  12.320
65747W        W30732  15.255  12.521  11.638
65748W        W30733  33.304   2.929   4.088
65749W        W30734  39.791   5.295   3.144
65750W        W30735  34.874  17.938   0.447
65751W        W30736  26.135  25.483   3.792
65752W        W30737  10.705  33.455  10.019
65753W        W30738  22.121   5.563  11.398
65754W        W30739  15.219  41.412  14.545
65755W        W30740  24.431  13.347  13.020
65756W        W30741  23.754  34.608  13.492
65757W        W30742  27.987   5.882  14.417
65758W        W30743   5.961   7.769  12.451
65759W        W30744   8.593  25.383  11.683
65760W        W30745  19.072   0.189  11.094
65761W        W30746  12.790  11.847   1.596
65762W        W30747   1.221  24.891  12.080
65763W        W30748  16.046  43.245  11.717
65764W        W30749  10.122   6.891   0.654
65765W        W30750  41.536   7.768   1.766
65766W        W30751  29.953  39.827   0.552
65767W        W30752   2.230   2.254  12.502
65768W        W30753  38.840  14.372  14.889
65769W        W30754  34.055  23.350   3.546
65770W        W30755  38.891  12.925   0.963
65771W        W30756  43.056  11.152  12.938
65772W        W30757   1.381  29.966   1.817
65773W        W30758  33.221  20.151   2.439
65774W        W30759   7.445  40.035   3.676
65775W        W30760  14.958  44.382   2.421
65776W        W30761  37.051  24.775  12.280
65777W        W30762   7.289  21.340  14.401
65778W        W30763  26.902   9.740   0.694
65779W        W30764  23.732  36.637   1.628
65780W        W30765   5.782  26.517   2.982
65781W        W30766   9.768  40.465  14.295
65782W        W30767  43.455  29.707  11.877
65783W        W30768  35.886  15.056   0.505
65784W        W30769   7.642  23.047  12.428
65785W        W30770  11.262   7.853  11.172
65786W        W30771   8.288   0.777   3.510
65787W        W30772   1.370  32.566  14.463
65788W        W30773   0.295   1.909   3.072
65789W        W30774   3.652  13.161   2.958
65790W        W30775  22.652  34.872  12.860
65791W        W30776  44.405  28.670   1.489
65792W        W30777  31.366  30.078  11.620
65793W        W30778   6.498  27.924   4.184
65794W        W30779  32.885   1.553  11.121
65795W        W30780  14.325  22.194  14.034
65796W        W30781  41.745  37.878   3.734
65797W        W30782  24.464  38.307  11.167
65798W        W30783   5.988  38.607  10.654
65799W        W30784   5.755  22.233   3.318
65800W        W30785   2.282  21.031   1.349
65801W        W30786  13.588   7.401  12.786
65802W        W30787  18.483   2.881  13.258
65803W        W30788  44.293  36.431   3.191
65804W        W30789   5.817   5.624   3.401
65805W        W30790  19.567  21.167   0.340
65806W        W30791  19.259  26.650   4.628
65807W        W30792   9.420  20.831   4.306
65808W        W30793  14.728  12.775   4.696
65809W        W30794  21.436  12.423  14.581
65810W        W30795  37.951  40.358  11.043
65811W        W30796  28.079  38.918  14.793
65812W        W30797  37.051  34.944  13.944
65813W        W30798  22.126  35.283  13.832
65814W        W30799   1.915  41.376  10.978
65815W        W30800   2.247  32.021  13.684
65816W        W30801   2.458  27.028  14.008
65817W        W30802   3.585  12.877  12.546
65818W        W30803   4.698  10.945  10.295
65819W        W30804  37.218  27.894   1.882
65820W        W30805  43.303  29.356   4.795
65821W        W30806  15.637  40.807   3.599
65822W        W30807   8.252  31.521   0.903
65823W        W30808   0.027   7.353   1.666
65824W        W30809   2.856   7.869   1.953
65825W        W30810  20.107  16.226   1.644
65826W        W30811  34.103  35.637  12.912
65827W        W30812   8.762   9.389   4.345
65828W        W30813  19.655   0.499   0.282
65829W        W30814   4.525   2.095  10.602
65830W        W30815  29.260  44.392  13.630
65831W        W30816  28.036  23.000   9.955
65832W        W30817  28.031   8.967   1.294
65833W        W30818   9.128  14.077   1.718
65834W        W30819  39.764  10.516   0.814
65835W        W30820  44.773  30.702  11.119
65836W        W30821   3.488  32.996   4.131
65837W        W30822   0.141  20.677  10.900
65838W        W30823   5.890  21.485   3.489
65839W        W30824   9.634  40.532  12.995
65840W        W30825   1.901  32.410   0.455
65841W        W30826  13.678  35.914  13.952
65842W        W30827  17.091  34.489   1.366
65843W        W30828   9.885   1.515   1.272
65844W        W30829   3.183  20.920  11.087
65845W        W30830  23.021   7.086  10.797
65846W        W30831  38.383  14.998   2.383
65847W        W30832  27.648  39.940  11.926
65848W        W30833  27.021   2.754   2.298
65849W        W30834  19.311  37.436   4.712
65850W        W30835  34.304  10.283   4.504
65851W        W30836   0.308  19.781   0.316
65852W        W30837   0.060  34.939  11.569
65853W        W30838  36.456  28.197  12.495
65854W        W30839  29.104  19.238  13.021
65855W        W30840  29.296  18.044   3.474
65856W        W30841  31.026  39.371  13.992
65857W        W30842   2.372   6.887   0.449
65858W        W30843   4.409  21.645   1.277
65859W        W30844  44.369   7.730  14.324
65860W        W30845  25.752  26.001   2.709
65861W        W30846   0.531  19.153   5.028
65862W        W30847   2.762  16.877   4.676
65863W        W30848  20.626  11.530  10.952
65864W        W30849   1.344  28.689   0.656
65865W        W30850   5.697   2.869  11.119
65866W        W30851  25.706  26.862  10.179
65867W        W30852  13.341   2.996  11.610
65868W        W30853  20.198  26.222   0.239
65869W        W30854  23.502  36.830   3.842
65870W        W30855  11.170  13.365   0.729
65871W        W30856  10.666  28.141  14.046
65872W        W30857   9.280  41.849  11.973
65873W        W30858  26.220  20.676  12.325
65874W        W30859  12.899  28.608  14.315
65875W        W30860  32.577  29.480   0.978
65876W        W30861   0.871  39.007   2.714
65877W        W30862  18.754  43.735  14.548
65878W        W30863  20.957  37.051   2.717
65879W        W30864  44.384  26.942  10.229
65880W        W30865  41.065  37.443   2.567
65881W        W30866   9.298  38.840  13.687
65882W        W30867  42.174  36.454   1.624
65883W        W30868  10.699  37.444  14.572
65884W        W30869  27.018   5.548  13.982
65885W        W30870  12.063  21.044  11.414
65886W        W30871  23.483  23.168  12.018
65887W        W30872  36.429  26.843  11.004
65888W        W30873  10.084  40.318  11.203
65889W        W30874  13.329  14.048   3.698
65890W        W30875   8.218  10.664  14.750
65891W        W30876   8.630  11.865   1.755
65892W        W30877  27.729  35.993  11.603
65893W        W30878  38.160  29.461   0.740
65894W        W30879  30.518  44.412   3.316
65895W        W30880   5.439  13.404   1.393
65896W        W30881  16.777  16.056  12.114
65897W        W30882  43.547  19.592   3.656
65898W        W30883  38.900   3.612  14.439
65899W        W30884  38.224  18.948   0.776
65900W        W30885  22.159   5.100   0.782
65901W        W30886  30.175   2.738  13.199
65902W        W30887  10.666  26.361   3.327
65903W        W30888  41.781  38.934  10.708
65904W        W30889  27.139  23.184  10.860
65905W        W30890  35.500  38.265   0.883
65906W        W30891  36.463  44.929  14.453
65907W        W30892   7.826   8.132  14.768
65908W        W30893  20.100  17.198   4.661
65909W        W30894  12.221  24.041  11.653
65910W        W30895   5.534  27.602   2.026
65911W        W30896  35.983  19.560  13.795
65912W        W30897  22.770  40.400  13.359
65913W        W30898  11.364  39.305  10.235
65914W        W30899   0.329  38.360  10.614
65915W        W30900   7.397  26.077  10.641
65916W        W30901  28.596  42.489  12.269
65917W        W30902  25.958  44.937  11.202
65918W        W30903  43.093  32.849   1.912
65919W        W30904  36.561  34.595   4.303
65920W        W30905  30.460   6.614  13.941
65921W        W30906  25.125  38.262  14.245
65922W        W30907  23.485  43.065   1.331
65923W        W30908  30.222  40.244   4.070
65924W        W30909  37.987  15.428   4.110
65925W        W30910  30.204  12.331   1.407
65926W        W30911   9.968  41.824   2.243
65927W        W30912  38.982  11.859   0.987
65928W        W30913  41.339  36.484   0.301
65929W        W30914  28.621  26.390   4.818
65930W        W30915  20.185  22.063   1.008
65931W        W30916  33.824  13.668   0.245
65932W        W30917  35.632  38.512   2.256
65933W        W30918  34.308   0.179   4.860
65934W        W30919  40.394  32.256  14.753
65935W        W30920  30.990   0.477  11.090
65936W        W30921   0.228  17.613   1.811
65937W        W30922  40.477  40.156  11.607
65938W        W30923   1.814  23.546  13.321
65939W        W30924  29.569  18.059  11.974
65940W        W30925   8.146  37.422   2.225
65941W        W30926   6.991  40.786   3.291
65942W        W30927  18.675  11.217  12.498
65943W        W30928  12.224  43.345   1.429
65944W        W30929  43.431   5.950  11.997
65945W        W30930  33.630  19.787  10.777
65946W        W30931  11.287  35.567  12.997
65947W        W30932  32.101  18.446   4.454
65948W        W30933   8.214  35.054   3.341
65949W        W30934  43.894  11.372  14.816
65950W        W30935  38.551  17.843   2.164
65951W        W30936  37.177  38.677  13.648
65952W        W30937  32.926  34.089   3.519
65953W        W30938  38.782   5.815   4.336
65954W        W30939   6.940   9.879   3.193
65955W        W30940  31.071  17.194  11.593
65956W        W30941  12.813   7.452   0.293
65957W        W30942  14.164  13.763   0.310
65958W        W30943  32.353  25.035   1.424
65959W        W30944  33.943  24.498  11.500
65960W        W30945  35.419  28.566   1.913
65961W        W30946  12.403   2.614  11.551
65962W        W30947   0.781   0.058  11.512
65963W        W30948   3.593  26.236  12.975
65964W        W30949  25.881  28.627   3.359
65965W        W30950  42.531  43.319   3.572
65966W        W30951   9.735  31.042  14.543
65967W        W30952  19.808  18.770  13.997
65968W        W30953  42.289   6.846  13.037
65969W        W30954  11.839   0.454   4.060
65970W        W30955  13.654   9.143  10.925
65971W        W30956  28.100  10.104  14.319
65972W        W30957  15.042  14.230  12.426
65973W        W30958  10.661  13.843   1.794
65974W        W30959   6.493  14.540   0.531
65975W        W30960   5.517  14.330  11.147
65976W        W30961   0.984  27.013  13.007
65977W        W30962  25.195  32.444  14.429
65978W        W30963  23.128  37.588   3.651
65979W        W30964   0.499  29.565   4.215
65980W        W30965  25.963   6.364   0.991
65981W        W30966  31.589  38.332  12.116
65982W        W30967   2.929   9.339   0.820
65983W        W30968   0.320  28.928  10.669
65984W        W30969   3.271  42.353  12.087
65985W        W30970  37.114  36.430  10.949
65986W        W30971   6.730   2.906   2.414
65987W        W30972  10.852  17.837   1.728
65988W        W30973  31.461  16.828   0.357
65989W        W30974  19.289  10.801   4.873
65990W        W30975  34.073   4.681  10.932
65991W        W30976  43.982  25.751   4.151
65992W        W30977  14.261  20.229   2.252
65993W        W30978  20.144  37.292  11.630
65994W        W30979  40.050   6.636  12.467
65995W        W30980  26.638  20.527  11.271
65996W        W30981   5.203   6.726   0.300
65997W        W30982   4.456  28.071  13.921
65998W        W30983   8.302  44.408   4.122
65999W        W30984  32.360  18.537  11.671
66000W        W30985  14.589  44.905  12.187
66001W        W30986  37.529  12.783  13.844
66002W        W30987  21.181  43.222   3.618
66003W        W30988  13.204  18.648  11.510
66004W        W30989  34.127  12.754   3.467
66005W        W30990   7.724  32.559   4.225
66006W        W30991  38.060  13.647   4.735
66007W        W30992  24.498  23.124   2.166
66008W        W30993  38.859  41.270  10.783
66009W        W30994   4.361  25.227  14.813
66010W        W30995  18.821  27.876  11.373
66011W        W30996  35.431  42.411   0.332
66012W        W30997  40.935  36.912   1.779
66013W        W30998  13.503   4.021   3.060
66014W        W30999  32.064  34.720   2.322
66015W        W31000  34.663  18.747   0.059
66016W        W31001  43.376   9.395  10.645
66017W        W31002  29.766  39.222  10.684
66018W        W31003  36.785  44.249   1.253
66019W        W31004  24.691  38.459  14.492
66020W        W31005   8.629  13.314   2.806
66021W        W31006  37.973  21.861  14.804
66022W        W31007  12.130  15.101  13.456
66023W        W31008  39.071  25.528   2.255
66024W        W31009  30.568  22.876   2.134
66025W        W31010  11.045  34.337  12.565
66026W        W31011  23.019  26.631   4.529
66027W        W31012  29.827  36.858   4.675
66028W        W31013  37.970  16.876   4.091
66029W        W31014  24.148  36.565  10.955
66030W        W31015  30.446  14.895   3.371
66031W        W31016  19.685  20.518  14.712
66032W        W31017   1.373  23.087   1.794
66033W        W31018   6.743  24.468   3.080
66034W        W31019  39.830   6.234  10.657
66035W        W31020  36.613  20.503  14.762
66036W        W31021  28.240   4.888   4.490
66037W        W31022  38.333  10.018   0.385
66038W        W31023  24.247  32.439   3.996
66039W        W31024  12.726  18.054  14.400
66040W        W31025  40.956  22.959  14.779
66041W        W31026  24.277  18.334   2.835
66042W        W31027  17.974   5.889  12.499
66043W        W31028  25.489  12.736   2.364
66044W        W31029   6.871  19.744   2.408
66045W        W31030  18.599   0.189   2.896
66046W        W31031  26.961  34.956  11.291
66047W        W31032  25.953  18.088   1.510
66048W        W31033  41.544   8.768   0.840
66049W        W31034   3.167  43.264  12.883
66050W        W31035  17.841  13.606   1.403
66051W        W31036   6.863  31.066  14.755
66052W        W31037   4.360  17.768  10.960
66053W        W31038  36.500  21.955  14.398
66054W        W31039  33.816   7.907   1.242
66055W        W31040   8.991  26.430   2.214
66056W        W31041  27.136   0.770  14.292
66057W        W31042  35.676  33.026  12.170
66058W        W31043  28.349  15.095  14.006
66059W        W31044  37.295  21.232   4.088
66060W        W31045  41.315  34.919  14.827
66061W        W31046   4.878  31.648   1.340
66062W        W31047  24.677  29.936  12.596
66063W        W31048   4.064  32.573   4.854
66064W        W31049  26.988   9.739   1.710
66065W        W31050   9.117  15.823   3.157
66066W        W31051  19.629  25.934   4.217
66067W        W31052  26.142  25.575  10.568
66068W        W31053  10.620   2.713  14.489
66069W        W31054  13.044  14.769  14.848
66070W        W31055  38.041  17.846   2.272
66071W        W31056  28.172  43.964   2.658
66072W        W31057   9.584  25.199  14.964
66073W        W31058  35.879  43.416   0.009
66074W        W31059   0.955  22.151  12.600
66075W        W31060  37.150   9.779  10.511
66076W        W31061  30.545  12.242  11.572
66077W        W31062  44.403  34.061   0.333
66078W        W31063  11.814  36.720   3.103
66079W        W31064  23.113   3.616   2.297
66080W        W31065  16.043   4.380  13.506
66081W        W31066  12.162  17.712   1.371
66082W        W31067  29.605  10.799   4.751
66083W        W31068   8.343  12.363   4.289
66084W        W31069  13.233  10.902  14.095
66085W        W31070  27.578  43.015   0.335
66086W        W31071   1.153  23.220  10.415
66087W        W31072  34.538  13.131   1.910
66088W        W31073   6.279  39.809  12.029
66089W        W31074  28.344  39.402   2.557
66090W        W31075  14.102   6.370   3.398
66091W        W31076  11.420   4.709  13.411
66092W        W31077  18.641  44.007   3.711
66093W        W31078  32.958  15.071  12.157
66094W        W31079  29.535  16.540  13.104
66095W        W31080  20.552  37.356  14.927
66096W        W31081  31.678  18.551   1.028
66097W        W31082  42.001  10.638   0.903
66098W        W31083  33.865   7.685   2.333
66099W        W31084  22.129  36.855   0.723
66100W        W31085  22.702  23.506  11.660
66101W        W31086  44.083  42.980  13.497
66102W        W31087  37.258  13.515  14.233
66103W        W31088  23.215  27.454  13.860
66104W        W31089  29.079   4.983   0.345
66105W        W31090  33.404   4.299  10.828
66106W        W31091   9.405   6.850   1.985
66107W        W31092   3.716  40.030  12.972
66108W        W31093  40.206   2.447   2.962
66109W        W31094  19.763   2.283  13.969
66110W        W31095  26.535  12.079   1.861
66111W        W31096  44.771  18.174   3.534
66112W        W31097  12.783  33.363   3.265
66113W        W31098  24.606   7.934  11.608
66114W        W31099  12.740  29.073   5.263
66115W        W31100  20.804  28.173   4.113
66116W        W31101   6.918  26.146  11.889
66117W        W31102  36.093  35.807   1.343
66118W        W31103  12.816  11.993   1.105
66119W        W31104   8.107  29.565  11.079
66120W        W31105   6.397  16.205   3.393
66121W        W31106  16.622   6.467  13.386
66122W        W31107  29.880  42.173  11.667
66123W        W31108  42.429  31.719  11.628
66124W        W31109  42.794   4.813   4.122
66125W        W31110   2.490  18.478   2.129
66126W        W31111  13.330  39.509  11.201
66127W        W31112  27.518  39.942  12.854
66128W        W31113  27.735  26.996  13.519
66129W        W31114  23.753  44.234  12.512
66130W        W31115   3.804  14.006  11.210
66131W        W31116   7.217  35.949   2.277
66132W        W31117  32.579   9.318   2.204
66133W        W31118  13.647  10.156  14.319
66134W        W31119   8.300  36.007  13.854
66135W        W31120  29.072  38.327   1.326
66136W        W31121  39.986  10.363  13.954
66137W        W31122  25.766  41.208  10.100
66138W        W31123  14.443  29.576   1.933
66139W        W31124  43.918  40.759   0.168
66140W        W31125  12.153  13.605  14.522
66141W        W31126   0.781  27.864  11.197
66142W        W31127   9.206  12.351  12.503
66143W        W31128   4.515  31.376  14.753
66144W        W31129  36.409  35.518   4.433
66145W        W31130  22.128  40.552   4.367
66146W        W31131  29.414   7.453  13.745
66147W        W31132  23.273  15.807   1.276
66148W        W31133  17.365  41.446   1.300
66149W        W31134  15.813  25.716  12.985
66150W        W31135   6.821  24.494  14.532
66151W        W31136  29.221   4.471  11.016
66152W        W31137  25.204   3.421   2.392
66153W        W31138  27.635   1.346  12.439
66154W        W31139  32.656   0.059  12.395
66155W        W31140  16.728   3.492   0.657
66156W        W31141  37.810   8.635  11.703
66157W        W31142  28.338  21.175  12.528
66158W        W31143   5.463  33.745   4.522
66159W        W31144  39.093  23.590   1.378
66160W        W31145  18.778  34.638   0.886
66161W        W31146  20.717   7.794   3.247
66162W        W31147   1.978  41.740  13.854
66163W        W31148   9.718  21.686   3.696
66164W        W31149  25.448   7.833  14.102
66165W        W31150  33.556  25.706   4.942
66166W        W31151  18.323  12.830   3.291
66167W        W31152  32.366  34.839  11.550
66168W        W31153  29.576  40.313  11.219
66169W        W31154  11.643  36.619  11.277
66170W        W31155  17.701  26.160   3.522
66171W        W31156   8.318  26.484   1.804
66172W        W31157  31.376  27.898   4.542
66173W        W31158   4.916   1.280   3.096
66174W        W31159   2.526  36.947  12.115
66175W        W31160  41.964  32.910   1.180
66176W        W31161  23.157  10.786  13.828
66177W        W31162   5.965  20.137   1.288
66178W        W31163  13.092  42.257   3.608
66179W        W31164  29.137  16.110   4.910
66180W        W31165  29.686  24.900   4.929
66181W        W31166  23.626  21.530   1.968
66182W        W31167  40.604  26.605   3.676
66183W        W31168  44.893   2.685  10.663
66184W        W31169  31.037  43.769  12.515
66185W        W31170  39.610  24.615   2.442
66186W        W31171  35.416  29.141  12.350
66187W        W31172  41.702   2.471   1.268
66188W        W31173   6.950   6.749   3.400
66189W        W31174   2.350   7.364   2.838
66190W        W31175  11.887   9.744   4.238
66191W        W31176  30.722  28.128   2.758
66192W        W31177  28.464   6.640  11.155
66193W        W31178   1.328   6.374   3.271
66194W        W31179  24.593  43.983  12.603
66195W        W31180  19.459   5.511  12.834
66196W        W31181  17.911  36.907  13.502
66197W        W31182  17.947  31.183   3.132
66198W        W31183  10.115  27.143  14.927
66199W        W31184   4.684   9.631  12.997
66200W        W31185  37.113  24.295  12.801
66201W        W31186  43.248  34.963  14.432
66202W        W31187  44.038  44.710  13.722
66203W        W31188   5.409  41.601   3.223
66204W        W31189   6.960  31.248   4.203
66205W        W31190   8.413  13.614   2.165
66206W        W31191  16.879  43.338   2.182
66207W        W31192  33.063  39.786  11.485
66208W        W31193  40.909  25.286   3.554
66209W        W31194  41.035  10.700  12.577
66210W        W31195  23.270  22.566   4.281
66211W        W31196  42.078   4.862  12.455
66212W        W31197   4.982  44.697  11.929
66213W        W31198  26.976  41.921   4.739
66214W        W31199  19.695  16.007  14.947
66215W        W31200  27.581  31.635  12.923
66216W        W31201   5.178   1.172  11.204
66217W        W31202  18.832  10.623   1.292
66218W        W31203  34.037  43.670   1.457
66219W        W31204  11.749   9.783   3.540
66220W        W31205   5.371  22.624  12.659
66221W        W31206  44.298   8.900   0.849
66222W        W31207   6.316  39.570  13.719
66223W        W31208  27.724  14.906   3.607
66224W        W31209  18.204  15.793  12.190
66225W        W31210  32.613   7.469  12.882
66226W        W31211  21.746   2.302   4.106
66227W        W31212  34.493   1.860   0.833
66228W        W31213  20.962  11.166  11.229
66229W        W31214  26.475  39.770   2.141
66230W        W31215  12.733  16.229  12.030
66231W        W31216   2.049  29.944   4.938
66232W        W31217  39.509   9.637  14.403
66233W        W31218  14.858  20.790  14.922
66234W        W31219  43.834  37.322   1.797
66235W        W31220   8.788  17.513   4.193
66236W        W31221  29.815  38.361   3.714
66237W        W31222  13.228   1.415  13.528
66238W        W31223  25.903  19.039   4.091
66239W        W31224  31.037  13.701   1.904
66240W        W31225  12.919   9.388  11.068
66241W        W31226  37.886  13.029  13.556
66242W        W31227  38.443   9.882  13.053
66243W        W31228  21.624  14.796  13.795
66244W        W31229  22.400  18.571   3.720
66245W        W31230  21.159  44.102   0.267
66246W        W31231   8.111  12.465   1.211
66247W        W31232  41.937  44.730  12.948
66248W        W31233  19.050  44.189  12.002
66249W        W31234  38.071  18.483   0.890
66250W        W31235  39.072   2.295  14.786
66251W        W31236  42.051  28.762   3.267
66252W        W31237  30.773  44.200   0.434
66253W        W31238  34.623  26.362  14.610
66254W        W31239  13.112  11.439   2.901
66255W        W31240  32.933   7.430   1.290
66256W        W31241   6.142   8.858   1.551
66257W        W31242  34.182  23.462   1.382
66258W        W31243  39.387   4.765   1.783
66259W        W31244  28.527  17.675  11.877
66260W        W31245   0.020  38.884   2.667
66261W        W31246  10.386  10.586   1.333
66262W        W31247  35.954  11.237  11.640
66263W        W31248  44.248   1.893  12.978
66264W        W31249  20.606   0.627   3.426
66265W        W31250  34.938  13.295   4.310
66266W        W31251  34.509  29.392  11.903
66267W        W31252  18.779  38.616  10.771
66268W        W31253  10.632  10.702   1.784
66269W        W31254  20.303  32.495  12.864
66270W        W31255  38.874  34.916   3.107
66271W        W31256  28.948  24.402  12.394
66272W        W31257   6.442  38.923   3.233
66273W        W31258  34.173   6.890   1.666
66274W        W31259  38.485  22.464  14.611
66275W        W31260   4.256  21.681   2.290
66276W        W31261  41.784  40.371   4.043
66277W        W31262  43.211  16.118   1.736
66278W        W31263  11.613  43.070   4.912
66279W        W31264  40.618  19.214  12.798
66280W        W31265  34.798  22.079   1.164
66281W        W31266  15.491  37.413  13.069
66282W        W31267  39.832  14.851  13.128
66283W        W31268  42.104  14.681  14.047
66284W        W31269   9.022  23.681  11.255
66285W        W31270  43.854  16.730   9.798
66286W        W31271  38.600  14.193   0.302
66287W        W31272  25.020  17.387   3.013
66288W        W31273  22.133   1.355  13.438
66289W        W31274   4.310   7.938  11.032
66290W        W31275  28.204  43.545  13.539
66291W        W31276  39.305  19.211  11.046
66292W        W31277   6.668  30.093   2.853
66293W        W31278  32.144  22.108   2.635
66294W        W31279  17.065  17.555  14.035
66295W        W31280  15.230   3.159  11.143
66296W        W31281  22.104  17.233  14.480
66297W        W31282  17.182  10.374   4.615
66298W        W31283   3.949   4.172   2.395
66299W        W31284  30.179  15.144   0.826
66300W        W31285   0.756  36.978   9.832
66301W        W31286  27.194  33.003   2.940
66302W        W31287  26.851  23.059  11.455
66303W        W31288  29.403  13.046   0.478
66304W        W31289   5.394  20.457   3.143
66305W        W31290  40.354  22.280   3.312
66306W        W31291   1.427  10.364   2.842
66307W        W31292  30.393  40.686   0.435
66308W        W31293  16.519  25.171   0.985
66309W        W31294  15.704  27.457  13.024
66310W        W31295  34.585   3.839   3.353
66311W        W31296  35.010  15.386  14.467
66312W        W31297  37.516  11.741  11.219
66313W        W31298  15.572  23.475  14.395
66314W        W31299  13.669  14.617   0.468
66315W        W31300  40.518   7.301   3.187
66316W        W31301  11.716   0.825  13.000
66317W        W31302   1.505  19.691  14.357
66318W        W31303  10.618  31.694  11.413
66319W        W31304  15.833  16.125  14.052
66320W        W31305  22.508   7.687   2.209
66321W        W31306  25.772  17.621  11.453
66322W        W31307   8.617  14.575   0.832
66323W        W31308  29.566  28.025  14.849
66324W        W31309   2.475  36.538   2.653
66325W        W31310  20.483  24.295  11.527
66326W        W31311  11.607  42.303  12.012
66327W        W31312   0.204  38.093   1.255
66328W        W31313  22.092  36.745   1.764
66329W        W31314  29.489  15.695   1.118
66330W        W31315  38.303  22.564   0.739
66331W        W31316  18.381  14.531   2.634
66332W        W31317   2.350  29.699   4.600
66333W        W31318  32.424  11.863  14.865
66334W        W31319  15.027  18.704   4.950
66335W        W31320  33.648  44.951  13.207
66336W        W31321  41.940  41.376   0.683
66337W        W31322   7.738  25.147  13.467
66338W        W31323  25.833  28.605   3.856
66339W        W31324  22.246  35.086  11.532
66340W        W31325  13.648  23.546   0.047
66341W        W31326  29.607  21.675  13.535
66342W        W31327   9.790  10.421  12.391
66343W        W31328  26.537   3.488   0.957
66344W        W31329   3.327  13.918  14.215
66345W        W31330  44.905  36.395   0.488
66346W        W31331  32.902  35.031  14.331
66347W        W31332  19.454  38.166   4.144
66348W        W31333  23.226  44.323   0.432
66349W        W31334   0.387  31.682  14.176
66350W        W31335  36.340  21.435  13.287
66351W        W31336  20.139   4.466  11.104
66352W        W31337  35.710  42.860   4.131
66353W        W31338  23.034  40.337   1.416
66354W        W31339  36.965  11.388   1.463
66355W        W31340  39.365   0.359  13.957
66356W        W31341  44.282   2.006  12.142
66357W        W31342  44.764  25.542   0.441
66358W        W31343  26.357  29.101  12.790
66359W        W31344  34.798  31.634  13.024
66360W        W31345  12.079   9.826   2.504
66361W        W31346  37.001   8.636  10.591
66362W        W31347   2.768  33.370  14.767
66363W        W31348  43.381   4.693   3.229
66364W        W31349  13.963  24.684   1.016
66365W        W31350   4.732  42.462   0.623
66366W        W31351  35.442   2.948  11.216
66367W        W31352   8.731   1.508  12.879
66368W        W31353  35.319   3.198   2.679
66369W        W31354   8.695  31.015  10.910
66370W        W31355  20.069  23.001  12.391
66371W        W31356  29.492  22.623   1.197
66372W        W31357  14.083  18.820   1.879
66373W        W31358  33.707   5.216   0.991
66374W        W31359   2.949  35.050   3.248
66375W        W31360  19.687  31.469  13.270
66376W        W31361  26.502  36.023  11.116
66377W        W31362  23.087  43.720  13.324
66378W        W31363  25.555  17.658  14.007
66379W        W31364  25.987  29.098  10.755
66380W        W31365   8.422  17.955  11.217
66381W        W31366  33.175   7.055   3.276
66382W        W31367  20.215  13.323   2.230
66383W        W31368  22.611  19.626  10.673
66384W        W31369   2.920  23.174  12.952
66385W        W31370  30.546  25.691  13.238
66386W        W31371   7.713  22.408   4.482
66387W        W31372  15.327  33.589  11.058
66388W        W31373  16.176  11.301   4.167
66389W        W31374  30.672  24.719   3.920
66390W        W31375  14.725  17.054   2.820
66391W        W31376  17.927  37.071   3.786
66392W        W31377  32.674  23.435   3.822
66393W        W31378  19.269  29.370   1.815
66394W        W31379  23.673  30.326  14.473
66395W        W31380  38.763  44.449   4.982
66396W        W31381  29.013  12.859   1.058
66397W        W31382   1.718  23.786   1.218
66398W        W31383  32.147  36.606  13.387
66399W        W31384  36.562  27.923  14.398
66400W        W31385  41.211  14.643  12.936
66401W        W31386  14.884  22.110   1.615
66402W        W31387  41.566  39.507  10.909
66403W        W31388  23.349  28.720  14.335
66404W        W31389  21.532   4.117   1.278
66405W        W31390  37.934  34.014  10.934
66406W        W31391  37.363   9.853  14.437
66407W        W31392  13.868  40.403   3.882
66408W        W31393   0.272  13.933   1.450
66409W        W31394   1.805  40.129   4.836
66410W        W31395   6.931  36.318  10.786
66411W        W31396  21.582  29.459   1.497
66412W        W31397   4.761  38.883  14.405
66413W        W31398  16.096   0.296  12.041
66414W        W31399   2.443  39.822   1.122
66415W        W31400  25.747  13.711  14.774
66416W        W31401  41.834  39.321  12.384
66417W        W31402   8.428   1.807   1.720
66418W        W31403  33.087  19.135   0.838
66419W        W31404  28.138  33.387   1.347
66420W        W31405  20.763  13.555   0.783
66421W        W31406  25.454   7.599   0.418
66422W        W31407   3.171  41.278  14.343
66423W        W31408   6.242  37.476  13.197
66424W        W31409  15.664  43.484  11.433
66425W        W31410   6.656  40.786   3.677
66426W        W31411  32.974  23.837  12.721
66427W        W31412  16.627   4.877   1.281
66428W        W31413   6.173  29.442   1.964
66429W        W31414  34.446  21.528   3.205
66430W        W31415  30.388  37.702   4.579
66431W        W31416  27.120  43.980   4.383
66432W        W31417  35.723  11.598   1.317
66433W        W31418  13.393  23.854   2.261
66434W        W31419  38.532  11.745   4.398
66435W        W31420  37.522  44.720   2.685
66436W        W31421  34.155   8.241  14.365
66437W        W31422  24.590   9.771   3.667
66438W        W31423  10.364  12.079  14.428
66439W        W31424   2.129  31.112   1.287
66440W        W31425  12.443  40.085  13.018
66441W        W31426  31.042  28.068  13.948
66442W        W31427  21.474   4.426  14.477
66443W        W31428  13.955  29.064   0.895
66444W        W31429   7.830  23.791  10.660
66445W        W31430  13.558  17.889  13.496
66446W        W31431  41.293  37.601  14.795
66447W        W31432   4.799  39.046   1.455
66448W        W31433  23.196  17.265  10.970
66449W        W31434   7.336  28.255   1.195
66450W        W31435   0.622   2.328   5.112
66451W        W31436   3.662  15.321  11.735
66452W        W31437   1.250  38.573  10.761
66453W        W31438  32.141  14.866   4.540
66454W        W31439  37.132  23.522  10.824
66455W        W31440  10.416  15.803  14.765
66456W        W31441  29.620  32.919  13.420
66457W        W31442  14.733  32.629  13.916
66458W        W31443  31.628  43.005   4.450
66459W        W31444  33.069  14.797   4.873
66460W        W31445  32.719   4.232   1.870
66461W        W31446  38.595  15.966  12.800
66462W        W31447   3.837  25.663   3.907
66463W        W31448   7.149  37.404   3.650
66464W        W31449  12.655  29.242  12.489
66465W        W31450  40.102  37.961   2.972
66466W        W31451   7.897   1.163  12.111
66467W        W31452  37.406  37.760   3.325
66468W        W31453  43.930  25.956   4.614
66469W        W31454  44.536  31.851   4.114
66470W        W31455  14.288  35.620  11.191
66471W        W31456  20.126  17.281   1.681
66472W        W31457   4.935  40.197   3.393
66473W        W31458  35.535  23.797   2.242
66474W        W31459   5.275  37.395  11.570
66475W        W31460  12.189   3.357  11.079
66476W        W31461  28.618  24.276  13.441
66477W        W31462  23.237  23.383  11.165
66478W        W31463   5.375  11.680   1.223
66479W        W31464  18.633   7.380  13.252
66480W        W31465   2.116  23.762  12.949
66481W        W31466  13.746  25.630  11.269
66482W        W31467  18.638   0.516   3.769
66483W        W31468   1.512  31.211   0.408
66484W        W31469  18.513  10.354  11.986
66485W        W31470  37.627  37.044  10.292
66486W        W31471  24.147  25.755  13.029
66487W        W31472  13.003   5.456   0.686
66488W        W31473   8.825   6.882   4.993
66489W        W31474   6.343  37.785   2.733
66490W        W31475  32.531  14.202   2.776
66491W        W31476  29.797  39.378  11.548
66492W        W31477  24.483  38.296   4.242
66493W        W31478  42.203  33.089   3.168
66494W        W31479   6.235  29.832   1.610
66495W        W31480  14.751  31.501   4.385
66496W        W31481   7.630   4.631   1.685
66497W        W31482   2.485  20.524   2.620
66498W        W31483  35.224  29.570   4.269
66499W        W31484  33.332  40.057  10.537
66500W        W31485  43.494   0.927  13.859
66501W        W31486   7.344  16.575  12.878
66502W        W31487  19.867  35.767  14.417
66503W        W31488  13.859   8.760  10.277
66504W        W31489  43.662  41.818   0.409
66505W        W31490   9.897  43.243   4.133
66506W        W31491  35.249  19.164  12.989
66507W        W31492  20.164  20.449   4.559
66508W        W31493  41.321  33.071   3.151
66509W        W31494  25.364  39.712   0.898
66510W        W31495  22.946   7.834  13.759
66511W        W31496  26.657   5.841  13.681
66512W        W31497   3.365  14.777  14.878
66513W        W31498  39.124  10.682  14.687
66514W        W31499  17.128  38.386   3.407
66515W        W31500  13.781  30.816  10.736
66516W        W31501   5.167  26.192   3.809
66517W        W31502  36.546   2.896  11.081
66518W        W31503   3.999  12.789   3.714
66519W        W31504  15.754  11.067  10.237
66520W        W31505  14.868  25.662  14.377
66521W        W31506   2.513  34.697   3.285
66522W        W31507  10.409  30.148   4.681
66523W        W31508  43.929  35.767   1.712
66524W        W31509  35.070  21.996  14.786
66525W        W31510  20.079  23.509  13.373
66526W        W31511   4.880  36.597  11.623
66527W        W31512  21.212  39.519   2.598
66528W        W31513   5.233   0.332   4.546
66529W        W31514  11.123  39.518  14.077
66530W        W31515  42.070  32.633  12.530
66531W        W31516   6.180  42.897   3.507
66532W        W31517  29.695  22.700   1.680
66533W        W31518  19.914   6.368  11.510
66534W        W31519  15.755  38.774   5.023
66535W        W31520  43.546  21.485   2.170
66536W        W31521  26.501  37.578   0.397
66537W        W31522   7.490  13.624   2.434
66538W        W31523  32.393   0.419   2.769
66539W        W31524  17.236  44.542   3.973
66540W        W31525  39.354  25.091   2.306
66541W        W31526  18.602  29.192  14.722
66542W        W31527  25.902  17.265   0.353
66543W        W31528  24.190   3.454  12.606
66544W        W31529   7.717  31.545   1.672
66545W        W31530  35.508  28.004   0.195
66546W        W31531  23.560  14.072  14.051
66547W        W31532  12.704  24.977  13.537
66548W        W31533  21.997  26.710   0.915
66549W        W31534  30.525  16.258  13.568
66550W        W31535   2.202  39.669  12.899
66551W        W31536  40.918  14.588  12.488
66552W        W31537  30.229  10.532  12.921
66553W        W31538  35.610  38.946  11.643
66554W        W31539   7.209  39.563   3.778
66555W        W31540  28.566  30.519   1.956
66556W        W31541  28.970  42.192  12.431
66557W        W31542  16.570  32.068   3.335
66558W        W31543   8.567  35.446   1.591
66559W        W31544  42.601   9.921  13.301
66560W        W31545   2.782  18.686  12.935
66561W        W31546  27.161   8.225  12.092
66562W        W31547  32.913  15.262   0.752
66563W        W31548   8.382  27.458   2.670
66564W        W31549  15.127  26.575  13.926
66565W        W31550  13.229  25.943   2.890
66566W        W31551  16.389  24.971   4.775
66567W        W31552  38.030  39.913  12.495
66568W        W31553  29.835  41.223   3.519
66569W        W31554  42.247  21.550  13.636
66570W        W31555  30.932   1.600  10.081
66571W        W31556  15.040  41.710  12.472
66572W        W31557   4.589  35.304  11.142
66573W        W31558  24.946   7.925  13.170
66574W        W31559  36.346  15.645  14.954
66575W        W31560  41.260  23.149  12.230
66576W        W31561  29.609  40.284  13.391
66577W        W31562  26.465  33.074  10.714
66578W        W31563  42.515  16.649  14.307
66579W        W31564  23.766  14.416   0.935
66580W        W31565  13.604   4.001  13.562
66581W        W31566  37.021  12.388   1.244
66582W        W31567  13.810  13.250  12.924
66583W        W31568  40.304  14.586  13.068
66584W        W31569  34.852   1.585   1.537
66585W        W31570   4.466   7.794   4.316
66586W        W31571   9.283  16.036  13.778
66587W        W31572  28.950  34.798  10.821
66588W        W31573  42.228  20.642   0.494
66589W        W31574  30.012  21.725   0.970
66590W        W31575  37.939  22.656   4.796
66591W        W31576  37.094  38.298  10.676
66592W        W31577  10.780   8.087  14.241
66593W        W31578  30.873  29.026  13.882
66594W        W31579  24.836   3.346  13.032
66595W        W31580  12.237   2.452  13.775
66596W        W31581  11.300  35.563   3.527
66597W        W31582  25.193   4.948  13.351
66598W        W31583   9.753  25.782   1.408
66599W        W31584  22.464   0.832  14.071
66600W        W31585   2.779   4.828   0.338
66601W        W31586  27.559  33.884   2.234
66602W        W31587  33.593  32.395  14.876
66603W        W31588  29.481   1.985   1.310
66604W        W31589   8.864  19.061  10.749
66605W        W31590   0.494   9.178  13.375
66606W        W31591  11.330  29.769   4.866
66607W        W31592  32.463  23.479   1.388
66608W        W31593   0.741  14.874   0.999
66609W        W31594  10.071   1.656   3.751
66610W        W31595  42.394  18.290   1.806
66611W        W31596  22.029  29.824   4.639
66612W        W31597  40.204   7.704  13.901
66613W        W31598   3.854  13.521  11.003
66614W        W31599  37.559  42.483   3.741
66615W        W31600  40.039  24.300   4.840
66616W        W31601  37.805   8.518  14.313
66617W        W31602  18.397  19.660  14.503
66618W        W31603  27.205  39.659  13.371
66619W        W31604  22.570  21.628   1.899
66620W        W31605   1.297   3.669   4.207
66621W        W31606  38.520   6.230   0.549
66622W        W31607  31.918  21.018  11.023
66623W        W31608  39.490   5.875  14.767
66624W        W31609  21.082  28.487   1.147
66625W        W31610  29.136   1.479   3.313
66626W        W31611   3.610  16.837  14.966
66627W        W31612  15.795  21.576   1.758
66628W        W31613  19.379  16.874  12.999
66629W        W31614   1.062   7.651  13.451
66630W        W31615  31.391  36.918   1.339
66631W        W31616  41.451  31.650   4.618
66632W        W31617  32.675  17.713   0.907
66633W        W31618  33.501  16.401   2.114
66634W        W31619  39.091  42.860   0.491
66635W        W31620   5.077  32.043   2.173
66636W        W31621   6.743   2.064   2.822
66637W        W31622  21.068  44.031  13.630
66638W        W31623  34.912  29.907   3.141
66639W        W31624  15.745   1.200  12.089
66640W        W31625  28.061  37.036  14.814
66641W        W31626   0.258  13.649  13.186
66642W        W31627   8.760  27.933   1.499
66643W        W31628  16.566  41.471  12.114
66644W        W31629  17.764  27.627  12.825
66645W        W31630  19.517  20.121  13.442
66646W        W31631  24.164  15.278  14.323
66647W        W31632  25.040   6.937  12.874
66648W        W31633  10.221  28.844  14.493
66649W        W31634  43.676  34.670   4.163
66650W        W31635  17.992   8.598  13.371
66651W        W31636  19.337  27.147  10.202
66652W        W31637  28.647  28.066   3.587
66653W        W31638  23.723   8.200   4.635
66654W        W31639  13.652  38.999   1.440
66655W        W31640  24.255  34.933  13.813
66656W        W31641  26.823  21.287   3.261
66657W        W31642   0.425  24.155  12.926
66658W        W31643  38.815  34.067   0.708
66659W        W31644  18.451  37.566  12.472
66660W        W31645  44.514   0.918  14.735
66661W        W31646  10.785  26.917  13.842
66662W        W31647  44.575   9.713  11.153
66663W        W31648  31.432  22.111   3.383
66664W        W31649  10.188  32.783   5.071
66665W        W31650   6.723  24.048  13.395
66666W        W31651  11.822  14.924  12.595
66667W        W31652  27.165   7.877   4.236
66668W        W31653   5.259  24.735   2.619
66669W        W31654  20.426   0.289  14.285
66670W        W31655  13.693   9.133   2.740
66671W        W31656  23.727  11.617  14.786
66672W        W31657  11.657  12.453   3.015
66673W        W31658  11.800  25.238  13.409
66674W        W31659  10.806  30.937   0.879
66675W        W31660  23.098   2.535  11.227
66676W        W31661  42.772   4.450  13.528
66677W        W31662  29.270  32.023  12.351
66678W        W31663  14.377  24.449  14.569
66679W        W31664  41.827  42.911  11.423
66680W        W31665  27.868  38.352  13.102
66681W        W31666  33.155   5.971   3.130
66682W        W31667  32.781  21.553  12.229
66683W        W31668  43.497   6.327   3.783
66684W        W31669  44.857  11.884  11.966
66685W        W31670  38.008  44.760   4.119
66686W        W31671  16.889  22.148  12.022
66687W        W31672   3.476  42.397  13.449
66688W        W31673  27.962   5.573   4.938
66689W        W31674  15.926   7.813  12.504
66690W        W31675  42.376   0.813   2.434
66691W        W31676  41.915   3.403   2.402
66692W        W31677  18.638   5.489   2.215
66693W        W31678   4.181  21.097  11.527
66694W        W31679   0.507  39.356   3.915
66695W        W31680  40.753  22.628  11.676
66696W        W31681   2.250  18.153  13.456
66697W        W31682  10.823   2.441   1.677
66698W        W31683  19.199  28.935   2.355
66699W        W31684   7.796   6.069  12.544
66700W        W31685  27.608  26.929   2.795
66701W        W31686  42.762  27.692  12.614
66702W        W31687  41.074   2.281  11.592
66703W        W31688   3.632  10.616  13.624
66704W        W31689  10.756   3.256  11.492
66705W        W31690  42.296  36.543   0.722
66706W        W31691  30.387   5.266   4.865
66707W        W31692   5.762   7.685   2.423
66708W        W31693   8.392  40.931   2.301
66709W        W31694  41.920  43.108   1.903
66710W        W31695  24.016   4.647   9.853
66711W        W31696  16.072  28.554   1.836
66712W        W31697  38.873  25.943   0.722
66713W        W31698  43.492   1.730   2.233
66714W        W31699  42.941  30.379   2.303
66715W        W31700   4.406  15.334  11.077
66716W        W31701   5.380   8.796   4.540
66717W        W31702   0.011  38.052   1.763
66718W        W31703  11.305  11.789   4.119
66719W        W31704   1.807  38.751   3.662
66720W        W31705  26.585  19.034  14.282
66721W        W31706   9.939  42.903  13.882
66722W        W31707  31.077  43.063  13.066
66723W        W31708  23.083  29.516   3.262
66724W        W31709  15.853  24.627   3.669
66725W        W31710  11.283  12.963   1.902
66726W        W31711  14.068  35.476  11.651
66727W        W31712  38.603  29.068   2.777
66728W        W31713  21.301   5.427  14.810
66729W        W31714  41.261  26.178  11.196
66730W        W31715  37.526  11.335   0.515
66731W        W31716  28.207  44.964   1.181
66732W        W31717   4.075  12.820  13.897
66733W        W31718  33.609  11.926   2.975
66734W        W31719   0.780  22.502   9.532
66735W        W31720  14.192  33.471   3.842
66736W        W31721  12.395  35.493   2.810
66737W        W31722  16.981  41.828  11.668
66738W        W31723   5.499  19.815  11.960
66739W        W31724   2.926  12.607   0.503
66740W        W31725   8.973  17.724  11.570
66741W        W31726  31.731  17.503  14.831
66742W        W31727  14.891  43.662  10.683
66743W        W31728  24.349  29.512   1.224
66744W        W31729  38.697  28.720   4.535
66745W        W31730  14.466  22.257  14.961
66746W        W31731  36.851   8.059  12.077
66747W        W31732   3.086  37.561   4.112
66748W        W31733  41.201  19.291  14.388
66749W        W31734  26.676  35.773  10.719
66750W        W31735  24.040  36.337   4.619
66751W        W31736  33.173  11.297  14.555
66752W        W31737  42.604   5.553   0.029
66753W        W31738  18.342  25.030  10.442
66754W        W31739   8.826  19.001   0.523
66755W        W31740  27.060  27.468   3.083
66756W        W31741  17.486  22.751   1.193
66757W        W31742  29.637  31.544  14.314
66758W        W31743   6.342   6.171  13.344
66759W        W31744  28.383  20.187  10.722
66760W        W31745  32.342  12.648  13.568
66761W        W31746  44.510   5.917   1.204
66762W        W31747  19.136   1.041  13.287
66763W        W31748   0.347  36.022   4.159
66764W        W31749  35.869  22.462  13.829
66765W        W31750   2.769   5.133  13.506
66766W        W31751   8.593  19.490  11.718
66767W        W31752   8.927  23.974   0.268
66768W        W31753  41.363  37.335  11.310
66769W        W31754  44.332   5.826   3.624
66770W        W31755  35.567  31.470   1.603
66771W        W31756  21.994  36.915   2.711
66772W        W31757  38.620  26.717  12.865
66773W        W31758  35.844  26.997   0.941
66774W        W31759  24.079  23.951  11.256
66775W        W31760  37.144   0.534  14.484
66776W        W31761  40.825  20.753   0.094
66777W        W31762  40.141   3.832   2.818
66778W        W31763  20.615   2.991  10.723
66779W        W31764  33.924  17.994   4.520
66780W        W31765  17.063  19.626   1.912
66781W        W31766  30.439  24.959  14.952
66782W        W31767  17.935   1.586   4.611
66783W        W31768  44.868   1.909   1.965
66784W        W31769  33.841  25.425  10.636
66785W        W31770  31.886  11.966   1.767
66786W        W31771  39.292  16.526   3.178
66787W        W31772  22.302  28.598  14.301
66788W        W31773   0.354   1.872   2.161
66789W        W31774  43.724  32.235   4.065
66790W        W31775  22.012  44.009  13.445
66791W        W31776  15.611  35.318   1.885
66792W        W31777  37.382   5.697   4.541
66793W        W31778  19.726   6.419  13.998
66794W        W31779  10.596  17.165   2.276
66795W        W31780  14.544  17.487  14.357
66796W        W31781  33.369  42.866  13.750
66797W        W31782   8.492  33.084   0.279
66798W        W31783  42.327  33.981  14.845
66799W        W31784  40.821  33.330   9.740
66800W        W31785   9.315  16.096  12.916
66801W        W31786  20.728  25.108   1.456
66802W        W31787  15.341  42.861   0.271
66803W        W31788  35.396  43.201   3.187
66804W        W31789  17.852  23.503  12.039
66805W        W31790   9.234  20.029  11.959
66806W        W31791  11.154  14.612   2.504
66807W        W31792  31.485  40.679  12.071
66808W        W31793   3.012   7.459  13.944
66809W        W31794  38.837  40.580   1.882
66810W        W31795   1.035   5.245  12.432
66811W        W31796  12.765  29.650   2.200
66812W        W31797  22.758  24.659   0.614
66813W        W31798   9.500  25.494  12.042
66814W        W31799  20.082  26.843   1.694
66815W        W31800  11.634  40.535   2.202
66816W        W31801  15.198  41.561  10.555
66817W        W31802  33.639  31.988   1.824
66818W        W31803  30.707  23.054   4.846
66819W        W31804  34.968  27.364   0.277
66820W        W31805  15.076  19.767   2.239
66821W        W31806  34.345  40.333   1.827
66822W        W31807  16.426  10.699   0.899
66823W        W31808  11.597  25.410   3.132
66824W        W31809  28.995  23.602  10.667
66825W        W31810  32.450  10.793   2.279
66826W        W31811  16.126  34.085   3.070
66827W        W31812  36.393  41.447  10.941
66828W        W31813  13.266  28.076  11.657
66829W        W31814   6.421  30.614  13.919
66830W        W31815  19.716  12.404   3.842
66831W        W31816  41.347  29.365  10.695
66832W        W31817  35.460   3.941  14.964
66833W        W31818  32.709   5.222   3.092
66834W        W31819   2.959  32.947   4.187
66835W        W31820   2.712  18.702   0.743
66836W        W31821  44.342   7.381   0.728
66837W        W31822  28.389  28.671   2.162
66838W        W31823  30.388  37.450  13.055
66839W        W31824  28.271   2.944  12.021
66840W        W31825  20.481  42.375  11.606
66841W        W31826  15.333  10.459  13.379
66842W        W31827  35.162   1.284  10.761
66843W        W31828  10.393  30.585  14.039
66844W        W31829  36.421  28.166   4.604
66845W        W31830   8.110   8.236   1.865
66846W        W31831  12.257  24.636   2.474
66847W        W31832  27.467  32.218   4.326
66848W        W31833  13.764  40.119  13.452
66849W        W31834  34.816  34.615   1.801
66850W        W31835   4.150  24.761  11.135
66851W        W31836  36.252   4.624  14.429
66852W        W31837   0.618  24.723   2.775
66853W        W31838   9.355   1.796  11.300
66854W        W31839   1.847  21.597   0.230
66855W        W31840   6.428  20.744   4.689
66856W        W31841  33.680  35.436  12.701
66857W        W31842  32.206  37.058  14.204
66858W        W31843  11.255  21.670   3.801
66859W        W31844  17.182   4.282   1.870
66860W        W31845  18.256  23.757  14.710
66861W        W31846  40.725  20.781   4.089
66862W        W31847  32.428   1.340  12.061
66863W        W31848  31.387  22.288  11.470
66864W        W31849   2.532  22.972  13.526
66865W        W31850  27.545  21.086  11.196
66866W        W31851  34.204  27.162  12.022
66867W        W31852  11.772  39.481  11.164
66868W        W31853  25.291  29.727  11.206
66869W        W31854   1.170  36.798  10.531
66870W        W31855   9.168  17.748  12.873
66871W        W31856  17.617   1.909  12.393
66872W        W31857  28.560  28.830  13.715
66873W        W31858  22.147  20.450   4.127
66874W        W31859  26.776  25.644   4.561
66875W        W31860  14.342  27.101  13.779
66876W        W31861  10.750  28.931  13.816
66877W        W31862  42.228  13.790   9.660
66878W        W31863  17.530  24.053  11.205
66879W        W31864  19.338  19.619   3.119
66880W        W31865  27.536  42.904   1.375
66881W        W31866   3.807   0.575  12.950
66882W        W31867   6.916   7.301   1.741
66883W        W31868  44.019  16.065   3.671
66884W        W31869  17.289   0.939   1.206
66885W        W31870  18.797  37.914  12.029
66886W        W31871  36.520  19.939   4.214
66887W        W31872  38.774  18.982  13.269
66888W        W31873  33.210  43.562  12.805
66889W        W31874  41.954  26.444   2.446
66890W        W31875   1.746  28.964   0.827
66891W        W31876  32.910  21.122  11.468
66892W        W31877  38.491   4.892  10.546
66893W        W31878   6.178  25.790   1.161
66894W        W31879  13.270  35.495   3.412
66895W        W31880   5.501  14.769   1.729
66896W        W31881  24.325  37.439  12.556
66897W        W31882  41.794  26.310  11.262
66898W        W31883   4.311  37.716  14.157
66899W        W31884  39.885  30.448   0.023
66900W        W31885   6.399  26.807   0.289
66901W        W31886  30.938   7.061  11.202
66902W        W31887   7.972  19.033  11.235
66903W        W31888  41.376  14.969  13.489
66904W        W31889  41.958  33.544   0.464
66905W        W31890   3.517   8.187  13.745
66906W        W31891  17.515  14.754  12.495
66907W        W31892  28.037  23.460  10.897
66908W        W31893  29.545  28.825   2.694
66909W        W31894   3.235  36.207   4.548
66910W        W31895  18.856   8.833  10.699
66911W        W31896  30.885  37.966  11.569
66912W        W31897  37.596  38.479  11.902
66913W        W31898  43.375  32.955   0.314
66914W        W31899  43.984  41.955  13.740
66915W        W31900  10.171   8.386   3.242
66916W        W31901  23.571  17.739   4.418
66917W        W31902  36.593   1.856  13.838
66918W        W31903  27.077   7.215  11.716
66919W        W31904  44.377  44.246  13.561
66920W        W31905  15.165  24.215   2.177
66921W        W31906  31.169  10.971   2.536
66922W        W31907  36.304  44.737  13.076
66923W        W31908  40.405  11.353  13.687
66924W        W31909   8.616  42.925  13.965
66925W        W31910  34.256  17.166   1.524
66926W        W31911  12.957  26.932   0.769
66927W        W31912  28.690  36.365   2.730
66928W        W31913   2.996  38.352   4.712
66929W        W31914  30.547  23.009   3.842
66930W        W31915  12.532   0.721  13.368
66931W        W31916  20.980  11.697  14.435
66932W        W31917  27.059  18.299   2.232
66933W        W31918  16.795   5.857   4.503
66934W        W31919  37.801  24.518  10.860
66935W        W31920  43.894  37.145  14.377
66936W        W31921  34.385   7.363   1.729
66937W        W31922   1.152  29.152  12.541
66938W        W31923  37.259  12.244   2.832
66939W        W31924   0.414  42.572  12.040
66940W        W31925   1.373   6.357  12.119
66941W        W31926  27.440   1.831  12.347
66942W        W31927  20.162  22.165   3.903
66943W        W31928  40.800   3.892  14.386
66944W        W31929   4.311  30.255  10.393
66945W        W31930  14.914  33.067   1.465
66946W        W31931  10.414  41.799   2.795
66947W        W31932  34.878   6.461   0.425
66948W        W31933  32.456   0.231   1.151
66949W        W31934  22.247   5.541   1.728
66950W        W31935  18.541  24.471   2.826
66951W        W31936  25.695  10.760   1.913
66952W        W31937  31.062  15.623  10.407
66953W        W31938   7.669  33.112  11.022
66954W        W31939  16.429  29.903  14.845
66955W        W31940  44.251  12.383   1.363
66956W        W31941  30.586  43.947  11.510
66957W        W31942   3.678  25.677  13.065
66958W        W31943  21.864   4.308   4.172
66959W        W31944   8.689  17.587   0.357
66960W        W31945  20.710   7.371   0.023
66961W        W31946  35.655  37.911  12.961
66962W        W31947   4.739  21.067  14.978
66963W        W31948  12.871  10.815   3.209
66964W        W31949  34.507  43.063   3.144
66965W        W31950  40.807  10.597  11.236
66966W        W31951  34.659  31.450   3.688
66967W        W31952   8.763  22.650   1.714
66968W        W31953   2.881  24.157   1.987
66969W        W31954  32.856  42.389  13.764
66970W        W31955  15.620  27.441  14.019
66971W        W31956   4.418  33.446  13.459
66972W        W31957  32.171   3.998  12.798
66973W        W31958  28.507  42.226  13.225
66974W        W31959  34.684   4.824   1.896
66975W        W31960  23.876   5.858  11.778
66976W        W31961  11.679  40.282   4.134
66977W        W31962  21.231  34.923   3.120
66978W        W31963  37.166  15.807  13.906
66979W        W31964  11.871  23.292  10.636
66980W        W31965   0.837  20.712   0.724
66981W        W31966  31.495  25.541  12.292
66982W        W31967  28.524  11.826  12.079
66983W        W31968  28.704  18.545   2.884
66984W        W31969  39.723  16.610  11.179
66985W        W31970   9.494   9.655   4.213
66986W        W31971   6.609   2.042  11.751
66987W        W31972  32.673  44.883   0.352
66988W        W31973  27.924  22.727   3.702
66989W        W31974   8.726  32.158   2.738
66990W        W31975  18.560  10.842   0.914
66991W        W31976  29.218  42.380   4.896
66992W        W31977  24.706  17.048   3.772
66993W        W31978  27.629  17.102  12.527
66994W        W31979  10.305   5.420  10.019
66995W        W31980  27.236   7.703  14.880
66996W        W31981   2.353  20.576   4.115
66997W        W31982  41.512  32.719   0.983
66998W        W31983  34.848  38.050  12.386
66999W        W31984  29.555   0.588   3.689
67000W        W31985  11.294  14.183   3.761
67001W        W31986  35.129  16.752   2.787
67002W        W31987  18.192   7.919   3.278
67003W        W31988  20.953   4.534   4.115
67004W        W31989  12.280  31.872  12.124
67005W        W31990  42.854  39.682  14.503
67006W        W31991  16.038  29.909  14.531
67007W        W31992   4.430  30.039   1.421
67008W        W31993   0.728  37.683   2.077
67009W        W31994  30.147  11.871   4.735
67010W        W31995  19.299  44.262  14.750
67011W        W31996  28.444  16.353   2.187
67012W        W31997  34.638   1.860   0.300
67013W        W31998  33.329  23.274   4.763
67014W        W31999  25.098   8.099   2.623
67015W        W32000   7.863  27.060  14.236
67016W        W32001  35.903  42.419   4.377
67017W        W32002   4.207  26.753  14.833
67018W        W32003  19.534   2.592   0.304
67019W        W32004   9.219  24.243  14.264
67020W        W32005  29.519  29.895   9.851
67021W        W32006   6.980  11.649   2.711
67022W        W32007  41.580   6.445  12.582
67023W        W32008  31.383  42.580   1.878
67024W        W32009  44.990  20.776   0.289
67025W        W32010  19.605  38.579  14.047
67026W        W32011  15.218   6.286   2.883
67027W        W32012  31.827  39.878  10.747
67028W        W32013  22.272  15.257   2.445
67029W        W32014  40.474  22.565   1.428
67030W        W32015  19.240  39.449  11.939
67031W        W32016  22.925  33.618   2.729
67032W        W32017  31.102  30.086  14.423
67033W        W32018   8.851  12.984  13.812
67034W        W32019  43.731   5.763  12.538
67035W        W32020  33.801  11.749  10.656
67036W        W32021  14.662  18.654  11.860
67037W        W32022  18.196   2.266   3.650
67038W        W32023   2.413  29.504   0.767
67039W        W32024  36.604  26.019  12.966
67040W        W32025  28.025  43.899  13.860
67041W        W32026  25.434  38.032   4.943
67042W        W32027  34.576   4.219   1.123
67043W        W32028  32.547  27.567  11.361
67044W        W32029   8.419   8.614   1.742
67045W        W32030  27.951  36.975  11.994
67046W        W32031  18.752  33.976   3.914
67047W        W32032  12.152  12.857   2.187
67048W        W32033  32.991   8.759   2.770
67049W        W32034  42.848  14.740   3.208
67050W        W32035  39.629  44.243   4.723
67051W        W32036  14.736  10.388  14.930
67052W        W32037  31.115  31.657   4.748
67053W        W32038  39.897  23.924   4.480
67054W        W32039   0.980  34.104   3.057
67055W        W32040  41.785  22.109   5.456
67056W        W32041  18.246  21.147  10.778
67057W        W32042  42.848  22.100  13.780
67058W        W32043  39.773  39.284   1.266
67059W        W32044  30.433  21.232   2.379
67060W        W32045  44.955  40.622   2.888
67061W        W32046  30.246   8.234   1.010
67062W        W32047  26.797  32.215   0.895
67063W        W32048  26.052  43.017   4.098
67064W        W32049  21.028  22.218  11.237
67065W        W32050  20.783  39.484   2.287
67066W        W32051  26.648  10.204  11.388
67067W        W32052   3.792  43.399   2.556
67068W        W32053  42.075  38.408   2.835
67069W        W32054  11.655  22.567   2.761
67070W        W32055  33.538   9.933   4.253
67071W        W32056   7.827  11.361  12.102
67072W        W32057  40.865  42.580   2.883
67073W        W32058  30.232  13.346  13.401
67074W        W32059  26.140  13.261   2.905
67075W        W32060   9.887  40.582  10.751
67076W        W32061  36.788   6.474  13.443
67077W        W32062  29.938  17.639  11.968
67078W        W32063  33.510  33.337   0.700
67079W        W32064  10.863  14.099   2.793
67080W        W32065  15.807  23.434   3.812
67081W        W32066  18.053  36.045   2.707
67082W        W32067   3.953  15.054   3.074
67083W        W32068  40.413  41.899   1.634
67084W        W32069   1.016  43.645  14.141
67085W        W32070   6.750  37.479   0.787
67086W        W32071   7.702  33.459   0.013
67087W        W32072  40.128   0.451   0.840
67088W        W32073  44.984  14.780  14.391
67089W        W32074   5.382  23.128   1.636
67090W        W32075  38.733  33.033  14.488
67091W        W32076   9.301  29.749   4.649
67092W        W32077  10.717  33.772   1.140
67093W        W32078  35.938  41.239   3.373
67094W        W32079  10.429   0.789   4.823
67095W        W32080  37.605   1.281   0.760
67096W        W32081  38.507  33.022  10.553
67097W        W32082   1.275  31.615   4.504
67098W        W32083  30.871  38.112  10.706
67099W        W32084  29.494   6.543   3.761
67100W        W32085  13.158  29.911   3.931
67101W        W32086  24.423  27.299  14.170
67102W        W32087  40.807  39.344  12.072
67103W        W32088  13.369  23.197  14.799
67104W        W32089  34.631  41.269  11.952
67105W        W32090  22.241  38.872  10.529
67106W        W32091  18.085  26.608   2.538
67107W        W32092   4.136  21.550   0.817
67108W        W32093  34.282   9.210  14.531
67109W        W32094  28.970  12.069  13.116
67110W        W32095   5.971  23.422   1.473
67111W        W32096   2.015  31.749   4.164
67112W        W32097  20.059   1.764   2.370
67113W        W32098  42.600  43.232  13.449
67114W        W32099  16.803  33.623  12.969
67115W        W32100  27.680  29.331   3.649
67116W        W32101  39.774  21.484   3.229
67117W        W32102  19.218   6.994  10.318
67118W        W32103  31.356  40.440  11.646
67119W        W32104  20.136  20.710  13.316
67120W        W32105  38.353   3.447  12.445
67121W        W32106  23.962  35.162   4.123
67122W        W32107  34.503  18.747  10.670
67123W        W32108  16.241  41.961  10.968
67124W        W32109   2.365  23.150  12.068
67125W        W32110   1.360   8.481  11.618
67126W        W32111  40.988  38.738   3.141
67127W        W32112  12.681   7.829  11.649
67128W        W32113  32.141  42.979   2.125
67129W        W32114  24.199  38.731   2.231
67130W        W32115  19.365  22.729  11.141
67131W        W32116  30.083  31.637  11.216
67132W        W32117  24.037   8.653   4.131
67133W        W32118   0.340  11.477  14.418
67134W        W32119  13.356  44.999  11.577
67135W        W32120  29.739  15.625   0.233
67136W        W32121  44.396  43.188  13.000
67137W        W32122   9.268  21.080  11.868
67138W        W32123  41.435  35.460   0.979
67139W        W32124  23.760   0.425   2.783
67140W        W32125   6.163  27.036   4.249
67141W        W32126  34.516  34.192  11.133
67142W        W32127  29.804  12.880  13.517
67143W        W32128  24.495   0.942   1.849
67144W        W32129  16.345   3.730   4.492
67145W        W32130  31.912   4.787   3.716
67146W        W32131   4.188   0.378   3.795
67147W        W32132  27.406  35.446   1.711
67148W        W32133   7.996  35.157  11.537
67149W        W32134  18.716  27.470  10.582
67150W        W32135  28.440  29.400   3.332
67151W        W32136   3.710  44.031   0.491
67152W        W32137   5.133  35.545  13.051
67153W        W32138   4.369  19.064   4.471
67154W        W32139  39.939  16.793  12.317
67155W        W32140  11.892  23.030   2.635
67156W        W32141  24.631   4.965  12.416
67157W        W32142   2.707  22.777  10.564
67158W        W32143  34.898  29.732  11.153
67159W        W32144  39.462   0.233   2.740
67160W        W32145  18.553  25.894  14.067
67161W        W32146   5.086  39.365   4.042
67162W        W32147  21.851  17.043   0.991
67163W        W32148  30.519  39.739   4.765
67164W        W32149   0.404  20.960   2.401
67165W        W32150  13.877  40.444   0.145
67166W        W32151  38.827  43.558  14.522
67167W        W32152  12.861  33.623   2.162
67168W        W32153  41.347  12.913   4.086
67169W        W32154  42.223  12.640   0.779
67170W        W32155  23.549  27.228   1.854
67171W        W32156  40.852  26.579   5.401
67172W        W32157  18.287   2.291   1.214
67173W        W32158  34.296  38.594  14.902
67174W        W32159  35.584  36.702   2.222
67175W        W32160  12.357  18.577   0.477
67176W        W32161  42.007  44.978  11.862
67177W        W32162  12.855  43.536   2.198
67178W        W32163   4.331  18.804   1.406
67179W        W32164  29.450   6.625   4.542
67180W        W32165   8.595  28.544   4.619
67181W        W32166   0.783  40.449  10.797
67182W        W32167  37.865   6.839   4.554
67183W        W32168   0.244  33.513   1.767
67184W        W32169  14.774  17.454  13.346
67185W        W32170  18.959  22.650   0.353
67186W        W32171   6.167  31.616   1.332
67187W        W32172  37.065   1.022  13.294
67188W        W32173  38.178   0.598  14.387
67189W        W32174  24.981  29.447  12.118
67190W        W32175  36.270  43.522   2.329
67191W        W32176   3.211  12.963   4.662
67192W        W32177   3.387  26.680   3.839
67193W        W32178  16.182   8.723  12.463
67194W        W32179   1.090  13.656   1.812
67195W        W32180  44.162   3.443  13.538
67196W        W32181  18.637  37.609  10.698
67197W        W32182  20.640  36.617  13.029
67198W        W32183  35.590  39.487  10.839
67199W        W32184  23.119  43.249  14.223
67200W        W32185   9.842   1.659  11.184
67201W        W32186  19.129  17.579   4.105
67202W        W32187  12.831  34.800   1.272
67203W        W32188  43.341   0.301  14.541
67204W        W32189  12.308  18.349  14.514
67205W        W32190  28.769  40.670   2.366
67206W        W32191  43.107   1.499   1.780
67207W        W32192  15.047  17.644  11.625
67208W        W32193  22.579  10.177  10.482
67209W        W32194  39.835  35.364  13.812
67210W        W32195  36.636   5.135   4.548
67211W        W32196   4.923  29.057  11.559
67212W        W32197  30.483   8.784  13.466
67213W        W32198  19.483  41.758   0.777
67214W        W32199  26.638  42.052  11.231
67215W        W32200  42.878  21.808   4.991
67216W        W32201   8.820  33.061   3.656
67217W        W32202  12.386  23.044   2.766
67218W        W32203  41.987  25.438   0.236
67219W        W32204  21.666  43.340   3.824
67220W        W32205   9.095  12.640   1.653
67221W        W32206  17.059  33.934   4.075
67222W        W32207   7.788  26.408   0.482
67223W        W32208  23.239  25.419   3.355
67224W        W32209  25.530  20.607   2.781
67225W        W32210  37.819  25.504   1.713
67226W        W32211  11.750   5.883   3.639
67227W        W32212  28.932  26.165   0.565
67228W        W32213  34.988   0.469  10.364
67229W        W32214   5.160   3.356  13.519
67230W        W32215  44.832  40.105   3.098
67231W        W32216  24.962  28.974  12.780
67232W        W32217  41.491   3.649   1.616
67233W        W32218  15.391  29.631  14.278
67234W        W32219   0.524  43.743  12.377
67235W        W32220  34.425  14.131  14.331
67236W        W32221   1.623  42.314   2.070
67237W        W32222  36.547  17.849   0.990
67238W        W32223  34.963   0.747   4.609
67239W        W32224  18.908  34.213  12.839
67240W        W32225   0.785   0.374   0.777
67241W        W32226  37.930  20.512  14.411
67242W        W32227  35.275   3.379   0.792
67243W        W32228  33.890  37.398  13.699
67244W        W32229  41.967  26.028   2.739
67245W        W32230  30.639  29.212   1.874
67246W        W32231  37.337   2.216   0.809
67247W        W32232   0.003  32.349   3.476
67248W        W32233  21.166  34.883   4.191
67249W        W32234  34.342  27.034   2.161
67250W        W32235  38.816  12.449  14.484
67251W        W32236   2.218  19.235   2.755
67252W        W32237   9.306   9.629  10.943
67253W        W32238  34.924  15.336   1.430
67254W        W32239   7.483  22.630   3.233
67255W        W32240  20.005  31.627   4.367
67256W        W32241  21.624  29.969   4.912
67257W        W32242  14.791   6.900  11.608
67258W        W32243  44.626  32.185  11.539
67259W        W32244  15.200  29.230   2.986
67260W        W32245  34.184  32.558   1.225
67261W        W32246   3.944  37.428   1.055
67262W        W32247   3.944  20.730   1.261
67263W        W32248   2.887  41.468  14.777
67264W        W32249  22.191   1.530  14.347
67265W        W32250   6.939  37.814   3.349
67266W        W32251  40.770  13.738  14.005
67267W        W32252  25.031  27.166   3.079
67268W        W32253  29.958  25.671  12.962
67269W        W32254  31.067  12.880  12.033
67270W        W32255  29.147   2.626  13.869
67271W        W32256  18.041  41.997  13.448
67272W        W32257  32.968  42.238   1.867
67273W        W32258  23.236  34.969   0.405
67274W        W32259  22.239  31.392  12.935
67275W        W32260   6.010  31.456   0.756
67276W        W32261  22.439  33.548   0.494
67277W        W32262  30.932   6.917   4.531
67278W        W32263   1.977  29.543   3.145
67279W        W32264  17.698  20.061  13.110
67280W        W32265  25.489  23.945  11.889
67281W        W32266  23.310  36.556  10.643
67282W        W32267   8.922  30.026  11.909
67283W        W32268  13.860   0.355   2.727
67284W        W32269   5.149   0.238   3.698
67285W        W32270  40.829  36.124   2.773
67286W        W32271   6.119  19.533   1.327
67287W        W32272  21.347  29.689  12.368
67288W        W32273  17.577  29.058   1.338
67289W        W32274  40.592  32.546   3.188
67290W        W32275  25.193  18.315  11.973
67291W        W32276  40.338   0.054   3.307
67292W        W32277  28.410  37.270   1.347
67293W        W32278  41.360  28.084  10.377
67294W        W32279   0.576  34.439   1.986
67295W        W32280   1.868  11.037  12.697
67296W        W32281  23.255  40.176  12.286
67297W        W32282  32.003   6.822  14.495
67298W        W32283  34.155  12.588  12.472
67299W        W32284  43.749  19.135   2.263
67300W        W32285  34.330  15.660   3.630
67301W        W32286   9.352  40.932   0.856
67302W        W32287  20.169  37.578  13.387
67303W        W32288   8.608  24.065   4.132
67304W        W32289   7.898  17.031   2.828
67305W        W32290   1.310  10.791   0.791
67306W        W32291  39.812  12.331  14.221
67307W        W32292  36.384   6.266   2.504
67308W        W32293  15.477  28.869   2.681
67309W        W32294  20.707  42.802   1.322
67310W        W32295   8.871  29.432  10.775
67311W        W32296  13.863   9.249  13.395
67312W        W32297  19.008  12.492   2.197
67313W        W32298  26.753  43.902  13.400
67314W        W32299  43.322   4.761   4.100
67315W        W32300  35.045  26.052   3.724
67316W        W32301  31.379  32.075  14.525
67317W        W32302   5.316  14.596  12.113
67318W        W32303  38.533  31.122  14.108
67319W        W32304  31.621  22.904   1.808
67320W        W32305  27.440  36.092  12.055
67321W        W32306   9.721  33.815  12.163
67322W        W32307  39.872  16.785  13.791
67323W        W32308  37.363   5.244   3.347
67324W        W32309  12.371   1.417  13.960
67325W        W32310   3.106  29.857  14.030
67326W        W32311  25.892  11.356  11.156
67327W        W32312  15.633  35.356  12.374
67328W        W32313   2.898  17.139  11.434
67329W        W32314  12.848  27.704   2.398
67330W        W32315  39.391  40.504   1.366
67331W        W32316  15.746  44.013   9.844
67332W        W32317  15.593  20.929  10.383
67333W        W32318  27.352  25.092  11.158
67334W        W32319  44.031  19.699   3.387
67335W        W32320  42.198   9.742   1.826
67336W        W32321   1.916  18.029   1.762
67337W        W32322   9.696  22.029  12.597
67338W        W32323  21.160  26.344  13.848
67339W        W32324  22.710  11.588   0.529
67340W        W32325  21.094  29.025   4.701
67341W        W32326  24.707  39.902   1.487
67342W        W32327  23.578  36.113   4.589
67343W        W32328   0.015  37.400  13.872
67344W        W32329   1.901  18.059  12.912
67345W        W32330  39.085  38.176   4.401
67346W        W32331  14.846  21.544   2.229
67347W        W32332   6.119  12.755   0.446
67348W        W32333  40.956  28.144  11.184
67349W        W32334  22.501  25.596   3.734
67350W        W32335  21.561  38.316   3.700
67351W        W32336  36.515   0.278   1.770
67352W        W32337  27.032  14.594   2.662
67353W        W32338  27.938  12.212  12.419
67354W        W32339   1.539  26.168   2.815
67355W        W32340  18.572  25.423   2.719
67356W        W32341  31.767  24.779  12.208
67357W        W32342  21.094   7.290   1.230
67358W        W32343  27.256  29.365   0.600
67359W        W32344   5.724  37.421   4.557
67360W        W32345   5.889  20.592  14.078
67361W        W32346  23.478  35.431   3.630
67362W        W32347  16.116   0.736   1.373
67363W        W32348   0.374  11.634   1.273
67364W        W32349  40.654  32.830  12.496
67365W        W32350  43.616  33.508  13.456
67366W        W32351  10.586  30.648  10.658
67367W        W32352  14.798  42.409  13.710
67368W        W32353   5.268   2.448   1.795
67369W        W32354   0.286   7.162  14.854
67370W        W32355  15.522  26.777  11.631
67371W        W32356  27.048  22.321  12.045
67372W        W32357   9.740  42.511   2.841
67373W        W32358  23.635  44.372   3.932
67374W        W32359   0.797  32.894  13.891
67375W        W32360  15.807  22.541   2.179
67376W        W32361   7.954   6.917  14.428
67377W        W32362  43.798  30.487  10.733
67378W        W32363  19.121  26.992  12.384
67379W        W32364  22.388   4.281   1.873
67380W        W32365   1.553  43.422  14.080
67381W        W32366  18.068  27.195  13.007
67382W        W32367  35.569   8.715  13.363
67383W        W32368  17.632  37.128  10.091
67384W        W32369   0.898  14.270  11.224
67385W        W32370   6.754  39.380   4.675
67386W        W32371  12.089  26.259   4.295
67387W        W32372  40.997  32.743  11.614
67388W        W32373  13.805  11.856   4.012
67389W        W32374  21.622  35.378  12.363
67390W        W32375  11.331   4.306   3.157
67391W        W32376  18.247   3.527   4.554
67392W        W32377  20.186   6.424   1.910
67393W        W32378  25.501  13.424   2.582
67394W        W32379  14.989  37.446  12.908
67395W        W32380  21.494  19.074   1.942
67396W        W32381  14.138   4.799   3.741
67397W        W32382  21.959   4.413  12.650
67398W        W32383  10.132  44.229   4.264
67399W        W32384   0.397  17.154  13.353
67400W        W32385  38.942  29.112   3.814
67401W        W32386  37.152  10.858   2.876
67402W        W32387  16.624  32.144  14.432
67403W        W32388  31.466   3.826   0.646
67404W        W32389  14.377  26.209   3.727
67405W        W32390  24.133  39.322  11.651
67406W        W32391  12.047  37.864  13.146
67407W        W32392  28.198  26.440  11.550
67408W        W32393   3.782  16.813  13.340
67409W        W32394  18.782  15.906  14.826
67410W        W32395  35.072  33.807   2.184
67411W        W32396  40.400  44.945   0.899
67412W        W32397  44.276  10.897   4.250
67413W        W32398  26.557  15.846   3.696
67414W        W32399  28.164  14.395   2.409
67415W        W32400  41.527  24.192  11.791
67416W        W32401   3.018  34.005   0.491
67417W        W32402   4.169  43.288  10.672
67418W        W32403  18.758  14.761  13.053
67419W        W32404   8.211  39.479  13.181
67420W        W32405  11.339  17.726   2.897
67421W        W32406   3.213  39.887  12.062
67422W        W32407   6.810  10.356   0.680
67423W        W32408  14.529  32.520  10.687
67424W        W32409  43.544  14.328   3.806
67425W        W32410  33.515  22.856  10.654
67426W        W32411   8.290  33.509  12.157
67427W        W32412  30.506  25.175  13.948
67428W        W32413  23.012  23.491  13.873
67429W        W32414  10.616  22.747  10.728
67430W        W32415  35.226  17.777  13.294
67431W        W32416  17.777  34.933   2.293
67432W        W32417  39.807  30.660   3.325
67433W        W32418  32.228  36.910   1.841
67434W        W32419  26.949  20.857   2.786
67435W        W32420  41.736   4.258  11.557
67436W        W32421  11.821   7.819   2.399
67437W        W32422  25.704  29.486  10.532
67438W        W32423  29.013  15.246   0.443
67439W        W32424  24.330  28.021  12.602
67440W        W32425  15.013   2.806  13.817
67441W        W32426  24.805  40.383   0.844
67442W        W32427   5.224  31.281   1.184
67443W        W32428  24.323  29.560  11.068
67444W        W32429  30.653  17.515   1.225
67445W        W32430  26.579  40.553  13.992
67446W        W32431  41.249  43.111   4.296
67447W        W32432  29.402  16.006  12.101
67448W        W32433  16.710  31.702  11.487
67449W        W32434  21.109  36.906  14.838
67450W        W32435  21.462  23.553  12.542
67451W        W32436  38.237  28.710  12.527
67452W        W32437  22.140  27.650   2.430
67453W        W32438  23.566  19.781   2.709
67454W        W32439   0.358  15.730  12.784
67455W        W32440   0.299  35.361  14.245
67456W        W32441  44.342  12.756  11.617
67457W        W32442  15.465  14.142   0.083
67458W        W32443  32.563  31.162  14.459
67459W        W32444  24.176  41.164  13.323
67460W        W32445  14.186   6.092   5.220
67461W        W32446  35.183  38.890  11.396
67462W        W32447  13.660  39.511   2.799
67463W        W32448  18.098  32.605   2.748
67464W        W32449  24.464  14.319  13.917
67465W        W32450  34.807  21.629  14.074
67466W        W32451  36.928  19.353   4.216
67467W        W32452   9.768  26.924  11.914
67468W        W32453   3.315  22.965   4.965
67469W        W32454   8.237   3.514  11.103
67470W        W32455  14.091  34.032   2.895
67471W        W32456   2.255  35.282  11.488
67472W        W32457  29.547  20.132  11.433
67473W        W32458   7.078  10.426   2.262
67474W        W32459  12.806  40.429   4.840
67475W        W32460  33.949  11.691  11.585
67476W        W32461  12.584  38.956  13.284
67477W        W32462  39.172  25.501   1.402
67478W        W32463  14.816   5.357  12.905
67479W        W32464  42.679  33.840   4.712
67480W        W32465  34.081  42.497   2.283
67481W        W32466   1.163  26.236   4.086
67482W        W32467  18.494   1.785   1.897
67483W        W32468   6.620  37.374   2.167
67484W        W32469   2.783   9.140   0.345
67485W        W32470  39.985   5.400   0.417
67486W        W32471  20.321   6.730  11.076
67487W        W32472  29.467  39.630   3.940
67488W        W32473   9.752   5.504   3.905
67489W        W32474  14.984  44.561   0.638
67490W        W32475  16.816  12.486   2.888
67491W        W32476  14.123  19.721  11.480
67492W        W32477  37.983  10.825  11.118
67493W        W32478  31.320  39.303  13.281
67494W        W32479   6.155  37.417   2.388
67495W        W32480  38.720  34.030   3.118
67496W        W32481  20.783  17.679  13.116
67497W        W32482  34.026   5.001   3.304
67498W        W32483  35.814  44.609   9.956
67499W        W32484   5.938  34.862   5.089
67500W        W32485   2.731  17.235   4.306
67501W        W32486  25.062  24.608  14.325
67502W        W32487  19.705  12.809  13.660
67503W        W32488  17.774  15.952  13.494
67504W        W32489   6.110  21.244   1.699
67505W        W32490  12.213  40.120   0.227
67506W        W32491  33.779  11.370  11.172
67507W        W32492  39.512  29.094  12.113
67508W        W32493  37.365  18.070   2.553
67509W        W32494  16.223  22.430  12.487
67510W        W32495  23.226  23.423  12.959
67511W        W32496   4.222   6.924  14.365
67512W        W32497  12.648  41.345   2.193
67513W        W32498   1.710  43.789   2.892
67514W        W32499  17.213  31.840   2.020
67515W        W32500  21.725  38.792   2.776
67516W        W32501  40.462   3.783  13.473
67517W        W32502  21.619  30.976   1.554
67518W        W32503  31.717   6.698   3.367
67519W        W32504   6.172  33.560  10.346
67520W        W32505  11.935  41.583   3.444
67521W        W32506  24.661  31.352   1.776
67522W        W32507   0.948   6.934   0.331
67523W        W32508  38.788   9.625  12.793
67524W        W32509  26.099   9.232  13.546
67525W        W32510  24.400   4.466  12.359
67526W        W32511   1.558  10.570  12.613
67527W        W32512   9.138  34.805   1.864
67528W        W32513  13.829  17.562   3.728
67529W        W32514   8.915  36.052   2.894
67530W        W32515  28.838  33.319  11.659
67531W        W32516  14.256  10.941  13.004
67532W        W32517  17.278  44.859   4.673
67533W        W32518  29.600  40.465   1.674
67534W        W32519  18.610  32.693   0.421
67535W        W32520   5.277  34.513  13.253
67536W        W32521  26.061  37.283   3.636
67537W        W32522  40.546  16.802  13.905
67538W        W32523  35.165  10.754   0.498
67539W        W32524   4.491  16.885   4.262
67540W        W32525  20.486   5.815   4.694
67541W        W32526  38.433  28.223  12.491
67542W        W32527  43.257  43.956   4.373
67543W        W32528  36.696   5.328  11.131
67544W        W32529  34.889  17.783   2.719
67545W        W32530   2.110  28.036  13.957
67546W        W32531  39.374  18.869  10.672
67547W        W32532  10.549  39.660  11.791
67548W        W32533  13.617  21.681  11.998
67549W        W32534  26.451  19.059   4.164
67550W        W32535  30.908   0.382   1.691
67551W        W32536  14.179   5.271  11.185
67552W        W32537  11.987  11.271  10.375
67553W        W32538  26.277  40.065  12.304
67554W        W32539   5.426   4.953   1.771
67555W        W32540  11.282  39.262   3.245
67556W        W32541  30.807  30.265   0.288
67557W        W32542  32.034  44.923  13.108
67558W        W32543  29.719   1.150   1.002
67559W        W32544   8.731  19.311   0.940
67560W        W32545  17.097  12.556   1.841
67561W        W32546  32.416  20.014  12.957
67562W        W32547  14.168  16.756   1.946
67563W        W32548  30.179  34.171   1.532
67564W        W32549  38.523  16.681   0.282
67565W        W32550  40.702  30.959  11.095
67566W        W32551   4.615  13.480  14.086
67567W        W32552  43.465  17.819  12.013
67568W        W32553  31.368  31.528   3.816
67569W        W32554  27.470  26.572  13.761
67570W        W32555  44.318   7.453  10.817
67571W        W32556  33.667  30.914  13.451
67572W        W32557  34.892  14.207  14.856
67573W        W32558   8.189  16.542  13.709
67574W        W32559  34.564  15.357  14.791
67575W        W32560   0.950  23.962   0.857
67576W        W32561  38.203  27.151  11.372
67577W        W32562  34.439   6.297  10.476
67578W        W32563  32.752  27.459  14.083
67579W        W32564  21.994   8.219   0.892
67580W        W32565  37.753  20.411  13.448
67581W        W32566   5.825  22.019  13.405
67582W        W32567  10.220  33.171  13.582
67583W        W32568  24.542  24.681  11.624
67584W        W32569  42.752  37.076  13.356
67585W        W32570  29.681  20.526   4.408
67586W        W32571  19.994  36.563  14.924
67587W        W32572  39.535  11.685  11.098
67588W        W32573  39.230  10.249  12.525
67589W        W32574  36.067  17.323   0.364
67590W        W32575  29.449  14.113   3.685
67591W        W32576  44.549  33.933   1.494
67592W        W32577  18.612  44.928  11.878
67593W        W32578   9.199  22.165   2.311
67594W        W32579  14.185  13.677   3.711
67595W        W32580   0.786   7.493  13.041
67596W        W32581  25.719  41.536   0.862
67597W        W32582  15.859  13.905   3.157
67598W        W32583  23.161  32.140  14.522
67599W        W32584  44.458  24.218  12.861
67600W        W32585   0.903  21.080  13.636
67601W        W32586  18.652  32.415  13.017
67602W        W32587  33.029  11.148  11.544
67603W        W32588  28.907  43.099  14.127
67604W        W32589  21.892  16.039   1.864
67605W        W32590   1.245  26.044  10.536
67606W        W32591  20.551  40.954  13.463
67607W        W32592  39.075   2.250  14.274
67608W        W32593  19.443  16.497   2.704
67609W        W32594  11.048  30.919  14.528
67610W        W32595  43.319  43.458  12.058
67611W        W32596  18.246   4.160  12.927
67612W        W32597  29.075  24.243   0.357
67613W        W32598  37.499  43.526  13.797
67614W        W32599  16.149  10.586  12.939
67615W        W32600   2.288  22.064  14.006
67616W        W32601  41.943  15.739  12.547
67617W        W32602  25.534  43.805   1.698
67618W        W32603  27.157  23.023  13.368
67619W        W32604  20.702  43.837   0.216
67620W        W32605   8.789  32.552   3.669
67621W        W32606  16.626   9.141  13.541
67622W        W32607   6.291  25.891  11.677
67623W        W32608   1.571   7.824  14.825
67624W        W32609  10.808  18.498   2.242
67625W        W32610  18.501  30.726  11.433
67626W        W32611  30.005  34.020   4.751
67627W        W32612  23.698  21.890  13.308
67628W        W32613  11.388  24.684  14.774
67629W        W32614  11.973   0.042  13.494
67630W        W32615   4.163   8.572   1.186
67631W        W32616  34.457  34.535  13.799
67632W        W32617  11.641  11.949   2.928
67633W        W32618  17.567  39.089   4.642
67634W        W32619  29.203  32.134   1.327
67635W        W32620  13.533  42.737   2.338
67636W        W32621  24.170  36.463   2.566
67637W        W32622  32.963  43.562  10.427
67638W        W32623  43.184  15.868   2.206
67639W        W32624  37.115  41.502   0.393
67640W        W32625  31.130   8.225   9.889
67641W        W32626   4.133   5.672   4.527
67642W        W32627  44.438   0.885   2.873
67643W        W32628  31.382  28.131   3.227
67644W        W32629  24.470  29.981  12.119
67645W        W32630  30.504  25.971  11.932
67646W        W32631   2.112  27.895   4.241
67647W        W32632  28.196  37.456  12.154
67648W        W32633   9.759  39.162   1.690
67649W        W32634   5.332  42.054  14.002
67650W        W32635  43.838  33.444  14.507
67651W        W32636   9.803  38.116   1.680
67652W        W32637  41.057  14.758   4.269
67653W        W32638  27.847   0.705  10.872
67654W        W32639   7.176  30.692   0.326
67655W        W32640  26.200   8.019  11.195
67656W        W32641   7.647   2.168   4.278
67657W        W32642  24.759  32.117   3.749
67658W        W32643  23.467  39.363  13.384
67659W        W32644  20.577  20.349  12.622
67660W        W32645  11.723  20.468  14.917
67661W        W32646   5.258  15.736   3.352
67662W        W32647  39.482  30.790   3.698
67663W        W32648  25.841  23.100  11.269
67664W        W32649  14.879  18.734   1.707
67665W        W32650  13.876  14.119  14.173
67666W        W32651  17.659   3.422   0.431
67667W        W32652  43.836  27.562   2.209
67668W        W32653  39.566   5.492   1.777
67669W        W32654   7.180  21.626  13.425
67670W        W32655  12.252  37.634  12.276
67671W        W32656   3.957  25.313   1.093
67672W        W32657  39.010  23.128  12.576
67673W        W32658  10.021  40.107   1.775
67674W        W32659  22.835  25.544   0.309
67675W        W32660  30.480  21.229   1.026
67676W        W32661  28.581  31.439   0.470
67677W        W32662  31.045   4.658   0.436
67678W        W32663  43.602   1.697   3.308
67679W        W32664   9.633  39.631   3.141
67680W        W32665   7.870  39.078  13.839
67681W        W32666  42.238  16.964   3.740
67682W        W32667  14.684   4.132   2.299
67683W        W32668  11.785  36.152  12.141
67684W        W32669  43.286  23.948   0.745
67685W        W32670  23.215  43.357   2.134
67686W        W32671  32.949  19.946   4.547
67687W        W32672  25.639  13.020   1.645
67688W        W32673  28.263  37.503   0.914
67689W        W32674  19.033  43.697   4.445
67690W        W32675  31.350  38.600   2.679
67691W        W32676  29.950  19.281  10.631
67692W        W32677  13.282  13.706   0.740
67693W        W32678  34.162  11.182   1.856
67694W        W32679  19.788  33.359   5.131
67695W        W32680  13.854  18.688   1.403
67696W        W32681  34.006  28.516  11.585
67697W        W32682   8.380  37.911   2.487
67698W        W32683  19.201  33.477  11.993
67699W        W32684   9.840  40.581   1.747
67700W        W32685  44.226  23.945  12.459
67701W        W32686   1.444  34.746  11.634
67702W        W32687  27.627  11.733  12.544
67703W        W32688  37.071  17.220  14.920
67704W        W32689  29.267   0.950   1.121
67705W        W32690  20.257  12.308   3.738
67706W        W32691  27.039  19.494   1.663
67707W        W32692  38.022  36.029  12.828
67708W        W32693  21.144   1.417   4.660
67709W        W32694   9.536  15.118  14.086
67710W        W32695   8.854  16.557  14.888
67711W        W32696  40.044   4.121   0.712
67712W        W32697   5.579  40.791   2.844
67713W        W32698  30.101   0.645   0.230
67714W        W32699   5.318  31.865  12.803
67715W        W32700  30.193  22.734  13.382
67716W        W32701   4.266  32.768   1.186
67717W        W32702  11.125   2.244  10.444
67718W        W32703  32.341   5.783   4.097
67719W        W32704   8.420  38.486  14.399
67720W        W32705  20.051   7.783   2.786
67721W        W32706  33.595  39.890   4.561
67722W        W32707  40.016   6.722  10.786
67723W        W32708  26.068  41.030  12.480
67724W        W32709  17.098  11.214  12.178
67725W        W32710  37.054  19.867   4.252
67726W        W32711  30.187  13.365  12.410
67727W        W32712  20.137   7.315  10.197
67728W        W32713   1.528   5.437   0.463
67729W        W32714   9.863  18.815   4.870
67730W        W32715  20.047   6.670  12.515
67731W        W32716  14.307   1.397   4.240
67732W        W32717  10.316  42.766   2.881
67733W        W32718   4.933  37.858   3.751
67734W        W32719   1.952  25.896  11.189
67735W        W32720  28.799  22.270   2.842
67736W        W32721  26.446  12.001   0.431
67737W        W32722  16.589   8.341  12.078
67738W        W32723  21.546   5.078   1.272
67739W        W32724  20.514  19.798  12.603
67740W        W32725  13.789  41.851   1.501
67741W        W32726  38.447   5.204   3.160
67742W        W32727  14.268  28.546  13.765
67743W        W32728  35.072  39.956  14.814
67744W        W32729  36.829  25.081  14.037
67745W        W32730  21.044  22.569   4.476
67746W        W32731  15.570  25.137  11.070
67747W        W32732   7.653  15.661  12.582
67748W        W32733  32.065  39.561   3.606
67749W        W32734  19.578   3.964  12.922
67750W        W32735  37.914   3.289   4.078
67751W        W32736  12.858   8.105  11.242
67752W        W32737  25.427  17.364  11.113
67753W        W32738  41.413  34.300  14.274
67754W        W32739  43.986  24.895  12.798
67755W        W32740  30.889  12.363  11.168
67756W        W32741  44.470  13.214  13.144
67757W        W32742   2.833   4.333  11.687
67758W        W32743  43.617  22.310   0.455
67759W        W32744  21.515  23.181  10.996
67760W        W32745   6.955  15.337  14.719
67761W        W32746  40.925   8.362   1.379
67762W        W32747  18.793   5.814   3.134
67763W        W32748  18.181  33.915  14.316
67764W        W32749  25.708  15.511  13.072
67765W        W32750  32.197  31.219  13.091
67766W        W32751  26.543  11.485   4.238
67767W        W32752  23.692  15.740  13.569
67768W        W32753  20.234  30.172   2.191
67769W        W32754  33.955  22.587  13.115
67770W        W32755  11.338  34.365  13.483
67771W        W32756  30.832  40.401   2.897
67772W        W32757  25.973   7.474   4.545
67773W        W32758  26.243  11.732  10.915
67774W        W32759  41.882  19.968  10.285
67775W        W32760  16.130  44.473  13.449
67776W        W32761   7.694  25.384   4.706
67777W        W32762  37.580  15.201  12.056
67778W        W32763   5.163  15.292   2.807
67779W        W32764   2.346  19.712  13.495
67780W        W32765  39.262  28.608  13.905
67781W        W32766  18.609   6.775   0.656
67782W        W32767  42.472  37.557  14.362
67783W        W32768  17.681   1.084  10.777
67784W        W32769   8.454  26.684   1.305
67785W        W32770   5.970   7.338  13.546
67786W        W32771  11.056  23.024  13.434
67787W        W32772  16.537  26.604   4.728
67788W        W32773  20.823  44.530  10.953
67789W        W32774  15.810   9.785   4.650
67790W        W32775  30.893  17.363  12.771
67791W        W32776  36.149  29.438   4.388
67792W        W32777  14.313   4.674  12.915
67793W        W32778  44.181  33.438  14.895
67794W        W32779  39.356  23.091  13.430
67795W        W32780  19.283  33.158  11.576
67796W        W32781  44.735   2.460  10.189
67797W        W32782  16.676   6.496  12.479
67798W        W32783  32.519  40.430   4.905
67799W        W32784  22.756  43.232   4.587
67800W        W32785  32.485  13.232  10.957
67801W        W32786  36.974  44.339  14.446
67802W        W32787  10.636  31.397  13.072
67803W        W32788  29.781   7.176  14.154
67804W        W32789  20.534  30.539  11.004
67805W        W32790  14.816  13.573  13.687
67806W        W32791  23.441   3.458  11.488
67807W        W32792  42.277  20.972   0.042
67808W        W32793  23.129  15.292  14.545
67809W        W32794  33.816  44.308   0.835
67810W        W32795  28.550  43.652   0.784
67811W        W32796  41.032  19.993   1.301
67812W        W32797   2.456  23.202   0.002
67813W        W32798  24.814   7.461   3.219
67814W        W32799   4.057  38.425   2.358
67815W        W32800  21.640   2.860  11.003
67816W        W32801  42.952  42.014   2.230
67817W        W32802  37.698  37.468  11.713
67818W        W32803  43.460  15.075   4.270
67819W        W32804  40.382   7.308   4.641
67820W        W32805   8.784  36.864   2.301
67821W        W32806  37.575  23.161  14.284
67822W        W32807   1.403  10.981  14.897
67823W        W32808  28.278  21.775   1.777
67824W        W32809  18.088  43.758  12.588
67825W        W32810   6.638  33.340  10.576
67826W        W32811  10.841  22.552  13.464
67827W        W32812  41.204   3.357  14.427
67828W        W32813  37.550  40.991   2.857
67829W        W32814   2.479  39.097  11.856
67830W        W32815  36.682  43.675   2.761
67831W        W32816  10.179  30.194   1.279
67832W        W32817   1.403  35.880  10.579
67833W        W32818  11.164  32.032   9.976
67834W        W32819  27.251  12.815  10.769
67835W        W32820   7.754  24.480   3.280
67836W        W32821   8.783  14.221  13.297
67837W        W32822  25.063   3.830  13.389
67838W        W32823  44.881  27.207  12.781
67839W        W32824  33.090  34.148  10.737
67840W        W32825  40.852  14.795  14.733
67841W        W32826   0.374  26.492   1.147
67842W        W32827  32.446   6.284  11.499
67843W        W32828  44.386  21.115  12.434
67844W        W32829  12.857  43.720  12.317
67845W        W32830  18.168  41.804  14.621
67846W        W32831  27.045   0.429   1.770
67847W        W32832  35.621  34.929   2.689
67848W        W32833   5.390  10.171   4.028
67849W        W32834  30.070  43.215  14.793
67850W        W32835  36.689   4.357   2.762
67851W        W32836  16.355  22.860   2.820
67852W        W32837  41.390   9.178   4.282
67853W        W32838  26.169   4.988   4.191
67854W        W32839   9.560   0.428  14.334
67855W        W32840  19.557  17.638   1.280
67856W        W32841   5.208  10.098   1.094
67857W        W32842  21.160   6.270  14.436
67858W        W32843  15.654  11.398  12.068
67859W        W32844  19.413  23.413   3.259
67860W        W32845  21.784  17.234   4.320
67861W        W32846  10.490  26.035   2.064
67862W        W32847  37.563  31.397  11.434
67863W        W32848  40.003   3.770  13.262
67864W        W32849  34.141   7.882   0.256
67865W        W32850  10.731  15.862   0.526
67866W        W32851  25.623  14.293  10.856
67867W        W32852  29.213  44.588   0.421
67868W        W32853  42.002   0.656   4.113
67869W        W32854  44.016  40.649   2.743
67870W        W32855   2.202  38.811  12.797
67871W        W32856  34.297  27.244  14.469
67872W        W32857   0.450   9.164   2.343
67873W        W32858  40.367  18.338  11.332
67874W        W32859  37.806  25.049  13.897
67875W        W32860  19.645   1.352   4.991
67876W        W32861  41.583   8.159  12.925
67877W        W32862   2.276  40.075  13.798
67878W        W32863  18.847  27.712  11.861
67879W        W32864  10.628  15.708   1.914
67880W        W32865  33.928   0.865   0.847
67881W        W32866  20.709  17.164   3.114
67882W        W32867  35.944  36.116   3.019
67883W        W32868  22.665  29.908   4.451
67884W        W32869  38.631   0.382  14.479
67885W        W32870  34.452  22.050   2.357
67886W        W32871   2.774  26.008   0.954
67887W        W32872  41.997  18.272   0.620
67888W        W32873  19.831  32.917   4.839
67889W        W32874   5.850   4.847   0.916
67890W        W32875   0.232   9.700   2.968
67891W        W32876  44.830  36.477   3.685
67892W        W32877  33.835  19.172   2.241
67893W        W32878  21.691  13.277  14.338
67894W        W32879  33.734  31.166   4.922
67895W        W32880  16.857  38.021  13.896
67896W        W32881  24.547  27.891   2.697
67897W        W32882   7.688   3.458   3.023
67898W        W32883   1.849  25.472   1.918
67899W        W32884  19.495   8.759  13.100
67900W        W32885  34.412  19.693   3.705
67901W        W32886  30.937   6.752   3.524
67902W        W32887   7.716  41.075  12.018
67903W        W32888   7.954   2.283   4.691
67904W        W32889  13.361  33.753  14.904
67905W        W32890  14.603  26.605  11.722
67906W        W32891  32.980  25.380  10.552
67907W        W32892  16.615  32.455  12.506
67908W        W32893   6.439   8.712  13.228
67909W        W32894  39.782  22.802   4.178
67910W        W32895   8.254  12.117  14.778
67911W        W32896  40.915  36.564  13.891
67912W        W32897  25.949  40.498  13.002
67913W        W32898  27.140  38.821  14.783
67914W        W32899  24.240   2.383   0.207
67915W        W32900  27.660  27.154   4.157
67916W        W32901   1.262   3.946  10.737
67917W        W32902  16.346  20.727  10.570
67918W        W32903  43.821   1.001  14.282
67919W        W32904  44.750   3.934  13.199
67920W        W32905  32.111   6.266   4.034
67921W        W32906  13.149  23.439  13.955
67922W        W32907  15.779  22.787   3.105
67923W        W32908  34.853  26.270   4.180
67924W        W32909   5.716  42.166   3.815
67925W        W32910  29.283  38.404  14.368
67926W        W32911  11.380  35.775  11.267
67927W        W32912   6.930   9.765  12.480
67928W        W32913  36.258  32.912   0.462
67929W        W32914  22.734  20.783  11.634
67930W        W32915  12.104  18.616   4.190
67931W        W32916  34.409  15.505   1.305
67932W        W32917  17.765  17.568  10.974
67933W        W32918  14.239  13.346   1.672
67934W        W32919  23.101   0.971   4.058
67935W        W32920  28.756  32.530  13.935
67936W        W32921  23.558   2.937  11.430
67937W        W32922  12.884  44.365  10.614
67938W        W32923  11.386  21.818  12.893
67939W        W32924  30.039  38.331  11.609
67940W        W32925  11.119   1.423  12.396
67941W        W32926  44.465  18.040   4.476
67942W        W32927   6.915  12.499  13.191
67943W        W32928  41.791  29.645  11.488
67944W        W32929   2.058  17.751   2.819
67945W        W32930  39.032  44.214   0.320
67946W        W32931   4.014  44.872   2.910
67947W        W32932  17.096  29.908   3.448
67948W        W32933  31.361  26.182  11.596
67949W        W32934  24.503  18.213  10.496
67950W        W32935  36.812  33.701  14.884
67951W        W32936  42.201  43.289   1.280
67952W        W32937  31.067  38.982   1.227
67953W        W32938  15.585  20.178   3.992
67954W        W32939  30.092  10.281   0.441
67955W        W32940  18.939  36.569  11.626
67956W        W32941  37.963  44.083  12.598
67957W        W32942  38.897   0.960  10.523
67958W        W32943  21.802  40.262   0.778
67959W        W32944  14.297  31.032   0.175
67960W        W32945  11.235  43.274   4.597
67961W        W32946   5.168   2.765  12.497
67962W        W32947  23.559  11.595  11.660
67963W        W32948  17.738  44.191   2.538
67964W        W32949   1.867  30.343  12.569
67965W        W32950  30.494   0.062   0.799
67966W        W32951   9.312  10.674   2.665
67967W        W32952  31.891  36.004   2.185
67968W        W32953  42.726  41.509  14.431
67969W        W32954  21.226  34.566   2.359
67970W        W32955   9.242  22.784   3.610
67971W        W32956  16.789  43.717  12.141
67972W        W32957   0.947  17.717  14.769
67973W        W32958  32.232  27.060   1.275
67974W        W32959  16.710  39.604   3.882
67975W        W32960  33.501  17.880  12.190
67976W        W32961  44.919  16.048   3.742
67977W        W32962  42.014  42.272   2.354
67978W        W32963   2.336  34.505   9.857
67979W        W32964  22.296  18.335   4.164
67980W        W32965  11.371  25.917  10.620
67981W        W32966  37.428   0.123  14.323
67982W        W32967  27.947  13.714   3.980
67983W        W32968  11.382   8.394  12.899
67984W        W32969  16.230  37.622   0.833
67985W        W32970  31.807  42.790  14.484
67986W        W32971  28.851  37.033   4.582
67987W        W32972  30.443  32.536   3.388
67988W        W32973  11.209  24.519  14.332
67989W        W32974  40.732   4.796  13.794
67990W        W32975   0.017  41.324   1.440
67991W        W32976  11.382  20.495  14.402
67992W        W32977   7.145   1.502  14.065
67993W        W32978  26.202  10.309   0.790
67994W        W32979  24.445  31.688   0.291
67995W        W32980  24.929  41.708  11.797
67996W        W32981  21.508  26.385   2.313
67997W        W32982  24.443  41.892   4.058
67998W        W32983   6.321  22.489  13.557
67999W        W32984  27.352  41.464   2.314
68000W        W32985  40.791  14.651   4.745
68001W        W32986  22.740  13.565   3.605
68002W        W32987  36.557  16.612   1.535
68003W        W32988  42.287  18.104   1.341
68004W        W32989  36.021  28.497  13.273
68005W        W32990  33.340   6.368  13.534
68006W        W32991  42.998  34.616   3.665
68007W        W32992  40.945   8.177   3.841
68008W        W32993   1.376  41.711   2.703
68009W        W32994   2.515  11.082  11.510
68010W        W32995  14.915  38.150   4.748
68011W        W32996   0.322  33.019   1.927
68012W        W32997  18.110  36.607   0.372
68013W        W32998  16.637  13.715  10.987
68014W        W32999  19.672  26.424   0.881
68015W        W33000  33.155  38.068   3.377
68016W        W33001  25.018   9.901   1.052
68017W        W33002  24.217   3.958  12.346
68018W        W33003  12.753  31.037   1.414
68019W        W33004  23.061  26.623  14.790
68020W        W33005  24.001  40.171  13.054
68021W        W33006  32.507  33.868   3.865
68022W        W33007  15.666  25.646  11.510
68023W        W33008   9.313  11.133  12.264
68024W        W33009  36.421  14.591   1.874
68025W        W33010  15.367  25.757  12.650
68026W        W33011   2.718  20.512  12.389
68027W        W33012   3.593  28.013   4.621
68028W        W33013   8.210  20.527   1.366
68029W        W33014  17.214  11.604  14.027
68030W        W33015  32.039  42.504  11.903
68031W        W33016  27.122   2.570   2.979
68032W        W33017   7.987  28.125  10.156
68033W        W33018  28.404  14.891  11.484
68034W        W33019  36.456  20.417   2.602
68035W        W33020  30.679  20.794  12.779
68036W        W33021  11.589  33.196   3.626
68037W        W33022  13.188   8.119   3.297
68038W        W33023  15.305  40.048  10.615
68039W        W33024  34.951  18.473   1.315
68040W        W33025  32.550  34.157  13.795
68041W        W33026  41.114  16.330  13.966
68042W        W33027  44.534   0.378   2.906
68043W        W33028  35.955  41.474  14.337
68044W        W33029  23.953   5.804  12.925
68045W        W33030  40.916  10.133   0.401
68046W        W33031  40.286  10.910  10.253
68047W        W33032  38.791  41.602  13.520
68048W        W33033  40.950  17.166  13.363
68049W        W33034  18.841  27.191   4.598
68050W        W33035   0.771  22.613   3.800
68051W        W33036  16.336  12.807   1.401
68052W        W33037  13.662  43.498   3.637
68053W        W33038  23.780   6.761  12.740
68054W        W33039  40.627  35.195   1.857
68055W        W33040   7.951  21.491   1.755
68056W        W33041  29.086  10.747  11.726
68057W        W33042  23.894   7.646  13.872
68058W        W33043   8.346  10.888   2.310
68059W        W33044   3.881  12.501  10.181
68060W        W33045   8.832   8.733  12.923
68061W        W33046   7.705  31.501   4.102
68062W        W33047  43.464   8.914   0.673
68063W        W33048  22.738  31.354  13.068
68064W        W33049   1.283  27.266   0.417
68065W        W33050   3.518  42.528   0.394
68066W        W33051  19.635  17.429   5.352
68067W        W33052  17.325  19.040  13.901
68068W        W33053   5.154  32.376  10.690
68069W        W33054  32.127  36.131  14.859
68070W        W33055   3.423  35.817   0.076
68071W        W33056  39.437  38.101   0.369
68072W        W33057   0.232  20.773   1.625
68073W        W33058  26.476  33.349  14.916
68074W        W33059   0.116  12.590   1.156
68075W        W33060  21.932  26.011   2.390
68076W        W33061  14.419  21.756  14.319
68077W        W33062  22.216   1.410   2.100
68078W        W33063  34.045  36.429   1.671
68079W        W33064  36.030  36.194  13.107
68080W        W33065   3.504  42.975  11.812
68081W        W33066  33.822  16.976   3.759
68082W        W33067  13.526  22.920  10.600
68083W        W33068  28.532  34.138  12.102
68084W        W33069  16.076  44.896  14.839
68085W        W33070  27.895  11.297   2.760
68086W        W33071  18.783  10.721  14.204
68087W        W33072  23.261  22.151   0.328
68088W        W33073  31.536  32.689  10.650
68089W        W33074  11.698   3.498  14.938
68090W        W33075  28.062  43.124   0.235
68091W        W33076   7.700   4.258   0.797
68092W        W33077  44.370   5.948  10.701
68093W        W33078  16.265  12.837  11.827
68094W        W33079  18.781  29.112   3.749
68095W        W33080  37.215  20.190   0.841
68096W        W33081  19.521  16.250  11.134
68097W        W33082  19.771  28.174  12.635
68098W        W33083  43.496   9.958  13.814
68099W        W33084  32.813  14.863   2.771
68100W        W33085   6.077  27.559  12.499
68101W        W33086   7.240  18.339   1.837
68102W        W33087  29.538   6.225   1.717
68103W        W33088  33.623  23.232   2.257
68104W        W33089  31.423  37.628  12.878
68105W        W33090  36.089  30.711  11.602
68106W        W33091   4.202  40.229  12.908
68107W        W33092   7.118  12.586   1.842
68108W        W33093  19.115  25.240   2.843
68109W        W33094   8.258  18.185   0.759
68110W        W33095  43.777  27.080   3.885
68111W        W33096  33.058  26.749  14.844
68112W        W33097  43.475  33.771  10.641
68113W        W33098   1.393  11.586  10.691
68114W        W33099  22.593  36.987   2.024
68115W        W33100  14.015  30.974  14.348
68116W        W33101  15.221  40.306   0.714
68117W        W33102  13.487  15.348   0.193
68118W        W33103  12.366  12.611   2.633
68119W        W33104  32.173  30.022   1.934
68120W        W33105   6.845  39.747  14.812
68121W        W33106  29.643   6.461   0.769
68122W        W33107  37.323  27.189   3.374
68123W        W33108  18.020   1.823  13.082
68124W        W33109  22.683  37.810  13.124
68125W        W33110  40.360  33.901   2.308
68126W        W33111  26.645  18.978  12.406
68127W        W33112  20.130   6.394  13.334
68128W        W33113   9.292  26.643   1.856
68129W        W33114  12.523  36.582  11.238
68130W        W33115  13.183  13.842  12.349
68131W        W33116  39.384  30.852  13.461
68132W        W33117  39.638  24.516   0.509
68133W        W33118  10.640  30.569   0.037
68134W        W33119   6.895  25.960  12.878
68135W        W33120  36.528   3.858   4.631
68136W        W33121  40.283  40.082  14.911
68137W        W33122  10.557  18.328  11.157
68138W        W33123  30.840  19.564  10.274
68139W        W33124  15.243  28.019   3.019
68140W        W33125   4.919  39.666   1.164
68141W        W33126   7.255  25.615   3.285
68142W        W33127  41.874  10.327  10.655
68143W        W33128  44.468   8.190  11.925
68144W        W33129   8.603  17.035   1.232
68145W        W33130  26.244  11.610   0.728
68146W        W33131   6.581  19.844  13.363
68147W        W33132  42.046  41.625  11.086
68148W        W33133   2.914  35.699  12.175
68149W        W33134  41.375  34.370  13.041
68150W        W33135  36.710  20.148   0.858
68151W        W33136   5.896  34.525  12.469
68152W        W33137  38.524  38.757   4.089
68153W        W33138   7.568   5.810  10.251
68154W        W33139   6.688  36.784  10.840
68155W        W33140   7.804  39.261  12.546
68156W        W33141   6.332  22.667   4.069
68157W        W33142  41.491  18.620  14.721
68158W        W33143  23.720   7.133   1.805
68159W        W33144   5.448  23.541  12.582
68160W        W33145   7.894  20.431  14.399
68161W        W33146  36.409  16.565  12.957
68162W        W33147  44.308  30.940  14.285
68163W        W33148  15.058  43.261  12.601
68164W        W33149  42.893  44.728   0.788
68165W        W33150  26.462  40.784   3.191
68166W        W33151  32.018   1.905   3.173
68167W        W33152  17.860  22.201   4.676
68168W        W33153  38.634  10.564   0.440
68169W        W33154   3.071  34.797   2.184
68170W        W33155  43.073  34.727   1.113
68171W        W33156  27.276  40.640   4.929
68172W        W33157  17.674   6.618  13.049
68173W        W33158  37.814  38.004  11.928
68174W        W33159  22.923  42.799  13.311
68175W        W33160   3.504  31.118  14.413
68176W        W33161  24.678  38.309   0.999
68177W        W33162  37.219  23.580   3.374
68178W        W33163   1.659  21.489  12.382
68179W        W33164  31.531   0.558  12.615
68180W        W33165  27.179  25.683  13.558
68181W        W33166   6.853  44.510  13.057
68182W        W33167  38.430   8.530  14.339
68183W        W33168  21.456  24.240  11.967
68184W        W33169  34.426   6.091   2.655
68185W        W33170  33.162  43.271   1.905
68186W        W33171  33.783  40.885  11.733
68187W        W33172  42.781  23.118  13.507
68188W        W33173  27.950  33.418  14.474
68189W        W33174  36.330  13.238  10.754
68190W        W33175  25.014  22.675  13.562
68191W        W33176  23.874  18.601  12.562
68192W        W33177   0.342  26.660   0.309
68193W        W33178  30.555  44.948   0.250
68194W        W33179  15.802  34.366   2.787
68195W        W33180  25.072  33.799   1.015
68196W        W33181   5.953  35.344   4.188
68197W        W33182  28.976  34.309  10.942
68198W        W33183  42.159  32.411  14.429
68199W        W33184   4.114  43.379   1.915
68200W        W33185  22.729  22.144   2.689
68201W        W33186  38.244  28.705  13.492
68202W        W33187  31.868  43.310   0.448
68203W        W33188  34.489   4.295   3.093
68204W        W33189  24.697  37.826  12.494
68205W        W33190  13.721  21.865   2.948
68206W        W33191  35.464  42.364   4.100
68207W        W33192  32.679   3.293  12.733
68208W        W33193  22.559  24.717   4.624
68209W        W33194  40.071  23.804   4.968
68210W        W33195  27.671  14.653   1.562
68211W        W33196  22.153   7.287   2.145
68212W        W33197  35.563  29.368   3.701
68213W        W33198  12.131   4.425  14.964
68214W        W33199  26.102  30.898   3.108
68215W        W33200  16.884  30.228   0.257
68216W        W33201  22.131  22.412  10.756
68217W        W33202   9.151  42.251   3.804
68218W        W33203  44.930  18.689  14.333
68219W        W33204  34.968  11.097  11.563
68220W        W33205  23.323  21.639   4.127
68221W        W33206  43.380   2.732  14.405
68222W        W33207   0.752  35.430   4.373
68223W        W33208  20.620  37.976  11.034
68224W        W33209  42.514   8.880  14.757
68225W        W33210   8.201  11.788  10.676
68226W        W33211  13.221  19.197   2.081
68227W        W33212   5.263  19.966  14.152
68228W        W33213  34.124   5.236   4.637
68229W        W33214   1.274   6.149  12.572
68230W        W33215  29.034  18.980   4.178
68231W        W33216  23.157   9.948  10.734
68232W        W33217  20.687   6.149  13.610
68233W        W33218   2.322  27.419   3.413
68234W        W33219  12.088   8.918  13.347
68235W        W33220  13.661   9.666   3.534
68236W        W33221  17.621  17.091  11.122
68237W        W33222   9.423  10.733  12.579
68238W        W33223  28.805  31.126  13.852
68239W        W33224  15.061  35.817   1.478
68240W        W33225   9.531  44.651  11.227
68241W        W33226  19.200  30.599  10.745
68242W        W33227  29.786  18.103   3.682
68243W        W33228   5.125  30.924  13.933
68244W        W33229  37.919  39.177   2.363
68245W        W33230   7.738  25.552   1.219
68246W        W33231  36.942  25.030   0.551
68247W        W33232  17.354  21.105   2.878
68248W        W33233  24.730  41.354  12.096
68249W        W33234  33.044  16.628   2.231
68250W        W33235  30.650   0.488  13.119
68251W        W33236  35.240  19.177  13.886
68252W        W33237   0.518  32.993   2.880
68253W        W33238  35.694  39.772   0.318
68254W        W33239  31.992  42.791  13.492
68255W        W33240  13.887  11.658  12.544
68256W        W33241  32.891  27.869  13.813
68257W        W33242  14.179   6.438  12.818
68258W        W33243  20.046  35.406  10.729
68259W        W33244  20.263  36.355  11.906
68260W        W33245  18.520  43.339  11.233
68261W        W33246  34.735  39.385   4.272
68262W        W33247  14.348  17.175  11.611
68263W        W33248   1.512  19.213   4.251
68264W        W33249  40.631  12.445   9.849
68265W        W33250   4.434   1.362   3.402
68266W        W33251  27.614  39.647   2.745
68267W        W33252  33.545  31.319   4.166
68268W        W33253  32.164   2.413  14.470
68269W        W33254  36.066  11.085   3.333
68270W        W33255  37.944  26.400  13.478
68271W        W33256   9.287  29.002   3.980
68272W        W33257  21.115   3.964   0.807
68273W        W33258  13.563  19.663   2.289
68274W        W33259  34.338  42.186  11.516
68275W        W33260  14.735  28.641  14.746
68276W        W33261  32.151  23.258  11.726
68277W        W33262  30.562   0.341   2.541
68278W        W33263  28.566   4.399  14.133
68279W        W33264  39.376  32.596   2.724
68280W        W33265  42.508  30.934  14.992
68281W        W33266  12.301  43.380   4.591
68282W        W33267  28.032  36.822  12.525
68283W        W33268  25.916  13.857   3.665
68284W        W33269   0.060  24.988   1.356
68285W        W33270  33.650  22.666  13.591
68286W        W33271   0.490   4.167   3.748
68287W        W33272   0.819  35.864   4.108
68288W        W33273  33.556  25.734   3.273
68289W        W33274   4.710   0.080   0.027
68290W        W33275  34.063  21.604   1.878
68291W        W33276  17.191  36.801   0.866
68292W        W33277   0.054  25.970  13.590
68293W        W33278  36.626  44.665   0.924
68294W        W33279  39.430  35.688  13.845
68295W        W33280   0.529  39.820  13.827
68296W        W33281  30.999   1.262  13.504
68297W        W33282  32.607  14.314   3.642
68298W        W33283  28.450  19.124   0.785
68299W        W33284  23.247   8.385  14.349
68300W        W33285  40.821  41.788  14.325
68301W        W33286  32.652  33.966   1.942
68302W        W33287  44.306  25.643   2.261
68303W        W33288  30.557  30.149  11.148
68304W        W33289  30.651  20.952   0.254
68305W        W33290  37.930  17.898  11.054
68306W        W33291   6.240  43.797   0.435
68307W        W33292   4.913  35.559   2.355
68308W        W33293  35.551   9.419  10.122
68309W        W33294  41.281  14.469  13.596
68310W        W33295  44.058  25.517  10.633
68311W        W33296  11.365  42.863  12.858
68312W        W33297  12.135  31.166   1.774
68313W        W33298  39.544  11.311  11.475
68314W        W33299  40.958  11.592  11.460
68315W        W33300  14.881  29.121  14.892
68316W        W33301  44.534   0.285   0.389
68317W        W33302  13.806  19.411  13.442
68318W        W33303  15.719  20.650  12.939
68319W        W33304   3.371  39.150  13.442
68320W        W33305  39.773   7.583   2.724
68321W        W33306  29.059  10.346   0.985
68322W        W33307   6.223  17.136   3.777
68323W        W33308   4.793  29.916   0.979
68324W        W33309   4.304  12.250   1.848
68325W        W33310  37.942   8.214   2.361
68326W        W33311  23.097  37.604  12.854
68327W        W33312   4.919  10.972   3.691
68328W        W33313  10.690  16.097  12.116
68329W        W33314  27.027  13.186   4.096
68330W        W33315  22.526  17.598   0.483
68331W        W33316  31.445   8.399   3.243
68332W        W33317  22.754  32.287   1.402
68333W        W33318   7.845  39.952  14.945
68334W        W33319  16.642  29.244   0.474
68335W        W33320  39.522  42.872   4.703
68336W        W33321  15.693  34.819   4.972
68337W        W33322  21.113  13.833  14.239
68338W        W33323  23.594  31.984   0.350
68339W        W33324  41.031  32.004   3.786
68340W        W33325  39.514  25.015  12.871
68341W        W33326   2.994  35.351  11.621
68342W        W33327  34.667  22.483  12.524
68343W        W33328   7.650  38.171   3.743
68344W        W33329  30.410   2.770   3.558
68345W        W33330  33.638   0.683   0.432
68346W        W33331  28.158   7.795  13.522
68347W        W33332  16.039  13.105   2.256
68348W        W33333  13.943  25.889   4.441
68349W        W33334  14.130  37.340   2.322
68350W        W33335  12.546  24.999  12.527
68351W        W33336  37.999  13.054  11.699
68352W        W33337   5.749   6.771   0.447
68353W        W33338  42.112  27.138   1.427
68354W        W33339  28.062  22.015  13.966
68355W        W33340   9.158   4.777   9.994
68356W        W33341   8.723  24.601  12.664
68357W        W33342  19.344   7.069  12.667
68358W        W33343  34.660  34.543  12.547
68359W        W33344  34.960  11.186   1.254
68360W        W33345  23.053  20.756   3.902
68361W        W33346  26.176   4.393  12.012
68362W        W33347  40.527  25.823  11.620
68363W        W33348  23.575  26.524  14.792
68364W        W33349  23.468  39.920  11.760
68365W        W33350  20.258  20.743   4.990
68366W        W33351  32.792  11.277  13.535
68367W        W33352  21.014  43.342  12.074
68368W        W33353  27.732  26.605  12.891
68369W        W33354  25.999   3.378   1.730
68370W        W33355  12.955   6.450  13.555
68371W        W33356  35.623  34.354  13.022
68372W        W33357  22.867  36.444   1.294
68373W        W33358  21.970  15.753   0.311
68374W        W33359   7.431  15.734   2.692
68375W        W33360  40.618  36.993   0.066
68376W        W33361  13.108  13.165  11.102
68377W        W33362  29.537  13.589   3.584
68378W        W33363   3.943  24.644   1.976
68379W        W33364  40.909  20.129  13.695
68380W        W33365  30.995  23.412  13.450
68381W        W33366  10.902   9.241  12.173
68382W        W33367  25.813  28.122  12.573
68383W        W33368  41.335  33.506   1.957
68384W        W33369  38.899  15.178   3.112
68385W        W33370   6.916  10.146   1.684
68386W        W33371  30.718  20.841   1.296
68387W        W33372  33.496   5.250  13.552
68388W        W33373  11.919   4.890  14.817
68389W        W33374  21.389   4.201   3.715
68390W        W33375  23.114  18.854   0.267
68391W        W33376  12.528  17.294  11.375
68392W        W33377   1.950  36.733  11.702
68393W        W33378  41.850   9.389   4.119
68394W        W33379  13.608  34.097  14.476
68395W        W33380  24.942  10.107  11.146
68396W        W33381  13.140  20.279   1.615
68397W        W33382   7.404  31.141   0.554
68398W        W33383  15.131  13.024  11.692
68399W        W33384  27.365   3.841   5.034
68400W        W33385  37.404  33.547  14.372
68401W        W33386  19.604  12.332   4.364
68402W        W33387   6.301   4.292   4.123
68403W        W33388   6.644  18.309   3.051
68404W        W33389  10.957  38.358   1.563
68405W        W33390  27.679   1.265  14.334
68406W        W33391  11.774  16.531   4.143
68407W        W33392  25.303  40.873  11.917
68408W        W33393   4.702  40.991   1.713
68409W        W33394   5.814  16.225  12.359
68410W        W33395  18.065  31.044   0.513
68411W        W33396  41.396  24.251   1.712
68412W        W33397  31.095   4.714   1.539
68413W        W33398  42.589  21.128  13.793
68414W        W33399  31.123   5.359   4.375
68415W        W33400  39.330   7.302   4.670
68416W        W33401  14.529  31.487   4.954
68417W        W33402  30.811   8.948  11.148
68418W        W33403  10.760  28.871   3.431
68419W        W33404  34.150   2.260   0.715
68420W        W33405  12.791  36.464   1.171
68421W        W33406  26.705   1.053  14.304
68422W        W33407  33.682  37.016  11.004
68423W        W33408  28.551  41.546   3.574
68424W        W33409  34.682  43.638   0.269
68425W        W33410  42.805  33.971   3.260
68426W        W33411  14.216  25.036   1.286
68427W        W33412  33.972  17.490   1.197
68428W        W33413   3.431   5.270   9.963
68429W        W33414  15.803  21.850   3.383
68430W        W33415  35.613   0.244   1.516
68431W        W33416  38.339  44.002   4.064
68432W        W33417  38.431   1.256   2.203
68433W        W33418  15.100   4.146  14.296
68434W        W33419  24.419   4.995  11.544
68435W        W33420   4.371  22.570  10.762
68436W        W33421  38.002  16.160  13.948
68437W        W33422  10.787  40.712   1.701
68438W        W33423  22.064  37.428  14.217
68439W        W33424  16.864  14.814   2.840
68440W        W33425   9.747   2.006  11.562
68441W        W33426   4.845   7.220  11.752
68442W        W33427  41.341   6.831  13.329
68443W        W33428   2.230  36.858   1.180
68444W        W33429  29.248  38.224   3.104
68445W        W33430  11.344  19.016   0.654
68446W        W33431  15.881  15.203  11.955
68447W        W33432   1.532  35.870  12.619
68448W        W33433   1.738  10.963  13.537
68449W        W33434  37.128   9.706   4.301
68450W        W33435  23.194  33.372   4.087
68451W        W33436  16.147  24.676   0.402
68452W        W33437  21.037   0.390   4.546
68453W        W33438  12.634  13.699  10.682
68454W        W33439  13.740   0.813  13.023
68455W        W33440  22.973  30.268   5.068
68456W        W33441  42.760  22.609   1.820
68457W        W33442  21.537  13.836   2.793
68458W        W33443  21.329  10.648  10.406
68459W        W33444  11.674  17.688  14.621
68460W        W33445  29.594  33.420  13.617
68461W        W33446  35.556   1.986  13.884
68462W        W33447  15.986  32.547   2.271
68463W        W33448  15.772  15.697  12.552
68464W        W33449  39.379  29.083   4.133
68465W        W33450  44.230  25.644  13.113
68466W        W33451  10.431   8.189  13.883
68467W        W33452  17.591  40.258  12.637
68468W        W33453  30.129  33.456   4.696
68469W        W33454   4.272   5.615   3.571
68470W        W33455  41.396  19.980  11.878
68471W        W33456  17.611  23.231   1.412
68472W        W33457   2.429  14.848  12.286
68473W        W33458  18.463   9.234  12.471
68474W        W33459   8.101  23.599   0.384
68475W        W33460  15.339  13.618  11.723
68476W        W33461  28.183  21.709   3.695
68477W        W33462  26.831  44.747   2.370
68478W        W33463  12.798  25.415  12.080
68479W        W33464   2.691  21.768  13.801
68480W        W33465   0.958   5.270  10.752
68481W        W33466  31.281  19.810  12.407
68482W        W33467  36.036  26.032   1.990
68483W        W33468  44.374  42.290   1.702
68484W        W33469  15.869  25.159  13.947
68485W        W33470   9.054  32.936  13.843
68486W        W33471   8.043  28.518   0.742
68487W        W33472  32.970  16.447  12.550
68488W        W33473  30.098  24.657   1.824
68489W        W33474   9.686  33.015   3.487
68490W        W33475  17.702  11.789  14.540
68491W        W33476  37.294  28.503   2.659
68492W        W33477   8.409   8.372  13.883
68493W        W33478  13.799  27.529  12.110
68494W        W33479  32.413  27.257  13.441
68495W        W33480  10.757  36.519   1.276
68496W        W33481  15.071  20.832  11.873
68497W        W33482  42.334  17.258  14.184
68498W        W33483   8.507  28.455   1.004
68499W        W33484  44.148  11.485   4.892
68500W        W33485  42.396  39.333  14.957
68501W        W33486  19.421  18.777   2.303
68502W        W33487  26.693  30.838  13.671
68503W        W33488  25.024  29.180   2.273
68504W        W33489   0.494  35.813   3.695
68505W        W33490  38.901  32.394   2.811
68506W        W33491  26.063  42.140  14.135
68507W        W33492  41.020   7.374   4.664
68508W        W33493  29.423  35.917  13.421
68509W        W33494   2.356  38.295  14.350
68510W        W33495   2.078   6.317  13.742
68511W        W33496  24.636  34.381  14.390
68512W        W33497  10.612  34.626  12.532
68513W        W33498  27.883  30.209   0.868
68514W        W33499  26.417  39.103   2.779
68515W        W33500  39.084  16.760  10.322
68516W        W33501   1.316   2.507  13.098
68517W        W33502   8.230  30.034   3.645
68518W        W33503  10.785  29.456  13.807
68519W        W33504  10.346  13.872   2.205
68520W        W33505  44.252  18.142  11.986
68521W        W33506  34.457   4.730  14.819
68522W        W33507  21.021   2.851  12.983
68523W        W33508  30.197  31.649   0.430
68524W        W33509  29.186  34.054   2.674
68525W        W33510  30.385  13.129  11.955
68526W        W33511  26.404  38.521   1.404
68527W        W33512  22.065  17.980  10.398
68528W        W33513  31.854  24.967   4.798
68529W        W33514   2.783  20.491  13.331
68530W        W33515  28.550  34.397   1.851
68531W        W33516  20.260   4.900  10.824
68532W        W33517  41.379   0.478  12.822
68533W        W33518  33.436  44.923   2.664
68534W        W33519  19.576  28.595   2.257
68535W        W33520   2.910  18.676  13.930
68536W        W33521  43.078  26.498  10.626
68537W        W33522  33.816   4.928   1.446
68538W        W33523  39.824  33.788  11.974
68539W        W33524  31.396  28.188   1.154
68540W        W33525  32.625  42.583  11.133
68541W        W33526  43.142   7.268   0.051
68542W        W33527  36.489  29.483  14.290
68543W        W33528  23.664  44.321   1.846
68544W        W33529  20.383   6.596   0.950
68545W        W33530   0.502  10.741   0.278
68546W        W33531  23.365   2.485  12.137
68547W        W33532  21.005  31.080  11.545
68548W        W33533  38.681  42.388   1.965
68549W        W33534   9.953  22.679  12.355
68550W        W33535  31.981   1.261  14.759
68551W        W33536  13.879  44.955  11.672
68552W        W33537  42.852  17.250   1.630
68553W        W33538  15.201  10.582  11.109
68554W        W33539  11.671  12.327  11.256
68555W        W33540  34.390  40.410   0.327
68556W        W33541  17.163  42.896  14.882
68557W        W33542  10.983  16.106  12.546
68558W        W33543   5.275  35.377  14.883
68559W        W33544   8.146  44.316  10.399
68560W        W33545  27.117  14.715   1.807
68561W        W33546  43.365  36.611   0.808
68562W        W33547   1.286   7.385  11.942
68563W        W33548  30.127  23.301   3.728
68564W        W33549  10.712  19.528   2.351
68565W        W33550   8.964  19.261   3.780
68566W        W33551  11.251  37.530  12.118
68567W        W33552  43.895  43.904  13.390
68568W        W33553   5.030  35.063  11.173
68569W        W33554  40.640   4.441   4.738
68570W        W33555  41.606   8.275   0.556
68571W        W33556  44.085  23.950  13.801
68572W        W33557  31.880   1.288   0.262
68573W        W33558  12.724  35.559  13.576
68574W        W33559   6.115  44.010  11.689
68575W        W33560  43.428  40.103   2.259
68576W        W33561  26.157  33.177   2.736
68577W        W33562  16.483   9.933   1.405
68578W        W33563  26.245  39.848   4.544
68579W        W33564   2.717  33.612   2.682
68580W        W33565  27.410  42.420   4.166
68581W        W33566  16.811  34.595   3.119
68582W        W33567  37.961  15.562  13.492
68583W        W33568  16.266  25.832   1.853
68584W        W33569  36.851  43.279   3.070
68585W        W33570  39.736  18.205   5.214
68586W        W33571  39.874  18.387   1.295
68587W        W33572  16.058  17.567   0.542
68588W        W33573  39.770  15.483  10.619
68589W        W33574  33.347  19.743   0.026
68590W        W33575   6.173  32.374   4.632
68591W        W33576  12.674  29.716   4.061
68592W        W33577  18.262  34.980   4.151
68593W        W33578  25.990  24.326  11.984
68594W        W33579  35.817  37.900   0.435
68595W        W33580  26.519   7.358  10.402
68596W        W33581  40.839  10.089  11.167
68597W        W33582  31.471  15.613   2.693
68598W        W33583  35.013  12.776   0.469
68599W        W33584  31.906  39.101  14.348
68600W        W33585   5.832  17.689  13.758
68601W        W33586  37.097  10.761  12.742
68602W        W33587  40.954  32.617  11.067
68603W        W33588   4.373   0.717   1.728
68604W        W33589   9.346  12.434  13.510
68605W        W33590  40.234   4.994   3.189
68606W        W33591  42.746  20.184  12.005
68607W        W33592   1.010  13.150   0.105
68608W        W33593  20.272  27.005   4.540
68609W        W33594  38.163  23.447  10.724
68610W        W33595  44.323  14.711  11.659
68611W        W33596   2.421  17.044  13.925
68612W        W33597  17.749  14.663  13.913
68613W        W33598  31.412  38.025  10.697
68614W        W33599  36.473  30.129   4.559
68615W        W33600   9.976  35.087   1.911
68616W        W33601  32.946  42.758  12.306
68617W        W33602  26.582  27.492  12.580
68618W        W33603  41.979  26.022  14.030
68619W        W33604  23.098  44.749   1.333
68620W        W33605  24.735  14.087  12.605
68621W        W33606  14.872  26.182   0.309
68622W        W33607   3.274  21.489  12.200
68623W        W33608  18.753  19.409  14.787
68624W        W33609  24.972   0.746  11.641
68625W        W33610   3.218  38.144   2.836
68626W        W33611  40.879  16.179  12.104
68627W        W33612   5.901  17.760  14.682
68628W        W33613  26.105  10.671   0.428
68629W        W33614   7.395  41.922   4.895
68630W        W33615   9.021  24.997   3.659
68631W        W33616  21.225  15.326   4.493
68632W        W33617  14.130  18.754   2.789
68633W        W33618  33.487   6.733   3.571
68634W        W33619  35.925   5.928  13.929
68635W        W33620  15.626  40.895   1.953
68636W        W33621  19.008  29.202   3.281
68637W        W33622  39.324  21.659   4.430
68638W        W33623  11.876  28.854   4.257
68639W        W33624  24.064  28.088   2.797
68640W        W33625   7.113  15.630  12.629
68641W        W33626  18.148  42.613   2.719
68642W        W33627  17.594  14.054   4.605
68643W        W33628  15.076  17.884  13.539
68644W        W33629  41.436  41.967   3.114
68645W        W33630  16.994  37.414   2.235
68646W        W33631  38.531  41.946   2.206
68647W        W33632   8.609  29.744  11.100
68648W        W33633  29.639  15.904   4.188
68649W        W33634  33.276  38.231  13.858
68650W        W33635   6.355  33.152   2.264
68651W        W33636  38.344  26.104  12.131
68652W        W33637  12.968  10.843   0.915
68653W        W33638   6.863   3.402  10.233
68654W        W33639  10.705   9.390   1.681
68655W        W33640  16.096  42.360   0.499
68656W        W33641  28.498   7.442   1.913
68657W        W33642  30.465   3.430  14.521
68658W        W33643   5.367  11.647  14.907
68659W        W33644  13.127   3.839   0.367
68660W        W33645  18.632  17.152   3.124
68661W        W33646  32.759   0.764  14.814
68662W        W33647  11.944  19.280  13.551
68663W        W33648  10.164  11.946   1.657
68664W        W33649   2.722  30.562   0.089
68665W        W33650  31.596  14.343  13.895
68666W        W33651  34.598  28.143   4.235
68667W        W33652  32.670  28.608   2.149
68668W        W33653  13.788  38.453  13.085
68669W        W33654   2.451  20.554   3.116
68670W        W33655  28.590  25.312   4.050
68671W        W33656  20.891  21.760  13.965
68672W        W33657  18.773  16.340  11.860
68673W        W33658   9.424   4.922  14.709
68674W        W33659   9.137  20.111   0.707
68675W        W33660  20.211   3.893  11.367
68676W        W33661   5.142  30.801  10.727
68677W        W33662   1.854  17.035  12.778
68678W        W33663   6.805  17.739   0.004
68679W        W33664   6.851  31.709   1.011
68680W        W33665  41.540  37.463   3.975
68681W        W33666  42.689   0.385   0.774
68682W        W33667  25.364  34.852   0.282
68683W        W33668  29.956   3.236   4.140
68684W        W33669   9.803  29.197  12.311
68685W        W33670  22.975  33.923  13.857
68686W        W33671  44.385   3.863   2.820
68687W        W33672  16.263  36.791   4.138
68688W        W33673  28.627  34.635   0.293
68689W        W33674  28.136  17.617  11.046
68690W        W33675  28.192   3.822   2.514
68691W        W33676   8.909  12.337   4.741
68692W        W33677   0.465  29.346  13.133
68693W        W33678  20.340  10.600   2.876
68694W        W33679  31.784  40.324  13.279
68695W        W33680  21.083  13.901   4.092
68696W        W33681  13.555  29.388  11.473
68697W        W33682  15.326  29.368  13.462
68698W        W33683  30.835  39.900  13.081
68699W        W33684  19.017  28.201  13.068
68700W        W33685  12.525  43.229   0.874
68701W        W33686  29.838   2.724   9.749
68702W        W33687   3.585  27.708   0.900
68703W        W33688  39.830  19.051  12.510
68704W        W33689   4.175  40.321   4.563
68705W        W33690  29.330  38.549   3.676
68706W        W33691  28.148  41.958  11.894
68707W        W33692  16.083  42.230  13.100
68708W        W33693   5.759  10.817   2.931
68709W        W33694  38.340  17.107  12.173
68710W        W33695   3.166  23.027   3.311
68711W        W33696  10.901  10.780   2.198
68712W        W33697  13.344  30.014   3.458
68713W        W33698  16.587  18.094   1.741
68714W        W33699  39.294  20.334   4.224
68715W        W33700   9.214  27.331  12.445
68716W        W33701  32.793  22.304   2.901
68717W        W33702   8.663  41.415   3.804
68718W        W33703   5.687  41.951   1.352
68719W        W33704  15.597  35.947   4.242
68720W        W33705  36.378  33.547  13.356
68721W        W33706   0.938  31.669   4.098
68722W        W33707  23.527  11.196   0.067
68723W        W33708  18.137  18.364  11.191
68724W        W33709  15.554  17.016  13.986
68725W        W33710  15.995  19.241  14.458
68726W        W33711  38.418  35.261   2.167
68727W        W33712  14.115  42.443  13.012
68728W        W33713   2.493   0.877  14.821
68729W        W33714   2.308  40.088  14.783
68730W        W33715   4.875  17.655   4.544
68731W        W33716  18.032  16.604  13.783
68732W        W33717  14.743  33.063   3.716
68733W        W33718  36.969  20.965   0.319
68734W        W33719  29.906  26.715   2.262
68735W        W33720  10.146  27.285  12.067
68736W        W33721  31.177   1.586  14.416
68737W        W33722  33.625   0.318  11.972
68738W        W33723  21.694  34.543  10.898
68739W        W33724  33.957  36.841  11.525
68740W        W33725  30.056  40.259   0.270
68741W        W33726   1.814  34.369  11.627
68742W        W33727  33.681  26.516  14.279
68743W        W33728  26.393   7.322   2.250
68744W        W33729  25.021  14.529  12.590
68745W        W33730   2.747   5.313   2.649
68746W        W33731  11.319   1.800  11.400
68747W        W33732  23.210   0.975   0.459
68748W        W33733  14.156  27.050   2.249
68749W        W33734  30.645  42.754  12.931
68750W        W33735  39.833  43.425  12.091
68751W        W33736  22.649  44.460   3.907
68752W        W33737  43.182  30.628   4.497
68753W        W33738  37.083  39.029  12.376
68754W        W33739  35.938   2.711   1.658
68755W        W33740  14.430  26.133  13.479
68756W        W33741  44.724   6.714   4.139
68757W        W33742  12.696  22.224   4.611
68758W        W33743  33.988  42.282  13.962
68759W        W33744  14.039  24.483  14.175
68760W        W33745  36.609  24.560  12.555
68761W        W33746  41.346   8.673   4.169
68762W        W33747  44.292  27.779  13.105
68763W        W33748   7.621  28.396   3.752
68764W        W33749  28.465  14.630  11.049
68765W        W33750  17.390  40.267   1.805
68766W        W33751   8.684   8.081  13.557
68767W        W33752  14.896  18.468  12.610
68768W        W33753   2.412   9.646   3.287
68769W        W33754  33.688  41.386  11.590
68770W        W33755   6.781  33.122   1.865
68771W        W33756  32.440  36.168   0.664
68772W        W33757  41.396  44.927  10.700
68773W        W33758  34.393   1.847   3.237
68774W        W33759  37.617  26.426   0.338
68775W        W33760  42.539  20.534   0.064
68776W        W33761  25.696  34.436  14.448
68777W        W33762  15.167  37.912  13.037
68778W        W33763  19.892  27.343   4.575
68779W        W33764  15.690  10.866   0.235
68780W        W33765  38.312  11.479  11.365
68781W        W33766   1.319   1.370   1.407
68782W        W33767   0.867  24.910   9.923
68783W        W33768  14.191  14.242  14.556
68784W        W33769   0.485  17.128  11.164
68785W        W33770   7.519  35.183   4.464
68786W        W33771  34.317   9.437   4.495
68787W        W33772   7.841  22.436   1.862
68788W        W33773  18.856  40.354  14.586
68789W        W33774  27.651  18.190   0.551
68790W        W33775  13.037   3.322   2.782
68791W        W33776  16.277  11.374  11.519
68792W        W33777  44.303  37.369  12.491
68793W        W33778   1.674  36.585   3.140
68794W        W33779   1.503  30.251   1.358
68795W        W33780  41.946  16.619  10.330
68796W        W33781  35.625  31.585   4.606
68797W        W33782  27.911  42.337  11.582
68798W        W33783  15.144  10.565  10.588
68799W        W33784  41.589  32.966  14.019
68800W        W33785  33.013  14.129   2.268
68801W        W33786   8.832  35.097   3.740
68802W        W33787  22.213   9.289  14.366
68803W        W33788   4.556  39.123  13.943
68804W        W33789   4.758   9.885  11.336
68805W        W33790  13.050  39.818   3.100
68806W        W33791  38.285  15.705  10.474
68807W        W33792  20.577  21.534   1.854
68808W        W33793  29.490  10.232  14.239
68809W        W33794  26.585  22.149   0.057
68810W        W33795  41.939  21.748  12.991
68811W        W33796   7.907  13.880  14.418
68812W        W33797  14.175   5.617   5.034
68813W        W33798   1.150  11.037   0.341
68814W        W33799  38.995  17.267   0.785
68815W        W33800  15.874  28.949   3.554
68816W        W33801  36.412  27.750  11.408
68817W        W33802  17.178   4.955   0.587
68818W        W33803   1.029   3.969   3.206
68819W        W33804  17.742  14.202  14.196
68820W        W33805   6.282  14.450   3.655
68821W        W33806  27.626  33.500   1.330
68822W        W33807  43.815  35.444   2.966
68823W        W33808  35.720  14.798   4.510
68824W        W33809  37.648  16.297   4.568
68825W        W33810  31.493  11.421   1.469
68826W        W33811  42.221  43.795  13.081
68827W        W33812   6.830  11.382  11.289
68828W        W33813  14.070  37.983   4.188
68829W        W33814  44.384  18.714   1.901
68830W        W33815  37.010   9.979   1.215
68831W        W33816  22.534  37.050   0.450
68832W        W33817  16.090  19.122   1.410
68833W        W33818  41.219  37.345   1.716
68834W        W33819  44.500  33.645  13.206
68835W        W33820  38.544  12.847   0.261
68836W        W33821   4.116  37.565   2.864
68837W        W33822  37.066  42.295   0.256
68838W        W33823  13.060   5.280  11.136
68839W        W33824  24.566   8.326  14.024
68840W        W33825  39.347  37.920  12.908
68841W        W33826  43.222  11.871  13.908
68842W        W33827  34.515  18.220   2.732
68843W        W33828  14.679  32.360   0.251
68844W        W33829  10.769  42.501  14.315
68845W        W33830  11.936   9.320  11.141
68846W        W33831   7.646  27.238  13.407
68847W        W33832  19.057   7.571   1.335
68848W        W33833   9.046   5.264   1.056
68849W        W33834   2.956  18.676   0.284
68850W        W33835   0.470  19.316  13.106
68851W        W33836  42.223   3.249  13.346
68852W        W33837  22.245  10.384  12.152
68853W        W33838   0.370  32.124   2.393
68854W        W33839  35.375  40.195   3.580
68855W        W33840   8.598  30.491   4.215
68856W        W33841  13.405   6.812   2.995
68857W        W33842  13.126   9.862  10.975
68858W        W33843   0.096  15.128  10.315
68859W        W33844  26.674  31.181   2.987
68860W        W33845  41.309  20.465   2.702
68861W        W33846  28.091  31.545   0.254
68862W        W33847  29.572  34.411   3.208
68863W        W33848   2.396  41.098  10.927
68864W        W33849  39.337  17.156   4.675
68865W        W33850   3.795  37.917   4.705
68866W        W33851  40.542  42.422  14.386
68867W        W33852  36.153  13.152   3.733
68868W        W33853  36.826  39.367  14.111
68869W        W33854   6.713   0.243  12.265
68870W        W33855  24.469  33.682  12.297
68871W        W33856  32.795   7.738   0.878
68872W        W33857  26.757  16.782  11.488
68873W        W33858  43.179  34.695  12.867
68874W        W33859  29.079  33.417  13.890
68875W        W33860   5.829  15.313  11.910
68876W        W33861  15.398  29.498   0.687
68877W        W33862   7.357   9.152   1.177
68878W        W33863  17.295  31.912  14.481
68879W        W33864  22.431  23.603   2.730
68880W        W33865   4.471  12.621  12.473
68881W        W33866   5.445  23.507  14.893
68882W        W33867  23.706  36.011  11.968
68883W        W33868   7.418  26.642   0.150
68884W        W33869   4.925   6.856   2.672
68885W        W33870  29.810   8.529  13.066
68886W        W33871  41.156  25.539   1.457
68887W        W33872  14.124  28.350   1.349
68888W        W33873   3.895  35.856   0.373
68889W        W33874  26.491  42.002   4.909
68890W        W33875  18.895  21.317   3.427
68891W        W33876   4.247  44.355   0.924
68892W        W33877   8.678   5.603  12.462
68893W        W33878   4.677   0.960  12.072
68894W        W33879   5.660  35.499   1.858
68895W        W33880   1.197  44.315  14.517
68896W        W33881  37.244  18.833  12.039
68897W        W33882  40.983  43.580   2.829
68898W        W33883  42.911  43.262  14.981
68899W        W33884  32.041   2.905  12.192
68900W        W33885  37.622  10.948   4.220
68901W        W33886  17.624   5.364   1.807
68902W        W33887   1.523  43.220  12.385
68903W        W33888  12.873  30.580   3.323
68904W        W33889  11.229   3.412  12.099
68905W        W33890  15.889  43.669  10.975
68906W        W33891  25.689  35.177   3.309
68907W        W33892  29.028  35.161   1.749
68908W        W33893  36.548  24.112   0.943
68909W        W33894   5.936  19.212  14.789
68910W        W33895  16.799  23.220   9.964
68911W        W33896  36.511  10.083   0.409
68912W        W33897  36.463  32.852  14.976
68913W        W33898  29.055  26.194   0.082
68914W        W33899  15.270  44.544  12.070
68915W        W33900  23.047  30.362  12.955
68916W        W33901  20.668   7.170  14.551
68917W        W33902   6.700   8.134   4.515
68918W        W33903  17.183  41.013   1.551
68919W        W33904  16.724  12.229  14.159
68920W        W33905  12.140  27.828   1.399
68921W        W33906  24.621  22.653  13.929
68922W        W33907  42.946   3.615   0.370
68923W        W33908  38.822  11.139  10.705
68924W        W33909   0.308  26.394  12.539
68925W        W33910  24.538  41.851  11.104
68926W        W33911  14.912  31.086   0.398
68927W        W33912   0.259   4.920   2.145
68928W        W33913  28.841  26.520   1.397
68929W        W33914  14.914   3.125  11.530
68930W        W33915  40.834  32.446   3.614
68931W        W33916   4.652   2.349   0.494
68932W        W33917   9.440  40.124   0.443
68933W        W33918  31.228  38.498  10.549
68934W        W33919  15.785   7.248  12.953
68935W        W33920  40.950  37.007   2.861
68936W        W33921  43.101   9.393   0.023
68937W        W33922  33.995  16.568   2.227
68938W        W33923  32.624   3.457   4.063
68939W        W33924  17.215  37.270   1.803
68940W        W33925  14.080  41.807  12.854
68941W        W33926  10.058  42.324  12.007
68942W        W33927  37.289  31.973   1.786
68943W        W33928  22.520   7.669  10.476
68944W        W33929  18.625  17.186  11.219
68945W        W33930  29.130  10.766  13.602
68946W        W33931   0.416  29.475   2.398
68947W        W33932  20.650  34.092   4.481
68948W        W33933  20.599  36.977   4.920
68949W        W33934  17.801  36.979   2.893
68950W        W33935  31.062  26.279  10.748
68951W        W33936   4.684  17.352  12.127
68952W        W33937  38.926   5.938   0.479
68953W        W33938   3.272  23.441  10.776
68954W        W33939   5.967  10.311  12.950
68955W        W33940   1.369  39.502   0.741
68956W        W33941  31.499  32.171   2.285
68957W        W33942  21.104   4.389  11.055
68958W        W33943  41.858  27.727   0.054
68959W        W33944   4.368  29.457  11.511
68960W        W33945  35.405  27.931   4.580
68961W        W33946  12.408  40.120   1.808
68962W        W33947  41.084  29.169   0.389
68963W        W33948   8.738  25.074   0.930
68964W        W33949  32.554  34.449   4.641
68965W        W33950  12.385  38.519  13.979
68966W        W33951  22.170  26.135   0.687
68967W        W33952  26.702   2.780  13.658
68968W        W33953  28.942  23.607   3.676
68969W        W33954   7.684  29.724   3.024
68970W        W33955  13.888   7.778  12.045
68971W        W33956  44.303  37.966   2.385
68972W        W33957  30.648  22.091  14.490
68973W        W33958  18.781  14.879  14.826
68974W        W33959  23.137  30.446   2.442
68975W        W33960  42.998  33.035   2.367
68976W        W33961  23.749  10.615   0.925
68977W        W33962  27.146  44.933  13.513
68978W        W33963  14.585  41.782   3.174
68979W        W33964  29.979  38.734  10.687
68980W        W33965  33.327   1.364  12.328
68981W        W33966  14.447  26.894   4.608
68982W        W33967  15.610  39.027   1.802
68983W        W33968  23.007  28.996   0.603
68984W        W33969  40.519  30.095   0.904
68985W        W33970  38.492  15.798   1.736
68986W        W33971  42.938   6.445   0.564
68987W        W33972  29.956  22.282   4.818
68988W        W33973  24.021   3.326   1.944
68989W        W33974  44.377  35.856   1.397
68990W        W33975   3.613  14.094  13.818
68991W        W33976   6.975  34.971  11.550
68992W        W33977   9.928  30.115  12.012
68993W        W33978  11.975  17.102   1.373
68994W        W33979  40.094  36.461  13.098
68995W        W33980  25.675  16.820  13.397
68996W        W33981  29.957  35.190  13.554
68997W        W33982  34.474  13.799  12.064
68998W        W33983  23.544  30.587  11.042
68999W        W33984  44.728  13.613  13.895
69000W        W33985   2.717  29.169   0.425
69001W        W33986  11.810  44.986  10.797
69002W        W33987   0.814   4.692  11.550
69003W        W33988  28.928  23.911   1.195
69004W        W33989   3.844   2.689  11.570
69005W        W33990  20.235   2.784   1.466
69006W        W33991  23.058  44.966   2.834
69007W        W33992  29.248   0.718   4.233
69008W        W33993  26.123  31.772   1.988
69009W        W33994  20.469  17.276   2.330
69010W        W33995  26.624  32.728   4.517
69011W        W33996  20.626  11.854   3.120
69012W        W33997  22.643  36.875   1.515
69013W        W33998  11.765  39.258   3.725
69014W        W33999  41.318  13.634   2.862
69015W        W34000  34.607  44.063   1.159
69016W        W34001  11.459  35.052   2.239
69017W        W34002  27.085  27.474  13.577
69018W        W34003  18.010  27.632   0.103
69019W        W34004  13.917  22.139   3.348
69020W        W34005   0.287  17.805  10.184
69021W        W34006   5.676  17.040  11.160
69022W        W34007  10.592   8.833  14.813
69023W        W34008  25.122  37.527  12.572
69024W        W34009  20.649  13.602  11.127
69025W        W34010  33.360  14.362  10.040
69026W        W34011  30.056  11.873  13.361
69027W        W34012  29.793  25.110   1.845
69028W        W34013  13.749  31.135  14.809
69029W        W34014  28.911  32.921  12.446
69030W        W34015  38.042  12.514  11.661
69031W        W34016  32.160  13.550  13.336
69032W        W34017  25.924  27.234   4.059
69033W        W34018   8.059   8.299   0.276
69034W        W34019  29.112  15.736   0.635
69035W        W34020  18.358   1.366  10.732
69036W        W34021   6.744   8.647   4.468
69037W        W34022  30.217  14.812   0.278
69038W        W34023   1.770  16.792   1.397
69039W        W34024  38.930  31.637  10.496
69040W        W34025  31.797  12.094  13.093
69041W        W34026  35.249  42.904   0.445
69042W        W34027  25.653  42.041  14.430
69043W        W34028  13.184  11.192   4.915
69044W        W34029   9.538   6.759  10.322
69045W        W34030  11.913  39.864  12.008
69046W        W34031  29.479  10.051   0.909
69047W        W34032  23.606  19.755   1.851
69048W        W34033  28.168  15.943  11.753
69049W        W34034  33.512  10.924   3.183
69050W        W34035  21.504   7.181  11.462
69051W        W34036   5.020  23.818   2.747
69052W        W34037  40.598  21.156  12.955
69053W        W34038  22.403  24.272   3.319
69054W        W34039   4.807  24.905   1.435
69055W        W34040  14.114  33.544  11.547
69056W        W34041  37.280   5.343  12.825
69057W        W34042  22.319  14.086  11.125
69058W        W34043   2.672   8.650   4.883
69059W        W34044  17.048  25.136   0.845
69060W        W34045  24.070   9.022   3.405
69061W        W34046  19.629  11.310  10.678
69062W        W34047  21.663   4.911  14.540
69063W        W34048  38.887   7.695   0.385
69064W        W34049  39.956  33.847   1.925
69065W        W34050  36.882  31.891  14.418
69066W        W34051   9.775  31.587   2.949
69067W        W34052   9.651  25.240   2.719
69068W        W34053  15.319  24.684  11.136
69069W        W34054  18.617  14.067   1.357
69070W        W34055   3.143   4.842   2.371
69071W        W34056  24.598   1.076  10.175
69072W        W34057  40.504  40.332   4.580
69073W        W34058   7.720  24.573  12.990
69074W        W34059   0.817  10.227  13.030
69075W        W34060  11.839   0.279  11.261
69076W        W34061   9.368  28.186   0.405
69077W        W34062  24.740  22.980   3.163
69078W        W34063  16.724   6.421  10.158
69079W        W34064   6.890  25.135   2.250
69080W        W34065  14.725  23.754   0.252
69081W        W34066  20.138  20.271  14.839
69082W        W34067   7.887  37.610   1.776
69083W        W34068  17.308  26.111  10.699
69084W        W34069  33.468  21.330   0.900
69085W        W34070  12.174  14.591  14.886
69086W        W34071  34.389  44.219   4.154
69087W        W34072  13.099   1.180   5.007
69088W        W34073  29.259  31.647   3.357
69089W        W34074  40.857  15.444   9.922
69090W        W34075  38.516  31.975  14.042
69091W        W34076   1.520  35.931  11.557
69092W        W34077  39.420  14.083  14.857
69093W        W34078  29.563  28.935   0.273
69094W        W34079  26.575  23.254  11.879
69095W        W34080  39.837   3.252  13.905
69096W        W34081  30.523  39.127  12.079
69097W        W34082  35.958   3.461   4.204
69098W        W34083  31.213  38.996  10.710
69099W        W34084  14.534   1.756   0.291
69100W        W34085  34.538  12.748   3.817
69101W        W34086  24.562  28.028   0.689
69102W        W34087  19.091   6.203   2.347
69103W        W34088   4.990   2.303   2.216
69104W        W34089  16.165  21.258  11.514
69105W        W34090  11.719  30.450  13.032
69106W        W34091   7.513  30.542  12.465
69107W        W34092   7.486   2.666  11.431
69108W        W34093  28.443  32.537  10.624
69109W        W34094  30.299  23.915  14.881
69110W        W34095  30.475  32.903   0.961
69111W        W34096  15.434  21.375   2.569
69112W        W34097  39.007   5.333  11.124
69113W        W34098  34.888  31.526  11.201
69114W        W34099  22.444  26.441   2.766
69115W        W34100   4.513  27.729   1.213
69116W        W34101  15.624   3.924   3.400
69117W        W34102   0.011  13.739   3.223
69118W        W34103  41.964  31.461   1.993
69119W        W34104  14.594  24.739   0.391
69120W        W34105  31.526   4.438   1.421
69121W        W34106  17.656   0.701   0.893
69122W        W34107  41.372  40.779   2.829
69123W        W34108  39.495   9.329   4.473
69124W        W34109  38.413  32.071   4.201
69125W        W34110  15.609  36.874   4.783
69126W        W34111  22.920  16.195  11.568
69127W        W34112   9.482  17.814  11.542
69128W        W34113   3.953   1.256  10.713
69129W        W34114  24.143  37.255   2.137
69130W        W34115  13.602  21.434   3.892
69131W        W34116  42.787  20.443  10.066
69132W        W34117  11.150  29.099   4.064
69133W        W34118  16.291  42.469  13.524
69134W        W34119  41.385  17.344   1.822
69135W        W34120  36.604  34.083  10.917
69136W        W34121  28.073  31.465  12.909
69137W        W34122  17.758  22.173   0.881
69138W        W34123  25.742  22.977  13.473
69139W        W34124   5.748  24.593  13.968
69140W        W34125  17.736  10.260  11.499
69141W        W34126   6.440  23.694  10.736
69142W        W34127  10.576   6.708   0.467
69143W        W34128  11.886  38.177  11.888
69144W        W34129  30.691  38.445   3.936
69145W        W34130   6.369  43.899   4.305
69146W        W34131  23.294  12.144   3.541
69147W        W34132   6.585  40.521  14.022
69148W        W34133  18.920  32.153   0.801
69149W        W34134  26.738  27.042  13.496
69150W        W34135  17.333   3.140   4.981
69151W        W34136  16.822  15.762   3.782
69152W        W34137  12.848   3.660  14.928
69153W        W34138  32.153   6.468   0.911
69154W        W34139   5.783   6.682   2.127
69155W        W34140  12.567  25.684   1.302
69156W        W34141  42.518  34.706   1.195
69157W        W34142  44.814  12.740  12.444
69158W        W34143  16.802  15.863  11.632
69159W        W34144  31.956   1.386   1.711
69160W        W34145  14.399   7.127   1.102
69161W        W34146  12.870  26.059   4.696
69162W        W34147  26.216  18.130   2.781
69163W        W34148   9.924  28.034  14.448
69164W        W34149  43.342  41.583   4.526
69165W        W34150  17.936  12.549  12.459
69166W        W34151  22.496   2.864   1.696
69167W        W34152   7.518  18.972   3.811
69168W        W34153  17.848   1.547  10.685
69169W        W34154  16.046  17.724  11.466
69170W        W34155  20.225  27.602  10.398
69171W        W34156  40.928  20.677   4.551
69172W        W34157  12.844  18.645   3.271
69173W        W34158   9.771  10.427   4.601
69174W        W34159   3.448  34.844  14.152
69175W        W34160  19.133  31.337   2.808
69176W        W34161  44.429  43.241   1.119
69177W        W34162  43.902  11.255   4.037
69178W        W34163  36.860  38.030   3.922
69179W        W34164  24.110  32.465   3.507
69180W        W34165  22.259  19.942   2.101
69181W        W34166  13.209  31.847  14.555
69182W        W34167  29.223  32.999   0.824
69183W        W34168   9.666  29.768  12.877
69184W        W34169  15.791  13.140  13.906
69185W        W34170  17.479   2.755   3.305
69186W        W34171  29.187  17.152   3.668
69187W        W34172   7.145   8.268  13.446
69188W        W34173   2.508  31.456  12.103
69189W        W34174  38.959  29.078  11.798
69190W        W34175  34.562  23.053   0.365
69191W        W34176  12.639  31.431   2.778
69192W        W34177  27.244  14.750   3.620
69193W        W34178  31.822  40.522   1.947
69194W        W34179  41.288  33.100   3.665
69195W        W34180  43.612   2.017  10.945
69196W        W34181  21.081   3.075   4.039
69197W        W34182  14.438  18.343   0.267
69198W        W34183  24.524  30.998  12.088
69199W        W34184   6.413   9.767   3.702
69200W        W34185  11.514  23.929   2.636
69201W        W34186   6.722  29.823   0.187
69202W        W34187  17.740  41.413   3.749
69203W        W34188  44.878  10.187  12.886
69204W        W34189  14.693   3.605   2.236
69205W        W34190  18.803  40.334   3.365
69206W        W34191  25.571  36.232  11.884
69207W        W34192   4.395  23.032   1.001
69208W        W34193  24.256  36.426  13.716
69209W        W34194  44.469   6.276   3.877
69210W        W34195  11.343   7.084  12.609
69211W        W34196  11.259  31.307  14.812
69212W        W34197  22.738  33.961   0.554
69213W        W34198   8.615  38.834   2.875
69214W        W34199  40.559  17.564   0.481
69215W        W34200   0.689   7.779   1.296
69216W        W34201  26.513  21.324   0.397
69217W        W34202  24.186   8.631  11.635
69218W        W34203  12.310   0.930  13.815
69219W        W34204  18.245   6.997   2.372
69220W        W34205   0.957  18.583  11.609
69221W        W34206  11.246  32.009   4.315
69222W        W34207  41.060  21.072  12.683
69223W        W34208   8.346   1.199  11.860
69224W        W34209   6.276   9.332  11.233
69225W        W34210  31.678  36.848  13.443
69226W        W34211  11.118  20.562  12.174
69227W        W34212  40.032  20.276   2.438
69228W        W34213  20.233  29.990   1.387
69229W        W34214  42.736  22.149   4.604
69230W        W34215  24.041  38.326  14.851
69231W        W34216  42.259  21.229   2.265
69232W        W34217  44.409   6.768   0.003
69233W        W34218   4.617   4.915  11.204
69234W        W34219  33.235  26.733   4.184
69235W        W34220  14.732  35.869  14.981
69236W        W34221  21.446   9.180  11.954
69237W        W34222   9.695   4.042   2.608
69238W        W34223  34.517  18.356  14.724
69239W        W34224  34.598  26.037  10.444
69240W        W34225  32.233  20.322   2.298
69241W        W34226  22.832  33.215  11.578
69242W        W34227  30.405  41.483  13.325
69243W        W34228  19.895  13.312  14.458
69244W        W34229  35.795  23.537  12.060
69245W        W34230  36.600  32.436   1.682
69246W        W34231  21.195  24.632   0.261
69247W        W34232  33.209  19.145   4.206
69248W        W34233  44.656   7.115  11.012
69249W        W34234  18.730  23.979   0.674
69250W        W34235  21.063  34.134   1.191
69251W        W34236  13.234   1.244   4.095
69252W        W34237  42.313  29.025   2.875
69253W        W34238   0.052  18.224  12.648
69254W        W34239  16.800   4.182   2.797
69255W        W34240  24.046  32.181  14.617
69256W        W34241  17.774   0.941  12.541
69257W        W34242  31.160   1.162   5.714
69258W        W34243  32.413  41.472  13.025
69259W        W34244  24.597  37.566   4.652
69260W        W34245  20.168  21.755   3.603
69261W        W34246  34.688  15.440  13.943
69262W        W34247  18.622  18.633  14.466
69263W        W34248  29.480  42.318  12.031
69264W        W34249  26.684  19.324  13.402
69265W        W34250  15.719   8.932  12.525
69266W        W34251   3.421  21.240   2.649
69267W        W34252   2.917  16.191   3.893
69268W        W34253  35.021  24.249   4.770
69269W        W34254   3.360  15.830   0.945
69270W        W34255  19.612  14.143  11.165
69271W        W34256  11.603  25.964   3.194
69272W        W34257  38.420  42.967   2.616
69273W        W34258   9.118  11.693  10.688
69274W        W34259  24.063  25.123   3.302
69275W        W34260  25.611  24.549   3.636
69276W        W34261  22.645  13.222  13.374
69277W        W34262  37.858  21.636  11.600
69278W        W34263  12.397  35.177  10.738
69279W        W34264   4.834  14.123  12.751
69280W        W34265  44.697  11.414  11.187
69281W        W34266   3.794  26.986  13.389
69282W        W34267  36.509  28.830   0.539
69283W        W34268  18.354  41.128   3.421
69284W        W34269  33.216   4.696  11.540
69285W        W34270  32.166  18.146   0.049
69286W        W34271  27.102  41.066  13.506
69287W        W34272  29.910   0.823  13.925
69288W        W34273   9.363   6.515  11.536
69289W        W34274   5.162  40.069  12.783
69290W        W34275  41.787  27.730  10.860
69291W        W34276  23.034  20.064  11.054
69292W        W34277  12.162   0.535   1.784
69293W        W34278  42.485  22.693   2.666
69294W        W34279  28.010   9.798   3.606
69295W        W34280  13.202  39.087  10.248
69296W        W34281   3.712   1.226  14.576
69297W        W34282   3.138  13.185   2.768
69298W        W34283  10.034  20.055  11.449
69299W        W34284   8.745  42.587  13.460
69300W        W34285  10.822  29.024  14.990
69301W        W34286   9.059  16.747  14.445
69302W        W34287  18.673  34.119  14.291
69303W        W34288  19.175  43.467  13.347
69304W        W34289  33.523  29.437   4.569
69305W        W34290  19.604   3.089  14.360
69306W        W34291  19.037  34.927   1.497
69307W        W34292  17.552  10.308   3.304
69308W        W34293  41.612   1.833   1.881
69309W        W34294  33.337   6.299   0.328
69310W        W34295  20.165  14.795   2.367
69311W        W34296  11.076  25.105  14.868
69312W        W34297  23.649   5.828   2.687
69313W        W34298   4.201  12.206   4.601
69314W        W34299  13.683  36.674   3.021
69315W        W34300  32.285  17.501  12.439
69316W        W34301   5.776   7.783   3.752
69317W        W34302  40.105   0.073  13.718
69318W        W34303   2.858  33.333   3.166
69319W        W34304  23.232  37.329   3.211
69320W        W34305  31.156   1.809  11.377
69321W        W34306  26.866  38.822   5.019
69322W        W34307  37.336  28.993   2.309
69323W        W34308  36.005  16.280   3.866
69324W        W34309  23.615  10.585  13.895
69325W        W34310  20.936  22.087  14.929
69326W        W34311   4.503   0.976   2.210
69327W        W34312   9.677  23.280  11.571
69328W        W34313  27.147  36.253  11.193
69329W        W34314  20.014  29.304  11.000
69330W        W34315  23.386  44.270   3.210
69331W        W34316  36.560  31.383   1.775
69332W        W34317  31.688  22.617   3.041
69333W        W34318  12.970   7.519   0.822
69334W        W34319   7.088   5.826   3.606
69335W        W34320  40.654  43.266  11.194
69336W        W34321  21.632  13.765  13.474
69337W        W34322  23.637  11.912   2.825
69338W        W34323  12.722  34.219  12.979
69339W        W34324  44.459  18.756  11.138
69340W        W34325  38.828  20.428   2.196
69341W        W34326   4.787   6.442  13.617
69342W        W34327  40.058   8.789  14.549
69343W        W34328  36.578   8.407   4.233
69344W        W34329  10.343  16.560  13.991
69345W        W34330  26.005  44.549  10.834
69346W        W34331   7.289  43.748  11.107
69347W        W34332  18.308  24.223   0.907
69348W        W34333  38.002  16.572   2.741
69349W        W34334  42.835   8.397   5.086
69350W        W34335  31.626  19.136  10.593
69351W        W34336  16.577  23.534  10.623
69352W        W34337   2.466  31.975  14.304
69353W        W34338  21.737  28.506   3.220
69354W        W34339  28.682  21.120   1.985
69355W        W34340  18.183   4.931  13.418
69356W        W34341  33.494  15.922   2.309
69357W        W34342  39.728  12.233   4.514
69358W        W34343  25.744  33.710   2.273
69359W        W34344   8.497  11.409  11.270
69360W        W34345  22.574  18.530  12.922
69361W        W34346   6.257  12.691  12.551
69362W        W34347  18.336  27.230  14.863
69363W        W34348   8.808  15.146   4.253
69364W        W34349  10.075   1.152  11.625
69365W        W34350  16.061  34.049  14.394
69366W        W34351  16.618  27.240   0.306
69367W        W34352  24.908  20.275  11.923
69368W        W34353  34.483  44.691   4.738
69369W        W34354  18.207   2.846  14.394
69370W        W34355   1.750  26.014   3.259
69371W        W34356  17.068  37.481   3.121
69372W        W34357   7.428  21.072   4.213
69373W        W34358  28.056   5.485   1.532
69374W        W34359  26.702  20.595   4.807
69375W        W34360  13.208  42.030  12.351
69376W        W34361  18.596  19.218   1.691
69377W        W34362   8.120  10.965  11.968
69378W        W34363   5.097  34.516  12.398
69379W        W34364  28.521  26.743   0.093
69380W        W34365  24.145  15.797  14.368
69381W        W34366  22.628   3.694   4.310
69382W        W34367  22.127  40.521   1.538
69383W        W34368   7.785  38.392   3.166
69384W        W34369  17.398  39.446  12.058
69385W        W34370   5.638  21.027   1.641
69386W        W34371  43.042  11.830   1.398
69387W        W34372  15.574  17.679   2.608
69388W        W34373  36.881  30.956   1.761
69389W        W34374  12.634  17.345   3.077
69390W        W34375   0.179  26.639   2.074
69391W        W34376  12.696  15.717  14.856
69392W        W34377  16.816  12.580  11.557
69393W        W34378   7.481  36.880   0.972
69394W        W34379  40.999  38.100  12.404
69395W        W34380   2.235  15.320   4.312
69396W        W34381  14.759  14.343   5.046
69397W        W34382  21.811   3.282   2.345
69398W        W34383  38.094  14.283   0.262
69399W        W34384   9.619  37.604   1.625
69400W        W34385  28.385  16.835   3.498
69401W        W34386  34.640  19.087  11.575
69402W        W34387   3.443   0.479  11.014
69403W        W34388   7.165  40.514  12.861
69404W        W34389  19.832  34.093   0.234
69405W        W34390  12.904   1.759  11.484
69406W        W34391   0.793  14.305  14.723
69407W        W34392  30.529  42.523  10.950
69408W        W34393  44.257  25.149  11.569
69409W        W34394  22.735  38.857  10.359
69410W        W34395   7.445  17.679   4.167
69411W        W34396  17.642  34.798   4.097
69412W        W34397  15.769  31.171  13.338
69413W        W34398   3.331  13.222   1.449
69414W        W34399  18.515  18.732   1.426
69415W        W34400   4.726  39.414   0.345
69416W        W34401  32.585  16.274   0.318
69417W        W34402  33.001  43.015   2.395
69418W        W34403  32.170  28.680   2.152
69419W        W34404   2.701  15.559   2.752
69420W        W34405   8.968  17.103   3.128
69421W        W34406   6.304  43.009   4.568
69422W        W34407  29.885   4.026   0.919
69423W        W34408   8.712  37.670   3.693
69424W        W34409  27.470  39.508   4.120
69425W        W34410  21.782   3.363  12.010
69426W        W34411  29.347  37.032   4.682
69427W        W34412   1.620  40.428  14.325
69428W        W34413  42.295   8.321   3.383
69429W        W34414  36.173  31.658  11.505
69430W        W34415  19.297   9.087  14.002
69431W        W34416  16.862  21.315  12.002
69432W        W34417  25.125  17.978  13.294
69433W        W34418   5.660  19.567  13.375
69434W        W34419  44.051  23.480  10.299
69435W        W34420  37.766  33.771  13.368
69436W        W34421   3.790  23.023  14.207
69437W        W34422  44.254   1.354   1.953
69438W        W34423   4.056   7.776  10.591
69439W        W34424  33.438  28.403  12.663
69440W        W34425  44.765  33.579   1.941
69441W        W34426  35.297  30.397   3.879
69442W        W34427  40.906  30.177  10.727
69443W        W34428   8.091  13.735  12.028
69444W        W34429  22.676  29.028  11.227
69445W        W34430   4.602  36.878  13.489
69446W        W34431  13.622  18.914  13.377
69447W        W34432  31.435   7.166  11.100
69448W        W34433  35.181   6.409  12.023
69449W        W34434  17.541  38.245  12.333
69450W        W34435  18.827  31.203   4.972
69451W        W34436  41.397  25.480  13.720
69452W        W34437  42.274  32.275   0.380
69453W        W34438  25.443  10.668  11.532
69454W        W34439  23.535  33.134  13.446
69455W        W34440   2.962   7.728   3.848
69456W        W34441  31.058   9.887  11.985
69457W        W34442   9.497  38.770   3.255
69458W        W34443  33.657  27.746   1.374
69459W        W34444  11.845  44.989   4.321
69460W        W34445   6.937  11.230   1.471
69461W        W34446  20.661  35.191  14.323
69462W        W34447  16.142  42.876  14.929
69463W        W34448  27.608  28.976   2.670
69464W        W34449  39.968  35.912  10.956
69465W        W34450  33.365   1.961   4.232
69466W        W34451  15.076  30.522  13.862
69467W        W34452  16.702  37.089  13.948
69468W        W34453   5.902  21.060  14.855
69469W        W34454   8.796  16.122   2.143
69470W        W34455  34.946  13.204  13.483
69471W        W34456  19.424  23.556  13.864
69472W        W34457   8.238  42.690  12.948
69473W        W34458  27.571  22.231   4.752
69474W        W34459   5.680   1.244  11.089
69475W        W34460  35.299   7.298  12.601
69476W        W34461   2.708  43.322   2.095
69477W        W34462  10.722  41.513   1.211
69478W        W34463  25.870  44.449  12.502
69479W        W34464  32.163  33.534   1.265
69480W        W34465  38.685  29.020   0.192
69481W        W34466   8.351   8.876  13.095
69482W        W34467  24.156  29.268  10.664
69483W        W34468  32.523  10.713  11.983
69484W        W34469   6.324  33.260  13.318
69485W        W34470   2.310   8.833  11.540
69486W        W34471  12.747  31.108   2.222
69487W        W34472  17.254  23.601   2.159
69488W        W34473  20.537  28.942  11.085
69489W        W34474  38.202   2.271   4.692
69490W        W34475  17.250  32.382  11.450
69491W        W34476  31.075  21.502  11.369
69492W        W34477  26.490  42.529  12.582
69493W        W34478  22.898  16.976   3.115
69494W        W34479  34.165  10.309   1.866
69495W        W34480  39.383  36.863   0.906
69496W        W34481  43.288  20.178  14.871
69497W        W34482  19.212   4.266   1.661
69498W        W34483  18.145   0.847  10.777
69499W        W34484  36.834   2.469  11.187
69500W        W34485  39.518  14.820   1.885
69501W        W34486   3.838  33.429  12.798
69502W        W34487  33.195  23.499  11.228
69503W        W34488  20.585  16.762   1.418
69504W        W34489   7.386   5.745   3.170
69505W        W34490   6.039  36.444   3.284
69506W        W34491  34.829   1.322   3.795
69507W        W34492   9.619   8.674  11.090
69508W        W34493   9.660  43.554   2.149
69509W        W34494  39.284   2.696   2.690
69510W        W34495  11.740  28.160   2.642
69511W        W34496  14.743  27.957  12.992
69512W        W34497  26.610  44.004   2.644
69513W        W34498  26.025  43.523  13.528
69514W        W34499  32.081  15.826   2.064
69515W        W34500  44.743   2.224   2.384
69516W        W34501   6.719  32.208   0.918
69517W        W34502  34.099  33.164  14.481
69518W        W34503  43.575  32.544   0.574
69519W        W34504   1.331  26.147  12.361
69520W        W34505  16.643  21.281   3.596
69521W        W34506   6.186  30.034   2.618
69522W        W34507  37.874  17.350   3.175
69523W        W34508  38.852  43.449   3.585
69524W        W34509   1.812  14.238   4.422
69525W        W34510  37.086  28.361  12.378
69526W        W34511   1.118   7.930  12.617
69527W        W34512  25.885  43.779  13.069
69528W        W34513  41.973  13.393   1.392
69529W        W34514  34.339   1.419   0.238
69530W        W34515  16.220  23.691   4.059
69531W        W34516  12.223  28.265  14.378
69532W        W34517  24.129  21.294   3.225
69533W        W34518  34.047  27.077  14.918
69534W        W34519  28.308  13.239   5.066
69535W        W34520  15.416  17.969  12.088
69536W        W34521   8.828   4.986   5.085
69537W        W34522  26.440  34.950  11.027
69538W        W34523  35.480  37.591   3.934
69539W        W34524  23.745  22.623  10.189
69540W        W34525  17.210  40.571   2.835
69541W        W34526  37.874   3.278   5.068
69542W        W34527  15.849  34.803  12.366
69543W        W34528  26.962  26.715  13.879
69544W        W34529  33.182  25.075   0.952
69545W        W34530  40.934  15.634  11.944
69546W        W34531  10.987  39.886  14.420
69547W        W34532  16.559   9.817   2.359
69548W        W34533  15.764  34.699  11.066
69549W        W34534   4.247   1.426  11.908
69550W        W34535  17.704  43.443   1.780
69551W        W34536  33.582  15.720   3.180
69552W        W34537  42.880  19.788  14.030
69553W        W34538  18.691  29.027   0.640
69554W        W34539  20.549  15.406  10.784
69555W        W34540  11.323  36.986  11.512
69556W        W34541  17.809  39.208   3.261
69557W        W34542  31.053  21.112  10.668
69558W        W34543  26.237  24.637  13.417
69559W        W34544  19.320  25.319   3.333
69560W        W34545  16.047  18.277   3.001
69561W        W34546  35.005  30.117   1.134
69562W        W34547  36.346  20.444   4.592
69563W        W34548  26.700   9.415  11.404
69564W        W34549  13.270  40.585  12.666
69565W        W34550   5.776  29.225   1.716
69566W        W34551  40.952  21.007  11.131
69567W        W34552  33.941  24.013  12.852
69568W        W34553  22.164   2.954   4.672
69569W        W34554  32.163  37.840   4.034
69570W        W34555  24.917  24.550   4.724
69571W        W34556  13.609  36.924  12.885
69572W        W34557  19.756   5.887  11.484
69573W        W34558  24.370  20.615  11.168
69574W        W34559  40.396  22.958  13.360
69575W        W34560  22.727  31.064  14.799
69576W        W34561  35.363  19.697   2.754
69577W        W34562  13.119  35.615  13.915
69578W        W34563   5.167   7.725  14.498
69579W        W34564  43.485   9.961   0.753
69580W        W34565  19.697  41.170  10.837
69581W        W34566  41.468  29.488   3.444
69582W        W34567  33.543  17.844   1.220
69583W        W34568   8.331  27.755  10.958
69584W        W34569  27.960   4.316   0.748
69585W        W34570  19.517   0.683   2.700
69586W        W34571   3.239  42.989  14.112
69587W        W34572  22.233  29.972  13.506
69588W        W34573  28.128  21.744   0.255
69589W        W34574  40.894  44.815  10.744
69590W        W34575  28.343  31.087  13.613
69591W        W34576  24.017  12.149   2.583
69592W        W34577  19.229  38.527   3.337
69593W        W34578  20.170  22.996  13.407
69594W        W34579  13.158   4.807   1.228
69595W        W34580  35.588  38.579  12.079
69596W        W34581   2.988  10.963   1.883
69597W        W34582  34.290  39.472  14.731
69598W        W34583   2.006  16.596  12.122
69599W        W34584  41.284  16.006   2.274
69600W        W34585  13.004   2.367   1.253
69601W        W34586  13.831  27.421  12.992
69602W        W34587   4.854   5.758   0.350
69603W        W34588  10.745  13.341  11.792
69604W        W34589   7.336  14.355  12.430
69605W        W34590   8.136  20.530  14.997
69606W        W34591  20.279  37.222  12.453
69607W        W34592  41.006  31.253  10.742
69608W        W34593   4.134   5.435  12.829
69609W        W34594  15.852  11.176  13.320
69610W        W34595  11.696  36.020   0.827
69611W        W34596  41.934  38.418  14.975
69612W        W34597  17.314  32.295  13.528
69613W        W34598   8.475   9.990  10.183
69614W        W34599  38.494  40.837   4.049
69615W        W34600  30.108   0.403   2.806
69616W        W34601  20.717  19.765   3.322
69617W        W34602  29.141  21.613   4.092
69618W        W34603   6.269  37.133  12.198
69619W        W34604  31.477  25.038  11.861
69620W        W34605   4.321  25.088   0.743
69621W        W34606  20.807  29.496  14.538
69622W        W34607  14.128  31.869  13.856
69623W        W34608  20.187   5.565   3.738
69624W        W34609  35.972  27.946  11.619
69625W        W34610  34.023  19.895  11.287
69626W        W34611  21.058   9.399  12.200
69627W        W34612  44.003  28.626  13.777
69628W        W34613  42.264  13.787   3.696
69629W        W34614  15.684   1.659   1.170
69630W        W34615  42.573  18.956   3.726
69631W        W34616  19.255   7.150   0.004
69632W        W34617   4.493  17.178  14.775
69633W        W34618  40.650  21.158  13.545
69634W        W34619  34.960  35.095   1.127
69635W        W34620  19.175   7.889   4.101
69636W        W34621  22.474  41.274   4.221
69637W        W34622  21.616  19.287   3.670
69638W        W34623   7.375   3.657   3.598
69639W        W34624  21.697  20.281  11.218
69640W        W34625  40.043  31.875   3.651
69641W        W34626  34.277  40.805   0.800
69642W        W34627  17.169  42.011   3.338
69643W        W34628  25.741  15.835  14.485
69644W        W34629  12.919  40.166   1.696
69645W        W34630  26.660   1.232   4.041
69646W        W34631  23.191  10.320  14.071
69647W        W34632  43.938  15.647   0.502
69648W        W34633  38.985   0.228   3.357
69649W        W34634  37.591  35.768  10.566
69650W        W34635  29.659   9.457  10.711
69651W        W34636  27.075  24.719  11.411
69652W        W34637  38.087  19.290  14.845
69653W        W34638  27.992  12.492  13.787
69654W        W34639  43.274  15.555   4.202
69655W        W34640   9.153  34.316  13.961
69656W        W34641  44.029  11.228   2.629
69657W        W34642   3.804  42.766  12.462
69658W        W34643  12.117  10.544   0.603
69659W        W34644  11.591  35.513  14.489
69660W        W34645  41.207  15.656   1.305
69661W        W34646   0.492  38.660   0.071
69662W        W34647  16.225  16.011  11.112
69663W        W34648   7.132  23.111  12.387
69664W        W34649  25.534  18.647   2.501
69665W        W34650  13.178   9.916  10.473
69666W        W34651  31.961  15.358   1.816
69667W        W34652  16.283   4.170   2.794
69668W        W34653  43.196   5.941   2.271
69669W        W34654  13.345  42.882  14.194
69670W        W34655  42.334  41.858  10.733
69671W        W34656  44.098  13.172  11.444
69672W        W34657  18.227   5.689  13.891
69673W        W34658  26.984  22.304  14.781
69674W        W34659   2.128  29.085   3.327
69675W        W34660  23.731  21.704  11.024
69676W        W34661   9.919  18.840  12.982
69677W        W34662   1.483  24.028  12.398
69678W        W34663  16.959   3.944   0.408
69679W        W34664  15.756  14.353  14.001
69680W        W34665  20.220   8.354  13.519
69681W        W34666   8.753  37.874   4.523
69682W        W34667   2.692  16.605  14.986
69683W        W34668  35.376  21.934   1.848
69684W        W34669  34.965  36.862  10.611
69685W        W34670  36.084  25.468   4.627
69686W        W34671   3.022  20.988   4.220
69687W        W34672  25.231  21.520   0.725
69688W        W34673  10.278   3.885   0.967
69689W        W34674  41.029   2.592   4.520
69690W        W34675  31.507  26.667   2.364
69691W        W34676  25.968  23.153   4.295
69692W        W34677  26.674  24.291   0.689
69693W        W34678  34.812  14.492   4.519
69694W        W34679  26.155  18.141   1.041
69695W        W34680   1.425   6.490  13.501
69696W        W34681  12.828   1.819   1.825
69697W        W34682  20.957  35.175  11.325
69698W        W34683   7.541  32.068  10.482
69699W        W34684   4.811  28.590  11.371
69700W        W34685  15.439   9.137  14.834
69701W        W34686  20.579  25.001  14.451
69702W        W34687  43.642  27.663   4.713
69703W        W34688  20.107  41.012   2.852
69704W        W34689  18.584  33.433   1.191
69705W        W34690  36.559   1.105   0.892
69706W        W34691  37.573   7.793  10.864
69707W        W34692  35.917  28.076   2.521
69708W        W34693  19.531  16.648   4.121
69709W        W34694  12.358   7.185  11.068
69710W        W34695  14.132   2.269  14.805
69711W        W34696  28.512  42.752  13.243
69712W        W34697   3.050  26.929   1.723
69713W        W34698  34.330  14.770   3.787
69714W        W34699  40.611  30.958   2.289
69715W        W34700  43.872  19.198   3.867
69716W        W34701  32.705  43.517   1.160
69717W        W34702  35.446  34.483   3.357
69718W        W34703   9.190   9.908   3.289
69719W        W34704   0.893  12.413  13.604
69720W        W34705  40.807   2.682   4.977
69721W        W34706  38.343  41.588  12.427
69722W        W34707  21.724  29.292   0.485
69723W        W34708  36.403   1.000  10.628
69724W        W34709  14.112  27.320   9.762
69725W        W34710  32.579  19.294  13.311
69726W        W34711  12.301  12.344  13.423
69727W        W34712  14.868  22.236  13.914
69728W        W34713  16.236  32.470  11.537
69729W        W34714  40.327   0.950   0.826
69730W        W34715  19.434  23.291   4.607
69731W        W34716   0.274   7.700   2.898
69732W        W34717  15.605  15.186   1.776
69733W        W34718  20.749  36.534  11.655
69734W        W34719  35.070  23.546  12.573
69735W        W34720  17.830  41.740   0.421
69736W        W34721  34.607  24.617  14.009
69737W        W34722  40.819  21.010   4.943
69738W        W34723  19.582  15.161   2.740
69739W        W34724   5.207  39.858  12.114
69740W        W34725  24.747  15.642  12.687
69741W        W34726  13.293  23.366   2.234
69742W        W34727  17.927  17.611  11.931
69743W        W34728  15.645  19.083  13.058
69744W        W34729   1.711  26.091  10.763
69745W        W34730   3.906   8.843  11.596
69746W        W34731  42.169  15.924   9.857
69747W        W34732  32.136  23.669  10.785
69748W        W34733  29.979  25.863  12.488
69749W        W34734  40.119  39.443  11.084
69750W        W34735   8.842   9.180   0.996
69751W        W34736  28.540  32.255  11.975
69752W        W34737   7.635  21.685   4.104
69753W        W34738  23.877   2.019   3.660
69754W        W34739  16.460  14.002   0.084
69755W        W34740  42.927  34.293   4.555
69756W        W34741   7.802  23.241   1.425
69757W        W34742  17.723  33.507   2.147
69758W        W34743   0.500   7.718   0.601
69759W        W34744  39.739  37.958  14.503
69760W        W34745  26.899  43.117  12.039
69761W        W34746  30.012  35.961   4.286
69762W        W34747  22.918  43.402  12.055
69763W        W34748  43.998  34.005  10.511
69764W        W34749   7.753  27.644   0.961
69765W        W34750  26.626  17.404   1.353
69766W        W34751  36.527  20.891   4.775
69767W        W34752  39.375   0.025   0.711
69768W        W34753  18.635  41.275  11.652
69769W        W34754   5.729  22.968  12.880
69770W        W34755  24.327   4.356   0.369
69771W        W34756  16.104  35.327  11.217
69772W        W34757   5.956  17.076   1.239
69773W        W34758  16.865  10.299   1.567
69774W        W34759  26.017  40.435   0.511
69775W        W34760   0.695  30.249   4.086
69776W        W34761  32.934  24.937  11.453
69777W        W34762  10.854  44.357   0.825
69778W        W34763  23.092  27.364   2.171
69779W        W34764  40.166  20.025  12.314
69780W        W34765  27.727  27.950   3.716
69781W        W34766  20.152   4.980   2.924
69782W        W34767   7.154  21.850  14.522
69783W        W34768   0.496  14.092   0.986
69784W        W34769   0.629  37.462   9.992
69785W        W34770  36.120  40.635   5.144
69786W        W34771   8.702  23.102   4.252
69787W        W34772   3.857  21.775   1.436
69788W        W34773  32.585   9.210  12.010
69789W        W34774  35.550  17.958  14.223
69790W        W34775  20.306  34.652   1.481
69791W        W34776  10.609   5.368   3.332
69792W        W34777  34.573  12.500   3.057
69793W        W34778  32.703   1.447   2.733
69794W        W34779  30.492  28.488  10.892
69795W        W34780  33.588   8.890   0.205
69796W        W34781  22.741  13.857   1.734
69797W        W34782   3.786  22.997  12.436
69798W        W34783  26.495  44.735   4.691
69799W        W34784  13.045  21.379  11.282
69800W        W34785  22.973  10.729  14.331
69801W        W34786  34.471  14.082   2.398
69802W        W34787  17.540   8.909  10.208
69803W        W34788  20.695   4.881  11.096
69804W        W34789  20.002  26.629   0.506
69805W        W34790  16.295   7.449  12.594
69806W        W34791  39.726   1.955  11.805
69807W        W34792  35.631  39.264   1.616
69808W        W34793   8.802   1.918  14.322
69809W        W34794  26.994  17.439   0.225
69810W        W34795  37.283  40.538   2.824
69811W        W34796  31.994  40.996  11.208
69812W        W34797  24.668  24.013   2.673
69813W        W34798  14.802  24.048   4.568
69814W        W34799   7.421  38.924   2.251
69815W        W34800  22.926   3.471  10.618
69816W        W34801  33.049  31.689  10.970
69817W        W34802  18.751  12.820  12.604
69818W        W34803  34.155  10.115   2.358
69819W        W34804  28.835   3.484   3.043
69820W        W34805  41.599  23.194  12.650
69821W        W34806  20.251   1.303   3.602
69822W        W34807   7.340  21.370   2.897
69823W        W34808  15.583  29.176  12.684
69824W        W34809   4.049   2.275  11.979
69825W        W34810   5.950   5.826   1.869
69826W        W34811  14.825   7.066  10.613
69827W        W34812  18.839  27.168  14.277
69828W        W34813   6.641  12.737   1.919
69829W        W34814  12.144  36.533  11.573
69830W        W34815  13.118   4.776   3.493
69831W        W34816   6.467  36.852   3.253
69832W        W34817  27.641   7.624   4.184
69833W        W34818  22.444  16.398  11.500
69834W        W34819  44.026  17.715  13.465
69835W        W34820   5.196  26.100   4.936
69836W        W34821  28.168  41.344   4.072
69837W        W34822  10.596  22.531  11.566
69838W        W34823  36.578  15.757   4.164
69839W        W34824  27.015  34.294  12.431
69840W        W34825  24.947  26.693  14.805
69841W        W34826  42.996  19.067   1.513
69842W        W34827  35.478  37.752   0.878
69843W        W34828  12.778  38.015   4.619
69844W        W34829  25.074  20.096   0.629
69845W        W34830   4.187   6.952   5.043
69846W        W34831  25.533   0.341  10.550
69847W        W34832  37.063  11.549  12.115
69848W        W34833  29.298   3.474   0.205
69849W        W34834  24.735  24.439   4.209
69850W        W34835  19.287  22.223  14.156
69851W        W34836  34.470  29.304  10.788
69852W        W34837  29.583  15.107  11.185
69853W        W34838  13.234  42.409   2.091
69854W        W34839  33.106  26.222   2.787
69855W        W34840  34.287  39.627   4.166
69856W        W34841  14.160  32.621   2.513
69857W        W34842  39.945  44.199   0.364
69858W        W34843  22.679  25.379  13.750
69859W        W34844  27.070   7.117   1.745
69860W        W34845   6.777   7.902  13.364
69861W        W34846  32.409  18.752  10.782
69862W        W34847  12.438  12.098  11.737
69863W        W34848  32.984  19.290   3.273
69864W        W34849  29.050  30.428   4.181
69865W        W34850  28.135   4.244   0.282
69866W        W34851  35.456  44.676   0.432
69867W        W34852   9.737   1.325  14.065
69868W        W34853  13.169  11.728  11.170
69869W        W34854  32.927   6.981  11.552
69870W        W34855  11.783  11.696   1.394
69871W        W34856  26.515  43.088  11.159
69872W        W34857   2.568  38.957  10.212
69873W        W34858  33.961  37.139  14.519
69874W        W34859  10.698   0.321   0.928
69875W        W34860   7.180  42.181  14.025
69876W        W34861  37.982   5.016  11.040
69877W        W34862  18.874  32.092   4.515
69878W        W34863   3.633  18.717  14.477
69879W        W34864  13.199  32.546   1.433
69880W        W34865  14.467  29.963  13.462
69881W        W34866  39.977  24.167  11.053
69882W        W34867  12.235  29.426  13.535
69883W        W34868   4.819   3.899   3.119
69884W        W34869   7.394  38.368   4.459
69885W        W34870  26.645  33.165  12.645
69886W        W34871  15.230  31.575   0.332
69887W        W34872  27.378   8.310  13.514
69888W        W34873  18.565  16.883   3.614
69889W        W34874  20.947   0.176  10.653
69890W        W34875  15.279  27.606   3.344
69891W        W34876  33.192   4.106   4.806
69892W        W34877  37.952  10.453  12.819
69893W        W34878  40.421  30.016  10.555
69894W        W34879  13.843  44.571   2.890
69895W        W34880  36.062  26.533   3.100
69896W        W34881  38.331  15.733  13.171
69897W        W34882   9.323   0.221  12.889
69898W        W34883  27.208  31.338   1.310
69899W        W34884  32.516  42.274   2.322
69900W        W34885  10.809  34.994   0.201
69901W        W34886   9.264   8.859   0.795
69902W        W34887  44.074   0.197  12.083
69903W        W34888  43.294   6.815  11.913
69904W        W34889   7.645  42.389   3.748
69905W        W34890   6.340  35.592  12.086
69906W        W34891  16.261   1.673   4.228
69907W        W34892  37.914  31.101  10.427
69908W        W34893  42.442  39.450   5.541
69909W        W34894  25.393  39.329   3.683
69910W        W34895  27.507  17.635  13.140
69911W        W34896  17.811  18.189  14.006
69912W        W34897  12.586   2.759   3.424
69913W        W34898  38.926  42.921  14.997
69914W        W34899  33.360  22.866   5.099
69915W        W34900  27.348  38.457  13.172
69916W        W34901  38.396  14.710  14.992
69917W        W34902  21.664   9.510   2.356
69918W        W34903  23.423   2.501   4.435
69919W        W34904   7.674  10.191  10.660
69920W        W34905  33.827  14.609   2.536
69921W        W34906  37.397   7.190   2.673
69922W        W34907  12.355  33.231   2.265
69923W        W34908   0.210  20.078  13.545
69924W        W34909  41.814  10.793  10.446
69925W        W34910   1.181  13.742  11.597
69926W        W34911   1.298  40.384   4.917
69927W        W34912   6.411  10.101  14.967
69928W        W34913   3.637  14.261   3.747
69929W        W34914  14.201  25.066   0.736
69930W        W34915  32.935  28.179   4.332
69931W        W34916  25.998  15.024   0.794
69932W        W34917  10.471   4.438   3.654
69933W        W34918   3.021  16.739   1.830
69934W        W34919   2.073  22.670  11.160
69935W        W34920   9.076   8.230  12.999
69936W        W34921  24.540  27.176   0.459
69937W        W34922  29.685  34.115   2.803
69938W        W34923  18.578  37.283  11.108
69939W        W34924  36.398  13.897  11.573
69940W        W34925  14.223   2.457  12.363
69941W        W34926  25.483  13.866  13.443
69942W        W34927  21.263  23.164   5.236
69943W        W34928   7.875   6.936  13.534
69944W        W34929   3.035  40.287   3.152
69945W        W34930  18.532   3.210   0.494
69946W        W34931  39.777  16.855   9.593
69947W        W34932   5.420  32.655   3.696
69948W        W34933  39.620  44.556   2.072
69949W        W34934   8.621  31.026  10.358
69950W        W34935  17.273  37.525   4.508
69951W        W34936  37.684   8.393   1.886
69952W        W34937  33.760  23.207   0.836
69953W        W34938  39.431  16.389  10.313
69954W        W34939  10.750  23.450   2.720
69955W        W34940  36.090  26.027   2.970
69956W        W34941  12.319  20.250   1.127
69957W        W34942   3.779  33.506   1.763
69958W        W34943   8.759   9.096  13.351
69959W        W34944   6.642  27.756   1.200
69960W        W34945  22.273  27.223  14.883
69961W        W34946  19.497  27.613   2.477
69962W        W34947  40.873  30.653   3.267
69963W        W34948  25.798  28.581   0.316
69964W        W34949   0.256  37.142  12.985
69965W        W34950  25.250  26.416  14.379
69966W        W34951  33.950  40.347  12.552
69967W        W34952   9.993  10.211   4.190
69968W        W34953  28.881  37.105  13.218
69969W        W34954  25.902  34.846   0.324
69970W        W34955  21.685  39.607  13.678
69971W        W34956   1.795   6.961  11.145
69972W        W34957  15.578  20.908  13.612
69973W        W34958   6.377   5.807   2.192
69974W        W34959  27.048   7.043   2.249
69975W        W34960  15.477  41.921   0.263
69976W        W34961  32.680  37.113   0.906
69977W        W34962   0.872   8.529  13.890
69978W        W34963  26.686  20.613  12.102
69979W        W34964  28.142  22.227  14.462
69980W        W34965  16.652  15.564   1.791
69981W        W34966  41.233  44.450  13.410
69982W        W34967   5.324  35.017  13.080
69983W        W34968  33.980  32.997   2.590
69984W        W34969  35.041  19.320   1.375
69985W        W34970  43.557  12.842  11.755
69986W        W34971  15.042  16.162  10.725
69987W        W34972  33.096  38.912   4.071
69988W        W34973  18.803  40.295   2.565
69989W        W34974   2.320   1.014  11.207
69990W        W34975  39.526  37.306   1.137
69991W        W34976  35.434  33.094   0.267
69992W        W34977   2.926  28.151  13.002
69993W        W34978  24.719  27.007  14.448
69994W        W34979  25.536   7.835  13.592
69995W        W34980   8.530  40.055   4.601
69996W        W34981  29.544  40.821   1.305
69997W        W34982  12.157  36.342   0.974
69998W        W34983  16.718  42.428  10.904
69999W        W34984  28.692   1.223  11.531
70000W        W34985  34.850  40.440  14.783
70001W        W34986   4.439  31.607  13.038
70002W        W34987  23.124  15.997  11.141
70003W        W34988   3.959  21.979   3.093
70004W        W34989  32.832  28.636  10.581
70005W        W34990  22.176  31.457  10.691
70006W        W34991  11.371   0.508  11.161
70007W        W34992  20.405  43.380   1.831
70008W        W34993  24.618  23.982   3.183
70009W        W34994  27.013  23.257   3.153
70010W        W34995  37.577  14.234   3.697
70011W        W34996  31.154  16.027  12.323
70012W        W34997  41.255   3.985   0.800
70013W        W34998  19.653  25.768   4.719
70014W        W34999  13.870  30.986   3.718
70015W        W35000  16.749  37.384   4.896
70016W        W35001   9.441  22.829   3.122
70017W        W35002  25.626  25.942   4.097
70018W        W35003  41.607  21.241   1.225
70019W        W35004  44.597  21.083  10.899
70020W        W35005  10.789   5.473  12.751
70021W        W35006   2.872  29.367   3.825
70022W        W35007   0.303   8.298   1.785
70023W        W35008   3.300  22.014   4.533
70024W        W35009  22.473  13.784  14.494
70025W        W35010  39.728   3.497   4.427
70026W        W35011  13.891  10.805   3.336
70027W        W35012  16.648  16.107   0.348
70028W        W35013  22.224   1.066   3.862
70029W        W35014   8.000   3.205   5.431
70030W        W35015   9.759  18.967   0.482
70031W        W35016  31.041  32.854  11.105
70032W        W35017  29.464   5.354   1.314
70033W        W35018  41.288  28.833   0.782
70034W        W35019  20.156   3.359  11.400
70035W        W35020  13.622  27.934  10.288
70036W        W35021  11.154  36.874   2.288
70037W        W35022  28.648  29.825  11.090
70038W        W35023  35.224  32.288  13.088
70039W        W35024   1.482  11.499  14.786
70040W        W35025   8.919  13.552   3.400
70041W        W35026   4.713   6.029  10.738
70042W        W35027   2.966  41.237  12.476
70043W        W35028  42.756   6.212   0.977
70044W        W35029  26.262  32.371  12.421
70045W        W35030  27.916  13.073  13.087
70046W        W35031  21.146  12.952   0.941
70047W        W35032  40.552  32.128  14.110
70048W        W35033  17.943   3.127   1.159
70049W        W35034  43.907  10.191   2.445
70050W        W35035   7.703   8.124  12.838
70051W        W35036   9.956  37.888   0.342
70052W        W35037  30.008  35.052   4.778
70053W        W35038  12.792  25.751  11.035
70054W        W35039   4.288   3.974   2.820
70055W        W35040  39.810  23.101   0.261
70056W        W35041   3.754  43.265   0.834
70057W        W35042  22.140  41.531  12.673
70058W        W35043  31.491   1.548   0.900
70059W        W35044  25.416  15.345   1.460
70060W        W35045  29.598  17.209   0.309
70061W        W35046  20.889  35.069   0.167
70062W        W35047  16.176  17.872  10.145
70063W        W35048  41.366   5.488   1.336
70064W        W35049  28.694  43.717  12.530
70065W        W35050  28.933   7.510  12.481
70066W        W35051   5.915  21.194  13.522
70067W        W35052  25.986   5.014   4.669
70068W        W35053  30.206  15.375   0.342
70069W        W35054  40.501  27.067   0.461
70070W        W35055  36.040  13.626   3.198
70071W        W35056  20.481  22.261  12.470
70072W        W35057  39.554  28.815  10.175
70073W        W35058  13.539   1.493   2.212
70074W        W35059   7.135  35.889  11.566
70075W        W35060  17.840  28.447   1.351
70076W        W35061  36.570   4.509  14.016
70077W        W35062  20.257   3.771  11.892
70078W        W35063  36.823  30.592  14.990
70079W        W35064   8.477  25.571   1.759
70080W        W35065  16.781  19.993  11.519
70081W        W35066   8.068  25.930   1.112
70082W        W35067  23.169  39.103  11.065
70083W        W35068  18.927   1.477  13.448
70084W        W35069   1.392  27.491  13.573
70085W        W35070  38.562   3.643  11.164
70086W        W35071  10.667  39.851  10.928
70087W        W35072   1.959  30.886  10.601
70088W        W35073  13.073   3.477   3.697
70089W        W35074  40.955   3.512  11.012
70090W        W35075  38.402   0.292  10.860
70091W        W35076  34.661  31.013   3.417
70092W        W35077  27.331  43.333   4.181
70093W        W35078  40.426  36.804   1.828
70094W        W35079   8.098  22.779  14.981
70095W        W35080  25.184  38.554  14.672
70096W        W35081  15.609   4.192  11.849
70097W        W35082  22.558  37.792   2.682
70098W        W35083  37.455   2.851   4.621
70099W        W35084  21.129   3.796  11.829
70100W        W35085  18.234  16.836  12.366
70101W        W35086  24.166   0.995   0.339
70102W        W35087  38.574   8.940  11.192
70103W        W35088  32.569  28.120   2.328
70104W        W35089  25.014  35.059  14.900
70105W        W35090  14.625  22.689  13.871
70106W        W35091  34.493  14.425  11.455
70107W        W35092  42.970   7.669   3.283
70108W        W35093  27.856  33.592  11.609
70109W        W35094  39.452  28.618  11.932
70110W        W35095   8.566   9.665   5.596
70111W        W35096  22.178  25.193  12.421
70112W        W35097   9.722  15.659  12.400
70113W        W35098  34.508  10.903   1.172
70114W        W35099  27.525  37.402   3.307
70115W        W35100  36.848  37.000   3.342
70116W        W35101  40.455  35.911  12.493
70117W        W35102   8.449  40.575   1.857
70118W        W35103  44.209  29.574   2.372
70119W        W35104  31.652  37.333  12.548
70120W        W35105  41.326  31.675   1.333
70121W        W35106  26.084   2.939  12.985
70122W        W35107  37.799  24.678   1.359
70123W        W35108  23.463  30.022   4.060
70124W        W35109  41.293  25.688   1.948
70125W        W35110  24.015  14.792  14.421
70126W        W35111  36.110  10.602  13.329
70127W        W35112   1.821  42.876   0.235
70128W        W35113  26.987  28.891   0.656
70129W        W35114  19.993  24.529   2.361
70130W        W35115  43.286  25.918   1.681
70131W        W35116   6.125  22.711  14.010
70132W        W35117  38.483  43.102   3.843
70133W        W35118  44.762  31.136  13.740
70134W        W35119  30.035   6.717  14.222
70135W        W35120  40.602   1.896   1.762
70136W        W35121  39.949  13.333   3.661
70137W        W35122  26.875  27.423  11.751
70138W        W35123  42.700   2.478  11.012
70139W        W35124  39.031   3.191  10.314
70140W        W35125  11.097  22.721  11.541
70141W        W35126  11.104  41.795  14.951
70142W        W35127  40.425  23.461   2.635
70143W        W35128   0.052  31.931  11.490
70144W        W35129  13.245  13.207   1.371
70145W        W35130  41.625  21.120  13.772
70146W        W35131   7.916  37.563   4.111
70147W        W35132  39.231  30.740   4.164
70148W        W35133   7.473   9.856  13.132
70149W        W35134   8.005  22.782   3.194
70150W        W35135  28.839  16.209   3.596
70151W        W35136  26.450  19.670   2.830
70152W        W35137  31.458  22.329  12.952
70153W        W35138   8.934  37.575   4.143
70154W        W35139  43.710  40.311  10.668
70155W        W35140   8.614  25.038  11.259
70156W        W35141  11.811  32.707   1.295
70157W        W35142  22.548  40.459   3.629
70158W        W35143  24.320  24.611  13.464
70159W        W35144  25.731  22.659  14.851
70160W        W35145  26.553  33.698  12.702
70161W        W35146  40.504  23.005   3.785
70162W        W35147   7.270  18.559  12.413
70163W        W35148  26.013   9.605  13.922
70164W        W35149   0.845  13.357   3.674
70165W        W35150  42.359  42.537  12.593
70166W        W35151  44.478  18.951  11.620
70167W        W35152  27.545  19.392   0.920
70168W        W35153  14.238   4.940   3.251
70169W        W35154  35.538   8.715  14.787
70170W        W35155  13.619  32.206  12.305
70171W        W35156  29.034  20.257  12.085
70172W        W35157  22.767  31.990  11.741
70173W        W35158  39.049  12.614  11.453
70174W        W35159  39.082   9.657   0.165
70175W        W35160  30.386  33.387  10.802
70176W        W35161  17.130  16.692   4.986
70177W        W35162  20.067  23.596  12.537
70178W        W35163  25.653   1.845  13.104
70179W        W35164  10.533  38.518   1.291
70180W        W35165  17.223  13.007  10.339
70181W        W35166  10.939  38.900   0.426
70182W        W35167  10.187  43.521   3.808
70183W        W35168  20.723  11.682   1.275
70184W        W35169  31.396  18.710  11.716
70185W        W35170  27.901  44.784  12.590
70186W        W35171  43.328  30.719  12.988
70187W        W35172  11.356  33.821   4.265
70188W        W35173   8.094   7.449   4.994
70189W        W35174  18.866  35.987  14.342
70190W        W35175  24.076  44.429   3.632
70191W        W35176  41.988  18.250   3.562
70192W        W35177  29.379  38.984  11.513
70193W        W35178   6.635  21.278  11.662
70194W        W35179  36.824  41.079   0.244
70195W        W35180  23.811  32.715   0.932
70196W        W35181  35.963  19.463  11.955
70197W        W35182  26.123   5.923   3.353
70198W        W35183  14.242   9.456  14.245
70199W        W35184  13.326  26.752   2.755
70200W        W35185   9.916  39.892   0.422
70201W        W35186  24.718  25.150  12.571
70202W        W35187  23.615  31.477   1.573
70203W        W35188   7.858  36.514  10.550
70204W        W35189   9.448  15.616  14.026
70205W        W35190  32.336  33.050  12.878
70206W        W35191  24.649  18.114  13.453
70207W        W35192  10.617  25.561   1.225
70208W        W35193  24.545  41.099   4.673
70209W        W35194  31.855  14.402   4.647
70210W        W35195  28.714  26.051   3.391
70211W        W35196   7.180  22.554  10.693
70212W        W35197  39.111  32.412  12.586
70213W        W35198   0.869  40.082   4.848
70214W        W35199   0.249  21.710   3.855
70215W        W35200  25.058  34.435   0.235
70216W        W35201  13.228  25.393  11.460
70217W        W35202  35.128  23.919  11.635
70218W        W35203  39.013  33.360  11.595
70219W        W35204   7.427  34.138   4.616
70220W        W35205  32.905  23.873   3.698
70221W        W35206  27.181  12.407  14.897
70222W        W35207  27.050  36.595  12.386
70223W        W35208  39.523  41.477  13.811
70224W        W35209  10.350  18.812  11.141
70225W        W35210  28.995  42.801   1.676
70226W        W35211  40.731  37.062   3.750
70227W        W35212  10.242  31.049   4.321
70228W        W35213  26.039  44.538   0.425
70229W        W35214   8.214   3.284   4.731
70230W        W35215   2.576  10.640   4.406
70231W        W35216  17.779  15.287  10.712
70232W        W35217  11.358  28.125  11.921
70233W        W35218  18.536   0.807   1.851
70234W        W35219  11.231  12.446   2.066
70235W        W35220  36.460  28.058  14.885
70236W        W35221   6.612  31.289  12.037
70237W        W35222  19.791  33.110   1.722
70238W        W35223  42.412  25.723   3.481
70239W        W35224  43.877   7.331   4.574
70240W        W35225  19.139  39.368  13.810
70241W        W35226  41.248  38.097   1.447
70242W        W35227   7.649   8.207  13.344
70243W        W35228  34.910   7.167   0.019
70244W        W35229  12.635   5.026  13.419
70245W        W35230  14.283  31.226  14.708
70246W        W35231   9.622  44.121  12.515
70247W        W35232  19.124  34.796   3.512
70248W        W35233  22.483  13.452  13.799
70249W        W35234  29.193   0.972   3.765
70250W        W35235  40.418   2.022   2.721
70251W        W35236  42.058  22.707  11.971
70252W        W35237  17.671   2.791   2.691
70253W        W35238  10.485  41.482   4.843
70254W        W35239  14.506  38.850   5.134
70255W        W35240  16.748  24.705   0.838
70256W        W35241   2.739  31.094  14.780
70257W        W35242  26.902   9.828  11.198
70258W        W35243  35.553   4.209   3.823
70259W        W35244  33.532  21.958  11.891
70260W        W35245  27.986  22.000  12.983
70261W        W35246  38.909  18.542  11.511
70262W        W35247  27.630  33.716   0.401
70263W        W35248  20.081   0.405  10.221
70264W        W35249  26.083  15.756   3.866
70265W        W35250  29.835  23.922  12.564
70266W        W35251  12.766   8.145  13.021
70267W        W35252  22.232   8.247   4.347
70268W        W35253  16.258  22.300   4.216
70269W        W35254   7.690  39.108   2.669
70270W        W35255  33.117  11.738   2.255
70271W        W35256  28.228  37.585   5.029
70272W        W35257  38.066  20.116   0.364
70273W        W35258   3.227   4.034   4.025
70274W        W35259  36.306   2.013   2.334
70275W        W35260   5.870  12.368   4.420
70276W        W35261  27.451  22.214   0.689
70277W        W35262  24.654  28.118   3.163
70278W        W35263   7.806   9.909   3.748
70279W        W35264  24.868  34.959   3.995
70280W        W35265  41.439  35.105   4.455
70281W        W35266  37.418  28.328  11.536
70282W        W35267   6.729   3.172   1.976
70283W        W35268  29.415  33.723  14.172
70284W        W35269  12.125  41.285   1.392
70285W        W35270  18.121  21.110  13.134
70286W        W35271  23.307  42.086  13.031
70287W        W35272  29.906  42.505   2.102
70288W        W35273   3.921  20.185   2.337
70289W        W35274   0.959  25.681  10.887
70290W        W35275  31.876   8.037   4.924
70291W        W35276  13.864   3.382  14.933
70292W        W35277  41.810  32.550  11.178
70293W        W35278  28.971  29.900  12.996
70294W        W35279  10.800  15.238  13.084
70295W        W35280  21.613  10.459   3.231
70296W        W35281  27.457   4.327   0.901
70297W        W35282  10.675  13.155  10.680
70298W        W35283  26.934  41.434   1.960
70299W        W35284  10.712  32.294   3.529
70300W        W35285  17.078  44.239  13.431
70301W        W35286  40.373  18.287   2.002
70302W        W35287  26.500  32.429  11.239
70303W        W35288  17.818  34.408   3.190
70304W        W35289  37.905   6.158  14.473
70305W        W35290  39.611   5.002  14.453
70306W        W35291   1.481  26.164  13.355
70307W        W35292  10.323   2.902  14.104
70308W        W35293  10.835  34.936  14.676
70309W        W35294  33.645  43.396   0.955
70310W        W35295  28.400  12.424   4.634
70311W        W35296  28.729  14.231   3.057
70312W        W35297  26.206   8.201   4.130
70313W        W35298  24.990  10.147  11.998
70314W        W35299  11.859   2.464  14.579
70315W        W35300   2.996  29.580   3.354
70316W        W35301  28.961  14.401  12.586
70317W        W35302  21.808  15.064   0.990
70318W        W35303  27.189   2.136  10.450
70319W        W35304  42.487  37.839   2.909
70320W        W35305   5.771  26.228  10.516
70321W        W35306  22.251  29.402   2.874
70322W        W35307  17.342   5.825   1.243
70323W        W35308  13.657  20.659   1.201
70324W        W35309   2.766  28.377   4.850
70325W        W35310   3.461  39.894  12.527
70326W        W35311  24.761  24.700   1.393
70327W        W35312  15.371  38.788  11.977
70328W        W35313  10.149  18.321   1.978
70329W        W35314  19.342  17.622   4.929
70330W        W35315  11.582  12.393  13.604
70331W        W35316  16.607  10.737  11.702
70332W        W35317  13.330  21.689   1.159
70333W        W35318  38.933   1.019   3.637
70334W        W35319  18.827  42.458  12.640
70335W        W35320  37.836   7.867  13.895
70336W        W35321  37.828  19.613   1.240
70337W        W35322  31.998  10.302   4.013
70338W        W35323  30.456  30.370  12.022
70339W        W35324   0.967  12.350   3.624
70340W        W35325   3.718  23.578  10.592
70341W        W35326  22.401  31.081  11.190
70342W        W35327  10.181  23.425   0.436
70343W        W35328  10.086  33.831  10.870
70344W        W35329  31.514  11.161   0.724
70345W        W35330  21.166  27.401  10.728
70346W        W35331   8.398  29.245   1.287
70347W        W35332  21.472   9.196   0.766
70348W        W35333  10.799  30.667   2.277
70349W        W35334  20.990  31.519  12.591
70350W        W35335  27.255  16.930  10.253
70351W        W35336  37.458   9.814   2.867
70352W        W35337  37.073  20.783  14.831
70353W        W35338   8.216  34.105  14.013
70354W        W35339  11.826  20.756  14.460
70355W        W35340  10.214   9.073   4.052
70356W        W35341  11.866   1.247   3.713
70357W        W35342  17.102  22.674  13.283
70358W        W35343  13.281  31.380  14.803
70359W        W35344  38.869  43.022  10.986
70360W        W35345   9.602  21.742   4.433
70361W        W35346  43.039  36.939   1.721
70362W        W35347  28.889  23.271  13.939
70363W        W35348   1.340  18.985   4.677
70364W        W35349  39.303  39.055  10.262
70365W        W35350  17.708  28.727   4.569
70366W        W35351  18.124  41.781  11.175
70367W        W35352  15.676   8.236   1.154
70368W        W35353  16.215  12.262  14.041
70369W        W35354  21.038   8.712   2.747
70370W        W35355  33.394  10.885   0.924
70371W        W35356   9.899  43.923  13.921
70372W        W35357  24.370  40.858  14.200
70373W        W35358  27.452  30.517  13.467
70374W        W35359  20.048  39.343  14.433
70375W        W35360   7.691  36.490  11.135
70376W        W35361  27.645  26.968   0.319
70377W        W35362  35.323  39.499   0.054
70378W        W35363  30.025  44.495   3.170
70379W        W35364  16.319   9.189  13.001
70380W        W35365  36.255  20.547   3.726
70381W        W35366  42.787  34.363  12.964
70382W        W35367  44.994  31.161  13.288
70383W        W35368  36.611  35.858  10.623
70384W        W35369   7.788  11.192  14.886
70385W        W35370  13.614  10.087   1.710
70386W        W35371  26.075  24.477  12.457
70387W        W35372  25.951  39.458  13.807
70388W        W35373  18.211  23.555   3.223
70389W        W35374  13.188  19.822   0.918
70390W        W35375  11.532  13.774   3.586
70391W        W35376   6.295  26.677   2.334
70392W        W35377  39.805   0.133   3.958
70393W        W35378  26.684   2.988   1.027
70394W        W35379  33.491  32.887  12.340
70395W        W35380  13.762  37.810  11.591
70396W        W35381  43.280  39.098  10.679
70397W        W35382   1.024   1.817  12.514
70398W        W35383  21.743  40.118   3.145
70399W        W35384  10.748  13.484  14.835
70400W        W35385  31.307  37.166   0.881
70401W        W35386  32.855  44.796   1.881
70402W        W35387   8.747  38.481   0.800
70403W        W35388   3.482  37.559  13.075
70404W        W35389  38.089  32.599  12.680
70405W        W35390  28.944  13.922   1.933
70406W        W35391  29.197   6.485  14.582
70407W        W35392  44.838  34.155   9.802
70408W        W35393  15.652   4.027   1.024
70409W        W35394  23.412  33.634   0.740
70410W        W35395  36.522  11.191   1.252
70411W        W35396  14.808   3.754   1.312
70412W        W35397  21.906  37.062   5.133
70413W        W35398  21.724  35.394  10.861
70414W        W35399  31.880  28.861  14.918
70415W        W35400  22.009   8.791  14.021
70416W        W35401  43.495  11.730  11.670
70417W        W35402  24.116  21.337  13.852
70418W        W35403   2.802  36.094  11.108
70419W        W35404  10.261  44.742   1.362
70420W        W35405  16.352  29.563   2.431
70421W        W35406  17.410   6.316   0.048
70422W        W35407   4.903   6.683   5.420
70423W        W35408  19.331  34.442  13.387
70424W        W35409  21.051  31.688   3.689
70425W        W35410  14.024  18.672  13.165
70426W        W35411  19.824  41.810  13.899
70427W        W35412  29.462  44.013   2.177
70428W        W35413  19.033  21.553  13.414
70429W        W35414  39.022   5.322  10.110
70430W        W35415  39.719  41.294  14.542
70431W        W35416  13.804  39.464   2.281
70432W        W35417  28.572  17.581  14.226
70433W        W35418  43.479   2.962  10.770
70434W        W35419   0.699  31.054   2.854
70435W        W35420  19.820  14.613   2.026
70436W        W35421  40.466  34.023   0.978
70437W        W35422   1.926  19.480   1.897
70438W        W35423  28.870  40.019   1.696
70439W        W35424  13.089  28.739  11.912
70440W        W35425  39.080   9.128  13.442
70441W        W35426  21.056  18.689  14.502
70442W        W35427  13.255  41.370  13.089
70443W        W35428  13.916  11.783  11.637
70444W        W35429  11.509  35.674   0.407
70445W        W35430   3.011  23.803   2.359
70446W        W35431  12.179  29.091  10.593
70447W        W35432  30.945  14.722   3.198
70448W        W35433  10.272  15.618   5.061
70449W        W35434  33.607  30.877   4.494
70450W        W35435  31.966  21.855  13.918
70451W        W35436   9.724  42.825   4.378
70452W        W35437  33.765  21.034  10.710
70453W        W35438   3.268  24.052   3.277
70454W        W35439  29.967   0.264   4.133
70455W        W35440  36.055   5.437   1.462
70456W        W35441  14.734  26.429   4.625
70457W        W35442  25.324  12.247   2.226
70458W        W35443  37.606  28.178  14.613
70459W        W35444  37.787  35.100  13.430
70460ION    NA+35445  35.879   5.572   3.498
70461ION    NA+35446  41.110  36.630  11.438
70462ION    NA+35447  36.078  43.023   0.317
70463ION    NA+35448  36.060  34.599  12.924
70464ION    NA+35449  33.450  41.088  10.230
70465ION    NA+35450  22.034  38.507  10.883
70466ION    NA+35451  36.626  17.024  11.917
70467ION    NA+35452  38.944  22.742  13.374
70468ION    NA+35453  11.094   9.305  14.909
70469ION    NA+35454  29.539  34.236   4.471
70470ION    NA+35455  36.614   6.207  13.860
70471ION    NA+35456  32.211  10.955  14.427
70472ION    NA+35457   7.257  35.618   1.873
70473ION    NA+35458  21.636  42.760  11.068
70474ION    NA+35459   3.502   3.828  13.757
70475ION    NA+35460  26.266  16.258   3.644
70476ION    NA+35461  17.830   0.635   2.482
70477ION    NA+35462  24.746  36.544   1.254
70478ION    NA+35463  21.830  37.292  13.276
70479ION    NA+35464  21.015  24.169   2.835
70480ION    NA+35465  37.008   6.852  14.917
70481ION    NA+35466  23.252  18.997  11.684
70482ION    NA+35467   7.231  29.517   3.138
70483ION    NA+35468   7.391  13.189   0.458
70484ION    NA+35469  14.503  34.569  14.880
70485ION    NA+35470   3.828   6.692   0.462
70486ION    NA+35471   9.744  32.981  13.661
70487ION    NA+35472  43.901  38.259  11.656
70488ION    NA+35473  40.994   6.770   1.712
70489ION    NA+35474   0.669  38.062  10.857
70490ION    NA+35475  36.206  42.825  11.205
70491ION    NA+35476  30.277  11.763  12.507
70492ION    NA+35477  19.623  24.350   3.007
70493ION    NA+35478  31.032   9.278   4.355
70494ION    NA+35479  18.199  10.391   2.760
70495ION    NA+35480  28.398  40.256  13.688
70496ION    NA+35481  30.324   2.933  14.557
70497ION    NA+35482  35.412  29.205   4.587
70498ION    NA+35483  25.822   9.013   3.683
70499ION    NA+35484  34.941  26.078   0.761
70500ION    NA+35485  41.463  43.369  14.922
70501ION    NA+35486  18.050  22.300  14.917
70502ION    NA+35487  34.569  43.495  12.664
70503ION    NA+35488  14.104  34.936   3.233
70504ION    NA+35489   1.746  36.850  11.110
70505ION    NA+35490  24.495   7.938   4.097
70506ION    NA+35491  20.459  12.669   2.530
70507ION    NA+35492  10.630  22.603   2.885
70508ION    NA+35493  22.537  16.129   2.686
70509ION    NA+35494  16.975   3.580   9.753
70510ION    NA+35495   3.828   9.315   0.926
70511ION    NA+35496  40.911  34.478  10.454
70512ION    NA+35497  42.791   3.546   3.269
70513ION    NA+35498  39.514  38.050  12.424
70514ION    NA+35499  17.121  25.686  11.609
70515ION    NA+35500  25.724  42.394  11.980
70516ION    NA+35501   8.197  35.325  12.422
70517ION    NA+35502  34.012   5.851   2.886
70518ION    NA+35503  29.676  13.573   2.350
70519ION    NA+35504  37.801  18.214   0.286
70520ION    NA+35505  26.187  21.577   4.056
70521ION    NA+35506  16.354  19.601   0.750
70522ION    NA+35507  11.709  13.761  11.415
70523ION    NA+35508  36.590  24.896  14.859
70524ION    NA+35509  34.749  27.345  14.201
70525ION    NA+35510  17.886   1.184  12.059
70526ION    NA+35511   6.571  14.294   4.601
70527ION    NA+35512  16.514  39.628  13.933
70528ION    NA+35513  34.424   8.771  14.836
70529ION    NA+35514   8.261  32.179   4.370
70530ION    NA+35515  20.002  39.263   4.203
70531ION    NA+35516  43.259   3.239  14.315
70532ION    NA+35517  39.284  36.029   0.869
70533ION    NA+35518  44.179  19.049  12.136
70534ION    NA+35519  13.119  33.805  11.558
70535ION    NA+35520  40.359  38.545   4.216
70536ION    NA+35521  29.086   6.520   4.061
70537ION    NA+35522  36.825  12.592   0.473
70538ION    NA+35523   8.621  12.960  11.031
70539ION    NA+35524  25.872  13.014  11.583
70540ION    NA+35525  29.206  32.525   0.248
70541ION    NA+35526  20.347  10.892   2.472
70542ION    NA+35527  14.090  43.033   2.888
70543ION    NA+35528  19.173  31.505   4.537
70544ION    NA+35529   9.125   7.673   2.656
70545ION    NA+35530  42.685  30.458   4.374
70546ION    NA+35531  18.804  13.177  12.229
70547ION    NA+35532  30.350   8.890   2.702
70548ION    NA+35533  12.100  11.484  13.471
70549ION    NA+35534  25.236  35.156   1.626
70550ION    NA+35535  37.026  39.913  14.836
70551ION    NA+35536   6.537  31.382   0.067
70552ION    NA+35537  12.643  36.558   1.691
70553ION    NA+35538  43.239  39.755   9.836
70554ION    NA+35539  40.678  44.554  14.781
70555ION    NA+35540   3.844  18.351  12.383
70556ION    NA+35541  13.297  12.563   1.663
70557ION    NA+35542  28.997  16.549   4.067
70558ION    NA+35543  34.673   8.951  10.850
70559ION    NA+35544  29.081   3.438   2.134
70560ION    NA+35545  34.081  30.664  14.820
70561ION    NA+35546  33.392  24.580  12.901
70562ION    NA+35547  37.799  28.600   1.122
70563ION    NA+35548  42.881  20.750   9.551
70564ION    NA+35549  42.096  34.316   1.059
70565ION    NA+35550  24.168   4.656   0.771
70566ION    NA+35551   6.044  39.033  14.260
70567ION    NA+35552  22.997  38.379  10.644
70568ION    NA+35553   1.922  39.581   4.668
70569ION    NA+35554   2.415   1.952   2.349
70570ION    NA+35555  14.944  21.172   1.224
70571ION    NA+35556  23.751  15.279  11.971
70572ION    NA+35557  26.922  40.621   1.519
70573ION    NA+35558  25.134   2.934  12.950
70574ION    NA+35559  16.048  21.513   4.637
70575ION    NA+35560  12.865  23.017  13.830
70576ION    NA+35561  27.408  39.539  14.230
70577ION    NA+35562  39.376  44.101   1.991
70578ION    NA+35563  28.058  39.568  11.111
70579ION    NA+35564  25.207  20.128  11.522
70580ION    NA+35565  37.682  27.966  11.778
70581ION    NA+35566   9.508  38.496  11.127
70582ION    NA+35567   4.106  43.572  14.891
70583ION    NA+35568  44.806  31.095  14.265
70584ION    NA+35569  37.342  37.994  11.693
70585ION    NA+35570  33.941  28.444  13.857
70586ION    NA+35571  41.840  12.794   4.268
70587ION    NA+35572  38.709  44.091  13.529
70588ION    NA+35573  18.731  12.961   2.248
70589ION    NA+35574  23.452  26.651   2.611
70590ION    NA+35575  27.954   5.314  12.101
70591ION    NA+35576  39.675  43.865  14.198
70592ION    NA+35577  16.431  16.742   2.025
70593ION    NA+35578  22.251  28.972   2.585
70594ION    NA+35579  13.354  32.848   0.425
70595ION    NA+35580  24.552  23.777  11.208
70596ION    NA+35581  32.433   2.263   1.467
70597ION    NA+35582  10.158  15.124  10.724
70598ION    NA+35583  35.882  21.664   3.857
70599ION    NA+35584  38.598  20.138   0.523
70600ION    NA+35585   4.434  14.815  11.124
70601ION    NA+35586  43.491  33.708  12.992
70602ION    NA+35587  19.534  23.980  13.524
70603ION    NA+35588  29.657  30.852  11.014
70604ION    NA+35589  33.709  31.158   3.677
70605ION    NA+35590   5.242  17.041   0.277
70606ION    NA+35591   6.292  20.160   0.835
70607ION    NA+35592  39.137  38.828   2.753
70608ION    NA+35593  22.145   9.674   0.107
70609ION    NA+35594  20.446  18.544   3.199
70610ION    NA+35595  13.972  21.216  10.392
70611ION    NA+35596   7.498  28.558   3.233
70612ION    NA+35597  41.502  19.143  14.803
70613ION    NA+35598   2.983  43.163   0.271
70614ION    NA+35599  40.895   1.567  11.068
70615ION    NA+35600  18.511  33.838  14.687
70616ION    NA+35601  19.153  17.411   2.253
70617ION    NA+35602  44.527  29.493  14.304
70618ION    NA+35603  40.237   0.079   0.383
70619ION    NA+35604  15.255  15.947   4.109
70620ION    NA+35605   6.530  26.297   0.214
70621ION    NA+35606  19.381  28.704  14.998
70622ION    NA+35607   5.869  32.222  11.125
70623ION    NA+35608  25.483  10.538   1.343
70624ION    NA+35609   6.216  17.700  11.929
70625ION    NA+35610  34.790  40.658   0.789
70626ION    NA+35611   0.812  19.467  10.409
70627ION    NA+35612  10.936  32.208   1.527
70628ION    NA+35613  17.807  39.638  13.388
70629ION    NA+35614   6.291  22.318   0.340
70630ION    NA+35615   0.723  18.551  11.143
70631ION    NA+35616  24.094  31.991   1.933
70632ION    NA+35617  19.024  21.295   1.618
70633ION    NA+35618  33.464  33.298   9.828
70634ION    NA+35619  29.802  27.892  13.699
70635ION    NA+35620  41.052  43.231  12.586
70636ION    NA+35621  10.868  21.475  11.116
70637ION    NA+35622   2.745  19.120  12.280
70638ION    NA+35623   2.445   0.287   0.216
70639ION    NA+35624  42.660  38.294   4.837
70640ION    NA+35625   3.770   1.984   2.816
70641ION    NA+35626   7.393   5.769   4.045
70642ION    NA+35627  27.554  17.961  10.270
70643ION    NA+35628  29.486  14.926   0.879
70644ION    NA+35629  18.276  10.624   0.468
70645ION    NA+35630  27.434  39.177   3.718
70646ION    NA+35631  10.535  14.480  10.064
70647ION    NA+35632   1.832  14.171  11.132
70648ION    NA+35633  34.467   6.529   3.258
70649ION    NA+35634  22.303  21.954  12.333
70650ION    NA+35635  26.860  14.937   0.858
70651ION    NA+35636  27.170  17.126  11.710
70652ION    NA+35637  36.268  26.138   4.264
70653ION    NA+35638  16.819  18.633  13.323
70654ION    NA+35639  25.510  44.164  11.944
70655ION    NA+35640  40.936   0.491   1.844
70656ION    NA+35641  11.853   9.677   1.201
70657ION    NA+35642  37.749  32.471   0.174
70658ION    NA+35643   3.627  41.494   2.191
70659ION    NA+35644  25.292   0.590  12.054
70660ION    NA+35645   0.994  33.391  13.863
70661ION    NA+35646  42.243  25.240   1.906
70662ION    NA+35647  20.112  15.687  12.392
70663ION    NA+35648  16.854  36.357   1.480
70664ION    NA+35649  30.922  39.456  10.804
70665ION    NA+35650   7.376  27.086  11.713
70666ION    NA+35651  40.577  15.809  10.315
70667ION    NA+35652  15.878  21.874  14.796
70668ION    NA+35653  21.445  36.994  11.583
70669ION    NA+35654   7.592  22.195  12.576
70670ION    NA+35655  34.885   2.582  13.514
70671ION    NA+35656  21.620  39.196   1.841
70672ION    NA+35657  27.269  34.793   2.887
70673ION    NA+35658  39.557   7.102   2.805
70674ION    NA+35659  42.389  19.107  14.340
70675ION    NA+35660  26.418  29.160  13.531
70676ION    NA+35661   6.682  12.372  12.726
70677ION    NA+35662  40.368   8.236   2.263
70678ION    NA+35663  27.746  30.899   0.396
70679ION    NA+35664  37.257   1.838   4.698
70680ION    NA+35665   9.870  34.125  11.273
70681ION    NA+35666  38.061  30.823  12.977
70682ION    NA+35667  10.403   4.528   5.434
70683ION    NA+35668   9.373  44.706  11.973
70684ION    NA+35669  37.806  27.850   4.799
70685ION    NA+35670  32.748  22.190  11.176
70686ION    NA+35671   1.883  40.036  13.377
70687ION    NA+35672  32.411  19.779   0.022
70688ION    NA+35673   7.621  26.452  12.446
70689ION    NA+35674  19.764  43.954  11.007
70690ION    NA+35675  27.323  25.067   2.173
70691ION    NA+35676  16.671  11.655  12.884
70692ION    NA+35677  39.253   0.298  12.513
70693ION    NA+35678  27.857  10.249  10.728
70694ION    NA+35679  23.268  37.260   2.216
70695ION    NA+35680  36.744   2.922  14.441
70696ION    NA+35681  35.394  19.720  10.640
70697ION    NA+35682  12.567  44.403   1.375
70698ION    NA+35683  41.802  38.527   4.298
70699ION    NA+35684  10.271  24.744  13.262
70700ION    NA+35685  22.153  35.609  12.341
70701ION    NA+35686  40.615  43.560  11.613
70702ION    NA+35687  34.601  25.304  12.348
70703ION    NA+35688  18.865   5.086   3.121
70704ION    NA+35689  41.064  13.146  13.346
70705ION    NA+35690  28.108  11.260   4.259
70706ION    NA+35691  22.110  38.294   4.635
70707ION    NA+35692  31.957   9.869   3.697
70708ION    NA+35693   3.241  40.963   4.244
70709ION    NA+35694   7.357  30.114  11.599
70710ION    NA+35695  22.548  43.524   1.401
70711ION    NA+35696  29.876  13.908  10.578
70712ION    NA+35697  11.905  27.665   2.708
70713ION    NA+35698  43.578  13.858   4.491
70714ION    NA+35699  30.211  26.578   0.445
70715ION    NA+35700  44.942  37.291   2.191
70716ION    NA+35701  17.501  29.636   0.713
70717ION    NA+35702   7.444  31.464   3.087
70718ION    NA+35703  17.143   1.695  12.232
70719ION    NA+35704  12.140  19.405   5.141
70720ION    NA+35705  20.927   3.862  14.492
70721ION    NA+35706  13.779  26.633   3.716
70722ION    NA+35707  20.143  10.604  14.906
70723ION    NA+35708   9.980  32.731  12.844
70724ION    NA+35709   6.144  25.209  10.605
70725ION    NA+35710  39.881  12.080  11.614
70726ION    NA+35711  24.373  34.932  12.535
70727ION    NA+35712   5.725   0.177  12.485
70728ION    NA+35713  37.086  34.612  10.997
70729ION    NA+35714  16.916  25.378   2.651
70730ION    NA+35715  17.248   1.400   3.461
70731ION    NA+35716  44.830  32.144   1.491
70732ION    NA+35717  28.117   0.324  11.630
70733ION    NA+35718  26.171  17.852   2.368
70734ION    NA+35719  25.038  27.221  14.790
70735ION    NA+35720  16.392  36.956  13.565
70736ION    NA+35721  16.706  20.561  11.338
70737ION    NA+35722   1.515  17.269  11.121
70738ION    NA+35723  36.818   0.805  12.389
70739ION    NA+35724  36.478  13.412  11.684
70740ION    NA+35725  42.099  13.907   1.456
70741ION    NA+35726   2.106   5.706  13.001
70742ION    NA+35727  16.285  28.726  11.060
70743ION    NA+35728  13.180  28.744   4.757
70744ION    NA+35729   9.361  43.724   0.700
70745ION    NA+35730   9.108  20.307   2.365
70746ION    NA+35731   7.903  35.314   2.412
70747ION    NA+35732  23.939   4.998  14.859
70748ION    NA+35733  16.570  21.904  11.165
70749ION    NA+35734   7.476  34.315   2.242
70750ION    NA+35735  33.587   8.272   0.773
70751ION    NA+35736  44.964  20.086   5.518
70752ION    NA+35737  38.635  42.741   1.199
70753ION    NA+35738  36.876  28.759  13.246
70754ION    NA+35739   0.224  41.038   3.193
70755ION    NA+35740  27.702  23.522   0.211
70756ION    NA+35741   8.215  15.968  12.232
70757ION    NA+35742  33.879  34.623  12.099
70758ION    NA+35743   1.809  27.481   3.287
70759ION    NA+35744   0.415  21.059  14.978
70760ION    NA+35745  40.895  34.417   3.330
70761ION    NA+35746  25.177  13.694  11.156
70762ION    NA+35747  13.827  14.794   3.728
70763ION    NA+35748  18.853  39.891   2.256
70764ION    NA+35749  20.059  27.380   1.716
70765ION    NA+35750  36.341  34.862   1.606
70766ION    NA+35751  32.068  12.441  14.444
70767ION    NA+35752  35.745  40.283  11.640
70768ION    NA+35753  35.613  29.585  12.814
70769ION    NA+35754  15.696   7.056   3.051
70770ION    NA+35755   9.899  32.026  14.895
70771ION    NA+35756  34.483  41.325   4.683
70772ION    NA+35757  36.957  18.370  12.420
70773ION    NA+35758   6.722  10.050   4.645
70774ION    NA+35759  32.982   5.006   4.333
70775ION    NA+35760   8.343   1.661  13.180
70776ION    NA+35761   9.450   6.538  13.766
70777ION    NA+35762  35.878  43.451   4.115
70778ION    NA+35763  22.521   7.898  12.454
70779ION    NA+35764  18.818  24.988   1.344
70780ION    NA+35765  35.532  36.947   1.381
70781ION    NA+35766   0.279  23.675  11.042
70782ION    NA+35767  18.538  16.105  14.381
70783ION    NA+35768  17.402   4.154   0.164
70784ION    NA+35769   2.293  19.723   2.574
70785ION    NA+35770  39.602  16.693  12.693
70786ION    NA+35771  29.955  34.465  11.708
70787ION    NA+35772   5.003  36.266   4.808
70788ION    NA+35773   0.538  38.281   3.678
70789ION    NA+35774  28.088  41.098  14.751
70790ION    NA+35775  11.810   3.416   1.794
70791ION    NA+35776  23.268   7.459   1.700
70792ION    NA+35777  23.146  11.251  13.629
70793ION    NA+35778  12.735   5.706  11.764
70794ION    NA+35779  44.607  23.401   0.928
70795ION    NA+35780  36.069  10.420   1.916
70796ION    NA+35781  11.566  36.197   0.359
70797ION    NA+35782  18.752   3.512   1.978
70798ION    NA+35783  42.895  12.704  11.113
70799ION    NA+35784  17.253  10.990   1.213
70800ION    NA+35785   7.515  31.700  14.831
70801ION    NA+35786  44.354  23.524   3.301
70802ION    NA+35787   1.634   9.864   2.894
70803ION    NA+35788  16.348  12.056   0.793
70804ION    NA+35789  30.628   3.615  12.612
70805ION    NA+35790   4.373   2.234   1.501
70806ION    NA+35791  30.619   7.222   2.387
70807ION    NA+35792  24.939  40.002   0.003
70808ION    NA+35793  21.534  40.876   0.300
70809ION    NA+35794  43.320   5.209  11.225
70810ION    NA+35795  23.954  38.116  12.863
70811ION    NA+35796  24.800  10.925   1.735
70812ION    NA+35797  17.102   2.660   1.929
70813ION    NA+35798   3.070  43.763  12.957
70814ION    NA+35799  36.493  14.651   3.408
70815ION    NA+35800  24.195  43.415   3.035
70816ION    NA+35801  44.025  32.889   3.460
70817ION    NA+35802  28.349  26.074  11.901
70818ION    NA+35803  26.584  28.981   0.969
70819ION    NA+35804  30.510  21.570  13.320
70820ION    NA+35805   0.861  17.765  13.756
70821ION    NA+35806   4.747  18.094   1.451
70822ION    NA+35807   6.279  36.615  12.135
70823ION    NA+35808  18.762  43.987  11.624
70824ION    NA+35809   7.125  31.338  12.060
70825ION    NA+35810  16.071   2.779  13.058
70826ION    NA+35811  10.236  20.904   1.483
70827ION    NA+35812  13.619  23.805  11.542
70828ION    NA+35813  43.567   3.378  11.487
70829ION    NA+35814  43.207  34.301   3.298
70830ION    NA+35815  17.641   9.402  13.166
70831ION    NA+35816  29.566  17.014  12.157
70832ION    NA+35817  12.492  10.579  13.298
70833ION    NA+35818  38.863  43.173  14.048
70834ION    NA+35819   4.424  23.577  13.467
70835ION    NA+35820  37.751  23.637  14.878
70836ION    NA+35821   6.414   7.907   2.930
70837ION    NA+35822  31.172  38.058  12.878
70838ION    NA+35823   8.146  30.175  14.663
70839ION    NA+35824  16.403  10.609   4.951
70840ION    NA+35825   7.937  30.208   2.395
70841ION    NA+35826  40.295  30.794  14.374
70842ION    NA+35827   8.309  11.081   0.591
70843ION    NA+35828   2.962  11.034  10.226
70844ION    NA+35829   8.707   9.745  11.033
70845ION    NA+35830  29.855   1.738   2.247
70846ION    NA+35831  24.365  36.559  11.970
70847ION    NA+35832  18.622  30.670   4.334
70848ION    NA+35833  21.591  34.169   4.309
70849ION    NA+35834  27.435  30.659   1.692
70850ION    NA+35835  15.598  18.942   2.231
70851ION    NA+35836  40.654  34.014   1.558
70852ION    NA+35837   0.059  34.598   4.485
70853ION    NA+35838  43.530  17.616  12.502
70854ION    NA+35839  31.456  11.658   4.504
70855ION    NA+35840  42.377  17.920   0.452
70856ION    NA+35841   1.673  36.476   0.066
70857ION    NA+35842  16.693  12.910  10.283
70858ION    NA+35843  23.349  19.355   3.496
70859ION    NA+35844  20.418  26.635   5.006
70860ION    NA+35845   1.737  35.509   0.433
70861ION    NA+35846  41.011   3.249  14.917
70862ION    NA+35847   8.930  42.723   1.928
70863ION    NA+35848   1.638  37.830  10.943
70864ION    NA+35849  24.468  29.665  13.000
70865ION    NA+35850  44.852   7.637  14.471
70866ION    NA+35851   5.301  38.055   1.535
70867ION    NA+35852   1.555   3.915   3.640
70868ION    NA+35853  17.321  35.029  11.092
70869ION    NA+35854  32.810  37.897   3.764
70870ION    NA+35855  33.999   7.597   4.595
70871ION    NA+35856  40.937  35.048   1.420
70872ION    NA+35857  21.804  10.260  11.502
70873ION    NA+35858  32.481  44.821   0.832
70874ION    NA+35859  22.270  12.372   2.380
70875ION    NA+35860   3.785  12.288   1.803
70876ION    NA+35861  41.900   7.042   2.690
70877ION    NA+35862   5.186   3.880   2.741
70878ION    NA+35863   7.439   7.728  12.654
70879ION    NA+35864  14.129   3.588   1.179
70880ION    NA+35865  25.035  15.245   0.322
70881ION    NA+35866  32.370  30.538   1.911
70882ION    NA+35867  23.151   4.799   4.131
70883ION    NA+35868   9.328   0.875  13.687
70884ION    NA+35869  18.385  20.518   3.012
70885ION    NA+35870   6.835  24.378   0.490
70886ION    NA+35871   7.708  21.556  11.815
70887ION    NA+35872  33.401  18.802  10.720
70888ION    NA+35873  17.412  33.114   0.968
70889ION    NA+35874   0.941  24.273   5.008
70890ION    NA+35875  21.684  13.675   1.085
70891ION    NA+35876   3.598   3.899  10.172
70892ION    NA+35877  14.264  16.637   3.449
70893ION    NA+35878   5.030   8.239   0.907
70894ION    NA+35879  40.071   3.446   4.947
70895ION    NA+35880  17.217   3.556   2.142
70896ION    NA+35881  15.295   3.235   1.004
70897ION    NA+35882   6.619  30.719   2.280
70898ION    NA+35883  35.856  18.502  10.342
70899ION    NA+35884   3.976  42.408  13.328
70900ION    NA+35885  37.065   0.960   0.215
70901ION    NA+35886   1.866  40.713  12.583
70902ION    NA+35887  23.664  38.174   1.309
70903ION    NA+35888  36.748  32.620   1.212
70904ION    NA+35889  12.640  20.753  13.960
70905ION    NA+35890  26.585  27.552  13.450
70906ION    NA+35891  38.780  17.238  12.445
70907ION    NA+35892  30.163  37.525   0.425
70908ION    NA+35893  10.910  28.522   0.168
70909ION    NA+35894   3.552   1.632  12.943
70910ION    NA+35895  13.897  32.235   1.195
70911ION    NA+35896   4.874  17.953   4.132
70912ION    NA+35897  32.279  14.270  11.744
70913ION    NA+35898  11.343  18.809  11.282
70914ION    NA+35899  30.612  40.867  14.995
70915ION    NA+35900  39.133   2.687   4.558
70916ION    NA+35901  29.362  38.049   3.840
70917ION    NA+35902   8.002  25.968  13.114
70918ION    NA+35903   3.450   7.768  10.633
70919ION    NA+35904  32.343  25.844   0.156
70920ION    NA+35905  23.724  24.153  12.394
70921ION    NA+35906  23.006  25.239   1.518
70922ION    NA+35907  22.479  16.193  12.880
70923ION    NA+35908   3.018  15.076  11.102
70924ION    NA+35909  38.392  11.386   4.056
70925ION    NA+35910  26.889  33.300  10.957
70926ION    NA+35911   1.891  44.032  12.522
70927ION    NA+35912   8.935   3.530   0.875
70928ION    NA+35913   0.021  38.987   3.558
70929ION    NA+35914  25.938  36.676   2.217
70930ION    NA+35915  10.301  34.374   3.398
70931ION    NA+35916  18.449  15.439   4.554
70932ION    NA+35917  16.998  14.602   1.899
70933ION    NA+35918  40.115   3.641  11.952
70934ION    NA+35919  28.085  17.600   1.768
70935ION    NA+35920  38.321  37.902   3.868
70936ION    NA+35921  43.534   9.547   3.333
70937ION    NA+35922  41.143  39.584  11.744
70938ION    NA+35923  36.050  22.583   0.766
70939ION    NA+35924  25.397  23.053   3.739
70940ION    NA+35925  13.117   8.734   1.597
70941ION    NA+35926  42.507  38.581   1.268
70942ION    NA+35927  41.163  20.414   5.325
70943ION    NA+35928  30.661   1.291  13.886
70944ION    NA+35929   7.370  29.693   1.220
70945ION    NA+35930  16.836  21.483   4.022
70946ION    NA+35931  25.045  36.732   0.318
70947ION    NA+35932  15.836  15.003   4.728
70948ION    NA+35933  26.076  26.991   4.489
70949ION    NA+35934   3.427  23.314  14.461
70950ION    NA+35935  40.244  31.550  10.351
70951ION    NA+35936   5.304  23.452   2.945
70952ION    NA+35937  24.026  26.159  11.096
70953ION    NA+35938  41.049  33.550  11.960
70954ION    NA+35939  26.537  10.614  14.493
70955ION    NA+35940  28.355  37.917   1.826
70956ION    NA+35941   0.806  41.156  11.329
70957ION    NA+35942  21.914   9.931   4.123
70958ION    NA+35943  14.162  28.359  12.421
70959ION    NA+35944  22.720  28.115   2.371
70960ION    NA+35945  31.786   7.135   3.126
70961ION    NA+35946  12.087  25.278   3.180
70962ION    NA+35947  14.233  39.736  11.583
70963ION    NA+35948   2.303  11.886  11.617
70964ION    NA+35949   9.704  41.187  14.882
70965ION    NA+35950  21.745  12.755  11.452
70966ION    NA+35951  34.435  21.958  11.842
70967ION    NA+35952   1.966  41.695  12.750
70968ION    NA+35953   5.446  20.953   2.101
70969ION    NA+35954  12.075  44.228   3.254
70970ION    NA+35955  13.156  33.353  14.585
70971ION    NA+35956  36.510   9.787  12.818
70972ION    NA+35957  41.385   7.788   2.270
70973ION    NA+35958  24.246  12.698  13.082
70974ION    NA+35959  16.002  21.939  11.872
70975ION    NA+35960  29.164  27.814  14.549
70976ION    NA+35961  38.100  20.041   4.942
70977ION    NA+35962  27.658  25.471   0.581
70978ION    NA+35963  18.868  37.859   0.309
70979ION    NA+35964   2.150  11.848  13.495
70980ION    NA+35965  15.906  25.509  14.353
70981ION    NA+35966  10.542   5.627  10.777
70982ION    NA+35967   2.910  10.737  14.407
70983ION    NA+35968  36.639  39.875  13.756
70984ION    NA+35969  26.293   5.338  13.019
70985ION    NA+35970  25.329  32.137  14.037
70986ION    NA+35971  28.498  27.144   4.297
70987ION    NA+35972  28.558   1.998  13.290
70988ION    NA+35973  10.054  42.716  12.350
70989ION    NA+35974  13.663   6.085  13.326
70990ION    NA+35975  41.565  12.352  12.074
70991ION    NA+35976  32.676   1.951   0.085
70992ION    NA+35977  34.420  14.828  12.689
70993ION    NA+35978  44.704   2.859   3.430
70994ION    NA+35979  43.776  20.372   9.784
70995ION    NA+35980  19.117  12.777  11.316
70996ION    NA+35981  37.204   0.408   3.345
70997ION    NA+35982  12.198   1.767   2.381
70998ION    NA+35983  22.682  16.611   3.415
70999ION    NA+35984   7.471   6.373  13.904
71000ION    NA+35985  37.518  16.775  13.041
71001ION    NA+35986  22.980  21.257  11.571
71002ION    NA+35987  38.900   3.774   1.306
71003ION    NA+35988  25.817  35.542  12.692
71004ION    NA+35989  29.849  19.386   4.201
71005ION    NA+35990   9.359   9.254  11.996
71006ION    NA+35991  14.150  29.189   1.664
71007ION    NA+35992  23.835  27.963  10.157
71008ION    NA+35993  31.909  36.657  10.852
71009ION    NA+35994  17.093  16.358   9.609
71010ION    NA+35995   1.972  15.803  10.278
71011ION    NA+35996  39.651  21.820   0.532
71012ION    NA+35997  26.801  30.924  13.054
71013ION    NA+35998   2.135  18.465   2.544
71014ION    NA+35999  43.792  25.361   0.602
71015ION    NA+36000  43.473  20.364  14.017
71016ION    NA+36001  33.601   1.023   2.828
71017ION    NA+36002   1.415  42.490  13.084
71018ION    NA+36003  32.280  28.287   2.816
71019ION    NA+36004  39.064  19.297   2.843
71020ION    NA+36005  25.746  35.356   2.803
71021ION    NA+36006  16.441  29.579   3.985
71022ION    NA+36007  34.563  44.504  12.906
71023ION    NA+36008  37.850  19.731  12.296
71024ION    NA+36009   3.006   3.585  12.464
71025ION    NA+36010  20.031   7.811  10.179
71026ION    NA+36011  12.347  32.124  14.816
71027ION    NA+36012   7.196  22.844   3.625
71028ION    NA+36013  24.145   8.636   2.524
71029ION    NA+36014  15.136  22.669   1.532
71030ION    NA+36015  42.889   0.888  10.938
71031ION    NA+36016  40.022  21.749  11.632
71032ION    NA+36017  27.926   6.688  12.942
71033ION    NA+36018  31.548  36.388   2.064
71034ION    NA+36019  31.351  29.146   4.161
71035ION    NA+36020  20.254  21.597   5.054
71036ION    NA+36021   4.475  34.872  13.052
71037ION    NA+36022  39.543  11.328  14.039
71038ION    NA+36023  20.311  38.957   2.665
71039ION    NA+36024  18.121  23.472   1.623
71040ION    NA+36025   0.387  35.586  10.891
71041ION    NA+36026   2.429   8.791  10.561
71042ION    NA+36027   6.237  18.820   0.352
71043ION    NA+36028   7.650  44.235   1.490
71044ION    NA+36029  39.306  25.780  13.374
71045ION    NA+36030   8.209  19.309   3.100
71046ION    NA+36031  28.445  36.439  14.693
71047ION    NA+36032   5.932  27.442   1.743
71048ION    NA+36033  24.377  35.668   1.624
71049ION    NA+36034   9.805  23.394  14.671
71050ION    NA+36035  43.794  23.071   2.298
71051ION    NA+36036   6.931   3.545   3.855
71052ION    NA+36037   0.637  10.102   0.570
71053ION    NA+36038   2.002  12.597   4.557
71054ION    NA+36039  27.897  40.333   4.113
71055ION    NA+36040  12.450  26.265   3.920
71056ION    NA+36041   7.868  20.589   2.789
71057ION    NA+36042  23.640  32.041  11.985
71058ION    NA+36043  22.121  23.397  10.828
71059ION    NA+36044  34.414  28.060  14.650
71060ION    NA+36045  28.591   8.452   0.454
71061ION    NA+36046  13.663   8.612  10.743
71062ION    NA+36047  27.374  22.615   4.461
71063ION    NA+36048  13.333   7.099  11.931
71064ION    NA+36049  34.116  30.090   3.578
71065ION    NA+36050   1.408  19.892   3.419
71066ION    NA+36051   7.828   0.536   3.061
71067ION    NA+36052   7.276  34.272  12.575
71068ION    NA+36053   1.621   4.581  14.951
71069ION    NA+36054  18.498  29.959   0.794
71070ION    NA+36055  41.364  39.206  10.492
71071ION    NA+36056  10.940  42.544   1.839
71072ION    NA+36057  17.226  32.557   0.158
71073ION    NA+36058  27.243  14.187  13.084
71074ION    NA+36059   7.527  28.115  13.393
71075ION    NA+36060  14.222   5.932  14.141
71076ION    NA+36061  22.493  26.708   2.282
71077ION    NA+36062  14.594   3.085  11.921
71078ION    NA+36063  26.946  19.797  13.005
71079ION    NA+36064   4.741   0.348  12.528
71080ION    NA+36065   2.206  43.206  13.018
71081ION    NA+36066  44.843  42.280   2.382
71082ION    NA+36067  11.960  40.074   5.180
71083ION    NA+36068  41.439  11.915  13.084
71084ION    NA+36069  21.593  21.539   2.338
71085ION    NA+36070  33.026   8.415  14.724
71086ION    NA+36071  14.811  22.802  12.494
71087ION    NA+36072   2.514  25.479  11.595
71088ION    NA+36073  41.807  34.936  12.476
71089ION    NA+36074  32.776   7.289   4.906
71090ION    NA+36075   3.607  26.958   1.681
71091ION    NA+36076   9.247  33.389   1.884
71092ION    NA+36077  32.444  27.279   1.726
71093ION    NA+36078   2.138  10.722  13.772
71094ION    NA+36079   4.273   7.921   2.587
71095ION    NA+36080  43.390   1.990  13.047
71096ION    NA+36081   3.702   9.741   2.807
71097ION    NA+36082   5.164  13.957   1.643
71098ION    NA+36083  27.692  10.110   1.580
71099ION    NA+36084   3.060  18.776  11.069
71100ION    NA+36085  34.457  24.706   2.620
71101ION    NA+36086  16.393  15.068   3.900
71102ION    NA+36087   0.183  18.998   1.052
71103ION    NA+36088  17.207   7.296  14.074
71104ION    NA+36089  11.546  29.595  14.995
71105ION    NA+36090  17.680  13.134   1.387
71106ION    NA+36091  22.040   5.645  12.401
71107ION    NA+36092   0.851  20.797   2.198
71108ION    NA+36093  19.148  37.434   3.429
71109ION    NA+36094   7.405  32.421   3.374
71110ION    NA+36095  10.010  32.156   3.278
71111ION    NA+36096   9.461  11.845   0.254
71112ION    NA+36097   4.661  41.751  14.016
71113ION    NA+36098  31.197  42.910   4.038
71114ION    NA+36099  26.698   2.954  12.029
71115ION    NA+36100  20.238   3.194   1.858
71116ION    NA+36101  26.280  31.862  12.517
71117ION    NA+36102  43.551   1.605   2.744
71118ION    NA+36103  30.165  42.250   3.693
71119ION    NA+36104  16.674   3.500  12.607
71120ION    NA+36105   2.267  21.023  12.106
71121ION    NA+36106  22.984  39.734  11.837
71122ION    NA+36107  10.137  35.544  14.301
71123ION    NA+36108  38.127  26.117   3.263
71124ION    NA+36109   7.956  41.442  13.988
71125ION    NA+36110  35.627   0.662   1.220
71126ION    NA+36111  38.625  18.615   5.635
71127ION    NA+36112  12.768  33.976  13.859
71128ION    NA+36113  15.603  22.657   5.562
71129ION    NA+36114  42.283  16.148  14.976
71130ION    NA+36115   2.381  24.827   0.611
71131ION    NA+36116  18.035   4.524   3.103
71132ION    NA+36117  43.574  34.185   0.687
71133ION    NA+36118  39.494  14.195  11.211
71134ION    NA+36119  27.924  42.001  11.183
71135ION    NA+36120   5.241  44.022   2.722
71136ION    NA+36121  40.624  35.322  14.187
71137ION    NA+36122  16.483   4.365   0.499
71138ION    NA+36123  25.178  30.786  13.244
71139ION    NA+36124  10.832   8.360  14.718
71140ION    NA+36125   9.626   9.596  14.680
71141ION    NA+36126  18.335   4.353  12.446
71142ION    NA+36127  44.392  34.456   3.681
71143ION    NA+36128  10.418  13.407   9.938
71144ION    NA+36129  24.482  26.811  12.064
71145ION    NA+36130  21.404  11.950  11.954
71146ION    NA+36131  11.917   2.466  11.529
71147ION    NA+36132  16.672  16.781  13.143
71148ION    NA+36133  40.488  21.980  10.550
71149ION    NA+36134  36.074  14.060   0.312
71150ION    NA+36135  24.700  16.277  12.148
71151ION    NA+36136  34.238  16.970   4.616
71152ION    NA+36137  20.065   3.750  12.812
71153ION    NA+36138  43.783  33.717   3.967
71154ION    NA+36139  28.766  19.470  13.982
71155ION    NA+36140  15.497  15.161  10.446
71156ION    NA+36141   8.943  11.748   2.172
71157ION    NA+36142  20.544  24.041   1.939
71158ION    NA+36143  37.729   9.422  12.955
71159ION    NA+36144  44.488  40.040  13.973
71160ION    NA+36145  38.477   1.036  14.373
71161ION    NA+36146   5.256   1.217  12.658
71162ION    NA+36147   9.748  20.905  13.930
71163ION    NA+36148   5.918  30.912  10.702
71164ION    NA+36149  22.955  22.652  10.567
71165ION    NA+36150   8.647  24.044   1.659
71166ION    NA+36151  11.228  23.529  12.601
71167ION    NA+36152  13.520  13.418   2.133
71168ION    NA+36153  10.950   2.040   1.984
71169ION    NA+36154  43.285  35.919  13.541
71170ION    NA+36155  16.376  40.806   2.395
71171ION    NA+36156  27.448   6.442   1.776
71172ION    NA+36157  32.001  30.888  10.760
71173ION    NA+36158  33.216  37.490   0.040
71174ION    NA+36159  41.285  33.782   0.818
71175ION    NA+36160  40.952   2.116   2.564
71176ION    NA+36161  18.568  14.650   1.946
71177ION    NA+36162  40.540  29.035  10.797
71178ION    NA+36163  28.894  31.874   2.568
71179ION    NA+36164  10.933   6.806   2.725
71180ION    NA+36165   8.421  12.800  12.420
71181ION    NA+36166  23.472  31.168   3.180
71182ION    NA+36167   1.831  33.119   2.664
71183ION    NA+36168  40.693   4.727   2.950
71184ION    NA+36169  34.851  10.359   4.531
71185ION    NA+36170  15.608   6.368  12.446
71186ION    NA+36171  18.642   0.991   3.560
71187ION    NA+36172  16.116  12.555  11.229
71188ION    NA+36173  12.086   8.314   2.382
71189ION    NA+36174  42.067  20.333  14.273
71190ION    NA+36175  17.596  19.911   3.186
71191ION    NA+36176   2.546   1.806   9.632
71192ION    NA+36177  18.231   4.411  13.471
71193ION    NA+36178  17.777  28.510  10.798
71194ION    NA+36179  43.476   5.706  14.322
71195ION    NA+36180  17.886  13.040   0.044
71196ION    NA+36181  30.650  11.111   0.956
71197ION    NA+36182  16.552  35.507  13.454
71198ION    NA+36183   7.379  10.874   1.957
71199ION    NA+36184  21.697  23.430   2.066
71200ION    NA+36185  33.121  37.812   1.250
71201ION    NA+36186  42.363  32.932   1.814
71202ION    NA+36187  31.525   7.148  14.586
71203ION    NA+36188  41.690  33.080   5.489
71204ION    NA+36189  16.159  16.297   0.232
71205ION    NA+36190  22.448  44.375  11.436
71206ION    NA+36191  27.570   0.530   1.727
71207ION    NA+36192   7.748  34.982   0.622
71208ION    NA+36193  40.573  11.551   1.278
71209ION    NA+36194   7.089  26.047   0.889
71210ION    NA+36195  26.635   7.309  10.907
71211ION    NA+36196  31.857  14.467   3.234
71212ION    NA+36197  38.946  33.443  12.105
71213ION    NA+36198  16.120  13.782  14.522
71214ION    NA+36199  17.393  25.626  10.849
71215ION    NA+36200  12.267  25.711  11.157
71216ION    NA+36201   4.962   9.984   3.790
71217ION    NA+36202  31.160  37.319  10.852
71218ION    NA+36203  18.438   6.945  13.524
71219ION    NA+36204  43.884  33.934  14.322
71220ION    NA+36205  22.303  27.953  13.920
71221ION    NA+36206  24.639  25.591   3.626
71222ION    NA+36207   3.887  34.244  11.931
71223ION    NA+36208  22.861  38.740   2.294
71224ION    NA+36209  28.108  40.772   2.795
71225ION    NA+36210  24.927   6.325  14.782
71226ION    NA+36211   7.864   7.411  13.915
71227ION    NA+36212  15.275  13.805   0.978
71228ION    NA+36213  31.933  18.678   2.364
71229ION    NA+36214  11.205  38.908  11.515
71230ION    NA+36215  17.100  20.552   3.773
71231ION    NA+36216  15.066  20.979   2.574
71232ION    NA+36217  26.305  26.028  10.833
71233ION    NA+36218  17.325  29.696   3.849
71234ION    NA+36219   1.074  21.560   1.153
71235ION    NA+36220  25.260  26.468   1.141
71236ION    NA+36221  30.529   2.716  11.027
71237ION    NA+36222  36.929  39.355   2.724
71238ION    NA+36223  21.707  38.989  13.514
71239ION    NA+36224  12.730   8.899  12.785
71240ION    NA+36225  23.753  14.452  12.597
71241ION    NA+36226   9.596  24.155   3.814
71242ION    NA+36227  18.247  42.069  12.084
71243ION    NA+36228  15.693  18.805   1.242
71244ION    NA+36229  40.487  17.749  12.157
71245ION    NA+36230   0.171  20.850  10.031
71246ION    NA+36231   5.604  11.817   2.103
71247ION    NA+36232  17.770  30.270  11.838
71248ION    NA+36233   7.740   8.382   0.693
71249ION    NA+36234  38.363  32.693   0.932
71250ION    NA+36235  35.727  15.852  12.818
71251ION    NA+36236  21.197   3.419   4.671
71252ION    NA+36237   3.218  16.835  12.149
71253ION    NA+36238  23.024  26.132  13.509
71254ION    NA+36239   2.166  18.906  13.067
71255ION    NA+36240   8.232  41.513   4.052
71256ION    NA+36241  23.134  36.701   4.492
71257ION    NA+36242  22.555  15.491  10.851
71258ION    NA+36243  18.668   7.327  10.677
71259ION    NA+36244  43.323  40.928  12.136
71260ION    NA+36245   7.617  17.237   0.266
71261ION    NA+36246  37.212  14.996  11.120
71262ION    NA+36247  19.540   7.641   1.200
71263ION    NA+36248   9.266  35.608   1.379
71264ION    NA+36249  11.947  25.046  10.209
71265ION    NA+36250  13.580  35.435  10.993
71266ION    NA+36251  13.482  40.628  14.887
71267ION    NA+36252  12.447  15.212  12.049
71268ION    NA+36253  21.326  35.437   0.878
71269ION    NA+36254  42.433  33.293   0.450
71270ION    NA+36255  20.256  15.064   0.726
71271ION    NA+36256  10.684  44.326   2.843
71272ION    NA+36257  21.529   9.103   3.634
71273ION    NA+36258   3.145  15.815   2.733
71274ION    NA+36259  40.427  39.101   0.089
71275ION    NA+36260   9.788  23.759   1.745
71276ION    NA+36261  41.238  23.486   0.694
71277ION    NA+36262  44.896  43.885   3.712
71278ION    NA+36263  33.835  14.716  11.886
71279ION    NA+36264  27.884   0.426  14.575
71280ION    NA+36265  44.182  42.228   0.773
71281ION    NA+36266  14.295  34.799  10.704
71282ION    NA+36267  29.073   3.929   0.406
71283ION    NA+36268  21.556  12.508  12.850
71284ION    NA+36269  15.349  37.787  13.927
71285ION    NA+36270  26.597   1.154   3.169
71286ION    NA+36271  44.011  38.858   0.539
71287ION    NA+36272  15.605  16.086  13.013
71288ION    NA+36273  10.157  10.125   3.331
71289ION    NA+36274   0.501  40.077   3.201
71290ION    NA+36275   7.806  40.717  14.496
71291ION    NA+36276  28.702  32.990  10.673
71292ION    NA+36277   6.243  43.261   2.546
71293ION    NA+36278  26.404  17.315  11.096
71294ION    NA+36279  39.770  24.728  13.622
71295ION    NA+36280   2.969  24.604   3.921
71296ION    NA+36281   9.372  21.746  10.993
71297ION    NA+36282  41.166  16.198  12.549
71298ION    NA+36283  30.495  27.917  12.336
71299ION    NA+36284  21.123   0.919  12.279
71300ION    NA+36285   5.704  26.019   0.908
71301ION    NA+36286  38.706  28.751   1.073
71302ION    NA+36287  18.298  13.320   3.076
71303ION    NA+36288  13.734  17.094   2.637
71304ION    NA+36289  34.992  15.846  13.873
71305ION    NA+36290   0.986  43.982   4.523
71306ION    NA+36291  29.330  22.597  12.017
71307ION    NA+36292  38.589   9.217   1.711
71308ION    NA+36293   4.083  15.216  12.516
71309ION    NA+36294  39.611   8.294  13.956
71310ION    NA+36295  30.444   3.611  13.801
71311ION    NA+36296  38.885  22.611   5.532
71312ION    NA+36297  14.019   1.133   0.077
71313ION    NA+36298   7.080  29.742   2.175
71314ION    NA+36299  27.445   3.783   2.523
71315ION    NA+36300  17.297  40.917  11.291
71316ION    NA+36301   7.800   3.961   0.341
71317ION    NA+36302  19.001  44.616   4.120
71318ION    NA+36303   6.924  43.739  14.232
71319ION    NA+36304  27.690  27.580   2.442
71320ION    NA+36305  40.296   9.215  12.029
71321ION    NA+36306  29.198  14.753   2.560
71322ION    NA+36307  43.585  22.801  11.885
71323ION    NA+36308  36.585  33.062  13.477
71324ION    NA+36309  17.891  19.240   2.234
71325ION    NA+36310  24.968   6.295  12.443
71326ION    NA+36311  19.212  25.420  11.463
71327ION    NA+36312  25.329  28.760  12.406
71328ION    NA+36313  17.636  26.902   9.745
71329ION    NA+36314  34.432   7.316   2.643
71330ION    NA+36315  14.298  12.361  14.354
71331ION    NA+36316  15.811  32.551  10.656
71332ION    NA+36317  17.717   7.684   2.449
71333ION    NA+36318  43.222  41.358  14.407
71334ION    NA+36319  41.321  28.431  12.456
71335ION    NA+36320  16.061  44.937   0.682
71336ION    NA+36321   7.882  31.034   4.283
71337ION    NA+36322  14.097  13.393  14.895
71338ION    NA+36323  29.957  36.311   3.890
71339ION    NA+36324  24.487  18.880   3.807
71340ION    NA+36325   5.483  42.563  13.009
71341ION    NA+36326  13.665  38.430   4.727
71342ION    NA+36327  41.115  19.662  13.810
71343ION    NA+36328   2.942  40.779  13.540
71344ION    NA+36329  41.872  42.532   0.794
71345ION    NA+36330  31.783  26.788   3.639
71346ION    NA+36331  12.596   1.508   0.880
71347ION    NA+36332  21.279  21.559  14.260
71348ION    NA+36333  11.473  27.042   1.461
71349ION    NA+36334  13.691  33.959   4.275
71350ION    NA+36335   8.631  18.712  12.517
71351ION    NA+36336  29.660   4.970  12.523
71352ION    NA+36337  20.294  41.465   4.957
71353ION    NA+36338  13.331  17.178  11.668
71354ION    NA+36339  21.060  19.332   3.267
71355ION    NA+36340  36.737  25.235  11.906
71356ION    NA+36341  17.693  37.114  14.812
71357ION    NA+36342  31.485  44.511  14.947
71358ION    NA+36343  19.019  44.440   1.281
71359ION    NA+36344   4.824  11.281  14.530
71360ION    NA+36345  30.765  38.023   4.657
71361ION    NA+36346  27.673  25.524  11.410
71362ION    NA+36347  13.824  29.548  14.339
71363ION    NA+36348  36.350  17.283  11.124
71364ION    NA+36349  15.892  10.601  12.478
71365ION    NA+36350   6.065   8.438  11.069
71366ION    NA+36351   7.822  28.688  11.988
71367ION    NA+36352  21.986  16.008  12.156
71368ION    NA+36353  41.105  37.080   3.360
71369ION    NA+36354  42.257  17.449  14.718
71370ION    NA+36355  21.395  31.016   3.674
71371ION    NA+36356  23.456  30.492   5.506
71372ION    NA+36357  24.624  11.360  10.714
71373ION    NA+36358  20.114   6.241  12.821
71374ION    NA+36359  34.042  27.510  13.513
71375ION    NA+36360  28.351  12.117  14.451
71376ION    NA+36361  29.510   6.803   1.884
71377ION    NA+36362  35.100  25.674   2.219
71378ION    NA+36363  41.208  26.642   3.852
71379ION    NA+36364  41.489  31.967  11.519
71380ION    NA+36365   0.725  19.571   4.221
71381ION    NA+36366   5.020   5.719   2.252
71382ION    NA+36367  39.342  10.568   2.483
71383ION    NA+36368  19.787  21.970   1.790
71384ION    NA+36369  28.693  23.161   2.826
71385ION    NA+36370  22.825  20.461   4.991
71386ION    NA+36371  20.554   0.349  11.851
71387ION    NA+36372  15.951  37.100   3.852
71388ION    NA+36373  19.182  36.055   2.689
71389ION    NA+36374   2.368  31.728   4.982
71390ION    NA+36375  14.382  32.015  10.277
71391ION    NA+36376  33.698  16.814  13.018
71392ION    NA+36377  11.892   2.167  12.379
71393ION    NA+36378  44.248  28.557  10.540
71394ION    NA+36379  21.054  31.125   0.366
71395ION    NA+36380  37.016  39.618   4.634
71396ION    NA+36381   9.341  33.470  12.180
71397ION    NA+36382  23.858  22.640  14.508
71398ION    NA+36383   0.144  31.185   0.836
71399ION    NA+36384   7.693  42.071  12.196
71400ION    NA+36385  33.089  42.962   0.574
71401ION    NA+36386  30.041  28.078   0.619
71402ION    NA+36387  15.389  44.649   2.510
71403ION    NA+36388  44.557  17.202   3.354
71404ION    NA+36389  19.460  34.941  12.224
71405ION    NA+36390   3.790  16.293  13.344
71406ION    NA+36391  13.864   6.542  12.395
71407ION    NA+36392   0.733  25.528   0.975
71408ION    NA+36393  25.509   1.528  11.781
71409ION    NA+36394  21.919   4.799  11.880
71410ION    NA+36395  36.837  16.180  13.491
71411ION    NA+36396  20.993  20.573  14.312
71412ION    NA+36397  24.186  14.483  14.807
71413ION    NA+36398  39.727  17.537  12.772
71414ION    NA+36399   5.441  36.243  12.648
71415ION    NA+36400  13.792  26.128  12.067
71416ION    NA+36401  17.229  28.970   4.576
71417ION    NA+36402  43.871   4.756   3.846
71418ION    NA+36403  11.940  38.096  11.394
71419ION    NA+36404   7.312  37.431  11.338
71420ION    NA+36405  34.797  11.893  12.894
71421ION    NA+36406  12.977   9.175  11.944
71422ION    NA+36407  43.635  23.558   0.749
71423ION    NA+36408   1.726  42.271   4.098
71424ION    NA+36409  37.849  39.975   3.303
71425ION    NA+36410   8.974   5.195   1.568
71426ION    NA+36411  16.262  18.025  12.649
71427ION    NA+36412   7.652  22.386  14.867
71428ION    NA+36413  29.305   9.971   3.295
71429ION    NA+36414  23.493  35.358   1.274
71430ION    NA+36415  18.468  17.841   3.595
71431ION    NA+36416  17.072  24.352   9.424
71432ION    NA+36417  11.835  34.452   0.291
71433ION    NA+36418   0.390  37.624   0.484
71434ION    NA+36419   2.705  15.280   4.102
71435ION    NA+36420  39.660  12.951   3.480
71436ION    NA+36421   9.266  43.151  11.977
71437ION    NA+36422  33.228  33.021   1.010
71438ION    NA+36423  16.861  15.738   4.490
71439ION    NA+36424  26.933  12.683   3.175
71440ION    NA+36425   5.204  22.957  11.923
71441ION    NA+36426  10.836  25.576  13.067
71442ION    NA+36427  21.512  26.073  13.494
71443ION    NA+36428  41.508  38.193  10.928
71444ION    NA+36429  10.383  24.620  10.744
71445ION    NA+36430  42.496   4.465   0.263
71446ION    NA+36431   5.744   0.913   1.163
71447ION    NA+36432  25.183  31.138   0.309
71448ION    NA+36433  11.502  26.568   3.003
71449ION    NA+36434  35.948  43.774  11.386
71450ION    NA+36435  15.695  11.061   4.058
71451ION    NA+36436  31.487  22.734  11.222
71452ION    NA+36437  36.755  17.720  13.020
71453ION    NA+36438   6.525  34.940   1.942
71454ION    NA+36439  34.444  33.708  14.864
71455ION    NA+36440  28.934  17.605   2.596
71456ION    NA+36441  42.016  42.934   3.646
71457ION    NA+36442  44.750  29.810   2.923
71458ION    NA+36443  24.874   8.842   3.177
71459ION    NA+36444   1.796  20.476   2.143
71460ION    NA+36445   5.970   3.064  10.685
71461ION    NA+36446  25.591   1.046  13.279
71462ION    NA+36447   9.354  14.760   1.329
71463ION    NA+36448  21.095  38.039   3.706
71464ION    NA+36449  15.622  11.100   5.136
71465ION    NA+36450  15.327  25.086   0.483
71466ION    NA+36451  23.383  30.041  14.122
71467ION    NA+36452   8.078  31.026  14.352
71468ION    NA+36453  15.716  19.947   1.915
71469ION    NA+36454  21.178   7.297   0.201
71470ION    NA+36455  24.222  36.071  10.688
71471ION    NA+36456  21.543   7.823  12.257
71472ION    NA+36457  44.465  20.796   0.537
71473ION    NA+36458  10.857   1.254   1.372
71474ION    NA+36459  43.883  15.197  11.048
71475ION    NA+36460  12.847  38.867   2.228
71476ION    NA+36461  41.457  27.063   1.405
71477ION    NA+36462  34.586  24.953   1.206
71478ION    NA+36463  42.282   8.214  11.331
71479ION    NA+36464  19.436   5.890   4.960
71480ION    NA+36465  38.536  33.162  14.966
71481ION    NA+36466   9.156  27.371   0.691
71482ION    NA+36467  19.868  35.367   2.678
71483ION    NA+36468  31.347  44.173  11.168
71484ION    NA+36469  26.882  11.377   1.399
71485ION    NA+36470  41.477  17.849  13.071
71486ION    NA+36471   3.325  38.091  13.388
71487ION    NA+36472  19.376  25.039  12.462
71488ION    NA+36473  18.032   3.645   3.579
71489ION    NA+36474  13.403  36.372  13.188
71490ION    NA+36475   4.441  17.672   3.214
71491ION    NA+36476  42.138  39.254  11.507
71492ION    NA+36477  42.882  35.516   3.144
71493ION    NA+36478   2.637  37.913  11.767
71494ION    NA+36479   2.786   7.402   2.191
71495ION    NA+36480   2.062  18.313  10.735
71496ION    NA+36481  10.876  29.950   1.908
71497ION    NA+36482  41.638  11.383   2.597
71498ION    NA+36483  15.478  41.244   2.369
71499ION    NA+36484   2.927  43.034   3.543
71500ION    NA+36485  32.453   9.085   9.327
71501ION    NA+36486  31.899  14.946   2.193
71502ION    NA+36487  14.034  44.242   2.014
71503ION    NA+36488   4.727  39.668   4.231
71504ION    NA+36489  44.147  12.616  13.064
71505ION    NA+36490  37.818  35.400   5.284
71506ION    NA+36491  42.308  10.214   0.841
71507ION    NA+36492  11.463  21.998  14.589
71508ION    NA+36493   3.675  15.967   3.443
71509ION    NA+36494  10.381  18.638  13.055
71510ION    NA+36495  32.029  35.127   2.023
71511ION    NA+36496  16.096   3.148   0.571
71512ION    NA+36497  12.375  14.741   3.855
71513ION    NA+36498  38.862  16.744  13.909
71514ION    NA+36499   0.495  27.277  13.994
71515ION    NA+36500  33.727  31.642  10.990
71516ION    NA+36501  35.139  43.104   2.733
71517ION    NA+36502  12.794  27.044   1.618
71518ION    NA+36503  10.375  17.089   1.792
71519ION    NA+36504  18.575  25.958   1.314
71520ION    NA+36505  15.985  40.136  11.982
71521ION    NA+36506  17.915  31.536   1.470
71522ION    NA+36507  26.986  36.899   4.193
71523ION    NA+36508  28.425  41.273  13.550
71524ION    NA+36509  13.448  44.540  14.177
71525ION    NA+36510  39.391  10.243  14.760
71526ION    NA+36511  26.625  26.213   2.331
71527ION    NA+36512  32.882  14.612  12.465
71528ION    NA+36513  39.474  44.448   0.244
71529ION    NA+36514  22.970  25.144   0.612
71530ION    NA+36515  13.497   8.634  12.166
71531ION    NA+36516  39.922  32.484  14.088
71532ION    NA+36517  45.000   7.720   4.426
71533ION    NA+36518  17.419  10.123  13.684
71534ION    NA+36519  22.672   9.177   4.763
71535ION    NA+36520  44.417  42.817  11.954
71536ION    NA+36521  19.696   2.296  11.885
71537ION    NA+36522  26.401   5.346   2.369
71538ION    NA+36523  17.139   8.238   1.850
71539ION    NA+36524  32.477  40.603  14.354
71540ION    NA+36525  17.074  10.661  12.914
71541ION    NA+36526   5.645  13.915   3.475
71542ION    NA+36527  17.772  37.248   3.340
71543ION    NA+36528  22.642  13.074  12.010
71544ION    NA+36529   1.080  37.620  13.389
71545ION    NA+36530  33.152   2.011  11.090
71546ION    NA+36531  23.602  44.596   1.149
71547ION    NA+36532  28.938  29.220   2.581
71548ION    NA+36533   5.494  12.084  14.354
71549ION    NA+36534  17.563   2.340   4.939
71550ION    NA+36535  36.691  39.096  14.530
71551ION    NA+36536  13.192  32.057  10.661
71552ION    NA+36537  43.353  18.329   0.351
71553ION    NA+36538   9.195  40.034   2.159
71554ION    NA+36539   5.769  10.834   4.046
71555ION    NA+36540  17.107  12.513  11.103
71556ION    NA+36541  10.916  11.556  14.723
71557ION    NA+36542  43.884   9.130   2.494
71558ION    NA+36543   9.881  29.586   3.990
71559ION    NA+36544  41.345   1.739  13.601
71560ION    NA+36545  34.437  34.593   0.076
71561ION    NA+36546  10.693  40.222   2.096
71562ION    NA+36547  42.340  28.855  10.692
71563ION    NA+36548  39.818   6.111  12.961
71564ION    NA+36549  20.765  17.544  11.705
71565ION    NA+36550  42.236   6.854   5.079
71566ION    NA+36551  17.617  13.244  10.646
71567ION    NA+36552  13.115   7.122  14.891
71568ION    NA+36553   8.421  32.298  11.947
71569ION    NA+36554  10.452  44.837   3.553
71570ION    NA+36555  29.251  44.252   1.752
71571ION    NA+36556  32.757  14.031   3.231
71572ION    NA+36557   9.523  44.154   1.506
71573ION    NA+36558   0.786  20.822   3.832
71574ION    NA+36559   7.625   3.945   3.923
71575ION    NA+36560   8.302  41.946   1.943
71576ION    NA+36561   4.905   6.491  10.996
71577ION    NA+36562  37.462  38.281   1.906
71578ION    NA+36563  35.627  32.843   1.047
71579ION    NA+36564   8.936  38.528  14.317
71580ION    NA+36565  34.398  36.504  11.154
71581ION    NA+36566   6.039  28.923  10.847
71582ION    NA+36567  20.464  37.984   0.862
71583ION    NA+36568  28.927  13.577  13.054
71584ION    NA+36569  31.609  44.243  13.991
71585ION    NA+36570   4.026   3.764   0.464
71586ION    NA+36571   3.525  13.282   2.450
71587ION    NA+36572   9.044  23.749   2.651
71588ION    NA+36573  12.701  14.784   0.249
71589ION    NA+36574  18.552  34.602   0.401
71590ION    NA+36575   7.831  37.517  10.488
71591ION    NA+36576  19.468  13.842  12.569
71592ION    NA+36577  17.755   5.140  12.657
71593ION    NA+36578   7.683  29.883  12.568
71594ION    NA+36579   4.692  27.936  12.477
71595ION    NA+36580  36.848  27.987  10.718
71596ION    NA+36581  11.553  29.220  11.170
71597ION    NA+36582   3.250   4.458   3.202
71598ION    NA+36583  14.652   4.852   1.851
71599ION    NA+36584  15.748  20.639   3.730
71600ION    NA+36585  41.290  14.326   1.411
71601ION    NA+36586  17.599  44.663   2.444
71602ION    NA+36587   3.918  38.956   2.266
71603ION    NA+36588  24.094   9.858   3.835
71604ION    NA+36589  43.872  29.045  12.041
71605ION    NA+36590  31.527  24.792  10.938
71606ION    NA+36591  31.634   0.683   4.642
71607ION    NA+36592  22.149  34.577  11.570
71608ION    NA+36593  42.889   7.416   4.572
71609ION    NA+36594   0.085  36.913  13.411
71610ION    NA+36595  21.448  42.007   1.080
71611ION    NA+36596  15.156   5.439   0.419
71612ION    NA+36597   7.234   2.785  10.488
71613ION    NA+36598  18.545  18.701  13.092
71614ION    NA+36599  25.262  32.142   2.949
71615ION    NA+36600   7.948  40.329   3.281
71616ION    NA+36601  37.117  39.756   0.895
71617ION    NA+36602  39.482   9.885  11.266
71618ION    NA+36603   0.802  42.987   4.474
71619ION    NA+36604  11.597  11.752  11.395
71620ION    NA+36605  32.083  43.207  11.539
71621ION    NA+36606  42.108  42.066   4.206
71622ION    NA+36607  22.743  17.286   0.875
71623ION    NA+36608  32.410  28.734   1.700
71624ION    NA+36609  34.367   5.481  10.313
71625ION    NA+36610   1.212  41.474   1.792
71626ION    NA+36611   3.270  33.521   5.134
71627ION    NA+36612  25.983  27.702   3.755
71628ION    NA+36613  14.624  24.144   0.828
71629ION    NA+36614  15.068  25.680   3.647
71630ION    NA+36615  33.947   2.904  14.119
71631ION    NA+36616  14.114  29.120  13.103
71632ION    NA+36617  31.558  26.493   0.745
71633ION    NA+36618   9.418  11.202  12.755
71634ION    NA+36619  32.613   9.122   3.589
71635ION    NA+36620  39.767  39.437   3.250
71636ION    NA+36621  29.810  42.988   5.137
71637ION    NA+36622  44.470  19.293  11.211
71638ION    NA+36623  11.618  34.557   4.636
71639ION    NA+36624   2.385  36.761  13.390
71640ION    NA+36625  16.771  26.432   1.189
71641ION    NA+36626  37.261  28.166   5.395
71642ION    NA+36627   0.731   0.423  12.037
71643ION    NA+36628  15.799  31.214  12.461
71644ION    NA+36629  39.606  35.999   2.201
71645ION    NA+36630  26.671  14.205  11.660
71646ION    NA+36631  12.715  16.747   0.889
71647ION    NA+36632  38.601  30.251  13.595
71648ION    NA+36633  38.652  13.488   3.518
71649ION    NA+36634  42.358  23.631   2.604
71650ION    NA+36635  17.055  13.471  14.690
71651ION    NA+36636   1.493   0.855   1.276
71652ION    NA+36637  41.638  40.151  10.314
71653ION    NA+36638  19.957  35.673  12.130
71654ION    NA+36639  19.521   9.362   0.699
71655ION    NA+36640  29.588  34.382  13.352
71656ION    NA+36641  11.824  39.170  13.565
71657ION    NA+36642   8.324   1.026  13.799
71658ION    NA+36643  27.932  35.430   4.653
71659ION    NA+36644  13.263  31.804   1.652
71660ION    NA+36645  28.626  38.947   3.186
71661ION    NA+36646   5.775  39.316  10.872
71662ION    NA+36647  40.680  21.375  12.440
71663ION    NA+36648  20.347  25.490   0.092
71664ION    NA+36649  43.362   4.227  11.000
71665ION    NA+36650  17.159   8.007   4.563
71666ION    NA+36651  22.589   6.663   3.181
71667ION    NA+36652   7.136   9.196   0.720
71668ION    NA+36653   0.120  41.512   4.142
71669ION    NA+36654  23.500  34.853   2.315
71670ION    NA+36655   4.360  28.433   0.706
71671ION    NA+36656  23.006   8.719   2.728
71672ION    NA+36657  29.867  33.457  10.775
71673ION    NA+36658  37.079  27.921   0.948
71674ION    NA+36659  44.039  14.329  12.879
71675ION    NA+36660   9.361  42.243  12.294
71676ION    NA+36661  18.164  16.308   4.826
71677ION    NA+36662  26.916  33.908   3.505
71678ION    NA+36663  10.269  36.191   2.919
71679ION    NA+36664  25.729  24.281  12.835
71680ION    NA+36665   9.770  40.087  10.742
71681ION    NA+36666  41.714  44.555   0.397
71682ION    NA+36667  31.456  31.427   2.151
71683ION    NA+36668  10.633  10.686   2.653
71684ION    NA+36669  33.832  23.438  14.303
71685ION    NA+36670  28.845  31.185  10.534
71686ION    NA+36671  14.255   3.683  12.971
71687ION    NA+36672  20.641  29.592  13.027
71688ION    NA+36673  30.374  37.918  10.659
71689ION    NA+36674  32.375  23.098   2.721
71690ION    NA+36675  44.256   7.817   5.343
71691ION    NA+36676  27.593  35.714   3.103
71692ION    NA+36677   9.667  16.764  10.832
71693ION    NA+36678  43.887  11.140  10.679
71694ION    NA+36679  12.828  10.817  14.422
71695ION    NA+36680  31.892  13.280   0.910
71696ION    NA+36681  36.410  15.107  10.895
71697ION    NA+36682  41.847  23.072   3.355
71698ION    NA+36683  42.823  21.676  12.847
71699ION    NA+36684  31.039  13.839   0.952
71700ION    NA+36685  38.044  10.355  13.735
71701ION    NA+36686  33.114  35.735   4.755
71702ION    NA+36687  11.414  36.370   4.116
71703ION    NA+36688  36.970   9.950   2.662
71704ION    NA+36689  35.268  14.802  11.204
71705ION    NA+36690  32.848  14.646   2.285
71706ION    NA+36691  20.637  27.851   0.951
71707ION    NA+36692   1.544   0.079  14.227
71708ION    NA+36693   2.943   3.986  11.274
71709ION    NA+36694  13.794  30.649  12.149
71710ION    NA+36695  34.042  19.769  14.478
71711ION    NA+36696   9.359  14.742  13.345
71712ION    NA+36697   6.530  44.712   4.633
71713ION    NA+36698  39.819  37.473   3.650
71714ION    NA+36699  36.826  43.228   2.134
71715ION    NA+36700  41.627  22.163   1.212
71716ION    NA+36701  32.995   9.555  10.336
71717ION    NA+36702  34.499  33.676  11.033
71718ION    NA+36703  22.691  26.630   3.259
71719ION    NA+36704  12.953  20.279   4.208
71720ION    NA+36705  40.519   9.822   0.240
71721ION    NA+36706  14.116  44.905  11.226
71722ION    NA+36707  43.698  35.444  12.764
71723ION    NA+36708  19.684  29.716   0.407
71724ION    NA+36709  24.707   9.874  13.465
71725ION    NA+36710  36.458  12.576   3.198
71726ION    NA+36711  21.951   2.462  12.124
71727ION    NA+36712  39.884   4.205  14.047
71728ION    NA+36713   0.877   0.252  11.062
71729ION    NA+36714  25.451  26.448  13.404
71730ION    NA+36715  27.083  22.798  14.849
71731ION    NA+36716   2.185  43.471   4.051
71732ION    NA+36717  41.510  44.047  12.939
71733ION    NA+36718  34.509  17.663  12.760
71734ION    NA+36719  27.789   5.111   4.592
71735ION    NA+36720   7.809  27.393   3.554
71736ION    NA+36721  43.313  15.554   3.318
71737ION    NA+36722  20.555  29.454  14.990
71738ION    NA+36723  12.379  28.133   3.848
71739ION    NA+36724  39.024  13.552   2.289
71740ION    NA+36725  39.283  10.093  13.378
71741ION    NA+36726  15.112  15.254  14.243
71742ION    NA+36727  42.034  37.476   3.932
71743ION    NA+36728  20.049  24.747   0.901
71744ION    NA+36729  13.915  23.199  14.779
71745ION    NA+36730  20.065  44.362  13.087
71746ION    NA+36731   7.235  44.057  12.425
71747ION    NA+36732  29.517   5.959   2.600
71748ION    NA+36733  29.419  36.400   3.269
71749ION    NA+36734   1.584  44.803   2.730
71750ION    NA+36735  40.125  13.137   1.713
71751ION    NA+36736   9.357   8.381  11.425
71752ION    NA+36737  29.791   4.185  13.127
71753ION    NA+36738  38.292  22.048  14.343
71754ION    NA+36739   7.529  10.722   2.965
71755ION    NA+36740  32.769  39.329  13.529
71756ION    NA+36741  43.667  29.477  12.930
71757ION    NA+36742  21.069  41.429   1.661
71758ION    NA+36743  37.125  21.873  13.243
71759ION    NA+36744  21.151   0.015  14.961
71760ION    NA+36745  18.891  40.237  13.632
71761ION    NA+36746  29.674   3.333  11.374
71762ION    NA+36747  29.768   7.732  11.024
71763ION    NA+36748   1.840   6.534  12.429
71764ION    NA+36749  16.021   4.261   3.817
71765ION    NA+36750  38.920  20.707  14.709
71766ION    NA+36751  44.988   8.643  11.616
71767ION    NA+36752  13.625   3.065  14.572
71768ION    NA+36753  11.739   5.493   2.473
71769ION    NA+36754  24.994  24.883  11.818
71770ION    NA+36755  30.401  10.140   1.744
71771ION    NA+36756  31.226  25.963  14.886
71772ION    NA+36757  11.917  25.930   0.194
71773ION    NA+36758  44.183  41.244   4.407
71774ION    NA+36759  26.233  38.052  14.995
71775ION    NA+36760  21.778  28.947  11.256
71776ION    NA+36761  38.333   2.775   4.708
71777ION    NA+36762  41.617  39.468   1.748
71778ION    NA+36763   9.221  38.843   0.917
71779ION    NA+36764  21.980  29.222   3.514
71780ION    NA+36765   6.829  16.447   0.203
71781ION    NA+36766  38.962   3.693  10.887
71782ION    NA+36767  18.307   0.907  13.934
71783ION    NA+36768  15.570  36.389  13.798
71784ION    NA+36769  26.425  14.175   2.490
71785ION    NA+36770   8.347  10.991   4.162
71786ION    NA+36771  11.609  17.556   4.131
71787ION    NA+36772  34.983  24.563   3.461
71788ION    NA+36773   3.340  42.481  11.122
71789ION    NA+36774   6.759  29.584  12.329
71790ION    NA+36775  41.021  10.161   1.820
71791ION    NA+36776   9.760  25.413   4.621
71792ION    NA+36777  39.962  26.584   2.261
71793ION    NA+36778  29.272  36.840  12.283
71794ION    NA+36779  21.470  39.026   4.402
71795ION    NA+36780  38.579   2.023   4.442
71796ION    NA+36781   3.103  17.806  13.160
71797ION    NA+36782  27.478  41.208   1.135
71798ION    NA+36783  22.924  24.211   3.331
71799ION    NA+36784  38.419  13.159   1.596
71800ION    NA+36785  21.428  39.473  14.592
71801ION    NA+36786  42.803   0.675  13.004
71802ION    NA+36787  41.892   5.970  11.117
71803ION    NA+36788  30.053  14.096  14.945
71804ION    NA+36789  21.320  28.385  11.805
71805ION    NA+36790  30.660   5.143   2.183
71806ION    NA+36791  37.133   1.453   1.345
71807ION    NA+36792   9.483  23.899   9.792
71808ION    NA+36793  43.602  22.089  10.603
71809ION    NA+36794  29.376   8.747   4.058
71810ION    NA+36795  32.174   7.800   1.909
71811ION    NA+36796  44.216  38.137   2.871
71812ION    NA+36797  41.096   7.545   3.247
71813ION    NA+36798  15.102  41.862  10.963
71814ION    NA+36799  18.050  40.665  12.684
71815ION    NA+36800  30.463  37.481  13.575
71816ION    NA+36801  10.982  39.514  13.587
71817ION    NA+36802  21.645  17.309  11.121
71818ION    NA+36803  12.240  22.009  12.923
71819ION    NA+36804   2.327   4.689  12.980
71820ION    NA+36805  33.397  26.575  12.429
71821ION    NA+36806  15.700  29.638   4.520
71822ION    NA+36807  41.382   5.745  11.720
71823ION    NA+36808  15.309   3.251  12.614
71824ION    NA+36809  43.001  36.196   4.597
71825ION    NA+36810  35.707  26.722  10.803
71826ION    NA+36811  31.385   8.034  14.431
71827ION    NA+36812  16.069  10.099   4.149
71828ION    NA+36813  22.129  38.123  11.986
71829ION    NA+36814  16.381  23.971  12.767
71830ION    NA+36815  23.501  18.098  10.486
71831ION    NA+36816   7.671  42.651  14.550
71832ION    NA+36817  10.194  22.724   0.375
71833ION    NA+36818  33.645  29.999   1.819
71834ION    NA+36819  27.611   7.844  13.493
71835ION    NA+36820  24.261  41.965  13.821
71836ION    NA+36821  10.545  34.120  11.816
71837ION    NA+36822   7.942   6.302  11.688
71838ION    NA+36823  39.545  43.553  13.424
71839ION    NA+36824  18.768  32.696  10.739
71840ION    NA+36825  20.813  39.609   1.341
71841ION    NA+36826  12.801  32.845   3.888
71842ION    NA+36827  28.689   2.626   9.931
71843ION    NA+36828  12.498  29.073   3.334
71844ION    NA+36829  10.899   6.217  14.390
71845ION    NA+36830  16.216  14.358  13.710
71846ION    NA+36831  22.557  14.713   4.207
71847ION    NA+36832  19.478   7.168  11.901
71848ION    NA+36833   5.193  18.841  14.491
71849ION    NA+36834  27.016   6.404   2.995
71850ION    NA+36835   9.433  23.944   0.347
71851ION    NA+36836  16.117  13.068  12.700
71852ION    NA+36837   7.455  23.274  14.810
71853ION    NA+36838   2.896   8.373   1.791
71854ION    NA+36839  44.083  23.011   4.197
71855ION    NA+36840  37.960  24.589   2.403
71856ION    NA+36841  43.747  35.032  13.555
71857ION    NA+36842  39.864   8.223   3.499
71858ION    NA+36843  41.868  20.776  12.087
71859ION    NA+36844   9.177  32.084  14.206
71860ION    NA+36845   4.359  40.725   2.526
71861ION    NA+36846  29.510  29.308  11.236
71862ION    NA+36847   0.202  17.593   2.339
71863ION    NA+36848  30.799   6.166   2.312
71864ION    NA+36849  34.812   3.972  10.725
71865ION    NA+36850  10.772  40.026   3.115
71866ION    NA+36851  23.535   2.191  13.812
71867ION    NA+36852   3.791   1.051   4.453
71868ION    NA+36853  30.477  14.988  14.377
71869ION    NA+36854   1.031  17.182   1.918
71870ION    NA+36855  36.328  36.868  10.616
71871ION    NA+36856   2.654   2.898  13.851
71872ION    NA+36857  35.075  39.049  13.886
71873ION    NA+36858   9.787  14.051   2.181
71874ION    NA+36859   5.691  31.307  14.848
71875ION    NA+36860  12.671  43.305  14.705
71876ION    NA+36861  44.296  27.271   4.512
71877ION    NA+36862   4.077  11.655  13.050
71878ION    NA+36863  24.810  15.280   2.297
71879ION    NA+36864  10.975   9.792   1.446
71880ION    NA+36865  25.247  37.833   0.087
71881ION    NA+36866  42.001   1.369  14.085
71882ION    NA+36867  12.727  27.150   4.921
71883ION    NA+36868  38.348  37.818   0.913
71884ION    NA+36869   0.165   8.526  14.135
71885ION    NA+36870   6.492   4.251  10.385
71886ION    NA+36871  12.881  18.344   4.215
71887ION    NA+36872  27.081  21.558  11.614
71888ION    NA+36873  15.929  26.472  11.595
71889ION    NA+36874   4.265  10.691  11.542
71890ION    NA+36875  30.011  41.310   4.014
71891ION    NA+36876  29.985  27.921   3.631
71892ION    NA+36877  32.065  33.687   4.095
71893ION    NA+36878  25.462  35.513  11.461
71894ION    NA+36879  41.388   7.750  11.172
71895ION    NA+36880  43.775  35.477  14.983
71896ION    NA+36881  21.328  39.999  12.864
71897ION    NA+36882  35.310  36.479  10.668
71898ION    NA+36883  40.237  30.585   1.867
71899ION    NA+36884   3.194  44.250   4.134
71900ION    NA+36885  30.020   6.257  12.452
71901ION    NA+36886  37.356  35.169  14.464
71902ION    NA+36887  30.311  17.405  11.617
71903ION    NA+36888  13.413  41.169   0.624
71904ION    NA+36889  43.481   2.707   1.873
71905ION    NA+36890  34.901   6.442  10.286
71906ION    NA+36891  26.526   9.549  12.725
71907ION    NA+36892  29.548  24.709   0.894
71908ION    NA+36893  19.025   4.258   2.585
71909ION    NA+36894  22.454  43.811  12.510
71910ION    NA+36895  26.787   0.676  10.276
71911ION    NA+36896  41.433  34.636   0.269
71912ION    NA+36897  37.269  33.936   1.695
71913ION    NA+36898  23.751   6.087  13.292
71914ION    NA+36899  17.309  16.539   1.239
71915ION    NA+36900  31.907  34.599   2.871
71916ION    NA+36901  19.456  23.540   2.283
71917ION    NA+36902  38.894  41.536   2.172
71918ION    NA+36903  17.799  26.090  11.418
71919ION    NA+36904  26.882  30.906   0.899
71920ION    NA+36905   7.728  35.157  13.822
71921ION    NA+36906   3.115  40.353  14.322
71922ION    NA+36907  35.626  10.231  12.963
71923ION    NA+36908  43.770  28.195  12.557
71924ION    NA+36909   5.399  37.623   3.282
71925ION    NA+36910  13.355  24.447   1.750
71926ION    NA+36911   1.754  41.837   0.319
71927ION    NA+36912  12.478   0.880   4.426
71928ION    NA+36913  37.327  31.557  12.886
71929ION    NA+36914  13.842   8.940   0.936
71930ION    NA+36915  14.426  13.226   2.141
71931ION    NA+36916  23.791  29.205   4.636
71932ION    NA+36917  34.233  41.145  10.849
71933ION    NA+36918  22.043  31.088   4.304
71934ION    NA+36919  21.248  37.258   9.922
71935ION    NA+36920  38.883   8.702  13.143
71936ION    NA+36921  41.492   9.873   2.517
71937ION    NA+36922  25.991  16.818  12.961
71938ION    NA+36923  28.729   8.474   1.971
71939ION    NA+36924  21.752  40.285   1.837
71940ION    NA+36925  33.313   1.627  14.583
71941ION    NA+36926  11.335   4.453   2.231
71942ION    NA+36927  29.101  34.862   2.206
71943ION    NA+36928  21.161  24.781   1.669
71944ION    NA+36929  32.653   3.874  12.067
71945ION    NA+36930  43.600  27.947  11.523
71946ION    NA+36931  13.953  22.474  12.617
71947ION    NA+36932   3.215   2.961   3.415
71948ION    NA+36933   7.228  19.279   1.436
71949ION    NA+36934  19.226  16.451  12.767
71950ION    NA+36935   7.296   3.496   4.557
71951ION    NA+36936  19.627  19.249  13.126
71952ION    NA+36937  19.277  28.511   4.105
71953ION    NA+36938  32.852  26.586   2.324
71954ION    NA+36939   9.096  25.463  11.555
71955ION    NA+36940  24.941   9.592  11.123
71956ION    NA+36941  13.131  29.660  11.670
71957ION    NA+36942   4.546  21.285   1.659
71958ION    NA+36943   7.950  12.721   2.147
71959ION    NA+36944  14.809  19.976   4.622
71960ION    NA+36945   2.489  25.214  14.695
71961ION    NA+36946  38.318  22.520  10.255
71962ION    NA+36947  30.069  12.765   2.859
71963ION    NA+36948  31.100  32.823   1.722
71964ION    NA+36949  23.795   3.829  11.514
71965ION    NA+36950  16.675  10.235  10.942
71966ION    NA+36951  23.851  18.610   3.057
71967ION    NA+36952   4.151  20.006  14.890
71968ION    NA+36953   7.556   4.599  12.314
71969ION    NA+36954   8.845  21.764  12.830
71970ION    NA+36955  15.848   3.838   4.706
71971ION    NA+36956  33.993  13.752   1.478
71972ION    NA+36957  13.355  35.843   1.835
71973ION    NA+36958   7.680  25.701  14.023
71974ION    NA+36959  36.658  22.726   1.416
71975ION    NA+36960   5.340  32.374  13.606
71976ION    NA+36961  31.549  29.213   0.871
71977ION    NA+36962  26.325  33.874   0.229
71978ION    NA+36963  15.006  18.331  12.098
71979ION    NA+36964  21.613  23.254  14.804
71980ION    NA+36965  41.758  36.026  10.953
71981ION    NA+36966  34.995  35.103   1.671
71982ION    NA+36967   0.228  20.253   1.636
71983ION    NA+36968   5.348  35.811  13.442
71984ION    NA+36969  28.747  20.561  14.110
71985ION    NA+36970  24.511   0.955  12.891
71986ION    NA+36971  18.942  42.550  11.475
71987ION    NA+36972  26.679  33.320   2.214
71988ION    NA+36973  27.884  26.523  13.399
71989ION    NA+36974  25.449  41.207  10.529
71990ION    NA+36975  23.971  11.992   1.807
71991ION    NA+36976  40.753  38.332  12.801
71992ION    NA+36977  33.050  33.189  13.506
71993ION    NA+36978  14.463  35.069  12.933
71994ION    NA+36979  11.021   0.835  12.626
71995ION    NA+36980  27.261  40.338  14.979
71996ION    NA+36981  27.718  18.680   0.411
71997ION    NA+36982  41.227  26.078  12.555
71998ION    NA+36983   6.556  35.464   1.186
71999ION    NA+36984  33.931  14.496   4.033
72000ION    NA+36985  16.753   3.839  14.026
72001ION    NA+36986  35.269  11.122   2.789
72002ION    NA+36987  37.021  13.841  13.010
72003ION    NA+36988  34.795  14.660   3.559
72004ION    NA+36989  20.010  40.121   4.529
72005ION    NA+36990  11.387  15.068   2.663
72006ION    NA+36991  21.974  12.627   1.405
72007ION    NA+36992  44.291   8.898   3.249
72008ION    NA+36993  40.105  19.266  12.905
72009ION    NA+36994  31.049  18.031   2.995
72010ION    NA+36995  44.845  10.726  10.810
72011ION    NA+36996  15.290  43.435   0.880
72012ION    NA+36997  16.405  26.826   1.898
72013ION    NA+36998   1.638  43.953   2.393
72014ION    NA+36999  23.738  44.044   3.517
72015ION    NA+37000  21.147  17.353   3.329
72016ION    NA+37001  35.175  32.453   0.403
72017ION    NA+37002  38.312   8.962  10.345
72018ION    NA+37003  34.534  41.767  14.601
72019ION    NA+37004  42.767  28.151  11.332
72020ION    NA+37005   1.656  30.293  14.108
72021ION    NA+37006  44.715  29.697  11.054
72022ION    NA+37007  14.842  43.875  12.228
72023ION    NA+37008  31.155  11.579   0.231
72024ION    NA+37009  26.943  34.615  14.886
72025ION    NA+37010  37.876  37.349  13.430
72026ION    NA+37011   8.697  21.728  13.725
72027ION    NA+37012  38.514   7.756  14.462
72028ION    NA+37013  14.605  38.929  10.701
72029ION    NA+37014   7.913   4.203  10.397
72030ION    NA+37015   2.758  27.974   1.529
72031ION    NA+37016  20.363  13.324  13.183
72032ION    NA+37017   0.477   9.885   1.881
72033ION    NA+37018   2.713   0.829  13.022
72034ION    NA+37019  30.067  31.229   4.986
72035ION    NA+37020  16.022   3.823   2.156
72036ION    NA+37021   4.192   3.479   2.645
72037ION    NA+37022  36.413  36.926  13.061
72038ION    NA+37023   4.444  16.193  12.531
72039ION    NA+37024  25.085  27.183  11.570
72040ION    NA+37025  24.069   0.537   3.185
72041ION    NA+37026  20.699  21.194   0.039
72042ION    NA+37027  40.409   8.521   1.305
72043ION    NA+37028   3.249  35.296   1.349
72044ION    NA+37029   6.463  40.996   1.258
72045ION    NA+37030  34.086  37.343  14.999
72046ION    NA+37031  25.284  14.628  13.639
72047ION    NA+37032  35.511  25.764  14.968
72048ION    NA+37033  43.950  27.055  14.237
72049ION    NA+37034  20.470  33.080  13.043
72050ION    NA+37035  31.149   8.296  10.763
72051ION    NA+37036  43.700  33.309   0.522
72052ION    NA+37037   2.900  36.840  12.456
72053ION    NA+37038  26.848  23.094   0.840
72054ION    NA+37039  12.954   3.949   0.858
72055ION    NA+37040  43.473   3.359   5.078
72056ION    NA+37041  44.602  30.818   0.204
72057ION    NA+37042  37.838  12.675   3.617
72058ION    NA+37043   8.345  17.070  13.476
72059ION    NA+37044  19.563  35.972   1.942
72060ION    NA+37045  34.711  17.034   2.128
72061ION    NA+37046  35.292  18.287   4.215
72062ION    NA+37047   5.815   8.861   4.234
72063ION    NA+37048   3.316  12.359   3.325
72064ION    NA+37049   4.145   1.268   0.947
72065ION    NA+37050  42.736  10.734   4.114
72066ION    NA+37051   9.645  23.333   4.404
72067ION    NA+37052   3.962  27.955   2.750
72068ION    NA+37053  10.540   0.843  13.403
72069ION    NA+37054   7.105  23.830  11.002
72070ION    NA+37055   0.015  26.981   0.025
72071ION    NA+37056   6.407  13.184  14.823
72072ION    NA+37057  33.433  15.571  14.931
72073ION    NA+37058   5.652   1.570  13.849
72074ION    NA+37059  39.562  18.105   0.991
72075ION    NA+37060  16.618  23.786  13.622
72076ION    NA+37061  34.854  27.432  12.894
72077ION    NA+37062  19.719  37.017  11.532
72078ION    NA+37063  20.506   8.706   2.804
72079ION    NA+37064   4.560   9.761   3.056
72080ION    NA+37065  13.680  23.052   1.452
72081ION    NA+37066  18.811   7.632  12.306
72082ION    NA+37067  13.866  29.354  11.065
72083ION    NA+37068  25.996  27.135   1.728
72084ION    NA+37069  44.565  43.050   0.649
72085ION    NA+37070  29.966  30.336  14.985
72086ION    NA+37071  14.563  34.574  13.865
72087ION    NA+37072  33.405  25.111   4.845
72088ION    NA+37073  19.846  23.075   0.481
72089ION    NA+37074  12.625   3.251   0.222
72090ION    NA+37075  44.574  26.677  10.673
72091ION    NA+37076  43.282  37.254   2.858
72092ION    NA+37077  24.618   7.970   2.761
72093ION    NA+37078   3.453   7.933   5.421
72094ION    NA+37079  21.725  44.789   2.057
72095ION    NA+37080  16.892  29.055   1.978
72096ION    NA+37081  35.537  36.871   4.615
72097ION    NA+37082  21.974  38.455   2.410
72098ION    NA+37083  23.196  40.619  11.820
72099ION    NA+37084  30.711  18.039   2.198
72100ION    NA+37085  36.725  15.348  11.599
72101ION    NA+37086   1.147  29.080  14.028
72102ION    NA+37087  36.944  16.896   1.798
72103ION    NA+37088  31.106  18.926  12.650
72104ION    NA+37089  24.523  32.354  13.486
72105ION    NA+37090   1.577  41.763  11.137
72106ION    NA+37091  10.634  37.932   4.148
72107ION    NA+37092  11.929  38.898  14.522
72108ION    NA+37093   4.529  23.564   3.419
72109ION    NA+37094   9.510   4.517   1.267
72110ION    NA+37095  21.093  14.866   2.203
72111ION    NA+37096   4.994  26.990  12.035
72112ION    NA+37097  44.209  11.844  11.132
72113ION    NA+37098  26.451  22.368  10.815
72114ION    NA+37099  38.435   3.090   2.931
72115ION    NA+37100  37.997   5.492   4.058
72116ION    NA+37101  37.591   3.403   1.384
72117ION    NA+37102   3.037  18.062   2.699
72118ION    NA+37103  12.724   1.215  10.747
72119ION    NA+37104  37.992  27.566  12.951
72120ION    NA+37105  27.981  14.143   0.343
72121ION    NA+37106  41.757   2.950  12.470
72122ION    NA+37107   5.109   5.098   5.432
72123ION    NA+37108  19.758  23.138   3.600
72124ION    NA+37109  37.602  23.272  12.110
72125ION    NA+37110  37.084  23.149   3.092
72126ION    NA+37111  13.401  35.191  12.417
72127ION    NA+37112  12.504   4.801   0.590
72128ION    NA+37113  43.259   7.712   0.297
72129ION    NA+37114  13.747   5.608   4.289
72130ION    NA+37115  20.375  24.570   4.608
72131ION    NA+37116  39.514  20.157   2.524
72132ION    NA+37117  42.581   5.786   1.208
72133ION    NA+37118  34.239  28.206  10.084
72134ION    NA+37119  38.512  14.372   3.332
72135ION    NA+37120  15.196   6.702  10.523
72136ION    NA+37121  25.210  36.457   4.976
72137ION    NA+37122  39.940  20.473  11.281
72138ION    NA+37123  40.711  29.502   0.254
72139ION    NA+37124  31.145   8.598   3.631
72140ION    NA+37125  35.495  38.622  10.671
72141ION    NA+37126   6.858   8.860  14.529
72142ION    NA+37127  17.647  12.502   2.709
72143ION    NA+37128  25.725  15.098  10.813
72144ION    NA+37129  29.184   2.871   0.911
72145ION    NA+37130  43.344  13.774   1.775
72146ION    NA+37131  38.033  36.825   1.312
72147ION    NA+37132   2.345   1.989   0.257
72148ION    NA+37133   6.400  40.564   2.184
72149ION    NA+37134  33.229  13.768   4.328
72150ION    NA+37135  34.668  22.042  12.817
72151ION    NA+37136  43.291  43.570   4.051
72152ION    NA+37137  30.469  35.485  14.779
72153ION    NA+37138  26.573  36.357  14.115
72154ION    NA+37139  44.679  35.437   0.063
72155ION    NA+37140  16.824  32.285   2.379
72156ION    NA+37141  11.268  37.517  12.654
72157ION    NA+37142   3.693  10.995  14.972
72158ION    NA+37143  19.446  34.529   4.149
72159ION    NA+37144  23.301  37.160   0.234
72160ION    NA+37145  40.596  27.283   3.983
72161ION    NA+37146   1.989  22.482   2.347
72162ION    NA+37147  22.100  25.982  10.666
72163ION    NA+37148   9.287  43.057   0.063
72164ION    NA+37149  31.580  27.671  11.661
72165ION    NA+37150  14.999  33.805  12.814
72166ION    NA+37151   9.993  11.169   4.076
72167ION    NA+37152  27.964  35.117  10.639
72168ION    NA+37153  27.110  17.285   1.676
72169ION    NA+37154   7.037  17.462  12.157
72170ION    NA+37155  10.876  41.148   4.406
72171ION    NA+37156  25.229  19.131   2.552
72172ION    NA+37157  43.509  24.078  10.595
72173ION    NA+37158  12.864  31.153  13.390
72174ION    NA+37159  43.024  43.912   2.394
72175ION    NA+37160  29.429  35.759   3.827
72176ION    NA+37161  34.388  13.651   2.644
72177ION    NA+37162  29.563  24.706   4.262
72178ION    NA+37163   5.451  12.910  10.920
72179ION    NA+37164  38.485  26.279   9.727
72180ION    NA+37165  30.010   6.374   1.131
72181ION    NA+37166  22.274  25.588  13.992
72182ION    NA+37167  40.564  42.219   3.842
72183ION    NA+37168  42.095  19.299   3.706
72184ION    NA+37169   8.383  22.997  14.561
72185ION    NA+37170  31.513  43.122   1.780
72186ION    NA+37171  29.761  38.172   2.931
72187ION    NA+37172   6.604   1.754   1.805
72188ION    NA+37173   0.594  32.221   1.022
72189ION    NA+37174  25.181  38.074   4.138
72190ION    NA+37175  32.783  18.451  13.502
72191ION    NA+37176  36.434  30.112   5.069
72192ION    NA+37177   2.875   6.662   2.911
72193ION    NA+37178   2.477   1.638  14.330
72194ION    NA+37179  15.681  44.189  13.307
72195ION    NA+37180  12.996  37.191  10.871
72196ION    NA+37181   5.902  22.245   1.663
72197ION    NA+37182  27.787  41.735  14.175
72198ION    NA+37183  40.840  14.283   5.564
72199ION    NA+37184  28.582  29.681   4.269
72200ION    NA+37185  30.283  23.549  13.009
72201ION    NA+37186  43.379  18.795   4.491
72202ION    NA+37187  28.204  25.898  14.897
72203ION    NA+37188   0.855  30.170  12.184
72204ION    NA+37189  28.919   7.792  12.967
72205ION    NA+37190  11.816  18.707   1.425
72206ION    NA+37191  43.968  25.670   1.537
72207ION    NA+37192  20.487  40.843   2.064
72208ION    NA+37193   3.720  22.427   3.160
72209ION    NA+37194  18.237  14.049  10.592
72210ION    NA+37195  30.961  12.952  14.020
72211ION    NA+37196  27.323  20.625   1.979
72212ION    NA+37197  24.251  19.622   5.149
72213ION    NA+37198  40.215   7.733   0.395
72214ION    NA+37199  34.131  18.543   0.911
72215ION    NA+37200  15.191  44.852  10.864
72216ION    NA+37201  44.706  37.373  14.797
72217ION    NA+37202  38.106   0.432   0.844
72218ION    NA+37203  18.396  14.839  11.196
72219ION    NA+37204  15.301  37.490   9.771
72220ION    NA+37205  34.280  20.659   0.801
72221ION    NA+37206  37.121  23.021  10.772
72222ION    NA+37207   2.449  23.550  14.012
72223ION    NA+37208  13.870  33.036   2.640
72224ION    NA+37209  40.259  43.782  13.612
72225ION    NA+37210   0.779  28.878   3.296
72226ION    NA+37211  13.312  18.703   3.488
72227ION    NA+37212  12.726  34.694  12.062
72228ION    NA+37213  32.668   3.276  10.757
72229ION    NA+37214   1.344  31.097   3.325
72230ION    NA+37215  14.337  43.783  13.516
72231ION    NA+37216  19.550  42.947   2.617
72232ION    NA+37217  40.523  13.931   0.425
72233ION    NA+37218  16.366  29.741  11.208
72234ION    NA+37219  13.396   0.565   2.680
72235ION    NA+37220  23.268  14.176   3.191
72236ION    NA+37221  12.311  22.177   2.331
72237ION    NA+37222  14.872  15.228   3.144
72238ION    NA+37223  40.464   0.526  11.661
72239ION    NA+37224   0.334  21.901  13.536
72240ION    NA+37225  19.233  20.294   2.824
72241ION    NA+37226  44.184  26.930   1.130
72242ION    NA+37227   7.897  39.905   1.950
72243ION    NA+37228  36.788   9.376  11.121
72244ION    NA+37229  10.645  34.486  10.772
72245ION    NA+37230  32.062   5.501  10.068
72246ION    NA+37231   4.593   0.412  14.054
72247ION    NA+37232  14.559  43.771   4.014
72248ION    NA+37233  12.170  31.577  10.686
72249ION    NA+37234  42.722  27.039  12.935
72250ION    NA+37235  14.041  30.824   1.432
72251ION    NA+37236  12.330   2.561   1.789
72252ION    NA+37237   0.952  39.557   0.415
72253ION    NA+37238  44.835  21.932   2.841
72254ION    NA+37239  22.618  37.435   4.554
72255ION    NA+37240   9.121  29.559   0.717
72256ION    NA+37241  42.297   5.481   4.475
72257ION    NA+37242   0.646   1.465  14.563
72258ION    NA+37243  37.887  26.494  12.018
72259ION    NA+37244  16.966  34.111   3.317
72260ION    NA+37245  19.477  25.200   0.163
72261ION    NA+37246  16.155   2.541  11.287
72262ION    NA+37247  40.580   9.703   2.592
72263ION    NA+37248   5.977  40.172  11.474
72264ION    NA+37249  39.188   7.260  11.190
72265ION    NA+37250  16.791  15.628  10.096
72266ION    NA+37251  33.475  37.922   2.933
72267ION    NA+37252  23.555  31.691  13.685
72268ION    NA+37253  40.488  16.999  13.042
72269ION    NA+37254  35.538  39.406   3.320
72270ION    NA+37255  36.529  12.218   1.251
72271ION    NA+37256   1.195   5.038   0.595
72272ION    NA+37257  19.296  13.830   4.200
72273ION    NA+37258  32.279  20.825   4.019
72274ION    NA+37259  43.904  37.874   0.693
72275ION    NA+37260   1.404  34.008   3.327
72276ION    NA+37261  15.752  38.384   3.163
72277ION    CL-37262  30.944  37.620   1.726
72278ION    CL-37263  29.410  27.927   4.940
72279ION    CL-37264  36.018  28.447   1.239
72280ION    CL-37265  40.534  18.714   1.769
72281ION    CL-37266  24.188  18.177  13.692
72282ION    CL-37267  26.037  30.965   1.778
72283ION    CL-37268  23.043  25.072  12.125
72284ION    CL-37269  39.507  29.834  10.976
72285ION    CL-37270  32.734  25.772  14.951
72286ION    CL-37271  11.043   6.204   4.286
72287ION    CL-37272  29.841  11.625  12.539
72288ION    CL-37273  15.227  43.752  12.421
72289ION    CL-37274  12.625  22.652   4.315
72290ION    CL-37275  21.527  20.099  13.332
72291ION    CL-37276  16.783  38.549   0.234
72292ION    CL-37277  13.014  40.277   2.824
72293ION    CL-37278  27.919  36.311  12.499
72294ION    CL-37279  25.084  30.723  12.803
72295ION    CL-37280  10.373   1.210  13.615
72296ION    CL-37281  16.164  27.683  13.117
72297ION    CL-37282  35.059  39.711  10.825
72298ION    CL-37283  32.097  34.899  11.090
72299ION    CL-37284  20.340  30.404  12.085
72300ION    CL-37285  44.215  22.663  13.587
72301ION    CL-37286  22.397  38.562   2.291
72302ION    CL-37287  19.150   9.723  11.673
72303ION    CL-37288   9.320  19.019   4.074
72304ION    CL-37289   4.217   0.567  11.557
72305ION    CL-37290  39.009   8.137   2.377
72306ION    CL-37291  37.758  36.418  12.623
72307ION    CL-37292   6.764  24.487   0.062
72308ION    CL-37293   4.211  11.674  12.615
72309ION    CL-37294   1.475  15.103  12.539
72310ION    CL-37295  12.690  19.008   0.447
72311ION    CL-37296  27.097  30.931   1.573
72312ION    CL-37297  10.794  31.594  10.414
72313ION    CL-37298  23.055  40.187  11.822
72314ION    CL-37299   1.253  17.524   1.736
72315ION    CL-37300   4.454  44.223   1.361
72316ION    CL-37301  33.906  26.576   3.143
72317ION    CL-37302   6.590  17.491  12.087
72318ION    CL-37303  29.156  32.883  13.867
72319ION    CL-37304  40.182  24.571  13.701
72320ION    CL-37305   9.609  35.829   1.558
72321ION    CL-37306  24.224  34.717  12.169
72322ION    CL-37307  44.594  28.751   5.139
72323ION    CL-37308  33.493  35.881  14.870
72324ION    CL-37309  12.633  39.054   3.557
72325ION    CL-37310  34.617  36.700  13.522
72326ION    CL-37311  39.920   3.824  14.294
72327ION    CL-37312   7.652  34.826   0.213
72328ION    CL-37313  21.611  19.306  12.217
72329ION    CL-37314  19.166  19.781  14.945
72330ION    CL-37315  27.010   0.911  11.069
72331ION    CL-37316  43.109  36.012  13.942
72332ION    CL-37317  22.103   0.068   3.710
72333ION    CL-37318   5.159  33.322  10.941
72334ION    CL-37319  28.356  15.930   4.648
72335ION    CL-37320  27.821  17.648   1.412
72336ION    CL-37321  39.776  39.556  13.915
72337ION    CL-37322  25.862  41.332  10.637
72338ION    CL-37323  13.984  44.194   1.573
72339ION    CL-37324  41.451   5.981  10.969
72340ION    CL-37325  44.074  15.806   4.481
72341ION    CL-37326   1.885  10.260  11.683
72342ION    CL-37327  27.734  15.771   2.446
72343ION    CL-37328   0.478  16.496  13.872
72344ION    CL-37329  27.370  37.130   4.220
72345ION    CL-37330  37.634  20.190   5.058
72346ION    CL-37331   4.993  15.188   9.846
72347ION    CL-37332  44.756  32.607  12.896
72348ION    CL-37333  15.807  27.812   0.483
72349ION    CL-37334  38.733   4.039  10.698
72350ION    CL-37335  39.092   8.693   4.085
72351ION    CL-37336  10.316  20.133   4.876
72352ION    CL-37337  24.781  20.427   1.636
72353ION    CL-37338   3.595  30.365   2.405
72354ION    CL-37339  22.383  28.166  13.523
72355ION    CL-37340  23.925  36.481  12.008
72356ION    CL-37341  33.356  24.700   4.643
72357ION    CL-37342  24.491  36.523  14.162
72358ION    CL-37343  33.700  26.958  11.257
72359ION    CL-37344  29.654   6.161  10.737
72360ION    CL-37345  25.520  10.093   1.247
72361ION    CL-37346  17.062  22.569   0.500
72362ION    CL-37347  41.192   2.346   4.916
72363ION    CL-37348  24.697  11.266   4.871
72364ION    CL-37349  19.995  40.451   5.007
72365ION    CL-37350   0.353  10.171   2.201
72366ION    CL-37351  31.851   9.389  12.638
72367ION    CL-37352   8.116  20.820   3.080
72368ION    CL-37353  40.838  16.674   1.446
72369ION    CL-37354   5.492   3.196  12.467
72370ION    CL-37355  31.455   7.588  14.495
72371ION    CL-37356  33.649  37.373   0.120
72372ION    CL-37357  18.417  25.131   3.626
72373ION    CL-37358  37.936  20.752  10.778
72374ION    CL-37359  22.716   7.506  14.541
72375ION    CL-37360  21.583  41.549   4.836
72376ION    CL-37361   5.633  21.291  11.037
72377ION    CL-37362  18.798  36.513  14.423
72378ION    CL-37363  11.761   1.489  14.400
72379ION    CL-37364  23.847   3.428  13.002
72380ION    CL-37365  14.828  39.299   3.243
72381ION    CL-37366  35.637  44.332   1.866
72382ION    CL-37367  42.248   8.975   4.003
72383ION    CL-37368  21.572  11.258   4.115
72384ION    CL-37369  28.583  25.783  14.644
72385ION    CL-37370   1.194   5.365   0.912
72386ION    CL-37371  18.034  44.755   1.244
72387ION    CL-37372   2.976  40.573  13.946
72388ION    CL-37373  31.193  44.852  14.961
72389ION    CL-37374   8.435  17.859   1.821
72390ION    CL-37375  28.744  11.448   1.689
72391ION    CL-37376  20.811  16.599  13.386
72392ION    CL-37377  34.806  13.201   3.829
72393ION    CL-37378  14.876  13.163   2.196
72394ION    CL-37379  17.432   3.952   2.218
72395ION    CL-37380   4.856  28.085  14.291
72396ION    CL-37381   4.220   9.723  11.244
72397ION    CL-37382  40.008  13.539  13.410
72398ION    CL-37383  35.287  22.836   1.532
72399ION    CL-37384   6.660   0.674  11.802
72400ION    CL-37385  11.806  15.539  13.532
72401ION    CL-37386  42.482  19.774   4.601
72402ION    CL-37387  11.319  40.986  11.206
72403ION    CL-37388  18.177   0.364  12.900
72404ION    CL-37389  10.326  26.715   0.869
72405ION    CL-37390  26.237  25.482  13.981
72406ION    CL-37391  20.520  36.914   2.440
72407ION    CL-37392  15.821  16.286   0.526
72408ION    CL-37393   8.907  31.587  12.665
72409ION    CL-37394  30.621  21.244  13.038
72410ION    CL-37395  36.387  17.080  11.530
72411ION    CL-37396  34.605  27.707  14.435
72412ION    CL-37397  13.306   8.799   3.315
72413ION    CL-37398  10.423   6.550   5.008
72414ION    CL-37399  34.547  43.665  10.253
72415ION    CL-37400  43.474  29.206  11.925
72416ION    CL-37401  23.745  33.230   0.886
72417ION    CL-37402  22.441  35.704  12.679
72418ION    CL-37403  41.492  20.877  13.344
72419ION    CL-37404  38.232  23.742  12.944
72420ION    CL-37405  14.307   6.962  14.433
72421ION    CL-37406   6.203  11.681   0.523
72422ION    CL-37407  31.177  33.079  10.661
72423ION    CL-37408  13.756  10.712  13.062
72424ION    CL-37409  34.090   3.698   3.141
72425ION    CL-37410  14.753  41.604  10.853
72426ION    CL-37411  16.137  27.391  14.073
72427ION    CL-37412  11.388  28.807  11.152
72428ION    CL-37413  18.925   8.231   2.116
72429ION    CL-37414  16.800  29.459   2.163
72430ION    CL-37415  18.823  20.388   2.996
72431ION    CL-37416  19.697  32.582   4.106
72432ION    CL-37417  21.653  16.222   0.285
72433ION    CL-37418  29.463   1.568   2.109
72434ION    CL-37419  28.640  18.680  12.150
72435ION    CL-37420   5.190  20.957   4.078
72436ION    CL-37421   6.424  31.567  13.450
72437ION    CL-37422   4.133   9.642   2.912
72438ION    CL-37423   7.393   5.410  11.111
72439ION    CL-37424  10.201   8.988  13.507
72440ION    CL-37425   4.352  13.846   3.115
72441ION    CL-37426  39.044   5.477   0.713
72442ION    CL-37427  12.244   9.443   1.176
72443ION    CL-37428  24.004  19.857  13.714
72444ION    CL-37429   0.764  30.607  12.187
72445ION    CL-37430  44.848   2.957   1.844
72446ION    CL-37431  10.020  26.643  12.524
72447ION    CL-37432  42.412   3.028  11.657
72448ION    CL-37433  39.891  22.898  11.994
72449ION    CL-37434   1.324   4.754   0.248
72450ION    CL-37435   2.979  26.546  14.058
72451ION    CL-37436  35.743  44.114  11.594
72452ION    CL-37437   8.109  15.830  11.823
72453ION    CL-37438  37.449   7.391   3.138
72454ION    CL-37439   1.645   6.178   0.544
72455ION    CL-37440   2.868  14.174  14.317
72456ION    CL-37441  12.636  43.138  14.291
72457ION    CL-37442  35.125   3.857   3.626
72458ION    CL-37443  21.393  40.515   0.523
72459ION    CL-37444  36.396  22.566   1.079
72460ION    CL-37445  37.868  27.245   1.899
72461ION    CL-37446  23.632  27.037  14.929
72462ION    CL-37447  41.298  22.012  11.141
72463ION    CL-37448  30.593  25.562  12.263
72464ION    CL-37449  44.031  11.539  10.843
72465ION    CL-37450  14.726  43.764  13.739
72466ION    CL-37451   9.834  17.063  12.048
72467ION    CL-37452  43.771  18.864  12.165
72468ION    CL-37453  19.419  37.164   3.705
72469ION    CL-37454  15.196  16.998  13.478
72470ION    CL-37455  10.008  41.132  13.484
72471ION    CL-37456  13.828  33.323   2.288
72472ION    CL-37457   5.287  28.987  14.319
72473ION    CL-37458  16.086   7.877   3.726
72474ION    CL-37459  21.620  14.287  13.671
72475ION    CL-37460   2.251  36.364   4.294
72476ION    CL-37461  16.917  25.625   3.023
72477ION    CL-37462  13.820  19.209   1.262
72478ION    CL-37463  27.011  35.416  11.561
72479ION    CL-37464   3.934  25.782  12.222
72480ION    CL-37465  15.703   3.175   0.817
72481ION    CL-37466  22.583   8.915   4.386
72482ION    CL-37467  35.478   0.491   0.825
72483ION    CL-37468  26.529   3.530   4.084
72484ION    CL-37469  25.719  39.975  10.709
72485ION    CL-37470  25.016  33.384  11.529
72486ION    CL-37471   3.017  44.092  11.434
72487ION    CL-37472  40.852  27.603  11.867
72488ION    CL-37473   0.528  10.500   0.757
72489ION    CL-37474  20.049  36.057  12.376
72490ION    CL-37475  33.682  38.939   3.134
72491ION    CL-37476  35.187  22.070   4.503
72492ION    CL-37477  33.384  10.364   0.846
72493ION    CL-37478  16.819  28.813   1.591
72494ION    CL-37479  33.866  43.345  10.913
72495ION    CL-37480  21.182  11.650  11.705
72496ION    CL-37481  25.847  16.250   3.794
72497ION    CL-37482  41.930   7.641  13.351
72498ION    CL-37483  14.665  25.786   3.803
72499ION    CL-37484  25.961  38.582  13.814
72500ION    CL-37485   0.059  21.546  13.614
72501ION    CL-37486  12.840  39.819  14.472
72502ION    CL-37487   9.231   4.834   1.433
72503ION    CL-37488  31.825  28.397  14.600
72504ION    CL-37489  17.112   3.103   2.046
72505ION    CL-37490   5.047   6.113   2.040
72506ION    CL-37491   9.152  26.925   0.604
72507ION    CL-37492  14.719  33.456  12.813
72508ION    CL-37493  23.086  31.008  12.797
72509ION    CL-37494  18.127  26.700  13.993
72510ION    CL-37495   3.365  12.376  10.792
72511ION    CL-37496  15.562  18.653  14.813
72512ION    CL-37497  15.505  14.207  11.084
72513ION    CL-37498  12.316  39.077  12.008
72514ION    CL-37499  36.673  12.414   0.864
72515ION    CL-37500  44.893  31.046   0.469
72516ION    CL-37501   5.181  41.232  11.938
72517ION    CL-37502  38.618   2.858  14.865
72518ION    CL-37503  20.937   8.776   1.391
72519ION    CL-37504   9.809  10.975  12.732
72520ION    CL-37505   0.718   7.290  13.532
72521ION    CL-37506  42.495  40.328   3.770
72522ION    CL-37507   4.598  19.941  11.056
72523ION    CL-37508  34.454  37.108   2.233
72524ION    CL-37509  20.465  10.742   2.055
72525ION    CL-37510  20.365   6.608  12.916
72526ION    CL-37511  20.169  38.574   2.464
72527ION    CL-37512  24.533  21.045  13.855
72528ION    CL-37513  22.669   0.313   2.893
72529ION    CL-37514  35.860  35.349  10.745
72530ION    CL-37515  17.846  33.042   0.893
72531ION    CL-37516   0.457   4.805  11.903
72532ION    CL-37517   7.732   4.194  10.804
72533ION    CL-37518  43.150  27.951  11.471
72534ION    CL-37519  25.092  35.297   0.359
72535ION    CL-37520   3.838  37.531  14.816
72536ION    CL-37521  44.488   6.653  11.180
72537ION    CL-37522  42.560  14.211   3.607
72538ION    CL-37523  18.573  40.974  11.036
72539ION    CL-37524  20.769   2.221  12.489
72540ION    CL-37525  30.316  12.782   3.233
72541ION    CL-37526  26.204  30.725  11.756
72542ION    CL-37527   9.869  24.905  13.142
72543ION    CL-37528  40.878  33.614  14.786
72544ION    CL-37529   5.858   8.833  11.033
72545ION    CL-37530  33.903  41.863  13.252
72546ION    CL-37531  17.028  31.045  11.925
72547ION    CL-37532  35.968  37.961   0.920
72548ION    CL-37533  28.989   9.164  10.694
72549ION    CL-37534  29.981  43.843  10.359
72550ION    CL-37535  27.746   7.292  10.397
72551ION    CL-37536  24.643  39.655   4.564
72552ION    CL-37537  12.177   9.542  14.459
72553ION    CL-37538   9.343  38.221  10.815
72554ION    CL-37539  42.316  36.938  13.133
72555ION    CL-37540   5.408  24.050   0.561
72556ION    CL-37541  28.565  18.815  10.383
72557ION    CL-37542   9.658  44.389   1.871
72558ION    CL-37543   4.971  13.632   1.386
72559ION    CL-37544  21.244   4.709   3.681
72560ION    CL-37545   8.162  10.248   1.005
72561ION    CL-37546  13.323  12.243   3.372
72562ION    CL-37547   0.531  43.013   4.122
72563ION    CL-37548  20.060  12.421  13.626
72564ION    CL-37549  17.240   3.100   9.771
72565ION    CL-37550  22.114   4.416   0.101
72566ION    CL-37551  16.069   7.568   1.662
72567ION    CL-37552  34.896   3.006  13.662
72568ION    CL-37553  26.981  32.815   5.204
72569ION    CL-37554   2.605   3.381  12.522
72570ION    CL-37555  20.337  39.318   2.941
72571ION    CL-37556  26.642  43.306  10.708
72572ION    CL-37557  13.942   2.723   4.275
72573ION    CL-37558   0.899  25.708  10.341
72574ION    CL-37559  17.537  11.083  11.945
72575ION    CL-37560  17.478  12.964   4.580
72576ION    CL-37561  32.057   3.696   3.909
72577ION    CL-37562  40.786  21.330  14.019
72578ION    CL-37563   6.945  31.472  12.443
72579ION    CL-37564   6.352  18.944   0.764
72580ION    CL-37565  37.462  42.250  13.998
72581ION    CL-37566  35.535  18.518  12.041
72582ION    CL-37567  32.932  18.169  13.816
72583ION    CL-37568  27.247  15.169   0.915
72584ION    CL-37569  36.098  18.522   1.562
72585ION    CL-37570   9.360  24.481  10.899
72586ION    CL-37571   0.610  41.276  10.946
72587ION    CL-37572  23.665   5.201   3.293
72588ION    CL-37573  37.243  32.437   3.653
72589ION    CL-37574  20.051  39.689   4.361
72590ION    CL-37575  29.116  32.012   2.193
72591ION    CL-37576  41.042   8.367  12.997
72592ION    CL-37577  39.309   0.719  14.928
72593ION    CL-37578  33.721  17.311   0.307
72594ION    CL-37579  21.100   6.124   2.203
72595ION    CL-37580  19.482  12.066  14.361
72596ION    CL-37581  11.249  11.994  11.255
72597ION    CL-37582   3.417  23.720   2.039
72598ION    CL-37583  37.420   3.689  14.951
72599ION    CL-37584  25.801  44.692   3.071
72600ION    CL-37585  42.266   8.160  11.772
72601ION    CL-37586  15.752  31.894  12.844
72602ION    CL-37587  27.389  16.128  13.573
72603ION    CL-37588  16.333  19.027  11.138
72604ION    CL-37589  18.672  10.184  12.428
72605ION    CL-37590  35.891  13.763   0.593
72606ION    CL-37591  42.731  18.415   2.811
72607ION    CL-37592   4.456  40.391  10.485
72608ION    CL-37593  11.635  14.772   2.437
72609ION    CL-37594   8.479  15.488  10.959
72610ION    CL-37595  33.547  31.576   3.711
72611ION    CL-37596  35.821  30.992  13.572
72612ION    CL-37597  26.448  14.737   0.824
72613ION    CL-37598  33.947  14.505   4.487
72614ION    CL-37599  34.288   7.163   9.706
72615ION    CL-37600  20.159  27.157   0.370
72616ION    CL-37601  31.479  26.989   4.587
72617ION    CL-37602   0.388  38.707   3.615
72618ION    CL-37603   0.370   0.680  12.099
72619ION    CL-37604  31.089  20.749   3.050
72620ION    CL-37605  15.184   2.726  14.697
72621ION    CL-37606  32.334  30.000  12.064
72622ION    CL-37607  12.679  18.304   4.677
72623ION    CL-37608  44.452  16.242   2.304
72624ION    CL-37609  33.544  26.879   0.019
72625ION    CL-37610  19.499  31.613   4.253
72626ION    CL-37611  14.933  21.379   2.725
72627ION    CL-37612  28.600  37.097   4.140
72628ION    CL-37613  23.253  40.485  13.231
72629ION    CL-37614  28.289  10.220  10.842
72630ION    CL-37615  26.014  12.250   1.917
72631ION    CL-37616  31.884   9.818   0.477
72632ION    CL-37617  34.467  34.149  14.985
72633ION    CL-37618  43.803  35.909   2.716
72634ION    CL-37619  19.297  28.265  14.972
72635ION    CL-37620  43.048  30.886   3.202
72636ION    CL-37621  18.285  15.884   4.646
72637ION    CL-37622   2.643  26.814  11.132
72638ION    CL-37623  34.614   6.760   0.849
72639ION    CL-37624  28.306   6.453  12.964
72640ION    CL-37625  23.239   7.008   1.583
72641ION    CL-37626  17.607  42.649  13.117
72642ION    CL-37627   6.727   9.315   0.850
72643ION    CL-37628  39.116  34.380  11.674
72644ION    CL-37629   5.522  10.209   0.034
72645ION    CL-37630   8.928   4.121   4.076
72646ION    CL-37631  40.191   9.468   2.530
72647ION    CL-37632  10.317  34.059  11.417
72648ION    CL-37633  39.062  42.834   1.104
72649ION    CL-37634   5.206  18.442  14.694
72650ION    CL-37635  24.399  17.880  11.682
72651ION    CL-37636  43.857   2.469   1.912
72652ION    CL-37637  10.439   8.348  11.227
72653ION    CL-37638  32.595   2.897   3.642
72654ION    CL-37639  33.568   9.753   2.384
72655ION    CL-37640  30.376  21.106  14.444
72656ION    CL-37641  23.526  11.204  13.860
72657ION    CL-37642  27.280   1.143  12.938
72658ION    CL-37643  23.280  32.693   2.173
72659ION    CL-37644  42.905  12.408   5.060
72660ION    CL-37645  12.339  22.699  11.557
72661ION    CL-37646   6.539  37.581   4.963
72662ION    CL-37647  30.752  39.167  10.508
72663ION    CL-37648  32.637  28.255   3.098
72664ION    CL-37649  11.381   8.409   1.148
72665ION    CL-37650  36.492   3.496   0.762
72666ION    CL-37651  38.494  15.483   3.283
72667ION    CL-37652  12.137  36.781  13.891
72668ION    CL-37653  16.278  21.825  11.527
72669ION    CL-37654  24.663  23.347  11.245
72670ION    CL-37655  13.528  21.330   5.008
72671ION    CL-37656  27.532   8.110  14.682
72672ION    CL-37657  28.558  44.872   0.372
72673ION    CL-37658  33.610  14.381  11.698
72674ION    CL-37659  37.805  19.713  11.849
72675ION    CL-37660  30.040  19.688  11.426
72676ION    CL-37661  11.831  26.935   1.218
72677ION    CL-37662  24.925  22.630   2.791
72678ION    CL-37663  24.598   9.866   1.747
72679ION    CL-37664  43.618  33.757   0.541
72680ION    CL-37665  12.076  38.193  10.980
72681ION    CL-37666   5.444  14.244   1.862
72682ION    CL-37667  16.490   7.388  14.807
72683ION    CL-37668   5.453  35.963  13.008
72684ION    CL-37669  24.467   3.722   1.489
72685ION    CL-37670  13.751  23.017   0.152
72686ION    CL-37671  24.124  37.226   5.157
72687ION    CL-37672  40.858  18.561   4.499
72688ION    CL-37673  21.230   4.874   5.106
72689ION    CL-37674  12.386  43.039   2.841
72690ION    CL-37675   7.727   9.559   3.199
72691ION    CL-37676  43.924  28.370   2.817
72692ION    CL-37677  42.681   4.873   0.275
72693ION    CL-37678  11.332  16.332  14.768
72694ION    CL-37679  17.101  34.329   3.682
72695ION    CL-37680  29.123  18.683   3.171
72696ION    CL-37681  43.886  13.814   4.819
72697ION    CL-37682  39.607  26.651   2.001
72698ION    CL-37683  25.337   0.406   2.548
72699ION    CL-37684  12.659  11.412   2.340
72700ION    CL-37685  35.477  43.398   2.717
72701ION    CL-37686  35.180  15.136  11.487
72702ION    CL-37687   1.994  11.372   2.125
72703ION    CL-37688  23.680   7.678   1.640
72704ION    CL-37689  39.091   8.375  12.922
72705ION    CL-37690  44.050   9.115   2.925
72706ION    CL-37691  27.757   4.087   2.423
72707ION    CL-37692  41.407  24.849   3.169
72708ION    CL-37693  32.978   4.767   4.717
72709ION    CL-37694   4.987  39.879   0.314
72710ION    CL-37695   9.327  43.385   0.376
72711ION    CL-37696   3.847   3.607   0.853
72712ION    CL-37697   0.032   1.295  13.390
72713ION    CL-37698  31.330  44.613  11.258
72714ION    CL-37699  39.124  14.121   0.290
72715ION    CL-37700  24.167   0.875  12.618
72716ION    CL-37701  16.505  32.584   2.244
72717ION    CL-37702  37.783   7.025  11.001
72718ION    CL-37703  13.357  33.792   4.533
72719ION    CL-37704  38.597   4.699   0.273
72720ION    CL-37705  15.281  42.524   4.524
72721ION    CL-37706  44.685  29.752  13.973
72722ION    CL-37707   2.175  40.990   4.606
72723ION    CL-37708   5.028  32.590   0.114
72724ION    CL-37709   5.604  36.032   1.939
72725ION    CL-37710   4.514  43.751  14.929
72726ION    CL-37711   3.302  32.726   0.814
72727ION    CL-37712  23.646  16.119  12.576
72728ION    CL-37713  37.692  33.465   0.801
72729ION    CL-37714   2.047  43.282   1.236
72730ION    CL-37715  42.953  39.227  12.588
72731ION    CL-37716  27.040  39.408  11.905
72732ION    CL-37717  20.657  26.069  11.927
72733ION    CL-37718  41.053   8.273  14.049
72734ION    CL-37719  15.991   1.826   0.773
72735ION    CL-37720  27.958  41.435  14.471
72736ION    CL-37721  26.268  21.650   4.509
72737ION    CL-37722  13.519   6.814  12.260
72738ION    CL-37723  37.013  22.097  12.863
72739ION    CL-37724  23.473   0.018   1.077
72740ION    CL-37725  39.960  29.110   3.447
72741ION    CL-37726  26.539  42.767   3.292
72742ION    CL-37727  25.211  15.755  12.913
72743ION    CL-37728  37.016  29.188  13.285
72744ION    CL-37729   0.826  13.600  11.954
72745ION    CL-37730  41.268   6.421   1.804
72746ION    CL-37731   3.763  31.864  14.818
72747ION    CL-37732  27.612  23.136  12.649
72748ION    CL-37733   5.756  42.335  13.279
72749ION    CL-37734  30.729  29.516   2.833
72750ION    CL-37735  15.594  26.173  11.670
72751ION    CL-37736  24.464   8.405   2.760
72752ION    CL-37737  25.951   1.016  13.542
72753ION    CL-37738  34.815  13.423  12.151
72754ION    CL-37739  10.836   7.846  12.461
72755ION    CL-37740  29.101  38.167  14.805
72756ION    CL-37741   1.949  43.598   3.695
72757ION    CL-37742  34.232   6.155   3.146
72758ION    CL-37743  30.259  41.113   0.118
72759ION    CL-37744  41.418  44.747   0.671
72760ION    CL-37745  16.553  28.477  10.803
72761ION    CL-37746  39.635  14.340   5.118
72762ION    CL-37747  26.002  15.562  13.791
72763ION    CL-37748  18.200  17.118   0.145
72764ION    CL-37749  34.380  21.085   0.711
72765ION    CL-37750   8.794   5.572   1.751
72766ION    CL-37751  33.077   3.240   2.836
72767ION    CL-37752   0.003  21.603   2.576
72768ION    CL-37753  42.393  36.021   2.411
72769ION    CL-37754   2.558  35.669  11.268
72770ION    CL-37755  43.241  17.011  14.009
72771ION    CL-37756  25.434  14.889  12.465
72772ION    CL-37757   8.178  41.822  13.884
72773ION    CL-37758  36.775  23.468   3.117
72774ION    CL-37759   7.573   6.101  14.245
72775ION    CL-37760  31.098  35.343   3.314
72776ION    CL-37761  37.244  27.999  11.880
72777ION    CL-37762  35.738   0.814   1.636
72778ION    CL-37763  26.114  22.076  10.731
72779ION    CL-37764   3.249  43.975  13.307
72780ION    CL-37765  29.816   9.841   0.508
72781ION    CL-37766  43.204  40.124   1.792
72782ION    CL-37767  28.605  14.066  11.989
72783ION    CL-37768  16.676  17.135   5.002
72784ION    CL-37769  35.343   9.291   0.505
72785ION    CL-37770   1.435  27.511   3.527
72786ION    CL-37771   3.309  39.515   3.372
72787ION    CL-37772  37.570   3.531  12.958
72788ION    CL-37773   7.637   5.039  12.258
72789ION    CL-37774  16.630   6.683   0.835
72790ION    CL-37775  37.259  21.691  13.641
72791ION    CL-37776  42.269   6.246  11.075
72792ION    CL-37777  19.682   8.967   0.832
72793ION    CL-37778  42.540  16.091  12.850
72794ION    CL-37779   7.687  19.992   3.718
72795ION    CL-37780  11.181  11.189  14.771
72796ION    CL-37781  23.205   1.267  11.663
72797ION    CL-37782  29.024  18.502   1.179
72798ION    CL-37783  25.151  10.845   1.457
72799ION    CL-37784  40.384   4.746  11.545
72800ION    CL-37785   2.446  12.674   4.615
72801ION    CL-37786   1.315  14.796  14.816
72802ION    CL-37787  20.640  19.522  13.029
72803ION    CL-37788  16.881  29.593   3.827
72804ION    CL-37789  29.051   6.097   3.918
72805ION    CL-37790  13.587  35.640  14.415
72806ION    CL-37791  13.449  40.908   0.249
72807ION    CL-37792   1.730  30.151   3.254
72808ION    CL-37793   8.196  19.487  11.424
72809ION    CL-37794  35.573  19.269   4.620
72810ION    CL-37795  19.575  20.614   3.788
72811ION    CL-37796  19.740  42.547  12.584
72812ION    CL-37797  43.429   6.096  14.530
72813ION    CL-37798   3.738  28.534  11.911
72814ION    CL-37799  22.075  15.379   0.669
72815ION    CL-37800  17.242  18.264  10.920
72816ION    CL-37801  34.119   8.102  11.666
72817ION    CL-37802   7.902  41.008  14.159
72818ION    CL-37803  24.132  12.819   4.351
72819ION    CL-37804  39.814  43.756  13.754
72820ION    CL-37805  28.837  36.772  12.363
72821ION    CL-37806  44.588   5.770   4.073
72822ION    CL-37807   6.703  38.500  12.607
72823ION    CL-37808  39.732  11.182  11.012
72824ION    CL-37809  11.391  39.312  13.596
72825ION    CL-37810  18.731  12.262   3.580
72826ION    CL-37811  24.021  17.529   4.221
72827ION    CL-37812   9.060   3.162   1.100
72828ION    CL-37813  36.613  38.659  14.419
72829ION    CL-37814  18.477  31.646   3.769
72830ION    CL-37815  29.455  39.266   2.429
72831ION    CL-37816  19.220  42.906   2.317
72832ION    CL-37817  38.193  36.736   2.944
72833ION    CL-37818  30.771  33.192  12.819
72834ION    CL-37819  22.800  23.086   0.361
72835ION    CL-37820  18.685  12.834   0.804
72836ION    CL-37821  26.158  32.140  12.854
72837ION    CL-37822  28.867  32.246   0.375
72838ION    CL-37823  30.317  30.133   0.170
72839ION    CL-37824  36.775  36.377   3.992
72840ION    CL-37825  16.705  22.853  14.514
72841ION    CL-37826  28.006  31.838   1.666
72842ION    CL-37827   9.107  27.822   0.678
72843ION    CL-37828  24.705  42.032  13.748
72844ION    CL-37829   2.464  10.286   0.739
72845ION    CL-37830  44.383  42.634   0.713
72846ION    CL-37831  13.546  12.667   5.257
72847ION    CL-37832   2.000   3.937   3.603
72848ION    CL-37833  21.401   8.133  12.560
72849ION    CL-37834  34.617   3.757   1.342
72850ION    CL-37835  32.954  16.757  10.777
72851ION    CL-37836  34.817   6.815  13.623
72852ION    CL-37837  40.919  26.966   3.979
72853ION    CL-37838  14.123  24.835  12.509
72854ION    CL-37839  29.608  31.305   5.078
72855ION    CL-37840   9.119   2.998  13.421
72856ION    CL-37841  20.361  36.978   3.425
72857ION    CL-37842  24.730  27.128  11.849
72858ION    CL-37843   2.530  39.038  12.351
72859ION    CL-37844  17.644  15.124  14.335
72860ION    CL-37845  28.587  18.047  12.932
72861ION    CL-37846  27.554  17.495  10.312
72862ION    CL-37847  14.081  14.341  10.356
72863ION    CL-37848   0.341  28.855   0.029
72864ION    CL-37849   8.646  42.366  12.989
72865ION    CL-37850  39.577  17.597  14.951
72866ION    CL-37851  27.672  38.729   1.957
72867ION    CL-37852  11.513  36.793   4.004
72868ION    CL-37853  22.833  37.033   4.624
72869ION    CL-37854  27.236  43.483  14.698
72870ION    CL-37855  15.876  12.918  13.047
72871ION    CL-37856  36.582  18.920  14.798
72872ION    CL-37857  29.237   4.078  10.635
72873ION    CL-37858  18.754  42.766  13.462
72874ION    CL-37859  36.092  33.312   3.242
72875ION    CL-37860  39.848   4.612  13.847
72876ION    CL-37861   7.953   3.900  13.533
72877ION    CL-37862  32.938   9.723   0.221
72878ION    CL-37863  31.439  26.332   1.144
72879ION    CL-37864   1.184   5.896  14.702
72880ION    CL-37865  29.093  27.412  14.727
72881ION    CL-37866  38.048  41.581   3.829
72882ION    CL-37867  23.277  44.994  13.808
72883ION    CL-37868  22.890   7.698   1.851
72884ION    CL-37869  36.953  27.137  13.687
72885ION    CL-37870  33.675  30.493  14.894
72886ION    CL-37871   6.963  18.661   2.814
72887ION    CL-37872  36.090  13.578  11.834
72888ION    CL-37873  37.704  36.522   1.348
72889ION    CL-37874  14.283  43.671  14.898
72890ION    CL-37875  36.420  41.999  12.479
72891ION    CL-37876   8.736  21.737  13.272
72892ION    CL-37877  26.094  27.494   1.980
72893ION    CL-37878  15.276  40.032  14.375
72894ION    CL-37879  34.115   1.496  13.920
72895ION    CL-37880   2.396  21.760   0.934
72896ION    CL-37881  40.648   7.055   1.626
72897ION    CL-37882  38.478  12.615  12.047
72898ION    CL-37883  16.334  22.847   4.248
72899ION    CL-37884   3.699   6.894   0.849
72900ION    CL-37885  31.786  35.441   0.922
72901ION    CL-37886  38.363  35.725   1.973
72902ION    CL-37887  28.501  31.895   2.797
72903ION    CL-37888  20.098  11.671  12.966
72904ION    CL-37889  30.311  23.515  13.461
72905ION    CL-37890  14.566  29.726   2.919
72906ION    CL-37891  14.616  29.122   1.696
72907ION    CL-37892  18.670   2.329   0.444
72908ION    CL-37893  25.685  17.671   3.778
72909ION    CL-37894  25.327  28.695  11.964
72910ION    CL-37895  11.414   9.805   1.316
72911ION    CL-37896  19.145   7.384  12.117
72912ION    CL-37897  40.091  28.619   0.638
72913ION    CL-37898  37.757   3.826  10.743
72914ION    CL-37899  25.137  34.197   0.688
72915ION    CL-37900   3.657  41.677   4.296
72916ION    CL-37901  43.287  23.573  13.036
72917ION    CL-37902  13.681   0.926  14.876
72918ION    CL-37903   8.121  18.528  13.447
72919ION    CL-37904  44.491  29.974   2.600
72920ION    CL-37905   7.181  11.274   1.976
72921ION    CL-37906   0.143  26.621  12.111
72922ION    CL-37907   6.237  38.728  13.996
72923ION    CL-37908  22.628  22.626   2.385
72924ION    CL-37909   6.106   2.960   1.473
72925ION    CL-37910  18.221   4.608  13.874
72926ION    CL-37911  11.671  16.744  11.159
72927ION    CL-37912  20.033  44.136  10.700
72928ION    CL-37913  25.922  19.340  12.063
72929ION    CL-37914  31.189  21.731   2.419
72930ION    CL-37915  26.918  20.785   2.125
72931ION    CL-37916   7.297   3.664   4.117
72932ION    CL-37917  40.578   3.862  11.055
72933ION    CL-37918  26.398  38.294  11.059
72934ION    CL-37919  25.688   3.806   3.618
72935ION    CL-37920  10.774  17.237  11.185
72936ION    CL-37921  27.416  34.481  10.033
72937ION    CL-37922  44.924  30.719  14.058
72938ION    CL-37923  37.850  42.207   0.292
72939ION    CL-37924   6.367  20.291   3.620
72940ION    CL-37925  31.899  28.510   2.699
72941ION    CL-37926  30.594  14.665  12.918
72942ION    CL-37927  18.026  34.073  10.427
72943ION    CL-37928  37.221  13.166   5.335
72944ION    CL-37929  14.595  34.335   4.881
72945ION    CL-37930  39.937  27.902   2.653
72946ION    CL-37931   5.481  12.239   2.201
72947ION    CL-37932  24.868  34.275   3.705
72948ION    CL-37933  21.932   5.529   2.157
72949ION    CL-37934  25.905  18.523  13.284
72950ION    CL-37935  36.553   0.136  14.917
72951ION    CL-37936   4.342  15.742   0.923
72952ION    CL-37937  35.309  27.879   3.306
72953ION    CL-37938   5.741  33.130   3.820
72954ION    CL-37939  30.931   6.405  13.764
72955ION    CL-37940  36.171  24.750  14.828
72956ION    CL-37941  26.778  12.489   3.548
72957ION    CL-37942   2.172  41.722  12.353
72958ION    CL-37943  38.242  28.684   1.043
72959ION    CL-37944  32.033  13.897  11.709
72960ION    CL-37945  17.801  20.997  11.976
72961ION    CL-37946  13.167  20.995  13.016
72962ION    CL-37947  23.021  43.095  11.093
72963ION    CL-37948   8.549  18.824   1.109
72964ION    CL-37949  20.781  41.138   1.885
72965ION    CL-37950  35.046  40.115   5.271
72966ION    CL-37951  25.958  23.773   1.711
72967ION    CL-37952  20.616  40.393  11.523
72968ION    CL-37953  20.859  22.696  11.151
72969ION    CL-37954  14.070  26.054   0.949
72970ION    CL-37955  26.339  39.636  12.580
72971ION    CL-37956  43.758   8.885  14.282
72972ION    CL-37957  15.697  42.858  10.649
72973ION    CL-37958  10.869  27.886   1.432
72974ION    CL-37959  43.071  36.485   4.932
72975ION    CL-37960  26.012  24.002  12.632
72976ION    CL-37961  35.665  18.853  13.884
72977ION    CL-37962  30.646  25.585   3.663
72978ION    CL-37963  23.113  39.972   3.663
72979ION    CL-37964  18.600  15.073   4.323
72980ION    CL-37965  19.590  35.364  12.119
72981ION    CL-37966   7.454   2.252   3.817
72982ION    CL-37967   6.884   0.849  14.895
72983ION    CL-37968  35.686  31.465   1.099
72984ION    CL-37969  34.545  16.172   0.504
72985ION    CL-37970  36.778  15.150  11.179
72986ION    CL-37971   0.628  22.104  13.255
72987ION    CL-37972   3.575  14.156  12.031
72988ION    CL-37973  32.261   2.118   0.010
72989ION    CL-37974  29.000  34.653   1.825
72990ION    CL-37975  29.586  36.162   3.639
72991ION    CL-37976   1.561  44.393   2.537
72992ION    CL-37977  19.364   2.100  11.657
72993ION    CL-37978  30.550  22.596  13.776
72994ION    CL-37979   0.505  36.086   1.797
72995ION    CL-37980  22.557  15.909  11.013
72996ION    CL-37981   4.369  16.857   1.632
72997ION    CL-37982  36.340  30.384  12.971
72998ION    CL-37983  19.063  29.958  11.613
72999ION    CL-37984  25.553   3.028   4.240
73000ION    CL-37985  15.521  38.192  13.838
73001ION    CL-37986   3.465  18.961  11.105
73002ION    CL-37987  39.983  20.595  13.107
73003ION    CL-37988  20.709  41.362   4.791
73004ION    CL-37989   9.119  12.077   2.420
73005ION    CL-37990  16.184  26.843  11.546
73006ION    CL-37991  25.910  35.093  12.661
73007ION    CL-37992   1.898   0.332  14.124
73008ION    CL-37993  20.764  25.667   0.033
73009ION    CL-37994  37.551  21.072   3.673
73010ION    CL-37995  10.732  32.940   1.874
73011ION    CL-37996  17.519  27.652  14.757
73012ION    CL-37997  31.334  24.629  13.109
73013ION    CL-37998   8.983  40.062   1.767
73014ION    CL-37999  35.668  22.775   0.609
73015ION    CL-38000   1.002  28.686  14.177
73016ION    CL-38001  41.101  40.340  13.865
73017ION    CL-38002  30.000  12.232  11.427
73018ION    CL-38003  12.207  25.397  13.745
73019ION    CL-38004  19.214  24.727  12.737
73020ION    CL-38005  21.884  20.843   0.430
73021ION    CL-38006  20.819  34.810  12.601
73022ION    CL-38007  27.339  25.298   0.857
73023ION    CL-38008  25.112  34.066  10.778
73024ION    CL-38009  40.054   8.266  14.007
73025ION    CL-38010  31.359   5.330  13.108
73026ION    CL-38011   9.639  10.905   1.317
73027ION    CL-38012  22.126  42.774  14.233
73028ION    CL-38013  27.706  34.676   2.919
73029ION    CL-38014  30.981   1.788  12.685
73030ION    CL-38015  35.731  12.233   5.039
73031ION    CL-38016  32.154  20.970   4.447
73032ION    CL-38017  17.732  14.998  12.018
73033ION    CL-38018  44.486  10.313  12.554
73034ION    CL-38019  38.882  20.360  10.597
73035ION    CL-38020  15.146  36.615   4.830
73036ION    CL-38021   3.415  15.828   3.099
73037ION    CL-38022  27.213  35.546   2.938
73038ION    CL-38023  14.375  22.676  12.560
73039ION    CL-38024  17.803   5.861   1.693
73040ION    CL-38025  15.547  18.452  10.913
73041ION    CL-38026  25.356  44.772   3.963
73042ION    CL-38027  14.994  25.230   2.366
73043ION    CL-38028  17.597  30.291  12.250
73044ION    CL-38029  14.137  21.596  13.903
73045ION    CL-38030  24.234  14.532   3.226
73046ION    CL-38031  36.793  43.283   1.680
73047ION    CL-38032  39.221  13.950   2.241
73048ION    CL-38033  13.604  37.987  11.134
73049ION    CL-38034  29.563  32.806   0.215
73050ION    CL-38035  30.864  23.123   1.257
73051ION    CL-38036  34.315  13.399  13.964
73052ION    CL-38037  40.664  26.690   0.150
73053ION    CL-38038  43.635   6.645  12.843
73054ION    CL-38039  30.290  31.130   2.739
73055ION    CL-38040  13.737   7.869  13.524
73056ION    CL-38041   6.445  42.476   0.069
73057ION    CL-38042  10.223  20.989   3.693
73058ION    CL-38043   9.655   6.156  13.578
73059ION    CL-38044  23.501   8.842  14.430
73060ION    CL-38045  20.754   3.544   4.670
73061ION    CL-38046  38.129  20.439   4.707
73062ION    CL-38047  31.971  22.626   4.360
73063ION    CL-38048   5.474  34.416   3.254
73064ION    CL-38049  18.736  37.573   3.607
73065ION    CL-38050   5.662  21.175   2.423
73066ION    CL-38051  41.924  40.462  13.311
73067ION    CL-38052   7.163   9.509  12.890
73068ION    CL-38053  13.920   1.187  13.940
73069ION    CL-38054  33.528  13.795  14.438
73070ION    CL-38055  12.145  19.649  13.986
73071ION    CL-38056   8.784  42.191   0.424
73072ION    CL-38057  29.312  34.287   4.873
73073ION    CL-38058  20.769  13.501   0.088
73074ION    CL-38059  27.583  33.135  12.041
73075ION    CL-38060  23.941   6.490  14.517
73076ION    CL-38061  32.306  14.637   0.115
73077ION    CL-38062  11.867  26.994  13.027
73078ION    CL-38063  42.258   0.494  11.844
73079ION    CL-38064   7.325   7.766   4.394
73080ION    CL-38065   7.602  19.064   1.323
73081ION    CL-38066  29.185  33.714  11.606
73082ION    CL-38067  14.151  19.969  13.049
73083ION    CL-38068  29.566   2.927  13.784
73084ION    CL-38069  21.588  11.438   5.098
73085ION    CL-38070   2.082  38.986   3.238
73086ION    CL-38071  29.388  24.595  14.871
73087ION    CL-38072  44.093  40.587   9.874
73088ION    CL-38073  11.321   8.747  11.480
73089ION    CL-38074  40.239  31.831  10.708
73090ION    CL-38075  40.477   5.470   0.634
73091ION    CL-38076  31.306  10.379  14.577
73092ION    CL-38077   0.296  27.471  12.616
73093ION    CL-38078   2.284  37.780  14.308
73094ION    CL-38079   3.258   8.599   1.657
73095ION    CL-38080  42.476  41.452   3.025
73096ION    CL-38081  26.885  21.452   5.031
73097ION    CL-38082  24.339  21.590   2.816
73098ION    CL-38083  33.242  26.995   4.734
73099ION    CL-38084  41.161  34.205  10.188
73100ION    CL-38085   4.460  34.665  10.393
73101ION    CL-38086  26.418  31.615  12.161
73102ION    CL-38087  21.246  19.501  14.895
73103ION    CL-38088  29.416   7.468  11.144
73104ION    CL-38089   4.413  44.755   2.613
73105ION    CL-38090  42.152  37.146   3.656
73106ION    CL-38091  23.488  31.791  12.322
73107ION    CL-38092   0.946  10.995  11.918
73108ION    CL-38093  15.373  31.844  13.820
73109ION    CL-38094  23.521  36.961   2.002
73110ION    CL-38095  43.320  38.811   3.008
73111ION    CL-38096  33.065   1.737  14.947
73112ION    CL-38097   0.903  25.591  13.594
73113ION    CL-38098  39.428  42.857  12.671
73114ION    CL-38099  33.109  44.831  14.498
73115ION    CL-38100   1.226  12.798  13.793
73116ION    CL-38101  42.977  11.525   2.727
73117ION    CL-38102  21.212  18.712  13.162
73118ION    CL-38103  30.096   8.001  10.859
73119ION    CL-38104  31.648  35.830  14.294
73120ION    CL-38105   6.413  20.558   2.657
73121ION    CL-38106  39.957  17.611   3.129
73122ION    CL-38107  21.728  24.936  12.390
73123ION    CL-38108  25.522  19.072  14.029
73124ION    CL-38109  33.554  25.473  14.233
73125ION    CL-38110  11.103  32.107   1.125
73126ION    CL-38111  19.492  39.905  12.038
73127ION    CL-38112   5.870  27.504  11.956
73128ION    CL-38113   2.033  32.047   3.318
73129ION    CL-38114  24.186  13.839   1.688
73130ION    CL-38115   4.407  21.186   4.986
73131ION    CL-38116  22.293   9.544   0.870
73132ION    CL-38117  42.553  18.868  12.056
73133ION    CL-38118  29.633  12.798  14.568
73134ION    CL-38119   3.862  14.922   0.027
73135ION    CL-38120   0.600  17.482  13.988
73136ION    CL-38121  30.986  21.814   0.248
73137ION    CL-38122  17.795  27.422  12.352
73138ION    CL-38123  19.714   3.765   0.975
73139ION    CL-38124  13.881  20.897  10.699
73140ION    CL-38125  16.573  26.544   1.582
73141ION    CL-38126  27.131  40.976   1.321
73142ION    CL-38127  39.891  33.797  11.428
73143ION    CL-38128   5.885   2.152   0.447
73144ION    CL-38129  39.448  26.104  13.099
73145ION    CL-38130  20.024  18.084  14.282
73146ION    CL-38131   8.128  39.546   1.818
73147ION    CL-38132  19.863  39.830  14.388
73148ION    CL-38133   5.228  42.782   2.243
73149ION    CL-38134  28.470  36.494   0.468
73150ION    CL-38135   5.694  25.567  14.981
73151ION    CL-38136   6.320   6.726  14.707
73152ION    CL-38137  29.374  29.184  11.641
73153ION    CL-38138  10.427  36.760   4.377
73154ION    CL-38139  22.179  17.949  13.997
73155ION    CL-38140  33.584  26.340   4.060
73156ION    CL-38141  11.371   6.601  13.532
73157ION    CL-38142   5.901  25.274  13.252
73158ION    CL-38143  17.658  39.831   0.329
73159ION    CL-38144  25.434  14.762   3.633
73160ION    CL-38145   8.605  23.836   2.682
73161ION    CL-38146  17.564  16.555  11.025
73162ION    CL-38147   3.413   3.788  12.446
73163ION    CL-38148  37.847  24.038   0.051
73164ION    CL-38149  43.386  24.632   2.844
73165ION    CL-38150  10.717   4.202  11.511
73166ION    CL-38151  36.542  11.223  13.965
73167ION    CL-38152  35.764  31.953   4.166
73168ION    CL-38153  14.126  14.040  12.568
73169ION    CL-38154   2.757  21.223   3.253
73170ION    CL-38155   9.012   9.826   0.689
73171ION    CL-38156  27.970  12.939   2.166
73172ION    CL-38157  42.632  30.460   4.825
73173ION    CL-38158  19.509  34.496   3.707
73174ION    CL-38159  22.405  30.672  10.151
73175ION    CL-38160   6.724  12.689   1.418
73176ION    CL-38161   4.899   9.921   3.333
73177ION    CL-38162  37.175  40.332  14.933
73178ION    CL-38163  39.013   6.397   3.752
73179ION    CL-38164  39.781  21.751   0.112
73180ION    CL-38165  36.117  23.613  13.459
73181ION    CL-38166  17.275  32.211   2.408
73182ION    CL-38167  28.597  22.829   3.108
73183ION    CL-38168  17.745  36.800   3.366
73184ION    CL-38169  26.616   1.536  12.302
73185ION    CL-38170  36.188   4.179   3.668
73186ION    CL-38171  23.186  31.011   2.864
73187ION    CL-38172  33.875  12.702  12.894
73188ION    CL-38173  21.658  13.680   0.637
73189ION    CL-38174  34.875  26.050   2.298
73190ION    CL-38175  28.191  19.791   3.166
73191ION    CL-38176   7.231   4.767   4.923
73192ION    CL-38177  11.047   8.829   4.083
73193ION    CL-38178  22.652  20.168   5.318
73194ION    CL-38179  38.083  41.440  13.819
73195ION    CL-38180  44.810  22.306   3.099
73196ION    CL-38181  24.223  26.189  14.220
73197ION    CL-38182  15.091  10.443   0.336
73198ION    CL-38183  10.023   3.420   1.179
73199ION    CL-38184  35.635  22.167   2.254
73200ION    CL-38185   8.841  30.931  11.913
73201ION    CL-38186  34.969  25.105   1.032
73202ION    CL-38187  27.944   6.675   0.216
73203ION    CL-38188  35.637  35.865  13.055
73204ION    CL-38189  28.238   8.188   0.388
73205ION    CL-38190  19.842   5.880  12.817
73206ION    CL-38191  28.565  39.269  11.933
73207ION    CL-38192  21.332  41.705   1.397
73208ION    CL-38193   7.651  27.802   0.469
73209ION    CL-38194   5.868  33.959  14.692
73210ION    CL-38195  31.353  43.522   1.902
73211ION    CL-38196  40.806  31.909  14.611
73212ION    CL-38197  40.511   5.098   2.776
73213ION    CL-38198  33.052  30.667  11.867
73214ION    CL-38199  12.429  44.189   3.527
73215ION    CL-38200  21.022  11.575  14.930
73216ION    CL-38201  13.264  24.478   5.024
73217ION    CL-38202  29.107  20.854  10.808
73218ION    CL-38203   6.175  22.487  14.943
73219ION    CL-38204  13.055  16.224  11.134
73220ION    CL-38205  12.025   7.883  14.883
73221ION    CL-38206   5.919  25.422  10.930
73222ION    CL-38207  24.112   1.758  11.454
73223ION    CL-38208   6.747   2.348   0.914
73224ION    CL-38209  20.023  38.524  13.685
73225ION    CL-38210   7.005  19.059   3.731
73226ION    CL-38211  16.119  21.972  14.431
73227ION    CL-38212  25.971  26.660  12.473
73228ION    CL-38213  26.742  20.189  13.083
73229ION    CL-38214   2.485   8.790  12.795
73230ION    CL-38215  37.322  19.404  13.419
73231ION    CL-38216  23.740  32.805  13.960
73232ION    CL-38217  11.625  22.356  14.802
73233ION    CL-38218  40.270  31.190  14.168
73234ION    CL-38219  20.230   4.323   9.705
73235ION    CL-38220  33.162  43.549   3.700
73236ION    CL-38221  10.936  33.999  13.537
73237ION    CL-38222  17.299  15.810   0.450
73238ION    CL-38223  42.818  12.650  11.548
73239ION    CL-38224  40.763  24.038  11.600
73240ION    CL-38225  27.739  26.282  14.560
73241ION    CL-38226  32.030  10.362  12.348
73242ION    CL-38227  24.990  12.073  11.547
73243ION    CL-38228  21.421  18.965   0.801
73244ION    CL-38229   1.233   9.386  10.412
73245ION    CL-38230  23.572  31.249  13.637
73246ION    CL-38231  21.972  27.751  14.166
73247ION    CL-38232  26.824  22.616  10.738
73248ION    CL-38233  20.025   2.177   3.655
73249ION    CL-38234   8.826  35.855   4.173
73250ION    CL-38235   8.324  32.261   4.817
73251ION    CL-38236  29.692  28.079   0.897
73252ION    CL-38237  13.900  28.810   1.533
73253ION    CL-38238  26.146   9.111   3.974
73254ION    CL-38239   7.637  35.451   2.069
73255ION    CL-38240  38.944  10.423   2.314
73256ION    CL-38241  28.431  25.982   2.947
73257ION    CL-38242   1.891  24.651   4.071
73258ION    CL-38243  32.033  38.359  13.772
73259ION    CL-38244  29.084   8.583   2.220
73260ION    CL-38245  26.033  23.284   4.786
73261ION    CL-38246  44.426  26.684   3.256
73262ION    CL-38247   8.822  44.797  13.405
73263ION    CL-38248  20.306  21.297   3.797
73264ION    CL-38249  38.926  35.558  13.829
73265ION    CL-38250  16.768  44.067   0.253
73266ION    CL-38251   8.163   2.884  14.977
73267ION    CL-38252  40.386  18.334  13.879
73268ION    CL-38253  13.950  29.596   1.772
73269ION    CL-38254  26.009  21.322   3.724
73270ION    CL-38255  33.080  28.991  10.037
73271ION    CL-38256   6.420  21.226   4.007
73272ION    CL-38257  23.513  18.866  12.022
73273ION    CL-38258  32.885   4.258  14.795
73274ION    CL-38259   0.341   8.910  11.570
73275ION    CL-38260  31.165  24.548  10.845
73276ION    CL-38261  35.015  26.479   0.579
73277ION    CL-38262  43.942   1.455  11.532
73278ION    CL-38263  43.382  44.567   0.908
73279ION    CL-38264   8.403   1.297  13.443
73280ION    CL-38265   8.358  42.961   2.991
73281ION    CL-38266  27.054  17.630  14.743
73282ION    CL-38267   8.008  25.110   5.067
73283ION    CL-38268  26.756  30.649   0.551
73284ION    CL-38269  32.335  23.712  11.489
73285ION    CL-38270  28.948  13.056  10.354
73286ION    CL-38271  43.217   9.674  14.594
73287ION    CL-38272  20.148  42.522  11.209
73288ION    CL-38273  36.359   9.143  14.110
73289ION    CL-38274  24.520  43.214   2.795
73290ION    CL-38275  42.023  10.149  14.493
73291ION    CL-38276  41.551  35.517   2.779
73292ION    CL-38277  24.303   7.746   4.452
73293ION    CL-38278  33.550  29.927   9.621
73294ION    CL-38279  18.530  11.482   4.173
73295ION    CL-38280   3.459  43.952   1.251
73296ION    CL-38281  19.141  31.380   1.892
73297ION    CL-38282  12.246  42.827  13.368
73298ION    CL-38283  13.953  32.757   2.994
73299ION    CL-38284  33.172  26.466   0.897
73300ION    CL-38285  12.579  22.148   1.151
73301ION    CL-38286  35.599   6.549  13.002
73302ION    CL-38287  42.712  19.174  14.037
73303ION    CL-38288  23.945  43.703   3.300
73304ION    CL-38289  21.641  27.015  12.439
73305ION    CL-38290  43.783  18.946   4.368
73306ION    CL-38291  20.059  16.374  14.822
73307ION    CL-38292   2.500  28.298  11.453
73308ION    CL-38293  42.025   2.558   3.261
73309ION    CL-38294  37.868  10.426   2.339
73310ION    CL-38295  30.681   3.961   0.274
73311ION    CL-38296  11.320  42.454  13.425
73312ION    CL-38297  30.841  17.807   1.829
73313ION    CL-38298  16.708   2.412  10.094
73314ION    CL-38299   4.696  20.099   1.225
73315ION    CL-38300  12.736  26.424   0.737
73316ION    CL-38301   1.784  43.525   2.435
73317ION    CL-38302  11.692   1.916  12.699
73318ION    CL-38303  10.577  26.723   4.640
73319ION    CL-38304  19.800  14.246  14.415
73320ION    CL-38305  37.589  15.763   4.101
73321ION    CL-38306   9.187  19.126   5.060
73322ION    CL-38307  36.606  28.744  11.588
73323ION    CL-38308   1.757  35.017  12.490
73324ION    CL-38309  34.418   9.311  10.912
73325ION    CL-38310  20.093  13.785   1.644
73326ION    CL-38311  17.363  36.099  11.625
73327ION    CL-38312  13.628  12.216   4.341
73328ION    CL-38313  29.603  19.718   4.037
73329ION    CL-38314   9.819  25.977   0.422
73330ION    CL-38315  20.643  19.555   1.873
73331ION    CL-38316  15.645  44.488  12.976
73332ION    CL-38317  39.146  28.866   1.093
73333ION    CL-38318   2.620   3.244   1.368
73334ION    CL-38319  24.694  43.006  11.590
73335ION    CL-38320  23.050   4.065   2.598
73336ION    CL-38321  19.912   5.326   1.480
73337ION    CL-38322   5.197  28.884  13.328
73338ION    CL-38323  38.802  37.096   2.180
73339ION    CL-38324   6.893   8.659   2.087
73340ION    CL-38325  20.943  44.264   5.051
73341ION    CL-38326  37.302  44.505  12.994
73342ION    CL-38327  21.566   7.498  11.937
73343ION    CL-38328  14.265  10.415  11.278
73344ION    CL-38329  40.728   1.763   2.407
73345ION    CL-38330  28.930   3.168  12.974
73346ION    CL-38331  34.090  10.837   1.461
73347ION    CL-38332  15.844  23.484   5.234
73348ION    CL-38333  17.800   9.263   3.945
73349ION    CL-38334   3.711  23.066  14.704
73350ION    CL-38335  39.782  10.670   2.531
73351ION    CL-38336  26.496  14.560   2.704
73352ION    CL-38337  12.031  42.944   9.680
73353ION    CL-38338  18.028  42.429  12.237
73354ION    CL-38339  39.104  34.250   3.885
73355ION    CL-38340  35.815  31.484  12.145
73356ION    CL-38341  20.640   6.172  14.518
73357ION    CL-38342  17.623  40.770  12.610
73358ION    CL-38343  16.527  23.902  13.190
73359ION    CL-38344  10.910  43.266   0.969
73360ION    CL-38345  20.339  12.787   2.117
73361ION    CL-38346  17.242   0.309  12.549
73362ION    CL-38347  32.527  40.763  12.093
73363ION    CL-38348   6.343  22.183   1.719
73364ION    CL-38349  13.190  15.234  11.173
73365ION    CL-38350   1.404  31.078   1.764
73366ION    CL-38351  30.862  18.192   2.614
73367ION    CL-38352   4.922  10.139   4.213
73368ION    CL-38353   8.544  27.717  12.716
73369ION    CL-38354  35.888  13.625   2.143
73370ION    CL-38355  13.535   8.359  12.527
73371ION    CL-38356  13.531  32.116   1.449
73372ION    CL-38357   4.416  41.213   0.339
73373ION    CL-38358  11.736  40.842  13.953
73374ION    CL-38359  40.147  25.720   0.423
73375ION    CL-38360  10.780  39.533   1.311
73376ION    CL-38361  24.061   4.100  13.745
73377ION    CL-38362  31.490  30.633  13.805
73378ION    CL-38363  42.905  14.284  13.821
73379ION    CL-38364   8.467  14.270  10.920
73380ION    CL-38365  24.101  22.686   1.399
73381ION    CL-38366  43.822  21.894  10.942
73382ION    CL-38367  37.467  12.836   3.425
73383ION    CL-38368  30.502   8.660   0.809
73384ION    CL-38369  38.930  42.946   3.538
73385ION    CL-38370  24.947  41.470  14.597
73386ION    CL-38371  41.423  10.006   1.696
73387ION    CL-38372  28.385   8.773   2.910
73388ION    CL-38373  44.355  15.135  13.426
73389ION    CL-38374  11.899   5.192  10.249
73390ION    CL-38375   8.440  15.587  14.014
73391ION    CL-38376  17.038  36.330   1.073
73392ION    CL-38377  20.122  15.563   3.394
73393ION    CL-38378   9.676  12.766   9.896
73394ION    CL-38379  24.919  19.848  14.610
73395ION    CL-38380   4.619   6.584   1.106
73396ION    CL-38381  19.152   4.667  12.958
73397ION    CL-38382  25.628  35.928  12.853
73398ION    CL-38383   2.526   6.898  14.789
73399ION    CL-38384  11.576  26.567   2.561
73400ION    CL-38385  19.951  34.926   2.690
73401ION    CL-38386  43.454   7.702  13.534
73402ION    CL-38387  30.879  20.108  14.597
73403ION    CL-38388   8.823  26.505   1.681
73404ION    CL-38389  34.030  12.326  14.390
73405ION    CL-38390  13.394  37.022  10.979
73406ION    CL-38391  22.023  30.558   0.421
73407ION    CL-38392  32.535  23.057  13.693
73408ION    CL-38393  27.863   4.221  14.854
73409ION    CL-38394  29.375   2.425   4.135
73410ION    CL-38395   1.248  10.706   2.117
73411ION    CL-38396  27.095  42.954   0.535
73412ION    CL-38397  31.171  18.492  12.743
73413ION    CL-38398  14.734  15.018  14.287
73414ION    CL-38399   3.573  26.420  11.138
73415ION    CL-38400  21.211  27.329  13.588
73416ION    CL-38401   7.180  27.992  13.138
73417ION    CL-38402  19.845  17.711  11.181
73418ION    CL-38403  20.136  11.105   2.818
73419ION    CL-38404   6.751  40.387   5.057
73420ION    CL-38405  19.159  41.204  14.424
73421ION    CL-38406  23.461   2.911   0.378
73422ION    CL-38407  43.959  35.626  12.437
73423ION    CL-38408  29.379  16.664   3.864
73424ION    CL-38409   1.809  26.981   4.958
73425ION    CL-38410   7.373  13.222   3.332
73426ION    CL-38411  23.417  32.102  10.721
73427ION    CL-38412   1.703  30.342  13.665
73428ION    CL-38413   9.922  31.444   1.022
73429ION    CL-38414  43.865  33.682   2.422
73430ION    CL-38415  26.080  28.655  12.620
73431ION    CL-38416  44.179  17.887   5.431
73432ION    CL-38417  22.229  43.551   3.741
73433ION    CL-38418  41.710  14.145   1.435
73434ION    CL-38419  26.378   1.546   1.811
73435ION    CL-38420  18.553  35.598   1.370
73436ION    CL-38421  44.619  39.194   3.564
73437ION    CL-38422  30.978  23.664   2.420
73438ION    CL-38423   2.993  32.419  11.559
73439ION    CL-38424   1.783  35.202   0.110
73440ION    CL-38425  20.738  26.187   1.941
73441ION    CL-38426  44.222   8.326  13.388
73442ION    CL-38427  23.518  21.490   4.961
73443ION    CL-38428  20.832   6.420   3.708
73444ION    CL-38429  44.492  30.063  10.894
73445ION    CL-38430  21.305   1.253   0.767
73446ION    CL-38431  15.312  32.046   0.805
73447ION    CL-38432  28.545  27.183   3.855
73448ION    CL-38433  35.865   1.042  14.899
73449ION    CL-38434  38.896  20.023  13.075
73450ION    CL-38435   1.007  41.631   1.429
73451ION    CL-38436  15.056  19.582  10.666
73452ION    CL-38437  37.698  35.465  14.398
73453ION    CL-38438  40.799  23.626  12.860
73454ION    CL-38439   9.262  27.414  13.343
73455ION    CL-38440  17.607   6.972   0.829
73456ION    CL-38441  41.075  33.821  11.607
73457ION    CL-38442  13.281  39.328  12.092
73458ION    CL-38443   5.575  32.213  13.950
73459ION    CL-38444  44.524  40.074   1.043
73460ION    CL-38445  14.541  10.735  12.184
73461ION    CL-38446   3.577   2.074  13.012
73462ION    CL-38447   0.089  31.172   1.287
73463ION    CL-38448   4.441   5.830  11.637
73464ION    CL-38449  13.055  42.421   4.097
73465ION    CL-38450   2.463  34.032   4.085
73466ION    CL-38451   7.924  35.336  12.776
73467ION    CL-38452  23.215  23.093   4.152
73468ION    CL-38453  33.855   2.187   3.190
73469ION    CL-38454   4.327   3.802   0.125
73470ION    CL-38455  42.011  37.477  13.983
73471ION    CL-38456  29.984  19.079  12.237
73472ION    CL-38457  26.506   9.343  13.903
73473ION    CL-38458  34.524  38.986   1.650
73474ION    CL-38459   2.971  29.110  12.415
73475ION    CL-38460   5.222  35.678  13.859
73476ION    CL-38461  10.216  34.454   1.237
73477ION    CL-38462  12.743  26.704   4.807
73478ION    CL-38463   4.166  31.778   1.899
73479ION    CL-38464  22.107   6.425  14.501
73480ION    CL-38465  28.502   4.193  13.642
73481ION    CL-38466  20.156  32.000  14.026
73482ION    CL-38467  10.729  43.141   4.592
73483ION    CL-38468  13.314   7.238  11.488
73484ION    CL-38469  43.466  25.510  13.080
73485ION    CL-38470  15.820   8.591   5.063
73486ION    CL-38471  33.419  10.113  12.474
73487ION    CL-38472  23.819  41.948  13.924
73488ION    CL-38473  19.976  37.594  14.049
73489ION    CL-38474  16.445   4.925   9.889
73490ION    CL-38475  15.374   0.070   2.355
73491ION    CL-38476  24.130   2.341   4.593
73492ION    CL-38477  40.308  42.596   3.721
73493ION    CL-38478  26.392   8.304  12.500
73494ION    CL-38479   9.180   6.545  14.154
73495ION    CL-38480  11.211  18.976   2.347
73496ION    CL-38481  38.052  11.338   0.921
73497ION    CL-38482   4.738   1.616  10.593
73498ION    CL-38483   3.100   5.286   1.171
73499ION    CL-38484  34.784  43.523  14.365
73500ION    CL-38485  12.073  19.645  14.984
73501ION    CL-38486  30.130  19.638   1.851
73502ION    CL-38487  37.920   7.952   1.758
73503ION    CL-38488   1.241  11.880  12.653
73504ION    CL-38489  12.205  11.276   1.138
73505ION    CL-38490   9.348  32.412  10.651
73506ION    CL-38491  12.481   7.028   2.872
73507ION    CL-38492  32.193  25.748   1.481
73508ION    CL-38493  44.075  16.330  10.050
73509ION    CL-38494  38.838  29.987  13.323
73510ION    CL-38495  33.895  10.125   3.253
73511ION    CL-38496  40.481  33.708   1.835
73512ION    CL-38497  20.096  12.836  14.536
73513ION    CL-38498  11.954  36.359   0.510
73514ION    CL-38499  11.279  28.271   0.169
73515ION    CL-38500  40.870  30.142  13.161
73516ION    CL-38501  25.010  27.413  13.485
73517ION    CL-38502  24.465   8.129  13.173
73518ION    CL-38503   8.635   4.492  13.026
73519ION    CL-38504  24.406  19.205   4.118
73520ION    CL-38505   6.598  16.104  11.055
73521ION    CL-38506  43.004   5.521  11.171
73522ION    CL-38507  23.333  14.001  11.258
73523ION    CL-38508  11.315  25.178   4.708
73524ION    CL-38509  13.724  26.690   0.259
73525ION    CL-38510   2.779  15.229  12.277
73526ION    CL-38511  29.216  40.356  10.559
73527ION    CL-38512   4.799  32.055   3.676
73528ION    CL-38513   0.543   8.370  14.313
73529ION    CL-38514  17.219  20.677   0.846
73530ION    CL-38515  13.687  36.118   3.354
73531ION    CL-38516  38.568  28.511   3.208
73532ION    CL-38517   8.163  23.989   3.858
73533ION    CL-38518  13.935  20.639   2.203
73534ION    CL-38519  15.537  32.274   2.211
73535ION    CL-38520  23.926   3.664   2.329
73536ION    CL-38521  37.529  19.767   0.820
73537ION    CL-38522  10.457  42.088  14.409
73538ION    CL-38523  35.928  25.356  13.369
73539ION    CL-38524  22.337  38.244  14.299
73540ION    CL-38525  43.021  23.443   5.215
73541ION    CL-38526  30.187  32.526  14.458
73542ION    CL-38527  15.410   8.425  13.854
73543ION    CL-38528  22.969  25.172   1.066
73544ION    CL-38529   3.653  20.671  11.078
73545ION    CL-38530  42.229  40.262  14.903
73546ION    CL-38531  24.777  16.571  11.823
73547ION    CL-38532   2.548  43.268   0.262
73548ION    CL-38533  42.536  31.492  11.181
73549ION    CL-38534  25.649  22.983  14.473
73550ION    CL-38535  42.245   5.525   1.046
73551ION    CL-38536  41.913   9.162  14.369
73552ION    CL-38537  19.739  18.593  11.640
73553ION    CL-38538  39.407  23.073  11.136
73554ION    CL-38539  13.783   1.208  11.408
73555ION    CL-38540   4.896   2.352   4.643
73556ION    CL-38541  39.917  29.475   1.476
73557ION    CL-38542   9.299   0.954   2.312
73558ION    CL-38543   5.222   9.621  12.146
73559ION    CL-38544   6.401  14.192  12.527
73560ION    CL-38545  20.650  33.970   1.435
73561ION    CL-38546   0.358   7.626   4.169
73562ION    CL-38547  35.894   5.637   3.057
73563ION    CL-38548  26.039  44.264  11.283
73564ION    CL-38549  20.710  16.427  10.662
73565ION    CL-38550  44.983  18.754   0.730
73566ION    CL-38551  35.159  40.829   0.594
73567ION    CL-38552  32.883  34.518  13.961
73568ION    CL-38553   9.807   8.846   4.591
73569ION    CL-38554  40.444  44.845   0.048
73570ION    CL-38555  40.447  41.795   3.673
73571ION    CL-38556  40.127   8.849  12.222
73572ION    CL-38557  36.971  15.716   2.334
73573ION    CL-38558  15.714   6.847   0.466
73574ION    CL-38559  20.446  40.468   0.205
73575ION    CL-38560  25.792  21.421  12.067
73576ION    CL-38561  18.239  31.846   1.499
73577ION    CL-38562  23.053  38.807   1.865
73578ION    CL-38563  16.786  17.120  13.415
73579ION    CL-38564  42.919  25.897  11.831
73580ION    CL-38565  35.017  28.477   2.298
73581ION    CL-38566  44.226  35.423   0.016
73582ION    CL-38567  27.639  15.201  14.508
73583ION    CL-38568   3.259  21.533   4.306
73584ION    CL-38569  22.088  37.042   2.204
73585ION    CL-38570  31.215  34.232   4.969
73586ION    CL-38571   5.776  27.580  13.949
73587ION    CL-38572  27.722  16.302   3.769
73588ION    CL-38573  36.120  40.460  11.811
73589ION    CL-38574   6.475  26.898  13.015
73590ION    CL-38575  32.804  20.397  12.176
73591ION    CL-38576   2.847  16.791  12.393
73592ION    CL-38577  33.337  26.391  13.902
73593ION    CL-38578  12.119  12.861  13.372
73594ION    CL-38579  36.884  39.514  14.623
73595ION    CL-38580   1.733  16.572  12.569
73596ION    CL-38581   8.876   6.546   1.961
73597ION    CL-38582  19.283  37.571   2.995
73598ION    CL-38583   8.337  19.629  13.388
73599ION    CL-38584  38.114  20.219   2.398
73600ION    CL-38585  24.443  35.036   3.148
73601ION    CL-38586   9.306  20.553  12.016
73602ION    CL-38587  40.393  12.775   1.794
73603ION    CL-38588  38.540  27.490   3.265
73604ION    CL-38589  10.145   9.982  13.416
73605ION    CL-38590  10.242   5.830  12.029
73606ION    CL-38591  32.370  35.881   0.239
73607ION    CL-38592  15.436   5.088  12.496
73608ION    CL-38593  23.454  36.737   0.210
73609ION    CL-38594  13.512  12.258  12.487
73610ION    CL-38595  38.959  15.663   4.447
73611ION    CL-38596  33.839  43.200  14.317
73612ION    CL-38597  33.557   2.202  11.071
73613ION    CL-38598  29.931  19.661  14.465
73614ION    CL-38599  23.112  10.320   9.834
73615ION    CL-38600   5.842   1.259   0.900
73616ION    CL-38601   3.141   6.809  11.082
73617ION    CL-38602  29.379   9.718   1.904
73618ION    CL-38603   1.092  37.184  13.495
73619ION    CL-38604   1.927  12.417   1.823
73620ION    CL-38605  15.606  26.849   0.296
73621ION    CL-38606  13.643  27.527  10.655
73622ION    CL-38607  43.634  16.195  12.747
73623ION    CL-38608  12.538  10.201  13.065
73624ION    CL-38609  41.621   1.531  13.898
73625ION    CL-38610   1.792  17.262  11.469
73626ION    CL-38611  14.773  39.838   1.567
73627ION    CL-38612  42.978   5.929   1.383
73628ION    CL-38613  17.423  25.829  11.274
73629ION    CL-38614  28.638  44.818   4.104
73630ION    CL-38615  21.628  12.947  12.855
73631ION    CL-38616  37.061  34.084   1.329
73632ION    CL-38617  14.337   0.540   4.016
73633ION    CL-38618   7.666  40.934  12.819
73634ION    CL-38619   7.545   9.052   4.763
73635ION    CL-38620  25.079  24.978  12.247
73636ION    CL-38621  36.151  35.911  12.162
73637ION    CL-38622  25.495  36.151   4.264
73638ION    CL-38623   9.626  42.608  12.201
73639ION    CL-38624  30.852   7.603   2.417
73640ION    CL-38625  18.748  31.154  13.811
73641ION    CL-38626   7.833  26.191  12.755
73642ION    CL-38627  38.042  43.376   0.022
73643ION    CL-38628  32.136  32.366  12.630
73644ION    CL-38629   7.623  22.844  14.820
73645ION    CL-38630  11.814  24.934   3.268
73646ION    CL-38631  27.548  43.690  13.771
73647ION    CL-38632  19.582  27.184  14.122
73648ION    CL-38633  33.823  39.518   3.997
73649ION    CL-38634  11.028  10.339  12.472
73650ION    CL-38635  22.483  17.090   1.184
73651ION    CL-38636  44.766  44.244   0.821
73652ION    CL-38637  36.963  34.933  14.461
73653ION    CL-38638  35.088   3.981   0.363
73654ION    CL-38639  39.885   4.645   0.708
73655ION    CL-38640  36.562   3.249  14.685
73656ION    CL-38641  26.696  11.745  12.579
73657ION    CL-38642  12.427  24.746  14.820
73658ION    CL-38643  32.337  29.015  13.459
73659ION    CL-38644  17.450  41.267  11.061
73660ION    CL-38645  35.915  27.088  10.956
73661ION    CL-38646  44.926  34.431  12.512
73662ION    CL-38647  19.895  25.375   0.121
73663ION    CL-38648  13.690  17.623   0.899
73664ION    CL-38649  13.371   8.955  11.852
73665ION    CL-38650  41.375  30.937  11.611
73666ION    CL-38651  29.968  23.158   0.814
73667ION    CL-38652  12.132  11.539   4.689
73668ION    CL-38653   1.989  31.321  13.442
73669ION    CL-38654  36.361  21.001   0.839
73670ION    CL-38655  13.861   1.530  12.351
73671ION    CL-38656  31.924  26.537   3.297
73672ION    CL-38657  14.723  28.540   0.691
73673ION    CL-38658  38.160   5.100   3.919
73674ION    CL-38659  33.677  14.004   1.663
73675ION    CL-38660  16.492   2.471  11.570
73676ION    CL-38661  41.247  14.991  12.545
73677ION    CL-38662  12.648  41.306  13.939
73678ION    CL-38663   0.773   6.581   2.729
73679ION    CL-38664  20.452  35.518  11.635
73680ION    CL-38665  23.142   3.033   2.356
73681ION    CL-38666  32.168  40.289  14.261
73682ION    CL-38667  13.406  25.106  13.833
73683ION    CL-38668  20.739   4.067  14.840
73684ION    CL-38669  30.072  21.996   1.404
73685ION    CL-38670  42.117  30.007  14.450
73686ION    CL-38671   5.838  34.914   0.182
73687ION    CL-38672   8.203   1.881  10.450
73688ION    CL-38673  36.025  27.390   2.749
73689ION    CL-38674  36.020   4.374   0.294
73690ION    CL-38675   7.245  18.807  13.838
73691ION    CL-38676  30.092  35.963   0.822
73692ION    CL-38677  31.177   9.609  13.765
73693ION    CL-38678  33.306   6.324   4.976
73694ION    CL-38679  25.496  13.669  14.320
73695ION    CL-38680  30.321  23.744  12.602
73696ION    CL-38681  15.012   5.052   0.587
73697ION    CL-38682  44.431   2.092  13.458
73698ION    CL-38683  10.817  12.001  14.669
73699ION    CL-38684  10.788  40.764   0.767
73700ION    CL-38685  26.461  12.364   0.837
73701ION    CL-38686  19.510  35.883   2.403
73702ION    CL-38687  26.720  27.694  13.050
73703ION    CL-38688  29.352   7.699  12.999
73704ION    CL-38689   4.503  41.334  14.005
73705ION    CL-38690   2.368  38.049   2.944
73706ION    CL-38691  18.033   9.891   9.607
73707ION    CL-38692  34.512   7.503   0.187
73708ION    CL-38693  43.369  44.291  14.483
73709ION    CL-38694   0.826  29.846   9.793
73710ION    CL-38695  16.328   5.912   4.277
73711ION    CL-38696   3.283  12.108   0.242
73712ION    CL-38697  34.990  23.151   2.871
73713ION    CL-38698  12.431  15.429   5.064
73714ION    CL-38699  36.823  18.082  12.746
73715ION    CL-38700  21.591  28.657  11.555
73716ION    CL-38701  43.001  41.413  14.020
73717ION    CL-38702  43.343  43.682  11.567
73718ION    CL-38703  25.263  30.831  13.691
73719ION    CL-38704  22.240  16.184  12.491
73720ION    CL-38705  40.475   3.887  12.050
73721ION    CL-38706  44.881  11.306   4.003
73722ION    CL-38707  34.310  16.904   1.970
73723ION    CL-38708  44.808  29.419  12.338
73724ION    CL-38709  27.204   6.688   1.493
73725ION    CL-38710  23.013  21.710   3.690
73726ION    CL-38711  39.358  16.350  12.512
73727ION    CL-38712  15.900  24.554   2.703
73728ION    CL-38713   9.804  16.615   4.411
73729ION    CL-38714   1.825  11.869  10.701
73730ION    CL-38715  38.326  16.437   4.145
73731ION    CL-38716  43.693  10.169  10.974
73732ION    CL-38717  15.750  37.801   1.361
73733ION    CL-38718  14.116  30.656   1.024
73734ION    CL-38719  22.691  14.323  11.954
73735ION    CL-38720  22.457  26.512  14.470
73736ION    CL-38721  12.384  14.650  13.454
73737ION    CL-38722  38.554  29.218  10.337
73738ION    CL-38723  20.087  14.632   3.946
73739ION    CL-38724   7.631   0.727  12.035
73740ION    CL-38725  20.535  21.753  12.412
73741ION    CL-38726  19.225  37.622   0.430
73742ION    CL-38727  42.201  44.715   9.962
73743ION    CL-38728  13.038  16.727   4.454
73744ION    CL-38729  28.655  28.335  11.213
73745ION    CL-38730   5.244  36.808   1.420
73746ION    CL-38731  16.329  13.163   1.804
73747ION    CL-38732   4.007  11.543  13.487
73748ION    CL-38733  40.265   5.000   9.886
73749ION    CL-38734  32.148  39.030   0.260
73750ION    CL-38735  36.978  43.081  10.248
73751ION    CL-38736  38.711   2.464   4.565
73752ION    CL-38737  16.758   1.910  12.361
73753ION    CL-38738  18.959  37.438  14.080
73754ION    CL-38739   4.966  39.814   9.847
73755ION    CL-38740   7.447  43.858   1.360
73756ION    CL-38741  44.872  29.370  11.333
73757ION    CL-38742   9.463  34.329  11.265
73758ION    CL-38743  24.328  29.100  14.529
73759ION    CL-38744   0.174  32.164   1.193
73760ION    CL-38745  23.589  31.545   3.401
73761ION    CL-38746   6.344  27.477  14.814
73762ION    CL-38747  23.054  38.903   2.694
73763ION    CL-38748  33.492  43.908  13.702
73764ION    CL-38749  34.189  41.488  14.539
73765ION    CL-38750  14.587   5.500  11.881
73766ION    CL-38751   1.584  22.469   2.536
73767ION    CL-38752  12.545   5.192   0.801
73768ION    CL-38753   6.671  39.850   4.025
73769ION    CL-38754  42.212  29.256   3.327
73770ION    CL-38755  39.876  17.098  12.795
73771ION    CL-38756  16.295  41.098   1.021
73772ION    CL-38757  14.467   1.501   3.771
73773ION    CL-38758  32.607  37.589   4.016
73774ION    CL-38759  13.526  30.663  14.862
73775ION    CL-38760  16.477   3.170   0.323
73776ION    CL-38761   1.270  39.337   2.772
73777ION    CL-38762   8.793  20.325   2.047
73778ION    CL-38763  27.952  25.685   0.281
73779ION    CL-38764  22.594  16.453   3.000
73780ION    CL-38765  23.701  41.247   2.682
73781ION    CL-38766   9.370   2.298   1.787
73782ION    CL-38767  39.108   3.378  11.182
73783ION    CL-38768  29.275  28.328  10.258
73784ION    CL-38769  38.245  33.756   3.632
73785ION    CL-38770   6.100  31.249   0.040
73786ION    CL-38771  32.962  13.638   3.189
73787ION    CL-38772   9.826  29.988   3.803
73788ION    CL-38773  38.340  38.597  10.907
73789ION    CL-38774  11.184  41.239   4.094
73790ION    CL-38775  13.685  36.671  13.367
73791ION    CL-38776   3.515  38.918  12.469
73792ION    CL-38777  34.705  17.715  13.156
73793ION    CL-38778   9.548  23.687  14.980
73794ION    CL-38779  41.661  24.188  10.321
73795ION    CL-38780  22.883   5.086   3.906
73796ION    CL-38781  20.100  23.048  14.439
73797ION    CL-38782  39.794  14.484  11.367
73798ION    CL-38783  17.100  14.638   0.376
73799ION    CL-38784  31.192  32.295  12.953
73800ION    CL-38785  25.907  12.361   4.521
73801ION    CL-38786  18.946  33.906   2.565
73802ION    CL-38787  41.961  33.061   1.668
73803ION    CL-38788  24.734  18.604   3.545
73804ION    CL-38789  27.363   1.974   4.062
73805ION    CL-38790   6.495  24.504  13.486
73806ION    CL-38791  39.037  17.360   2.236
73807ION    CL-38792  10.692  36.072   2.827
73808ION    CL-38793   3.640  42.178  11.266
73809ION    CL-38794  12.821   9.039  12.360
73810ION    CL-38795  27.459  21.160  13.778
73811ION    CL-38796   7.287  25.855   1.248
73812ION    CL-38797  37.851  27.469   4.550
73813ION    CL-38798   5.782  16.632  10.819
73814ION    CL-38799  33.518  31.847  11.328
73815ION    CL-38800  17.231  40.065   2.791
73816ION    CL-38801  12.171  21.115  10.907
73817ION    CL-38802  37.944   6.178  11.509
73818ION    CL-38803   1.659  27.750   4.472
73819ION    CL-38804   8.084  30.617  14.552
73820ION    CL-38805  29.359   5.083  12.211
73821ION    CL-38806  12.845  42.579  11.110
73822ION    CL-38807  26.166  24.272   3.127
73823ION    CL-38808  33.995   5.645  13.777
73824ION    CL-38809  40.777  24.130   4.144
73825ION    CL-38810   4.391  14.979  10.709
73826ION    CL-38811  23.895  37.681  12.774
73827ION    CL-38812  23.771  39.525   2.375
73828ION    CL-38813  24.743  24.296   0.861
73829ION    CL-38814  34.734   9.078  14.740
73830ION    CL-38815  15.439  35.099   1.451
73831ION    CL-38816   0.352  23.837  14.078
73832ION    CL-38817  15.940  38.945   9.855
73833ION    CL-38818   2.020   8.968   3.994
73834ION    CL-38819  20.132  10.740  11.241
73835ION    CL-38820  40.839  20.038   1.786
73836ION    CL-38821  18.595  30.649  14.660
73837ION    CL-38822  35.246  44.887  12.111
73838ION    CL-38823  35.107   5.611  11.366
73839ION    CL-38824  10.513  44.542   3.206
73840ION    CL-38825  31.314   4.461   3.213
73841ION    CL-38826   3.654  22.752   3.460
73842ION    CL-38827  17.532   9.749  13.443
73843ION    CL-38828   8.890  19.756   1.231
73844ION    CL-38829  10.781   0.779  13.005
73845ION    CL-38830   5.160  25.145   2.273
73846ION    CL-38831   8.765  17.707  12.565
73847ION    CL-38832  36.022  36.754   0.380
73848ION    CL-38833   6.556  33.853  10.519
73849ION    CL-38834  38.926   4.961   1.904
73850ION    CL-38835  40.837  12.100   0.216
73851ION    CL-38836  24.802  19.155   2.417
73852ION    CL-38837  13.229  44.918  14.075
73853ION    CL-38838  21.309  37.461   2.720
73854ION    CL-38839  11.719  34.716   0.633
73855ION    CL-38840   4.279  34.456  11.895
73856ION    CL-38841   9.936  32.941  13.246
73857ION    CL-38842  21.838  35.722  12.036
73858ION    CL-38843   6.167  26.448  14.980
73859ION    CL-38844  11.775  42.657  11.200
73860ION    CL-38845  15.717   1.680   5.043
73861ION    CL-38846   9.417  30.020  12.062
73862ION    CL-38847  25.558   3.210   1.513
73863ION    CL-38848  40.333  22.263  14.359
73864ION    CL-38849  21.268  16.532  14.350
73865ION    CL-38850   5.127   1.618  12.817
73866ION    CL-38851  27.961   5.024   5.016
73867ION    CL-38852   1.154  42.744   2.818
73868ION    CL-38853  11.585  10.759  11.566
73869ION    CL-38854   4.419  24.144   5.040
73870ION    CL-38855  10.238  10.576  11.570
73871ION    CL-38856  32.196  13.024  10.270
73872ION    CL-38857  20.896  42.798   3.173
73873ION    CL-38858  36.556  10.113  10.436
73874ION    CL-38859  26.526  40.276  13.570
73875ION    CL-38860   5.478   2.563  11.477
73876ION    CL-38861   4.115   6.555   0.135
73877ION    CL-38862   9.900  42.783  10.505
73878ION    CL-38863  10.396  42.070  13.411
73879ION    CL-38864  27.617   3.317   4.161
73880ION    CL-38865  36.924  32.305   0.945
73881ION    CL-38866  37.297  14.921   4.798
73882ION    CL-38867  21.597  32.940   0.461
73883ION    CL-38868  19.791  15.222  11.439
73884ION    CL-38869   0.556   9.778   0.262
73885ION    CL-38870  16.032  29.585   4.212
73886ION    CL-38871   9.100  31.401   4.063
73887ION    CL-38872  42.240  17.616   0.140
73888ION    CL-38873  39.959  13.558   1.655
73889ION    CL-38874  18.337  26.241  13.094
73890ION    CL-38875  38.847  13.072  10.691
73891ION    CL-38876  10.391  10.778   2.290
73892ION    CL-38877   6.943   1.067  12.677
73893ION    CL-38878  37.974  21.040   0.334
73894ION    CL-38879  18.221  13.457   3.497
73895ION    CL-38880  42.729   0.069  14.454
73896ION    CL-38881  44.976   2.533   3.286
73897ION    CL-38882   6.687  30.520   4.665
73898ION    CL-38883  36.253   2.549   0.546
73899ION    CL-38884  18.552  41.217   2.825
73900ION    CL-38885  31.435  29.566   4.028
73901ION    CL-38886  12.302  38.653  14.478
73902ION    CL-38887  28.989  10.054   4.308
73903ION    CL-38888  18.785  16.493  12.863
73904ION    CL-38889   7.749  28.053   5.084
73905ION    CL-38890  33.926  22.448   2.939
73906ION    CL-38891  32.424  20.687   3.606
73907ION    CL-38892  14.904  19.599  12.043
73908ION    CL-38893   0.928   9.515  13.851
73909ION    CL-38894  14.742  42.992   5.046
73910ION    CL-38895  32.518   7.584   3.750
73911ION    CL-38896  19.201   5.962   1.907
73912ION    CL-38897   2.664  37.924  12.214
73913ION    CL-38898  35.164  35.838   2.895
73914ION    CL-38899  23.953  14.076  12.465
73915ION    CL-38900  13.030  44.513   5.193
73916ION    CL-38901  12.190  37.587  14.482
73917ION    CL-38902   1.962  38.314  12.932
73918ION    CL-38903  21.550   4.899  11.652
73919ION    CL-38904  15.803  39.090  12.703
73920ION    CL-38905  31.564  27.391  14.900
73921ION    CL-38906  31.657   4.657  12.302
73922ION    CL-38907  28.820  14.988   2.513
73923ION    CL-38908  30.711  11.828  12.385
73924ION    CL-38909  30.053  35.095   2.545
73925ION    CL-38910  41.952  14.113  14.284
73926ION    CL-38911  31.295  13.120  14.269
73927ION    CL-38912  21.732  31.020   3.978
73928ION    CL-38913   9.740   1.644   5.091
73929ION    CL-38914  20.252  43.010  13.307
73930ION    CL-38915   0.922  39.127  12.060
73931ION    CL-38916  32.754  18.348   9.841
73932ION    CL-38917   3.532  12.085   5.012
73933ION    CL-38918  38.579  13.929   3.431
73934ION    CL-38919  22.273  15.082  14.735
73935ION    CL-38920  36.776  38.953  10.423
73936ION    CL-38921  44.992  11.205   5.268
73937ION    CL-38922  37.567  24.494   2.594
73938ION    CL-38923  20.044  43.939   2.866
73939ION    CL-38924   5.721  36.330  11.054
73940ION    CL-38925  20.093  23.992  14.771
73941ION    CL-38926   7.831  33.901  10.431
73942ION    CL-38927   2.215  30.205   2.382
73943ION    CL-38928  36.376  13.528   5.026
73944ION    CL-38929  26.792  29.591  11.949
73945ION    CL-38930  34.452  36.781  11.502
73946ION    CL-38931  26.592  25.821  10.559
73947ION    CL-38932   5.443   2.034   2.084
73948ION    CL-38933  16.412  35.778   5.060
73949ION    CL-38934  41.414  24.317  14.834
73950ION    CL-38935   8.094  39.476  11.162
73951ION    CL-38936  43.638  35.333  13.221
73952ION    CL-38937  12.367  41.215  12.983
73953ION    CL-38938  27.899  26.436   1.813
73954ION    CL-38939  26.225  29.431  13.234
73955ION    CL-38940  40.480  39.277  14.679
73956ION    CL-38941  29.463  42.081  12.493
73957ION    CL-38942  25.686  42.778   0.515
73958ION    CL-38943  37.656  32.744  11.946
73959ION    CL-38944  29.595  24.792   3.820
73960ION    CL-38945  36.714  28.358  13.102
73961ION    CL-38946  40.622  20.933  12.416
73962ION    CL-38947  18.322  32.469   3.221
73963ION    CL-38948  27.653  20.346   1.826
73964ION    CL-38949  23.085  11.818  12.454
73965ION    CL-38950  20.849   0.608  12.082
73966ION    CL-38951  13.448  18.011   9.819
73967ION    CL-38952  26.120  29.316   4.515
73968ION    CL-38953   7.226  14.567   2.115
73969ION    CL-38954  30.426   3.604  12.213
73970ION    CL-38955   1.815  10.282  10.686
73971ION    CL-38956  12.303  25.757   0.050
73972ION    CL-38957  41.030   9.877   2.576
73973ION    CL-38958   6.882  26.147   0.482
73974ION    CL-38959  44.024  35.023  11.557
73975ION    CL-38960  36.519  23.908   0.381
73976ION    CL-38961  39.021  42.411   4.377
73977ION    CL-38962  10.670   5.586  10.347
73978ION    CL-38963  29.373  24.565   4.643
73979ION    CL-38964  31.612  17.664  13.467
73980ION    CL-38965  15.635   1.004  12.902
73981ION    CL-38966  19.005  17.545  13.709
73982ION    CL-38967  20.845  10.407   2.918
73983ION    CL-38968  16.872  21.962  10.825
73984ION    CL-38969  26.488  19.555   2.311
73985ION    CL-38970  16.988  42.838  11.041
73986ION    CL-38971  27.690   9.204  13.036
73987ION    CL-38972  40.937  42.250   4.139
73988ION    CL-38973  28.351  19.300  14.001
73989ION    CL-38974   5.984  26.476  11.639
73990ION    CL-38975  22.079   8.279   5.055
73991ION    CL-38976   9.448   6.931  13.507
73992ION    CL-38977  40.587  30.436   3.801
73993ION    CL-38978   1.323  41.746   0.242
73994ION    CL-38979   5.770   3.885  14.505
73995ION    CL-38980  43.804   4.963  12.267
73996ION    CL-38981   7.882  27.088   3.870
73997ION    CL-38982  12.463  12.296  12.592
73998ION    CL-38983  20.650   3.372   1.876
73999ION    CL-38984  41.691  18.618  11.577
74000ION    CL-38985  35.350  23.349  12.210
74001ION    CL-38986  26.976  16.111  12.445
74002ION    CL-38987   5.076   9.996  13.061
74003ION    CL-38988  13.476   6.447  13.511
74004ION    CL-38989  17.387  41.677  13.033
74005ION    CL-38990  31.712   5.681  10.323
74006ION    CL-38991   8.527  42.571   1.799
74007ION    CL-38992  22.238  22.003  12.772
74008ION    CL-38993  10.180  37.594  14.429
74009ION    CL-38994  12.004   2.333  11.955
74010ION    CL-38995  25.597  28.181  14.481
74011ION    CL-38996  12.186  32.111   0.235
74012ION    CL-38997  37.985  35.451   3.322
74013ION    CL-38998  41.787   5.743  11.520
74014ION    CL-38999  18.953  17.609   4.591
74015ION    CL-39000   9.762  10.017   4.903
74016ION    CL-39001  23.809  30.837   5.534
74017ION    CL-39002  25.096  38.262   4.541
74018ION    CL-39003  20.897  35.522   0.783
74019ION    CL-39004  19.672  16.532  12.728
74020ION    CL-39005  12.801   2.865   2.950
74021ION    CL-39006  24.781  41.945   0.653
74022ION    CL-39007   8.625  41.631   1.835
74023ION    CL-39008  19.776  18.220   9.730
74024ION    CL-39009  13.187  43.717  11.903
74025ION    CL-39010  32.500  27.549   0.359
74026ION    CL-39011  29.488   2.995   1.216
74027ION    CL-39012  26.530   7.987   2.719
74028ION    CL-39013  38.000   8.668  10.492
74029ION    CL-39014  29.364  33.940   3.181
74030ION    CL-39015   8.825   9.299   1.518
74031ION    CL-39016   3.493   2.428  14.906
74032ION    CL-39017  26.167  11.161  11.545
74033ION    CL-39018  36.863  39.517  13.613
74034ION    CL-39019  11.451   5.416   2.804
74035ION    CL-39020   2.788  24.210   4.037
74036ION    CL-39021  16.258  28.585   4.899
74037ION    CL-39022  28.251  21.083  11.715
74038ION    CL-39023   3.726  44.898   1.518
74039ION    CL-39024  13.044  18.502   3.801
74040ION    CL-39025  17.548   1.490  12.093
74041ION    CL-39026  13.957   2.823  14.746
74042ION    CL-39027   3.095  38.434   3.856
74043ION    CL-39028  33.108  18.115   1.362
74044ION    CL-39029  32.586  44.765  11.983
74045ION    CL-39030   9.760  28.274   1.464
74046ION    CL-39031  13.032  18.528  13.942
74047ION    CL-39032  21.228   8.750  14.948
74048ION    CL-39033  26.034   6.944   2.242
74049ION    CL-39034  44.317  39.507  12.324
74050ION    CL-39035   6.656  35.838   0.943
74051ION    CL-39036  13.572  22.248  12.717
74052ION    CL-39037  26.037   3.844  10.859
74053ION    CL-39038  37.159  41.246   4.146
74054ION    CL-39039  13.965  13.320   2.137
74055ION    CL-39040  35.179   2.642  10.828
74056ION    CL-39041  31.466  36.933  11.740
74057ION    CL-39042  21.407  10.285  11.704
74058ION    CL-39043   8.413  44.177  12.086
74059ION    CL-39044  43.993  15.173   0.266
74060ION    CL-39045  33.377   3.989  13.081
74061ION    CL-39046  39.245  31.207   3.566
74062ION    CL-39047   9.424  44.004   1.072
74063ION    CL-39048  36.979  43.237   2.566
74064ION    CL-39049  21.155  28.409  13.398
74065ION    CL-39050  12.418  28.055   5.296
74066ION    CL-39051  42.562  26.854  13.308
74067ION    CL-39052  25.499  14.753  10.645
74068ION    CL-39053  34.645  10.279  13.873
74069ION    CL-39054   6.573  35.237   1.599
74070ION    CL-39055  26.105  13.631   4.114
74071ION    CL-39056  12.545  22.556   2.298
74072ION    CL-39057  27.149  10.311   4.264
74073ION    CL-39058  35.441  32.728   0.648
74074ION    CL-39059  25.704  43.735   4.898
74075ION    CL-39060  30.854  15.036  14.139
74076ION    CL-39061  29.021  19.988  12.532
74077ION    CL-39062  27.489   4.241  13.391
74078ION    CL-39063  36.639  14.197   5.006
74079ION    CL-39064   4.909  23.487   3.177
74080ION    CL-39065   0.923  25.716  12.127
74081ION    CL-39066  23.977  10.195  10.590
74082ION    CL-39067   2.694  28.152  12.492
74083ION    CL-39068  40.793  26.135  12.467
74084ION    CL-39069  24.749   4.957   4.564
74085ION    CL-39070  23.399   4.488   4.352
74086ION    CL-39071  28.210  13.738  13.868
74087ION    CL-39072  13.037  34.955  12.270
74088ION    CL-39073   6.299   4.673   1.453
74089ION    CL-39074   7.537  23.919  11.079
74090ION    CL-39075  21.042  15.717  11.687
74091ION    CL-39076  44.397  24.570   1.374
74092ION    CL-39077   7.875  41.883   2.117
74093ION    CL-39078  13.605  15.295   2.860
  45.00000  45.00000  15.00000
